<event>
 4    1  0.4367748E-004  0.7528290E+01  0.7818608E-02  0.2250815E+00
         -1   -1    0    0    0  501 -0.00000000000E+00  0.00000000000E+00  0.68705598532E+02  0.68705598717E+02  0.50400000000E-02 0.  1.
          1   -1    0    0  501    0  0.00000000000E+00 -0.00000000000E+00 -0.20619366119E+00  0.20625524845E+00  0.50400000000E-02 0. -1.
         31    1    1    2    0    0 -0.94971861630E-01  0.63616072511E+00  0.56223524157E+02  0.56298231667E+02  0.28271010000E+01 0.  1.
        -31    1    1    2    0    0  0.94971861630E-01 -0.63616072511E+00  0.12275880713E+02  0.12613622298E+02  0.28271010000E+01 0. -1.
<mgrwt>
<rscale>  0 0.75282899E+01</rscale>
<asrwt>0</asrwt>
<pdfrwt beam="2">  1        1 0.43839532E+00 0.75282899E+01</pdfrwt>
<pdfrwt beam="1">  1       -1 0.56981142E+00 0.75282899E+01</pdfrwt>
<totfact> 0.25391157E-03</totfact>
</mgrwt>
</event>
<event>
 4    1  0.4367748E-004  0.6834284E+01  0.7818608E-02  0.2318032E+00
         -1   -1    0    0    0  501 -0.00000000000E+00  0.00000000000E+00  0.34640540036E+02  0.34640540402E+02  0.50400000000E-02 0. -1.
          1   -1    0    0  501    0  0.00000000000E+00 -0.00000000000E+00 -0.33706727562E+00  0.33710495382E+00  0.50400000000E-02 0.  1.
         31    1    1    2    0    0  0.77597807442E+00 -0.78308912146E+00  0.91098673076E+01  0.96019556846E+01  0.28271010000E+01 0.  1.
        -31    1    1    2    0    0 -0.77597807442E+00  0.78308912146E+00  0.25193605452E+02  0.25375689671E+02  0.28271010000E+01 0. -1.
<mgrwt>
<rscale>  0 0.68342835E+01</rscale>
<asrwt>0</asrwt>
<pdfrwt beam="2">  1        1 0.71180753E+00 0.68342835E+01</pdfrwt>
<pdfrwt beam="1">  1       -1 0.28921964E+00 0.68342835E+01</pdfrwt>
<totfact> 0.75161266E-03</totfact>
</mgrwt>
</event>
<event>
 4    1  0.4367748E-004  0.6908104E+01  0.7818608E-02  0.2310359E+00
         -1   -1    0    0    0  501 -0.00000000000E+00  0.00000000000E+00  0.49526204231E+02  0.49526204488E+02  0.50400000000E-02 0.  1.
          1   -1    0    0  501    0  0.00000000000E+00 -0.00000000000E+00 -0.24086556179E+00  0.24091828585E+00  0.50400000000E-02 0. -1.
         31    1    1    2    0    0 -0.56886461354E-01  0.12484963130E+01  0.35747361706E+02  0.35880751778E+02  0.28271010000E+01 0.  1.
        -31    1    1    2    0    0  0.56886461354E-01 -0.12484963130E+01  0.13537976963E+02  0.13886370996E+02  0.28271010000E+01 0. -1.
<mgrwt>
<rscale>  0 0.69081040E+01</rscale>
<asrwt>0</asrwt>
<pdfrwt beam="2">  1        1 0.51114295E+00 0.69081040E+01</pdfrwt>
<pdfrwt beam="1">  1       -1 0.41150939E+00 0.69081040E+01</pdfrwt>
<totfact> 0.14077496E-02</totfact>
</mgrwt>
</event>
<event>
 4    1  0.4367748E-004  0.6255287E+01  0.7818608E-02  0.2383336E+00
          1   -1    0    0  501    0  0.00000000000E+00  0.00000000000E+00  0.48867571850E+02  0.48867572110E+02  0.50400000000E-02 0.  1.
         -1   -1    0    0    0  501 -0.00000000000E+00 -0.00000000000E+00 -0.20014479273E+00  0.20020824073E+00  0.50400000000E-02 0. -1.
         31    1    1    2    0    0 -0.40392695320E+00 -0.12341958901E+01  0.26854336479E+02  0.27033946887E+02  0.28271010000E+01 0.  1.
        -31    1    1    2    0    0  0.40392695320E+00  0.12341958901E+01  0.21813090578E+02  0.22033833464E+02  0.28271010000E+01 0. -1.
<mgrwt>
<rscale>  0 0.62552867E+01</rscale>
<asrwt>0</asrwt>
<pdfrwt beam="1">  1        1 0.40572674E+00 0.62552867E+01</pdfrwt>
<pdfrwt beam="2">  1       -1 0.42507464E+00 0.62552867E+01</pdfrwt>
<totfact> 0.31732282E-02</totfact>
</mgrwt>
</event>
<event>
 4    1  0.4367748E-004  0.6831622E+01  0.7818608E-02  0.2318311E+00
         -1   -1    0    0    0  501 -0.00000000000E+00  0.00000000000E+00  0.46948723826E+02  0.46948724097E+02  0.50400000000E-02 0. -1.
          1   -1    0    0  501    0  0.00000000000E+00 -0.00000000000E+00 -0.24849562140E+00  0.24854672691E+00  0.50400000000E-02 0.  1.
         31    1    1    2    0    0 -0.14237890429E+01 -0.11292592214E+01  0.27568707919E+02  0.27772802488E+02  0.28271010000E+01 0.  1.
        -31    1    1    2    0    0  0.14237890429E+01  0.11292592214E+01  0.19131520286E+02  0.19424468336E+02  0.28271010000E+01 0.  1.
<mgrwt>
<rscale>  0 0.68316220E+01</rscale>
<asrwt>0</asrwt>
<pdfrwt beam="2">  1        1 0.52710597E+00 0.68316220E+01</pdfrwt>
<pdfrwt beam="1">  1       -1 0.39026006E+00 0.68316220E+01</pdfrwt>
<totfact> 0.16305055E-02</totfact>
</mgrwt>
</event>
<event>
 4    1  0.4367748E-004  0.7903535E+01  0.7818608E-02  0.2218519E+00
         -1   -1    0    0    0  501 -0.00000000000E+00  0.00000000000E+00  0.80874551128E+02  0.80874551285E+02  0.50400000000E-02 0.  1.
          1   -1    0    0  501    0  0.00000000000E+00 -0.00000000000E+00 -0.19306186860E+00  0.19312764356E+00  0.50400000000E-02 0. -1.
         31    1    1    2    0    0  0.10461527101E+01 -0.16170179156E+00  0.14183258871E+02  0.14500962562E+02  0.28271010000E+01 0. -1.
        -31    1    1    2    0    0 -0.10461527101E+01  0.16170179156E+00  0.66498230389E+02  0.66566716367E+02  0.28271010000E+01 0.  1.
<mgrwt>
<rscale>  0 0.79035345E+01</rscale>
<asrwt>0</asrwt>
<pdfrwt beam="2">  1        1 0.41073540E+00 0.79035345E+01</pdfrwt>
<pdfrwt beam="1">  1       -1 0.67032429E+00 0.79035345E+01</pdfrwt>
<totfact> 0.13616225E-03</totfact>
</mgrwt>
</event>
<event>
 4    1  0.4367748E-004  0.6715152E+01  0.7818608E-02  0.2330706E+00
          1   -1    0    0  501    0  0.00000000000E+00  0.00000000000E+00  0.74613250272E+02  0.74613250442E+02  0.50400000000E-02 0.  1.
         -1   -1    0    0    0  501 -0.00000000000E+00 -0.00000000000E+00 -0.15104780979E+00  0.15113187104E+00  0.50400000000E-02 0. -1.
         31    1    1    2    0    0  0.59841050633E+00  0.15962286277E+01  0.44047023754E+02  0.44170565342E+02  0.28271010000E+01 0.  1.
        -31    1    1    2    0    0 -0.59841050633E+00 -0.15962286277E+01  0.30415178708E+02  0.30593816971E+02  0.28271010000E+01 0.  1.
<mgrwt>
<rscale>  0 0.67151521E+01</rscale>
<asrwt>0</asrwt>
<pdfrwt beam="1">  1        1 0.61820422E+00 0.67151521E+01</pdfrwt>
<pdfrwt beam="2">  1       -1 0.32150233E+00 0.67151521E+01</pdfrwt>
<totfact> 0.15797623E-02</totfact>
</mgrwt>
</event>
<event>
 4    1  0.4367748E-004  0.5872998E+01  0.7818608E-02  0.2432252E+00
          1   -1    0    0  501    0  0.00000000000E+00  0.00000000000E+00  0.45764579591E+02  0.45764579869E+02  0.50400000000E-02 0.  1.
         -1   -1    0    0    0  501 -0.00000000000E+00 -0.00000000000E+00 -0.18838740854E+00  0.18845481500E+00  0.50400000000E-02 0. -1.
         31    1    1    2    0    0 -0.23785587538E+00 -0.75759304744E+00  0.22801617111E+02  0.22989927482E+02  0.28271010000E+01 0.  1.
        -31    1    1    2    0    0  0.23785587538E+00  0.75759304744E+00  0.22774575071E+02  0.22963107202E+02  0.28271010000E+01 0. -1.
<mgrwt>
<rscale>  0 0.58729978E+01</rscale>
<asrwt>0</asrwt>
<pdfrwt beam="1">  1        1 0.37997184E+00 0.58729978E+01</pdfrwt>
<pdfrwt beam="2">  1       -1 0.40010377E+00 0.58729978E+01</pdfrwt>
<totfact> 0.57827306E-02</totfact>
</mgrwt>
</event>
<event>
 4    1  0.4367748E-004  0.6423981E+01  0.7818608E-02  0.2363305E+00
          1   -1    0    0  501    0  0.00000000000E+00  0.00000000000E+00  0.35506089225E+02  0.35506089583E+02  0.50400000000E-02 0. -1.
         -1   -1    0    0    0  501 -0.00000000000E+00 -0.00000000000E+00 -0.29054436084E+00  0.29058807136E+00  0.50400000000E-02 0.  1.
         31    1    1    2    0    0  0.14418811452E+01  0.28999369549E+00  0.15370037317E+02  0.15696931699E+02  0.28271010000E+01 0.  1.
        -31    1    1    2    0    0 -0.14418811452E+01 -0.28999369549E+00  0.19845507548E+02  0.20099745955E+02  0.28271010000E+01 0. -1.
<mgrwt>
<rscale>  0 0.64239809E+01</rscale>
<asrwt>0</asrwt>
<pdfrwt beam="1">  1        1 0.29599198E+00 0.64239809E+01</pdfrwt>
<pdfrwt beam="2">  1       -1 0.61451563E+00 0.64239809E+01</pdfrwt>
<totfact> 0.55739130E-03</totfact>
</mgrwt>
</event>
<event>
 4    1  0.4367748E-004  0.8498173E+01  0.7818608E-02  0.2172108E+00
          1   -1    0    0  501    0  0.00000000000E+00  0.00000000000E+00  0.56161607672E+02  0.56161607898E+02  0.50400000000E-02 0.  1.
         -1   -1    0    0    0  501 -0.00000000000E+00 -0.00000000000E+00 -0.32145827669E+00  0.32149778421E+00  0.50400000000E-02 0. -1.
         31    1    1    2    0    0 -0.31377730362E+01  0.16624226750E-04  0.24826658626E+02  0.25183349623E+02  0.28271010000E+01 0. -1.
        -31    1    1    2    0    0  0.31377730362E+01 -0.16624226750E-04  0.31013490769E+02  0.31299756060E+02  0.28271010000E+01 0.  1.
<mgrwt>
<rscale>  0 0.84981729E+01</rscale>
<asrwt>0</asrwt>
<pdfrwt beam="1">  1        1 0.46704184E+00 0.84981729E+01</pdfrwt>
<pdfrwt beam="2">  1       -1 0.68155314E+00 0.84981729E+01</pdfrwt>
<totfact> 0.75312140E-04</totfact>
</mgrwt>
</event>
<event>
 4    1  0.4367748E-004  0.5899631E+01  0.7818608E-02  0.2428673E+00
          1   -1    0    0  501    0  0.00000000000E+00  0.00000000000E+00  0.55308617810E+02  0.55308618040E+02  0.50400000000E-02 0. -1.
         -1   -1    0    0    0  501 -0.00000000000E+00 -0.00000000000E+00 -0.15728411141E+00  0.15736484138E+00  0.50400000000E-02 0.  1.
         31    1    1    2    0    0  0.40723651604E+00  0.63006223105E+00  0.31169145445E+02  0.31306084837E+02  0.28271010000E+01 0. -1.
        -31    1    1    2    0    0 -0.40723651604E+00 -0.63006223105E+00  0.23982188254E+02  0.24159898044E+02  0.28271010000E+01 0. -1.
<mgrwt>
<rscale>  0 0.58996312E+01</rscale>
<asrwt>0</asrwt>
<pdfrwt beam="1">  1        1 0.45863155E+00 0.58996312E+01</pdfrwt>
<pdfrwt beam="2">  1       -1 0.33449542E+00 0.58996312E+01</pdfrwt>
<totfact> 0.69555467E-02</totfact>
</mgrwt>
</event>
<event>
 4    1  0.4367748E-004  0.6162829E+01  0.7818608E-02  0.2394701E+00
         -1   -1    0    0    0  501 -0.00000000000E+00  0.00000000000E+00  0.35835948132E+02  0.35835948487E+02  0.50400000000E-02 0.  1.
          1   -1    0    0  501    0  0.00000000000E+00 -0.00000000000E+00 -0.26493630689E+00  0.26498424163E+00  0.50400000000E-02 0. -1.
         31    1    1    2    0    0 -0.91806751601E+00 -0.73517595326E+00  0.15762352466E+02  0.16057010524E+02  0.28271010000E+01 0. -1.
        -31    1    1    2    0    0  0.91806751601E+00  0.73517595326E+00  0.19808659360E+02  0.20043922205E+02  0.28271010000E+01 0.  1.
<mgrwt>
<rscale>  0 0.61628290E+01</rscale>
<asrwt>0</asrwt>
<pdfrwt beam="2">  1        1 0.56080126E+00 0.61628290E+01</pdfrwt>
<pdfrwt beam="1">  1       -1 0.29850777E+00 0.61628290E+01</pdfrwt>
<totfact> 0.40663478E-02</totfact>
</mgrwt>
</event>
<event>
 4    1  0.4367748E-004  0.6125310E+01  0.7818608E-02  0.2399394E+00
          1   -1    0    0  501    0  0.00000000000E+00  0.00000000000E+00  0.60024720193E+02  0.60024720405E+02  0.50400000000E-02 0. -1.
         -1   -1    0    0    0  501 -0.00000000000E+00 -0.00000000000E+00 -0.15622571194E+00  0.15630698855E+00  0.50400000000E-02 0.  1.
         31    1    1    2    0    0  0.93963119772E+00 -0.70974903233E+00  0.29673167915E+02  0.29830790211E+02  0.28271010000E+01 0.  1.
        -31    1    1    2    0    0 -0.93963119772E+00  0.70974903233E+00  0.30195326567E+02  0.30350237182E+02  0.28271010000E+01 0. -1.
<mgrwt>
<rscale>  0 0.61253103E+01</rscale>
<asrwt>0</asrwt>
<pdfrwt beam="1">  1        1 0.49761884E+00 0.61253103E+01</pdfrwt>
<pdfrwt beam="2">  1       -1 0.33232557E+00 0.61253103E+01</pdfrwt>
<totfact> 0.49127354E-02</totfact>
</mgrwt>
</event>
<event>
 4    1  0.4367748E-004  0.6044559E+01  0.7818608E-02  0.2409660E+00
         -1   -1    0    0    0  501 -0.00000000000E+00  0.00000000000E+00  0.37431996589E+02  0.37431996928E+02  0.50400000000E-02 0. -1.
          1   -1    0    0  501    0  0.00000000000E+00 -0.00000000000E+00 -0.24399414224E+00  0.24404619040E+00  0.50400000000E-02 0.  1.
         31    1    1    2    0    0  0.63368972983E+00 -0.41050256950E+00  0.23306449742E+02  0.23489426870E+02  0.28271010000E+01 0. -1.
        -31    1    1    2    0    0 -0.63368972983E+00  0.41050256950E+00  0.13881552705E+02  0.14186616249E+02  0.28271010000E+01 0. -1.
<mgrwt>
<rscale>  0 0.60445595E+01</rscale>
<asrwt>0</asrwt>
<pdfrwt beam="2">  1        1 0.51692935E+00 0.60445595E+01</pdfrwt>
<pdfrwt beam="1">  1       -1 0.31153189E+00 0.60445595E+01</pdfrwt>
<totfact> 0.53647066E-02</totfact>
</mgrwt>
</event>
<event>
 4    1  0.4367748E-004  0.6889173E+01  0.7818608E-02  0.2312314E+00
          1   -1    0    0  501    0  0.00000000000E+00  0.00000000000E+00  0.52315769434E+02  0.52315769677E+02  0.50400000000E-02 0.  1.
         -1   -1    0    0    0  501 -0.00000000000E+00 -0.00000000000E+00 -0.22677097938E+00  0.22682697963E+00  0.50400000000E-02 0. -1.
         31    1    1    2    0    0  0.16316698778E+01  0.43901078980E+00  0.18350843961E+02  0.18644062090E+02  0.28271010000E+01 0. -1.
        -31    1    1    2    0    0 -0.16316698778E+01 -0.43901078980E+00  0.33738154494E+02  0.33898534567E+02  0.28271010000E+01 0.  1.
<mgrwt>
<rscale>  0 0.68891729E+01</rscale>
<asrwt>0</asrwt>
<pdfrwt beam="1">  1        1 0.43445895E+00 0.68891729E+01</pdfrwt>
<pdfrwt beam="2">  1       -1 0.48149281E+00 0.68891729E+01</pdfrwt>
<totfact> 0.10163651E-02</totfact>
</mgrwt>
</event>
<event>
 4    1  0.4367748E-004  0.6268724E+01  0.7818608E-02  0.2381708E+00
          1   -1    0    0  501    0  0.00000000000E+00  0.00000000000E+00  0.78955841637E+02  0.78955841798E+02  0.50400000000E-02 0.  1.
         -1   -1    0    0    0  501 -0.00000000000E+00 -0.00000000000E+00 -0.12437562826E+00  0.12447770284E+00  0.50400000000E-02 0. -1.
         31    1    1    2    0    0 -0.68135965451E-01 -0.12837177378E+01  0.44755212219E+02  0.44862836453E+02  0.28271010000E+01 0.  1.
        -31    1    1    2    0    0  0.68135965451E-01  0.12837177378E+01  0.34076253789E+02  0.34217483048E+02  0.28271010000E+01 0. -1.
<mgrwt>
<rscale>  0 0.62687239E+01</rscale>
<asrwt>0</asrwt>
<pdfrwt beam="1">  1        1 0.65389141E+00 0.62687239E+01</pdfrwt>
<pdfrwt beam="2">  1       -1 0.26488480E+00 0.62687239E+01</pdfrwt>
<totfact> 0.22310297E-02</totfact>
</mgrwt>
</event>
<event>
 4    1  0.4367748E-004  0.6126475E+01  0.7818608E-02  0.2399248E+00
         -1   -1    0    0    0  501 -0.00000000000E+00  0.00000000000E+00  0.54942790680E+02  0.54942790911E+02  0.50400000000E-02 0.  1.
          1   -1    0    0  501    0  0.00000000000E+00 -0.00000000000E+00 -0.17074793805E+00  0.17082230519E+00  0.50400000000E-02 0. -1.
         31    1    1    2    0    0  0.39658664570E+00 -0.10650487184E+01  0.30221025434E+02  0.30374240535E+02  0.28271010000E+01 0. -1.
        -31    1    1    2    0    0 -0.39658664570E+00  0.10650487184E+01  0.24551017308E+02  0.24739372681E+02  0.28271010000E+01 0. -1.
<mgrwt>
<rscale>  0 0.61264750E+01</rscale>
<asrwt>0</asrwt>
<pdfrwt beam="2">  1        1 0.36301921E+00 0.61264750E+01</pdfrwt>
<pdfrwt beam="1">  1       -1 0.45571792E+00 0.61264750E+01</pdfrwt>
<totfact> 0.29402313E-02</totfact>
</mgrwt>
</event>
<event>
 4    1  0.4367748E-004  0.6051142E+01  0.7818608E-02  0.2408815E+00
         -1   -1    0    0    0  501 -0.00000000000E+00  0.00000000000E+00  0.58405229571E+02  0.58405229788E+02  0.50400000000E-02 0.  1.
          1   -1    0    0  501    0  0.00000000000E+00 -0.00000000000E+00 -0.15669317135E+00  0.15677420562E+00  0.50400000000E-02 0. -1.
         31    1    1    2    0    0  0.68228952026E+00 -0.21775112692E+00  0.21329877316E+02  0.21528332516E+02  0.28271010000E+01 0. -1.
        -31    1    1    2    0    0 -0.68228952026E+00  0.21775112692E+00  0.36918659084E+02  0.37033671478E+02  0.28271010000E+01 0.  1.
<mgrwt>
<rscale>  0 0.60511420E+01</rscale>
<asrwt>0</asrwt>
<pdfrwt beam="2">  1        1 0.33329279E+00 0.60511420E+01</pdfrwt>
<pdfrwt beam="1">  1       -1 0.48423162E+00 0.60511420E+01</pdfrwt>
<totfact> 0.24567796E-02</totfact>
</mgrwt>
</event>
<event>
 4    1  0.4367748E-004  0.5939541E+01  0.7818608E-02  0.2423359E+00
         -1   -1    0    0    0  501 -0.00000000000E+00  0.00000000000E+00  0.33120501609E+02  0.33120501993E+02  0.50400000000E-02 0. -1.
          1   -1    0    0  501    0  0.00000000000E+00 -0.00000000000E+00 -0.26626207008E+00  0.26630976618E+00  0.50400000000E-02 0.  1.
         31    1    1    2    0    0 -0.84603136892E+00  0.32198075496E+00  0.15937238048E+02  0.16211338543E+02  0.28271010000E+01 0. -1.
        -31    1    1    2    0    0  0.84603136892E+00 -0.32198075496E+00  0.16917001491E+02  0.17175473216E+02  0.28271010000E+01 0. -1.
<mgrwt>
<rscale>  0 0.59395407E+01</rscale>
<asrwt>0</asrwt>
<pdfrwt beam="2">  1        1 0.56324578E+00 0.59395407E+01</pdfrwt>
<pdfrwt beam="1">  1       -1 0.27606552E+00 0.59395407E+01</pdfrwt>
<totfact> 0.53603663E-02</totfact>
</mgrwt>
</event>
<event>
 4    1  0.4367748E-004  0.6577134E+01  0.7818608E-02  0.2345861E+00
         -1   -1    0    0    0  501 -0.00000000000E+00  0.00000000000E+00  0.27172882162E+02  0.27172882630E+02  0.50400000000E-02 0.  1.
          1   -1    0    0  501    0  0.00000000000E+00 -0.00000000000E+00 -0.39797867771E+00  0.39801058970E+00  0.50400000000E-02 0. -1.
         31    1    1    2    0    0  0.15569501052E+01  0.47003449457E+00  0.11623112086E+02  0.12072044594E+02  0.28271010000E+01 0. -1.
        -31    1    1    2    0    0 -0.15569501052E+01 -0.47003449457E+00  0.15151791399E+02  0.15498848625E+02  0.28271010000E+01 0.  1.
<mgrwt>
<rscale>  0 0.65771344E+01</rscale>
<asrwt>0</asrwt>
<pdfrwt beam="2">  1        1 0.83635326E+00 0.65771344E+01</pdfrwt>
<pdfrwt beam="1">  1       -1 0.22797544E+00 0.65771344E+01</pdfrwt>
<totfact> 0.21122305E-03</totfact>
</mgrwt>
</event>
<event>
 4    1  0.4367748E-004  0.6551862E+01  0.7818608E-02  0.2348693E+00
          1   -1    0    0  501    0  0.00000000000E+00  0.00000000000E+00  0.51138133610E+02  0.51138133859E+02  0.50400000000E-02 0. -1.
         -1   -1    0    0    0  501 -0.00000000000E+00 -0.00000000000E+00 -0.20982703790E+00  0.20988755903E+00  0.50400000000E-02 0.  1.
         31    1    1    2    0    0  0.83642948865E+00  0.60440106598E+00  0.15323248644E+02  0.15615997055E+02  0.28271010000E+01 0.  1.
        -31    1    1    2    0    0 -0.83642948865E+00 -0.60440106598E+00  0.35605057928E+02  0.35732024363E+02  0.28271010000E+01 0. -1.
<mgrwt>
<rscale>  0 0.65518618E+01</rscale>
<asrwt>0</asrwt>
<pdfrwt beam="1">  1        1 0.42458137E+00 0.65518618E+01</pdfrwt>
<pdfrwt beam="2">  1       -1 0.44562845E+00 0.65518618E+01</pdfrwt>
<totfact> 0.19513533E-02</totfact>
</mgrwt>
</event>
<event>
 4    1  0.4367748E-004  0.6230299E+01  0.7818608E-02  0.2386380E+00
         -1   -1    0    0    0  501 -0.00000000000E+00  0.00000000000E+00  0.51977441443E+02  0.51977441687E+02  0.50400000000E-02 0. -1.
          1   -1    0    0  501    0  0.00000000000E+00 -0.00000000000E+00 -0.18666514259E+00  0.18673317075E+00  0.50400000000E-02 0.  1.
         31    1    1    2    0    0 -0.51657362270E+00 -0.76668146513E+00  0.33646356534E+02  0.33777573282E+02  0.28271010000E+01 0. -1.
        -31    1    1    2    0    0  0.51657362270E+00  0.76668146513E+00  0.18144419766E+02  0.18386601576E+02  0.28271010000E+01 0.  1.
<mgrwt>
<rscale>  0 0.62302993E+01</rscale>
<asrwt>0</asrwt>
<pdfrwt beam="2">  1        1 0.39665473E+00 0.62302993E+01</pdfrwt>
<pdfrwt beam="1">  1       -1 0.43132990E+00 0.62302993E+01</pdfrwt>
<totfact> 0.31409712E-02</totfact>
</mgrwt>
</event>
<event>
 4    1  0.4367748E-004  0.5741898E+01  0.7818608E-02  0.2450277E+00
         -1   -1    0    0    0  501 -0.00000000000E+00  0.00000000000E+00  0.33012813511E+02  0.33012813896E+02  0.50400000000E-02 0.  1.
          1   -1    0    0  501    0  0.00000000000E+00 -0.00000000000E+00 -0.24964539093E+00  0.24969626111E+00  0.50400000000E-02 0. -1.
         31    1    1    2    0    0 -0.15718608980E+00  0.14986440456E+00  0.13773585011E+02  0.14062407722E+02  0.28271010000E+01 0. -1.
        -31    1    1    2    0    0  0.15718608980E+00 -0.14986440456E+00  0.18989583108E+02  0.19200102435E+02  0.28271010000E+01 0.  1.
<mgrwt>
<rscale>  0 0.57418984E+01</rscale>
<asrwt>0</asrwt>
<pdfrwt beam="2">  1        1 0.52835174E+00 0.57418984E+01</pdfrwt>
<pdfrwt beam="1">  1       -1 0.27503771E+00 0.57418984E+01</pdfrwt>
<totfact> 0.77977012E-02</totfact>
</mgrwt>
</event>
<event>
 4    1  0.4367748E-004  0.9480863E+01  0.7818608E-02  0.2105795E+00
          1   -1    0    0  501    0  0.00000000000E+00  0.00000000000E+00  0.65127803320E+02  0.65127803515E+02  0.50400000000E-02 0.  1.
         -1   -1    0    0    0  501 -0.00000000000E+00 -0.00000000000E+00 -0.34502133498E+00  0.34505814465E+00  0.50400000000E-02 0. -1.
         31    1    1    2    0    0 -0.30907412886E+00 -0.86550230943E+00  0.57891038918E+02  0.57967314136E+02  0.28271010000E+01 0.  1.
        -31    1    1    2    0    0  0.30907412886E+00  0.86550230943E+00  0.68917430669E+01  0.75055475236E+01  0.28271010000E+01 0. -1.
<mgrwt>
<rscale>  0 0.94808635E+01</rscale>
<asrwt>0</asrwt>
<pdfrwt beam="1">  1        1 0.54137543E+00 0.94808635E+01</pdfrwt>
<pdfrwt beam="2">  1       -1 0.73181554E+00 0.94808635E+01</pdfrwt>
<totfact> 0.27672062E-04</totfact>
</mgrwt>
</event>
<event>
 4    1  0.4367748E-004  0.5764191E+01  0.7818608E-02  0.2447163E+00
         -1   -1    0    0    0  501 -0.00000000000E+00  0.00000000000E+00  0.31434355119E+02  0.31434355523E+02  0.50400000000E-02 0.  1.
          1   -1    0    0  501    0  0.00000000000E+00 -0.00000000000E+00 -0.26422386120E+00  0.26427192516E+00  0.50400000000E-02 0. -1.
         31    1    1    2    0    0  0.11593873035E+00  0.34272419507E+00  0.13232106409E+02  0.13535584278E+02  0.28271010000E+01 0. -1.
        -31    1    1    2    0    0 -0.11593873035E+00 -0.34272419507E+00  0.17938024849E+02  0.18163043170E+02  0.28271010000E+01 0.  1.
<mgrwt>
<rscale>  0 0.57641911E+01</rscale>
<asrwt>0</asrwt>
<pdfrwt beam="2">  1        1 0.55873188E+00 0.57641911E+01</pdfrwt>
<pdfrwt beam="1">  1       -1 0.26210643E+00 0.57641911E+01</pdfrwt>
<totfact> 0.67893214E-02</totfact>
</mgrwt>
</event>
<event>
 4    1  0.4367748E-004  0.6091537E+01  0.7818608E-02  0.2403660E+00
          1   -1    0    0  501    0  0.00000000000E+00  0.00000000000E+00  0.69301928818E+02  0.69301929001E+02  0.50400000000E-02 0. -1.
         -1   -1    0    0    0  501 -0.00000000000E+00 -0.00000000000E+00 -0.13381162928E+00  0.13390651116E+00  0.50400000000E-02 0.  1.
         31    1    1    2    0    0  0.94232947649E+00 -0.58348682284E+00  0.31892346117E+02  0.32036583504E+02  0.28271010000E+01 0. -1.
        -31    1    1    2    0    0 -0.94232947649E+00  0.58348682284E+00  0.37275771072E+02  0.37399252008E+02  0.28271010000E+01 0. -1.
<mgrwt>
<rscale>  0 0.60915366E+01</rscale>
<asrwt>0</asrwt>
<pdfrwt beam="1">  1        1 0.57414407E+00 0.60915366E+01</pdfrwt>
<pdfrwt beam="2">  1       -1 0.28486377E+00 0.60915366E+01</pdfrwt>
<totfact> 0.42380220E-02</totfact>
</mgrwt>
</event>
<event>
 4    1  0.4367748E-004  0.6773599E+01  0.7818608E-02  0.2324442E+00
          1   -1    0    0  501    0  0.00000000000E+00  0.00000000000E+00  0.68771581077E+02  0.68771581262E+02  0.50400000000E-02 0. -1.
         -1   -1    0    0    0  501 -0.00000000000E+00 -0.00000000000E+00 -0.16675173860E+00  0.16682788713E+00  0.50400000000E-02 0.  1.
         31    1    1    2    0    0 -0.46232066643E+00 -0.14779677301E+01  0.44878134921E+02  0.44993750933E+02  0.28271010000E+01 0. -1.
        -31    1    1    2    0    0  0.46232066643E+00  0.14779677301E+01  0.23726694418E+02  0.23944658216E+02  0.28271010000E+01 0.  1.
<mgrwt>
<rscale>  0 0.67735993E+01</rscale>
<asrwt>0</asrwt>
<pdfrwt beam="1">  1        1 0.57003100E+00 0.67735993E+01</pdfrwt>
<pdfrwt beam="2">  1       -1 0.35476839E+00 0.67735993E+01</pdfrwt>
<totfact> 0.17131725E-02</totfact>
</mgrwt>
</event>
<event>
 4    1  0.4367748E-004  0.6122889E+01  0.7818608E-02  0.2399699E+00
         -1   -1    0    0    0  501 -0.00000000000E+00  0.00000000000E+00  0.43328016406E+02  0.43328016699E+02  0.50400000000E-02 0.  1.
          1   -1    0    0  501    0  0.00000000000E+00 -0.00000000000E+00 -0.21628399565E+00  0.21634271047E+00  0.50400000000E-02 0. -1.
         31    1    1    2    0    0  0.16378076197E+00  0.46016701397E+00  0.13958072274E+02  0.14249872262E+02  0.28271010000E+01 0. -1.
        -31    1    1    2    0    0 -0.16378076197E+00 -0.46016701397E+00  0.29153660136E+02  0.29294487147E+02  0.28271010000E+01 0.  1.
<mgrwt>
<rscale>  0 0.61228886E+01</rscale>
<asrwt>0</asrwt>
<pdfrwt beam="2">  1        1 0.45893162E+00 0.61228886E+01</pdfrwt>
<pdfrwt beam="1">  1       -1 0.36005523E+00 0.61228886E+01</pdfrwt>
<totfact> 0.48940001E-02</totfact>
</mgrwt>
</event>
<event>
 4    1  0.4367748E-004  0.6288543E+01  0.7818608E-02  0.2379317E+00
         -1   -1    0    0    0  501 -0.00000000000E+00  0.00000000000E+00  0.34939374003E+02  0.34939374367E+02  0.50400000000E-02 0. -1.
          1   -1    0    0  501    0  0.00000000000E+00 -0.00000000000E+00 -0.28293709496E+00  0.28298198053E+00  0.50400000000E-02 0.  1.
         31    1    1    2    0    0  0.20057047927E+00 -0.47716001655E+00  0.10186003875E+02  0.10583717930E+02  0.28271010000E+01 0.  1.
        -31    1    1    2    0    0 -0.20057047927E+00  0.47716001655E+00  0.24470433033E+02  0.24638638418E+02  0.28271010000E+01 0. -1.
<mgrwt>
<rscale>  0 0.62885426E+01</rscale>
<asrwt>0</asrwt>
<pdfrwt beam="2">  1        1 0.59847880E+00 0.62885426E+01</pdfrwt>
<pdfrwt beam="1">  1       -1 0.29124309E+00 0.62885426E+01</pdfrwt>
<totfact> 0.29778605E-02</totfact>
</mgrwt>
</event>
<event>
 4    1  0.4367748E-004  0.6196931E+01  0.7818608E-02  0.2390476E+00
          1   -1    0    0  501    0  0.00000000000E+00  0.00000000000E+00  0.93744413552E+02  0.93744413688E+02  0.50400000000E-02 0.  1.
         -1   -1    0    0    0  501 -0.00000000000E+00 -0.00000000000E+00 -0.10234915705E+00  0.10247317478E+00  0.50400000000E-02 0. -1.
         31    1    1    2    0    0  0.10356433513E+01 -0.42970326297E+00  0.55790443082E+02  0.55873278420E+02  0.28271010000E+01 0.  1.
        -31    1    1    2    0    0 -0.10356433513E+01  0.42970326297E+00  0.37851621313E+02  0.37973608442E+02  0.28271010000E+01 0. -1.
<mgrwt>
<rscale>  0 0.61969307E+01</rscale>
<asrwt>0</asrwt>
<pdfrwt beam="1">  1        1 0.77599172E+00 0.61969307E+01</pdfrwt>
<pdfrwt beam="2">  1       -1 0.21812255E+00 0.61969307E+01</pdfrwt>
<totfact> 0.76652491E-03</totfact>
</mgrwt>
</event>
<event>
 4    1  0.4367748E-004  0.5796718E+01  0.7818608E-02  0.2442656E+00
          1   -1    0    0  501    0  0.00000000000E+00  0.00000000000E+00  0.35429808243E+02  0.35429808602E+02  0.50400000000E-02 0.  1.
         -1   -1    0    0    0  501 -0.00000000000E+00 -0.00000000000E+00 -0.23707506839E+00  0.23712863525E+00  0.50400000000E-02 0. -1.
         31    1    1    2    0    0  0.27262237465E+00 -0.27544516987E-01  0.21146488213E+02  0.21336390170E+02  0.28271010000E+01 0.  1.
        -31    1    1    2    0    0 -0.27262237465E+00  0.27544516987E-01  0.14046244962E+02  0.14330547067E+02  0.28271010000E+01 0. -1.
<mgrwt>
<rscale>  0 0.57967183E+01</rscale>
<asrwt>0</asrwt>
<pdfrwt beam="1">  1        1 0.29491919E+00 0.57967183E+01</pdfrwt>
<pdfrwt beam="2">  1       -1 0.50218732E+00 0.57967183E+01</pdfrwt>
<totfact> 0.25971197E-02</totfact>
</mgrwt>
</event>
<event>
 4    1  0.4367748E-004  0.7599178E+01  0.7818608E-02  0.2244517E+00
         -1   -1    0    0    0  501 -0.00000000000E+00  0.00000000000E+00  0.55311395946E+02  0.55311396176E+02  0.50400000000E-02 0.  1.
          1   -1    0    0  501    0  0.00000000000E+00 -0.00000000000E+00 -0.26098630001E+00  0.26103496009E+00  0.50400000000E-02 0. -1.
         31    1    1    2    0    0 -0.46840588092E+00  0.22711378739E+01  0.19971580101E+02  0.20303546072E+02  0.28271010000E+01 0. -1.
        -31    1    1    2    0    0  0.46840588092E+00 -0.22711378739E+01  0.35078829545E+02  0.35268885064E+02  0.28271010000E+01 0.  1.
<mgrwt>
<rscale>  0 0.75991776E+01</rscale>
<asrwt>0</asrwt>
<pdfrwt beam="2">  1        1 0.55391224E+00 0.75991776E+01</pdfrwt>
<pdfrwt beam="1">  1       -1 0.45951174E+00 0.75991776E+01</pdfrwt>
<totfact> 0.43450032E-03</totfact>
</mgrwt>
</event>
<event>
 4    1  0.4367748E-004  0.6427568E+01  0.7818608E-02  0.2362889E+00
         -1   -1    0    0    0  501 -0.00000000000E+00  0.00000000000E+00  0.60873324142E+02  0.60873324351E+02  0.50400000000E-02 0. -1.
          1   -1    0    0  501    0  0.00000000000E+00 -0.00000000000E+00 -0.16963285514E+00  0.16970771092E+00  0.50400000000E-02 0.  1.
         31    1    1    2    0    0 -0.53523442636E+00 -0.14292524165E+01  0.31127380291E+02  0.31292739449E+02  0.28271010000E+01 0. -1.
        -31    1    1    2    0    0  0.53523442636E+00  0.14292524165E+01  0.29576310996E+02  0.29750292613E+02  0.28271010000E+01 0. -1.
<mgrwt>
<rscale>  0 0.64275678E+01</rscale>
<asrwt>0</asrwt>
<pdfrwt beam="2">  1        1 0.36076500E+00 0.64275678E+01</pdfrwt>
<pdfrwt beam="1">  1       -1 0.50474650E+00 0.64275678E+01</pdfrwt>
<totfact> 0.13871569E-02</totfact>
</mgrwt>
</event>
<event>
 4    1  0.4367748E-004  0.7279844E+01  0.7818608E-02  0.2273673E+00
         -1   -1    0    0    0  501 -0.00000000000E+00  0.00000000000E+00  0.42938750750E+02  0.42938751046E+02  0.50400000000E-02 0. -1.
          1   -1    0    0  501    0  0.00000000000E+00 -0.00000000000E+00 -0.30853567361E+00  0.30857683564E+00  0.50400000000E-02 0.  1.
         31    1    1    2    0    0 -0.12332280956E+01  0.19228846430E+01  0.22476143313E+02  0.22768132448E+02  0.28271010000E+01 0. -1.
        -31    1    1    2    0    0  0.12332280956E+01 -0.19228846430E+01  0.20154071764E+02  0.20479195434E+02  0.28271010000E+01 0.  1.
<mgrwt>
<rscale>  0 0.72798442E+01</rscale>
<asrwt>0</asrwt>
<pdfrwt beam="2">  1        1 0.65320884E+00 0.72798442E+01</pdfrwt>
<pdfrwt beam="1">  1       -1 0.35759917E+00 0.72798442E+01</pdfrwt>
<totfact> 0.63253186E-03</totfact>
</mgrwt>
</event>
<event>
 4    1  0.4367748E-004  0.8050394E+01  0.7818608E-02  0.2206546E+00
          1   -1    0    0  501    0  0.00000000000E+00  0.00000000000E+00  0.64316586032E+02  0.64316586230E+02  0.50400000000E-02 0.  1.
         -1   -1    0    0    0  501 -0.00000000000E+00 -0.00000000000E+00 -0.25188797921E+00  0.25193839658E+00  0.50400000000E-02 0. -1.
         31    1    1    2    0    0  0.28397912873E+01 -0.19291121624E+00  0.34669139362E+02  0.34900477840E+02  0.28271010000E+01 0.  1.
        -31    1    1    2    0    0 -0.28397912873E+01  0.19291121624E+00  0.29395558691E+02  0.29668046786E+02  0.28271010000E+01 0. -1.
<mgrwt>
<rscale>  0 0.80503935E+01</rscale>
<asrwt>0</asrwt>
<pdfrwt beam="1">  1        1 0.53389774E+00 0.80503935E+01</pdfrwt>
<pdfrwt beam="2">  1       -1 0.53503294E+00 0.80503935E+01</pdfrwt>
<totfact> 0.16240845E-03</totfact>
</mgrwt>
</event>
<event>
 4    1  0.4367748E-004  0.5718449E+01  0.7818608E-02  0.2453574E+00
         -1   -1    0    0    0  501 -0.00000000000E+00  0.00000000000E+00  0.56883374686E+02  0.56883374910E+02  0.50400000000E-02 0.  1.
          1   -1    0    0  501    0  0.00000000000E+00 -0.00000000000E+00 -0.14367359472E+00  0.14376196792E+00  0.50400000000E-02 0. -1.
         31    1    1    2    0    0 -0.39607102739E+00 -0.12759824171E+00  0.29342435395E+02  0.29481251136E+02  0.28271010000E+01 0. -1.
        -31    1    1    2    0    0  0.39607102739E+00  0.12759824171E+00  0.27397265696E+02  0.27545885741E+02  0.28271010000E+01 0.  1.
<mgrwt>
<rscale>  0 0.57184491E+01</rscale>
<asrwt>0</asrwt>
<pdfrwt beam="2">  1        1 0.30566247E+00 0.57184491E+01</pdfrwt>
<pdfrwt beam="1">  1       -1 0.47154027E+00 0.57184491E+01</pdfrwt>
<totfact> 0.38284326E-02</totfact>
</mgrwt>
</event>
<event>
 4    1  0.4367748E-004  0.5892181E+01  0.7818608E-02  0.2429671E+00
         -1   -1    0    0    0  501 -0.00000000000E+00  0.00000000000E+00  0.62233176694E+02  0.62233176898E+02  0.50400000000E-02 0.  1.
          1   -1    0    0  501    0  0.00000000000E+00 -0.00000000000E+00 -0.13942083955E+00  0.13951190666E+00  0.50400000000E-02 0. -1.
         31    1    1    2    0    0 -0.77242330406E+00  0.25461245731E+00  0.32736704815E+02  0.32868614323E+02  0.28271010000E+01 0.  1.
        -31    1    1    2    0    0  0.77242330406E+00 -0.25461245731E+00  0.29357051039E+02  0.29504074482E+02  0.28271010000E+01 0. -1.
<mgrwt>
<rscale>  0 0.58921806E+01</rscale>
<asrwt>0</asrwt>
<pdfrwt beam="2">  1        1 0.29670496E+00 0.58921806E+01</pdfrwt>
<pdfrwt beam="1">  1       -1 0.51574103E+00 0.58921806E+01</pdfrwt>
<totfact> 0.20639417E-02</totfact>
</mgrwt>
</event>
<event>
 4    1  0.4367748E-004  0.6307384E+01  0.7818608E-02  0.2377055E+00
          1   -1    0    0  501    0  0.00000000000E+00  0.00000000000E+00  0.46421057771E+02  0.46421058045E+02  0.50400000000E-02 0. -1.
         -1   -1    0    0    0  501 -0.00000000000E+00 -0.00000000000E+00 -0.21422142259E+00  0.21428070258E+00  0.50400000000E-02 0.  1.
         31    1    1    2    0    0  0.73814216864E+00 -0.30572099575E+00  0.31581960748E+02  0.31718308024E+02  0.28271010000E+01 0. -1.
        -31    1    1    2    0    0 -0.73814216864E+00  0.30572099575E+00  0.14624875601E+02  0.14917030723E+02  0.28271010000E+01 0.  1.
<mgrwt>
<rscale>  0 0.63073841E+01</rscale>
<asrwt>0</asrwt>
<pdfrwt beam="1">  1        1 0.38561361E+00 0.63073841E+01</pdfrwt>
<pdfrwt beam="2">  1       -1 0.45472685E+00 0.63073841E+01</pdfrwt>
<totfact> 0.24327290E-02</totfact>
</mgrwt>
</event>
<event>
 4    1  0.4367748E-004  0.7298147E+01  0.7818608E-02  0.2271946E+00
          1   -1    0    0  501    0  0.00000000000E+00  0.00000000000E+00  0.53789007872E+02  0.53789008108E+02  0.50400000000E-02 0. -1.
         -1   -1    0    0    0  501 -0.00000000000E+00 -0.00000000000E+00 -0.24752911991E+00  0.24758042492E+00  0.50400000000E-02 0.  1.
         31    1    1    2    0    0 -0.28199191912E+00 -0.11818042612E+01  0.12248297704E+02  0.12628914342E+02  0.28271010000E+01 0.  1.
        -31    1    1    2    0    0  0.28199191912E+00  0.11818042612E+01  0.41293181049E+02  0.41407674191E+02  0.28271010000E+01 0. -1.
<mgrwt>
<rscale>  0 0.72981473E+01</rscale>
<asrwt>0</asrwt>
<pdfrwt beam="1">  1        1 0.44681232E+00 0.72981473E+01</pdfrwt>
<pdfrwt beam="2">  1       -1 0.52541744E+00 0.72981473E+01</pdfrwt>
<totfact> 0.45043542E-03</totfact>
</mgrwt>
</event>
<event>
 4    1  0.4367748E-004  0.7718949E+01  0.7818608E-02  0.2234088E+00
          1   -1    0    0  501    0  0.00000000000E+00  0.00000000000E+00  0.69956448202E+02  0.69956448383E+02  0.50400000000E-02 0.  1.
         -1   -1    0    0    0  501 -0.00000000000E+00 -0.00000000000E+00 -0.21289595250E+00  0.21295560145E+00  0.50400000000E-02 0. -1.
         31    1    1    2    0    0 -0.24768516347E+01  0.44030748412E+00  0.27982257106E+02  0.28236994839E+02  0.28271010000E+01 0. -1.
        -31    1    1    2    0    0  0.24768516347E+01 -0.44030748412E+00  0.41761295143E+02  0.41932409146E+02  0.28271010000E+01 0.  1.
<mgrwt>
<rscale>  0 0.77189491E+01</rscale>
<asrwt>0</asrwt>
<pdfrwt beam="1">  1        1 0.58020973E+00 0.77189491E+01</pdfrwt>
<pdfrwt beam="2">  1       -1 0.45262208E+00 0.77189491E+01</pdfrwt>
<totfact> 0.36361719E-03</totfact>
</mgrwt>
</event>
<event>
 4    1  0.4367748E-004  0.5809750E+01  0.7818608E-02  0.2440863E+00
          1   -1    0    0  501    0  0.00000000000E+00  0.00000000000E+00  0.70498186854E+02  0.70498187034E+02  0.50400000000E-02 0. -1.
         -1   -1    0    0    0  501 -0.00000000000E+00 -0.00000000000E+00 -0.11964202705E+00  0.11974813668E+00  0.50400000000E-02 0.  1.
         31    1    1    2    0    0 -0.64277345921E+00  0.16358799969E+00  0.34257196201E+02  0.34380051052E+02  0.28271010000E+01 0.  1.
        -31    1    1    2    0    0  0.64277345921E+00 -0.16358799969E+00  0.36121348627E+02  0.36237884119E+02  0.28271010000E+01 0. -1.
<mgrwt>
<rscale>  0 0.58097501E+01</rscale>
<asrwt>0</asrwt>
<pdfrwt beam="1">  1        1 0.58391850E+00 0.58097501E+01</pdfrwt>
<pdfrwt beam="2">  1       -1 0.25478101E+00 0.58097501E+01</pdfrwt>
<totfact> 0.57329771E-02</totfact>
</mgrwt>
</event>
<event>
 4    1  0.4367748E-004  0.6304834E+01  0.7818608E-02  0.2377361E+00
         -1   -1    0    0    0  501 -0.00000000000E+00  0.00000000000E+00  0.57999233158E+02  0.57999233377E+02  0.50400000000E-02 0.  1.
          1   -1    0    0  501    0  0.00000000000E+00 -0.00000000000E+00 -0.17130521101E+00  0.17137933633E+00  0.50400000000E-02 0. -1.
         31    1    1    2    0    0  0.13008356357E+01  0.49770052518E+00  0.28238864121E+02  0.28414183537E+02  0.28271010000E+01 0.  1.
        -31    1    1    2    0    0 -0.13008356357E+01 -0.49770052518E+00  0.29589063826E+02  0.29756429176E+02  0.28271010000E+01 0. -1.
<mgrwt>
<rscale>  0 0.63048341E+01</rscale>
<asrwt>0</asrwt>
<pdfrwt beam="2">  1        1 0.36425947E+00 0.63048341E+01</pdfrwt>
<pdfrwt beam="1">  1       -1 0.48099533E+00 0.63048341E+01</pdfrwt>
<totfact> 0.19586813E-02</totfact>
</mgrwt>
</event>
<event>
 4    1  0.4367748E-004  0.5939623E+01  0.7818608E-02  0.2423349E+00
         -1   -1    0    0    0  501 -0.00000000000E+00  0.00000000000E+00  0.56287273730E+02  0.56287273956E+02  0.50400000000E-02 0.  1.
          1   -1    0    0  501    0  0.00000000000E+00 -0.00000000000E+00 -0.15665149305E+00  0.15673254887E+00  0.50400000000E-02 0. -1.
         31    1    1    2    0    0  0.35034871415E+00 -0.83929138755E+00  0.27959033132E+02  0.28116315335E+02  0.28271010000E+01 0. -1.
        -31    1    1    2    0    0 -0.35034871415E+00  0.83929138755E+00  0.28171589105E+02  0.28327691170E+02  0.28271010000E+01 0.  1.
<mgrwt>
<rscale>  0 0.59396227E+01</rscale>
<asrwt>0</asrwt>
<pdfrwt beam="2">  1        1 0.33317089E+00 0.59396227E+01</pdfrwt>
<pdfrwt beam="1">  1       -1 0.46671854E+00 0.59396227E+01</pdfrwt>
<totfact> 0.32370300E-02</totfact>
</mgrwt>
</event>
<event>
 4    1  0.4367748E-004  0.5714144E+01  0.7818608E-02  0.2454182E+00
          1   -1    0    0  501    0  0.00000000000E+00  0.00000000000E+00  0.66876962615E+02  0.66876962805E+02  0.50400000000E-02 0. -1.
         -1   -1    0    0    0  501 -0.00000000000E+00 -0.00000000000E+00 -0.12200568065E+00  0.12210973635E+00  0.50400000000E-02 0.  1.
         31    1    1    2    0    0 -0.12504445969E+00 -0.34264950097E+00  0.35642482391E+02  0.35756287501E+02  0.28271010000E+01 0. -1.
        -31    1    1    2    0    0  0.12504445969E+00  0.34264950097E+00  0.31112474543E+02  0.31242785040E+02  0.28271010000E+01 0.  1.
<mgrwt>
<rscale>  0 0.57141444E+01</rscale>
<asrwt>0</asrwt>
<pdfrwt beam="1">  1        1 0.55399521E+00 0.57141444E+01</pdfrwt>
<pdfrwt beam="2">  1       -1 0.25977706E+00 0.57141444E+01</pdfrwt>
<totfact> 0.73631538E-02</totfact>
</mgrwt>
</event>
<event>
 4    1  0.4367748E-004  0.7380002E+01  0.7818608E-02  0.2264308E+00
         -1   -1    0    0    0  501 -0.00000000000E+00  0.00000000000E+00  0.65632066081E+02  0.65632066274E+02  0.50400000000E-02 0. -1.
          1   -1    0    0  501    0  0.00000000000E+00 -0.00000000000E+00 -0.20743039716E+00  0.20749161734E+00  0.50400000000E-02 0.  1.
         31    1    1    2    0    0  0.14333642091E+01 -0.17801690329E+01  0.27069451645E+02  0.27312474205E+02  0.28271010000E+01 0.  1.
        -31    1    1    2    0    0 -0.14333642091E+01  0.17801690329E+01  0.38355184039E+02  0.38527083687E+02  0.28271010000E+01 0.  1.
<mgrwt>
<rscale>  0 0.73800020E+01</rscale>
<asrwt>0</asrwt>
<pdfrwt beam="2">  1        1 0.44095393E+00 0.73800020E+01</pdfrwt>
<pdfrwt beam="1">  1       -1 0.54440753E+00 0.73800020E+01</pdfrwt>
<totfact> 0.35603768E-03</totfact>
</mgrwt>
</event>
<event>
 4    1  0.4367748E-004  0.5775388E+01  0.7818608E-02  0.2445607E+00
         -1   -1    0    0    0  501 -0.00000000000E+00  0.00000000000E+00  0.30765388381E+02  0.30765388793E+02  0.50400000000E-02 0.  1.
          1   -1    0    0  501    0  0.00000000000E+00 -0.00000000000E+00 -0.27102026014E+00  0.27106711901E+00  0.50400000000E-02 0. -1.
         31    1    1    2    0    0 -0.38446607440E+00 -0.38493648238E+00  0.16452269942E+02  0.16702265612E+02  0.28271010000E+01 0. -1.
        -31    1    1    2    0    0  0.38446607440E+00  0.38493648238E+00  0.14042098179E+02  0.14334190301E+02  0.28271010000E+01 0. -1.
<mgrwt>
<rscale>  0 0.57753882E+01</rscale>
<asrwt>0</asrwt>
<pdfrwt beam="2">  1        1 0.57287174E+00 0.57753882E+01</pdfrwt>
<pdfrwt beam="1">  1       -1 0.25663113E+00 0.57753882E+01</pdfrwt>
<totfact> 0.62966176E-02</totfact>
</mgrwt>
</event>
<event>
 4    1  0.4367748E-004  0.5880964E+01  0.7818608E-02  0.2431179E+00
          1   -1    0    0  501    0  0.00000000000E+00  0.00000000000E+00  0.54646024159E+02  0.54646024392E+02  0.50400000000E-02 0.  1.
         -1   -1    0    0    0  501 -0.00000000000E+00 -0.00000000000E+00 -0.15818583854E+00  0.15826610855E+00  0.50400000000E-02 0. -1.
         31    1    1    2    0    0 -0.33889122661E+00 -0.41729058408E+00  0.21614218108E+02  0.21804951346E+02  0.28271010000E+01 0. -1.
        -31    1    1    2    0    0  0.33889122661E+00  0.41729058408E+00  0.32873620213E+02  0.32999339155E+02  0.28271010000E+01 0.  1.
<mgrwt>
<rscale>  0 0.58809636E+01</rscale>
<asrwt>0</asrwt>
<pdfrwt beam="1">  1        1 0.45316022E+00 0.58809636E+01</pdfrwt>
<pdfrwt beam="2">  1       -1 0.33639504E+00 0.58809636E+01</pdfrwt>
<totfact> 0.71397943E-02</totfact>
</mgrwt>
</event>
<event>
 4    1  0.4367748E-004  0.6637542E+01  0.7818608E-02  0.2339164E+00
         -1   -1    0    0    0  501 -0.00000000000E+00  0.00000000000E+00  0.54115920797E+02  0.54115921032E+02  0.50400000000E-02 0.  1.
          1   -1    0    0  501    0  0.00000000000E+00 -0.00000000000E+00 -0.20349910010E+00  0.20356150260E+00  0.50400000000E-02 0. -1.
         31    1    1    2    0    0  0.85647693992E+00 -0.13584391115E+01  0.32402092315E+02  0.32564812237E+02  0.28271010000E+01 0. -1.
        -31    1    1    2    0    0 -0.85647693992E+00  0.13584391115E+01  0.21510329383E+02  0.21754670298E+02  0.28271010000E+01 0. -1.
<mgrwt>
<rscale>  0 0.66375424E+01</rscale>
<asrwt>0</asrwt>
<pdfrwt beam="2">  1        1 0.43234074E+00 0.66375424E+01</pdfrwt>
<pdfrwt beam="1">  1       -1 0.44915149E+00 0.66375424E+01</pdfrwt>
<totfact> 0.17189874E-02</totfact>
</mgrwt>
</event>
<event>
 4    1  0.4367748E-004  0.6326169E+01  0.7818608E-02  0.2374812E+00
         -1   -1    0    0    0  501 -0.00000000000E+00  0.00000000000E+00  0.58438324036E+02  0.58438324253E+02  0.50400000000E-02 0. -1.
          1   -1    0    0  501    0  0.00000000000E+00 -0.00000000000E+00 -0.17117060287E+00  0.17124478646E+00  0.50400000000E-02 0.  1.
         31    1    1    2    0    0  0.69123152850E+00 -0.10185837441E+01  0.35666873628E+02  0.35799911848E+02  0.28271010000E+01 0.  1.
        -31    1    1    2    0    0 -0.69123152850E+00  0.10185837441E+01  0.22600279805E+02  0.22809657192E+02  0.28271010000E+01 0.  1.
<mgrwt>
<rscale>  0 0.63261690E+01</rscale>
<asrwt>0</asrwt>
<pdfrwt beam="2">  1        1 0.36398226E+00 0.63261690E+01</pdfrwt>
<pdfrwt beam="1">  1       -1 0.48462492E+00 0.63261690E+01</pdfrwt>
<totfact> 0.18541178E-02</totfact>
</mgrwt>
</event>
<event>
 4    1  0.4367748E-004  0.7420523E+01  0.7818608E-02  0.2260577E+00
          1   -1    0    0  501    0  0.00000000000E+00  0.00000000000E+00  0.84196558954E+02  0.84196559104E+02  0.50400000000E-02 0.  1.
         -1   -1    0    0    0  501 -0.00000000000E+00 -0.00000000000E+00 -0.16345983473E+00  0.16353751609E+00  0.50400000000E-02 0. -1.
         31    1    1    2    0    0  0.42931721029E+00  0.18367900257E+01  0.25095341435E+02  0.25324430352E+02  0.28271010000E+01 0. -1.
        -31    1    1    2    0    0 -0.42931721029E+00 -0.18367900257E+01  0.58937757684E+02  0.59035666268E+02  0.28271010000E+01 0.  1.
<mgrwt>
<rscale>  0 0.74205225E+01</rscale>
<asrwt>0</asrwt>
<pdfrwt beam="1">  1        1 0.69754830E+00 0.74205225E+01</pdfrwt>
<pdfrwt beam="2">  1       -1 0.34793576E+00 0.74205225E+01</pdfrwt>
<totfact> 0.40814396E-03</totfact>
</mgrwt>
</event>
<event>
 4    1  0.4367748E-004  0.6470624E+01  0.7818608E-02  0.2357920E+00
          1   -1    0    0  501    0  0.00000000000E+00  0.00000000000E+00  0.58790418420E+02  0.58790418636E+02  0.50400000000E-02 0. -1.
         -1   -1    0    0    0  501 -0.00000000000E+00 -0.00000000000E+00 -0.17800746922E+00  0.17807880474E+00  0.50400000000E-02 0.  1.
         31    1    1    2    0    0  0.10990525656E+01 -0.70832140465E+00  0.37277614889E+02  0.37407522073E+02  0.28271010000E+01 0. -1.
        -31    1    1    2    0    0 -0.10990525656E+01  0.70832140465E+00  0.21334796062E+02  0.21560975368E+02  0.28271010000E+01 0.  1.
<mgrwt>
<rscale>  0 0.64706238E+01</rscale>
<asrwt>0</asrwt>
<pdfrwt beam="1">  1        1 0.48759279E+00 0.64706238E+01</pdfrwt>
<pdfrwt beam="2">  1       -1 0.37847693E+00 0.64706238E+01</pdfrwt>
<totfact> 0.28663156E-02</totfact>
</mgrwt>
</event>
<event>
 4    1  0.4367748E-004  0.7530788E+01  0.7818608E-02  0.2250591E+00
          1   -1    0    0  501    0  0.00000000000E+00  0.00000000000E+00  0.95571615489E+02  0.95571615621E+02  0.50400000000E-02 0.  1.
         -1   -1    0    0    0  501 -0.00000000000E+00 -0.00000000000E+00 -0.14830854680E+00  0.14839415977E+00  0.50400000000E-02 0. -1.
         31    1    1    2    0    0 -0.24006060558E+01  0.54658198406E+00  0.52188017685E+02  0.52322493740E+02  0.28271010000E+01 0. -1.
        -31    1    1    2    0    0  0.24006060558E+01 -0.54658198406E+00  0.43235289257E+02  0.43397516041E+02  0.28271010000E+01 0.  1.
<mgrwt>
<rscale>  0 0.75307878E+01</rscale>
<asrwt>0</asrwt>
<pdfrwt beam="1">  1        1 0.79148001E+00 0.75307878E+01</pdfrwt>
<pdfrwt beam="2">  1       -1 0.31582409E+00 0.75307878E+01</pdfrwt>
<totfact> 0.14916146E-03</totfact>
</mgrwt>
</event>
<event>
 4    1  0.4367748E-004  0.5749615E+01  0.7818608E-02  0.2449197E+00
         -1   -1    0    0    0  501 -0.00000000000E+00  0.00000000000E+00  0.22359073142E+02  0.22359073710E+02  0.50400000000E-02 0. -1.
          1   -1    0    0  501    0  0.00000000000E+00 -0.00000000000E+00 -0.36960933878E+00  0.36964369996E+00  0.50400000000E-02 0.  1.
         31    1    1    2    0    0  0.39241283009E+00  0.97488318395E-01  0.96924479741E+01  0.10104431681E+02  0.28271010000E+01 0.  1.
        -31    1    1    2    0    0 -0.39241283009E+00 -0.97488318395E-01  0.12297015829E+02  0.12624285729E+02  0.28271010000E+01 0. -1.
<mgrwt>
<rscale>  0 0.57496154E+01</rscale>
<asrwt>0</asrwt>
<pdfrwt beam="2">  1        1 0.77530007E+00 0.57496154E+01</pdfrwt>
<pdfrwt beam="1">  1       -1 0.18793694E+00 0.57496154E+01</pdfrwt>
<totfact> 0.12228779E-02</totfact>
</mgrwt>
</event>
<event>
 4    1  0.4367748E-004  0.7107777E+01  0.7818608E-02  0.2290264E+00
          1   -1    0    0  501    0  0.00000000000E+00  0.00000000000E+00  0.63905243222E+02  0.63905243421E+02  0.50400000000E-02 0. -1.
         -1   -1    0    0    0  501 -0.00000000000E+00 -0.00000000000E+00 -0.19760596038E+00  0.19767022330E+00  0.50400000000E-02 0.  1.
         31    1    1    2    0    0  0.94312764814E+00 -0.12454476672E+01  0.45221569796E+02  0.45336778718E+02  0.28271010000E+01 0. -1.
        -31    1    1    2    0    0 -0.94312764814E+00  0.12454476672E+01  0.18486067465E+02  0.18766134926E+02  0.28271010000E+01 0.  1.
<mgrwt>
<rscale>  0 0.71077769E+01</rscale>
<asrwt>0</asrwt>
<pdfrwt beam="1">  1        1 0.53004774E+00 0.71077769E+01</pdfrwt>
<pdfrwt beam="2">  1       -1 0.42010415E+00 0.71077769E+01</pdfrwt>
<totfact> 0.10215693E-02</totfact>
</mgrwt>
</event>
<event>
 4    1  0.4367748E-004  0.6425794E+01  0.7818608E-02  0.2363095E+00
         -1   -1    0    0    0  501 -0.00000000000E+00  0.00000000000E+00  0.48692935916E+02  0.48692936177E+02  0.50400000000E-02 0. -1.
          1   -1    0    0  501    0  0.00000000000E+00 -0.00000000000E+00 -0.21196579067E+00  0.21202570131E+00  0.50400000000E-02 0.  1.
         31    1    1    2    0    0 -0.13516349860E+01 -0.69650252545E+00  0.23214446388E+02  0.23435337720E+02  0.28271010000E+01 0.  1.
        -31    1    1    2    0    0  0.13516349860E+01  0.69650252545E+00  0.25266523738E+02  0.25469624158E+02  0.28271010000E+01 0.  1.
<mgrwt>
<rscale>  0 0.64257943E+01</rscale>
<asrwt>0</asrwt>
<pdfrwt beam="2">  1        1 0.45005737E+00 0.64257943E+01</pdfrwt>
<pdfrwt beam="1">  1       -1 0.40438044E+00 0.64257943E+01</pdfrwt>
<totfact> 0.28419196E-02</totfact>
</mgrwt>
</event>
<event>
 4    1  0.4367748E-004  0.5855221E+01  0.7818608E-02  0.2434656E+00
         -1   -1    0    0    0  501 -0.00000000000E+00  0.00000000000E+00  0.39130048040E+02  0.39130048365E+02  0.50400000000E-02 0.  1.
          1   -1    0    0  501    0  0.00000000000E+00 -0.00000000000E+00 -0.21900700386E+00  0.21906498885E+00  0.50400000000E-02 0. -1.
         31    1    1    2    0    0 -0.61052369907E+00  0.26675386018E+00  0.16990839130E+02  0.17237314501E+02  0.28271010000E+01 0. -1.
        -31    1    1    2    0    0  0.61052369907E+00 -0.26675386018E+00  0.21920201906E+02  0.22111798852E+02  0.28271010000E+01 0. -1.
<mgrwt>
<rscale>  0 0.58552205E+01</rscale>
<asrwt>0</asrwt>
<pdfrwt beam="2">  1        1 0.46442835E+00 0.58552205E+01</pdfrwt>
<pdfrwt beam="1">  1       -1 0.32536600E+00 0.58552205E+01</pdfrwt>
<totfact> 0.74431689E-02</totfact>
</mgrwt>
</event>
<event>
 4    1  0.4367748E-004  0.5696728E+01  0.7818608E-02  0.2456649E+00
          1   -1    0    0  501    0  0.00000000000E+00  0.00000000000E+00  0.56381731381E+02  0.56381731606E+02  0.50400000000E-02 0. -1.
         -1   -1    0    0    0  501 -0.00000000000E+00 -0.00000000000E+00 -0.14385293824E+00  0.14394120133E+00  0.50400000000E-02 0.  1.
         31    1    1    2    0    0 -0.29562842835E+00 -0.65570526673E-01  0.29808179155E+02  0.29943475754E+02  0.28271010000E+01 0. -1.
        -31    1    1    2    0    0  0.29562842835E+00  0.65570526673E-01  0.26429699288E+02  0.26582197053E+02  0.28271010000E+01 0.  1.
<mgrwt>
<rscale>  0 0.56967284E+01</rscale>
<asrwt>0</asrwt>
<pdfrwt beam="1">  1        1 0.46739381E+00 0.56967284E+01</pdfrwt>
<pdfrwt beam="2">  1       -1 0.30603596E+00 0.56967284E+01</pdfrwt>
<totfact> 0.93692702E-02</totfact>
</mgrwt>
</event>
<event>
 4    1  0.4367748E-004  0.6261717E+01  0.7818608E-02  0.2382556E+00
          1   -1    0    0  501    0  0.00000000000E+00  0.00000000000E+00  0.53943710225E+02  0.53943710460E+02  0.50400000000E-02 0.  1.
         -1   -1    0    0    0  501 -0.00000000000E+00 -0.00000000000E+00 -0.18167785024E+00  0.18174774515E+00  0.50400000000E-02 0. -1.
         31    1    1    2    0    0  0.12433829449E+01 -0.19369537935E+00  0.22769440347E+02  0.22978760472E+02  0.28271010000E+01 0.  1.
        -31    1    1    2    0    0 -0.12433829449E+01  0.19369537935E+00  0.30992592027E+02  0.31146697733E+02  0.28271010000E+01 0.  1.
<mgrwt>
<rscale>  0 0.62617171E+01</rscale>
<asrwt>0</asrwt>
<pdfrwt beam="1">  1        1 0.44754716E+00 0.62617171E+01</pdfrwt>
<pdfrwt beam="2">  1       -1 0.38614682E+00 0.62617171E+01</pdfrwt>
<totfact> 0.37837942E-02</totfact>
</mgrwt>
</event>
<event>
 4    1  0.4367748E-004  0.5718984E+01  0.7818608E-02  0.2453499E+00
         -1   -1    0    0    0  501 -0.00000000000E+00  0.00000000000E+00  0.28578561509E+02  0.28578561954E+02  0.50400000000E-02 0.  1.
          1   -1    0    0  501    0  0.00000000000E+00 -0.00000000000E+00 -0.28609024736E+00  0.28613463830E+00  0.50400000000E-02 0. -1.
         31    1    1    2    0    0  0.83844226729E-01 -0.42023471044E+00  0.14025981527E+02  0.14314478158E+02  0.28271010000E+01 0.  1.
        -31    1    1    2    0    0 -0.83844226729E-01  0.42023471044E+00  0.14266489735E+02  0.14550218434E+02  0.28271010000E+01 0. -1.
<mgrwt>
<rscale>  0 0.57189841E+01</rscale>
<asrwt>0</asrwt>
<pdfrwt beam="2">  1        1 0.60400140E+00 0.57189841E+01</pdfrwt>
<pdfrwt beam="1">  1       -1 0.23867351E+00 0.57189841E+01</pdfrwt>
<totfact> 0.57374825E-02</totfact>
</mgrwt>
</event>
<event>
 4    1  0.4367748E-004  0.6023581E+01  0.7818608E-02  0.2412365E+00
          1   -1    0    0  501    0  0.00000000000E+00  0.00000000000E+00  0.60586834974E+02  0.60586835183E+02  0.50400000000E-02 0.  1.
         -1   -1    0    0    0  501 -0.00000000000E+00 -0.00000000000E+00 -0.14967443523E+00  0.14975926736E+00  0.50400000000E-02 0. -1.
         31    1    1    2    0    0 -0.75433140013E+00  0.22330238907E+00  0.37053600989E+02  0.37169621012E+02  0.28271010000E+01 0.  1.
        -31    1    1    2    0    0  0.75433140013E+00 -0.22330238907E+00  0.23383559549E+02  0.23566973439E+02  0.28271010000E+01 0. -1.
<mgrwt>
<rscale>  0 0.60235813E+01</rscale>
<asrwt>0</asrwt>
<pdfrwt beam="1">  1        1 0.50221266E+00 0.60235813E+01</pdfrwt>
<pdfrwt beam="2">  1       -1 0.31843902E+00 0.60235813E+01</pdfrwt>
<totfact> 0.56617850E-02</totfact>
</mgrwt>
</event>
<event>
 4    1  0.4367748E-004  0.6166458E+01  0.7818608E-02  0.2394250E+00
          1   -1    0    0  501    0  0.00000000000E+00  0.00000000000E+00  0.52720758226E+02  0.52720758467E+02  0.50400000000E-02 0.  1.
         -1   -1    0    0    0  501 -0.00000000000E+00 -0.00000000000E+00 -0.18027870855E+00  0.18034914571E+00  0.50400000000E-02 0. -1.
         31    1    1    2    0    0  0.95847353264E+00 -0.75026216351E+00  0.27810490520E+02  0.27980304642E+02  0.28271010000E+01 0.  1.
        -31    1    1    2    0    0 -0.95847353264E+00  0.75026216351E+00  0.24729988997E+02  0.24920802971E+02  0.28271010000E+01 0. -1.
<mgrwt>
<rscale>  0 0.61664576E+01</rscale>
<asrwt>0</asrwt>
<pdfrwt beam="1">  1        1 0.43742337E+00 0.61664576E+01</pdfrwt>
<pdfrwt beam="2">  1       -1 0.38315447E+00 0.61664576E+01</pdfrwt>
<totfact> 0.43434104E-02</totfact>
</mgrwt>
</event>
<event>
 4    1  0.4367748E-004  0.6070640E+01  0.7818608E-02  0.2406319E+00
         -1   -1    0    0    0  501 -0.00000000000E+00  0.00000000000E+00  0.45736780074E+02  0.45736780351E+02  0.50400000000E-02 0.  1.
          1   -1    0    0  501    0  0.00000000000E+00 -0.00000000000E+00 -0.20140709527E+00  0.20147014574E+00  0.50400000000E-02 0. -1.
         31    1    1    2    0    0  0.90575227412E+00 -0.45697389675E-01  0.27542822831E+02  0.27702383742E+02  0.28271010000E+01 0.  1.
        -31    1    1    2    0    0 -0.90575227412E+00  0.45697389675E-01  0.17992550148E+02  0.18235866755E+02  0.28271010000E+01 0. -1.
<mgrwt>
<rscale>  0 0.60706397E+01</rscale>
<asrwt>0</asrwt>
<pdfrwt beam="2">  1        1 0.42762357E+00 0.60706397E+01</pdfrwt>
<pdfrwt beam="1">  1       -1 0.37984960E+00 0.60706397E+01</pdfrwt>
<totfact> 0.49872515E-02</totfact>
</mgrwt>
</event>
<event>
 4    1  0.4367748E-004  0.6179410E+01  0.7818608E-02  0.2392642E+00
         -1   -1    0    0    0  501 -0.00000000000E+00  0.00000000000E+00  0.44324669943E+02  0.44324670230E+02  0.50400000000E-02 0.  1.
          1   -1    0    0  501    0  0.00000000000E+00 -0.00000000000E+00 -0.21534189358E+00  0.21540086520E+00  0.50400000000E-02 0. -1.
         31    1    1    2    0    0 -0.39286366726E+00  0.11816499768E+01  0.21650804499E+02  0.21870081711E+02  0.28271010000E+01 0. -1.
        -31    1    1    2    0    0  0.39286366726E+00 -0.11816499768E+01  0.22458523551E+02  0.22669989385E+02  0.28271010000E+01 0. -1.
<mgrwt>
<rscale>  0 0.61794103E+01</rscale>
<asrwt>0</asrwt>
<pdfrwt beam="2">  1        1 0.45699382E+00 0.61794103E+01</pdfrwt>
<pdfrwt beam="1">  1       -1 0.36828847E+00 0.61794103E+01</pdfrwt>
<totfact> 0.44471967E-02</totfact>
</mgrwt>
</event>
<event>
 4    1  0.4367748E-004  0.5820452E+01  0.7818608E-02  0.2439395E+00
         -1   -1    0    0    0  501 -0.00000000000E+00  0.00000000000E+00  0.40242723915E+02  0.40242724231E+02  0.50400000000E-02 0.  1.
          1   -1    0    0  501    0  0.00000000000E+00 -0.00000000000E+00 -0.21042783084E+00  0.21048817922E+00  0.50400000000E-02 0. -1.
         31    1    1    2    0    0 -0.27918511855E+00  0.41356466140E+00  0.16697946606E+02  0.16942930708E+02  0.28271010000E+01 0. -1.
        -31    1    1    2    0    0  0.27918511855E+00 -0.41356466140E+00  0.23334349479E+02  0.23510281702E+02  0.28271010000E+01 0.  1.
<mgrwt>
<rscale>  0 0.58204523E+01</rscale>
<asrwt>0</asrwt>
<pdfrwt beam="2">  1        1 0.44640352E+00 0.58204523E+01</pdfrwt>
<pdfrwt beam="1">  1       -1 0.33449546E+00 0.58204523E+01</pdfrwt>
<totfact> 0.78059828E-02</totfact>
</mgrwt>
</event>
<event>
 4    1  0.4367748E-004  0.6837896E+01  0.7818608E-02  0.2317653E+00
         -1   -1    0    0    0  501 -0.00000000000E+00  0.00000000000E+00  0.84823749837E+02  0.84823749987E+02  0.50400000000E-02 0.  1.
          1   -1    0    0  501    0  0.00000000000E+00 -0.00000000000E+00 -0.13775956024E+00  0.13785172483E+00  0.50400000000E-02 0. -1.
         31    1    1    2    0    0 -0.13353721635E+01  0.11959274787E+01  0.50980391558E+02  0.51090177968E+02  0.28271010000E+01 0. -1.
        -31    1    1    2    0    0  0.13353721635E+01 -0.11959274787E+01  0.33705598719E+02  0.33871423743E+02  0.28271010000E+01 0. -1.
<mgrwt>
<rscale>  0 0.68378956E+01</rscale>
<asrwt>0</asrwt>
<pdfrwt beam="2">  1        1 0.29335224E+00 0.68378956E+01</pdfrwt>
<pdfrwt beam="1">  1       -1 0.70252197E+00 0.68378956E+01</pdfrwt>
<totfact> 0.34223409E-03</totfact>
</mgrwt>
</event>
<event>
 4    1  0.4367748E-004  0.6239656E+01  0.7818608E-02  0.2385238E+00
          1   -1    0    0  501    0  0.00000000000E+00  0.00000000000E+00  0.67953816417E+02  0.67953816603E+02  0.50400000000E-02 0.  1.
         -1   -1    0    0    0  501 -0.00000000000E+00 -0.00000000000E+00 -0.14318990340E+00  0.14327857493E+00  0.50400000000E-02 0. -1.
         31    1    1    2    0    0  0.10887549086E+00  0.92140534413E+00  0.23667542841E+02  0.23853845097E+02  0.28271010000E+01 0. -1.
        -31    1    1    2    0    0 -0.10887549086E+00 -0.92140534413E+00  0.44143083672E+02  0.44243250082E+02  0.28271010000E+01 0.  1.
<mgrwt>
<rscale>  0 0.62396557E+01</rscale>
<asrwt>0</asrwt>
<pdfrwt beam="1">  1        1 0.56307443E+00 0.62396557E+01</pdfrwt>
<pdfrwt beam="2">  1       -1 0.30476131E+00 0.62396557E+01</pdfrwt>
<totfact> 0.36487981E-02</totfact>
</mgrwt>
</event>
<event>
 4    1  0.4367748E-004  0.6266640E+01  0.7818608E-02  0.2381960E+00
          1   -1    0    0  501    0  0.00000000000E+00  0.00000000000E+00  0.56570900966E+02  0.56570901191E+02  0.50400000000E-02 0.  1.
         -1   -1    0    0    0  501 -0.00000000000E+00 -0.00000000000E+00 -0.17350991750E+00  0.17358310134E+00  0.50400000000E-02 0. -1.
         31    1    1    2    0    0  0.13035643832E+01 -0.35427787132E+00  0.28380280097E+02  0.28552716006E+02  0.28271010000E+01 0. -1.
        -31    1    1    2    0    0 -0.13035643832E+01  0.35427787132E+00  0.28017110952E+02  0.28191768286E+02  0.28271010000E+01 0.  1.
<mgrwt>
<rscale>  0 0.62666403E+01</rscale>
<asrwt>0</asrwt>
<pdfrwt beam="1">  1        1 0.46920310E+00 0.62666403E+01</pdfrwt>
<pdfrwt beam="2">  1       -1 0.36890373E+00 0.62666403E+01</pdfrwt>
<totfact> 0.39222424E-02</totfact>
</mgrwt>
</event>
<event>
 4    1  0.4367748E-004  0.6303451E+01  0.7818608E-02  0.2377527E+00
          1   -1    0    0  501    0  0.00000000000E+00  0.00000000000E+00  0.25138538670E+02  0.25138539175E+02  0.50400000000E-02 0.  1.
         -1   -1    0    0    0  501 -0.00000000000E+00 -0.00000000000E+00 -0.39512859350E+00  0.39516073566E+00  0.50400000000E-02 0. -1.
         31    1    1    2    0    0 -0.40753002706E+00 -0.11058875340E+01  0.15380744634E+02  0.15682757205E+02  0.28271010000E+01 0.  1.
        -31    1    1    2    0    0  0.40753002706E+00  0.11058875340E+01  0.93626654423E+01  0.98509427066E+01  0.28271010000E+01 0. -1.
<mgrwt>
<rscale>  0 0.63034506E+01</rscale>
<asrwt>0</asrwt>
<pdfrwt beam="1">  1        1 0.21113050E+00 0.63034506E+01</pdfrwt>
<pdfrwt beam="2">  1       -1 0.82948802E+00 0.63034506E+01</pdfrwt>
<totfact> 0.29987247E-03</totfact>
</mgrwt>
</event>
<event>
 4    1  0.4367748E-004  0.7420079E+01  0.7818608E-02  0.2260618E+00
          1   -1    0    0  501    0  0.00000000000E+00  0.00000000000E+00  0.84127071549E+02  0.84127071700E+02  0.50400000000E-02 0. -1.
         -1   -1    0    0    0  501 -0.00000000000E+00 -0.00000000000E+00 -0.16357536312E+00  0.16365298965E+00  0.50400000000E-02 0.  1.
         31    1    1    2    0    0  0.17947550000E+01 -0.11259377068E+01  0.29114467868E+02  0.29328034719E+02  0.28271010000E+01 0.  1.
        -31    1    1    2    0    0 -0.17947550000E+01  0.11259377068E+01  0.54849028318E+02  0.54962689970E+02  0.28271010000E+01 0.  1.
<mgrwt>
<rscale>  0 0.74200793E+01</rscale>
<asrwt>0</asrwt>
<pdfrwt beam="1">  1        1 0.69697469E+00 0.74200793E+01</pdfrwt>
<pdfrwt beam="2">  1       -1 0.34818052E+00 0.74200793E+01</pdfrwt>
<totfact> 0.40992566E-03</totfact>
</mgrwt>
</event>
<event>
 4    1  0.4367748E-004  0.6448236E+01  0.7818608E-02  0.2360497E+00
          1   -1    0    0  501    0  0.00000000000E+00  0.00000000000E+00  0.50594753631E+02  0.50594753882E+02  0.50400000000E-02 0. -1.
         -1   -1    0    0    0  501 -0.00000000000E+00 -0.00000000000E+00 -0.20542364600E+00  0.20548546405E+00  0.50400000000E-02 0.  1.
         31    1    1    2    0    0  0.52028115246E+00  0.14094410735E+01  0.22192489685E+02  0.22422228148E+02  0.28271010000E+01 0.  1.
        -31    1    1    2    0    0 -0.52028115246E+00 -0.14094410735E+01  0.28196840300E+02  0.28378011198E+02  0.28271010000E+01 0. -1.
<mgrwt>
<rscale>  0 0.64482355E+01</rscale>
<asrwt>0</asrwt>
<pdfrwt beam="1">  1        1 0.42005192E+00 0.64482355E+01</pdfrwt>
<pdfrwt beam="2">  1       -1 0.43629797E+00 0.64482355E+01</pdfrwt>
<totfact> 0.23470816E-02</totfact>
</mgrwt>
</event>
<event>
 4    1  0.4367748E-004  0.6786136E+01  0.7818608E-02  0.2323110E+00
         -1   -1    0    0    0  501 -0.00000000000E+00  0.00000000000E+00  0.49743772612E+02  0.49743772867E+02  0.50400000000E-02 0.  1.
          1   -1    0    0  501    0  0.00000000000E+00 -0.00000000000E+00 -0.23141653776E+00  0.23147141411E+00  0.50400000000E-02 0. -1.
         31    1    1    2    0    0 -0.26740908942E+00 -0.18208700616E+01  0.22067105750E+02  0.22323456983E+02  0.28271010000E+01 0. -1.
        -31    1    1    2    0    0  0.26740908942E+00  0.18208700616E+01  0.27445250323E+02  0.27651787298E+02  0.28271010000E+01 0.  1.
<mgrwt>
<rscale>  0 0.67861356E+01</rscale>
<asrwt>0</asrwt>
<pdfrwt beam="2">  1        1 0.49119882E+00 0.67861356E+01</pdfrwt>
<pdfrwt beam="1">  1       -1 0.41323029E+00 0.67861356E+01</pdfrwt>
<totfact> 0.16750686E-02</totfact>
</mgrwt>
</event>
<event>
 4    1  0.4367748E-004  0.6029068E+01  0.7818608E-02  0.2411656E+00
         -1   -1    0    0    0  501 -0.00000000000E+00  0.00000000000E+00  0.36463777959E+02  0.36463778307E+02  0.50400000000E-02 0.  1.
          1   -1    0    0  501    0  0.00000000000E+00 -0.00000000000E+00 -0.24919174323E+00  0.24924270600E+00  0.50400000000E-02 0. -1.
         31    1    1    2    0    0 -0.95186012216E+00  0.11332767382E-01  0.15461771852E+02  0.15746906203E+02  0.28271010000E+01 0.  1.
        -31    1    1    2    0    0  0.95186012216E+00 -0.11332767382E-01  0.20752814364E+02  0.20966114810E+02  0.28271010000E+01 0.  1.
<mgrwt>
<rscale>  0 0.60290677E+01</rscale>
<asrwt>0</asrwt>
<pdfrwt beam="2">  1        1 0.52777323E+00 0.60290677E+01</pdfrwt>
<pdfrwt beam="1">  1       -1 0.30356894E+00 0.60290677E+01</pdfrwt>
<totfact> 0.53504641E-02</totfact>
</mgrwt>
</event>
<event>
 4    1  0.4367748E-004  0.8613362E+01  0.7818608E-02  0.2163715E+00
         -1   -1    0    0    0  501 -0.00000000000E+00  0.00000000000E+00  0.89101344103E+02  0.89101344245E+02  0.50400000000E-02 0. -1.
          1   -1    0    0  501    0  0.00000000000E+00 -0.00000000000E+00 -0.20813121871E+00  0.20819223281E+00  0.50400000000E-02 0.  1.
         31    1    1    2    0    0  0.23111028812E+01  0.20606178223E+01  0.34246927803E+02  0.34502636223E+02  0.28271010000E+01 0. -1.
        -31    1    1    2    0    0 -0.23111028812E+01 -0.20606178223E+01  0.54646285081E+02  0.54806900255E+02  0.28271010000E+01 0.  1.
<mgrwt>
<rscale>  0 0.86133622E+01</rscale>
<asrwt>0</asrwt>
<pdfrwt beam="2">  1        1 0.44280728E+00 0.86133622E+01</pdfrwt>
<pdfrwt beam="1">  1       -1 0.73847373E+00 0.86133622E+01</pdfrwt>
<totfact> 0.72604366E-04</totfact>
</mgrwt>
</event>
<event>
 4    1  0.4367748E-004  0.6421646E+01  0.7818608E-02  0.2363577E+00
         -1   -1    0    0    0  501 -0.00000000000E+00  0.00000000000E+00  0.50899294659E+02  0.50899294908E+02  0.50400000000E-02 0. -1.
          1   -1    0    0  501    0  0.00000000000E+00 -0.00000000000E+00 -0.20251314742E+00  0.20257585364E+00  0.50400000000E-02 0.  1.
         31    1    1    2    0    0 -0.23567432334E+00 -0.20785916009E+00  0.13496582558E+02  0.13793077562E+02  0.28271010000E+01 0.  1.
        -31    1    1    2    0    0  0.23567432334E+00  0.20785916009E+00  0.37200198953E+02  0.37308793200E+02  0.28271010000E+01 0. -1.
<mgrwt>
<rscale>  0 0.64216462E+01</rscale>
<asrwt>0</asrwt>
<pdfrwt beam="2">  1        1 0.43015316E+00 0.64216462E+01</pdfrwt>
<pdfrwt beam="1">  1       -1 0.42254602E+00 0.64216462E+01</pdfrwt>
<totfact> 0.26252744E-02</totfact>
</mgrwt>
</event>
<event>
 4    1  0.4367748E-004  0.6027493E+01  0.7818608E-02  0.2411859E+00
         -1   -1    0    0    0  501 -0.00000000000E+00  0.00000000000E+00  0.61904328276E+02  0.61904328481E+02  0.50400000000E-02 0. -1.
          1   -1    0    0  501    0  0.00000000000E+00 -0.00000000000E+00 -0.14667754015E+00  0.14676410455E+00  0.50400000000E-02 0.  1.
         31    1    1    2    0    0  0.52714104063E+00  0.72554185547E+00  0.36383137749E+02  0.36503828583E+02  0.28271010000E+01 0. -1.
        -31    1    1    2    0    0 -0.52714104063E+00 -0.72554185547E+00  0.25374512987E+02  0.25547264003E+02  0.28271010000E+01 0. -1.
<mgrwt>
<rscale>  0 0.60274926E+01</rscale>
<asrwt>0</asrwt>
<pdfrwt beam="2">  1        1 0.31209808E+00 0.60274926E+01</pdfrwt>
<pdfrwt beam="1">  1       -1 0.51308185E+00 0.60274926E+01</pdfrwt>
<totfact> 0.18785130E-02</totfact>
</mgrwt>
</event>
<event>
 4    1  0.4367748E-004  0.6459238E+01  0.7818608E-02  0.2359229E+00
          1   -1    0    0  501    0  0.00000000000E+00  0.00000000000E+00  0.75157867147E+02  0.75157867316E+02  0.50400000000E-02 0.  1.
         -1   -1    0    0    0  501 -0.00000000000E+00 -0.00000000000E+00 -0.13873448141E+00  0.13882599876E+00  0.50400000000E-02 0. -1.
         31    1    1    2    0    0  0.13946044865E+01 -0.43112695593E+00  0.31049038479E+02  0.31211633771E+02  0.28271010000E+01 0.  1.
        -31    1    1    2    0    0 -0.13946044865E+01  0.43112695593E+00  0.43970094186E+02  0.44085059543E+02  0.28271010000E+01 0.  1.
<mgrwt>
<rscale>  0 0.64592382E+01</rscale>
<asrwt>0</asrwt>
<pdfrwt beam="1">  1        1 0.62260574E+00 0.64592382E+01</pdfrwt>
<pdfrwt beam="2">  1       -1 0.29536149E+00 0.64592382E+01</pdfrwt>
<totfact> 0.21394322E-02</totfact>
</mgrwt>
</event>
<event>
 4    1  0.4367748E-004  0.6385113E+01  0.7818608E-02  0.2367843E+00
          1   -1    0    0  501    0  0.00000000000E+00  0.00000000000E+00  0.70480956143E+02  0.70480956323E+02  0.50400000000E-02 0.  1.
         -1   -1    0    0    0  501 -0.00000000000E+00 -0.00000000000E+00 -0.14456826657E+00  0.14465609320E+00  0.50400000000E-02 0. -1.
         31    1    1    2    0    0 -0.77063072558E+00  0.26958277323E+00  0.48864934216E+02  0.48953455880E+02  0.28271010000E+01 0.  1.
        -31    1    1    2    0    0  0.77063072558E+00 -0.26958277323E+00  0.21471453660E+02  0.21672156536E+02  0.28271010000E+01 0. -1.
<mgrwt>
<rscale>  0 0.63851131E+01</rscale>
<asrwt>0</asrwt>
<pdfrwt beam="1">  1        1 0.58398198E+00 0.63851131E+01</pdfrwt>
<pdfrwt beam="2">  1       -1 0.30771037E+00 0.63851131E+01</pdfrwt>
<totfact> 0.27981400E-02</totfact>
</mgrwt>
</event>
<event>
 4    1  0.4367748E-004  0.6860324E+01  0.7818608E-02  0.2315310E+00
          1   -1    0    0  501    0  0.00000000000E+00  0.00000000000E+00  0.69835589913E+02  0.69835590095E+02  0.50400000000E-02 0. -1.
         -1   -1    0    0    0  501 -0.00000000000E+00 -0.00000000000E+00 -0.16844370346E+00  0.16851908745E+00  0.50400000000E-02 0.  1.
         31    1    1    2    0    0 -0.14325519539E+01 -0.71395279502E+00  0.23601643760E+02  0.23824189848E+02  0.28271010000E+01 0.  1.
        -31    1    1    2    0    0  0.14325519539E+01  0.71395279502E+00  0.46065502449E+02  0.46179919334E+02  0.28271010000E+01 0.  1.
<mgrwt>
<rscale>  0 0.68603237E+01</rscale>
<asrwt>0</asrwt>
<pdfrwt beam="1">  1        1 0.57884295E+00 0.68603237E+01</pdfrwt>
<pdfrwt beam="2">  1       -1 0.35837099E+00 0.68603237E+01</pdfrwt>
<totfact> 0.14810179E-02</totfact>
</mgrwt>
</event>
<event>
 4    1  0.4367748E-004  0.7433955E+01  0.7818608E-02  0.2259348E+00
          1   -1    0    0  501    0  0.00000000000E+00  0.00000000000E+00  0.72728552381E+02  0.72728552555E+02  0.50400000000E-02 0. -1.
         -1   -1    0    0    0  501 -0.00000000000E+00 -0.00000000000E+00 -0.18993196240E+00  0.18999882089E+00  0.50400000000E-02 0.  1.
         31    1    1    2    0    0 -0.78779869732E+00  0.12351919397E+01  0.55078518998E+02  0.55170481972E+02  0.28271010000E+01 0. -1.
        -31    1    1    2    0    0  0.78779869732E+00 -0.12351919397E+01  0.17460101420E+02  0.17748069404E+02  0.28271010000E+01 0. -1.
<mgrwt>
<rscale>  0 0.74339547E+01</rscale>
<asrwt>0</asrwt>
<pdfrwt beam="1">  1        1 0.60294160E+00 0.74339547E+01</pdfrwt>
<pdfrwt beam="2">  1       -1 0.40398846E+00 0.74339547E+01</pdfrwt>
<totfact> 0.58946274E-03</totfact>
</mgrwt>
</event>
<event>
 4    1  0.4367748E-004  0.7409368E+01  0.7818608E-02  0.2261601E+00
          1   -1    0    0  501    0  0.00000000000E+00  0.00000000000E+00  0.80623608103E+02  0.80623608260E+02  0.50400000000E-02 0.  1.
         -1   -1    0    0    0  501 -0.00000000000E+00 -0.00000000000E+00 -0.17019413038E+00  0.17026873939E+00  0.50400000000E-02 0. -1.
         31    1    1    2    0    0 -0.23306898831E+01  0.44028328873E+00  0.43780575044E+02  0.43935830662E+02  0.28271010000E+01 0. -1.
        -31    1    1    2    0    0  0.23306898831E+01 -0.44028328873E+00  0.36672838928E+02  0.36858046337E+02  0.28271010000E+01 0. -1.
<mgrwt>
<rscale>  0 0.74093685E+01</rscale>
<asrwt>0</asrwt>
<pdfrwt beam="1">  1        1 0.66806030E+00 0.74093685E+01</pdfrwt>
<pdfrwt beam="2">  1       -1 0.36220221E+00 0.74093685E+01</pdfrwt>
<totfact> 0.49211077E-03</totfact>
</mgrwt>
</event>
<event>
 4    1  0.4367748E-004  0.8015375E+01  0.7818608E-02  0.2209369E+00
          1   -1    0    0  501    0  0.00000000000E+00  0.00000000000E+00  0.89251968293E+02  0.89251968436E+02  0.50400000000E-02 0. -1.
         -1   -1    0    0    0  501 -0.00000000000E+00 -0.00000000000E+00 -0.17992205573E+00  0.17999263246E+00  0.50400000000E-02 0.  1.
         31    1    1    2    0    0 -0.82255792356E+00  0.13823706590E+01  0.18413267414E+02  0.18698354663E+02  0.28271010000E+01 0.  1.
        -31    1    1    2    0    0  0.82255792356E+00 -0.13823706590E+01  0.70658778824E+02  0.70733606405E+02  0.28271010000E+01 0. -1.
<mgrwt>
<rscale>  0 0.80153752E+01</rscale>
<asrwt>0</asrwt>
<pdfrwt beam="1">  1        1 0.73948603E+00 0.80153752E+01</pdfrwt>
<pdfrwt beam="2">  1       -1 0.38293241E+00 0.80153752E+01</pdfrwt>
<totfact> 0.13600850E-03</totfact>
</mgrwt>
</event>
<event>
 4    1  0.4367748E-004  0.6679637E+01  0.7818608E-02  0.2334556E+00
         -1   -1    0    0    0  501 -0.00000000000E+00  0.00000000000E+00  0.38843236142E+02  0.38843236469E+02  0.50400000000E-02 0. -1.
          1   -1    0    0  501    0  0.00000000000E+00 -0.00000000000E+00 -0.28714179028E+00  0.28718601868E+00  0.50400000000E-02 0.  1.
         31    1    1    2    0    0  0.43572078908E+00 -0.17239327379E+01  0.19222057696E+02  0.19510043537E+02  0.28271010000E+01 0. -1.
        -31    1    1    2    0    0 -0.43572078908E+00  0.17239327379E+01  0.19334036655E+02  0.19620378950E+02  0.28271010000E+01 0. -1.
<mgrwt>
<rscale>  0 0.66796371E+01</rscale>
<asrwt>0</asrwt>
<pdfrwt beam="2">  1        1 0.60779675E+00 0.66796371E+01</pdfrwt>
<pdfrwt beam="1">  1       -1 0.32355771E+00 0.66796371E+01</pdfrwt>
<totfact> 0.17306678E-02</totfact>
</mgrwt>
</event>
<event>
 4    1  0.4367748E-004  0.5988395E+01  0.7818608E-02  0.2416936E+00
          1   -1    0    0  501    0  0.00000000000E+00  0.00000000000E+00  0.94044744053E+02  0.94044744188E+02  0.50400000000E-02 0.  1.
         -1   -1    0    0    0  501 -0.00000000000E+00 -0.00000000000E+00 -0.95262533479E-01  0.95395764501E-01  0.50400000000E-02 0. -1.
         31    1    1    2    0    0 -0.88869780734E+00 -0.40191414393E-01  0.53668744847E+02  0.53750516952E+02  0.28271010000E+01 0.  1.
        -31    1    1    2    0    0  0.88869780734E+00  0.40191414393E-01  0.40280736673E+02  0.40389623000E+02  0.28271010000E+01 0. -1.
<mgrwt>
<rscale>  0 0.59883948E+01</rscale>
<asrwt>0</asrwt>
<pdfrwt beam="1">  1        1 0.77841654E+00 0.59883948E+01</pdfrwt>
<pdfrwt beam="2">  1       -1 0.20305476E+00 0.59883948E+01</pdfrwt>
<totfact> 0.92085441E-03</totfact>
</mgrwt>
</event>
<event>
 4    1  0.4367748E-004  0.5885381E+01  0.7818608E-02  0.2430584E+00
          1   -1    0    0  501    0  0.00000000000E+00  0.00000000000E+00  0.55236657283E+02  0.55236657513E+02  0.50400000000E-02 0.  1.
         -1   -1    0    0    0  501 -0.00000000000E+00 -0.00000000000E+00 -0.15672883519E+00  0.15680985103E+00  0.50400000000E-02 0. -1.
         31    1    1    2    0    0 -0.36603501291E+00 -0.47914260386E+00  0.22355919242E+02  0.22542031507E+02  0.28271010000E+01 0. -1.
        -31    1    1    2    0    0  0.36603501291E+00  0.47914260386E+00  0.32724009206E+02  0.32851435857E+02  0.28271010000E+01 0.  1.
<mgrwt>
<rscale>  0 0.58853809E+01</rscale>
<asrwt>0</asrwt>
<pdfrwt beam="1">  1        1 0.45803194E+00 0.58853809E+01</pdfrwt>
<pdfrwt beam="2">  1       -1 0.33331724E+00 0.58853809E+01</pdfrwt>
<totfact> 0.71072512E-02</totfact>
</mgrwt>
</event>
<event>
 4    1  0.4367748E-004  0.6590036E+01  0.7818608E-02  0.2344422E+00
         -1   -1    0    0    0  501 -0.00000000000E+00  0.00000000000E+00  0.53179933732E+02  0.53179933971E+02  0.50400000000E-02 0. -1.
          1   -1    0    0  501    0  0.00000000000E+00 -0.00000000000E+00 -0.20412732524E+00  0.20418953575E+00  0.50400000000E-02 0.  1.
         31    1    1    2    0    0 -0.81984868412E+00 -0.87147885584E+00  0.16790621462E+02  0.17068951240E+02  0.28271010000E+01 0. -1.
        -31    1    1    2    0    0  0.81984868412E+00  0.87147885584E+00  0.36185184945E+02  0.36315172267E+02  0.28271010000E+01 0. -1.
<mgrwt>
<rscale>  0 0.65900363E+01</rscale>
<asrwt>0</asrwt>
<pdfrwt beam="2">  1        1 0.43364132E+00 0.65900363E+01</pdfrwt>
<pdfrwt beam="1">  1       -1 0.44141728E+00 0.65900363E+01</pdfrwt>
<totfact> 0.19114356E-02</totfact>
</mgrwt>
</event>
<event>
 4    1  0.4367748E-004  0.5834976E+01  0.7818608E-02  0.2437410E+00
         -1   -1    0    0    0  501 -0.00000000000E+00  0.00000000000E+00  0.43006125608E+02  0.43006125903E+02  0.50400000000E-02 0.  1.
          1   -1    0    0  501    0  0.00000000000E+00 -0.00000000000E+00 -0.19788676313E+00  0.19795093488E+00  0.50400000000E-02 0. -1.
         31    1    1    2    0    0  0.58298523449E-01 -0.60672860854E+00  0.18558339962E+02  0.18782332138E+02  0.28271010000E+01 0. -1.
        -31    1    1    2    0    0 -0.58298523449E-01  0.60672860854E+00  0.24249898883E+02  0.24421744700E+02  0.28271010000E+01 0.  1.
<mgrwt>
<rscale>  0 0.58349758E+01</rscale>
<asrwt>0</asrwt>
<pdfrwt beam="2">  1        1 0.42006892E+00 0.58349758E+01</pdfrwt>
<pdfrwt beam="1">  1       -1 0.35724154E+00 0.58349758E+01</pdfrwt>
<totfact> 0.73207071E-02</totfact>
</mgrwt>
</event>
<event>
 4    1  0.4367748E-004  0.6042863E+01  0.7818608E-02  0.2409878E+00
          1   -1    0    0  501    0  0.00000000000E+00  0.00000000000E+00  0.10131395741E+03  0.10131395754E+03  0.50400000000E-02 0.  1.
         -1   -1    0    0    0  501 -0.00000000000E+00 -0.00000000000E+00 -0.90035918364E-01  0.90176871734E-01  0.50400000000E-02 0. -1.
         31    1    1    2    0    0 -0.37232882696E+00  0.14659380259E+00  0.34030095234E+02  0.34149670572E+02  0.28271010000E+01 0. -1.
        -31    1    1    2    0    0  0.37232882696E+00 -0.14659380259E+00  0.67193826260E+02  0.67254463837E+02  0.28271010000E+01 0.  1.
<mgrwt>
<rscale>  0 0.60428630E+01</rscale>
<asrwt>0</asrwt>
<pdfrwt beam="1">  1        1 0.83848033E+00 0.60428630E+01</pdfrwt>
<pdfrwt beam="2">  1       -1 0.19195392E+00 0.60428630E+01</pdfrwt>
<totfact> 0.34752073E-03</totfact>
</mgrwt>
</event>
<event>
 4    1  0.4367748E-004  0.5802779E+01  0.7818608E-02  0.2441821E+00
         -1   -1    0    0    0  501 -0.00000000000E+00  0.00000000000E+00  0.31423866368E+02  0.31423866772E+02  0.50400000000E-02 0.  1.
          1   -1    0    0  501    0  0.00000000000E+00 -0.00000000000E+00 -0.26786335013E+00  0.26791076115E+00  0.50400000000E-02 0. -1.
         31    1    1    2    0    0 -0.34472390152E+00 -0.37283337222E+00  0.17814680162E+02  0.18044754601E+02  0.28271010000E+01 0.  1.
        -31    1    1    2    0    0  0.34472390152E+00  0.37283337222E+00  0.13341322856E+02  0.13647022932E+02  0.28271010000E+01 0. -1.
<mgrwt>
<rscale>  0 0.58027786E+01</rscale>
<asrwt>0</asrwt>
<pdfrwt beam="2">  1        1 0.56635999E+00 0.58027786E+01</pdfrwt>
<pdfrwt beam="1">  1       -1 0.26204979E+00 0.58027786E+01</pdfrwt>
<totfact> 0.62691956E-02</totfact>
</mgrwt>
</event>
<event>
 4    1  0.4367748E-004  0.6389690E+01  0.7818608E-02  0.2367306E+00
          1   -1    0    0  501    0  0.00000000000E+00  0.00000000000E+00  0.68157767161E+02  0.68157767348E+02  0.50400000000E-02 0. -1.
         -1   -1    0    0    0  501 -0.00000000000E+00 -0.00000000000E+00 -0.14971342228E+00  0.14979823233E+00  0.50400000000E-02 0.  1.
         31    1    1    2    0    0  0.32226487085E+00 -0.15776456424E+00  0.49443213237E+02  0.49525272130E+02  0.28271010000E+01 0. -1.
        -31    1    1    2    0    0 -0.32226487085E+00  0.15776456424E+00  0.18564840502E+02  0.18782293450E+02  0.28271010000E+01 0.  1.
<mgrwt>
<rscale>  0 0.63896903E+01</rscale>
<asrwt>0</asrwt>
<pdfrwt beam="1">  1        1 0.56481474E+00 0.63896903E+01</pdfrwt>
<pdfrwt beam="2">  1       -1 0.31860895E+00 0.63896903E+01</pdfrwt>
<totfact> 0.29706042E-02</totfact>
</mgrwt>
</event>
<event>
 4    1  0.4367748E-004  0.6208945E+01  0.7818608E-02  0.2388997E+00
         -1   -1    0    0    0  501 -0.00000000000E+00  0.00000000000E+00  0.28968801799E+02  0.28968802237E+02  0.50400000000E-02 0.  1.
          1   -1    0    0  501    0  0.00000000000E+00 -0.00000000000E+00 -0.33267456190E+00  0.33271273756E+00  0.50400000000E-02 0. -1.
         31    1    1    2    0    0  0.11260420585E+01  0.60624322333E+00  0.14783992783E+02  0.15106106190E+02  0.28271010000E+01 0. -1.
        -31    1    1    2    0    0 -0.11260420585E+01 -0.60624322333E+00  0.13852134454E+02  0.14195408784E+02  0.28271010000E+01 0.  1.
<mgrwt>
<rscale>  0 0.62089449E+01</rscale>
<asrwt>0</asrwt>
<pdfrwt beam="2">  1        1 0.70131431E+00 0.62089449E+01</pdfrwt>
<pdfrwt beam="1">  1       -1 0.24228543E+00 0.62089449E+01</pdfrwt>
<totfact> 0.16589437E-02</totfact>
</mgrwt>
</event>
<event>
 4    1  0.4367748E-004  0.6543625E+01  0.7818608E-02  0.2349620E+00
          1   -1    0    0  501    0  0.00000000000E+00  0.00000000000E+00  0.89683170286E+02  0.89683170427E+02  0.50400000000E-02 0.  1.
         -1   -1    0    0    0  501 -0.00000000000E+00 -0.00000000000E+00 -0.11930859705E+00  0.11941500295E+00  0.50400000000E-02 0. -1.
         31    1    1    2    0    0 -0.41577785630E+00  0.58830483800E+00  0.65106334606E+02  0.65171667768E+02  0.28271010000E+01 0.  1.
        -31    1    1    2    0    0  0.41577785630E+00 -0.58830483800E+00  0.24457527083E+02  0.24630917662E+02  0.28271010000E+01 0. -1.
<mgrwt>
<rscale>  0 0.65436251E+01</rscale>
<asrwt>0</asrwt>
<pdfrwt beam="1">  1        1 0.74255061E+00 0.65436251E+01</pdfrwt>
<pdfrwt beam="2">  1       -1 0.25416465E+00 0.65436251E+01</pdfrwt>
<totfact> 0.77922505E-03</totfact>
</mgrwt>
</event>
<event>
 4    1  0.4367748E-004  0.6478112E+01  0.7818608E-02  0.2357062E+00
         -1   -1    0    0    0  501 -0.00000000000E+00  0.00000000000E+00  0.44719158131E+02  0.44719158415E+02  0.50400000000E-02 0. -1.
          1   -1    0    0  501    0  0.00000000000E+00 -0.00000000000E+00 -0.23458093083E+00  0.23463506709E+00  0.50400000000E-02 0.  1.
         31    1    1    2    0    0  0.15201287642E+01 -0.12737030646E-01  0.25251362188E+02  0.25454562383E+02  0.28271010000E+01 0. -1.
        -31    1    1    2    0    0 -0.15201287642E+01  0.12737030646E-01  0.19233215012E+02  0.19499231099E+02  0.28271010000E+01 0.  1.
<mgrwt>
<rscale>  0 0.64781124E+01</rscale>
<asrwt>0</asrwt>
<pdfrwt beam="2">  1        1 0.49761994E+00 0.64781124E+01</pdfrwt>
<pdfrwt beam="1">  1       -1 0.37170942E+00 0.64781124E+01</pdfrwt>
<totfact> 0.28558256E-02</totfact>
</mgrwt>
</event>
<event>
 4    1  0.4367748E-004  0.6445478E+01  0.7818608E-02  0.2360815E+00
          1   -1    0    0  501    0  0.00000000000E+00  0.00000000000E+00  0.64888400606E+02  0.64888400802E+02  0.50400000000E-02 0. -1.
         -1   -1    0    0    0  501 -0.00000000000E+00 -0.00000000000E+00 -0.16002025326E+00  0.16009960354E+00  0.50400000000E-02 0.  1.
         31    1    1    2    0    0 -0.11820489814E+00  0.14779026180E+01  0.27903328596E+02  0.28085341646E+02  0.28271010000E+01 0.  1.
        -31    1    1    2    0    0  0.11820489814E+00 -0.14779026180E+01  0.36825051756E+02  0.36963158759E+02  0.28271010000E+01 0. -1.
<mgrwt>
<rscale>  0 0.64454776E+01</rscale>
<asrwt>0</asrwt>
<pdfrwt beam="1">  1        1 0.53786651E+00 0.64454776E+01</pdfrwt>
<pdfrwt beam="2">  1       -1 0.34043961E+00 0.64454776E+01</pdfrwt>
<totfact> 0.29297418E-02</totfact>
</mgrwt>
</event>
<event>
 4    1  0.4367748E-004  0.6726000E+01  0.7818608E-02  0.2329536E+00
         -1   -1    0    0    0  501 -0.00000000000E+00  0.00000000000E+00  0.67099096746E+02  0.67099096935E+02  0.50400000000E-02 0. -1.
          1   -1    0    0  501    0  0.00000000000E+00 -0.00000000000E+00 -0.16851534002E+00  0.16859069198E+00  0.50400000000E-02 0.  1.
         31    1    1    2    0    0 -0.69630011953E-01  0.35212081557E-01  0.51664018266E+02  0.51741370021E+02  0.28271010000E+01 0. -1.
        -31    1    1    2    0    0  0.69630011953E-01 -0.35212081557E-01  0.15266563140E+02  0.15526317606E+02  0.28271010000E+01 0.  1.
<mgrwt>
<rscale>  0 0.67259997E+01</rscale>
<asrwt>0</asrwt>
<pdfrwt beam="2">  1        1 0.35848777E+00 0.67259997E+01</pdfrwt>
<pdfrwt beam="1">  1       -1 0.55621631E+00 0.67259997E+01</pdfrwt>
<totfact> 0.64246951E-03</totfact>
</mgrwt>
</event>
<event>
 4    1  0.4367748E-004  0.6490471E+01  0.7818608E-02  0.2355648E+00
         -1   -1    0    0    0  501 -0.00000000000E+00  0.00000000000E+00  0.35683498867E+02  0.35683499223E+02  0.50400000000E-02 0. -1.
          1   -1    0    0  501    0  0.00000000000E+00 -0.00000000000E+00 -0.29511599966E+00  0.29515903316E+00  0.50400000000E-02 0.  1.
         31    1    1    2    0    0 -0.79282183294E+00 -0.13819111895E+01  0.17851657125E+02  0.18144211395E+02  0.28271010000E+01 0. -1.
        -31    1    1    2    0    0  0.79282183294E+00  0.13819111895E+01  0.17536725743E+02  0.17834446861E+02  0.28271010000E+01 0. -1.
<mgrwt>
<rscale>  0 0.64904705E+01</rscale>
<asrwt>0</asrwt>
<pdfrwt beam="2">  1        1 0.62412930E+00 0.64904705E+01</pdfrwt>
<pdfrwt beam="1">  1       -1 0.29749672E+00 0.64904705E+01</pdfrwt>
<totfact> 0.20417980E-02</totfact>
</mgrwt>
</event>
<event>
 4    1  0.4367748E-004  0.6363849E+01  0.7818608E-02  0.2370344E+00
         -1   -1    0    0    0  501 -0.00000000000E+00  0.00000000000E+00  0.57070553075E+02  0.57070553297E+02  0.50400000000E-02 0. -1.
          1   -1    0    0  501    0  0.00000000000E+00 -0.00000000000E+00 -0.17736971599E+00  0.17744130791E+00  0.50400000000E-02 0.  1.
         31    1    1    2    0    0  0.79574565001E+00 -0.45942667232E+00  0.18237793237E+02  0.18478470884E+02  0.28271010000E+01 0.  1.
        -31    1    1    2    0    0 -0.79574565001E+00  0.45942667232E+00  0.38655390122E+02  0.38769523721E+02  0.28271010000E+01 0. -1.
<mgrwt>
<rscale>  0 0.63638490E+01</rscale>
<asrwt>0</asrwt>
<pdfrwt beam="2">  1        1 0.37709139E+00 0.63638490E+01</pdfrwt>
<pdfrwt beam="1">  1       -1 0.47336647E+00 0.63638490E+01</pdfrwt>
<totfact> 0.19661526E-02</totfact>
</mgrwt>
</event>
<event>
 4    1  0.4367748E-004  0.6240371E+01  0.7818608E-02  0.2385151E+00
         -1   -1    0    0    0  501 -0.00000000000E+00  0.00000000000E+00  0.40659288448E+02  0.40659288760E+02  0.50400000000E-02 0. -1.
          1   -1    0    0  501    0  0.00000000000E+00 -0.00000000000E+00 -0.23941553776E+00  0.23946858107E+00  0.50400000000E-02 0.  1.
         31    1    1    2    0    0 -0.10650837926E+01  0.63699352450E+00  0.23162045534E+02  0.23366921441E+02  0.28271010000E+01 0.  1.
        -31    1    1    2    0    0  0.10650837926E+01 -0.63699352450E+00  0.17257827375E+02  0.17531835900E+02  0.28271010000E+01 0. -1.
<mgrwt>
<rscale>  0 0.62403707E+01</rscale>
<asrwt>0</asrwt>
<pdfrwt beam="2">  1        1 0.50754882E+00 0.62403707E+01</pdfrwt>
<pdfrwt beam="1">  1       -1 0.33817954E+00 0.62403707E+01</pdfrwt>
<totfact> 0.41116857E-02</totfact>
</mgrwt>
</event>
<event>
 4    1  0.4367748E-004  0.6004803E+01  0.7818608E-02  0.2414799E+00
         -1   -1    0    0    0  501 -0.00000000000E+00  0.00000000000E+00  0.37373632525E+02  0.37373632864E+02  0.50400000000E-02 0. -1.
          1   -1    0    0  501    0  0.00000000000E+00 -0.00000000000E+00 -0.24117049473E+00  0.24122315214E+00  0.50400000000E-02 0.  1.
         31    1    1    2    0    0  0.48000994689E+00 -0.67423507377E+00  0.22202187365E+02  0.22396754817E+02  0.28271010000E+01 0.  1.
        -31    1    1    2    0    0 -0.48000994689E+00  0.67423507377E+00  0.14930274665E+02  0.15218101200E+02  0.28271010000E+01 0.  1.
<mgrwt>
<rscale>  0 0.60048028E+01</rscale>
<asrwt>0</asrwt>
<pdfrwt beam="2">  1        1 0.51098160E+00 0.60048028E+01</pdfrwt>
<pdfrwt beam="1">  1       -1 0.31102595E+00 0.60048028E+01</pdfrwt>
<totfact> 0.57325904E-02</totfact>
</mgrwt>
</event>
<event>
 4    1  0.4367748E-004  0.7121687E+01  0.7818608E-02  0.2288898E+00
         -1   -1    0    0    0  501 -0.00000000000E+00  0.00000000000E+00  0.57472621438E+02  0.57472621659E+02  0.50400000000E-02 0.  1.
          1   -1    0    0  501    0  0.00000000000E+00 -0.00000000000E+00 -0.22059092842E+00  0.22064849716E+00  0.50400000000E-02 0. -1.
         31    1    1    2    0    0 -0.99273741991E+00 -0.59017853834E+00  0.43460633974E+02  0.43567798243E+02  0.28271010000E+01 0.  1.
        -31    1    1    2    0    0  0.99273741991E+00  0.59017853834E+00  0.13791396536E+02  0.14125471913E+02  0.28271010000E+01 0. -1.
<mgrwt>
<rscale>  0 0.71216869E+01</rscale>
<asrwt>0</asrwt>
<pdfrwt beam="2">  1        1 0.46860591E+00 0.71216869E+01</pdfrwt>
<pdfrwt beam="1">  1       -1 0.47704832E+00 0.71216869E+01</pdfrwt>
<totfact> 0.78567104E-03</totfact>
</mgrwt>
</event>
<event>
 4    1  0.4367748E-004  0.6108242E+01  0.7818608E-02  0.2401545E+00
          1   -1    0    0  501    0  0.00000000000E+00  0.00000000000E+00  0.68525200810E+02  0.68525200995E+02  0.50400000000E-02 0.  1.
         -1   -1    0    0    0  501 -0.00000000000E+00 -0.00000000000E+00 -0.13607322323E+00  0.13616652922E+00  0.50400000000E-02 0. -1.
         31    1    1    2    0    0  0.11377347532E+01 -0.49508804596E-01  0.31995763434E+02  0.32140601570E+02  0.28271010000E+01 0.  1.
        -31    1    1    2    0    0 -0.11377347532E+01  0.49508804596E-01  0.36393364153E+02  0.36520765955E+02  0.28271010000E+01 0.  1.
<mgrwt>
<rscale>  0 0.61082418E+01</rscale>
<asrwt>0</asrwt>
<pdfrwt beam="1">  1        1 0.56774023E+00 0.61082418E+01</pdfrwt>
<pdfrwt beam="2">  1       -1 0.28965909E+00 0.61082418E+01</pdfrwt>
<totfact> 0.42550240E-02</totfact>
</mgrwt>
</event>
<event>
 4    1  0.4367748E-004  0.6335405E+01  0.7818608E-02  0.2373712E+00
         -1   -1    0    0    0  501 -0.00000000000E+00  0.00000000000E+00  0.47777790260E+02  0.47777790526E+02  0.50400000000E-02 0.  1.
          1   -1    0    0  501    0  0.00000000000E+00 -0.00000000000E+00 -0.20999049625E+00  0.21005097028E+00  0.50400000000E-02 0. -1.
         31    1    1    2    0    0 -0.11217631085E+01  0.74663635482E+00  0.20182833555E+02  0.20424374866E+02  0.28271010000E+01 0. -1.
        -31    1    1    2    0    0  0.11217631085E+01 -0.74663635482E+00  0.27384966209E+02  0.27563466630E+02  0.28271010000E+01 0. -1.
<mgrwt>
<rscale>  0 0.63354050E+01</rscale>
<asrwt>0</asrwt>
<pdfrwt beam="2">  1        1 0.44584584E+00 0.63354050E+01</pdfrwt>
<pdfrwt beam="1">  1       -1 0.39679705E+00 0.63354050E+01</pdfrwt>
<totfact> 0.33015488E-02</totfact>
</mgrwt>
</event>
<event>
 4    1  0.4367748E-004  0.6127211E+01  0.7818608E-02  0.2399155E+00
         -1   -1    0    0    0  501 -0.00000000000E+00  0.00000000000E+00  0.42689466338E+02  0.42689466636E+02  0.50400000000E-02 0.  1.
          1   -1    0    0  501    0  0.00000000000E+00 -0.00000000000E+00 -0.21983018691E+00  0.21988795482E+00  0.50400000000E-02 0. -1.
         31    1    1    2    0    0 -0.98306203391E+00 -0.52768043253E+00  0.23931881437E+02  0.24124102197E+02  0.28271010000E+01 0.  1.
        -31    1    1    2    0    0  0.98306203391E+00  0.52768043253E+00  0.18537754714E+02  0.18785252394E+02  0.28271010000E+01 0.  1.
<mgrwt>
<rscale>  0 0.61272112E+01</rscale>
<asrwt>0</asrwt>
<pdfrwt beam="2">  1        1 0.46638103E+00 0.61272112E+01</pdfrwt>
<pdfrwt beam="1">  1       -1 0.35480457E+00 0.61272112E+01</pdfrwt>
<totfact> 0.48994344E-02</totfact>
</mgrwt>
</event>
<event>
 4    1  0.4367748E-004  0.5970343E+01  0.7818608E-02  0.2419300E+00
          1   -1    0    0  501    0  0.00000000000E+00  0.00000000000E+00  0.30404303815E+02  0.30404304233E+02  0.50400000000E-02 0.  1.
         -1   -1    0    0    0  501 -0.00000000000E+00 -0.00000000000E+00 -0.29306957078E+00  0.29311290472E+00  0.50400000000E-02 0. -1.
         31    1    1    2    0    0 -0.90521660097E+00 -0.30354439170E+00  0.14619592898E+02  0.14921010450E+02  0.28271010000E+01 0.  1.
        -31    1    1    2    0    0  0.90521660097E+00  0.30354439170E+00  0.15491641347E+02  0.15776406687E+02  0.28271010000E+01 0.  1.
<mgrwt>
<rscale>  0 0.59703426E+01</rscale>
<asrwt>0</asrwt>
<pdfrwt beam="1">  1        1 0.25382772E+00 0.59703426E+01</pdfrwt>
<pdfrwt beam="2">  1       -1 0.61896179E+00 0.59703426E+01</pdfrwt>
<totfact> 0.77634001E-03</totfact>
</mgrwt>
</event>
<event>
 4    1  0.4367748E-004  0.6061424E+01  0.7818608E-02  0.2407497E+00
          1   -1    0    0  501    0  0.00000000000E+00  0.00000000000E+00  0.62386032320E+02  0.62386032524E+02  0.50400000000E-02 0. -1.
         -1   -1    0    0    0  501 -0.00000000000E+00 -0.00000000000E+00 -0.14718856374E+00  0.14727482778E+00  0.50400000000E-02 0.  1.
         31    1    1    2    0    0 -0.12583451316E+00 -0.90585913417E+00  0.37277482997E+02  0.37395717051E+02  0.28271010000E+01 0.  1.
        -31    1    1    2    0    0  0.12583451316E+00  0.90585913417E+00  0.24961360759E+02  0.25137590301E+02  0.28271010000E+01 0.  1.
<mgrwt>
<rscale>  0 0.60614236E+01</rscale>
<asrwt>0</asrwt>
<pdfrwt beam="1">  1        1 0.51706914E+00 0.60614236E+01</pdfrwt>
<pdfrwt beam="2">  1       -1 0.31318795E+00 0.60614236E+01</pdfrwt>
<totfact> 0.52393286E-02</totfact>
</mgrwt>
</event>
<event>
 4    1  0.4367748E-004  0.5705596E+01  0.7818608E-02  0.2455392E+00
          1   -1    0    0  501    0  0.00000000000E+00  0.00000000000E+00  0.46910115275E+02  0.46910115546E+02  0.50400000000E-02 0. -1.
         -1   -1    0    0    0  501 -0.00000000000E+00 -0.00000000000E+00 -0.17345354946E+00  0.17352675707E+00  0.50400000000E-02 0.  1.
         31    1    1    2    0    0  0.20662363879E+00  0.30115300944E+00  0.22443154884E+02  0.22623463211E+02  0.28271010000E+01 0.  1.
        -31    1    1    2    0    0 -0.20662363879E+00 -0.30115300944E+00  0.24293506842E+02  0.24460179092E+02  0.28271010000E+01 0.  1.
<mgrwt>
<rscale>  0 0.57055958E+01</rscale>
<asrwt>0</asrwt>
<pdfrwt beam="1">  1        1 0.38932050E+00 0.57055958E+01</pdfrwt>
<pdfrwt beam="2">  1       -1 0.36855229E+00 0.57055958E+01</pdfrwt>
<totfact> 0.82902161E-02</totfact>
</mgrwt>
</event>
<event>
 4    1  0.4367748E-004  0.6107013E+01  0.7818608E-02  0.2401700E+00
         -1   -1    0    0    0  501 -0.00000000000E+00  0.00000000000E+00  0.39111520574E+02  0.39111520899E+02  0.50400000000E-02 0.  1.
          1   -1    0    0  501    0  0.00000000000E+00 -0.00000000000E+00 -0.23836574128E+00  0.23841901815E+00  0.50400000000E-02 0. -1.
         31    1    1    2    0    0 -0.28932285727E+00 -0.10682568938E+01  0.21539542753E+02  0.21752454633E+02  0.28271010000E+01 0. -1.
        -31    1    1    2    0    0  0.28932285727E+00  0.10682568938E+01  0.17333612080E+02  0.17597485284E+02  0.28271010000E+01 0.  1.
<mgrwt>
<rscale>  0 0.61070128E+01</rscale>
<asrwt>0</asrwt>
<pdfrwt beam="2">  1        1 0.50522025E+00 0.61070128E+01</pdfrwt>
<pdfrwt beam="1">  1       -1 0.32537283E+00 0.61070128E+01</pdfrwt>
<totfact> 0.50055578E-02</totfact>
</mgrwt>
</event>
<event>
 4    1  0.4367748E-004  0.7451578E+01  0.7818608E-02  0.2257740E+00
         -1   -1    0    0    0  501 -0.00000000000E+00  0.00000000000E+00  0.53328845988E+02  0.53328846226E+02  0.50400000000E-02 0. -1.
          1   -1    0    0  501    0  0.00000000000E+00 -0.00000000000E+00 -0.26027544991E+00  0.26032424287E+00  0.50400000000E-02 0.  1.
         31    1    1    2    0    0 -0.21253477810E+01  0.41199965386E+00  0.18649148370E+02  0.18986049666E+02  0.28271010000E+01 0. -1.
        -31    1    1    2    0    0  0.21253477810E+01 -0.41199965386E+00  0.34419422167E+02  0.34603120803E+02  0.28271010000E+01 0.  1.
<mgrwt>
<rscale>  0 0.74515779E+01</rscale>
<asrwt>0</asrwt>
<pdfrwt beam="2">  1        1 0.55231472E+00 0.74515779E+01</pdfrwt>
<pdfrwt beam="1">  1       -1 0.44311276E+00 0.74515779E+01</pdfrwt>
<totfact> 0.57040344E-03</totfact>
</mgrwt>
</event>
<event>
 4    1  0.4367748E-004  0.6479916E+01  0.7818608E-02  0.2356855E+00
          1   -1    0    0  501    0  0.00000000000E+00  0.00000000000E+00  0.43709683405E+02  0.43709683695E+02  0.50400000000E-02 0. -1.
         -1   -1    0    0    0  501 -0.00000000000E+00 -0.00000000000E+00 -0.24013346713E+00  0.24018635189E+00  0.50400000000E-02 0.  1.
         31    1    1    2    0    0  0.64664744264E+00  0.79491420816E-01  0.31517434108E+02  0.31650681266E+02  0.28271010000E+01 0. -1.
        -31    1    1    2    0    0 -0.64664744264E+00 -0.79491420816E-01  0.11952115830E+02  0.12299188781E+02  0.28271010000E+01 0. -1.
<mgrwt>
<rscale>  0 0.64799155E+01</rscale>
<asrwt>0</asrwt>
<pdfrwt beam="1">  1        1 0.36340828E+00 0.64799155E+01</pdfrwt>
<pdfrwt beam="2">  1       -1 0.50927020E+00 0.64799155E+01</pdfrwt>
<totfact> 0.12605565E-02</totfact>
</mgrwt>
</event>
<event>
 4    1  0.4367748E-004  0.6405802E+01  0.7818608E-02  0.2365422E+00
         -1   -1    0    0    0  501 -0.00000000000E+00  0.00000000000E+00  0.53165817641E+02  0.53165817879E+02  0.50400000000E-02 0. -1.
          1   -1    0    0  501    0  0.00000000000E+00 -0.00000000000E+00 -0.19292119517E+00  0.19298701808E+00  0.50400000000E-02 0.  1.
         31    1    1    2    0    0  0.61428424887E+00 -0.66402065211E+00  0.16463675223E+02  0.16729117444E+02  0.28271010000E+01 0.  1.
        -31    1    1    2    0    0 -0.61428424887E+00  0.66402065211E+00  0.36509221223E+02  0.36629687453E+02  0.28271010000E+01 0. -1.
<mgrwt>
<rscale>  0 0.64058022E+01</rscale>
<asrwt>0</asrwt>
<pdfrwt beam="2">  1        1 0.40992851E+00 0.64058022E+01</pdfrwt>
<pdfrwt beam="1">  1       -1 0.44120793E+00 0.64058022E+01</pdfrwt>
<totfact> 0.23935045E-02</totfact>
</mgrwt>
</event>
<event>
 4    1  0.4367748E-004  0.6734540E+01  0.7818608E-02  0.2328618E+00
         -1   -1    0    0    0  501 -0.00000000000E+00  0.00000000000E+00  0.88032055947E+02  0.88032056091E+02  0.50400000000E-02 0.  1.
          1   -1    0    0  501    0  0.00000000000E+00 -0.00000000000E+00 -0.12875031350E+00  0.12884892248E+00  0.50400000000E-02 0. -1.
         31    1    1    2    0    0  0.80968127725E+00 -0.91743349911E+00  0.26152227139E+02  0.26333035381E+02  0.28271010000E+01 0. -1.
        -31    1    1    2    0    0 -0.80968127725E+00  0.91743349911E+00  0.61751078494E+02  0.61827869632E+02  0.28271010000E+01 0.  1.
<mgrwt>
<rscale>  0 0.67345402E+01</rscale>
<asrwt>0</asrwt>
<pdfrwt beam="2">  1        1 0.27422499E+00 0.67345402E+01</pdfrwt>
<pdfrwt beam="1">  1       -1 0.72897605E+00 0.67345402E+01</pdfrwt>
<totfact> 0.36151239E-03</totfact>
</mgrwt>
</event>
<event>
 4    1  0.4367748E-004  0.6289802E+01  0.7818608E-02  0.2379165E+00
          1   -1    0    0  501    0  0.00000000000E+00  0.00000000000E+00  0.83732830419E+02  0.83732830571E+02  0.50400000000E-02 0. -1.
         -1   -1    0    0    0  501 -0.00000000000E+00 -0.00000000000E+00 -0.11806466877E+00  0.11817219475E+00  0.50400000000E-02 0.  1.
         31    1    1    2    0    0  0.85088407056E-01  0.13238163114E+01  0.36851924902E+02  0.36984004633E+02  0.28271010000E+01 0.  1.
        -31    1    1    2    0    0 -0.85088407056E-01 -0.13238163114E+01  0.46762840848E+02  0.46866998132E+02  0.28271010000E+01 0.  1.
<mgrwt>
<rscale>  0 0.62898023E+01</rscale>
<asrwt>0</asrwt>
<pdfrwt beam="1">  1        1 0.69333876E+00 0.62898023E+01</pdfrwt>
<pdfrwt beam="2">  1       -1 0.25149705E+00 0.62898023E+01</pdfrwt>
<totfact> 0.16230913E-02</totfact>
</mgrwt>
</event>
<event>
 4    1  0.4367748E-004  0.5926228E+01  0.7818608E-02  0.2425125E+00
          1   -1    0    0  501    0  0.00000000000E+00  0.00000000000E+00  0.50382403875E+02  0.50382404127E+02  0.50400000000E-02 0. -1.
         -1   -1    0    0    0  501 -0.00000000000E+00 -0.00000000000E+00 -0.17423140717E+00  0.17430428808E+00  0.50400000000E-02 0.  1.
         31    1    1    2    0    0 -0.26908705996E+00 -0.19825538045E+00  0.18090825190E+02  0.18313442308E+02  0.28271010000E+01 0.  1.
        -31    1    1    2    0    0  0.26908705996E+00  0.19825538045E+00  0.32117347278E+02  0.32243266108E+02  0.28271010000E+01 0. -1.
<mgrwt>
<rscale>  0 0.59262284E+01</rscale>
<asrwt>0</asrwt>
<pdfrwt beam="1">  1        1 0.41803824E+00 0.59262284E+01</pdfrwt>
<pdfrwt beam="2">  1       -1 0.37029270E+00 0.59262284E+01</pdfrwt>
<totfact> 0.62295330E-02</totfact>
</mgrwt>
</event>
<event>
 4    1  0.4367748E-004  0.6399899E+01  0.7818608E-02  0.2366111E+00
         -1   -1    0    0    0  501 -0.00000000000E+00  0.00000000000E+00  0.56777185228E+02  0.56777185451E+02  0.50400000000E-02 0.  1.
          1   -1    0    0  501    0  0.00000000000E+00 -0.00000000000E+00 -0.18031299514E+00  0.18038341890E+00  0.50400000000E-02 0. -1.
         31    1    1    2    0    0  0.47181305229E+00  0.24685808680E+00  0.15827239233E+02  0.16086564216E+02  0.28271010000E+01 0. -1.
        -31    1    1    2    0    0 -0.47181305229E+00 -0.24685808680E+00  0.40769633000E+02  0.40871004655E+02  0.28271010000E+01 0.  1.
<mgrwt>
<rscale>  0 0.63998988E+01</rscale>
<asrwt>0</asrwt>
<pdfrwt beam="2">  1        1 0.38332041E+00 0.63998988E+01</pdfrwt>
<pdfrwt beam="1">  1       -1 0.47096503E+00 0.63998988E+01</pdfrwt>
<totfact> 0.19289970E-02</totfact>
</mgrwt>
</event>
<event>
 4    1  0.4367748E-004  0.6027859E+01  0.7818608E-02  0.2411812E+00
          1   -1    0    0  501    0  0.00000000000E+00  0.00000000000E+00  0.84633036574E+02  0.84633036724E+02  0.50400000000E-02 0.  1.
         -1   -1    0    0    0  501 -0.00000000000E+00 -0.00000000000E+00 -0.10727196385E+00  0.10739029671E+00  0.50400000000E-02 0. -1.
         31    1    1    2    0    0 -0.59919025536E+00 -0.36793969001E+00  0.53123763460E+02  0.53203582143E+02  0.28271010000E+01 0.  1.
        -31    1    1    2    0    0  0.59919025536E+00  0.36793969001E+00  0.31402001150E+02  0.31536844878E+02  0.28271010000E+01 0. -1.
<mgrwt>
<rscale>  0 0.60278594E+01</rscale>
<asrwt>0</asrwt>
<pdfrwt beam="1">  1        1 0.70069314E+00 0.60278594E+01</pdfrwt>
<pdfrwt beam="2">  1       -1 0.22856132E+00 0.60278594E+01</pdfrwt>
<totfact> 0.20317085E-02</totfact>
</mgrwt>
</event>
<event>
 4    1  0.4367748E-004  0.6488534E+01  0.7818608E-02  0.2355869E+00
         -1   -1    0    0    0  501 -0.00000000000E+00  0.00000000000E+00  0.48688930857E+02  0.48688931118E+02  0.50400000000E-02 0.  1.
          1   -1    0    0  501    0  0.00000000000E+00 -0.00000000000E+00 -0.21614412487E+00  0.21620287768E+00  0.50400000000E-02 0. -1.
         31    1    1    2    0    0  0.13331399561E+01  0.72140621435E+00  0.27890792017E+02  0.28074658831E+02  0.28271010000E+01 0. -1.
        -31    1    1    2    0    0 -0.13331399561E+01 -0.72140621435E+00  0.20581994715E+02  0.20830475165E+02  0.28271010000E+01 0. -1.
<mgrwt>
<rscale>  0 0.64885343E+01</rscale>
<asrwt>0</asrwt>
<pdfrwt beam="2">  1        1 0.45888718E+00 0.64885343E+01</pdfrwt>
<pdfrwt beam="1">  1       -1 0.40438187E+00 0.64885343E+01</pdfrwt>
<totfact> 0.26116755E-02</totfact>
</mgrwt>
</event>
<event>
 4    1  0.4367748E-004  0.5993451E+01  0.7818608E-02  0.2416277E+00
         -1   -1    0    0    0  501 -0.00000000000E+00  0.00000000000E+00  0.40629270989E+02  0.40629271302E+02  0.50400000000E-02 0.  1.
          1   -1    0    0  501    0  0.00000000000E+00 -0.00000000000E+00 -0.22100279669E+00  0.22106025817E+00  0.50400000000E-02 0. -1.
         31    1    1    2    0    0 -0.97191457291E+00  0.11200807667E+00  0.19009928778E+02  0.19243883599E+02  0.28271010000E+01 0. -1.
        -31    1    1    2    0    0  0.97191457291E+00 -0.11200807667E+00  0.21398339415E+02  0.21606447962E+02  0.28271010000E+01 0.  1.
<mgrwt>
<rscale>  0 0.59934506E+01</rscale>
<asrwt>0</asrwt>
<pdfrwt beam="2">  1        1 0.46873291E+00 0.59934506E+01</pdfrwt>
<pdfrwt beam="1">  1       -1 0.33777912E+00 0.59934506E+01</pdfrwt>
<totfact> 0.60425425E-02</totfact>
</mgrwt>
</event>
<event>
 4    1  0.4367748E-004  0.7126208E+01  0.7818608E-02  0.2288455E+00
          1   -1    0    0  501    0  0.00000000000E+00  0.00000000000E+00  0.57542833885E+02  0.57542834105E+02  0.50400000000E-02 0.  1.
         -1   -1    0    0    0  501 -0.00000000000E+00 -0.00000000000E+00 -0.22060159812E+00  0.22065916408E+00  0.50400000000E-02 0. -1.
         31    1    1    2    0    0 -0.12224088633E+01 -0.48599795301E-01  0.14146185786E+02  0.14477697252E+02  0.28271010000E+01 0. -1.
        -31    1    1    2    0    0  0.12224088633E+01  0.48599795301E-01  0.43176046500E+02  0.43285796017E+02  0.28271010000E+01 0.  1.
<mgrwt>
<rscale>  0 0.71262080E+01</rscale>
<asrwt>0</asrwt>
<pdfrwt beam="1">  1        1 0.47762898E+00 0.71262080E+01</pdfrwt>
<pdfrwt beam="2">  1       -1 0.46863067E+00 0.71262080E+01</pdfrwt>
<totfact> 0.82150690E-03</totfact>
</mgrwt>
</event>
<event>
 4    1  0.4367748E-004  0.5839986E+01  0.7818608E-02  0.2436727E+00
         -1   -1    0    0    0  501 -0.00000000000E+00  0.00000000000E+00  0.35431732403E+02  0.35431732761E+02  0.50400000000E-02 0. -1.
          1   -1    0    0  501    0  0.00000000000E+00 -0.00000000000E+00 -0.24061511126E+00  0.24066789019E+00  0.50400000000E-02 0.  1.
         31    1    1    2    0    0 -0.33942046575E+00  0.55053534356E-01  0.21533499541E+02  0.21721011479E+02  0.28271010000E+01 0. -1.
        -31    1    1    2    0    0  0.33942046575E+00 -0.55053534356E-01  0.13657617751E+02  0.13951389172E+02  0.28271010000E+01 0.  1.
<mgrwt>
<rscale>  0 0.58399856E+01</rscale>
<asrwt>0</asrwt>
<pdfrwt beam="2">  1        1 0.50963399E+00 0.58399856E+01</pdfrwt>
<pdfrwt beam="1">  1       -1 0.29496437E+00 0.58399856E+01</pdfrwt>
<totfact> 0.72037350E-02</totfact>
</mgrwt>
</event>
<event>
 4    1  0.4367748E-004  0.5726446E+01  0.7818608E-02  0.2452447E+00
          1   -1    0    0  501    0  0.00000000000E+00  0.00000000000E+00  0.54745401494E+02  0.54745401726E+02  0.50400000000E-02 0. -1.
         -1   -1    0    0    0  501 -0.00000000000E+00 -0.00000000000E+00 -0.14970595239E+00  0.14979076667E+00  0.50400000000E-02 0.  1.
         31    1    1    2    0    0  0.13740916772E-01  0.32393761354E+00  0.30335683361E+02  0.30468858026E+02  0.28271010000E+01 0. -1.
        -31    1    1    2    0    0 -0.13740916772E-01 -0.32393761354E+00  0.24260012181E+02  0.24426334466E+02  0.28271010000E+01 0.  1.
<mgrwt>
<rscale>  0 0.57264463E+01</rscale>
<asrwt>0</asrwt>
<pdfrwt beam="1">  1        1 0.45391186E+00 0.57264463E+01</pdfrwt>
<pdfrwt beam="2">  1       -1 0.31842213E+00 0.57264463E+01</pdfrwt>
<totfact> 0.90240111E-02</totfact>
</mgrwt>
</event>
<event>
 4    1  0.4367748E-004  0.5975270E+01  0.7818608E-02  0.2418653E+00
          1   -1    0    0  501    0  0.00000000000E+00  0.00000000000E+00  0.72031678290E+02  0.72031678466E+02  0.50400000000E-02 0.  1.
         -1   -1    0    0    0  501 -0.00000000000E+00 -0.00000000000E+00 -0.12386575515E+00  0.12396824956E+00  0.50400000000E-02 0. -1.
         31    1    1    2    0    0  0.60688356158E+00 -0.47232645734E+00  0.43016519825E+02  0.43116178841E+02  0.28271010000E+01 0.  1.
        -31    1    1    2    0    0 -0.60688356158E+00  0.47232645734E+00  0.28891292709E+02  0.29039467874E+02  0.28271010000E+01 0. -1.
<mgrwt>
<rscale>  0 0.59752698E+01</rscale>
<asrwt>0</asrwt>
<pdfrwt beam="1">  1        1 0.59663337E+00 0.59752698E+01</pdfrwt>
<pdfrwt beam="2">  1       -1 0.26376179E+00 0.59752698E+01</pdfrwt>
<totfact> 0.44114815E-02</totfact>
</mgrwt>
</event>
<event>
 4    1  0.4367748E-004  0.5964010E+01  0.7818608E-02  0.2420131E+00
          1   -1    0    0  501    0  0.00000000000E+00  0.00000000000E+00  0.70115422017E+02  0.70115422199E+02  0.50400000000E-02 0. -1.
         -1   -1    0    0    0  501 -0.00000000000E+00 -0.00000000000E+00 -0.12677426131E+00  0.12687440613E+00  0.50400000000E-02 0.  1.
         31    1    1    2    0    0 -0.51518666612E+00  0.74681984418E+00  0.38256068348E+02  0.38371114431E+02  0.28271010000E+01 0. -1.
        -31    1    1    2    0    0  0.51518666612E+00 -0.74681984418E+00  0.31732579408E+02  0.31871182174E+02  0.28271010000E+01 0.  1.
<mgrwt>
<rscale>  0 0.59640102E+01</rscale>
<asrwt>0</asrwt>
<pdfrwt beam="1">  1        1 0.58081245E+00 0.59640102E+01</pdfrwt>
<pdfrwt beam="2">  1       -1 0.26992631E+00 0.59640102E+01</pdfrwt>
<totfact> 0.48254253E-02</totfact>
</mgrwt>
</event>
<event>
 4    1  0.4367748E-004  0.6816440E+01  0.7818608E-02  0.2319907E+00
         -1   -1    0    0    0  501 -0.00000000000E+00  0.00000000000E+00  0.51618167026E+02  0.51618167272E+02  0.50400000000E-02 0. -1.
          1   -1    0    0  501    0  0.00000000000E+00 -0.00000000000E+00 -0.22500790365E+00  0.22506434259E+00  0.50400000000E-02 0.  1.
         31    1    1    2    0    0  0.74870702642E+00 -0.84340249013E+00  0.14033484107E+02  0.14359772499E+02  0.28271010000E+01 0. -1.
        -31    1    1    2    0    0 -0.74870702642E+00  0.84340249013E+00  0.37359675015E+02  0.37483459116E+02  0.28271010000E+01 0. -1.
<mgrwt>
<rscale>  0 0.68164404E+01</rscale>
<asrwt>0</asrwt>
<pdfrwt beam="2">  1        1 0.47773866E+00 0.68164404E+01</pdfrwt>
<pdfrwt beam="1">  1       -1 0.42867611E+00 0.68164404E+01</pdfrwt>
<totfact> 0.15189818E-02</totfact>
</mgrwt>
</event>
<event>
 4    1  0.4367748E-004  0.7001214E+01  0.7818608E-02  0.2300871E+00
         -1   -1    0    0    0  501 -0.00000000000E+00  0.00000000000E+00  0.48482130295E+02  0.48482130557E+02  0.50400000000E-02 0. -1.
          1   -1    0    0  501    0  0.00000000000E+00 -0.00000000000E+00 -0.25273267910E+00  0.25278292799E+00  0.50400000000E-02 0.  1.
         31    1    1    2    0    0 -0.68432070830E+00 -0.19062130618E+01  0.21332014867E+02  0.21613636932E+02  0.28271010000E+01 0. -1.
        -31    1    1    2    0    0  0.68432070830E+00  0.19062130618E+01  0.26897382748E+02  0.27121276553E+02  0.28271010000E+01 0. -1.
<mgrwt>
<rscale>  0 0.70012140E+01</rscale>
<asrwt>0</asrwt>
<pdfrwt beam="2">  1        1 0.53613440E+00 0.70012140E+01</pdfrwt>
<pdfrwt beam="1">  1       -1 0.40297436E+00 0.70012140E+01</pdfrwt>
<totfact> 0.12355075E-02</totfact>
</mgrwt>
</event>
<event>
 4    1  0.4367748E-004  0.7048552E+01  0.7818608E-02  0.2296127E+00
         -1   -1    0    0    0  501 -0.00000000000E+00  0.00000000000E+00  0.48015084279E+02  0.48015084543E+02  0.50400000000E-02 0.  1.
          1   -1    0    0  501    0  0.00000000000E+00 -0.00000000000E+00 -0.25865475238E+00  0.25870385102E+00  0.50400000000E-02 0. -1.
         31    1    1    2    0    0 -0.16068826601E+00 -0.20634904029E+01  0.21277421546E+02  0.21563974149E+02  0.28271010000E+01 0. -1.
        -31    1    1    2    0    0  0.16068826601E+00  0.20634904029E+01  0.26479007980E+02  0.26709814246E+02  0.28271010000E+01 0. -1.
<mgrwt>
<rscale>  0 0.70485520E+01</rscale>
<asrwt>0</asrwt>
<pdfrwt beam="2">  1        1 0.54859974E+00 0.70485520E+01</pdfrwt>
<pdfrwt beam="1">  1       -1 0.39916146E+00 0.70485520E+01</pdfrwt>
<totfact> 0.11465266E-02</totfact>
</mgrwt>
</event>
<event>
 4    1  0.4367748E-004  0.5976759E+01  0.7818608E-02  0.2418458E+00
          1   -1    0    0  501    0  0.00000000000E+00  0.00000000000E+00  0.96897215322E+02  0.96897215454E+02  0.50400000000E-02 0. -1.
         -1   -1    0    0    0  501 -0.00000000000E+00 -0.00000000000E+00 -0.92094736431E-01  0.92232543488E-01  0.50400000000E-02 0.  1.
         31    1    1    2    0    0 -0.44872078641E+00 -0.80479768659E+00  0.43565078664E+02  0.43666435952E+02  0.28271010000E+01 0.  1.
        -31    1    1    2    0    0  0.44872078641E+00  0.80479768659E+00  0.53240041922E+02  0.53323012045E+02  0.28271010000E+01 0.  1.
<mgrwt>
<rscale>  0 0.59767592E+01</rscale>
<asrwt>0</asrwt>
<pdfrwt beam="1">  1        1 0.80197662E+00 0.59767592E+01</pdfrwt>
<pdfrwt beam="2">  1       -1 0.19632437E+00 0.59767592E+01</pdfrwt>
<totfact> 0.67407299E-03</totfact>
</mgrwt>
</event>
<event>
 4    1  0.4367748E-004  0.7352293E+01  0.7818608E-02  0.2266878E+00
         -1   -1    0    0    0  501 -0.00000000000E+00  0.00000000000E+00  0.42193687267E+02  0.42193687568E+02  0.50400000000E-02 0. -1.
          1   -1    0    0  501    0  0.00000000000E+00 -0.00000000000E+00 -0.32026599766E+00  0.32030565224E+00  0.50400000000E-02 0.  1.
         31    1    1    2    0    0  0.47219647930E+00  0.35619298835E+00  0.77866980876E+01  0.83051195134E+01  0.28271010000E+01 0.  1.
        -31    1    1    2    0    0 -0.47219647930E+00 -0.35619298835E+00  0.34086723181E+02  0.34208873707E+02  0.28271010000E+01 0. -1.
<mgrwt>
<rscale>  0 0.73522929E+01</rscale>
<asrwt>0</asrwt>
<pdfrwt beam="2">  1        1 0.67776770E+00 0.73522929E+01</pdfrwt>
<pdfrwt beam="1">  1       -1 0.35153544E+00 0.73522929E+01</pdfrwt>
<totfact> 0.50456228E-03</totfact>
</mgrwt>
</event>
<event>
 4    1  0.4367748E-004  0.6059721E+01  0.7818608E-02  0.2407715E+00
          1   -1    0    0  501    0  0.00000000000E+00  0.00000000000E+00  0.28972074887E+02  0.28972075326E+02  0.50400000000E-02 0. -1.
         -1   -1    0    0    0  501 -0.00000000000E+00 -0.00000000000E+00 -0.31683828963E+00  0.31687837316E+00  0.50400000000E-02 0.  1.
         31    1    1    2    0    0  0.88384334713E+00  0.48077077200E+00  0.12304303892E+02  0.12664940345E+02  0.28271010000E+01 0. -1.
        -31    1    1    2    0    0 -0.88384334713E+00 -0.48077077200E+00  0.16350932705E+02  0.16624013354E+02  0.28271010000E+01 0. -1.
<mgrwt>
<rscale>  0 0.60597215E+01</rscale>
<asrwt>0</asrwt>
<pdfrwt beam="1">  1        1 0.24218156E+00 0.60597215E+01</pdfrwt>
<pdfrwt beam="2">  1       -1 0.66829565E+00 0.60597215E+01</pdfrwt>
<totfact> 0.62620898E-03</totfact>
</mgrwt>
</event>
<event>
 4    1  0.4367748E-004  0.6066065E+01  0.7818608E-02  0.2406904E+00
          1   -1    0    0  501    0  0.00000000000E+00  0.00000000000E+00  0.66833131018E+02  0.66833131208E+02  0.50400000000E-02 0. -1.
         -1   -1    0    0    0  501 -0.00000000000E+00 -0.00000000000E+00 -0.13759926521E+00  0.13769153709E+00  0.50400000000E-02 0.  1.
         31    1    1    2    0    0  0.17185204950E+00  0.94176668230E+00  0.27399050795E+02  0.27561149144E+02  0.28271010000E+01 0.  1.
        -31    1    1    2    0    0 -0.17185204950E+00 -0.94176668230E+00  0.39296480957E+02  0.39409673600E+02  0.28271010000E+01 0.  1.
<mgrwt>
<rscale>  0 0.60660649E+01</rscale>
<asrwt>0</asrwt>
<pdfrwt beam="1">  1        1 0.55376162E+00 0.60660649E+01</pdfrwt>
<pdfrwt beam="2">  1       -1 0.29288399E+00 0.60660649E+01</pdfrwt>
<totfact> 0.47234355E-02</totfact>
</mgrwt>
</event>
<event>
 4    1  0.4367748E-004  0.7322076E+01  0.7818608E-02  0.2269699E+00
         -1   -1    0    0    0  501 -0.00000000000E+00  0.00000000000E+00  0.59708568082E+02  0.59708568295E+02  0.50400000000E-02 0. -1.
          1   -1    0    0  501    0  0.00000000000E+00 -0.00000000000E+00 -0.22444848834E+00  0.22450506791E+00  0.50400000000E-02 0.  1.
         31    1    1    2    0    0  0.17099945795E+01  0.20473059303E-01  0.16835804365E+02  0.17156960957E+02  0.28271010000E+01 0. -1.
        -31    1    1    2    0    0 -0.17099945795E+01 -0.20473059303E-01  0.42648315229E+02  0.42776112406E+02  0.28271010000E+01 0.  1.
<mgrwt>
<rscale>  0 0.73220761E+01</rscale>
<asrwt>0</asrwt>
<pdfrwt beam="2">  1        1 0.47683607E+00 0.73220761E+01</pdfrwt>
<pdfrwt beam="1">  1       -1 0.49556858E+00 0.73220761E+01</pdfrwt>
<totfact> 0.53993246E-03</totfact>
</mgrwt>
</event>
<event>
 4    1  0.4367748E-004  0.6040157E+01  0.7818608E-02  0.2410226E+00
         -1   -1    0    0    0  501 -0.00000000000E+00  0.00000000000E+00  0.42379372572E+02  0.42379372872E+02  0.50400000000E-02 0. -1.
          1   -1    0    0  501    0  0.00000000000E+00 -0.00000000000E+00 -0.21518983719E+00  0.21524885047E+00  0.50400000000E-02 0.  1.
         31    1    1    2    0    0 -0.77785691239E+00 -0.72027023126E+00  0.21556346814E+02  0.21766773730E+02  0.28271010000E+01 0. -1.
        -31    1    1    2    0    0  0.77785691239E+00  0.72027023126E+00  0.20607835921E+02  0.20827847992E+02  0.28271010000E+01 0. -1.
<mgrwt>
<rscale>  0 0.60401568E+01</rscale>
<asrwt>0</asrwt>
<pdfrwt beam="2">  1        1 0.45657153E+00 0.60401568E+01</pdfrwt>
<pdfrwt beam="1">  1       -1 0.35220213E+00 0.60401568E+01</pdfrwt>
<totfact> 0.55759305E-02</totfact>
</mgrwt>
</event>
<event>
 4    1  0.4367748E-004  0.5932794E+01  0.7818608E-02  0.2424253E+00
         -1   -1    0    0    0  501 -0.00000000000E+00  0.00000000000E+00  0.45424265820E+02  0.45424266100E+02  0.50400000000E-02 0.  1.
          1   -1    0    0  501    0  0.00000000000E+00 -0.00000000000E+00 -0.19368520316E+00  0.19375076651E+00  0.50400000000E-02 0. -1.
         31    1    1    2    0    0  0.41717604851E+00  0.79411832684E+00  0.22988044855E+02  0.23178597155E+02  0.28271010000E+01 0. -1.
        -31    1    1    2    0    0 -0.41717604851E+00 -0.79411832684E+00  0.22242535762E+02  0.22439419711E+02  0.28271010000E+01 0.  1.
<mgrwt>
<rscale>  0 0.59327936E+01</rscale>
<asrwt>0</asrwt>
<pdfrwt beam="2">  1        1 0.41129104E+00 0.59327936E+01</pdfrwt>
<pdfrwt beam="1">  1       -1 0.37720168E+00 0.59327936E+01</pdfrwt>
<totfact> 0.60192962E-02</totfact>
</mgrwt>
</event>
<event>
 4    1  0.4367748E-004  0.6147033E+01  0.7818608E-02  0.2396671E+00
          1   -1    0    0  501    0  0.00000000000E+00  0.00000000000E+00  0.75400773540E+02  0.75400773709E+02  0.50400000000E-02 0. -1.
         -1   -1    0    0    0  501 -0.00000000000E+00 -0.00000000000E+00 -0.12523304137E+00  0.12533441766E+00  0.50400000000E-02 0.  1.
         31    1    1    2    0    0  0.10336436792E+01  0.21482693189E-01  0.45262610455E+02  0.45362597876E+02  0.28271010000E+01 0. -1.
        -31    1    1    2    0    0 -0.10336436792E+01 -0.21482693189E-01  0.30012930044E+02  0.30163510251E+02  0.28271010000E+01 0.  1.
<mgrwt>
<rscale>  0 0.61470327E+01</rscale>
<asrwt>0</asrwt>
<pdfrwt beam="1">  1        1 0.62450270E+00 0.61470327E+01</pdfrwt>
<pdfrwt beam="2">  1       -1 0.26668655E+00 0.61470327E+01</pdfrwt>
<totfact> 0.30901173E-02</totfact>
</mgrwt>
</event>
<event>
 4    1  0.4367748E-004  0.6220411E+01  0.7818608E-02  0.2387590E+00
          1   -1    0    0  501    0  0.00000000000E+00  0.00000000000E+00  0.48373664087E+02  0.48373664349E+02  0.50400000000E-02 0.  1.
         -1   -1    0    0    0  501 -0.00000000000E+00 -0.00000000000E+00 -0.19993994828E+00  0.20000346126E+00  0.50400000000E-02 0. -1.
         31    1    1    2    0    0 -0.11164865403E+01  0.43425773127E+00  0.20215776036E+02  0.20447621446E+02  0.28271010000E+01 0.  1.
        -31    1    1    2    0    0  0.11164865403E+01 -0.43425773127E+00  0.27957948102E+02  0.28126046365E+02  0.28271010000E+01 0. -1.
<mgrwt>
<rscale>  0 0.62204105E+01</rscale>
<asrwt>0</asrwt>
<pdfrwt beam="1">  1        1 0.40164107E+00 0.62204105E+01</pdfrwt>
<pdfrwt beam="2">  1       -1 0.42462383E+00 0.62204105E+01</pdfrwt>
<totfact> 0.33170065E-02</totfact>
</mgrwt>
</event>
<event>
 4    1  0.4367748E-004  0.6194444E+01  0.7818608E-02  0.2390783E+00
          1   -1    0    0  501    0  0.00000000000E+00  0.00000000000E+00  0.66943368304E+02  0.66943368494E+02  0.50400000000E-02 0. -1.
         -1   -1    0    0    0  501 -0.00000000000E+00 -0.00000000000E+00 -0.14325247811E+00  0.14334111094E+00  0.50400000000E-02 0.  1.
         31    1    1    2    0    0  0.69547078025E+00 -0.84179716538E+00  0.40317634609E+02  0.40431379678E+02  0.28271010000E+01 0. -1.
        -31    1    1    2    0    0 -0.69547078025E+00  0.84179716538E+00  0.26482481217E+02  0.26655329927E+02  0.28271010000E+01 0.  1.
<mgrwt>
<rscale>  0 0.61944436E+01</rscale>
<asrwt>0</asrwt>
<pdfrwt beam="1">  1        1 0.55471985E+00 0.61944436E+01</pdfrwt>
<pdfrwt beam="2">  1       -1 0.30488445E+00 0.61944436E+01</pdfrwt>
<totfact> 0.39791315E-02</totfact>
</mgrwt>
</event>
<event>
 4    1  0.4367748E-004  0.5869959E+01  0.7818608E-02  0.2432662E+00
         -1   -1    0    0    0  501 -0.00000000000E+00  0.00000000000E+00  0.53867411831E+02  0.53867412067E+02  0.50400000000E-02 0.  1.
          1   -1    0    0  501    0  0.00000000000E+00 -0.00000000000E+00 -0.15987313500E+00  0.15995255827E+00  0.50400000000E-02 0. -1.
         31    1    1    2    0    0 -0.10718798768E+00  0.58039815746E+00  0.31665051613E+02  0.31796483217E+02  0.28271010000E+01 0.  1.
        -31    1    1    2    0    0  0.10718798768E+00 -0.58039815746E+00  0.22042487083E+02  0.22230881408E+02  0.28271010000E+01 0. -1.
<mgrwt>
<rscale>  0 0.58699587E+01</rscale>
<asrwt>0</asrwt>
<pdfrwt beam="2">  1        1 0.33995660E+00 0.58699587E+01</pdfrwt>
<pdfrwt beam="1">  1       -1 0.44673605E+00 0.58699587E+01</pdfrwt>
<totfact> 0.41466587E-02</totfact>
</mgrwt>
</event>
<event>
 4    1  0.4367748E-004  0.6343646E+01  0.7818608E-02  0.2372734E+00
          1   -1    0    0  501    0  0.00000000000E+00  0.00000000000E+00  0.76741705882E+02  0.76741706047E+02  0.50400000000E-02 0. -1.
         -1   -1    0    0    0  501 -0.00000000000E+00 -0.00000000000E+00 -0.13104646731E+00  0.13114334979E+00  0.50400000000E-02 0.  1.
         31    1    1    2    0    0 -0.12531099743E+01  0.38469069933E+00  0.45471290858E+02  0.45577944928E+02  0.28271010000E+01 0.  1.
        -31    1    1    2    0    0  0.12531099743E+01 -0.38469069933E+00  0.31139368557E+02  0.31294904469E+02  0.28271010000E+01 0.  1.
<mgrwt>
<rscale>  0 0.63436455E+01</rscale>
<asrwt>0</asrwt>
<pdfrwt beam="1">  1        1 0.63563850E+00 0.63436455E+01</pdfrwt>
<pdfrwt beam="2">  1       -1 0.27904356E+00 0.63436455E+01</pdfrwt>
<totfact> 0.22912811E-02</totfact>
</mgrwt>
</event>
<event>
 4    1  0.4367748E-004  0.6679198E+01  0.7818608E-02  0.2334604E+00
          1   -1    0    0  501    0  0.00000000000E+00  0.00000000000E+00  0.56679287616E+02  0.56679287840E+02  0.50400000000E-02 0. -1.
         -1   -1    0    0    0  501 -0.00000000000E+00 -0.00000000000E+00 -0.19673993209E+00  0.19680447780E+00  0.50400000000E-02 0.  1.
         31    1    1    2    0    0  0.11712019776E+01  0.90814207591E+00  0.36601933938E+02  0.36740856062E+02  0.28271010000E+01 0.  1.
        -31    1    1    2    0    0 -0.11712019776E+01 -0.90814207591E+00  0.19880613746E+02  0.20135236256E+02  0.28271010000E+01 0.  1.
<mgrwt>
<rscale>  0 0.66791979E+01</rscale>
<asrwt>0</asrwt>
<pdfrwt beam="1">  1        1 0.47029133E+00 0.66791979E+01</pdfrwt>
<pdfrwt beam="2">  1       -1 0.41810565E+00 0.66791979E+01</pdfrwt>
<totfact> 0.19124197E-02</totfact>
</mgrwt>
</event>
<event>
 4    1  0.4367748E-004  0.7154860E+01  0.7818608E-02  0.2285659E+00
          1   -1    0    0  501    0  0.00000000000E+00  0.00000000000E+00  0.93480303020E+02  0.93480303156E+02  0.50400000000E-02 0.  1.
         -1   -1    0    0    0  501 -0.00000000000E+00 -0.00000000000E+00 -0.13685938679E+00  0.13695215717E+00  0.50400000000E-02 0. -1.
         31    1    1    2    0    0 -0.34788530338E+00 -0.13764013079E+01  0.68527029934E+02  0.68600013385E+02  0.28271010000E+01 0.  1.
        -31    1    1    2    0    0  0.34788530338E+00  0.13764013079E+01  0.24816413699E+02  0.25017241928E+02  0.28271010000E+01 0. -1.
<mgrwt>
<rscale>  0 0.71548601E+01</rscale>
<asrwt>0</asrwt>
<pdfrwt beam="1">  1        1 0.77409297E+00 0.71548601E+01</pdfrwt>
<pdfrwt beam="2">  1       -1 0.29148322E+00 0.71548601E+01</pdfrwt>
<totfact> 0.28203252E-03</totfact>
</mgrwt>
</event>
<event>
 4    1  0.4367748E-004  0.7371686E+01  0.7818608E-02  0.2265077E+00
         -1   -1    0    0    0  501 -0.00000000000E+00  0.00000000000E+00  0.44921393215E+02  0.44921393498E+02  0.50400000000E-02 0. -1.
          1   -1    0    0  501    0  0.00000000000E+00 -0.00000000000E+00 -0.30240566227E+00  0.30244765857E+00  0.50400000000E-02 0.  1.
         31    1    1    2    0    0 -0.96980573715E-01  0.10868900759E+01  0.94377999417E+01  0.99123813019E+01  0.28271010000E+01 0.  1.
        -31    1    1    2    0    0  0.96980573715E-01 -0.10868900759E+01  0.35181187611E+02  0.35311459855E+02  0.28271010000E+01 0. -1.
<mgrwt>
<rscale>  0 0.73716863E+01</rscale>
<asrwt>0</asrwt>
<pdfrwt beam="2">  1        1 0.64052105E+00 0.73716863E+01</pdfrwt>
<pdfrwt beam="1">  1       -1 0.37394236E+00 0.73716863E+01</pdfrwt>
<totfact> 0.58628570E-03</totfact>
</mgrwt>
</event>
<event>
 4    1  0.4367748E-004  0.5846883E+01  0.7818608E-02  0.2435788E+00
          1   -1    0    0  501    0  0.00000000000E+00  0.00000000000E+00  0.43170725407E+02  0.43170725702E+02  0.50400000000E-02 0.  1.
         -1   -1    0    0    0  501 -0.00000000000E+00 -0.00000000000E+00 -0.19793763553E+00  0.19800179079E+00  0.50400000000E-02 0. -1.
         31    1    1    2    0    0  0.64998273479E+00  0.36266631238E+00  0.21501920650E+02  0.21699748757E+02  0.28271010000E+01 0. -1.
        -31    1    1    2    0    0 -0.64998273479E+00 -0.36266631238E+00  0.21470867122E+02  0.21668978735E+02  0.28271010000E+01 0. -1.
<mgrwt>
<rscale>  0 0.58468825E+01</rscale>
<asrwt>0</asrwt>
<pdfrwt beam="1">  1        1 0.35860298E+00 0.58468825E+01</pdfrwt>
<pdfrwt beam="2">  1       -1 0.42018372E+00 0.58468825E+01</pdfrwt>
<totfact> 0.52292877E-02</totfact>
</mgrwt>
</event>
<event>
 4    1  0.4367748E-004  0.7468844E+01  0.7818608E-02  0.2256172E+00
         -1   -1    0    0    0  501 -0.00000000000E+00  0.00000000000E+00  0.55324651261E+02  0.55324651491E+02  0.50400000000E-02 0. -1.
          1   -1    0    0  501    0  0.00000000000E+00 -0.00000000000E+00 -0.25204861132E+00  0.25209899657E+00  0.50400000000E-02 0.  1.
         31    1    1    2    0    0  0.44294602108E+00 -0.33436270736E+00  0.98560905723E+01  0.10268545225E+02  0.28271010000E+01 0.  1.
        -31    1    1    2    0    0 -0.44294602108E+00  0.33436270736E+00  0.45216512078E+02  0.45308205263E+02  0.28271010000E+01 0. -1.
<mgrwt>
<rscale>  0 0.74688441E+01</rscale>
<asrwt>0</asrwt>
<pdfrwt beam="2">  1        1 0.53503329E+00 0.74688441E+01</pdfrwt>
<pdfrwt beam="1">  1       -1 0.45954746E+00 0.74688441E+01</pdfrwt>
<totfact> 0.53008647E-03</totfact>
</mgrwt>
</event>
<event>
 4    1  0.4367748E-004  0.7830786E+01  0.7818608E-02  0.2224585E+00
         -1   -1    0    0    0  501 -0.00000000000E+00  0.00000000000E+00  0.82117332221E+02  0.82117332376E+02  0.50400000000E-02 0. -1.
          1   -1    0    0  501    0  0.00000000000E+00 -0.00000000000E+00 -0.18665359811E+00  0.18672163047E+00  0.50400000000E-02 0.  1.
         31    1    1    2    0    0 -0.14509354040E+01 -0.15500667641E+01  0.58646060173E+02  0.58752538621E+02  0.28271010000E+01 0. -1.
        -31    1    1    2    0    0  0.14509354040E+01  0.15500667641E+01  0.23284618450E+02  0.23551515385E+02  0.28271010000E+01 0.  1.
<mgrwt>
<rscale>  0 0.78307858E+01</rscale>
<asrwt>0</asrwt>
<pdfrwt beam="2">  1        1 0.39715188E+00 0.78307858E+01</pdfrwt>
<pdfrwt beam="1">  1       -1 0.68054750E+00 0.78307858E+01</pdfrwt>
<totfact> 0.14717339E-03</totfact>
</mgrwt>
</event>
<event>
 4    1  0.4367748E-004  0.7794171E+01  0.7818608E-02  0.2227672E+00
         -1   -1    0    0    0  501 -0.00000000000E+00  0.00000000000E+00  0.70957726975E+02  0.70957727154E+02  0.50400000000E-02 0. -1.
          1   -1    0    0  501    0  0.00000000000E+00 -0.00000000000E+00 -0.21400286540E+00  0.21406220591E+00  0.50400000000E-02 0.  1.
         31    1    1    2    0    0 -0.20655437772E+01 -0.16596688352E+01  0.31565003168E+02  0.31801932281E+02  0.28271010000E+01 0.  1.
        -31    1    1    2    0    0  0.20655437772E+01  0.16596688352E+01  0.39178720941E+02  0.39369857079E+02  0.28271010000E+01 0. -1.
<mgrwt>
<rscale>  0 0.77941709E+01</rscale>
<asrwt>0</asrwt>
<pdfrwt beam="2">  1        1 0.45498715E+00 0.77941709E+01</pdfrwt>
<pdfrwt beam="1">  1       -1 0.58849815E+00 0.77941709E+01</pdfrwt>
<totfact> 0.17104957E-03</totfact>
</mgrwt>
</event>
<event>
 4    1  0.4367748E-004  0.6270514E+01  0.7818608E-02  0.2381492E+00
          1   -1    0    0  501    0  0.00000000000E+00  0.00000000000E+00  0.65510656498E+02  0.65510656692E+02  0.50400000000E-02 0. -1.
         -1   -1    0    0    0  501 -0.00000000000E+00 -0.00000000000E+00 -0.15000688905E+00  0.15009153328E+00  0.50400000000E-02 0.  1.
         31    1    1    2    0    0  0.12007759675E+01 -0.61656087611E+00  0.31384043309E+02  0.31540017196E+02  0.28271010000E+01 0.  1.
        -31    1    1    2    0    0 -0.12007759675E+01  0.61656087611E+00  0.33976606301E+02  0.34120731030E+02  0.28271010000E+01 0. -1.
<mgrwt>
<rscale>  0 0.62705136E+01</rscale>
<asrwt>0</asrwt>
<pdfrwt beam="1">  1        1 0.54292901E+00 0.62705136E+01</pdfrwt>
<pdfrwt beam="2">  1       -1 0.31920344E+00 0.62705136E+01</pdfrwt>
<totfact> 0.37102933E-02</totfact>
</mgrwt>
</event>
<event>
 4    1  0.4367748E-004  0.5916475E+01  0.7818608E-02  0.2426423E+00
         -1   -1    0    0    0  501 -0.00000000000E+00  0.00000000000E+00  0.40945218433E+02  0.40945218743E+02  0.50400000000E-02 0.  1.
          1   -1    0    0  501    0  0.00000000000E+00 -0.00000000000E+00 -0.21369871899E+00  0.21375814393E+00  0.50400000000E-02 0. -1.
         31    1    1    2    0    0  0.16346698044E+00 -0.62861627986E+00  0.16328551419E+02  0.16584208495E+02  0.28271010000E+01 0. -1.
        -31    1    1    2    0    0 -0.16346698044E+00  0.62861627986E+00  0.24402968295E+02  0.24574768393E+02  0.28271010000E+01 0.  1.
<mgrwt>
<rscale>  0 0.59164753E+01</rscale>
<asrwt>0</asrwt>
<pdfrwt beam="2">  1        1 0.45334487E+00 0.59164753E+01</pdfrwt>
<pdfrwt beam="1">  1       -1 0.34033122E+00 0.59164753E+01</pdfrwt>
<totfact> 0.67578607E-02</totfact>
</mgrwt>
</event>
<event>
 4    1  0.4367748E-004  0.6124473E+01  0.7818608E-02  0.2399499E+00
          1   -1    0    0  501    0  0.00000000000E+00  0.00000000000E+00  0.57588224577E+02  0.57588224798E+02  0.50400000000E-02 0. -1.
         -1   -1    0    0    0  501 -0.00000000000E+00 -0.00000000000E+00 -0.16279430064E+00  0.16287229943E+00  0.50400000000E-02 0.  1.
         31    1    1    2    0    0 -0.47761562695E+00  0.17606444578E+00  0.18708141912E+02  0.18927392563E+02  0.28271010000E+01 0.  1.
        -31    1    1    2    0    0  0.47761562695E+00 -0.17606444578E+00  0.38717288364E+02  0.38823704534E+02  0.28271010000E+01 0. -1.
<mgrwt>
<rscale>  0 0.61244733E+01</rscale>
<asrwt>0</asrwt>
<pdfrwt beam="1">  1        1 0.47752648E+00 0.61244733E+01</pdfrwt>
<pdfrwt beam="2">  1       -1 0.34621384E+00 0.61244733E+01</pdfrwt>
<totfact> 0.49500287E-02</totfact>
</mgrwt>
</event>
<event>
 4    1  0.4367748E-004  0.6683701E+01  0.7818608E-02  0.2334114E+00
          1   -1    0    0  501    0  0.00000000000E+00  0.00000000000E+00  0.62731605077E+02  0.62731605279E+02  0.50400000000E-02 0.  1.
         -1   -1    0    0    0  501 -0.00000000000E+00 -0.00000000000E+00 -0.17799183085E+00  0.17806317264E+00  0.50400000000E-02 0. -1.
         31    1    1    2    0    0 -0.42165304541E+00 -0.13544702512E+01  0.21125879949E+02  0.21361359616E+02  0.28271010000E+01 0. -1.
        -31    1    1    2    0    0  0.42165304541E+00  0.13544702512E+01  0.41427733297E+02  0.41548308836E+02  0.28271010000E+01 0.  1.
<mgrwt>
<rscale>  0 0.66837007E+01</rscale>
<asrwt>0</asrwt>
<pdfrwt beam="1">  1        1 0.52018115E+00 0.66837007E+01</pdfrwt>
<pdfrwt beam="2">  1       -1 0.37851557E+00 0.66837007E+01</pdfrwt>
<totfact> 0.20688908E-02</totfact>
</mgrwt>
</event>
<event>
 4    1  0.4367748E-004  0.7385517E+01  0.7818608E-02  0.2263798E+00
          1   -1    0    0  501    0  0.00000000000E+00  0.00000000000E+00  0.64580181664E+02  0.64580181861E+02  0.50400000000E-02 0. -1.
         -1   -1    0    0    0  501 -0.00000000000E+00 -0.00000000000E+00 -0.21112529005E+00  0.21118543912E+00  0.50400000000E-02 0.  1.
         31    1    1    2    0    0  0.17661990250E+01 -0.66110285693E+00  0.19509639954E+02  0.19803410494E+02  0.28271010000E+01 0.  1.
        -31    1    1    2    0    0 -0.17661990250E+01  0.66110285693E+00  0.44859416420E+02  0.44987956806E+02  0.28271010000E+01 0. -1.
<mgrwt>
<rscale>  0 0.73855168E+01</rscale>
<asrwt>0</asrwt>
<pdfrwt beam="1">  1        1 0.53574036E+00 0.73855168E+01</pdfrwt>
<pdfrwt beam="2">  1       -1 0.44875758E+00 0.73855168E+01</pdfrwt>
<totfact> 0.62254603E-03</totfact>
</mgrwt>
</event>
<event>
 4    1  0.4367748E-004  0.7981538E+01  0.7818608E-02  0.2212116E+00
          1   -1    0    0  501    0  0.00000000000E+00  0.00000000000E+00  0.54047825672E+02  0.54047825907E+02  0.50400000000E-02 0. -1.
         -1   -1    0    0    0  501 -0.00000000000E+00 -0.00000000000E+00 -0.29464753890E+00  0.29469064081E+00  0.50400000000E-02 0.  1.
         31    1    1    2    0    0 -0.57831936637E+00  0.18781033754E+01  0.13137509854E+02  0.13581177814E+02  0.28271010000E+01 0.  1.
        -31    1    1    2    0    0  0.57831936637E+00 -0.18781033754E+01  0.40615668279E+02  0.40761338734E+02  0.28271010000E+01 0. -1.
<mgrwt>
<rscale>  0 0.79815378E+01</rscale>
<asrwt>0</asrwt>
<pdfrwt beam="1">  1        1 0.44934195E+00 0.79815378E+01</pdfrwt>
<pdfrwt beam="2">  1       -1 0.62488567E+00 0.79815378E+01</pdfrwt>
<totfact> 0.12588928E-03</totfact>
</mgrwt>
</event>
<event>
 4    1  0.4367748E-004  0.5982909E+01  0.7818608E-02  0.2417653E+00
          1   -1    0    0  501    0  0.00000000000E+00  0.00000000000E+00  0.50603078725E+02  0.50603078976E+02  0.50400000000E-02 0. -1.
         -1   -1    0    0    0  501 -0.00000000000E+00 -0.00000000000E+00 -0.17680684932E+00  0.17687866906E+00  0.50400000000E-02 0.  1.
         31    1    1    2    0    0 -0.70380671227E+00 -0.67842183938E+00  0.24988474524E+02  0.25166882191E+02  0.28271010000E+01 0. -1.
        -31    1    1    2    0    0  0.70380671227E+00  0.67842183938E+00  0.25437797351E+02  0.25613075454E+02  0.28271010000E+01 0.  1.
<mgrwt>
<rscale>  0 0.59829093E+01</rscale>
<asrwt>0</asrwt>
<pdfrwt beam="1">  1        1 0.41988422E+00 0.59829093E+01</pdfrwt>
<pdfrwt beam="2">  1       -1 0.37575058E+00 0.59829093E+01</pdfrwt>
<totfact> 0.56755425E-02</totfact>
</mgrwt>
</event>
<event>
 4    1  0.4367748E-004  0.6572925E+01  0.7818608E-02  0.2346331E+00
         -1   -1    0    0    0  501 -0.00000000000E+00  0.00000000000E+00  0.74065783261E+02  0.74065783433E+02  0.50400000000E-02 0. -1.
          1   -1    0    0  501    0  0.00000000000E+00 -0.00000000000E+00 -0.14578388351E+00  0.14587097823E+00  0.50400000000E-02 0.  1.
         31    1    1    2    0    0 -0.97260788975E+00  0.45528806644E+00  0.22434762771E+02  0.22637675101E+02  0.28271010000E+01 0.  1.
        -31    1    1    2    0    0  0.97260788975E+00 -0.45528806644E+00  0.51485236607E+02  0.51573979310E+02  0.28271010000E+01 0. -1.
<mgrwt>
<rscale>  0 0.65729250E+01</rscale>
<asrwt>0</asrwt>
<pdfrwt beam="2">  1        1 0.31032188E+00 0.65729250E+01</pdfrwt>
<pdfrwt beam="1">  1       -1 0.61363388E+00 0.65729250E+01</pdfrwt>
<totfact> 0.49515411E-03</totfact>
</mgrwt>
</event>
<event>
 4    1  0.4367748E-004  0.5980777E+01  0.7818608E-02  0.2417932E+00
         -1   -1    0    0    0  501 -0.00000000000E+00  0.00000000000E+00  0.26764327960E+02  0.26764328435E+02  0.50400000000E-02 0.  1.
          1   -1    0    0  501    0  0.00000000000E+00 -0.00000000000E+00 -0.33409772443E+00  0.33413573749E+00  0.50400000000E-02 0. -1.
         31    1    1    2    0    0  0.74117757231E+00  0.63046370662E+00  0.13467134120E+02  0.13795036431E+02  0.28271010000E+01 0. -1.
        -31    1    1    2    0    0 -0.74117757231E+00 -0.63046370662E+00  0.12963096116E+02  0.13303427741E+02  0.28271010000E+01 0.  1.
<mgrwt>
<rscale>  0 0.59807767E+01</rscale>
<asrwt>0</asrwt>
<pdfrwt beam="2">  1        1 0.70361918E+00 0.59807767E+01</pdfrwt>
<pdfrwt beam="1">  1       -1 0.22406906E+00 0.59807767E+01</pdfrwt>
<totfact> 0.20826256E-02</totfact>
</mgrwt>
</event>
<event>
 4    1  0.4367748E-004  0.6427281E+01  0.7818608E-02  0.2362922E+00
         -1   -1    0    0    0  501 -0.00000000000E+00  0.00000000000E+00  0.47706928878E+02  0.47706929145E+02  0.50400000000E-02 0.  1.
          1   -1    0    0  501    0  0.00000000000E+00 -0.00000000000E+00 -0.21644808156E+00  0.21650675188E+00  0.50400000000E-02 0. -1.
         31    1    1    2    0    0  0.87802214151E+00 -0.18096754326E+00  0.32972073752E+02  0.33105193244E+02  0.28271010000E+01 0.  1.
        -31    1    1    2    0    0 -0.87802214151E+00  0.18096754326E+00  0.14518407044E+02  0.14818242652E+02  0.28271010000E+01 0. -1.
<mgrwt>
<rscale>  0 0.64272811E+01</rscale>
<asrwt>0</asrwt>
<pdfrwt beam="2">  1        1 0.45948761E+00 0.64272811E+01</pdfrwt>
<pdfrwt beam="1">  1       -1 0.39626450E+00 0.64272811E+01</pdfrwt>
<totfact> 0.29210886E-02</totfact>
</mgrwt>
</event>
<event>
 4    1  0.4367748E-004  0.5761123E+01  0.7818608E-02  0.2447591E+00
          1   -1    0    0  501    0  0.00000000000E+00  0.00000000000E+00  0.50629799180E+02  0.50629799430E+02  0.50400000000E-02 0. -1.
         -1   -1    0    0    0  501 -0.00000000000E+00 -0.00000000000E+00 -0.16384935371E+00  0.16392685049E+00  0.50400000000E-02 0.  1.
         31    1    1    2    0    0  0.54929917366E+00  0.21806206643E-01  0.24755795152E+02  0.24922762663E+02  0.28271010000E+01 0. -1.
        -31    1    1    2    0    0 -0.54929917366E+00 -0.21806206643E-01  0.25710154674E+02  0.25870963618E+02  0.28271010000E+01 0.  1.
<mgrwt>
<rscale>  0 0.57611230E+01</rscale>
<asrwt>0</asrwt>
<pdfrwt beam="1">  1        1 0.41999807E+00 0.57611230E+01</pdfrwt>
<pdfrwt beam="2">  1       -1 0.34831436E+00 0.57611230E+01</pdfrwt>
<totfact> 0.82741167E-02</totfact>
</mgrwt>
</event>
<event>
 4    1  0.4367748E-004  0.6944877E+01  0.7818608E-02  0.2306587E+00
          1   -1    0    0  501    0  0.00000000000E+00  0.00000000000E+00  0.58981496882E+02  0.58981497097E+02  0.50400000000E-02 0.  1.
         -1   -1    0    0    0  501 -0.00000000000E+00 -0.00000000000E+00 -0.20440282217E+00  0.20446494885E+00  0.50400000000E-02 0. -1.
         31    1    1    2    0    0 -0.18439760553E+01 -0.57314873957E+00  0.24444305958E+02  0.24682895718E+02  0.28271010000E+01 0.  1.
        -31    1    1    2    0    0  0.18439760553E+01  0.57314873957E+00  0.34332788102E+02  0.34503066328E+02  0.28271010000E+01 0.  1.
<mgrwt>
<rscale>  0 0.69448770E+01</rscale>
<asrwt>0</asrwt>
<pdfrwt beam="1">  1        1 0.48939094E+00 0.69448770E+01</pdfrwt>
<pdfrwt beam="2">  1       -1 0.43438776E+00 0.69448770E+01</pdfrwt>
<totfact> 0.12425387E-02</totfact>
</mgrwt>
</event>
<event>
 4    1  0.4367748E-004  0.6790101E+01  0.7818608E-02  0.2322690E+00
         -1   -1    0    0    0  501 -0.00000000000E+00  0.00000000000E+00  0.34205859796E+02  0.34205860167E+02  0.50400000000E-02 0. -1.
          1   -1    0    0  501    0  0.00000000000E+00 -0.00000000000E+00 -0.33695130704E+00  0.33698899821E+00  0.50400000000E-02 0.  1.
         31    1    1    2    0    0  0.12984942587E+00  0.18498536356E+01  0.18502834962E+02  0.18809205752E+02  0.28271010000E+01 0.  1.
        -31    1    1    2    0    0 -0.12984942587E+00 -0.18498536356E+01  0.15366073527E+02  0.15733643413E+02  0.28271010000E+01 0. -1.
<mgrwt>
<rscale>  0 0.67901006E+01</rscale>
<asrwt>0</asrwt>
<pdfrwt beam="2">  1        1 0.71147792E+00 0.67901006E+01</pdfrwt>
<pdfrwt beam="1">  1       -1 0.28562445E+00 0.67901006E+01</pdfrwt>
<totfact> 0.79302700E-03</totfact>
</mgrwt>
</event>
<event>
 4    1  0.4367748E-004  0.6365136E+01  0.7818608E-02  0.2370192E+00
          1   -1    0    0  501    0  0.00000000000E+00  0.00000000000E+00  0.51723170033E+02  0.51723170279E+02  0.50400000000E-02 0. -1.
         -1   -1    0    0    0  501 -0.00000000000E+00 -0.00000000000E+00 -0.19579326304E+00  0.19585812072E+00  0.50400000000E-02 0.  1.
         31    1    1    2    0    0 -0.12380773772E+01  0.74558242655E+00  0.27541595176E+02  0.27724009335E+02  0.28271010000E+01 0.  1.
        -31    1    1    2    0    0  0.12380773772E+01 -0.74558242655E+00  0.23985781594E+02  0.24195019064E+02  0.28271010000E+01 0. -1.
<mgrwt>
<rscale>  0 0.63651358E+01</rscale>
<asrwt>0</asrwt>
<pdfrwt beam="1">  1        1 0.42930285E+00 0.63651358E+01</pdfrwt>
<pdfrwt beam="2">  1       -1 0.41596420E+00 0.63651358E+01</pdfrwt>
<totfact> 0.29176171E-02</totfact>
</mgrwt>
</event>
<event>
 4    1  0.4367748E-004  0.6473834E+01  0.7818608E-02  0.2357552E+00
         -1   -1    0    0    0  501 -0.00000000000E+00  0.00000000000E+00  0.39021737084E+02  0.39021737409E+02  0.50400000000E-02 0.  1.
          1   -1    0    0  501    0  0.00000000000E+00 -0.00000000000E+00 -0.26848358298E+00  0.26853088450E+00  0.50400000000E-02 0. -1.
         31    1    1    2    0    0 -0.10360418275E+01  0.11317127622E+01  0.17180196055E+02  0.17478724009E+02  0.28271010000E+01 0. -1.
        -31    1    1    2    0    0  0.10360418275E+01 -0.11317127622E+01  0.21573057445E+02  0.21811544284E+02  0.28271010000E+01 0.  1.
<mgrwt>
<rscale>  0 0.64738339E+01</rscale>
<asrwt>0</asrwt>
<pdfrwt beam="2">  1        1 0.56859794E+00 0.64738339E+01</pdfrwt>
<pdfrwt beam="1">  1       -1 0.32487943E+00 0.64738339E+01</pdfrwt>
<totfact> 0.26198808E-02</totfact>
</mgrwt>
</event>
<event>
 4    1  0.4367748E-004  0.6806185E+01  0.7818608E-02  0.2320988E+00
          1   -1    0    0  501    0  0.00000000000E+00  0.00000000000E+00  0.60864518372E+02  0.60864518581E+02  0.50400000000E-02 0. -1.
         -1   -1    0    0    0  501 -0.00000000000E+00 -0.00000000000E+00 -0.19024211621E+00  0.19030886575E+00  0.50400000000E-02 0.  1.
         31    1    1    2    0    0 -0.12005129328E+01 -0.55377462574E+00  0.42507424998E+02  0.42621843903E+02  0.28271010000E+01 0. -1.
        -31    1    1    2    0    0  0.12005129328E+01  0.55377462574E+00  0.18166851258E+02  0.18432983544E+02  0.28271010000E+01 0.  1.
<mgrwt>
<rscale>  0 0.68061851E+01</rscale>
<asrwt>0</asrwt>
<pdfrwt beam="1">  1        1 0.50484403E+00 0.68061851E+01</pdfrwt>
<pdfrwt beam="2">  1       -1 0.40444053E+00 0.68061851E+01</pdfrwt>
<totfact> 0.16637589E-02</totfact>
</mgrwt>
</event>
<event>
 4    1  0.4367748E-004  0.5914671E+01  0.7818608E-02  0.2426663E+00
         -1   -1    0    0    0  501 -0.00000000000E+00  0.00000000000E+00  0.26538050061E+02  0.26538050540E+02  0.50400000000E-02 0.  1.
          1   -1    0    0  501    0  0.00000000000E+00 -0.00000000000E+00 -0.32953847663E+00  0.32957701555E+00  0.50400000000E-02 0. -1.
         31    1    1    2    0    0  0.20295004824E+00  0.54682885353E+00  0.10184557427E+02  0.10585741380E+02  0.28271010000E+01 0. -1.
        -31    1    1    2    0    0 -0.20295004824E+00 -0.54682885353E+00  0.16023954157E+02  0.16281886175E+02  0.28271010000E+01 0.  1.
<mgrwt>
<rscale>  0 0.59146708E+01</rscale>
<asrwt>0</asrwt>
<pdfrwt beam="2">  1        1 0.69406318E+00 0.59146708E+01</pdfrwt>
<pdfrwt beam="1">  1       -1 0.22216034E+00 0.59146708E+01</pdfrwt>
<totfact> 0.24330988E-02</totfact>
</mgrwt>
</event>
<event>
 4    1  0.4367748E-004  0.7446370E+01  0.7818608E-02  0.2258215E+00
          1   -1    0    0  501    0  0.00000000000E+00  0.00000000000E+00  0.73387630839E+02  0.73387631012E+02  0.50400000000E-02 0. -1.
         -1   -1    0    0    0  501 -0.00000000000E+00 -0.00000000000E+00 -0.18885508723E+00  0.18892232682E+00  0.50400000000E-02 0.  1.
         31    1    1    2    0    0 -0.18018096134E+01 -0.12950901606E+01  0.26989870556E+02  0.27228099256E+02  0.28271010000E+01 0.  1.
        -31    1    1    2    0    0  0.18018096134E+01  0.12950901606E+01  0.46208905196E+02  0.46348454083E+02  0.28271010000E+01 0. -1.
<mgrwt>
<rscale>  0 0.74463702E+01</rscale>
<asrwt>0</asrwt>
<pdfrwt beam="1">  1        1 0.60838242E+00 0.74463702E+01</pdfrwt>
<pdfrwt beam="2">  1       -1 0.40171401E+00 0.74463702E+01</pdfrwt>
<totfact> 0.57276439E-03</totfact>
</mgrwt>
</event>
<event>
 4    1  0.4367748E-004  0.6660724E+01  0.7818608E-02  0.2336620E+00
          1   -1    0    0  501    0  0.00000000000E+00  0.00000000000E+00  0.72778474362E+02  0.72778474536E+02  0.50400000000E-02 0.  1.
         -1   -1    0    0    0  501 -0.00000000000E+00 -0.00000000000E+00 -0.15235637275E+00  0.15243971241E+00  0.50400000000E-02 0. -1.
         31    1    1    2    0    0  0.17570921615E+01  0.93485458931E-01  0.35744397225E+02  0.35899171933E+02  0.28271010000E+01 0.  1.
        -31    1    1    2    0    0 -0.17570921615E+01 -0.93485458931E-01  0.36881720764E+02  0.37031742316E+02  0.28271010000E+01 0.  1.
<mgrwt>
<rscale>  0 0.66607236E+01</rscale>
<asrwt>0</asrwt>
<pdfrwt beam="1">  1        1 0.60304383E+00 0.66607236E+01</pdfrwt>
<pdfrwt beam="2">  1       -1 0.32426370E+00 0.66607236E+01</pdfrwt>
<totfact> 0.18088307E-02</totfact>
</mgrwt>
</event>
<event>
 4    1  0.4367748E-004  0.6233500E+01  0.7818608E-02  0.2385989E+00
         -1   -1    0    0    0  501 -0.00000000000E+00  0.00000000000E+00  0.80515655140E+02  0.80515655298E+02  0.50400000000E-02 0. -1.
          1   -1    0    0  501    0  0.00000000000E+00 -0.00000000000E+00 -0.12059618146E+00  0.12070145228E+00  0.50400000000E-02 0.  1.
         31    1    1    2    0    0 -0.51735702187E+00 -0.63097726670E+00  0.26905291958E+02  0.27065716802E+02  0.28271010000E+01 0.  1.
        -31    1    1    2    0    0  0.51735702187E+00  0.63097726670E+00  0.53489767001E+02  0.53570639948E+02  0.28271010000E+01 0. -1.
<mgrwt>
<rscale>  0 0.62335002E+01</rscale>
<asrwt>0</asrwt>
<pdfrwt beam="2">  1        1 0.25686222E+00 0.62335002E+01</pdfrwt>
<pdfrwt beam="1">  1       -1 0.66675782E+00 0.62335002E+01</pdfrwt>
<totfact> 0.55377157E-03</totfact>
</mgrwt>
</event>
<event>
 4    1  0.4367748E-004  0.5731506E+01  0.7818608E-02  0.2451736E+00
         -1   -1    0    0    0  501 -0.00000000000E+00  0.00000000000E+00  0.38664589267E+02  0.38664589595E+02  0.50400000000E-02 0. -1.
          1   -1    0    0  501    0  0.00000000000E+00 -0.00000000000E+00 -0.21237443188E+00  0.21243422727E+00  0.50400000000E-02 0.  1.
         31    1    1    2    0    0 -0.42411652869E+00  0.83759305431E-01  0.17991140109E+02  0.18217039083E+02  0.28271010000E+01 0.  1.
        -31    1    1    2    0    0  0.42411652869E+00 -0.83759305431E-01  0.20461074725E+02  0.20659984740E+02  0.28271010000E+01 0. -1.
<mgrwt>
<rscale>  0 0.57315055E+01</rscale>
<asrwt>0</asrwt>
<pdfrwt beam="2">  1        1 0.45041369E+00 0.57315055E+01</pdfrwt>
<pdfrwt beam="1">  1       -1 0.32146243E+00 0.57315055E+01</pdfrwt>
<totfact> 0.89545088E-02</totfact>
</mgrwt>
</event>
<event>
 4    1  0.4367748E-004  0.6190750E+01  0.7818608E-02  0.2391239E+00
          1   -1    0    0  501    0  0.00000000000E+00  0.00000000000E+00  0.42079707303E+02  0.42079707605E+02  0.50400000000E-02 0. -1.
         -1   -1    0    0    0  501 -0.00000000000E+00 -0.00000000000E+00 -0.22766700754E+00  0.22772278744E+00  0.50400000000E-02 0.  1.
         31    1    1    2    0    0  0.63021711737E+00 -0.89703175138E+00  0.16674608267E+02  0.16948064801E+02  0.28271010000E+01 0. -1.
        -31    1    1    2    0    0 -0.63021711737E+00  0.89703175138E+00  0.25177432028E+02  0.25359365591E+02  0.28271010000E+01 0. -1.
<mgrwt>
<rscale>  0 0.61907503E+01</rscale>
<asrwt>0</asrwt>
<pdfrwt beam="1">  1        1 0.34982744E+00 0.61907503E+01</pdfrwt>
<pdfrwt beam="2">  1       -1 0.48287764E+00 0.61907503E+01</pdfrwt>
<totfact> 0.21651864E-02</totfact>
</mgrwt>
</event>
<event>
 4    1  0.4367748E-004  0.5765272E+01  0.7818608E-02  0.2447013E+00
         -1   -1    0    0    0  501 -0.00000000000E+00  0.00000000000E+00  0.52989675278E+02  0.52989675517E+02  0.50400000000E-02 0. -1.
          1   -1    0    0  501    0  0.00000000000E+00 -0.00000000000E+00 -0.15677454210E+00  0.15685553433E+00  0.50400000000E-02 0.  1.
         31    1    1    2    0    0  0.53410022632E+00 -0.11097461446E+00  0.25128769797E+02  0.25293183864E+02  0.28271010000E+01 0.  1.
        -31    1    1    2    0    0 -0.53410022632E+00  0.11097461446E+00  0.27704130939E+02  0.27853347188E+02  0.28271010000E+01 0. -1.
<mgrwt>
<rscale>  0 0.57652721E+01</rscale>
<asrwt>0</asrwt>
<pdfrwt beam="2">  1        1 0.33337411E+00 0.57652721E+01</pdfrwt>
<pdfrwt beam="1">  1       -1 0.43945270E+00 0.57652721E+01</pdfrwt>
<totfact> 0.49085742E-02</totfact>
</mgrwt>
</event>
<event>
 4    1  0.4367748E-004  0.6529961E+01  0.7818608E-02  0.2351162E+00
          1   -1    0    0  501    0  0.00000000000E+00  0.00000000000E+00  0.49113993516E+02  0.49113993775E+02  0.50400000000E-02 0.  1.
         -1   -1    0    0    0  501 -0.00000000000E+00 -0.00000000000E+00 -0.21701853404E+00  0.21707705018E+00  0.50400000000E-02 0. -1.
         31    1    1    2    0    0 -0.10725625181E+01 -0.65398347592E+00  0.32333927679E+02  0.32481586537E+02  0.28271010000E+01 0.  1.
        -31    1    1    2    0    0  0.10725625181E+01  0.65398347592E+00  0.16563047303E+02  0.16849484288E+02  0.28271010000E+01 0. -1.
<mgrwt>
<rscale>  0 0.65299607E+01</rscale>
<asrwt>0</asrwt>
<pdfrwt beam="1">  1        1 0.40790381E+00 0.65299607E+01</pdfrwt>
<pdfrwt beam="2">  1       -1 0.46075256E+00 0.65299607E+01</pdfrwt>
<totfact> 0.18045956E-02</totfact>
</mgrwt>
</event>
<event>
 4    1  0.4367748E-004  0.5866259E+01  0.7818608E-02  0.2433162E+00
         -1   -1    0    0    0  501 -0.00000000000E+00  0.00000000000E+00  0.39262345134E+02  0.39262345458E+02  0.50400000000E-02 0. -1.
          1   -1    0    0  501    0  0.00000000000E+00 -0.00000000000E+00 -0.21909282069E+00  0.21915078298E+00  0.50400000000E-02 0.  1.
         31    1    1    2    0    0  0.77025358103E+00 -0.45200950915E-01  0.20357231093E+02  0.20567077856E+02  0.28271010000E+01 0.  1.
        -31    1    1    2    0    0 -0.77025358103E+00  0.45200950915E-01  0.18686021221E+02  0.18914418385E+02  0.28271010000E+01 0.  1.
<mgrwt>
<rscale>  0 0.58662590E+01</rscale>
<asrwt>0</asrwt>
<pdfrwt beam="2">  1        1 0.46461799E+00 0.58662590E+01</pdfrwt>
<pdfrwt beam="1">  1       -1 0.32646063E+00 0.58662590E+01</pdfrwt>
<totfact> 0.73213055E-02</totfact>
</mgrwt>
</event>
<event>
 4    1  0.4367748E-004  0.5825467E+01  0.7818608E-02  0.2438708E+00
          1   -1    0    0  501    0  0.00000000000E+00  0.00000000000E+00  0.30927271491E+02  0.30927271902E+02  0.50400000000E-02 0.  1.
         -1   -1    0    0    0  501 -0.00000000000E+00 -0.00000000000E+00 -0.27429794654E+00  0.27434424557E+00  0.50400000000E-02 0. -1.
         31    1    1    2    0    0 -0.65376641069E+00 -0.18874428302E-01  0.16678817303E+02  0.16929359511E+02  0.28271010000E+01 0.  1.
        -31    1    1    2    0    0  0.65376641069E+00  0.18874428302E-01  0.13974156241E+02  0.14272256636E+02  0.28271010000E+01 0. -1.
<mgrwt>
<rscale>  0 0.58254668E+01</rscale>
<asrwt>0</asrwt>
<pdfrwt beam="1">  1        1 0.25799679E+00 0.58254668E+01</pdfrwt>
<pdfrwt beam="2">  1       -1 0.57976439E+00 0.58254668E+01</pdfrwt>
<totfact> 0.11382522E-02</totfact>
</mgrwt>
</event>
<event>
 4    1  0.4367748E-004  0.5932418E+01  0.7818608E-02  0.2424303E+00
         -1   -1    0    0    0  501 -0.00000000000E+00  0.00000000000E+00  0.47774380000E+02  0.47774380266E+02  0.50400000000E-02 0.  1.
          1   -1    0    0  501    0  0.00000000000E+00 -0.00000000000E+00 -0.18413081584E+00  0.18419977997E+00  0.50400000000E-02 0. -1.
         31    1    1    2    0    0 -0.59516690113E+00  0.17859293712E+00  0.29032861043E+02  0.29176799679E+02  0.28271010000E+01 0.  1.
        -31    1    1    2    0    0  0.59516690113E+00 -0.17859293712E+00  0.18557388141E+02  0.18781780367E+02  0.28271010000E+01 0. -1.
<mgrwt>
<rscale>  0 0.59324179E+01</rscale>
<asrwt>0</asrwt>
<pdfrwt beam="2">  1        1 0.39116891E+00 0.59324179E+01</pdfrwt>
<pdfrwt beam="1">  1       -1 0.39655509E+00 0.59324179E+01</pdfrwt>
<totfact> 0.54989660E-02</totfact>
</mgrwt>
</event>
<event>
 4    1  0.4367748E-004  0.6363136E+01  0.7818608E-02  0.2370428E+00
          1   -1    0    0  501    0  0.00000000000E+00  0.00000000000E+00  0.37010612278E+02  0.37010612621E+02  0.50400000000E-02 0.  1.
         -1   -1    0    0    0  501 -0.00000000000E+00 -0.00000000000E+00 -0.27347567040E+00  0.27352210862E+00  0.50400000000E-02 0. -1.
         31    1    1    2    0    0 -0.28953200970E+00  0.97187789270E+00  0.12218996746E+02  0.12582716598E+02  0.28271010000E+01 0. -1.
        -31    1    1    2    0    0  0.28953200970E+00 -0.97187789270E+00  0.24518139861E+02  0.24701418132E+02  0.28271010000E+01 0.  1.
<mgrwt>
<rscale>  0 0.63631357E+01</rscale>
<asrwt>0</asrwt>
<pdfrwt beam="1">  1        1 0.30829131E+00 0.63631357E+01</pdfrwt>
<pdfrwt beam="2">  1       -1 0.57887590E+00 0.63631357E+01</pdfrwt>
<totfact> 0.73901754E-03</totfact>
</mgrwt>
</event>
<event>
 4    1  0.4367748E-004  0.6103947E+01  0.7818608E-02  0.2402088E+00
         -1   -1    0    0    0  501 -0.00000000000E+00  0.00000000000E+00  0.32534108453E+02  0.32534108844E+02  0.50400000000E-02 0. -1.
          1   -1    0    0  501    0  0.00000000000E+00 -0.00000000000E+00 -0.28627828128E+00  0.28632264307E+00  0.50400000000E-02 0.  1.
         31    1    1    2    0    0 -0.85160215905E-01  0.10449165906E+01  0.18662709574E+02  0.18904717179E+02  0.28271010000E+01 0. -1.
        -31    1    1    2    0    0  0.85160215905E-01 -0.10449165906E+01  0.13585120599E+02  0.13915714307E+02  0.28271010000E+01 0. -1.
<mgrwt>
<rscale>  0 0.61039473E+01</rscale>
<asrwt>0</asrwt>
<pdfrwt beam="2">  1        1 0.60512407E+00 0.61039473E+01</pdfrwt>
<pdfrwt beam="1">  1       -1 0.27138229E+00 0.61039473E+01</pdfrwt>
<totfact> 0.36172795E-02</totfact>
</mgrwt>
</event>
<event>
 4    1  0.4367748E-004  0.6385631E+01  0.7818608E-02  0.2367782E+00
          1   -1    0    0  501    0  0.00000000000E+00  0.00000000000E+00  0.47190756020E+02  0.47190756289E+02  0.50400000000E-02 0.  1.
         -1   -1    0    0    0  501 -0.00000000000E+00 -0.00000000000E+00 -0.21598873590E+00  0.21604753096E+00  0.50400000000E-02 0. -1.
         31    1    1    2    0    0  0.12463565278E+01 -0.65177552525E+00  0.26995996269E+02  0.27180039194E+02  0.28271010000E+01 0.  1.
        -31    1    1    2    0    0 -0.12463565278E+01  0.65177552525E+00  0.19978771015E+02  0.20226764626E+02  0.28271010000E+01 0. -1.
<mgrwt>
<rscale>  0 0.63856313E+01</rscale>
<asrwt>0</asrwt>
<pdfrwt beam="1">  1        1 0.39199262E+00 0.63856313E+01</pdfrwt>
<pdfrwt beam="2">  1       -1 0.45849454E+00 0.63856313E+01</pdfrwt>
<totfact> 0.21647198E-02</totfact>
</mgrwt>
</event>
<event>
 4    1  0.4367748E-004  0.6104267E+01  0.7818608E-02  0.2402048E+00
         -1   -1    0    0    0  501 -0.00000000000E+00  0.00000000000E+00  0.31346384479E+02  0.31346384885E+02  0.50400000000E-02 0. -1.
          1   -1    0    0  501    0  0.00000000000E+00 -0.00000000000E+00 -0.29715821217E+00  0.29720094996E+00  0.50400000000E-02 0.  1.
         31    1    1    2    0    0  0.10839699668E+01 -0.16188991824E+00  0.17333908497E+02  0.17597104394E+02  0.28271010000E+01 0. -1.
        -31    1    1    2    0    0 -0.10839699668E+01  0.16188991824E+00  0.13715317771E+02  0.14046481440E+02  0.28271010000E+01 0.  1.
<mgrwt>
<rscale>  0 0.61042668E+01</rscale>
<asrwt>0</asrwt>
<pdfrwt beam="2">  1        1 0.62769473E+00 0.61042668E+01</pdfrwt>
<pdfrwt beam="1">  1       -1 0.26165131E+00 0.61042668E+01</pdfrwt>
<totfact> 0.31895432E-02</totfact>
</mgrwt>
</event>
<event>
 4    1  0.4367748E-004  0.6018573E+01  0.7818608E-02  0.2413012E+00
          1   -1    0    0  501    0  0.00000000000E+00  0.00000000000E+00  0.32686104481E+02  0.32686104870E+02  0.50400000000E-02 0. -1.
         -1   -1    0    0    0  501 -0.00000000000E+00 -0.00000000000E+00 -0.27703039069E+00  0.27707623313E+00  0.50400000000E-02 0.  1.
         31    1    1    2    0    0 -0.39088459175E+00 -0.90085485465E+00  0.14481476989E+02  0.14787494923E+02  0.28271010000E+01 0.  1.
        -31    1    1    2    0    0  0.39088459175E+00  0.90085485465E+00  0.17927597101E+02  0.18175686180E+02  0.28271010000E+01 0.  1.
<mgrwt>
<rscale>  0 0.60185733E+01</rscale>
<asrwt>0</asrwt>
<pdfrwt beam="1">  1        1 0.27256264E+00 0.60185733E+01</pdfrwt>
<pdfrwt beam="2">  1       -1 0.58576735E+00 0.60185733E+01</pdfrwt>
<totfact> 0.92963219E-03</totfact>
</mgrwt>
</event>
<event>
 4    1  0.4367748E-004  0.1105805E+02  0.7818608E-02  0.2019342E+00
          1   -1    0    0  501    0  0.00000000000E+00  0.00000000000E+00  0.87059110352E+02  0.87059110498E+02  0.50400000000E-02 0.  1.
         -1   -1    0    0    0  501 -0.00000000000E+00 -0.00000000000E+00 -0.35112380145E+00  0.35115997145E+00  0.50400000000E-02 0. -1.
         31    1    1    2    0    0 -0.32398946921E+01 -0.19634809056E+01  0.20683369815E+02  0.21216655293E+02  0.28271010000E+01 0. -1.
        -31    1    1    2    0    0  0.32398946921E+01  0.19634809056E+01  0.66024616736E+02  0.66193615176E+02  0.28271010000E+01 0.  1.
<mgrwt>
<rscale>  0 0.11058049E+02</rscale>
<asrwt>0</asrwt>
<pdfrwt beam="1">  1        1 0.72276927E+00 0.11058049E+02</pdfrwt>
<pdfrwt beam="2">  1       -1 0.74569587E+00 0.11058049E+02</pdfrwt>
<totfact> 0.27250437E-05</totfact>
</mgrwt>
</event>
<event>
 4    1  0.4367748E-004  0.6188183E+01  0.7818608E-02  0.2391556E+00
         -1   -1    0    0    0  501 -0.00000000000E+00  0.00000000000E+00  0.37308111133E+02  0.37308111473E+02  0.50400000000E-02 0. -1.
          1   -1    0    0  501    0  0.00000000000E+00 -0.00000000000E+00 -0.25657869486E+00  0.25662819069E+00  0.50400000000E-02 0.  1.
         31    1    1    2    0    0  0.10204032848E+01  0.24286838597E+00  0.14317028951E+02  0.14631132081E+02  0.28271010000E+01 0.  1.
        -31    1    1    2    0    0 -0.10204032848E+01 -0.24286838597E+00  0.22734503487E+02  0.22933607583E+02  0.28271010000E+01 0.  1.
<mgrwt>
<rscale>  0 0.61881831E+01</rscale>
<asrwt>0</asrwt>
<pdfrwt beam="2">  1        1 0.54339182E+00 0.61881831E+01</pdfrwt>
<pdfrwt beam="1">  1       -1 0.31061155E+00 0.61881831E+01</pdfrwt>
<totfact> 0.41462475E-02</totfact>
</mgrwt>
</event>
<event>
 4    1  0.4367748E-004  0.6183572E+01  0.7818608E-02  0.2392127E+00
         -1   -1    0    0    0  501 -0.00000000000E+00  0.00000000000E+00  0.62816165186E+02  0.62816165388E+02  0.50400000000E-02 0.  1.
          1   -1    0    0  501    0  0.00000000000E+00 -0.00000000000E+00 -0.15213451910E+00  0.15221798021E+00  0.50400000000E-02 0. -1.
         31    1    1    2    0    0  0.27166677669E+00 -0.12150772008E+01  0.30026913665E+02  0.30185398122E+02  0.28271010000E+01 0.  1.
        -31    1    1    2    0    0 -0.27166677669E+00  0.12150772008E+01  0.32637117002E+02  0.32782985247E+02  0.28271010000E+01 0. -1.
<mgrwt>
<rscale>  0 0.61835722E+01</rscale>
<asrwt>0</asrwt>
<pdfrwt beam="2">  1        1 0.32368568E+00 0.61835722E+01</pdfrwt>
<pdfrwt beam="1">  1       -1 0.52066665E+00 0.61835722E+01</pdfrwt>
<totfact> 0.15042125E-02</totfact>
</mgrwt>
</event>
<event>
 4    1  0.4367748E-004  0.6966346E+01  0.7818608E-02  0.2304400E+00
          1   -1    0    0  501    0  0.00000000000E+00  0.00000000000E+00  0.64511673047E+02  0.64511673244E+02  0.50400000000E-02 0. -1.
         -1   -1    0    0    0  501 -0.00000000000E+00 -0.00000000000E+00 -0.18803268259E+00  0.18810021617E+00  0.50400000000E-02 0.  1.
         31    1    1    2    0    0 -0.58711196470E+00  0.73985834037E-01  0.50242176684E+02  0.50325132811E+02  0.28271010000E+01 0. -1.
        -31    1    1    2    0    0  0.58711196470E+00 -0.73985834037E-01  0.14081463680E+02  0.14374640650E+02  0.28271010000E+01 0.  1.
<mgrwt>
<rscale>  0 0.69663460E+01</rscale>
<asrwt>0</asrwt>
<pdfrwt beam="1">  1        1 0.53498300E+00 0.69663460E+01</pdfrwt>
<pdfrwt beam="2">  1       -1 0.39982918E+00 0.69663460E+01</pdfrwt>
<totfact> 0.13090560E-02</totfact>
</mgrwt>
</event>
<event>
 4    1  0.4367748E-004  0.5728076E+01  0.7818608E-02  0.2452218E+00
         -1   -1    0    0    0  501 -0.00000000000E+00  0.00000000000E+00  0.22467783658E+02  0.22467784223E+02  0.50400000000E-02 0.  1.
          1   -1    0    0  501    0  0.00000000000E+00 -0.00000000000E+00 -0.36506980131E+00  0.36510458971E+00  0.50400000000E-02 0. -1.
         31    1    1    2    0    0 -0.51191933401E-01  0.56107498805E-02  0.12867394153E+02  0.13174406417E+02  0.28271010000E+01 0.  1.
        -31    1    1    2    0    0  0.51191933401E-01 -0.56107498805E-02  0.92353197033E+01  0.96584823953E+01  0.28271010000E+01 0. -1.
<mgrwt>
<rscale>  0 0.57280757E+01</rscale>
<asrwt>0</asrwt>
<pdfrwt beam="2">  1        1 0.76599125E+00 0.57280757E+01</pdfrwt>
<pdfrwt beam="1">  1       -1 0.18879830E+00 0.57280757E+01</pdfrwt>
<totfact> 0.14051412E-02</totfact>
</mgrwt>
</event>
<event>
 4    1  0.4367748E-004  0.6783169E+01  0.7818608E-02  0.2323425E+00
          1   -1    0    0  501    0  0.00000000000E+00  0.00000000000E+00  0.50767026680E+02  0.50767026930E+02  0.50400000000E-02 0.  1.
         -1   -1    0    0    0  501 -0.00000000000E+00 -0.00000000000E+00 -0.22655273719E+00  0.22660879137E+00  0.50400000000E-02 0. -1.
         31    1    1    2    0    0 -0.16243461747E+01 -0.49412517464E+00  0.31226226866E+02  0.31399879053E+02  0.28271010000E+01 0.  1.
        -31    1    1    2    0    0  0.16243461747E+01  0.49412517464E+00  0.19314247077E+02  0.19593756669E+02  0.28271010000E+01 0. -1.
<mgrwt>
<rscale>  0 0.67831687E+01</rscale>
<asrwt>0</asrwt>
<pdfrwt beam="1">  1        1 0.42165106E+00 0.67831687E+01</pdfrwt>
<pdfrwt beam="2">  1       -1 0.48096827E+00 0.67831687E+01</pdfrwt>
<totfact> 0.11561358E-02</totfact>
</mgrwt>
</event>
<event>
 4    1  0.4367748E-004  0.8194265E+01  0.7818608E-02  0.2195152E+00
         -1   -1    0    0    0  501 -0.00000000000E+00  0.00000000000E+00  0.90429951666E+02  0.90429951806E+02  0.50400000000E-02 0.  1.
          1   -1    0    0  501    0  0.00000000000E+00 -0.00000000000E+00 -0.18559547044E+00  0.18566389053E+00  0.50400000000E-02 0. -1.
         31    1    1    2    0    0  0.23718033428E+01  0.17362899442E+01  0.49459585609E+02  0.49627444651E+02  0.28271010000E+01 0.  1.
        -31    1    1    2    0    0 -0.23718033428E+01 -0.17362899442E+01  0.40784770586E+02  0.40988171046E+02  0.28271010000E+01 0. -1.
<mgrwt>
<rscale>  0 0.81942653E+01</rscale>
<asrwt>0</asrwt>
<pdfrwt beam="2">  1        1 0.39498823E+00 0.81942653E+01</pdfrwt>
<pdfrwt beam="1">  1       -1 0.74927331E+00 0.81942653E+01</pdfrwt>
<totfact> 0.10763988E-03</totfact>
</mgrwt>
</event>
<event>
 4    1  0.4367748E-004  0.5927907E+01  0.7818608E-02  0.2424902E+00
         -1   -1    0    0    0  501 -0.00000000000E+00  0.00000000000E+00  0.54071133770E+02  0.54071134005E+02  0.50400000000E-02 0. -1.
          1   -1    0    0  501    0  0.00000000000E+00 -0.00000000000E+00 -0.16243220182E+00  0.16251037440E+00  0.50400000000E-02 0.  1.
         31    1    1    2    0    0  0.44650219180E-01  0.89499634681E-01  0.18861269053E+02  0.19072230446E+02  0.28271010000E+01 0.  1.
        -31    1    1    2    0    0 -0.44650219180E-01 -0.89499634681E-01  0.35047432515E+02  0.35161413933E+02  0.28271010000E+01 0. -1.
<mgrwt>
<rscale>  0 0.59279067E+01</rscale>
<asrwt>0</asrwt>
<pdfrwt beam="2">  1        1 0.34538311E+00 0.59279067E+01</pdfrwt>
<pdfrwt beam="1">  1       -1 0.44844172E+00 0.59279067E+01</pdfrwt>
<totfact> 0.38499387E-02</totfact>
</mgrwt>
</event>
<event>
 4    1  0.4367748E-004  0.5712962E+01  0.7818608E-02  0.2454349E+00
         -1   -1    0    0    0  501 -0.00000000000E+00  0.00000000000E+00  0.56815022104E+02  0.56815022328E+02  0.50400000000E-02 0.  1.
          1   -1    0    0  501    0  0.00000000000E+00 -0.00000000000E+00 -0.14357043922E+00  0.14365887588E+00  0.50400000000E-02 0. -1.
         31    1    1    2    0    0  0.28704940975E+00 -0.55425980982E-01  0.25489216778E+02  0.25647185838E+02  0.28271010000E+01 0. -1.
        -31    1    1    2    0    0 -0.28704940975E+00  0.55425980982E-01  0.31182234887E+02  0.31311495365E+02  0.28271010000E+01 0.  1.
<mgrwt>
<rscale>  0 0.57129616E+01</rscale>
<asrwt>0</asrwt>
<pdfrwt beam="2">  1        1 0.30544277E+00 0.57129616E+01</pdfrwt>
<pdfrwt beam="1">  1       -1 0.47097423E+00 0.57129616E+01</pdfrwt>
<totfact> 0.38698565E-02</totfact>
</mgrwt>
</event>
<event>
 4    1  0.4367748E-004  0.6796862E+01  0.7818608E-02  0.2321973E+00
         -1   -1    0    0    0  501 -0.00000000000E+00  0.00000000000E+00  0.65961798246E+02  0.65961798438E+02  0.50400000000E-02 0. -1.
          1   -1    0    0  501    0  0.00000000000E+00 -0.00000000000E+00 -0.17505480680E+00  0.17512734505E+00  0.50400000000E-02 0.  1.
         31    1    1    2    0    0 -0.16531202376E+01  0.85487543093E+00  0.29922515863E+02  0.30113337147E+02  0.28271010000E+01 0.  1.
        -31    1    1    2    0    0  0.16531202376E+01 -0.85487543093E+00  0.35864227576E+02  0.36023588636E+02  0.28271010000E+01 0.  1.
<mgrwt>
<rscale>  0 0.67968625E+01</rscale>
<asrwt>0</asrwt>
<pdfrwt beam="2">  1        1 0.37234037E+00 0.67968625E+01</pdfrwt>
<pdfrwt beam="1">  1       -1 0.54686638E+00 0.67968625E+01</pdfrwt>
<totfact> 0.64979751E-03</totfact>
</mgrwt>
</event>
<event>
 4    1  0.4367748E-004  0.6388835E+01  0.7818608E-02  0.2367406E+00
          1   -1    0    0  501    0  0.00000000000E+00  0.00000000000E+00  0.87985467693E+02  0.87985467837E+02  0.50400000000E-02 0.  1.
         -1   -1    0    0    0  501 -0.00000000000E+00 -0.00000000000E+00 -0.11592224805E+00  0.11603175942E+00  0.50400000000E-02 0. -1.
         31    1    1    2    0    0  0.13539797984E+01 -0.60737806822E+00  0.45288303939E+02  0.45400717430E+02  0.28271010000E+01 0. -1.
        -31    1    1    2    0    0 -0.13539797984E+01  0.60737806822E+00  0.42581241506E+02  0.42700782166E+02  0.28271010000E+01 0. -1.
<mgrwt>
<rscale>  0 0.63888351E+01</rscale>
<asrwt>0</asrwt>
<pdfrwt beam="1">  1        1 0.72848484E+00 0.63888351E+01</pdfrwt>
<pdfrwt beam="2">  1       -1 0.24696035E+00 0.63888351E+01</pdfrwt>
<totfact> 0.10618209E-02</totfact>
</mgrwt>
</event>
<event>
 4    1  0.4367748E-004  0.6292207E+01  0.7818608E-02  0.2378876E+00
          1   -1    0    0  501    0  0.00000000000E+00  0.00000000000E+00  0.40717744059E+02  0.40717744371E+02  0.50400000000E-02 0. -1.
         -1   -1    0    0    0  501 -0.00000000000E+00 -0.00000000000E+00 -0.24306084480E+00  0.24311309276E+00  0.50400000000E-02 0.  1.
         31    1    1    2    0    0 -0.37439710397E+00 -0.41630445932E+00  0.12023708640E+02  0.12364285346E+02  0.28271010000E+01 0.  1.
        -31    1    1    2    0    0  0.37439710397E+00  0.41630445932E+00  0.28450974574E+02  0.28596572118E+02  0.28271010000E+01 0. -1.
<mgrwt>
<rscale>  0 0.62922065E+01</rscale>
<asrwt>0</asrwt>
<pdfrwt beam="1">  1        1 0.33869303E+00 0.62922065E+01</pdfrwt>
<pdfrwt beam="2">  1       -1 0.51523346E+00 0.62922065E+01</pdfrwt>
<totfact> 0.14330752E-02</totfact>
</mgrwt>
</event>
<event>
 4    1  0.4367748E-004  0.6459817E+01  0.7818608E-02  0.2359162E+00
         -1   -1    0    0    0  501 -0.00000000000E+00  0.00000000000E+00  0.48847197648E+02  0.48847197908E+02  0.50400000000E-02 0.  1.
          1   -1    0    0  501    0  0.00000000000E+00 -0.00000000000E+00 -0.21354025321E+00  0.21359972224E+00  0.50400000000E-02 0. -1.
         31    1    1    2    0    0 -0.11358234055E+01 -0.14487766742E+00  0.16248042056E+02  0.16531861815E+02  0.28271010000E+01 0. -1.
        -31    1    1    2    0    0  0.11358234055E+01  0.14487766742E+00  0.32385615338E+02  0.32528935815E+02  0.28271010000E+01 0.  1.
<mgrwt>
<rscale>  0 0.64598168E+01</rscale>
<asrwt>0</asrwt>
<pdfrwt beam="2">  1        1 0.45339107E+00 0.64598168E+01</pdfrwt>
<pdfrwt beam="1">  1       -1 0.40566900E+00 0.64598168E+01</pdfrwt>
<totfact> 0.27016903E-02</totfact>
</mgrwt>
</event>
<event>
 4    1  0.4367748E-004  0.7508717E+01  0.7818608E-02  0.2252571E+00
          1   -1    0    0  501    0  0.00000000000E+00  0.00000000000E+00  0.65257429816E+02  0.65257430011E+02  0.50400000000E-02 0. -1.
         -1   -1    0    0    0  501 -0.00000000000E+00 -0.00000000000E+00 -0.21596433743E+00  0.21602313913E+00  0.50400000000E-02 0.  1.
         31    1    1    2    0    0 -0.19341447260E+01 -0.14061093423E+01  0.27112789583E+02  0.27364464517E+02  0.28271010000E+01 0. -1.
        -31    1    1    2    0    0  0.19341447260E+01  0.14061093423E+01  0.37928675896E+02  0.38108988633E+02  0.28271010000E+01 0.  1.
<mgrwt>
<rscale>  0 0.75087173E+01</rscale>
<asrwt>0</asrwt>
<pdfrwt beam="1">  1        1 0.54138032E+00 0.75087173E+01</pdfrwt>
<pdfrwt beam="2">  1       -1 0.45902192E+00 0.75087173E+01</pdfrwt>
<totfact> 0.50007493E-03</totfact>
</mgrwt>
</event>
<event>
 4    1  0.4367748E-004  0.7752646E+01  0.7818608E-02  0.2231201E+00
          1   -1    0    0  501    0  0.00000000000E+00  0.00000000000E+00  0.76753460105E+02  0.76753460270E+02  0.50400000000E-02 0. -1.
         -1   -1    0    0    0  501 -0.00000000000E+00 -0.00000000000E+00 -0.19573549071E+00  0.19580036753E+00  0.50400000000E-02 0.  1.
         31    1    1    2    0    0  0.13737942943E+01 -0.22534164125E+01  0.35687128836E+02  0.35896084200E+02  0.28271010000E+01 0. -1.
        -31    1    1    2    0    0 -0.13737942943E+01  0.22534164125E+01  0.40870595779E+02  0.41053176438E+02  0.28271010000E+01 0.  1.
<mgrwt>
<rscale>  0 0.77526457E+01</rscale>
<asrwt>0</asrwt>
<pdfrwt beam="1">  1        1 0.63627033E+00 0.77526457E+01</pdfrwt>
<pdfrwt beam="2">  1       -1 0.41635385E+00 0.77526457E+01</pdfrwt>
<totfact> 0.33197094E-03</totfact>
</mgrwt>
</event>
<event>
 4    1  0.4367748E-004  0.6055738E+01  0.7818608E-02  0.2408225E+00
          1   -1    0    0  501    0  0.00000000000E+00  0.00000000000E+00  0.38913262679E+02  0.38913263005E+02  0.50400000000E-02 0. -1.
         -1   -1    0    0    0  501 -0.00000000000E+00 -0.00000000000E+00 -0.23557341054E+00  0.23562731878E+00  0.50400000000E-02 0.  1.
         31    1    1    2    0    0  0.38697496854E-01 -0.90682004524E+00  0.15505119958E+02  0.15786863686E+02  0.28271010000E+01 0. -1.
        -31    1    1    2    0    0 -0.38697496854E-01  0.90682004524E+00  0.23172569311E+02  0.23362026638E+02  0.28271010000E+01 0.  1.
<mgrwt>
<rscale>  0 0.60557383E+01</rscale>
<asrwt>0</asrwt>
<pdfrwt beam="1">  1        1 0.32371042E+00 0.60557383E+01</pdfrwt>
<pdfrwt beam="2">  1       -1 0.49932339E+00 0.60557383E+01</pdfrwt>
<totfact> 0.21068903E-02</totfact>
</mgrwt>
</event>
<event>
 4    1  0.4367748E-004  0.6775046E+01  0.7818608E-02  0.2324288E+00
         -1   -1    0    0    0  501 -0.00000000000E+00  0.00000000000E+00  0.86564467896E+02  0.86564468043E+02  0.50400000000E-02 0. -1.
          1   -1    0    0  501    0  0.00000000000E+00 -0.00000000000E+00 -0.13251573205E+00  0.13261154113E+00  0.50400000000E-02 0.  1.
         31    1    1    2    0    0  0.11749312330E+00 -0.14556124987E+01  0.28346646186E+02  0.28524681636E+02  0.28271010000E+01 0.  1.
        -31    1    1    2    0    0 -0.11749312330E+00  0.14556124987E+01  0.58085305978E+02  0.58172397948E+02  0.28271010000E+01 0.  1.
<mgrwt>
<rscale>  0 0.67750464E+01</rscale>
<asrwt>0</asrwt>
<pdfrwt beam="2">  1        1 0.28221965E+00 0.67750464E+01</pdfrwt>
<pdfrwt beam="1">  1       -1 0.71687211E+00 0.67750464E+01</pdfrwt>
<totfact> 0.35542463E-03</totfact>
</mgrwt>
</event>
<event>
 4    1  0.4367748E-004  0.6895268E+01  0.7818608E-02  0.2311684E+00
         -1   -1    0    0    0  501 -0.00000000000E+00  0.00000000000E+00  0.71201959428E+02  0.71201959606E+02  0.50400000000E-02 0. -1.
          1   -1    0    0  501    0  0.00000000000E+00 -0.00000000000E+00 -0.16689791937E+00  0.16697400124E+00  0.50400000000E-02 0.  1.
         31    1    1    2    0    0 -0.14917830054E+01  0.27170842496E-01  0.48883309802E+02  0.48987719197E+02  0.28271010000E+01 0. -1.
        -31    1    1    2    0    0  0.14917830054E+01 -0.27170842496E-01  0.22151751706E+02  0.22381214411E+02  0.28271010000E+01 0. -1.
<mgrwt>
<rscale>  0 0.68952680E+01</rscale>
<asrwt>0</asrwt>
<pdfrwt beam="2">  1        1 0.35510784E+00 0.68952680E+01</pdfrwt>
<pdfrwt beam="1">  1       -1 0.59012828E+00 0.68952680E+01</pdfrwt>
<totfact> 0.42474471E-03</totfact>
</mgrwt>
</event>
<event>
 4    1  0.4367748E-004  0.6496618E+01  0.7818608E-02  0.2354947E+00
          1   -1    0    0  501    0  0.00000000000E+00  0.00000000000E+00  0.70650765684E+02  0.70650765864E+02  0.50400000000E-02 0. -1.
         -1   -1    0    0    0  501 -0.00000000000E+00 -0.00000000000E+00 -0.14930475195E+00  0.14938979402E+00  0.50400000000E-02 0.  1.
         31    1    1    2    0    0 -0.15740769093E+00 -0.14540511296E+01  0.28188270659E+02  0.28367413430E+02  0.28271010000E+01 0.  1.
        -31    1    1    2    0    0  0.15740769093E+00  0.14540511296E+01  0.42313190273E+02  0.42432742228E+02  0.28271010000E+01 0. -1.
<mgrwt>
<rscale>  0 0.64966182E+01</rscale>
<asrwt>0</asrwt>
<pdfrwt beam="1">  1        1 0.58542522E+00 0.64966182E+01</pdfrwt>
<pdfrwt beam="2">  1       -1 0.31776615E+00 0.64966182E+01</pdfrwt>
<totfact> 0.24033321E-02</totfact>
</mgrwt>
</event>
<event>
 4    1  0.4367748E-004  0.6096928E+01  0.7818608E-02  0.2402977E+00
         -1   -1    0    0    0  501 -0.00000000000E+00  0.00000000000E+00  0.51449385459E+02  0.51449385706E+02  0.50400000000E-02 0. -1.
          1   -1    0    0  501    0  0.00000000000E+00 -0.00000000000E+00 -0.18059128844E+00  0.18066160373E+00  0.50400000000E-02 0.  1.
         31    1    1    2    0    0 -0.58061242227E+00 -0.24467694509E+00  0.17584455568E+02  0.17821407220E+02  0.28271010000E+01 0.  1.
        -31    1    1    2    0    0  0.58061242227E+00  0.24467694509E+00  0.33684338602E+02  0.33808640090E+02  0.28271010000E+01 0.  1.
<mgrwt>
<rscale>  0 0.60969279E+01</rscale>
<asrwt>0</asrwt>
<pdfrwt beam="2">  1        1 0.38378391E+00 0.60969279E+01</pdfrwt>
<pdfrwt beam="1">  1       -1 0.42691335E+00 0.60969279E+01</pdfrwt>
<totfact> 0.37734772E-02</totfact>
</mgrwt>
</event>
<event>
 4    1  0.4367748E-004  0.6667634E+01  0.7818608E-02  0.2335865E+00
         -1   -1    0    0    0  501 -0.00000000000E+00  0.00000000000E+00  0.39199280878E+02  0.39199281202E+02  0.50400000000E-02 0. -1.
          1   -1    0    0  501    0  0.00000000000E+00 -0.00000000000E+00 -0.28351144041E+00  0.28355623506E+00  0.50400000000E-02 0.  1.
         31    1    1    2    0    0  0.17256752775E+01 -0.34382430545E+00  0.18509233685E+02  0.18806392583E+02  0.28271010000E+01 0.  1.
        -31    1    1    2    0    0 -0.17256752775E+01  0.34382430545E+00  0.20406535753E+02  0.20676444854E+02  0.28271010000E+01 0.  1.
<mgrwt>
<rscale>  0 0.66676339E+01</rscale>
<asrwt>0</asrwt>
<pdfrwt beam="2">  1        1 0.60020871E+00 0.66676339E+01</pdfrwt>
<pdfrwt beam="1">  1       -1 0.32647172E+00 0.66676339E+01</pdfrwt>
<totfact> 0.18122338E-02</totfact>
</mgrwt>
</event>
<event>
 4    1  0.4367748E-004  0.5879644E+01  0.7818608E-02  0.2431356E+00
         -1   -1    0    0    0  501 -0.00000000000E+00  0.00000000000E+00  0.43469291269E+02  0.43469291561E+02  0.50400000000E-02 0.  1.
          1   -1    0    0  501    0  0.00000000000E+00 -0.00000000000E+00 -0.19878750976E+00  0.19885139083E+00  0.50400000000E-02 0. -1.
         31    1    1    2    0    0  0.51930159618E+00  0.60136952618E+00  0.22651797095E+02  0.22841360099E+02  0.28271010000E+01 0. -1.
        -31    1    1    2    0    0 -0.51930159618E+00 -0.60136952618E+00  0.20618706664E+02  0.20826782853E+02  0.28271010000E+01 0.  1.
<mgrwt>
<rscale>  0 0.58796440E+01</rscale>
<asrwt>0</asrwt>
<pdfrwt beam="2">  1        1 0.42199228E+00 0.58796440E+01</pdfrwt>
<pdfrwt beam="1">  1       -1 0.36107876E+00 0.58796440E+01</pdfrwt>
<totfact> 0.68228059E-02</totfact>
</mgrwt>
</event>
<event>
 4    1  0.4367748E-004  0.7417138E+01  0.7818608E-02  0.2260887E+00
          1   -1    0    0  501    0  0.00000000000E+00  0.00000000000E+00  0.52220039187E+02  0.52220039430E+02  0.50400000000E-02 0. -1.
         -1   -1    0    0    0  501 -0.00000000000E+00 -0.00000000000E+00 -0.26335125125E+00  0.26339947444E+00  0.50400000000E-02 0.  1.
         31    1    1    2    0    0 -0.13619371880E+01  0.10950394039E+01  0.37620410153E+02  0.37766939833E+02  0.28271010000E+01 0. -1.
        -31    1    1    2    0    0  0.13619371880E+01 -0.10950394039E+01  0.14336277783E+02  0.14716499072E+02  0.28271010000E+01 0.  1.
<mgrwt>
<rscale>  0 0.74171381E+01</rscale>
<asrwt>0</asrwt>
<pdfrwt beam="1">  1        1 0.43396979E+00 0.74171381E+01</pdfrwt>
<pdfrwt beam="2">  1       -1 0.55875010E+00 0.74171381E+01</pdfrwt>
<totfact> 0.30858318E-03</totfact>
</mgrwt>
</event>
<event>
 4    1  0.4367748E-004  0.6392628E+01  0.7818608E-02  0.2366962E+00
          1   -1    0    0  501    0  0.00000000000E+00  0.00000000000E+00  0.71403139492E+02  0.71403139670E+02  0.50400000000E-02 0. -1.
         -1   -1    0    0    0  501 -0.00000000000E+00 -0.00000000000E+00 -0.14303632697E+00  0.14312509365E+00  0.50400000000E-02 0.  1.
         31    1    1    2    0    0 -0.35584956512E+00 -0.11552518793E+01  0.25855852698E+02  0.26038027087E+02  0.28271010000E+01 0.  1.
        -31    1    1    2    0    0  0.35584956512E+00  0.11552518793E+01  0.45404250468E+02  0.45508237676E+02  0.28271010000E+01 0. -1.
<mgrwt>
<rscale>  0 0.63926285E+01</rscale>
<asrwt>0</asrwt>
<pdfrwt beam="1">  1        1 0.59159458E+00 0.63926285E+01</pdfrwt>
<pdfrwt beam="2">  1       -1 0.30446623E+00 0.63926285E+01</pdfrwt>
<totfact> 0.26885178E-02</totfact>
</mgrwt>
</event>
<event>
 4    1  0.4367748E-004  0.6933210E+01  0.7818608E-02  0.2307780E+00
          1   -1    0    0  501    0  0.00000000000E+00  0.00000000000E+00  0.60034495212E+02  0.60034495423E+02  0.50400000000E-02 0. -1.
         -1   -1    0    0    0  501 -0.00000000000E+00 -0.00000000000E+00 -0.20014212254E+00  0.20020557139E+00  0.50400000000E-02 0.  1.
         31    1    1    2    0    0 -0.12235923879E+01 -0.40904370000E+00  0.43264707999E+02  0.43376168034E+02  0.28271010000E+01 0. -1.
        -31    1    1    2    0    0  0.12235923879E+01  0.40904370000E+00  0.16569645090E+02  0.16858532960E+02  0.28271010000E+01 0.  1.
<mgrwt>
<rscale>  0 0.69332095E+01</rscale>
<asrwt>0</asrwt>
<pdfrwt beam="1">  1        1 0.49806265E+00 0.69332095E+01</pdfrwt>
<pdfrwt beam="2">  1       -1 0.42539174E+00 0.69332095E+01</pdfrwt>
<totfact> 0.13056797E-02</totfact>
</mgrwt>
</event>
<event>
 4    1  0.4367748E-004  0.6760749E+01  0.7818608E-02  0.2325811E+00
          1   -1    0    0  501    0  0.00000000000E+00  0.00000000000E+00  0.49276412921E+02  0.49276413179E+02  0.50400000000E-02 0.  1.
         -1   -1    0    0    0  501 -0.00000000000E+00 -0.00000000000E+00 -0.23186689229E+00  0.23192166208E+00  0.50400000000E-02 0. -1.
         31    1    1    2    0    0  0.88566854417E+00 -0.15599423758E+01  0.27930390767E+02  0.28130358289E+02  0.28271010000E+01 0.  1.
        -31    1    1    2    0    0 -0.88566854417E+00  0.15599423758E+01  0.21114155262E+02  0.21377976552E+02  0.28271010000E+01 0.  1.
<mgrwt>
<rscale>  0 0.67607487E+01</rscale>
<asrwt>0</asrwt>
<pdfrwt beam="1">  1        1 0.40936955E+00 0.67607487E+01</pdfrwt>
<pdfrwt beam="2">  1       -1 0.49212841E+00 0.67607487E+01</pdfrwt>
<totfact> 0.10861838E-02</totfact>
</mgrwt>
</event>
<event>
 4    1  0.4367748E-004  0.5836191E+01  0.7818608E-02  0.2437244E+00
          1   -1    0    0  501    0  0.00000000000E+00  0.00000000000E+00  0.65183528501E+02  0.65183528695E+02  0.50400000000E-02 0. -1.
         -1   -1    0    0    0  501 -0.00000000000E+00 -0.00000000000E+00 -0.13058665886E+00  0.13068388222E+00  0.50400000000E-02 0.  1.
         31    1    1    2    0    0 -0.11395639319E+00  0.63413721046E+00  0.36198570235E+02  0.36314516425E+02  0.28271010000E+01 0. -1.
        -31    1    1    2    0    0  0.11395639319E+00 -0.63413721046E+00  0.28854371607E+02  0.28999696153E+02  0.28271010000E+01 0.  1.
<mgrwt>
<rscale>  0 0.58361907E+01</rscale>
<asrwt>0</asrwt>
<pdfrwt beam="1">  1        1 0.54006361E+00 0.58361907E+01</pdfrwt>
<pdfrwt beam="2">  1       -1 0.27798312E+00 0.58361907E+01</pdfrwt>
<totfact> 0.66516867E-02</totfact>
</mgrwt>
</event>
<event>
 4    1  0.4367748E-004  0.6232870E+01  0.7818608E-02  0.2386066E+00
         -1   -1    0    0    0  501 -0.00000000000E+00  0.00000000000E+00  0.29030827688E+02  0.29030828126E+02  0.50400000000E-02 0.  1.
          1   -1    0    0  501    0  0.00000000000E+00 -0.00000000000E+00 -0.33452731041E+00  0.33456527466E+00  0.50400000000E-02 0. -1.
         31    1    1    2    0    0  0.25995102485E+00  0.10360847929E+00  0.20384154527E+02  0.20581170158E+02  0.28271010000E+01 0.  1.
        -31    1    1    2    0    0 -0.25995102485E+00 -0.10360847929E+00  0.83121458511E+01  0.87842232420E+01  0.28271010000E+01 0. -1.
<mgrwt>
<rscale>  0 0.62328705E+01</rscale>
<asrwt>0</asrwt>
<pdfrwt beam="2">  1        1 0.70519227E+00 0.62328705E+01</pdfrwt>
<pdfrwt beam="1">  1       -1 0.24281362E+00 0.62328705E+01</pdfrwt>
<totfact> 0.15621373E-02</totfact>
</mgrwt>
</event>
<event>
 4    1  0.4367748E-004  0.5832733E+01  0.7818608E-02  0.2437715E+00
          1   -1    0    0  501    0  0.00000000000E+00  0.00000000000E+00  0.59443272169E+02  0.59443272383E+02  0.50400000000E-02 0. -1.
         -1   -1    0    0    0  501 -0.00000000000E+00 -0.00000000000E+00 -0.14303626625E+00  0.14312503297E+00  0.50400000000E-02 0.  1.
         31    1    1    2    0    0  0.64217011353E+00 -0.19004305686E+00  0.27061735692E+02  0.27217247061E+02  0.28271010000E+01 0. -1.
        -31    1    1    2    0    0 -0.64217011353E+00  0.19004305686E+00  0.32238500211E+02  0.32369150355E+02  0.28271010000E+01 0. -1.
<mgrwt>
<rscale>  0 0.58327334E+01</rscale>
<asrwt>0</asrwt>
<pdfrwt beam="1">  1        1 0.49270202E+00 0.58327334E+01</pdfrwt>
<pdfrwt beam="2">  1       -1 0.30434368E+00 0.58327334E+01</pdfrwt>
<totfact> 0.75084999E-02</totfact>
</mgrwt>
</event>
<event>
 4    1  0.4367748E-004  0.5867710E+01  0.7818608E-02  0.2432966E+00
         -1   -1    0    0    0  501 -0.00000000000E+00  0.00000000000E+00  0.30062610168E+02  0.30062610591E+02  0.50400000000E-02 0.  1.
          1   -1    0    0  501    0  0.00000000000E+00 -0.00000000000E+00 -0.28629669320E+00  0.28634105214E+00  0.50400000000E-02 0. -1.
         31    1    1    2    0    0 -0.76949908472E+00  0.86308114499E-01  0.14245732869E+02  0.14544173506E+02  0.28271010000E+01 0. -1.
        -31    1    1    2    0    0  0.76949908472E+00 -0.86308114499E-01  0.15530580605E+02  0.15804778136E+02  0.28271010000E+01 0. -1.
<mgrwt>
<rscale>  0 0.58677101E+01</rscale>
<asrwt>0</asrwt>
<pdfrwt beam="2">  1        1 0.60472896E+00 0.58677101E+01</pdfrwt>
<pdfrwt beam="1">  1       -1 0.25094637E+00 0.58677101E+01</pdfrwt>
<totfact> 0.48031006E-02</totfact>
</mgrwt>
</event>
<event>
 4    1  0.4367748E-004  0.5940492E+01  0.7818608E-02  0.2423233E+00
          1   -1    0    0  501    0  0.00000000000E+00  0.00000000000E+00  0.73330053286E+02  0.73330053459E+02  0.50400000000E-02 0. -1.
         -1   -1    0    0    0  501 -0.00000000000E+00 -0.00000000000E+00 -0.12025736305E+00  0.12036293021E+00  0.50400000000E-02 0.  1.
         31    1    1    2    0    0  0.26013693482E+00 -0.40063335993E+00  0.46195723326E+02  0.46284614420E+02  0.28271010000E+01 0. -1.
        -31    1    1    2    0    0 -0.26013693482E+00  0.40063335993E+00  0.27014072597E+02  0.27165801970E+02  0.28271010000E+01 0.  1.
<mgrwt>
<rscale>  0 0.59404923E+01</rscale>
<asrwt>0</asrwt>
<pdfrwt beam="1">  1        1 0.60733943E+00 0.59404923E+01</pdfrwt>
<pdfrwt beam="2">  1       -1 0.25610483E+00 0.59404923E+01</pdfrwt>
<totfact> 0.43454528E-02</totfact>
</mgrwt>
</event>
<event>
 4    1  0.4367748E-004  0.6448324E+01  0.7818608E-02  0.2360487E+00
         -1   -1    0    0    0  501 -0.00000000000E+00  0.00000000000E+00  0.50920006217E+02  0.50920006466E+02  0.50400000000E-02 0. -1.
          1   -1    0    0  501    0  0.00000000000E+00 -0.00000000000E+00 -0.20411671027E+00  0.20417892401E+00  0.50400000000E-02 0.  1.
         31    1    1    2    0    0 -0.63819117156E+00 -0.85928977547E+00  0.34247018177E+02  0.34380174824E+02  0.28271010000E+01 0. -1.
        -31    1    1    2    0    0  0.63819117156E+00  0.85928977547E+00  0.16468871330E+02  0.16744010566E+02  0.28271010000E+01 0.  1.
<mgrwt>
<rscale>  0 0.64483241E+01</rscale>
<asrwt>0</asrwt>
<pdfrwt beam="2">  1        1 0.43354529E+00 0.64483241E+01</pdfrwt>
<pdfrwt beam="1">  1       -1 0.42273053E+00 0.64483241E+01</pdfrwt>
<totfact> 0.25358493E-02</totfact>
</mgrwt>
</event>
<event>
 4    1  0.4367748E-004  0.6211474E+01  0.7818608E-02  0.2388687E+00
         -1   -1    0    0    0  501 -0.00000000000E+00  0.00000000000E+00  0.32364546110E+02  0.32364546502E+02  0.50400000000E-02 0. -1.
          1   -1    0    0  501    0  0.00000000000E+00 -0.00000000000E+00 -0.29800815836E+00  0.29805077428E+00  0.50400000000E-02 0.  1.
         31    1    1    2    0    0  0.67067799227E+00 -0.15497936686E+00  0.10322910863E+02  0.10725148779E+02  0.28271010000E+01 0.  1.
        -31    1    1    2    0    0 -0.67067799227E+00  0.15497936686E+00  0.21743627088E+02  0.21937448498E+02  0.28271010000E+01 0. -1.
<mgrwt>
<rscale>  0 0.62114736E+01</rscale>
<asrwt>0</asrwt>
<pdfrwt beam="2">  1        1 0.62965947E+00 0.62114736E+01</pdfrwt>
<pdfrwt beam="1">  1       -1 0.27007721E+00 0.62114736E+01</pdfrwt>
<totfact> 0.27781203E-02</totfact>
</mgrwt>
</event>
<event>
 4    1  0.4367748E-004  0.5843712E+01  0.7818608E-02  0.2436219E+00
         -1   -1    0    0    0  501 -0.00000000000E+00  0.00000000000E+00  0.41784199286E+02  0.41784199590E+02  0.50400000000E-02 0.  1.
          1   -1    0    0  501    0  0.00000000000E+00 -0.00000000000E+00 -0.20428613114E+00  0.20434829331E+00  0.50400000000E-02 0. -1.
         31    1    1    2    0    0  0.47654199504E+00 -0.53200415112E+00  0.22126936655E+02  0.22318242459E+02  0.28271010000E+01 0.  1.
        -31    1    1    2    0    0 -0.47654199504E+00  0.53200415112E+00  0.19452976501E+02  0.19670305424E+02  0.28271010000E+01 0. -1.
<mgrwt>
<rscale>  0 0.58437125E+01</rscale>
<asrwt>0</asrwt>
<pdfrwt beam="2">  1        1 0.43352484E+00 0.58437125E+01</pdfrwt>
<pdfrwt beam="1">  1       -1 0.34719069E+00 0.58437125E+01</pdfrwt>
<totfact> 0.74139829E-02</totfact>
</mgrwt>
</event>
<event>
 4    1  0.4367748E-004  0.5896761E+01  0.7818608E-02  0.2429057E+00
         -1   -1    0    0    0  501 -0.00000000000E+00  0.00000000000E+00  0.41606176984E+02  0.41606177289E+02  0.50400000000E-02 0.  1.
          1   -1    0    0  501    0  0.00000000000E+00 -0.00000000000E+00 -0.20890336095E+00  0.20896414960E+00  0.50400000000E-02 0. -1.
         31    1    1    2    0    0  0.39320783396E+00  0.59354249737E+00  0.23818302628E+02  0.23996061036E+02  0.28271010000E+01 0.  1.
        -31    1    1    2    0    0 -0.39320783396E+00 -0.59354249737E+00  0.17578970994E+02  0.17819080402E+02  0.28271010000E+01 0. -1.
<mgrwt>
<rscale>  0 0.58967610E+01</rscale>
<asrwt>0</asrwt>
<pdfrwt beam="2">  1        1 0.44326215E+00 0.58967610E+01</pdfrwt>
<pdfrwt beam="1">  1       -1 0.34575685E+00 0.58967610E+01</pdfrwt>
<totfact> 0.69031030E-02</totfact>
</mgrwt>
</event>
<event>
 4    1  0.4367748E-004  0.7075541E+01  0.7818608E-02  0.2293445E+00
          1   -1    0    0  501    0  0.00000000000E+00  0.00000000000E+00  0.75028066996E+02  0.75028067165E+02  0.50400000000E-02 0.  1.
         -1   -1    0    0    0  501 -0.00000000000E+00 -0.00000000000E+00 -0.16677692914E+00  0.16685306618E+00  0.50400000000E-02 0. -1.
         31    1    1    2    0    0 -0.19627331474E+01  0.49023060386E+00  0.44404970150E+02  0.44540841051E+02  0.28271010000E+01 0.  1.
        -31    1    1    2    0    0  0.19627331474E+01 -0.49023060386E+00  0.30456319917E+02  0.30654079181E+02  0.28271010000E+01 0. -1.
<mgrwt>
<rscale>  0 0.70755408E+01</rscale>
<asrwt>0</asrwt>
<pdfrwt beam="1">  1        1 0.62176421E+00 0.70755408E+01</pdfrwt>
<pdfrwt beam="2">  1       -1 0.35489342E+00 0.70755408E+01</pdfrwt>
<totfact> 0.95803250E-03</totfact>
</mgrwt>
</event>
<event>
 4    1  0.4367748E-004  0.6262274E+01  0.7818608E-02  0.2382489E+00
          1   -1    0    0  501    0  0.00000000000E+00  0.00000000000E+00  0.86654535771E+02  0.86654535918E+02  0.50400000000E-02 0.  1.
         -1   -1    0    0    0  501 -0.00000000000E+00 -0.00000000000E+00 -0.11308286859E+00  0.11319512696E+00  0.50400000000E-02 0. -1.
         31    1    1    2    0    0 -0.16609663115E+00  0.13284100407E+01  0.41347904631E+02  0.41466058153E+02  0.28271010000E+01 0. -1.
        -31    1    1    2    0    0  0.16609663115E+00 -0.13284100407E+01  0.45193548272E+02  0.45301672892E+02  0.28271010000E+01 0.  1.
<mgrwt>
<rscale>  0 0.62622744E+01</rscale>
<asrwt>0</asrwt>
<pdfrwt beam="1">  1        1 0.71745631E+00 0.62622744E+01</pdfrwt>
<pdfrwt beam="2">  1       -1 0.24092014E+00 0.62622744E+01</pdfrwt>
<totfact> 0.13534383E-02</totfact>
</mgrwt>
</event>
<event>
 4    1  0.4367748E-004  0.6104403E+01  0.7818608E-02  0.2402030E+00
         -1   -1    0    0    0  501 -0.00000000000E+00  0.00000000000E+00  0.37160727037E+02  0.37160727379E+02  0.50400000000E-02 0.  1.
          1   -1    0    0  501    0  0.00000000000E+00 -0.00000000000E+00 -0.25066728372E+00  0.25071794656E+00  0.50400000000E-02 0. -1.
         31    1    1    2    0    0  0.32786774986E+00  0.52938845011E+00  0.12526790635E+02  0.12856933269E+02  0.28271010000E+01 0. -1.
        -31    1    1    2    0    0 -0.32786774986E+00 -0.52938845011E+00  0.24383269118E+02  0.24554512057E+02  0.28271010000E+01 0.  1.
<mgrwt>
<rscale>  0 0.61044025E+01</rscale>
<asrwt>0</asrwt>
<pdfrwt beam="2">  1        1 0.53094435E+00 0.61044025E+01</pdfrwt>
<pdfrwt beam="1">  1       -1 0.30934401E+00 0.61044025E+01</pdfrwt>
<totfact> 0.47938133E-02</totfact>
</mgrwt>
</event>
<event>
 4    1  0.4367748E-004  0.7684256E+01  0.7818608E-02  0.2237082E+00
         -1   -1    0    0    0  501 -0.00000000000E+00  0.00000000000E+00  0.64578515667E+02  0.64578515864E+02  0.50400000000E-02 0. -1.
          1   -1    0    0  501    0  0.00000000000E+00 -0.00000000000E+00 -0.22856116044E+00  0.22861672219E+00  0.50400000000E-02 0.  1.
         31    1    1    2    0    0  0.22693840922E+01 -0.12692293225E+01  0.31402012862E+02  0.31636054733E+02  0.28271010000E+01 0. -1.
        -31    1    1    2    0    0 -0.22693840922E+01  0.12692293225E+01  0.32947941644E+02  0.33171077852E+02  0.28271010000E+01 0. -1.
<mgrwt>
<rscale>  0 0.76842559E+01</rscale>
<asrwt>0</asrwt>
<pdfrwt beam="2">  1        1 0.48567752E+00 0.76842559E+01</pdfrwt>
<pdfrwt beam="1">  1       -1 0.53587072E+00 0.76842559E+01</pdfrwt>
<totfact> 0.26209112E-03</totfact>
</mgrwt>
</event>
<event>
 4    1  0.4367748E-004  0.5870118E+01  0.7818608E-02  0.2432641E+00
         -1   -1    0    0    0  501 -0.00000000000E+00  0.00000000000E+00  0.39295106619E+02  0.39295106943E+02  0.50400000000E-02 0. -1.
          1   -1    0    0  501    0  0.00000000000E+00 -0.00000000000E+00 -0.21919831178E+00  0.21925624617E+00  0.50400000000E-02 0.  1.
         31    1    1    2    0    0 -0.75928624557E+00  0.21343913013E+00  0.19535739640E+02  0.19754991653E+02  0.28271010000E+01 0.  1.
        -31    1    1    2    0    0  0.75928624557E+00 -0.21343913013E+00  0.19540168668E+02  0.19759371536E+02  0.28271010000E+01 0.  1.
<mgrwt>
<rscale>  0 0.58701182E+01</rscale>
<asrwt>0</asrwt>
<pdfrwt beam="2">  1        1 0.46484255E+00 0.58701182E+01</pdfrwt>
<pdfrwt beam="1">  1       -1 0.32673240E+00 0.58701182E+01</pdfrwt>
<totfact> 0.72790270E-02</totfact>
</mgrwt>
</event>
<event>
 4    1  0.4367748E-004  0.6450949E+01  0.7818608E-02  0.2360184E+00
          1   -1    0    0  501    0  0.00000000000E+00  0.00000000000E+00  0.63219283222E+02  0.63219283423E+02  0.50400000000E-02 0.  1.
         -1   -1    0    0    0  501 -0.00000000000E+00 -0.00000000000E+00 -0.16452625762E+00  0.16460343571E+00  0.50400000000E-02 0. -1.
         31    1    1    2    0    0 -0.72074997012E+00  0.35883533070E+00  0.18481474560E+02  0.18713782229E+02  0.28271010000E+01 0. -1.
        -31    1    1    2    0    0  0.72074997012E+00 -0.35883533070E+00  0.44573282404E+02  0.44670104630E+02  0.28271010000E+01 0.  1.
<mgrwt>
<rscale>  0 0.64509486E+01</rscale>
<asrwt>0</asrwt>
<pdfrwt beam="1">  1        1 0.52410232E+00 0.64509486E+01</pdfrwt>
<pdfrwt beam="2">  1       -1 0.34997374E+00 0.64509486E+01</pdfrwt>
<totfact> 0.29604252E-02</totfact>
</mgrwt>
</event>
<event>
 4    1  0.4367748E-004  0.6285734E+01  0.7818608E-02  0.2379655E+00
         -1   -1    0    0    0  501 -0.00000000000E+00  0.00000000000E+00  0.38303568223E+02  0.38303568555E+02  0.50400000000E-02 0. -1.
          1   -1    0    0  501    0  0.00000000000E+00 -0.00000000000E+00 -0.25785217487E+00  0.25790142630E+00  0.50400000000E-02 0.  1.
         31    1    1    2    0    0 -0.13066721184E+01  0.18069659221E+00  0.21359476921E+02  0.21586101956E+02  0.28271010000E+01 0.  1.
        -31    1    1    2    0    0  0.13066721184E+01 -0.18069659221E+00  0.16686239128E+02  0.16975368025E+02  0.28271010000E+01 0.  1.
<mgrwt>
<rscale>  0 0.62857344E+01</rscale>
<asrwt>0</asrwt>
<pdfrwt beam="2">  1        1 0.54616724E+00 0.62857344E+01</pdfrwt>
<pdfrwt beam="1">  1       -1 0.31885321E+00 0.62857344E+01</pdfrwt>
<totfact> 0.36044448E-02</totfact>
</mgrwt>
</event>
<event>
 4    1  0.4367748E-004  0.6732313E+01  0.7818608E-02  0.2328857E+00
         -1   -1    0    0    0  501 -0.00000000000E+00  0.00000000000E+00  0.70112926875E+02  0.70112927056E+02  0.50400000000E-02 0. -1.
          1   -1    0    0  501    0  0.00000000000E+00 -0.00000000000E+00 -0.16157137359E+00  0.16164996246E+00  0.50400000000E-02 0.  1.
         31    1    1    2    0    0 -0.13443099147E+01  0.10979900249E+01  0.29017935315E+02  0.29206948167E+02  0.28271010000E+01 0.  1.
        -31    1    1    2    0    0  0.13443099147E+01 -0.10979900249E+01  0.40933420186E+02  0.41067628851E+02  0.28271010000E+01 0.  1.
<mgrwt>
<rscale>  0 0.67323130E+01</rscale>
<asrwt>0</asrwt>
<pdfrwt beam="2">  1        1 0.34379339E+00 0.67323130E+01</pdfrwt>
<pdfrwt beam="1">  1       -1 0.58107937E+00 0.67323130E+01</pdfrwt>
<totfact> 0.52424876E-03</totfact>
</mgrwt>
</event>
<event>
 4    1  0.4367748E-004  0.5810059E+01  0.7818608E-02  0.2440820E+00
          1   -1    0    0  501    0  0.00000000000E+00  0.00000000000E+00  0.67451563117E+02  0.67451563305E+02  0.50400000000E-02 0. -1.
         -1   -1    0    0    0  501 -0.00000000000E+00 -0.00000000000E+00 -0.12506394788E+00  0.12516546113E+00  0.50400000000E-02 0.  1.
         31    1    1    2    0    0  0.43861715150E+00  0.29195504279E+00  0.28880772867E+02  0.29023596679E+02  0.28271010000E+01 0.  1.
        -31    1    1    2    0    0 -0.43861715150E+00 -0.29195504279E+00  0.38445726303E+02  0.38553132087E+02  0.28271010000E+01 0.  1.
<mgrwt>
<rscale>  0 0.58100586E+01</rscale>
<asrwt>0</asrwt>
<pdfrwt beam="1">  1        1 0.55877167E+00 0.58100586E+01</pdfrwt>
<pdfrwt beam="2">  1       -1 0.26627538E+00 0.58100586E+01</pdfrwt>
<totfact> 0.64139123E-02</totfact>
</mgrwt>
</event>
<event>
 4    1  0.4367748E-004  0.6682623E+01  0.7818608E-02  0.2334231E+00
         -1   -1    0    0    0  501 -0.00000000000E+00  0.00000000000E+00  0.40936316711E+02  0.40936317022E+02  0.50400000000E-02 0. -1.
          1   -1    0    0  501    0  0.00000000000E+00 -0.00000000000E+00 -0.27270157673E+00  0.27274814674E+00  0.50400000000E-02 0.  1.
         31    1    1    2    0    0 -0.89510998548E+00 -0.44408572006E+00  0.29422952864E+02  0.29575345971E+02  0.28271010000E+01 0. -1.
        -31    1    1    2    0    0  0.89510998548E+00  0.44408572006E+00  0.11240662271E+02  0.11633719198E+02  0.28271010000E+01 0.  1.
<mgrwt>
<rscale>  0 0.66826235E+01</rscale>
<asrwt>0</asrwt>
<pdfrwt beam="2">  1        1 0.57765480E+00 0.66826235E+01</pdfrwt>
<pdfrwt beam="1">  1       -1 0.34074538E+00 0.66826235E+01</pdfrwt>
<totfact> 0.19135532E-02</totfact>
</mgrwt>
</event>
<event>
 4    1  0.4367748E-004  0.6667322E+01  0.7818608E-02  0.2335899E+00
         -1   -1    0    0    0  501 -0.00000000000E+00  0.00000000000E+00  0.31249372352E+02  0.31249372758E+02  0.50400000000E-02 0. -1.
          1   -1    0    0  501    0  0.00000000000E+00 -0.00000000000E+00 -0.35561437873E+00  0.35565009203E+00  0.50400000000E-02 0.  1.
         31    1    1    2    0    0  0.13545921730E+01 -0.10961791468E+00  0.20797025097E+02  0.21032253541E+02  0.28271010000E+01 0. -1.
        -31    1    1    2    0    0 -0.13545921730E+01  0.10961791468E+00  0.10096732876E+02  0.10572769309E+02  0.28271010000E+01 0.  1.
<mgrwt>
<rscale>  0 0.66673224E+01</rscale>
<asrwt>0</asrwt>
<pdfrwt beam="2">  1        1 0.74974567E+00 0.66673224E+01</pdfrwt>
<pdfrwt beam="1">  1       -1 0.26133244E+00 0.66673224E+01</pdfrwt>
<totfact> 0.63211945E-03</totfact>
</mgrwt>
</event>
<event>
 4    1  0.4367748E-004  0.6427969E+01  0.7818608E-02  0.2362842E+00
         -1   -1    0    0    0  501 -0.00000000000E+00  0.00000000000E+00  0.38393000566E+02  0.38393000897E+02  0.50400000000E-02 0. -1.
          1   -1    0    0  501    0  0.00000000000E+00 -0.00000000000E+00 -0.26902759779E+00  0.26907480368E+00  0.50400000000E-02 0.  1.
         31    1    1    2    0    0 -0.15066475976E+01 -0.19880757289E+00  0.18061233262E+02  0.18344213214E+02  0.28271010000E+01 0.  1.
        -31    1    1    2    0    0  0.15066475976E+01  0.19880757289E+00  0.20062739707E+02  0.20317862487E+02  0.28271010000E+01 0.  1.
<mgrwt>
<rscale>  0 0.64279688E+01</rscale>
<asrwt>0</asrwt>
<pdfrwt beam="2">  1        1 0.56967809E+00 0.64279688E+01</pdfrwt>
<pdfrwt beam="1">  1       -1 0.31968509E+00 0.64279688E+01</pdfrwt>
<totfact> 0.27789085E-02</totfact>
</mgrwt>
</event>
<event>
 4    1  0.4367748E-004  0.6070901E+01  0.7818608E-02  0.2406286E+00
          1   -1    0    0  501    0  0.00000000000E+00  0.00000000000E+00  0.44889267113E+02  0.44889267396E+02  0.50400000000E-02 0.  1.
         -1   -1    0    0    0  501 -0.00000000000E+00 -0.00000000000E+00 -0.20522852550E+00  0.20529040231E+00  0.50400000000E-02 0. -1.
         31    1    1    2    0    0  0.10808619617E+01 -0.21744880755E+00  0.21770836550E+02  0.21981295929E+02  0.28271010000E+01 0.  1.
        -31    1    1    2    0    0 -0.10808619617E+01  0.21744880755E+00  0.22913202037E+02  0.23113261869E+02  0.28271010000E+01 0.  1.
<mgrwt>
<rscale>  0 0.60709010E+01</rscale>
<asrwt>0</asrwt>
<pdfrwt beam="1">  1        1 0.37287335E+00 0.60709010E+01</pdfrwt>
<pdfrwt beam="2">  1       -1 0.43566165E+00 0.60709010E+01</pdfrwt>
<totfact> 0.36532101E-02</totfact>
</mgrwt>
</event>
<event>
 4    1  0.4367748E-004  0.6329206E+01  0.7818608E-02  0.2374450E+00
         -1   -1    0    0    0  501 -0.00000000000E+00  0.00000000000E+00  0.29346970050E+02  0.29346970482E+02  0.50400000000E-02 0. -1.
          1   -1    0    0  501    0  0.00000000000E+00 -0.00000000000E+00 -0.34123297289E+00  0.34127019118E+00  0.50400000000E-02 0.  1.
         31    1    1    2    0    0  0.31935500339E+00 -0.45191609338E+00  0.83582706540E+01  0.88407807440E+01  0.28271010000E+01 0.  1.
        -31    1    1    2    0    0 -0.31935500339E+00  0.45191609338E+00  0.20647466423E+02  0.20847459930E+02  0.28271010000E+01 0. -1.
<mgrwt>
<rscale>  0 0.63292062E+01</rscale>
<asrwt>0</asrwt>
<pdfrwt beam="2">  1        1 0.71925219E+00 0.63292062E+01</pdfrwt>
<pdfrwt beam="1">  1       -1 0.24548315E+00 0.63292062E+01</pdfrwt>
<totfact> 0.12374722E-02</totfact>
</mgrwt>
</event>
<event>
 4    1  0.4367748E-004  0.5920790E+01  0.7818608E-02  0.2425848E+00
         -1   -1    0    0    0  501 -0.00000000000E+00  0.00000000000E+00  0.33556520043E+02  0.33556520422E+02  0.50400000000E-02 0.  1.
          1   -1    0    0  501    0  0.00000000000E+00 -0.00000000000E+00 -0.26114473068E+00  0.26119336126E+00  0.50400000000E-02 0. -1.
         31    1    1    2    0    0  0.50457712427E+00 -0.37053131107E+00  0.20166503493E+02  0.20373322132E+02  0.28271010000E+01 0.  1.
        -31    1    1    2    0    0 -0.50457712427E+00  0.37053131107E+00  0.13128871820E+02  0.13444391650E+02  0.28271010000E+01 0.  1.
<mgrwt>
<rscale>  0 0.59207895E+01</rscale>
<asrwt>0</asrwt>
<pdfrwt beam="2">  1        1 0.55256346E+00 0.59207895E+01</pdfrwt>
<pdfrwt beam="1">  1       -1 0.27962852E+00 0.59207895E+01</pdfrwt>
<totfact> 0.57162767E-02</totfact>
</mgrwt>
</event>
<event>
 4    1  0.4367748E-004  0.6873346E+01  0.7818608E-02  0.2313955E+00
         -1   -1    0    0    0  501 -0.00000000000E+00  0.00000000000E+00  0.53129986699E+02  0.53129986938E+02  0.50400000000E-02 0.  1.
          1   -1    0    0  501    0  0.00000000000E+00 -0.00000000000E+00 -0.22226979705E+00  0.22232693107E+00  0.50400000000E-02 0. -1.
         31    1    1    2    0    0  0.40026000976E+00  0.99110461036E+00  0.39150995597E+02  0.39267485948E+02  0.28271010000E+01 0.  1.
        -31    1    1    2    0    0 -0.40026000976E+00 -0.99110461036E+00  0.13756721305E+02  0.14084827921E+02  0.28271010000E+01 0. -1.
<mgrwt>
<rscale>  0 0.68733462E+01</rscale>
<asrwt>0</asrwt>
<pdfrwt beam="2">  1        1 0.47200907E+00 0.68733462E+01</pdfrwt>
<pdfrwt beam="1">  1       -1 0.44115426E+00 0.68733462E+01</pdfrwt>
<totfact> 0.13294458E-02</totfact>
</mgrwt>
</event>
<event>
 4    1  0.4367748E-004  0.5995451E+01  0.7818608E-02  0.2416016E+00
         -1   -1    0    0    0  501 -0.00000000000E+00  0.00000000000E+00  0.57564213772E+02  0.57564213993E+02  0.50400000000E-02 0.  1.
          1   -1    0    0  501    0  0.00000000000E+00 -0.00000000000E+00 -0.15606923950E+00  0.15615059755E+00  0.50400000000E-02 0. -1.
         31    1    1    2    0    0  0.44858556376E+00 -0.52975306623E+00  0.21815360894E+02  0.22008733229E+02  0.28271010000E+01 0. -1.
        -31    1    1    2    0    0 -0.44858556376E+00  0.52975306623E+00  0.35592783638E+02  0.35711631362E+02  0.28271010000E+01 0.  1.
<mgrwt>
<rscale>  0 0.59954508E+01</rscale>
<asrwt>0</asrwt>
<pdfrwt beam="2">  1        1 0.33195696E+00 0.59954508E+01</pdfrwt>
<pdfrwt beam="1">  1       -1 0.47727236E+00 0.59954508E+01</pdfrwt>
<totfact> 0.27741038E-02</totfact>
</mgrwt>
</event>
<event>
 4    1  0.4367748E-004  0.5930935E+01  0.7818608E-02  0.2424500E+00
          1   -1    0    0  501    0  0.00000000000E+00  0.00000000000E+00  0.55665258811E+02  0.55665259040E+02  0.50400000000E-02 0.  1.
         -1   -1    0    0    0  501 -0.00000000000E+00 -0.00000000000E+00 -0.15793959724E+00  0.15801999233E+00  0.50400000000E-02 0. -1.
         31    1    1    2    0    0 -0.59352642983E+00  0.64988626931E+00  0.29296604744E+02  0.29445851582E+02  0.28271010000E+01 0. -1.
        -31    1    1    2    0    0  0.59352642983E+00 -0.64988626931E+00  0.26210714470E+02  0.26377427450E+02  0.28271010000E+01 0. -1.
<mgrwt>
<rscale>  0 0.59309355E+01</rscale>
<asrwt>0</asrwt>
<pdfrwt beam="1">  1        1 0.46158593E+00 0.59309355E+01</pdfrwt>
<pdfrwt beam="2">  1       -1 0.33589089E+00 0.59309355E+01</pdfrwt>
<totfact> 0.66367746E-02</totfact>
</mgrwt>
</event>
<event>
 4    1  0.4367748E-004  0.5697523E+01  0.7818608E-02  0.2456536E+00
          1   -1    0    0  501    0  0.00000000000E+00  0.00000000000E+00  0.85253599717E+02  0.85253599866E+02  0.50400000000E-02 0.  1.
         -1   -1    0    0    0  501 -0.00000000000E+00 -0.00000000000E+00 -0.95124930420E-01  0.95258353899E-01  0.50400000000E-02 0. -1.
         31    1    1    2    0    0 -0.34196069961E+00 -0.57403546437E-01  0.41799340121E+02  0.41896271515E+02  0.28271010000E+01 0.  1.
        -31    1    1    2    0    0  0.34196069961E+00  0.57403546437E-01  0.43359134666E+02  0.43452586705E+02  0.28271010000E+01 0. -1.
<mgrwt>
<rscale>  0 0.56975233E+01</rscale>
<asrwt>0</asrwt>
<pdfrwt beam="1">  1        1 0.70572408E+00 0.56975233E+01</pdfrwt>
<pdfrwt beam="2">  1       -1 0.20274104E+00 0.56975233E+01</pdfrwt>
<totfact> 0.27643262E-02</totfact>
</mgrwt>
</event>
<event>
 4    1  0.4367748E-004  0.7632681E+01  0.7818608E-02  0.2241573E+00
         -1   -1    0    0    0  501 -0.00000000000E+00  0.00000000000E+00  0.49636890449E+02  0.49636890705E+02  0.50400000000E-02 0.  1.
          1   -1    0    0  501    0  0.00000000000E+00 -0.00000000000E+00 -0.29339810263E+00  0.29344138807E+00  0.50400000000E-02 0. -1.
         31    1    1    2    0    0 -0.11684423397E+01 -0.13112704753E+01  0.36887774235E+02  0.37037617037E+02  0.28271010000E+01 0.  1.
        -31    1    1    2    0    0  0.11684423397E+01  0.13112704753E+01  0.12455718112E+02  0.12892715056E+02  0.28271010000E+01 0. -1.
<mgrwt>
<rscale>  0 0.76326814E+01</rscale>
<asrwt>0</asrwt>
<pdfrwt beam="2">  1        1 0.62195217E+00 0.76326814E+01</pdfrwt>
<pdfrwt beam="1">  1       -1 0.41285892E+00 0.76326814E+01</pdfrwt>
<totfact> 0.41480475E-03</totfact>
</mgrwt>
</event>
<event>
 4    1  0.4367748E-004  0.6079041E+01  0.7818608E-02  0.2405248E+00
          1   -1    0    0  501    0  0.00000000000E+00  0.00000000000E+00  0.58209600649E+02  0.58209600867E+02  0.50400000000E-02 0.  1.
         -1   -1    0    0    0  501 -0.00000000000E+00 -0.00000000000E+00 -0.15867389904E+00  0.15875392228E+00  0.50400000000E-02 0. -1.
         31    1    1    2    0    0  0.48472546721E+00 -0.18517023750E+00  0.19535246814E+02  0.19745572034E+02  0.28271010000E+01 0. -1.
        -31    1    1    2    0    0 -0.48472546721E+00  0.18517023750E+00  0.38515679936E+02  0.38622782756E+02  0.28271010000E+01 0.  1.
<mgrwt>
<rscale>  0 0.60790414E+01</rscale>
<asrwt>0</asrwt>
<pdfrwt beam="1">  1        1 0.48263040E+00 0.60790414E+01</pdfrwt>
<pdfrwt beam="2">  1       -1 0.33748923E+00 0.60790414E+01</pdfrwt>
<totfact> 0.53048369E-02</totfact>
</mgrwt>
</event>
<event>
 4    1  0.4367748E-004  0.5778072E+01  0.7818608E-02  0.2445235E+00
          1   -1    0    0  501    0  0.00000000000E+00  0.00000000000E+00  0.25348989322E+02  0.25348989823E+02  0.50400000000E-02 0. -1.
         -1   -1    0    0    0  501 -0.00000000000E+00 -0.00000000000E+00 -0.32924493497E+00  0.32928350824E+00  0.50400000000E-02 0.  1.
         31    1    1    2    0    0  0.50712031385E+00 -0.23655386748E+00  0.11611119175E+02  0.11963432505E+02  0.28271010000E+01 0.  1.
        -31    1    1    2    0    0 -0.50712031385E+00  0.23655386748E+00  0.13408625212E+02  0.13714840826E+02  0.28271010000E+01 0.  1.
<mgrwt>
<rscale>  0 0.57780717E+01</rscale>
<asrwt>0</asrwt>
<pdfrwt beam="1">  1        1 0.21232593E+00 0.57780717E+01</pdfrwt>
<pdfrwt beam="2">  1       -1 0.69305419E+00 0.57780717E+01</pdfrwt>
<totfact> 0.73631870E-03</totfact>
</mgrwt>
</event>
<event>
 4    1  0.4367748E-004  0.5813572E+01  0.7818608E-02  0.2440338E+00
          1   -1    0    0  501    0  0.00000000000E+00  0.00000000000E+00  0.48596135295E+02  0.48596135557E+02  0.50400000000E-02 0. -1.
         -1   -1    0    0    0  501 -0.00000000000E+00 -0.00000000000E+00 -0.17383309044E+00  0.17390613828E+00  0.50400000000E-02 0.  1.
         31    1    1    2    0    0 -0.19597816776E+00 -0.63398537412E+00  0.25290664426E+02  0.25456837040E+02  0.28271010000E+01 0. -1.
        -31    1    1    2    0    0  0.19597816776E+00  0.63398537412E+00  0.23131637779E+02  0.23313204655E+02  0.28271010000E+01 0.  1.
<mgrwt>
<rscale>  0 0.58135717E+01</rscale>
<asrwt>0</asrwt>
<pdfrwt beam="1">  1        1 0.40326483E+00 0.58135717E+01</pdfrwt>
<pdfrwt beam="2">  1       -1 0.36940274E+00 0.58135717E+01</pdfrwt>
<totfact> 0.72209234E-02</totfact>
</mgrwt>
</event>
<event>
 4    1  0.4367748E-004  0.6361023E+01  0.7818608E-02  0.2370678E+00
         -1   -1    0    0    0  501 -0.00000000000E+00  0.00000000000E+00  0.43725395001E+02  0.43725395291E+02  0.50400000000E-02 0.  1.
          1   -1    0    0  501    0  0.00000000000E+00 -0.00000000000E+00 -0.23131731449E+00  0.23137221437E+00  0.50400000000E-02 0. -1.
         31    1    1    2    0    0 -0.54866070922E+00  0.11956273326E+01  0.17417174988E+02  0.17694096131E+02  0.28271010000E+01 0. -1.
        -31    1    1    2    0    0  0.54866070922E+00 -0.11956273326E+01  0.26076902699E+02  0.26262671374E+02  0.28271010000E+01 0.  1.
<mgrwt>
<rscale>  0 0.63610232E+01</rscale>
<asrwt>0</asrwt>
<pdfrwt beam="2">  1        1 0.49067663E+00 0.63610232E+01</pdfrwt>
<pdfrwt beam="1">  1       -1 0.36346531E+00 0.63610232E+01</pdfrwt>
<totfact> 0.34324860E-02</totfact>
</mgrwt>
</event>
<event>
 4    1  0.4367748E-004  0.6390118E+01  0.7818608E-02  0.2367256E+00
         -1   -1    0    0    0  501 -0.00000000000E+00  0.00000000000E+00  0.39356949142E+02  0.39356949464E+02  0.50400000000E-02 0. -1.
          1   -1    0    0  501    0  0.00000000000E+00 -0.00000000000E+00 -0.25935510129E+00  0.25940406736E+00  0.50400000000E-02 0.  1.
         31    1    1    2    0    0  0.76409148388E+00 -0.50600299806E+00  0.12276374630E+02  0.12630983689E+02  0.28271010000E+01 0.  1.
        -31    1    1    2    0    0 -0.76409148388E+00  0.50600299806E+00  0.26821219410E+02  0.26985369842E+02  0.28271010000E+01 0. -1.
<mgrwt>
<rscale>  0 0.63901179E+01</rscale>
<asrwt>0</asrwt>
<pdfrwt beam="2">  1        1 0.54942753E+00 0.63901179E+01</pdfrwt>
<pdfrwt beam="1">  1       -1 0.32757573E+00 0.63901179E+01</pdfrwt>
<totfact> 0.30953505E-02</totfact>
</mgrwt>
</event>
<event>
 4    1  0.4367748E-004  0.6645787E+01  0.7818608E-02  0.2338257E+00
         -1   -1    0    0    0  501 -0.00000000000E+00  0.00000000000E+00  0.44750620079E+02  0.44750620363E+02  0.50400000000E-02 0. -1.
          1   -1    0    0  501    0  0.00000000000E+00 -0.00000000000E+00 -0.24671072992E+00  0.24676220509E+00  0.50400000000E-02 0.  1.
         31    1    1    2    0    0 -0.13523891108E+01 -0.17048705623E+00  0.29641453757E+02  0.29807151877E+02  0.28271010000E+01 0.  1.
        -31    1    1    2    0    0  0.13523891108E+01  0.17048705623E+00  0.14862455592E+02  0.15190230691E+02  0.28271010000E+01 0.  1.
<mgrwt>
<rscale>  0 0.66457874E+01</rscale>
<asrwt>0</asrwt>
<pdfrwt beam="2">  1        1 0.52320611E+00 0.66457874E+01</pdfrwt>
<pdfrwt beam="1">  1       -1 0.37206984E+00 0.66457874E+01</pdfrwt>
<totfact> 0.21971017E-02</totfact>
</mgrwt>
</event>
<event>
 4    1  0.4367748E-004  0.6527017E+01  0.7818608E-02  0.2351495E+00
          1   -1    0    0  501    0  0.00000000000E+00  0.00000000000E+00  0.44713045263E+02  0.44713045547E+02  0.50400000000E-02 0. -1.
         -1   -1    0    0    0  501 -0.00000000000E+00 -0.00000000000E+00 -0.23816947272E+00  0.23822279349E+00  0.50400000000E-02 0.  1.
         31    1    1    2    0    0 -0.15020983848E+01 -0.46753688496E+00  0.25184353235E+02  0.25391318166E+02  0.28271010000E+01 0. -1.
        -31    1    1    2    0    0  0.15020983848E+01  0.46753688496E+00  0.19290522556E+02  0.19559950175E+02  0.28271010000E+01 0. -1.
<mgrwt>
<rscale>  0 0.65270168E+01</rscale>
<asrwt>0</asrwt>
<pdfrwt beam="1">  1        1 0.37168854E+00 0.65270168E+01</pdfrwt>
<pdfrwt beam="2">  1       -1 0.50518993E+00 0.65270168E+01</pdfrwt>
<totfact> 0.12474095E-02</totfact>
</mgrwt>
</event>
<event>
 4    1  0.4367748E-004  0.6044626E+01  0.7818608E-02  0.2409651E+00
         -1   -1    0    0    0  501 -0.00000000000E+00  0.00000000000E+00  0.43933739407E+02  0.43933739696E+02  0.50400000000E-02 0.  1.
          1   -1    0    0  501    0  0.00000000000E+00 -0.00000000000E+00 -0.20788173605E+00  0.20794282335E+00  0.50400000000E-02 0. -1.
         31    1    1    2    0    0  0.91685386780E+00  0.52992793518E+00  0.22906769835E+02  0.23104849036E+02  0.28271010000E+01 0.  1.
        -31    1    1    2    0    0 -0.91685386780E+00 -0.52992793518E+00  0.20819087836E+02  0.21036833484E+02  0.28271010000E+01 0. -1.
<mgrwt>
<rscale>  0 0.60446263E+01</rscale>
<asrwt>0</asrwt>
<pdfrwt beam="2">  1        1 0.44122203E+00 0.60446263E+01</pdfrwt>
<pdfrwt beam="1">  1       -1 0.36499432E+00 0.60446263E+01</pdfrwt>
<totfact> 0.54044013E-02</totfact>
</mgrwt>
</event>
<event>
 4    1  0.4367748E-004  0.6000673E+01  0.7818608E-02  0.2415336E+00
          1   -1    0    0  501    0  0.00000000000E+00  0.00000000000E+00  0.24283763704E+02  0.24283764227E+02  0.50400000000E-02 0.  1.
         -1   -1    0    0    0  501 -0.00000000000E+00 -0.00000000000E+00 -0.37068347509E+00  0.37071773670E+00  0.50400000000E-02 0. -1.
         31    1    1    2    0    0 -0.41717752882E+00 -0.42610118436E+00  0.15278986810E+02  0.15549776118E+02  0.28271010000E+01 0.  1.
        -31    1    1    2    0    0  0.41717752882E+00  0.42610118436E+00  0.86340934192E+01  0.91047058461E+01  0.28271010000E+01 0. -1.
<mgrwt>
<rscale>  0 0.60006729E+01</rscale>
<asrwt>0</asrwt>
<pdfrwt beam="1">  1        1 0.20386051E+00 0.60006729E+01</pdfrwt>
<pdfrwt beam="2">  1       -1 0.77852253E+00 0.60006729E+01</pdfrwt>
<totfact> 0.51782571E-03</totfact>
</mgrwt>
</event>
<event>
 4    1  0.4367748E-004  0.6099510E+01  0.7818608E-02  0.2402649E+00
         -1   -1    0    0    0  501 -0.00000000000E+00  0.00000000000E+00  0.42058214072E+02  0.42058214374E+02  0.50400000000E-02 0.  1.
          1   -1    0    0  501    0  0.00000000000E+00 -0.00000000000E+00 -0.22111694821E+00  0.22117438004E+00  0.50400000000E-02 0. -1.
         31    1    1    2    0    0 -0.28016236427E+00  0.54701222722E+00  0.27605988163E+02  0.27757175574E+02  0.28271010000E+01 0.  1.
        -31    1    1    2    0    0  0.28016236427E+00 -0.54701222722E+00  0.14231108960E+02  0.14522213179E+02  0.28271010000E+01 0.  1.
<mgrwt>
<rscale>  0 0.60995096E+01</rscale>
<asrwt>0</asrwt>
<pdfrwt beam="2">  1        1 0.46905990E+00 0.60995096E+01</pdfrwt>
<pdfrwt beam="1">  1       -1 0.34959557E+00 0.60995096E+01</pdfrwt>
<totfact> 0.51286086E-02</totfact>
</mgrwt>
</event>
<event>
 4    1  0.4367748E-004  0.6335866E+01  0.7818608E-02  0.2373658E+00
         -1   -1    0    0    0  501 -0.00000000000E+00  0.00000000000E+00  0.52033724734E+02  0.52033724978E+02  0.50400000000E-02 0. -1.
          1   -1    0    0  501    0  0.00000000000E+00 -0.00000000000E+00 -0.19283790752E+00  0.19290375884E+00  0.50400000000E-02 0.  1.
         31    1    1    2    0    0  0.15601593883E+00 -0.18974175916E+00  0.14312836315E+02  0.14591440174E+02  0.28271010000E+01 0.  1.
        -31    1    1    2    0    0 -0.15601593883E+00  0.18974175916E+00  0.37528050511E+02  0.37635188562E+02  0.28271010000E+01 0. -1.
<mgrwt>
<rscale>  0 0.63358663E+01</rscale>
<asrwt>0</asrwt>
<pdfrwt beam="2">  1        1 0.40972002E+00 0.63358663E+01</pdfrwt>
<pdfrwt beam="1">  1       -1 0.43184631E+00 0.63358663E+01</pdfrwt>
<totfact> 0.27633504E-02</totfact>
</mgrwt>
</event>
<event>
 4    1  0.4367748E-004  0.5903670E+01  0.7818608E-02  0.2428132E+00
          1   -1    0    0  501    0  0.00000000000E+00  0.00000000000E+00  0.46520208434E+02  0.46520208707E+02  0.50400000000E-02 0. -1.
         -1   -1    0    0    0  501 -0.00000000000E+00 -0.00000000000E+00 -0.18726785700E+00  0.18733566629E+00  0.50400000000E-02 0.  1.
         31    1    1    2    0    0  0.50207748015E+00  0.67655393915E+00  0.23997100045E+02  0.24177740127E+02  0.28271010000E+01 0. -1.
        -31    1    1    2    0    0 -0.50207748015E+00 -0.67655393915E+00  0.22335840532E+02  0.22529804246E+02  0.28271010000E+01 0.  1.
<mgrwt>
<rscale>  0 0.59036699E+01</rscale>
<asrwt>0</asrwt>
<pdfrwt beam="1">  1        1 0.38621066E+00 0.59036699E+01</pdfrwt>
<pdfrwt beam="2">  1       -1 0.39776290E+00 0.59036699E+01</pdfrwt>
<totfact> 0.56528819E-02</totfact>
</mgrwt>
</event>
<event>
 4    1  0.4367748E-004  0.5798832E+01  0.7818608E-02  0.2442365E+00
          1   -1    0    0  501    0  0.00000000000E+00  0.00000000000E+00  0.62946590227E+02  0.62946590429E+02  0.50400000000E-02 0.  1.
         -1   -1    0    0    0  501 -0.00000000000E+00 -0.00000000000E+00 -0.13350378431E+00  0.13359888482E+00  0.50400000000E-02 0. -1.
         31    1    1    2    0    0 -0.35274577401E+00 -0.18596555188E+00  0.36900794718E+02  0.37011081633E+02  0.28271010000E+01 0.  1.
        -31    1    1    2    0    0  0.35274577401E+00  0.18596555188E+00  0.25912291725E+02  0.26069107680E+02  0.28271010000E+01 0. -1.
<mgrwt>
<rscale>  0 0.57988322E+01</rscale>
<asrwt>0</asrwt>
<pdfrwt beam="1">  1        1 0.52159114E+00 0.57988322E+01</pdfrwt>
<pdfrwt beam="2">  1       -1 0.28415498E+00 0.57988322E+01</pdfrwt>
<totfact> 0.73872355E-02</totfact>
</mgrwt>
</event>
<event>
 4    1  0.4367748E-004  0.6571206E+01  0.7818608E-02  0.2346523E+00
          1   -1    0    0  501    0  0.00000000000E+00  0.00000000000E+00  0.62735063356E+02  0.62735063558E+02  0.50400000000E-02 0.  1.
         -1   -1    0    0    0  501 -0.00000000000E+00 -0.00000000000E+00 -0.17203872901E+00  0.17211253841E+00  0.50400000000E-02 0. -1.
         31    1    1    2    0    0 -0.42290340038E+00 -0.60232511923E+00  0.45676448371E+02  0.45769772544E+02  0.28271010000E+01 0.  1.
        -31    1    1    2    0    0  0.42290340038E+00  0.60232511923E+00  0.16886576256E+02  0.17137403553E+02  0.28271010000E+01 0. -1.
<mgrwt>
<rscale>  0 0.65712064E+01</rscale>
<asrwt>0</asrwt>
<pdfrwt beam="1">  1        1 0.52016055E+00 0.65712064E+01</pdfrwt>
<pdfrwt beam="2">  1       -1 0.36589561E+00 0.65712064E+01</pdfrwt>
<totfact> 0.24706959E-02</totfact>
</mgrwt>
</event>
<event>
 4    1  0.4367748E-004  0.6823054E+01  0.7818608E-02  0.2319211E+00
         -1   -1    0    0    0  501 -0.00000000000E+00  0.00000000000E+00  0.32565672283E+02  0.32565672673E+02  0.50400000000E-02 0.  1.
          1   -1    0    0  501    0  0.00000000000E+00 -0.00000000000E+00 -0.35736791631E+00  0.35740345438E+00  0.50400000000E-02 0. -1.
         31    1    1    2    0    0  0.96030552933E+00  0.11908417874E+01  0.10590393508E+02  0.11067485062E+02  0.28271010000E+01 0. -1.
        -31    1    1    2    0    0 -0.96030552933E+00 -0.11908417874E+01  0.21617910859E+02  0.21855591066E+02  0.28271010000E+01 0.  1.
<mgrwt>
<rscale>  0 0.68230544E+01</rscale>
<asrwt>0</asrwt>
<pdfrwt beam="2">  1        1 0.75374497E+00 0.68230544E+01</pdfrwt>
<pdfrwt beam="1">  1       -1 0.27223103E+00 0.68230544E+01</pdfrwt>
<totfact> 0.51107766E-03</totfact>
</mgrwt>
</event>
<event>
 4    1  0.4367748E-004  0.6726603E+01  0.7818608E-02  0.2329471E+00
         -1   -1    0    0    0  501 -0.00000000000E+00  0.00000000000E+00  0.59170124678E+02  0.59170124893E+02  0.50400000000E-02 0.  1.
          1   -1    0    0  501    0  0.00000000000E+00 -0.00000000000E+00 -0.19114070720E+00  0.19120714304E+00  0.50400000000E-02 0. -1.
         31    1    1    2    0    0 -0.16385680685E+01  0.79605886464E+00  0.29720057473E+02  0.29909746426E+02  0.28271010000E+01 0.  1.
        -31    1    1    2    0    0  0.16385680685E+01 -0.79605886464E+00  0.29258926498E+02  0.29451585609E+02  0.28271010000E+01 0.  1.
<mgrwt>
<rscale>  0 0.67266032E+01</rscale>
<asrwt>0</asrwt>
<pdfrwt beam="2">  1        1 0.40630779E+00 0.67266032E+01</pdfrwt>
<pdfrwt beam="1">  1       -1 0.49084103E+00 0.67266032E+01</pdfrwt>
<totfact> 0.11405493E-02</totfact>
</mgrwt>
</event>
<event>
 4    1  0.4367748E-004  0.5948862E+01  0.7818608E-02  0.2422127E+00
          1   -1    0    0  501    0  0.00000000000E+00  0.00000000000E+00  0.63548065039E+02  0.63548065238E+02  0.50400000000E-02 0.  1.
         -1   -1    0    0    0  501 -0.00000000000E+00 -0.00000000000E+00 -0.13917541751E+00  0.13926664510E+00  0.50400000000E-02 0. -1.
         31    1    1    2    0    0  0.12623990035E+00 -0.16297679549E+00  0.22055899502E+02  0.22237304262E+02  0.28271010000E+01 0. -1.
        -31    1    1    2    0    0 -0.12623990035E+00  0.16297679549E+00  0.41352990119E+02  0.41450027622E+02  0.28271010000E+01 0.  1.
<mgrwt>
<rscale>  0 0.59488620E+01</rscale>
<asrwt>0</asrwt>
<pdfrwt beam="1">  1        1 0.52661142E+00 0.59488620E+01</pdfrwt>
<pdfrwt beam="2">  1       -1 0.29619785E+00 0.59488620E+01</pdfrwt>
<totfact> 0.59761641E-02</totfact>
</mgrwt>
</event>
<event>
 4    1  0.4367748E-004  0.6069674E+01  0.7818608E-02  0.2406443E+00
         -1   -1    0    0    0  501 -0.00000000000E+00  0.00000000000E+00  0.34836317905E+02  0.34836318270E+02  0.50400000000E-02 0. -1.
          1   -1    0    0  501    0  0.00000000000E+00 -0.00000000000E+00 -0.26436165074E+00  0.26440968965E+00  0.50400000000E-02 0.  1.
         31    1    1    2    0    0 -0.38167248496E-01  0.92760856462E+00  0.20735563313E+02  0.20947983205E+02  0.28271010000E+01 0. -1.
        -31    1    1    2    0    0  0.38167248496E-01 -0.92760856462E+00  0.13836392942E+02  0.14152744755E+02  0.28271010000E+01 0.  1.
<mgrwt>
<rscale>  0 0.60696741E+01</rscale>
<asrwt>0</asrwt>
<pdfrwt beam="2">  1        1 0.55947643E+00 0.60696741E+01</pdfrwt>
<pdfrwt beam="1">  1       -1 0.29023738E+00 0.60696741E+01</pdfrwt>
<totfact> 0.46090737E-02</totfact>
</mgrwt>
</event>
<event>
 4    1  0.4367748E-004  0.8231843E+01  0.7818608E-02  0.2192229E+00
          1   -1    0    0  501    0  0.00000000000E+00  0.00000000000E+00  0.72735292331E+02  0.72735292506E+02  0.50400000000E-02 0.  1.
         -1   -1    0    0    0  501 -0.00000000000E+00 -0.00000000000E+00 -0.23288303200E+00  0.23293756286E+00  0.50400000000E-02 0. -1.
         31    1    1    2    0    0  0.25825300719E+01  0.13306337226E+01  0.42570682521E+02  0.42763250088E+02  0.28271010000E+01 0.  1.
        -31    1    1    2    0    0 -0.25825300719E+01 -0.13306337226E+01  0.29931726778E+02  0.30204979981E+02  0.28271010000E+01 0. -1.
<mgrwt>
<rscale>  0 0.82318434E+01</rscale>
<asrwt>0</asrwt>
<pdfrwt beam="1">  1        1 0.60335238E+00 0.82318434E+01</pdfrwt>
<pdfrwt beam="2">  1       -1 0.49502548E+00 0.82318434E+01</pdfrwt>
<totfact> 0.14305067E-03</totfact>
</mgrwt>
</event>
<event>
 4    1  0.4367748E-004  0.6532264E+01  0.7818608E-02  0.2350901E+00
         -1   -1    0    0    0  501 -0.00000000000E+00  0.00000000000E+00  0.47376933942E+02  0.47376934210E+02  0.50400000000E-02 0.  1.
          1   -1    0    0  501    0  0.00000000000E+00 -0.00000000000E+00 -0.22513634091E+00  0.22519274766E+00  0.50400000000E-02 0. -1.
         31    1    1    2    0    0  0.47456847587E+00  0.15316994961E+01  0.21228099700E+02  0.21475475211E+02  0.28271010000E+01 0. -1.
        -31    1    1    2    0    0 -0.47456847587E+00 -0.15316994961E+01  0.25923697901E+02  0.26126651747E+02  0.28271010000E+01 0.  1.
<mgrwt>
<rscale>  0 0.65322641E+01</rscale>
<asrwt>0</asrwt>
<pdfrwt beam="2">  1        1 0.47782435E+00 0.65322641E+01</pdfrwt>
<pdfrwt beam="1">  1       -1 0.39360769E+00 0.65322641E+01</pdfrwt>
<totfact> 0.25415136E-02</totfact>
</mgrwt>
</event>
<event>
 4    1  0.4367748E-004  0.5823994E+01  0.7818608E-02  0.2438910E+00
          1   -1    0    0  501    0  0.00000000000E+00  0.00000000000E+00  0.39610607900E+02  0.39610608220E+02  0.50400000000E-02 0. -1.
         -1   -1    0    0    0  501 -0.00000000000E+00 -0.00000000000E+00 -0.21404717289E+00  0.21410650112E+00  0.50400000000E-02 0.  1.
         31    1    1    2    0    0  0.29571905243E+00 -0.62515245397E+00  0.20345585937E+02  0.20552703777E+02  0.28271010000E+01 0. -1.
        -31    1    1    2    0    0 -0.29571905243E+00  0.62515245397E+00  0.19050974790E+02  0.19272010945E+02  0.28271010000E+01 0.  1.
<mgrwt>
<rscale>  0 0.58239940E+01</rscale>
<asrwt>0</asrwt>
<pdfrwt beam="1">  1        1 0.32929861E+00 0.58239940E+01</pdfrwt>
<pdfrwt beam="2">  1       -1 0.45400049E+00 0.58239940E+01</pdfrwt>
<totfact> 0.40780921E-02</totfact>
</mgrwt>
</event>
<event>
 4    1  0.4367748E-004  0.6118081E+01  0.7818608E-02  0.2400304E+00
          1   -1    0    0  501    0  0.00000000000E+00  0.00000000000E+00  0.59369652359E+02  0.59369652573E+02  0.50400000000E-02 0.  1.
         -1   -1    0    0    0  501 -0.00000000000E+00 -0.00000000000E+00 -0.15757753052E+00  0.15765811024E+00  0.50400000000E-02 0. -1.
         31    1    1    2    0    0  0.32627461207E-02  0.89903356755E+00  0.36867288367E+02  0.36986453244E+02  0.28271010000E+01 0.  1.
        -31    1    1    2    0    0 -0.32627461207E-02 -0.89903356755E+00  0.22344786462E+02  0.22540857439E+02  0.28271010000E+01 0. -1.
<mgrwt>
<rscale>  0 0.61180807E+01</rscale>
<asrwt>0</asrwt>
<pdfrwt beam="1">  1        1 0.49221345E+00 0.61180807E+01</pdfrwt>
<pdfrwt beam="2">  1       -1 0.33518248E+00 0.61180807E+01</pdfrwt>
<totfact> 0.49843888E-02</totfact>
</mgrwt>
</event>
<event>
 4    1  0.4367748E-004  0.5940589E+01  0.7818608E-02  0.2423221E+00
         -1   -1    0    0    0  501 -0.00000000000E+00  0.00000000000E+00  0.50887110557E+02  0.50887110807E+02  0.50400000000E-02 0. -1.
          1   -1    0    0  501    0  0.00000000000E+00 -0.00000000000E+00 -0.17334002290E+00  0.17341327844E+00  0.50400000000E-02 0.  1.
         31    1    1    2    0    0 -0.90253166367E-01 -0.69874748476E+00  0.20391303374E+02  0.20598401565E+02  0.28271010000E+01 0.  1.
        -31    1    1    2    0    0  0.90253166367E-01  0.69874748476E+00  0.30322467160E+02  0.30462122520E+02  0.28271010000E+01 0. -1.
<mgrwt>
<rscale>  0 0.59405890E+01</rscale>
<asrwt>0</asrwt>
<pdfrwt beam="2">  1        1 0.36841806E+00 0.59405890E+01</pdfrwt>
<pdfrwt beam="1">  1       -1 0.42220414E+00 0.59405890E+01</pdfrwt>
<totfact> 0.46488291E-02</totfact>
</mgrwt>
</event>
<event>
 4    1  0.4367748E-004  0.7017054E+01  0.7818608E-02  0.2299278E+00
         -1   -1    0    0    0  501 -0.00000000000E+00  0.00000000000E+00  0.42209946081E+02  0.42209946382E+02  0.50400000000E-02 0. -1.
          1   -1    0    0  501    0  0.00000000000E+00 -0.00000000000E+00 -0.29160970790E+00  0.29165325875E+00  0.50400000000E-02 0.  1.
         31    1    1    2    0    0 -0.14972290667E+01 -0.11655947574E+00  0.29656634797E+02  0.29828908269E+02  0.28271010000E+01 0. -1.
        -31    1    1    2    0    0  0.14972290667E+01  0.11655947574E+00  0.12261701577E+02  0.12672691372E+02  0.28271010000E+01 0.  1.
<mgrwt>
<rscale>  0 0.70170541E+01</rscale>
<asrwt>0</asrwt>
<pdfrwt beam="2">  1        1 0.61754916E+00 0.70170541E+01</pdfrwt>
<pdfrwt beam="1">  1       -1 0.35143296E+00 0.70170541E+01</pdfrwt>
<totfact> 0.10557400E-02</totfact>
</mgrwt>
</event>
<event>
 4    1  0.4367748E-004  0.5764871E+01  0.7818608E-02  0.2447069E+00
          1   -1    0    0  501    0  0.00000000000E+00  0.00000000000E+00  0.37828599936E+02  0.37828600272E+02  0.50400000000E-02 0.  1.
         -1   -1    0    0    0  501 -0.00000000000E+00 -0.00000000000E+00 -0.21960440657E+00  0.21966223386E+00  0.50400000000E-02 0. -1.
         31    1    1    2    0    0 -0.40977316087E+00  0.21215006265E+00  0.16686189653E+02  0.16930278997E+02  0.28271010000E+01 0. -1.
        -31    1    1    2    0    0  0.40977316087E+00 -0.21215006265E+00  0.20922805876E+02  0.21117983509E+02  0.28271010000E+01 0.  1.
<mgrwt>
<rscale>  0 0.57648708E+01</rscale>
<asrwt>0</asrwt>
<pdfrwt beam="1">  1        1 0.31460966E+00 0.57648708E+01</pdfrwt>
<pdfrwt beam="2">  1       -1 0.46559841E+00 0.57648708E+01</pdfrwt>
<totfact> 0.38813827E-02</totfact>
</mgrwt>
</event>
<event>
 4    1  0.4367748E-004  0.5724428E+01  0.7818608E-02  0.2452732E+00
          1   -1    0    0  501    0  0.00000000000E+00  0.00000000000E+00  0.56106908801E+02  0.56106909028E+02  0.50400000000E-02 0.  1.
         -1   -1    0    0    0  501 -0.00000000000E+00 -0.00000000000E+00 -0.14596805441E+00  0.14605503931E+00  0.50400000000E-02 0. -1.
         31    1    1    2    0    0 -0.87163514920E-01  0.39143309853E+00  0.26041025956E+02  0.26197105761E+02  0.28271010000E+01 0. -1.
        -31    1    1    2    0    0  0.87163514920E-01 -0.39143309853E+00  0.29919914791E+02  0.30055858306E+02  0.28271010000E+01 0. -1.
<mgrwt>
<rscale>  0 0.57244281E+01</rscale>
<asrwt>0</asrwt>
<pdfrwt beam="1">  1        1 0.46513887E+00 0.57244281E+01</pdfrwt>
<pdfrwt beam="2">  1       -1 0.31051742E+00 0.57244281E+01</pdfrwt>
<totfact> 0.90173503E-02</totfact>
</mgrwt>
</event>
<event>
 4    1  0.4367748E-004  0.5789955E+01  0.7818608E-02  0.2443590E+00
         -1   -1    0    0    0  501 -0.00000000000E+00  0.00000000000E+00  0.45508123760E+02  0.45508124039E+02  0.50400000000E-02 0.  1.
          1   -1    0    0  501    0  0.00000000000E+00 -0.00000000000E+00 -0.18412781913E+00  0.18419678439E+00  0.50400000000E-02 0. -1.
         31    1    1    2    0    0 -0.34380116473E+00  0.50192747606E+00  0.21595513048E+02  0.21788272403E+02  0.28271010000E+01 0.  1.
        -31    1    1    2    0    0  0.34380116473E+00 -0.50192747606E+00  0.23728482893E+02  0.23904048420E+02  0.28271010000E+01 0. -1.
<mgrwt>
<rscale>  0 0.57899546E+01</rscale>
<asrwt>0</asrwt>
<pdfrwt beam="2">  1        1 0.39108780E+00 0.57899546E+01</pdfrwt>
<pdfrwt beam="1">  1       -1 0.37781608E+00 0.57899546E+01</pdfrwt>
<totfact> 0.71733324E-02</totfact>
</mgrwt>
</event>
<event>
 4    1  0.4367748E-004  0.6993318E+01  0.7818608E-02  0.2301668E+00
         -1   -1    0    0    0  501 -0.00000000000E+00  0.00000000000E+00  0.35593890730E+02  0.35593891087E+02  0.50400000000E-02 0.  1.
          1   -1    0    0  501    0  0.00000000000E+00 -0.00000000000E+00 -0.34348464684E+00  0.34352162118E+00  0.50400000000E-02 0. -1.
         31    1    1    2    0    0 -0.30104881257E+00 -0.41037698152E-01  0.28083444208E+02  0.28227019912E+02  0.28271010000E+01 0.  1.
        -31    1    1    2    0    0  0.30104881257E+00  0.41037698152E-01  0.71669618752E+01  0.77103927958E+01  0.28271010000E+01 0. -1.
<mgrwt>
<rscale>  0 0.69933185E+01</rscale>
<asrwt>0</asrwt>
<pdfrwt beam="2">  1        1 0.72541573E+00 0.69933185E+01</pdfrwt>
<pdfrwt beam="1">  1       -1 0.29715567E+00 0.69933185E+01</pdfrwt>
<totfact> 0.55599908E-03</totfact>
</mgrwt>
</event>
<event>
 4    1  0.4367748E-004  0.7005313E+01  0.7818608E-02  0.2300459E+00
         -1   -1    0    0    0  501 -0.00000000000E+00  0.00000000000E+00  0.48673210625E+02  0.48673210886E+02  0.50400000000E-02 0.  1.
          1   -1    0    0  501    0  0.00000000000E+00 -0.00000000000E+00 -0.25203518932E+00  0.25208557725E+00  0.50400000000E-02 0. -1.
         31    1    1    2    0    0 -0.18270713324E+01  0.96742155036E+00  0.23897730926E+02  0.24153015083E+02  0.28271010000E+01 0. -1.
        -31    1    1    2    0    0  0.18270713324E+01 -0.96742155036E+00  0.24523444510E+02  0.24772281381E+02  0.28271010000E+01 0. -1.
<mgrwt>
<rscale>  0 0.70053125E+01</rscale>
<asrwt>0</asrwt>
<pdfrwt beam="2">  1        1 0.53467359E+00 0.70053125E+01</pdfrwt>
<pdfrwt beam="1">  1       -1 0.40454858E+00 0.70053125E+01</pdfrwt>
<totfact> 0.12258100E-02</totfact>
</mgrwt>
</event>
<event>
 4    1  0.4367748E-004  0.5989226E+01  0.7818608E-02  0.2416828E+00
         -1   -1    0    0    0  501 -0.00000000000E+00  0.00000000000E+00  0.49313052634E+02  0.49313052892E+02  0.50400000000E-02 0. -1.
          1   -1    0    0  501    0  0.00000000000E+00 -0.00000000000E+00 -0.18181741255E+00  0.18188725383E+00  0.50400000000E-02 0.  1.
         31    1    1    2    0    0 -0.29384380531E+00 -0.88690488563E+00  0.21922922848E+02  0.22124194691E+02  0.28271010000E+01 0.  1.
        -31    1    1    2    0    0  0.29384380531E+00  0.88690488563E+00  0.27208312374E+02  0.27370745455E+02  0.28271010000E+01 0. -1.
<mgrwt>
<rscale>  0 0.59892258E+01</rscale>
<asrwt>0</asrwt>
<pdfrwt beam="2">  1        1 0.38632048E+00 0.59892258E+01</pdfrwt>
<pdfrwt beam="1">  1       -1 0.40925879E+00 0.59892258E+01</pdfrwt>
<totfact> 0.47831959E-02</totfact>
</mgrwt>
</event>
<event>
 4    1  0.4367748E-004  0.6597065E+01  0.7818608E-02  0.2343640E+00
          1   -1    0    0  501    0  0.00000000000E+00  0.00000000000E+00  0.68385416486E+02  0.68385416672E+02  0.50400000000E-02 0.  1.
         -1   -1    0    0    0  501 -0.00000000000E+00 -0.00000000000E+00 -0.15906276297E+00  0.15914259067E+00  0.50400000000E-02 0. -1.
         31    1    1    2    0    0 -0.12687861557E+01 -0.64799207952E+00  0.43737984654E+02  0.43852406019E+02  0.28271010000E+01 0.  1.
        -31    1    1    2    0    0  0.12687861557E+01  0.64799207952E+00  0.24488369070E+02  0.24692153243E+02  0.28271010000E+01 0. -1.
<mgrwt>
<rscale>  0 0.65970647E+01</rscale>
<asrwt>0</asrwt>
<pdfrwt beam="1">  1        1 0.56677437E+00 0.65970647E+01</pdfrwt>
<pdfrwt beam="2">  1       -1 0.33845089E+00 0.65970647E+01</pdfrwt>
<totfact> 0.22204988E-02</totfact>
</mgrwt>
</event>
<event>
 4    1  0.4367748E-004  0.5693359E+01  0.7818608E-02  0.2457128E+00
         -1   -1    0    0    0  501 -0.00000000000E+00  0.00000000000E+00  0.44879709533E+02  0.44879709816E+02  0.50400000000E-02 0. -1.
          1   -1    0    0  501    0  0.00000000000E+00 -0.00000000000E+00 -0.18052687352E+00  0.18059721389E+00  0.50400000000E-02 0.  1.
         31    1    1    2    0    0  0.18142430978E+00  0.22032567388E+00  0.20987312122E+02  0.21178791948E+02  0.28271010000E+01 0.  1.
        -31    1    1    2    0    0 -0.18142430978E+00 -0.22032567388E+00  0.23711870537E+02  0.23881515082E+02  0.28271010000E+01 0. -1.
<mgrwt>
<rscale>  0 0.56933592E+01</rscale>
<asrwt>0</asrwt>
<pdfrwt beam="2">  1        1 0.38345128E+00 0.56933592E+01</pdfrwt>
<pdfrwt beam="1">  1       -1 0.37259015E+00 0.56933592E+01</pdfrwt>
<totfact> 0.82644677E-02</totfact>
</mgrwt>
</event>
<event>
 4    1  0.4367748E-004  0.6238912E+01  0.7818608E-02  0.2385329E+00
         -1   -1    0    0    0  501 -0.00000000000E+00  0.00000000000E+00  0.41104123147E+02  0.41104123456E+02  0.50400000000E-02 0. -1.
          1   -1    0    0  501    0  0.00000000000E+00 -0.00000000000E+00 -0.23671328369E+00  0.23676693239E+00  0.50400000000E-02 0.  1.
         31    1    1    2    0    0  0.57776500703E+00 -0.11217533373E+01  0.22968766280E+02  0.23176472282E+02  0.28271010000E+01 0. -1.
        -31    1    1    2    0    0 -0.57776500703E+00  0.11217533373E+01  0.17898643583E+02  0.18164418106E+02  0.28271010000E+01 0.  1.
<mgrwt>
<rscale>  0 0.62389125E+01</rscale>
<asrwt>0</asrwt>
<pdfrwt beam="2">  1        1 0.50188606E+00 0.62389125E+01</pdfrwt>
<pdfrwt beam="1">  1       -1 0.34183541E+00 0.62389125E+01</pdfrwt>
<totfact> 0.41386538E-02</totfact>
</mgrwt>
</event>
<event>
 4    1  0.4367748E-004  0.6308666E+01  0.7818608E-02  0.2376902E+00
         -1   -1    0    0    0  501 -0.00000000000E+00  0.00000000000E+00  0.45147440200E+02  0.45147440482E+02  0.50400000000E-02 0. -1.
          1   -1    0    0  501    0  0.00000000000E+00 -0.00000000000E+00 -0.22035587048E+00  0.22041350062E+00  0.50400000000E-02 0.  1.
         31    1    1    2    0    0 -0.12299900490E+01  0.65772360716E+00  0.23246086289E+02  0.23458868337E+02  0.28271010000E+01 0.  1.
        -31    1    1    2    0    0  0.12299900490E+01 -0.65772360716E+00  0.21680998041E+02  0.21908985645E+02  0.28271010000E+01 0. -1.
<mgrwt>
<rscale>  0 0.63086661E+01</rscale>
<asrwt>0</asrwt>
<pdfrwt beam="2">  1        1 0.46762101E+00 0.63086661E+01</pdfrwt>
<pdfrwt beam="1">  1       -1 0.37513316E+00 0.63086661E+01</pdfrwt>
<totfact> 0.36496806E-02</totfact>
</mgrwt>
</event>
<event>
 4    1  0.4367748E-004  0.6872723E+01  0.7818608E-02  0.2314020E+00
          1   -1    0    0  501    0  0.00000000000E+00  0.00000000000E+00  0.69165036090E+02  0.69165036274E+02  0.50400000000E-02 0.  1.
         -1   -1    0    0    0  501 -0.00000000000E+00 -0.00000000000E+00 -0.17069310190E+00  0.17076749291E+00  0.50400000000E-02 0. -1.
         31    1    1    2    0    0 -0.73366881284E-01 -0.88834036135E+00  0.16960647651E+02  0.17217740854E+02  0.28271010000E+01 0. -1.
        -31    1    1    2    0    0  0.73366881284E-01  0.88834036135E+00  0.52033695337E+02  0.52118062912E+02  0.28271010000E+01 0.  1.
<mgrwt>
<rscale>  0 0.68727229E+01</rscale>
<asrwt>0</asrwt>
<pdfrwt beam="1">  1        1 0.57331694E+00 0.68727229E+01</pdfrwt>
<pdfrwt beam="2">  1       -1 0.36313430E+00 0.68727229E+01</pdfrwt>
<totfact> 0.14716480E-02</totfact>
</mgrwt>
</event>
<event>
 4    1  0.4367748E-004  0.7533681E+01  0.7818608E-02  0.2250333E+00
         -1   -1    0    0    0  501 -0.00000000000E+00  0.00000000000E+00  0.69820870532E+02  0.69820870714E+02  0.50400000000E-02 0. -1.
          1   -1    0    0  501    0  0.00000000000E+00 -0.00000000000E+00 -0.20318987506E+00  0.20325237250E+00  0.50400000000E-02 0.  1.
         31    1    1    2    0    0 -0.24504575990E+01 -0.18891208090E+00  0.38481856531E+02  0.38663758383E+02  0.28271010000E+01 0.  1.
        -31    1    1    2    0    0  0.24504575990E+01  0.18891208090E+00  0.31135824126E+02  0.31360364703E+02  0.28271010000E+01 0. -1.
<mgrwt>
<rscale>  0 0.75336813E+01</rscale>
<asrwt>0</asrwt>
<pdfrwt beam="2">  1        1 0.43204997E+00 0.75336813E+01</pdfrwt>
<pdfrwt beam="1">  1       -1 0.57900844E+00 0.75336813E+01</pdfrwt>
<totfact> 0.23923193E-03</totfact>
</mgrwt>
</event>
<event>
 4    1  0.4367748E-004  0.5893486E+01  0.7818608E-02  0.2429496E+00
          1   -1    0    0  501    0  0.00000000000E+00  0.00000000000E+00  0.54363142392E+02  0.54363142625E+02  0.50400000000E-02 0. -1.
         -1   -1    0    0    0  501 -0.00000000000E+00 -0.00000000000E+00 -0.15968761844E+00  0.15976713393E+00  0.50400000000E-02 0.  1.
         31    1    1    2    0    0 -0.71227957818E+00 -0.37277004025E+00  0.29053200655E+02  0.29201494278E+02  0.28271010000E+01 0.  1.
        -31    1    1    2    0    0  0.71227957818E+00  0.37277004025E+00  0.25150254118E+02  0.25321415481E+02  0.28271010000E+01 0.  1.
<mgrwt>
<rscale>  0 0.58934862E+01</rscale>
<asrwt>0</asrwt>
<pdfrwt beam="1">  1        1 0.45083357E+00 0.58934862E+01</pdfrwt>
<pdfrwt beam="2">  1       -1 0.33957263E+00 0.58934862E+01</pdfrwt>
<totfact> 0.69914112E-02</totfact>
</mgrwt>
</event>
<event>
 4    1  0.4367748E-004  0.5768911E+01  0.7818608E-02  0.2446507E+00
         -1   -1    0    0    0  501 -0.00000000000E+00  0.00000000000E+00  0.64179087795E+02  0.64179087993E+02  0.50400000000E-02 0. -1.
          1   -1    0    0  501    0  0.00000000000E+00 -0.00000000000E+00 -0.12958936092E+00  0.12968733194E+00  0.50400000000E-02 0.  1.
         31    1    1    2    0    0  0.22527845669E+00 -0.35858667419E-01  0.37876346539E+02  0.37982392808E+02  0.28271010000E+01 0. -1.
        -31    1    1    2    0    0 -0.22527845669E+00  0.35858667419E-01  0.26173151895E+02  0.26326382517E+02  0.28271010000E+01 0.  1.
<mgrwt>
<rscale>  0 0.57689110E+01</rscale>
<asrwt>0</asrwt>
<pdfrwt beam="2">  1        1 0.27585738E+00 0.57689110E+01</pdfrwt>
<pdfrwt beam="1">  1       -1 0.53174995E+00 0.57689110E+01</pdfrwt>
<totfact> 0.19319424E-02</totfact>
</mgrwt>
</event>
<event>
 4    1  0.4367748E-004  0.6057063E+01  0.7818608E-02  0.2408055E+00
         -1   -1    0    0    0  501 -0.00000000000E+00  0.00000000000E+00  0.47529124182E+02  0.47529124450E+02  0.50400000000E-02 0.  1.
          1   -1    0    0  501    0  0.00000000000E+00 -0.00000000000E+00 -0.19294330830E+00  0.19300912366E+00  0.50400000000E-02 0. -1.
         31    1    1    2    0    0  0.73598531559E+00  0.65404231544E+00  0.20057096064E+02  0.20279276326E+02  0.28271010000E+01 0. -1.
        -31    1    1    2    0    0 -0.73598531559E+00 -0.65404231544E+00  0.27279084811E+02  0.27442857247E+02  0.28271010000E+01 0.  1.
<mgrwt>
<rscale>  0 0.60570631E+01</rscale>
<asrwt>0</asrwt>
<pdfrwt beam="2">  1        1 0.40979958E+00 0.60570631E+01</pdfrwt>
<pdfrwt beam="1">  1       -1 0.39459999E+00 0.60570631E+01</pdfrwt>
<totfact> 0.47702555E-02</totfact>
</mgrwt>
</event>
<event>
 4    1  0.4367748E-004  0.5809633E+01  0.7818608E-02  0.2440879E+00
          1   -1    0    0  501    0  0.00000000000E+00  0.00000000000E+00  0.22658293016E+02  0.22658293576E+02  0.50400000000E-02 0. -1.
         -1   -1    0    0    0  501 -0.00000000000E+00 -0.00000000000E+00 -0.37238285875E+00  0.37241696403E+00  0.50400000000E-02 0.  1.
         31    1    1    2    0    0 -0.44384075256E+00 -0.25421738679E+00  0.94432396068E+01  0.98706076525E+01  0.28271010000E+01 0.  1.
        -31    1    1    2    0    0  0.44384075256E+00  0.25421738679E+00  0.12842670550E+02  0.13160102888E+02  0.28271010000E+01 0.  1.
<mgrwt>
<rscale>  0 0.58096331E+01</rscale>
<asrwt>0</asrwt>
<pdfrwt beam="1">  1        1 0.19043403E+00 0.58096331E+01</pdfrwt>
<pdfrwt beam="2">  1       -1 0.78119101E+00 0.58096331E+01</pdfrwt>
<totfact> 0.57822011E-03</totfact>
</mgrwt>
</event>
<event>
 4    1  0.4367748E-004  0.7198398E+01  0.7818608E-02  0.2281445E+00
         -1   -1    0    0    0  501 -0.00000000000E+00  0.00000000000E+00  0.54206471670E+02  0.54206471905E+02  0.50400000000E-02 0.  1.
          1   -1    0    0  501    0  0.00000000000E+00 -0.00000000000E+00 -0.23895264328E+00  0.23900578932E+00  0.50400000000E-02 0. -1.
         31    1    1    2    0    0  0.12769580450E+01  0.21676642055E+00  0.13276971652E+02  0.13636278299E+02  0.28271010000E+01 0. -1.
        -31    1    1    2    0    0 -0.12769580450E+01 -0.21676642055E+00  0.40690547375E+02  0.40809199395E+02  0.28271010000E+01 0.  1.
<mgrwt>
<rscale>  0 0.71983978E+01</rscale>
<asrwt>0</asrwt>
<pdfrwt beam="2">  1        1 0.50731423E+00 0.71983978E+01</pdfrwt>
<pdfrwt beam="1">  1       -1 0.45019330E+00 0.71983978E+01</pdfrwt>
<totfact> 0.81518639E-03</totfact>
</mgrwt>
</event>
<event>
 4    1  0.4367748E-004  0.6795343E+01  0.7818608E-02  0.2322134E+00
          1   -1    0    0  501    0  0.00000000000E+00  0.00000000000E+00  0.67335789044E+02  0.67335789233E+02  0.50400000000E-02 0. -1.
         -1   -1    0    0    0  501 -0.00000000000E+00 -0.00000000000E+00 -0.17140462378E+00  0.17147870612E+00  0.50400000000E-02 0.  1.
         31    1    1    2    0    0 -0.18375508873E+01 -0.40345416654E+00  0.32480245244E+02  0.32657284022E+02  0.28271010000E+01 0.  1.
        -31    1    1    2    0    0  0.18375508873E+01  0.40345416654E+00  0.34684139176E+02  0.34849983917E+02  0.28271010000E+01 0. -1.
<mgrwt>
<rscale>  0 0.67953433E+01</rscale>
<asrwt>0</asrwt>
<pdfrwt beam="1">  1        1 0.55819732E+00 0.67953433E+01</pdfrwt>
<pdfrwt beam="2">  1       -1 0.36461912E+00 0.67953433E+01</pdfrwt>
<totfact> 0.16952651E-02</totfact>
</mgrwt>
</event>
<event>
 4    1  0.4367748E-004  0.6519165E+01  0.7818608E-02  0.2352384E+00
         -1   -1    0    0    0  501 -0.00000000000E+00  0.00000000000E+00  0.44347193773E+02  0.44347194059E+02  0.50400000000E-02 0.  1.
          1   -1    0    0  501    0  0.00000000000E+00 -0.00000000000E+00 -0.23955722231E+00  0.23961023426E+00  0.50400000000E-02 0. -1.
         31    1    1    2    0    0  0.10064830763E+01  0.38440244515E+00  0.13757029643E+02  0.14085777866E+02  0.28271010000E+01 0. -1.
        -31    1    1    2    0    0 -0.10064830763E+01 -0.38440244515E+00  0.30350606907E+02  0.30501026427E+02  0.28271010000E+01 0.  1.
<mgrwt>
<rscale>  0 0.65191652E+01</rscale>
<asrwt>0</asrwt>
<pdfrwt beam="2">  1        1 0.50809485E+00 0.65191652E+01</pdfrwt>
<pdfrwt beam="1">  1       -1 0.36867489E+00 0.65191652E+01</pdfrwt>
<totfact> 0.26841762E-02</totfact>
</mgrwt>
</event>
<event>
 4    1  0.4367748E-004  0.7491980E+01  0.7818608E-02  0.2254079E+00
         -1   -1    0    0    0  501 -0.00000000000E+00  0.00000000000E+00  0.46838965362E+02  0.46838965633E+02  0.50400000000E-02 0.  1.
          1   -1    0    0  501    0  0.00000000000E+00 -0.00000000000E+00 -0.29956755100E+00  0.29960994512E+00  0.50400000000E-02 0. -1.
         31    1    1    2    0    0 -0.16548036801E+01 -0.17586398917E+01  0.26144403996E+02  0.26407452544E+02  0.28271010000E+01 0.  1.
        -31    1    1    2    0    0  0.16548036801E+01  0.17586398917E+01  0.20394993815E+02  0.20731123035E+02  0.28271010000E+01 0. -1.
<mgrwt>
<rscale>  0 0.74919796E+01</rscale>
<asrwt>0</asrwt>
<pdfrwt beam="2">  1        1 0.63472249E+00 0.74919796E+01</pdfrwt>
<pdfrwt beam="1">  1       -1 0.38977472E+00 0.74919796E+01</pdfrwt>
<totfact> 0.50067346E-03</totfact>
</mgrwt>
</event>
<event>
 4    1  0.4367748E-004  0.7931046E+01  0.7818608E-02  0.2216249E+00
         -1   -1    0    0    0  501 -0.00000000000E+00  0.00000000000E+00  0.62741386929E+02  0.62741387131E+02  0.50400000000E-02 0.  1.
          1   -1    0    0  501    0  0.00000000000E+00 -0.00000000000E+00 -0.25061239272E+00  0.25066306665E+00  0.50400000000E-02 0. -1.
         31    1    1    2    0    0 -0.14185561461E+00 -0.70929197904E+00  0.52571538346E+02  0.52652467770E+02  0.28271010000E+01 0.  1.
        -31    1    1    2    0    0  0.14185561461E+00  0.70929197904E+00  0.99192361900E+01  0.10339582428E+02  0.28271010000E+01 0. -1.
<mgrwt>
<rscale>  0 0.79310457E+01</rscale>
<asrwt>0</asrwt>
<pdfrwt beam="2">  1        1 0.53228267E+00 0.79310457E+01</pdfrwt>
<pdfrwt beam="1">  1       -1 0.52086234E+00 0.79310457E+01</pdfrwt>
<totfact> 0.20588499E-03</totfact>
</mgrwt>
</event>
<event>
 4    1  0.4367748E-004  0.6081975E+01  0.7818608E-02  0.2404875E+00
          1   -1    0    0  501    0  0.00000000000E+00  0.00000000000E+00  0.31518560236E+02  0.31518560639E+02  0.50400000000E-02 0. -1.
         -1   -1    0    0    0  501 -0.00000000000E+00 -0.00000000000E+00 -0.29337985543E+00  0.29342314356E+00  0.50400000000E-02 0.  1.
         31    1    1    2    0    0 -0.70161492073E+00 -0.83821562922E+00  0.16896327922E+02  0.17166049815E+02  0.28271010000E+01 0.  1.
        -31    1    1    2    0    0  0.70161492073E+00  0.83821562922E+00  0.14328852458E+02  0.14645933967E+02  0.28271010000E+01 0.  1.
<mgrwt>
<rscale>  0 0.60819752E+01</rscale>
<asrwt>0</asrwt>
<pdfrwt beam="1">  1        1 0.26304374E+00 0.60819752E+01</pdfrwt>
<pdfrwt beam="2">  1       -1 0.61982017E+00 0.60819752E+01</pdfrwt>
<totfact> 0.71063489E-03</totfact>
</mgrwt>
</event>
<event>
 4    1  0.4367748E-004  0.5798516E+01  0.7818608E-02  0.2442409E+00
          1   -1    0    0  501    0  0.00000000000E+00  0.00000000000E+00  0.25898269388E+02  0.25898269879E+02  0.50400000000E-02 0. -1.
         -1   -1    0    0    0  501 -0.00000000000E+00 -0.00000000000E+00 -0.32454588335E+00  0.32458501505E+00  0.50400000000E-02 0.  1.
         31    1    1    2    0    0 -0.49229213280E+00 -0.32558069817E+00  0.11635290739E+02  0.11988362898E+02  0.28271010000E+01 0.  1.
        -31    1    1    2    0    0  0.49229213280E+00  0.32558069817E+00  0.13938432766E+02  0.14234491995E+02  0.28271010000E+01 0. -1.
<mgrwt>
<rscale>  0 0.57985157E+01</rscale>
<asrwt>0</asrwt>
<pdfrwt beam="1">  1        1 0.21682891E+00 0.57985157E+01</pdfrwt>
<pdfrwt beam="2">  1       -1 0.68347223E+00 0.57985157E+01</pdfrwt>
<totfact> 0.73499560E-03</totfact>
</mgrwt>
</event>
<event>
 4    1  0.4367748E-004  0.6446657E+01  0.7818608E-02  0.2360679E+00
          1   -1    0    0  501    0  0.00000000000E+00  0.00000000000E+00  0.87896772098E+02  0.87896772242E+02  0.50400000000E-02 0.  1.
         -1   -1    0    0    0  501 -0.00000000000E+00 -0.00000000000E+00 -0.11815122895E+00  0.11825867622E+00  0.50400000000E-02 0. -1.
         31    1    1    2    0    0 -0.26777692022E-01 -0.14318405187E+01  0.35853121172E+02  0.35992911555E+02  0.28271010000E+01 0.  1.
        -31    1    1    2    0    0  0.26777692022E-01  0.14318405187E+01  0.51925499696E+02  0.52022119364E+02  0.28271010000E+01 0.  1.
<mgrwt>
<rscale>  0 0.64466570E+01</rscale>
<asrwt>0</asrwt>
<pdfrwt beam="1">  1        1 0.72776986E+00 0.64466570E+01</pdfrwt>
<pdfrwt beam="2">  1       -1 0.25169781E+00 0.64466570E+01</pdfrwt>
<totfact> 0.10039088E-02</totfact>
</mgrwt>
</event>
<event>
 4    1  0.4367748E-004  0.5793215E+01  0.7818608E-02  0.2443140E+00
          1   -1    0    0  501    0  0.00000000000E+00  0.00000000000E+00  0.57214373672E+02  0.57214373894E+02  0.50400000000E-02 0.  1.
         -1   -1    0    0    0  501 -0.00000000000E+00 -0.00000000000E+00 -0.14660379523E+00  0.14669040314E+00  0.50400000000E-02 0. -1.
         31    1    1    2    0    0 -0.19523108633E+00 -0.21906929286E+00  0.34062107335E+02  0.34180488041E+02  0.28271010000E+01 0.  1.
        -31    1    1    2    0    0  0.19523108633E+00  0.21906929286E+00  0.23005662542E+02  0.23180576257E+02  0.28271010000E+01 0. -1.
<mgrwt>
<rscale>  0 0.57932149E+01</rscale>
<asrwt>0</asrwt>
<pdfrwt beam="1">  1        1 0.47430141E+00 0.57932149E+01</pdfrwt>
<pdfrwt beam="2">  1       -1 0.31188123E+00 0.57932149E+01</pdfrwt>
<totfact> 0.81128207E-02</totfact>
</mgrwt>
</event>
<event>
 4    1  0.4367748E-004  0.6223677E+01  0.7818608E-02  0.2387190E+00
          1   -1    0    0  501    0  0.00000000000E+00  0.00000000000E+00  0.25887918772E+02  0.25887919263E+02  0.50400000000E-02 0.  1.
         -1   -1    0    0    0  501 -0.00000000000E+00 -0.00000000000E+00 -0.37403877501E+00  0.37407272930E+00  0.50400000000E-02 0. -1.
         31    1    1    2    0    0 -0.31468623935E+00  0.51306602046E-01  0.74371532407E+01  0.79627512951E+01  0.28271010000E+01 0. -1.
        -31    1    1    2    0    0  0.31468623935E+00 -0.51306602046E-01  0.18076726756E+02  0.18299240697E+02  0.28271010000E+01 0.  1.
<mgrwt>
<rscale>  0 0.62236766E+01</rscale>
<asrwt>0</asrwt>
<pdfrwt beam="1">  1        1 0.21715252E+00 0.62236766E+01</pdfrwt>
<pdfrwt beam="2">  1       -1 0.78620091E+00 0.62236766E+01</pdfrwt>
<totfact> 0.43054247E-03</totfact>
</mgrwt>
</event>
<event>
 4    1  0.4367748E-004  0.6845242E+01  0.7818608E-02  0.2316884E+00
         -1   -1    0    0    0  501 -0.00000000000E+00  0.00000000000E+00  0.39685487455E+02  0.39685487776E+02  0.50400000000E-02 0.  1.
          1   -1    0    0  501    0  0.00000000000E+00 -0.00000000000E+00 -0.29515748779E+00  0.29520051524E+00  0.50400000000E-02 0. -1.
         31    1    1    2    0    0  0.41746724010E+00 -0.18205411061E+01  0.22515580415E+02  0.22769113077E+02  0.28271010000E+01 0. -1.
        -31    1    1    2    0    0 -0.41746724010E+00  0.18205411061E+01  0.16874749552E+02  0.17211575214E+02  0.28271010000E+01 0. -1.
<mgrwt>
<rscale>  0 0.68452422E+01</rscale>
<asrwt>0</asrwt>
<pdfrwt beam="2">  1        1 0.62473314E+00 0.68452422E+01</pdfrwt>
<pdfrwt beam="1">  1       -1 0.33058830E+00 0.68452422E+01</pdfrwt>
<totfact> 0.12938577E-02</totfact>
</mgrwt>
</event>
<event>
 4    1  0.4367748E-004  0.5669698E+01  0.7818608E-02  0.2460503E+00
          1   -1    0    0  501    0  0.00000000000E+00  0.00000000000E+00  0.42677285120E+02  0.42677285418E+02  0.50400000000E-02 0. -1.
         -1   -1    0    0    0  501 -0.00000000000E+00 -0.00000000000E+00 -0.18827152950E+00  0.18833897744E+00  0.50400000000E-02 0.  1.
         31    1    1    2    0    0  0.77639291819E-02 -0.19368031709E+00  0.21844473068E+02  0.22027507259E+02  0.28271010000E+01 0. -1.
        -31    1    1    2    0    0 -0.77639291819E-02  0.19368031709E+00  0.20644540522E+02  0.20838117136E+02  0.28271010000E+01 0. -1.
<mgrwt>
<rscale>  0 0.56696983E+01</rscale>
<asrwt>0</asrwt>
<pdfrwt beam="1">  1        1 0.35444297E+00 0.56696983E+01</pdfrwt>
<pdfrwt beam="2">  1       -1 0.39974028E+00 0.56696983E+01</pdfrwt>
<totfact> 0.73022299E-02</totfact>
</mgrwt>
</event>
<event>
 4    1  0.4367748E-004  0.7036268E+01  0.7818608E-02  0.2297353E+00
          1   -1    0    0  501    0  0.00000000000E+00  0.00000000000E+00  0.66390218626E+02  0.66390218818E+02  0.50400000000E-02 0.  1.
         -1   -1    0    0    0  501 -0.00000000000E+00 -0.00000000000E+00 -0.18639784815E+00  0.18646597382E+00  0.50400000000E-02 0. -1.
         31    1    1    2    0    0 -0.77544572196E+00  0.18969061878E+01  0.37173827152E+02  0.37337454310E+02  0.28271010000E+01 0.  1.
        -31    1    1    2    0    0  0.77544572196E+00 -0.18969061878E+01  0.29029993626E+02  0.29239230482E+02  0.28271010000E+01 0.  1.
<mgrwt>
<rscale>  0 0.70362683E+01</rscale>
<asrwt>0</asrwt>
<pdfrwt beam="1">  1        1 0.55050261E+00 0.70362683E+01</pdfrwt>
<pdfrwt beam="2">  1       -1 0.39639648E+00 0.70362683E+01</pdfrwt>
<totfact> 0.11698369E-02</totfact>
</mgrwt>
</event>
<event>
 4    1  0.4367748E-004  0.7421623E+01  0.7818608E-02  0.2260476E+00
         -1   -1    0    0    0  501 -0.00000000000E+00  0.00000000000E+00  0.48990429797E+02  0.48990430056E+02  0.50400000000E-02 0. -1.
          1   -1    0    0  501    0  0.00000000000E+00 -0.00000000000E+00 -0.28105491216E+00  0.28110009828E+00  0.50400000000E-02 0.  1.
         31    1    1    2    0    0  0.15306620738E+01  0.18531182808E+01  0.24523518747E+02  0.24802670129E+02  0.28271010000E+01 0.  1.
        -31    1    1    2    0    0 -0.15306620738E+01 -0.18531182808E+01  0.24185856138E+02  0.24468860025E+02  0.28271010000E+01 0.  1.
<mgrwt>
<rscale>  0 0.74216226E+01</rscale>
<asrwt>0</asrwt>
<pdfrwt beam="2">  1        1 0.59589378E+00 0.74216226E+01</pdfrwt>
<pdfrwt beam="1">  1       -1 0.40741148E+00 0.74216226E+01</pdfrwt>
<totfact> 0.60699244E-03</totfact>
</mgrwt>
</event>
<event>
 4    1  0.4367748E-004  0.6152890E+01  0.7818608E-02  0.2395940E+00
         -1   -1    0    0    0  501 -0.00000000000E+00  0.00000000000E+00  0.34767961571E+02  0.34767961936E+02  0.50400000000E-02 0.  1.
          1   -1    0    0  501    0  0.00000000000E+00 -0.00000000000E+00 -0.27219569351E+00  0.27224235005E+00  0.50400000000E-02 0. -1.
         31    1    1    2    0    0 -0.11672389342E+01 -0.24324884338E+00  0.15969422058E+02  0.16261505393E+02  0.28271010000E+01 0. -1.
        -31    1    1    2    0    0  0.11672389342E+01  0.24324884338E+00  0.18526343820E+02  0.18778698893E+02  0.28271010000E+01 0.  1.
<mgrwt>
<rscale>  0 0.61528898E+01</rscale>
<asrwt>0</asrwt>
<pdfrwt beam="2">  1        1 0.57591556E+00 0.61528898E+01</pdfrwt>
<pdfrwt beam="1">  1       -1 0.28973693E+00 0.61528898E+01</pdfrwt>
<totfact> 0.38934195E-02</totfact>
</mgrwt>
</event>
<event>
 4    1  0.4367748E-004  0.6969553E+01  0.7818608E-02  0.2304074E+00
          1   -1    0    0  501    0  0.00000000000E+00  0.00000000000E+00  0.57724238189E+02  0.57724238409E+02  0.50400000000E-02 0.  1.
         -1   -1    0    0    0  501 -0.00000000000E+00 -0.00000000000E+00 -0.21034341070E+00  0.21040378330E+00  0.50400000000E-02 0. -1.
         31    1    1    2    0    0 -0.85148054479E-01  0.13686016957E+01  0.16230515871E+02  0.16531862155E+02  0.28271010000E+01 0. -1.
        -31    1    1    2    0    0  0.85148054479E-01 -0.13686016957E+01  0.41283378907E+02  0.41402780037E+02  0.28271010000E+01 0. -1.
<mgrwt>
<rscale>  0 0.69695533E+01</rscale>
<asrwt>0</asrwt>
<pdfrwt beam="1">  1        1 0.47904416E+00 0.69695533E+01</pdfrwt>
<pdfrwt beam="2">  1       -1 0.44692920E+00 0.69695533E+01</pdfrwt>
<totfact> 0.11359374E-02</totfact>
</mgrwt>
</event>
<event>
 4    1  0.4367748E-004  0.5774419E+01  0.7818608E-02  0.2445742E+00
         -1   -1    0    0    0  501 -0.00000000000E+00  0.00000000000E+00  0.38777997216E+02  0.38777997544E+02  0.50400000000E-02 0.  1.
          1   -1    0    0  501    0  0.00000000000E+00 -0.00000000000E+00 -0.21493682903E+00  0.21499591176E+00  0.50400000000E-02 0. -1.
         31    1    1    2    0    0 -0.44411521674E+00 -0.97533042922E-01  0.16784605837E+02  0.17027103224E+02  0.28271010000E+01 0. -1.
        -31    1    1    2    0    0  0.44411521674E+00  0.97533042922E-01  0.21778454550E+02  0.21965890232E+02  0.28271010000E+01 0.  1.
<mgrwt>
<rscale>  0 0.57744188E+01</rscale>
<asrwt>0</asrwt>
<pdfrwt beam="2">  1        1 0.45582395E+00 0.57744188E+01</pdfrwt>
<pdfrwt beam="1">  1       -1 0.32242135E+00 0.57744188E+01</pdfrwt>
<totfact> 0.84012119E-02</totfact>
</mgrwt>
</event>
<event>
 4    1  0.4367748E-004  0.7517629E+01  0.7818608E-02  0.2251771E+00
         -1   -1    0    0    0  501 -0.00000000000E+00  0.00000000000E+00  0.47936700047E+02  0.47936700312E+02  0.50400000000E-02 0. -1.
          1   -1    0    0  501    0  0.00000000000E+00 -0.00000000000E+00 -0.29471454333E+00  0.29475763544E+00  0.50400000000E-02 0.  1.
         31    1    1    2    0    0  0.20578045792E+01 -0.11015744819E+01  0.18498747695E+02  0.18858531023E+02  0.28271010000E+01 0.  1.
        -31    1    1    2    0    0 -0.20578045792E+01  0.11015744819E+01  0.29143237809E+02  0.29372926923E+02  0.28271010000E+01 0.  1.
<mgrwt>
<rscale>  0 0.75176295E+01</rscale>
<asrwt>0</asrwt>
<pdfrwt beam="2">  1        1 0.62459515E+00 0.75176295E+01</pdfrwt>
<pdfrwt beam="1">  1       -1 0.39881144E+00 0.75176295E+01</pdfrwt>
<totfact> 0.49497357E-03</totfact>
</mgrwt>
</event>
<event>
 4    1  0.4367748E-004  0.5914146E+01  0.7818608E-02  0.2426733E+00
          1   -1    0    0  501    0  0.00000000000E+00  0.00000000000E+00  0.47075278246E+02  0.47075278516E+02  0.50400000000E-02 0.  1.
         -1   -1    0    0    0  501 -0.00000000000E+00 -0.00000000000E+00 -0.18571658529E+00  0.18578496078E+00  0.50400000000E-02 0. -1.
         31    1    1    2    0    0 -0.32092372008E+00  0.71617743007E+00  0.20499078009E+02  0.20707984002E+02  0.28271010000E+01 0.  1.
        -31    1    1    2    0    0  0.32092372008E+00 -0.71617743007E+00  0.26390483652E+02  0.26553079475E+02  0.28271010000E+01 0.  1.
<mgrwt>
<rscale>  0 0.59141464E+01</rscale>
<asrwt>0</asrwt>
<pdfrwt beam="1">  1        1 0.39078754E+00 0.59141464E+01</pdfrwt>
<pdfrwt beam="2">  1       -1 0.39450074E+00 0.59141464E+01</pdfrwt>
<totfact> 0.56825325E-02</totfact>
</mgrwt>
</event>
<event>
 4    1  0.4367748E-004  0.6182493E+01  0.7818608E-02  0.2392260E+00
         -1   -1    0    0    0  501 -0.00000000000E+00  0.00000000000E+00  0.33035573835E+02  0.33035574220E+02  0.50400000000E-02 0. -1.
          1   -1    0    0  501    0  0.00000000000E+00 -0.00000000000E+00 -0.28923564816E+00  0.28927955642E+00  0.50400000000E-02 0.  1.
         31    1    1    2    0    0 -0.10227167605E+01  0.60721453772E+00  0.18451329543E+02  0.18704510713E+02  0.28271010000E+01 0. -1.
        -31    1    1    2    0    0  0.10227167605E+01 -0.60721453772E+00  0.14295008644E+02  0.14620343063E+02  0.28271010000E+01 0.  1.
<mgrwt>
<rscale>  0 0.61824926E+01</rscale>
<asrwt>0</asrwt>
<pdfrwt beam="2">  1        1 0.61140097E+00 0.61824926E+01</pdfrwt>
<pdfrwt beam="1">  1       -1 0.27555321E+00 0.61824926E+01</pdfrwt>
<totfact> 0.31837663E-02</totfact>
</mgrwt>
</event>
<event>
 4    1  0.4367748E-004  0.7165680E+01  0.7818608E-02  0.2284608E+00
         -1   -1    0    0    0  501 -0.00000000000E+00  0.00000000000E+00  0.39115792459E+02  0.39115792784E+02  0.50400000000E-02 0.  1.
          1   -1    0    0  501    0  0.00000000000E+00 -0.00000000000E+00 -0.32815316534E+00  0.32819186694E+00  0.50400000000E-02 0. -1.
         31    1    1    2    0    0  0.41788599496E+00 -0.86288244378E-01  0.31279314894E+02  0.31409713699E+02  0.28271010000E+01 0.  1.
        -31    1    1    2    0    0 -0.41788599496E+00  0.86288244378E-01  0.75083243998E+01  0.80342709516E+01  0.28271010000E+01 0. -1.
<mgrwt>
<rscale>  0 0.71656795E+01</rscale>
<asrwt>0</asrwt>
<pdfrwt beam="2">  1        1 0.69390681E+00 0.71656795E+01</pdfrwt>
<pdfrwt beam="1">  1       -1 0.32615046E+00 0.71656795E+01</pdfrwt>
<totfact> 0.57958975E-03</totfact>
</mgrwt>
</event>
<event>
 4    1  0.4367748E-004  0.5898419E+01  0.7818608E-02  0.2428835E+00
          1   -1    0    0  501    0  0.00000000000E+00  0.00000000000E+00  0.90805471505E+02  0.90805471645E+02  0.50400000000E-02 0.  1.
         -1   -1    0    0    0  501 -0.00000000000E+00 -0.00000000000E+00 -0.95718942543E-01  0.95851539172E-01  0.50400000000E-02 0. -1.
         31    1    1    2    0    0 -0.76010214885E+00 -0.26544571310E+00  0.49038101723E+02  0.49126124795E+02  0.28271010000E+01 0. -1.
        -31    1    1    2    0    0  0.76010214885E+00  0.26544571310E+00  0.41671650839E+02  0.41775198389E+02  0.28271010000E+01 0. -1.
<mgrwt>
<rscale>  0 0.58984190E+01</rscale>
<asrwt>0</asrwt>
<pdfrwt beam="1">  1        1 0.75163574E+00 0.58984190E+01</pdfrwt>
<pdfrwt beam="2">  1       -1 0.20401787E+00 0.58984190E+01</pdfrwt>
<totfact> 0.13973704E-02</totfact>
</mgrwt>
</event>
<event>
 4    1  0.4367748E-004  0.6091841E+01  0.7818608E-02  0.2403621E+00
          1   -1    0    0  501    0  0.00000000000E+00  0.00000000000E+00  0.58797923457E+02  0.58797923673E+02  0.50400000000E-02 0.  1.
         -1   -1    0    0    0  501 -0.00000000000E+00 -0.00000000000E+00 -0.15774797478E+00  0.15782846748E+00  0.50400000000E-02 0. -1.
         31    1    1    2    0    0  0.52312093464E+00 -0.57030665023E+00  0.21303093430E+02  0.21503794896E+02  0.28271010000E+01 0. -1.
        -31    1    1    2    0    0 -0.52312093464E+00  0.57030665023E+00  0.37337082053E+02  0.37451957245E+02  0.28271010000E+01 0.  1.
<mgrwt>
<rscale>  0 0.60918413E+01</rscale>
<asrwt>0</asrwt>
<pdfrwt beam="1">  1        1 0.48748741E+00 0.60918413E+01</pdfrwt>
<pdfrwt beam="2">  1       -1 0.33553524E+00 0.60918413E+01</pdfrwt>
<totfact> 0.51954877E-02</totfact>
</mgrwt>
</event>
<event>
 4    1  0.4367748E-004  0.5874726E+01  0.7818608E-02  0.2432019E+00
          1   -1    0    0  501    0  0.00000000000E+00  0.00000000000E+00  0.49754209851E+02  0.49754210107E+02  0.50400000000E-02 0.  1.
         -1   -1    0    0    0  501 -0.00000000000E+00 -0.00000000000E+00 -0.17337764016E+00  0.17345087981E+00  0.50400000000E-02 0. -1.
         31    1    1    2    0    0  0.20203319495E+00 -0.13020911732E+00  0.31250731873E+02  0.31379268865E+02  0.28271010000E+01 0.  1.
        -31    1    1    2    0    0 -0.20203319495E+00  0.13020911732E+00  0.18330100338E+02  0.18548392122E+02  0.28271010000E+01 0. -1.
<mgrwt>
<rscale>  0 0.58747263E+01</rscale>
<asrwt>0</asrwt>
<pdfrwt beam="1">  1        1 0.41283683E+00 0.58747263E+01</pdfrwt>
<pdfrwt beam="2">  1       -1 0.36846922E+00 0.58747263E+01</pdfrwt>
<totfact> 0.67021626E-02</totfact>
</mgrwt>
</event>
<event>
 4    1  0.4367748E-004  0.6850079E+01  0.7818608E-02  0.2316379E+00
         -1   -1    0    0    0  501 -0.00000000000E+00  0.00000000000E+00  0.80863343083E+02  0.80863343240E+02  0.50400000000E-02 0. -1.
          1   -1    0    0  501    0  0.00000000000E+00 -0.00000000000E+00 -0.14502669523E+00  0.14511424440E+00  0.50400000000E-02 0.  1.
         31    1    1    2    0    0  0.44703731956E+00  0.56095912937E+00  0.61592780938E+02  0.61661800828E+02  0.28271010000E+01 0. -1.
        -31    1    1    2    0    0 -0.44703731956E+00 -0.56095912937E+00  0.19125535449E+02  0.19346656657E+02  0.28271010000E+01 0.  1.
<mgrwt>
<rscale>  0 0.68500791E+01</rscale>
<asrwt>0</asrwt>
<pdfrwt beam="2">  1        1 0.30876494E+00 0.68500791E+01</pdfrwt>
<pdfrwt beam="1">  1       -1 0.66983461E+00 0.68500791E+01</pdfrwt>
<totfact> 0.34466316E-03</totfact>
</mgrwt>
</event>
<event>
 4    1  0.4367748E-004  0.7595590E+01  0.7818608E-02  0.2244833E+00
         -1   -1    0    0    0  501 -0.00000000000E+00  0.00000000000E+00  0.10129932858E+03  0.10129932870E+03  0.50400000000E-02 0. -1.
          1   -1    0    0  501    0  0.00000000000E+00 -0.00000000000E+00 -0.14233773707E+00  0.14242693915E+00  0.50400000000E-02 0.  1.
         31    1    1    2    0    0 -0.22844754231E+00 -0.23607149864E+01  0.38591488880E+02  0.38767520911E+02  0.28271010000E+01 0. -1.
        -31    1    1    2    0    0  0.22844754231E+00  0.23607149864E+01  0.62565501961E+02  0.62674234732E+02  0.28271010000E+01 0. -1.
<mgrwt>
<rscale>  0 0.75955903E+01</rscale>
<asrwt>0</asrwt>
<pdfrwt beam="2">  1        1 0.30316110E+00 0.75955903E+01</pdfrwt>
<pdfrwt beam="1">  1       -1 0.83879141E+00 0.75955903E+01</pdfrwt>
<totfact> 0.11184322E-03</totfact>
</mgrwt>
</event>
<event>
 4    1  0.4367748E-004  0.5985516E+01  0.7818608E-02  0.2417312E+00
          1   -1    0    0  501    0  0.00000000000E+00  0.00000000000E+00  0.33656120390E+02  0.33656120767E+02  0.50400000000E-02 0.  1.
         -1   -1    0    0    0  501 -0.00000000000E+00 -0.00000000000E+00 -0.26609676179E+00  0.26614448751E+00  0.50400000000E-02 0. -1.
         31    1    1    2    0    0  0.15609290315E+00  0.33752919885E+00  0.21845201071E+02  0.22030515219E+02  0.28271010000E+01 0.  1.
        -31    1    1    2    0    0 -0.15609290315E+00 -0.33752919885E+00  0.11544822557E+02  0.11891750035E+02  0.28271010000E+01 0. -1.
<mgrwt>
<rscale>  0 0.59855160E+01</rscale>
<asrwt>0</asrwt>
<pdfrwt beam="1">  1        1 0.28049302E+00 0.59855160E+01</pdfrwt>
<pdfrwt beam="2">  1       -1 0.56297034E+00 0.59855160E+01</pdfrwt>
<totfact> 0.11682039E-02</totfact>
</mgrwt>
</event>
<event>
 4    1  0.4367748E-004  0.6623475E+01  0.7818608E-02  0.2340714E+00
          1   -1    0    0  501    0  0.00000000000E+00  0.00000000000E+00  0.63888511450E+02  0.63888511649E+02  0.50400000000E-02 0. -1.
         -1   -1    0    0    0  501 -0.00000000000E+00 -0.00000000000E+00 -0.17163068816E+00  0.17170467296E+00  0.50400000000E-02 0.  1.
         31    1    1    2    0    0  0.27784014295E+00 -0.27870550426E+00  0.48100646557E+02  0.48185263008E+02  0.28271010000E+01 0. -1.
        -31    1    1    2    0    0 -0.27784014295E+00  0.27870550426E+00  0.15616234205E+02  0.15874953313E+02  0.28271010000E+01 0.  1.
<mgrwt>
<rscale>  0 0.66234750E+01</rscale>
<asrwt>0</asrwt>
<pdfrwt beam="1">  1        1 0.52969469E+00 0.66234750E+01</pdfrwt>
<pdfrwt beam="2">  1       -1 0.36504850E+00 0.66234750E+01</pdfrwt>
<totfact> 0.22685550E-02</totfact>
</mgrwt>
</event>
<event>
 4    1  0.4367748E-004  0.6443936E+01  0.7818608E-02  0.2360993E+00
         -1   -1    0    0    0  501 -0.00000000000E+00  0.00000000000E+00  0.38952208090E+02  0.38952208416E+02  0.50400000000E-02 0. -1.
          1   -1    0    0  501    0  0.00000000000E+00 -0.00000000000E+00 -0.26648388297E+00  0.26653153938E+00  0.50400000000E-02 0.  1.
         31    1    1    2    0    0  0.12025311959E+01 -0.93794219228E+00  0.20867556380E+02  0.21113342374E+02  0.28271010000E+01 0.  1.
        -31    1    1    2    0    0 -0.12025311959E+01  0.93794219228E+00  0.17818167827E+02  0.18105397582E+02  0.28271010000E+01 0.  1.
<mgrwt>
<rscale>  0 0.64439356E+01</rscale>
<asrwt>0</asrwt>
<pdfrwt beam="2">  1        1 0.56438559E+00 0.64439356E+01</pdfrwt>
<pdfrwt beam="1">  1       -1 0.32428798E+00 0.64439356E+01</pdfrwt>
<totfact> 0.27629700E-02</totfact>
</mgrwt>
</event>
<event>
 4    1  0.4367748E-004  0.7150221E+01  0.7818608E-02  0.2286111E+00
          1   -1    0    0  501    0  0.00000000000E+00  0.00000000000E+00  0.39749593513E+02  0.39749593833E+02  0.50400000000E-02 0.  1.
         -1   -1    0    0    0  501 -0.00000000000E+00 -0.00000000000E+00 -0.32152823216E+00  0.32156773109E+00  0.50400000000E-02 0. -1.
         31    1    1    2    0    0  0.75611459028E+00 -0.43723293118E-02  0.31222668542E+02  0.31359516248E+02  0.28271010000E+01 0.  1.
        -31    1    1    2    0    0 -0.75611459028E+00  0.43723293118E-02  0.82053967391E+01  0.87116453154E+01  0.28271010000E+01 0. -1.
<mgrwt>
<rscale>  0 0.71502208E+01</rscale>
<asrwt>0</asrwt>
<pdfrwt beam="1">  1        1 0.33133640E+00 0.71502208E+01</pdfrwt>
<pdfrwt beam="2">  1       -1 0.68010214E+00 0.71502208E+01</pdfrwt>
<totfact> 0.26870048E-03</totfact>
</mgrwt>
</event>
<event>
 4    1  0.4367748E-004  0.6073627E+01  0.7818608E-02  0.2405938E+00
         -1   -1    0    0    0  501 -0.00000000000E+00  0.00000000000E+00  0.38928805290E+02  0.38928805616E+02  0.50400000000E-02 0.  1.
          1   -1    0    0  501    0  0.00000000000E+00 -0.00000000000E+00 -0.23687293357E+00  0.23692654612E+00  0.50400000000E-02 0. -1.
         31    1    1    2    0    0  0.94292045689E+00 -0.52478686783E+00  0.17698931643E+02  0.17955756225E+02  0.28271010000E+01 0.  1.
        -31    1    1    2    0    0 -0.94292045689E+00  0.52478686783E+00  0.20993000714E+02  0.21209975938E+02  0.28271010000E+01 0. -1.
<mgrwt>
<rscale>  0 0.60736271E+01</rscale>
<asrwt>0</asrwt>
<pdfrwt beam="2">  1        1 0.50206179E+00 0.60736271E+01</pdfrwt>
<pdfrwt beam="1">  1       -1 0.32384968E+00 0.60736271E+01</pdfrwt>
<totfact> 0.52720169E-02</totfact>
</mgrwt>
</event>
<event>
 4    1  0.4367748E-004  0.5747705E+01  0.7818608E-02  0.2449464E+00
         -1   -1    0    0    0  501 -0.00000000000E+00  0.00000000000E+00  0.37258161033E+02  0.37258161374E+02  0.50400000000E-02 0. -1.
          1   -1    0    0  501    0  0.00000000000E+00 -0.00000000000E+00 -0.22164134700E+00  0.22169864298E+00  0.50400000000E-02 0.  1.
         31    1    1    2    0    0 -0.39074221365E+00  0.25038139947E+00  0.17043357361E+02  0.17282473796E+02  0.28271010000E+01 0.  1.
        -31    1    1    2    0    0  0.39074221365E+00 -0.25038139947E+00  0.19993162325E+02  0.20197386221E+02  0.28271010000E+01 0. -1.
<mgrwt>
<rscale>  0 0.57477053E+01</rscale>
<asrwt>0</asrwt>
<pdfrwt beam="2">  1        1 0.46984888E+00 0.57477053E+01</pdfrwt>
<pdfrwt beam="1">  1       -1 0.30990971E+00 0.57477053E+01</pdfrwt>
<totfact> 0.86918199E-02</totfact>
</mgrwt>
</event>
<event>
 4    1  0.4367748E-004  0.5824102E+01  0.7818608E-02  0.2438895E+00
          1   -1    0    0  501    0  0.00000000000E+00  0.00000000000E+00  0.70580795378E+02  0.70580795558E+02  0.50400000000E-02 0. -1.
         -1   -1    0    0    0  501 -0.00000000000E+00 -0.00000000000E+00 -0.12009355291E+00  0.12019926393E+00  0.50400000000E-02 0.  1.
         31    1    1    2    0    0 -0.25568786111E+00  0.45752330592E+00  0.29629926081E+02  0.29769106864E+02  0.28271010000E+01 0.  1.
        -31    1    1    2    0    0  0.25568786111E+00 -0.45752330592E+00  0.40830775745E+02  0.40931887958E+02  0.28271010000E+01 0. -1.
<mgrwt>
<rscale>  0 0.58241023E+01</rscale>
<asrwt>0</asrwt>
<pdfrwt beam="1">  1        1 0.58460529E+00 0.58241023E+01</pdfrwt>
<pdfrwt beam="2">  1       -1 0.25574057E+00 0.58241023E+01</pdfrwt>
<totfact> 0.56162112E-02</totfact>
</mgrwt>
</event>
<event>
 4    1  0.4367748E-004  0.6314903E+01  0.7818608E-02  0.2376156E+00
          1   -1    0    0  501    0  0.00000000000E+00  0.00000000000E+00  0.45183208336E+02  0.45183208617E+02  0.50400000000E-02 0. -1.
         -1   -1    0    0    0  501 -0.00000000000E+00 -0.00000000000E+00 -0.22061708248E+00  0.22067464441E+00  0.50400000000E-02 0.  1.
         31    1    1    2    0    0  0.17066710514E+00 -0.96504520290E+00  0.15232045948E+02  0.15523149272E+02  0.28271010000E+01 0. -1.
        -31    1    1    2    0    0 -0.17066710514E+00  0.96504520290E+00  0.29730545306E+02  0.29880733989E+02  0.28271010000E+01 0.  1.
<mgrwt>
<rscale>  0 0.63149032E+01</rscale>
<asrwt>0</asrwt>
<pdfrwt beam="1">  1        1 0.37543107E+00 0.63149032E+01</pdfrwt>
<pdfrwt beam="2">  1       -1 0.46817430E+00 0.63149032E+01</pdfrwt>
<totfact> 0.21654524E-02</totfact>
</mgrwt>
</event>
<event>
 4    1  0.4367748E-004  0.6504643E+01  0.7818608E-02  0.2354033E+00
          1   -1    0    0  501    0  0.00000000000E+00  0.00000000000E+00  0.67062268571E+02  0.67062268761E+02  0.50400000000E-02 0. -1.
         -1   -1    0    0    0  501 -0.00000000000E+00 -0.00000000000E+00 -0.15768749180E+00  0.15776801536E+00  0.50400000000E-02 0.  1.
         31    1    1    2    0    0  0.12996664910E+01  0.12065536252E+00  0.43154319173E+02  0.43266516546E+02  0.28271010000E+01 0. -1.
        -31    1    1    2    0    0 -0.12996664910E+01 -0.12065536252E+00  0.23750261907E+02  0.23953520230E+02  0.28271010000E+01 0.  1.
<mgrwt>
<rscale>  0 0.65046426E+01</rscale>
<asrwt>0</asrwt>
<pdfrwt beam="1">  1        1 0.55582230E+00 0.65046426E+01</pdfrwt>
<pdfrwt beam="2">  1       -1 0.33551759E+00 0.65046426E+01</pdfrwt>
<totfact> 0.25970133E-02</totfact>
</mgrwt>
</event>
<event>
 4    1  0.4367748E-004  0.7491404E+01  0.7818608E-02  0.2254131E+00
          1   -1    0    0  501    0  0.00000000000E+00  0.00000000000E+00  0.69374813804E+02  0.69374813987E+02  0.50400000000E-02 0. -1.
         -1   -1    0    0    0  501 -0.00000000000E+00 -0.00000000000E+00 -0.20220729189E+00  0.20227009293E+00  0.50400000000E-02 0.  1.
         31    1    1    2    0    0  0.17827959699E+01  0.75880630050E+00  0.48621432438E+02  0.48742079776E+02  0.28271010000E+01 0. -1.
        -31    1    1    2    0    0 -0.17827959699E+01 -0.75880630050E+00  0.20551174074E+02  0.20835004304E+02  0.28271010000E+01 0.  1.
<mgrwt>
<rscale>  0 0.74914042E+01</rscale>
<asrwt>0</asrwt>
<pdfrwt beam="1">  1        1 0.57531201E+00 0.74914042E+01</pdfrwt>
<pdfrwt beam="2">  1       -1 0.42995936E+00 0.74914042E+01</pdfrwt>
<totfact> 0.54415982E-03</totfact>
</mgrwt>
</event>
<event>
 4    1  0.4367748E-004  0.6972425E+01  0.7818608E-02  0.2303783E+00
          1   -1    0    0  501    0  0.00000000000E+00  0.00000000000E+00  0.56856874236E+02  0.56856874459E+02  0.50400000000E-02 0. -1.
         -1   -1    0    0    0  501 -0.00000000000E+00 -0.00000000000E+00 -0.21372921691E+00  0.21378863338E+00  0.50400000000E-02 0.  1.
         31    1    1    2    0    0 -0.81755861242E+00 -0.14138879656E+00  0.43575018535E+02  0.43674513543E+02  0.28271010000E+01 0. -1.
        -31    1    1    2    0    0  0.81755861242E+00  0.14138879656E+00  0.13068126484E+02  0.13396149549E+02  0.28271010000E+01 0.  1.
<mgrwt>
<rscale>  0 0.69724248E+01</rscale>
<asrwt>0</asrwt>
<pdfrwt beam="1">  1        1 0.47190017E+00 0.69724248E+01</pdfrwt>
<pdfrwt beam="2">  1       -1 0.45406908E+00 0.69724248E+01</pdfrwt>
<totfact> 0.10909089E-02</totfact>
</mgrwt>
</event>
<event>
 4    1  0.4367748E-004  0.6070488E+01  0.7818608E-02  0.2406339E+00
         -1   -1    0    0    0  501 -0.00000000000E+00  0.00000000000E+00  0.45133284901E+02  0.45133285182E+02  0.50400000000E-02 0.  1.
          1   -1    0    0  501    0  0.00000000000E+00 -0.00000000000E+00 -0.20409085390E+00  0.20415307552E+00  0.50400000000E-02 0. -1.
         31    1    1    2    0    0  0.11872067954E+00  0.92189742047E+00  0.26922096183E+02  0.27086080418E+02  0.28271010000E+01 0.  1.
        -31    1    1    2    0    0 -0.11872067954E+00 -0.92189742047E+00  0.18007097864E+02  0.18251357840E+02  0.28271010000E+01 0. -1.
<mgrwt>
<rscale>  0 0.60704885E+01</rscale>
<asrwt>0</asrwt>
<pdfrwt beam="2">  1        1 0.43326885E+00 0.60704885E+01</pdfrwt>
<pdfrwt beam="1">  1       -1 0.37488166E+00 0.60704885E+01</pdfrwt>
<totfact> 0.50733513E-02</totfact>
</mgrwt>
</event>
<event>
 4    1  0.4367748E-004  0.6011635E+01  0.7818608E-02  0.2413912E+00
         -1   -1    0    0    0  501 -0.00000000000E+00  0.00000000000E+00  0.39969700563E+02  0.39969700880E+02  0.50400000000E-02 0.  1.
          1   -1    0    0  501    0  0.00000000000E+00 -0.00000000000E+00 -0.22601626738E+00  0.22607245458E+00  0.50400000000E-02 0. -1.
         31    1    1    2    0    0 -0.69535112418E+00  0.23075930981E+00  0.24626547003E+02  0.24799114509E+02  0.28271010000E+01 0.  1.
        -31    1    1    2    0    0  0.69535112418E+00 -0.23075930981E+00  0.15117137292E+02  0.15396658826E+02  0.28271010000E+01 0. -1.
<mgrwt>
<rscale>  0 0.60116348E+01</rscale>
<asrwt>0</asrwt>
<pdfrwt beam="2">  1        1 0.47926085E+00 0.60116348E+01</pdfrwt>
<pdfrwt beam="1">  1       -1 0.33236678E+00 0.60116348E+01</pdfrwt>
<totfact> 0.58745381E-02</totfact>
</mgrwt>
</event>
<event>
 4    1  0.4367748E-004  0.6472920E+01  0.7818608E-02  0.2357657E+00
         -1   -1    0    0    0  501 -0.00000000000E+00  0.00000000000E+00  0.37293533603E+02  0.37293533944E+02  0.50400000000E-02 0.  1.
          1   -1    0    0  501    0  0.00000000000E+00 -0.00000000000E+00 -0.28084805700E+00  0.28089327639E+00  0.50400000000E-02 0. -1.
         31    1    1    2    0    0 -0.95274156891E+00  0.84403723024E+00  0.23895987484E+02  0.24096282561E+02  0.28271010000E+01 0.  1.
        -31    1    1    2    0    0  0.95274156891E+00 -0.84403723024E+00  0.13116698062E+02  0.13478144659E+02  0.28271010000E+01 0. -1.
<mgrwt>
<rscale>  0 0.64729197E+01</rscale>
<asrwt>0</asrwt>
<pdfrwt beam="2">  1        1 0.59439512E+00 0.64729197E+01</pdfrwt>
<pdfrwt beam="1">  1       -1 0.31069165E+00 0.64729197E+01</pdfrwt>
<totfact> 0.23954579E-02</totfact>
</mgrwt>
</event>
<event>
 4    1  0.4367748E-004  0.6727413E+01  0.7818608E-02  0.2329384E+00
         -1   -1    0    0    0  501 -0.00000000000E+00  0.00000000000E+00  0.49812860833E+02  0.49812861088E+02  0.50400000000E-02 0.  1.
          1   -1    0    0  501    0  0.00000000000E+00 -0.00000000000E+00 -0.22711234357E+00  0.22716825967E+00  0.50400000000E-02 0. -1.
         31    1    1    2    0    0  0.10256254715E+01  0.14633094466E+01  0.27462760349E+02  0.27665662619E+02  0.28271010000E+01 0. -1.
        -31    1    1    2    0    0 -0.10256254715E+01 -0.14633094466E+01  0.22122988141E+02  0.22374366729E+02  0.28271010000E+01 0.  1.
<mgrwt>
<rscale>  0 0.67274129E+01</rscale>
<asrwt>0</asrwt>
<pdfrwt beam="2">  1        1 0.48210959E+00 0.67274129E+01</pdfrwt>
<pdfrwt beam="1">  1       -1 0.41376597E+00 0.67274129E+01</pdfrwt>
<totfact> 0.18173927E-02</totfact>
</mgrwt>
</event>
<event>
 4    1  0.4367748E-004  0.6251536E+01  0.7818608E-02  0.2383792E+00
          1   -1    0    0  501    0  0.00000000000E+00  0.00000000000E+00  0.55668820481E+02  0.55668820709E+02  0.50400000000E-02 0.  1.
         -1   -1    0    0    0  501 -0.00000000000E+00 -0.00000000000E+00 -0.17547340878E+00  0.17554577406E+00  0.50400000000E-02 0. -1.
         31    1    1    2    0    0 -0.11505944354E+01 -0.41719502392E+00  0.23019780025E+02  0.23225001436E+02  0.28271010000E+01 0. -1.
        -31    1    1    2    0    0  0.11505944354E+01  0.41719502392E+00  0.32473567047E+02  0.32619365047E+02  0.28271010000E+01 0.  1.
<mgrwt>
<rscale>  0 0.62515357E+01</rscale>
<asrwt>0</asrwt>
<pdfrwt beam="1">  1        1 0.46176029E+00 0.62515357E+01</pdfrwt>
<pdfrwt beam="2">  1       -1 0.37304500E+00 0.62515357E+01</pdfrwt>
<totfact> 0.39759621E-02</totfact>
</mgrwt>
</event>
<event>
 4    1  0.4367748E-004  0.6328924E+01  0.7818608E-02  0.2374483E+00
          1   -1    0    0  501    0  0.00000000000E+00  0.00000000000E+00  0.77892415284E+02  0.77892415447E+02  0.50400000000E-02 0. -1.
         -1   -1    0    0    0  501 -0.00000000000E+00 -0.00000000000E+00 -0.12851007097E+00  0.12860886416E+00  0.50400000000E-02 0.  1.
         31    1    1    2    0    0  0.89931315185E+00  0.90696486878E+00  0.46580303955E+02  0.46683493507E+02  0.28271010000E+01 0. -1.
        -31    1    1    2    0    0 -0.89931315185E+00 -0.90696486878E+00  0.31183601258E+02  0.31337530804E+02  0.28271010000E+01 0.  1.
<mgrwt>
<rscale>  0 0.63289241E+01</rscale>
<asrwt>0</asrwt>
<pdfrwt beam="1">  1        1 0.64513242E+00 0.63289241E+01</pdfrwt>
<pdfrwt beam="2">  1       -1 0.27366250E+00 0.63289241E+01</pdfrwt>
<totfact> 0.22008603E-02</totfact>
</mgrwt>
</event>
<event>
 4    1  0.4367748E-004  0.5838827E+01  0.7818608E-02  0.2436885E+00
          1   -1    0    0  501    0  0.00000000000E+00  0.00000000000E+00  0.52577318542E+02  0.52577318784E+02  0.50400000000E-02 0. -1.
         -1   -1    0    0    0  501 -0.00000000000E+00 -0.00000000000E+00 -0.16206424049E+00  0.16214259047E+00  0.50400000000E-02 0.  1.
         31    1    1    2    0    0 -0.25774960846E+00 -0.16492444595E+00  0.32177589415E+02  0.32302993600E+02  0.28271010000E+01 0.  1.
        -31    1    1    2    0    0  0.25774960846E+00  0.16492444595E+00  0.20237664887E+02  0.20436467774E+02  0.28271010000E+01 0.  1.
<mgrwt>
<rscale>  0 0.58388272E+01</rscale>
<asrwt>0</asrwt>
<pdfrwt beam="1">  1        1 0.43608677E+00 0.58388272E+01</pdfrwt>
<pdfrwt beam="2">  1       -1 0.34457417E+00 0.58388272E+01</pdfrwt>
<totfact> 0.75012203E-02</totfact>
</mgrwt>
</event>
<event>
 4    1  0.4367748E-004  0.9934584E+01  0.7818608E-02  0.2078730E+00
          1   -1    0    0  501    0  0.00000000000E+00  0.00000000000E+00  0.59839265591E+02  0.59839265803E+02  0.50400000000E-02 0.  1.
         -1   -1    0    0    0  501 -0.00000000000E+00 -0.00000000000E+00 -0.41232218325E+00  0.41235298519E+00  0.50400000000E-02 0. -1.
         31    1    1    2    0    0  0.34671682482E+01  0.15567999898E+01  0.20643330255E+02  0.21179812698E+02  0.28271010000E+01 0. -1.
        -31    1    1    2    0    0 -0.34671682482E+01 -0.15567999898E+01  0.38783613153E+02  0.39071806090E+02  0.28271010000E+01 0.  1.
<mgrwt>
<rscale>  0 0.99345842E+01</rscale>
<asrwt>0</asrwt>
<pdfrwt beam="1">  1        1 0.49820254E+00 0.99345842E+01</pdfrwt>
<pdfrwt beam="2">  1       -1 0.87316806E+00 0.99345842E+01</pdfrwt>
<totfact> 0.95769620E-05</totfact>
</mgrwt>
</event>
<event>
 4    1  0.4367748E-004  0.5818265E+01  0.7818608E-02  0.2439694E+00
          1   -1    0    0  501    0  0.00000000000E+00  0.00000000000E+00  0.48270044608E+02  0.48270044871E+02  0.50400000000E-02 0. -1.
         -1   -1    0    0    0  501 -0.00000000000E+00 -0.00000000000E+00 -0.17529074534E+00  0.17536318599E+00  0.50400000000E-02 0.  1.
         31    1    1    2    0    0  0.12415333094E+00  0.11751677456E+00  0.29578843062E+02  0.29714132685E+02  0.28271010000E+01 0. -1.
        -31    1    1    2    0    0 -0.12415333094E+00 -0.11751677456E+00  0.18515910800E+02  0.18731275372E+02  0.28271010000E+01 0.  1.
<mgrwt>
<rscale>  0 0.58182654E+01</rscale>
<asrwt>0</asrwt>
<pdfrwt beam="1">  1        1 0.40058053E+00 0.58182654E+01</pdfrwt>
<pdfrwt beam="2">  1       -1 0.37247884E+00 0.58182654E+01</pdfrwt>
<totfact> 0.70901852E-02</totfact>
</mgrwt>
</event>
<event>
 4    1  0.4367748E-004  0.5954251E+01  0.7818608E-02  0.2421416E+00
         -1   -1    0    0    0  501 -0.00000000000E+00  0.00000000000E+00  0.39072453576E+02  0.39072453901E+02  0.50400000000E-02 0. -1.
          1   -1    0    0  501    0  0.00000000000E+00 -0.00000000000E+00 -0.22681371400E+00  0.22686970370E+00  0.50400000000E-02 0.  1.
         31    1    1    2    0    0  0.34023768820E+00  0.86784830597E+00  0.19138746481E+02  0.19368867785E+02  0.28271010000E+01 0. -1.
        -31    1    1    2    0    0 -0.34023768820E+00 -0.86784830597E+00  0.19706893382E+02  0.19930455820E+02  0.28271010000E+01 0.  1.
<mgrwt>
<rscale>  0 0.59542505E+01</rscale>
<asrwt>0</asrwt>
<pdfrwt beam="2">  1        1 0.48087954E+00 0.59542505E+01</pdfrwt>
<pdfrwt beam="1">  1       -1 0.32495430E+00 0.59542505E+01</pdfrwt>
<totfact> 0.63908544E-02</totfact>
</mgrwt>
</event>
<event>
 4    1  0.4367748E-004  0.5931666E+01  0.7818608E-02  0.2424403E+00
          1   -1    0    0  501    0  0.00000000000E+00  0.00000000000E+00  0.73738954213E+02  0.73738954385E+02  0.50400000000E-02 0. -1.
         -1   -1    0    0    0  501 -0.00000000000E+00 -0.00000000000E+00 -0.11923447839E+00  0.11934095038E+00  0.50400000000E-02 0.  1.
         31    1    1    2    0    0 -0.39223247881E+00 -0.66793143836E+00  0.42429420948E+02  0.42530556553E+02  0.28271010000E+01 0. -1.
        -31    1    1    2    0    0  0.39223247881E+00  0.66793143836E+00  0.31190298787E+02  0.31327738782E+02  0.28271010000E+01 0.  1.
<mgrwt>
<rscale>  0 0.59316655E+01</rscale>
<asrwt>0</asrwt>
<pdfrwt beam="1">  1        1 0.61071206E+00 0.59316655E+01</pdfrwt>
<pdfrwt beam="2">  1       -1 0.25393420E+00 0.59316655E+01</pdfrwt>
<totfact> 0.43094765E-02</totfact>
</mgrwt>
</event>
<event>
 4    1  0.4367748E-004  0.6503112E+01  0.7818608E-02  0.2354207E+00
          1   -1    0    0  501    0  0.00000000000E+00  0.00000000000E+00  0.77491387642E+02  0.77491387806E+02  0.50400000000E-02 0.  1.
         -1   -1    0    0    0  501 -0.00000000000E+00 -0.00000000000E+00 -0.13638929443E+00  0.13648238434E+00  0.50400000000E-02 0. -1.
         31    1    1    2    0    0 -0.27197749462E+00  0.51037088576E+00  0.56565793984E+02  0.56639350272E+02  0.28271010000E+01 0.  1.
        -31    1    1    2    0    0  0.27197749462E+00 -0.51037088576E+00  0.20789204364E+02  0.20988519918E+02  0.28271010000E+01 0. -1.
<mgrwt>
<rscale>  0 0.65031116E+01</rscale>
<asrwt>0</asrwt>
<pdfrwt beam="1">  1        1 0.64188154E+00 0.65031116E+01</pdfrwt>
<pdfrwt beam="2">  1       -1 0.29039686E+00 0.65031116E+01</pdfrwt>
<totfact> 0.18222981E-02</totfact>
</mgrwt>
</event>
<event>
 4    1  0.4367748E-004  0.7305981E+01  0.7818608E-02  0.2271209E+00
          1   -1    0    0  501    0  0.00000000000E+00  0.00000000000E+00  0.71733877438E+02  0.71733877615E+02  0.50400000000E-02 0.  1.
         -1   -1    0    0    0  501 -0.00000000000E+00 -0.00000000000E+00 -0.18599132237E+00  0.18605959690E+00  0.50400000000E-02 0. -1.
         31    1    1    2    0    0 -0.56400077330E+00 -0.14904890623E+01  0.19266008250E+02  0.19537431471E+02  0.28271010000E+01 0. -1.
        -31    1    1    2    0    0  0.56400077330E+00  0.14904890623E+01  0.52281877865E+02  0.52382505740E+02  0.28271010000E+01 0.  1.
<mgrwt>
<rscale>  0 0.73059812E+01</rscale>
<asrwt>0</asrwt>
<pdfrwt beam="1">  1        1 0.59468436E+00 0.73059812E+01</pdfrwt>
<pdfrwt beam="2">  1       -1 0.39561702E+00 0.73059812E+01</pdfrwt>
<totfact> 0.73155742E-03</totfact>
</mgrwt>
</event>
<event>
 4    1  0.4367748E-004  0.7523664E+01  0.7818608E-02  0.2251229E+00
         -1   -1    0    0    0  501 -0.00000000000E+00  0.00000000000E+00  0.38533404432E+02  0.38533404762E+02  0.50400000000E-02 0.  1.
          1   -1    0    0  501    0  0.00000000000E+00 -0.00000000000E+00 -0.36723200835E+00  0.36726659194E+00  0.50400000000E-02 0. -1.
         31    1    1    2    0    0 -0.10216218425E+01  0.22491763064E+01  0.20310707193E+02  0.20654777461E+02  0.28271010000E+01 0.  1.
        -31    1    1    2    0    0  0.10216218425E+01 -0.22491763064E+01  0.17855465231E+02  0.18245893892E+02  0.28271010000E+01 0.  1.
<mgrwt>
<rscale>  0 0.75236636E+01</rscale>
<asrwt>0</asrwt>
<pdfrwt beam="2">  1        1 0.77565538E+00 0.75236636E+01</pdfrwt>
<pdfrwt beam="1">  1       -1 0.32165797E+00 0.75236636E+01</pdfrwt>
<totfact> 0.18118922E-03</totfact>
</mgrwt>
</event>
<event>
 4    1  0.4367748E-004  0.6456876E+01  0.7818608E-02  0.2359501E+00
         -1   -1    0    0    0  501 -0.00000000000E+00  0.00000000000E+00  0.44234653943E+02  0.44234654230E+02  0.50400000000E-02 0. -1.
          1   -1    0    0  501    0  0.00000000000E+00 -0.00000000000E+00 -0.23559823181E+00  0.23565213437E+00  0.50400000000E-02 0.  1.
         31    1    1    2    0    0  0.15057835985E+01 -0.27828472013E+00  0.19985843889E+02  0.20242808171E+02  0.28271010000E+01 0.  1.
        -31    1    1    2    0    0 -0.15057835985E+01  0.27828472013E+00  0.24013211821E+02  0.24227498193E+02  0.28271010000E+01 0. -1.
<mgrwt>
<rscale>  0 0.64568758E+01</rscale>
<asrwt>0</asrwt>
<pdfrwt beam="2">  1        1 0.49973746E+00 0.64568758E+01</pdfrwt>
<pdfrwt beam="1">  1       -1 0.36771161E+00 0.64568758E+01</pdfrwt>
<totfact> 0.29575995E-02</totfact>
</mgrwt>
</event>
<event>
 4    1  0.4367748E-004  0.6075117E+01  0.7818608E-02  0.2405748E+00
         -1   -1    0    0    0  501 -0.00000000000E+00  0.00000000000E+00  0.43379299956E+02  0.43379300249E+02  0.50400000000E-02 0.  1.
          1   -1    0    0  501    0  0.00000000000E+00 -0.00000000000E+00 -0.21266947086E+00  0.21272918331E+00  0.50400000000E-02 0. -1.
         31    1    1    2    0    0  0.69289500678E+00  0.85631193657E+00  0.20546288329E+02  0.20769107775E+02  0.28271010000E+01 0. -1.
        -31    1    1    2    0    0 -0.69289500678E+00 -0.85631193657E+00  0.22620342156E+02  0.22822921657E+02  0.28271010000E+01 0. -1.
<mgrwt>
<rscale>  0 0.60751167E+01</rscale>
<asrwt>0</asrwt>
<pdfrwt beam="2">  1        1 0.45130415E+00 0.60751167E+01</pdfrwt>
<pdfrwt beam="1">  1       -1 0.36044940E+00 0.60751167E+01</pdfrwt>
<totfact> 0.52332001E-02</totfact>
</mgrwt>
</event>
<event>
 4    1  0.4367748E-004  0.7820498E+01  0.7818608E-02  0.2225450E+00
         -1   -1    0    0    0  501 -0.00000000000E+00  0.00000000000E+00  0.38407715995E+02  0.38407716326E+02  0.50400000000E-02 0. -1.
          1   -1    0    0  501    0  0.00000000000E+00 -0.00000000000E+00 -0.39808206997E+00  0.39811397367E+00  0.50400000000E-02 0.  1.
         31    1    1    2    0    0 -0.23809284732E+01  0.60164302276E+00  0.24589630150E+02  0.24873142256E+02  0.28271010000E+01 0. -1.
        -31    1    1    2    0    0  0.23809284732E+01 -0.60164302276E+00  0.13420003776E+02  0.13932688044E+02  0.28271010000E+01 0. -1.
<mgrwt>
<rscale>  0 0.78204983E+01</rscale>
<asrwt>0</asrwt>
<pdfrwt beam="2">  1        1 0.84011558E+00 0.78204983E+01</pdfrwt>
<pdfrwt beam="1">  1       -1 0.32087376E+00 0.78204983E+01</pdfrwt>
<totfact> 0.52688494E-04</totfact>
</mgrwt>
</event>
<event>
 4    1  0.4367748E-004  0.5815169E+01  0.7818608E-02  0.2440119E+00
         -1   -1    0    0    0  501 -0.00000000000E+00  0.00000000000E+00  0.37143132787E+02  0.37143133129E+02  0.50400000000E-02 0. -1.
          1   -1    0    0  501    0  0.00000000000E+00 -0.00000000000E+00 -0.22757906107E+00  0.22763486253E+00  0.50400000000E-02 0.  1.
         31    1    1    2    0    0  0.46680622587E+00 -0.49329379870E+00  0.18346197955E+02  0.18575164233E+02  0.28271010000E+01 0.  1.
        -31    1    1    2    0    0 -0.46680622587E+00  0.49329379870E+00  0.18569355771E+02  0.18795603759E+02  0.28271010000E+01 0. -1.
<mgrwt>
<rscale>  0 0.58151692E+01</rscale>
<asrwt>0</asrwt>
<pdfrwt beam="2">  1        1 0.48234731E+00 0.58151692E+01</pdfrwt>
<pdfrwt beam="1">  1       -1 0.30900766E+00 0.58151692E+01</pdfrwt>
<totfact> 0.78016724E-02</totfact>
</mgrwt>
</event>
<event>
 4    1  0.4367748E-004  0.5796088E+01  0.7818608E-02  0.2442743E+00
          1   -1    0    0  501    0  0.00000000000E+00  0.00000000000E+00  0.45882932603E+02  0.45882932880E+02  0.50400000000E-02 0.  1.
         -1   -1    0    0    0  501 -0.00000000000E+00 -0.00000000000E+00 -0.18301040383E+00  0.18307979001E+00  0.50400000000E-02 0. -1.
         31    1    1    2    0    0  0.34862774644E+00  0.84116896528E-01  0.27037025765E+02  0.27186796046E+02  0.28271010000E+01 0.  1.
        -31    1    1    2    0    0 -0.34862774644E+00 -0.84116896528E-01  0.18662896434E+02  0.18879216624E+02  0.28271010000E+01 0. -1.
<mgrwt>
<rscale>  0 0.57960878E+01</rscale>
<asrwt>0</asrwt>
<pdfrwt beam="1">  1        1 0.38090602E+00 0.57960878E+01</pdfrwt>
<pdfrwt beam="2">  1       -1 0.38873752E+00 0.57960878E+01</pdfrwt>
<totfact> 0.67433522E-02</totfact>
</mgrwt>
</event>
<event>
 4    1  0.4367748E-004  0.6341758E+01  0.7818608E-02  0.2372958E+00
          1   -1    0    0  501    0  0.00000000000E+00  0.00000000000E+00  0.38048068918E+02  0.38048069252E+02  0.50400000000E-02 0.  1.
         -1   -1    0    0    0  501 -0.00000000000E+00 -0.00000000000E+00 -0.26423273550E+00  0.26428079785E+00  0.50400000000E-02 0. -1.
         31    1    1    2    0    0  0.16115643770E+00  0.12486285253E+01  0.14719810942E+02  0.15041621549E+02  0.28271010000E+01 0. -1.
        -31    1    1    2    0    0 -0.16115643770E+00 -0.12486285253E+01  0.23064025241E+02  0.23270728501E+02  0.28271010000E+01 0.  1.
<mgrwt>
<rscale>  0 0.63417576E+01</rscale>
<asrwt>0</asrwt>
<pdfrwt beam="1">  1        1 0.31679332E+00 0.63417576E+01</pdfrwt>
<pdfrwt beam="2">  1       -1 0.55956128E+00 0.63417576E+01</pdfrwt>
<totfact> 0.88927742E-03</totfact>
</mgrwt>
</event>
<event>
 4    1  0.4367748E-004  0.7158442E+01  0.7818608E-02  0.2285311E+00
         -1   -1    0    0    0  501 -0.00000000000E+00  0.00000000000E+00  0.75770557381E+02  0.75770557548E+02  0.50400000000E-02 0.  1.
          1   -1    0    0  501    0  0.00000000000E+00 -0.00000000000E+00 -0.16903614486E+00  0.16911126476E+00  0.50400000000E-02 0. -1.
         31    1    1    2    0    0 -0.31324433172E+00 -0.11608952573E+01  0.57282493659E+02  0.57364818310E+02  0.28271010000E+01 0.  1.
        -31    1    1    2    0    0  0.31324433172E+00  0.11608952573E+01  0.18319027577E+02  0.18574850503E+02  0.28271010000E+01 0. -1.
<mgrwt>
<rscale>  0 0.71584416E+01</rscale>
<asrwt>0</asrwt>
<pdfrwt beam="2">  1        1 0.35969586E+00 0.71584416E+01</pdfrwt>
<pdfrwt beam="1">  1       -1 0.62792231E+00 0.71584416E+01</pdfrwt>
<totfact> 0.28266601E-03</totfact>
</mgrwt>
</event>
<event>
 4    1  0.4367748E-004  0.6558027E+01  0.7818608E-02  0.2348000E+00
         -1   -1    0    0    0  501 -0.00000000000E+00  0.00000000000E+00  0.79075370200E+02  0.79075370361E+02  0.50400000000E-02 0. -1.
          1   -1    0    0  501    0  0.00000000000E+00 -0.00000000000E+00 -0.13592377531E+00  0.13601718382E+00  0.50400000000E-02 0.  1.
         31    1    1    2    0    0  0.68355071739E+00 -0.34627185043E+00  0.57271880197E+02  0.57346734058E+02  0.28271010000E+01 0. -1.
        -31    1    1    2    0    0 -0.68355071739E+00  0.34627185043E+00  0.21667566228E+02  0.21864653486E+02  0.28271010000E+01 0.  1.
<mgrwt>
<rscale>  0 0.65580268E+01</rscale>
<asrwt>0</asrwt>
<pdfrwt beam="2">  1        1 0.28941825E+00 0.65580268E+01</pdfrwt>
<pdfrwt beam="1">  1       -1 0.65497517E+00 0.65580268E+01</pdfrwt>
<totfact> 0.44152976E-03</totfact>
</mgrwt>
</event>
<event>
 4    1  0.4367748E-004  0.5790050E+01  0.7818608E-02  0.2443577E+00
          1   -1    0    0  501    0  0.00000000000E+00  0.00000000000E+00  0.49949093692E+02  0.49949093946E+02  0.50400000000E-02 0.  1.
         -1   -1    0    0    0  501 -0.00000000000E+00 -0.00000000000E+00 -0.16775611410E+00  0.16783180693E+00  0.50400000000E-02 0. -1.
         31    1    1    2    0    0 -0.44205168324E+00  0.42710235971E+00  0.25791975860E+02  0.25953734701E+02  0.28271010000E+01 0.  1.
        -31    1    1    2    0    0  0.44205168324E+00 -0.42710235971E+00  0.23989361718E+02  0.24163191052E+02  0.28271010000E+01 0.  1.
<mgrwt>
<rscale>  0 0.57900497E+01</rscale>
<asrwt>0</asrwt>
<pdfrwt beam="1">  1        1 0.41440181E+00 0.57900497E+01</pdfrwt>
<pdfrwt beam="2">  1       -1 0.35657208E+00 0.57900497E+01</pdfrwt>
<totfact> 0.77829110E-02</totfact>
</mgrwt>
</event>
<event>
 4    1  0.4367748E-004  0.5940792E+01  0.7818608E-02  0.2423194E+00
         -1   -1    0    0    0  501 -0.00000000000E+00  0.00000000000E+00  0.44185810587E+02  0.44185810874E+02  0.50400000000E-02 0.  1.
          1   -1    0    0  501    0  0.00000000000E+00 -0.00000000000E+00 -0.19965313737E+00  0.19971674157E+00  0.50400000000E-02 0. -1.
         31    1    1    2    0    0  0.57077977947E+00 -0.93319646696E-01  0.16729881310E+02  0.16976923361E+02  0.28271010000E+01 0. -1.
        -31    1    1    2    0    0 -0.57077977947E+00  0.93319646696E-01  0.27256276140E+02  0.27408604255E+02  0.28271010000E+01 0.  1.
<mgrwt>
<rscale>  0 0.59407924E+01</rscale>
<asrwt>0</asrwt>
<pdfrwt beam="2">  1        1 0.42385229E+00 0.59407924E+01</pdfrwt>
<pdfrwt beam="1">  1       -1 0.36701060E+00 0.59407924E+01</pdfrwt>
<totfact> 0.61790302E-02</totfact>
</mgrwt>
</event>
<event>
 4    1  0.4367748E-004  0.5814812E+01  0.7818608E-02  0.2440168E+00
         -1   -1    0    0    0  501 -0.00000000000E+00  0.00000000000E+00  0.40215535111E+02  0.40215535426E+02  0.50400000000E-02 0. -1.
          1   -1    0    0  501    0  0.00000000000E+00 -0.00000000000E+00 -0.21016209923E+00  0.21022252390E+00  0.50400000000E-02 0.  1.
         31    1    1    2    0    0 -0.47541065066E-01  0.67472078119E+00  0.20383516926E+02  0.20589749163E+02  0.28271010000E+01 0.  1.
        -31    1    1    2    0    0  0.47541065066E-01 -0.67472078119E+00  0.19621856086E+02  0.19836008787E+02  0.28271010000E+01 0.  1.
<mgrwt>
<rscale>  0 0.58148118E+01</rscale>
<asrwt>0</asrwt>
<pdfrwt beam="2">  1        1 0.44584132E+00 0.58148118E+01</pdfrwt>
<pdfrwt beam="1">  1       -1 0.33426845E+00 0.58148118E+01</pdfrwt>
<totfact> 0.78712814E-02</totfact>
</mgrwt>
</event>
<event>
 4    1  0.4367748E-004  0.5908835E+01  0.7818608E-02  0.2427442E+00
         -1   -1    0    0    0  501 -0.00000000000E+00  0.00000000000E+00  0.43935084655E+02  0.43935084944E+02  0.50400000000E-02 0.  1.
          1   -1    0    0  501    0  0.00000000000E+00 -0.00000000000E+00 -0.19863773820E+00  0.19870166743E+00  0.50400000000E-02 0. -1.
         31    1    1    2    0    0  0.60611121880E+00  0.54172641491E+00  0.23917057934E+02  0.24097281975E+02  0.28271010000E+01 0.  1.
        -31    1    1    2    0    0 -0.60611121880E+00 -0.54172641491E+00  0.19819388983E+02  0.20036504636E+02  0.28271010000E+01 0. -1.
<mgrwt>
<rscale>  0 0.59088351E+01</rscale>
<asrwt>0</asrwt>
<pdfrwt beam="2">  1        1 0.42169622E+00 0.59088351E+01</pdfrwt>
<pdfrwt beam="1">  1       -1 0.36492903E+00 0.59088351E+01</pdfrwt>
<totfact> 0.64876313E-02</totfact>
</mgrwt>
</event>
<event>
 4    1  0.4367748E-004  0.5960424E+01  0.7818608E-02  0.2420603E+00
         -1   -1    0    0    0  501 -0.00000000000E+00  0.00000000000E+00  0.26367064373E+02  0.26367064855E+02  0.50400000000E-02 0. -1.
          1   -1    0    0  501    0  0.00000000000E+00 -0.00000000000E+00 -0.33682751356E+00  0.33686521858E+00  0.50400000000E-02 0.  1.
         31    1    1    2    0    0  0.82191290197E+00 -0.45964513639E+00  0.13232215118E+02  0.13563584757E+02  0.28271010000E+01 0.  1.
        -31    1    1    2    0    0 -0.82191290197E+00  0.45964513639E+00  0.12798021742E+02  0.13140345317E+02  0.28271010000E+01 0. -1.
<mgrwt>
<rscale>  0 0.59604237E+01</rscale>
<asrwt>0</asrwt>
<pdfrwt beam="2">  1        1 0.70916329E+00 0.59604237E+01</pdfrwt>
<pdfrwt beam="1">  1       -1 0.22080678E+00 0.59604237E+01</pdfrwt>
<totfact> 0.20237341E-02</totfact>
</mgrwt>
</event>
<event>
 4    1  0.4367748E-004  0.7118449E+01  0.7818608E-02  0.2289216E+00
         -1   -1    0    0    0  501 -0.00000000000E+00  0.00000000000E+00  0.49226351952E+02  0.49226352210E+02  0.50400000000E-02 0.  1.
          1   -1    0    0  501    0  0.00000000000E+00 -0.00000000000E+00 -0.25731847648E+00  0.25736783003E+00  0.50400000000E-02 0. -1.
         31    1    1    2    0    0  0.15684420390E+01  0.18733262448E+00  0.14219672001E+02  0.14583781260E+02  0.28271010000E+01 0.  1.
        -31    1    1    2    0    0 -0.15684420390E+01 -0.18733262448E+00  0.34749361474E+02  0.34899938780E+02  0.28271010000E+01 0. -1.
<mgrwt>
<rscale>  0 0.71184485E+01</rscale>
<asrwt>0</asrwt>
<pdfrwt beam="2">  1        1 0.54585278E+00 0.71184485E+01</pdfrwt>
<pdfrwt beam="1">  1       -1 0.40916602E+00 0.71184485E+01</pdfrwt>
<totfact> 0.10192087E-02</totfact>
</mgrwt>
</event>
<event>
 4    1  0.4367748E-004  0.5779505E+01  0.7818608E-02  0.2445036E+00
         -1   -1    0    0    0  501 -0.00000000000E+00  0.00000000000E+00  0.54498814487E+02  0.54498814720E+02  0.50400000000E-02 0. -1.
          1   -1    0    0  501    0  0.00000000000E+00 -0.00000000000E+00 -0.15318496499E+00  0.15326785410E+00  0.50400000000E-02 0.  1.
         31    1    1    2    0    0 -0.52761433011E+00  0.27612508649E+00  0.27736103397E+02  0.27886171369E+02  0.28271010000E+01 0. -1.
        -31    1    1    2    0    0  0.52761433011E+00 -0.27612508649E+00  0.26609526126E+02  0.26765911205E+02  0.28271010000E+01 0. -1.
<mgrwt>
<rscale>  0 0.57795053E+01</rscale>
<asrwt>0</asrwt>
<pdfrwt beam="2">  1        1 0.32579303E+00 0.57795053E+01</pdfrwt>
<pdfrwt beam="1">  1       -1 0.45190166E+00 0.57795053E+01</pdfrwt>
<totfact> 0.43439199E-02</totfact>
</mgrwt>
</event>
<event>
 4    1  0.4367748E-004  0.5676800E+01  0.7818608E-02  0.2459488E+00
         -1   -1    0    0    0  501 -0.00000000000E+00  0.00000000000E+00  0.47489136588E+02  0.47489136855E+02  0.50400000000E-02 0. -1.
          1   -1    0    0  501    0  0.00000000000E+00 -0.00000000000E+00 -0.16961193767E+00  0.16968680267E+00  0.50400000000E-02 0.  1.
         31    1    1    2    0    0 -0.64673916012E-01 -0.15923925288E+00  0.22100958989E+02  0.22281706132E+02  0.28271010000E+01 0. -1.
        -31    1    1    2    0    0  0.64673916012E-01  0.15923925288E+00  0.25218565662E+02  0.25377117526E+02  0.28271010000E+01 0.  1.
<mgrwt>
<rscale>  0 0.56768001E+01</rscale>
<asrwt>0</asrwt>
<pdfrwt beam="2">  1        1 0.36043840E+00 0.56768001E+01</pdfrwt>
<pdfrwt beam="1">  1       -1 0.39407650E+00 0.56768001E+01</pdfrwt>
<totfact> 0.75066033E-02</totfact>
</mgrwt>
</event>
<event>
 4    1  0.4367748E-004  0.5736751E+01  0.7818608E-02  0.2450999E+00
          1   -1    0    0  501    0  0.00000000000E+00  0.00000000000E+00  0.45685258913E+02  0.45685259191E+02  0.50400000000E-02 0.  1.
         -1   -1    0    0    0  501 -0.00000000000E+00 -0.00000000000E+00 -0.18005705797E+00  0.18012758180E+00  0.50400000000E-02 0. -1.
         31    1    1    2    0    0  0.20633565765E+00 -0.21985193574E-01  0.26256014297E+02  0.26408594142E+02  0.28271010000E+01 0.  1.
        -31    1    1    2    0    0 -0.20633565765E+00  0.21985193574E-01  0.19249187558E+02  0.19456792631E+02  0.28271010000E+01 0. -1.
<mgrwt>
<rscale>  0 0.57367506E+01</rscale>
<asrwt>0</asrwt>
<pdfrwt beam="1">  1        1 0.37924711E+00 0.57367506E+01</pdfrwt>
<pdfrwt beam="2">  1       -1 0.38248469E+00 0.57367506E+01</pdfrwt>
<totfact> 0.74753018E-02</totfact>
</mgrwt>
</event>
<event>
 4    1  0.4367748E-004  0.6400571E+01  0.7818608E-02  0.2366033E+00
          1   -1    0    0  501    0  0.00000000000E+00  0.00000000000E+00  0.78544880016E+02  0.78544880178E+02  0.50400000000E-02 0.  1.
         -1   -1    0    0    0  501 -0.00000000000E+00 -0.00000000000E+00 -0.13034572874E+00  0.13044313168E+00  0.50400000000E-02 0. -1.
         31    1    1    2    0    0  0.25065932850E+00 -0.71456353196E+00  0.23294584843E+02  0.23477725917E+02  0.28271010000E+01 0.  1.
        -31    1    1    2    0    0 -0.25065932850E+00  0.71456353196E+00  0.55119949445E+02  0.55197597393E+02  0.28271010000E+01 0.  1.
<mgrwt>
<rscale>  0 0.64005711E+01</rscale>
<asrwt>0</asrwt>
<pdfrwt beam="1">  1        1 0.65054262E+00 0.64005711E+01</pdfrwt>
<pdfrwt beam="2">  1       -1 0.27756588E+00 0.64005711E+01</pdfrwt>
<totfact> 0.19541395E-02</totfact>
</mgrwt>
</event>
<event>
 4    1  0.4367748E-004  0.6462938E+01  0.7818608E-02  0.2358803E+00
          1   -1    0    0  501    0  0.00000000000E+00  0.00000000000E+00  0.58528953299E+02  0.58528953516E+02  0.50400000000E-02 0.  1.
         -1   -1    0    0    0  501 -0.00000000000E+00 -0.00000000000E+00 -0.17837830951E+00  0.17844949679E+00  0.50400000000E-02 0. -1.
         31    1    1    2    0    0 -0.62644577909E+00 -0.13909089067E+01  0.25991715425E+02  0.26189479428E+02  0.28271010000E+01 0. -1.
        -31    1    1    2    0    0  0.62644577909E+00  0.13909089067E+01  0.32358859565E+02  0.32517923585E+02  0.28271010000E+01 0. -1.
<mgrwt>
<rscale>  0 0.64629379E+01</rscale>
<asrwt>0</asrwt>
<pdfrwt beam="1">  1        1 0.48543388E+00 0.64629379E+01</pdfrwt>
<pdfrwt beam="2">  1       -1 0.37925758E+00 0.64629379E+01</pdfrwt>
<totfact> 0.28955948E-02</totfact>
</mgrwt>
</event>
<event>
 4    1  0.4367748E-004  0.6168910E+01  0.7818608E-02  0.2393945E+00
         -1   -1    0    0    0  501 -0.00000000000E+00  0.00000000000E+00  0.10620618106E+03  0.10620618118E+03  0.50400000000E-02 0. -1.
          1   -1    0    0  501    0  0.00000000000E+00 -0.00000000000E+00 -0.89508159084E-01  0.89649942234E-01  0.50400000000E-02 0.  1.
         31    1    1    2    0    0  0.18805640363E+00  0.82342573810E+00  0.37570011162E+02  0.37685695349E+02  0.28271010000E+01 0.  1.
        -31    1    1    2    0    0 -0.18805640363E+00 -0.82342573810E+00  0.68546661736E+02  0.68610135770E+02  0.28271010000E+01 0.  1.
<mgrwt>
<rscale>  0 0.61689097E+01</rscale>
<asrwt>0</asrwt>
<pdfrwt beam="2">  1        1 0.19083927E+00 0.61689097E+01</pdfrwt>
<pdfrwt beam="1">  1       -1 0.87892830E+00 0.61689097E+01</pdfrwt>
<totfact> 0.17114862E-03</totfact>
</mgrwt>
</event>
<event>
 4    1  0.4367748E-004  0.6219164E+01  0.7818608E-02  0.2387743E+00
         -1   -1    0    0    0  501 -0.00000000000E+00  0.00000000000E+00  0.40342525228E+02  0.40342525543E+02  0.50400000000E-02 0.  1.
          1   -1    0    0  501    0  0.00000000000E+00 -0.00000000000E+00 -0.23965825958E+00  0.23971124918E+00  0.50400000000E-02 0. -1.
         31    1    1    2    0    0  0.23399825608E+00  0.11938867641E+01  0.22946809040E+02  0.23152292888E+02  0.28271010000E+01 0. -1.
        -31    1    1    2    0    0 -0.23399825608E+00 -0.11938867641E+01  0.17156057929E+02  0.17429943904E+02  0.28271010000E+01 0. -1.
<mgrwt>
<rscale>  0 0.62191642E+01</rscale>
<asrwt>0</asrwt>
<pdfrwt beam="2">  1        1 0.50803688E+00 0.62191642E+01</pdfrwt>
<pdfrwt beam="1">  1       -1 0.33556233E+00 0.62191642E+01</pdfrwt>
<totfact> 0.42399408E-02</totfact>
</mgrwt>
</event>
<event>
 4    1  0.4367748E-004  0.5674952E+01  0.7818608E-02  0.2459752E+00
         -1   -1    0    0    0  501 -0.00000000000E+00  0.00000000000E+00  0.33137579484E+02  0.33137579867E+02  0.50400000000E-02 0.  1.
          1   -1    0    0  501    0  0.00000000000E+00 -0.00000000000E+00 -0.24293843901E+00  0.24299071330E+00  0.50400000000E-02 0. -1.
         31    1    1    2    0    0 -0.20713990429E+00 -0.27911939727E-01  0.15724885574E+02  0.15978367013E+02  0.28271010000E+01 0. -1.
        -31    1    1    2    0    0  0.20713990429E+00  0.27911939727E-01  0.17169755471E+02  0.17402203568E+02  0.28271010000E+01 0. -1.
<mgrwt>
<rscale>  0 0.56749522E+01</rscale>
<asrwt>0</asrwt>
<pdfrwt beam="2">  1        1 0.51427786E+00 0.56749522E+01</pdfrwt>
<pdfrwt beam="1">  1       -1 0.27601391E+00 0.56749522E+01</pdfrwt>
<totfact> 0.88636294E-02</totfact>
</mgrwt>
</event>
<event>
 4    1  0.4367748E-004  0.6156775E+01  0.7818608E-02  0.2395455E+00
          1   -1    0    0  501    0  0.00000000000E+00  0.00000000000E+00  0.34535215588E+02  0.34535215955E+02  0.50400000000E-02 0. -1.
         -1   -1    0    0    0  501 -0.00000000000E+00 -0.00000000000E+00 -0.27437664010E+00  0.27442292585E+00  0.50400000000E-02 0.  1.
         31    1    1    2    0    0 -0.70157933391E+00 -0.38960125350E+00  0.11948662676E+02  0.12304756906E+02  0.28271010000E+01 0.  1.
        -31    1    1    2    0    0  0.70157933391E+00  0.38960125350E+00  0.22312176272E+02  0.22504881976E+02  0.28271010000E+01 0.  1.
<mgrwt>
<rscale>  0 0.61567746E+01</rscale>
<asrwt>0</asrwt>
<pdfrwt beam="1">  1        1 0.28783045E+00 0.61567746E+01</pdfrwt>
<pdfrwt beam="2">  1       -1 0.58046249E+00 0.61567746E+01</pdfrwt>
<totfact> 0.86772812E-03</totfact>
</mgrwt>
</event>
<event>
 4    1  0.4367748E-004  0.7858791E+01  0.7818608E-02  0.2222239E+00
          1   -1    0    0  501    0  0.00000000000E+00  0.00000000000E+00  0.90393874871E+02  0.90393875012E+02  0.50400000000E-02 0.  1.
         -1   -1    0    0    0  501 -0.00000000000E+00 -0.00000000000E+00 -0.17077235512E+00  0.17084671163E+00  0.50400000000E-02 0. -1.
         31    1    1    2    0    0 -0.81420536528E+00  0.18336021889E+01  0.66431331553E+02  0.66521720808E+02  0.28271010000E+01 0.  1.
        -31    1    1    2    0    0  0.81420536528E+00 -0.18336021889E+01  0.23791770963E+02  0.24043000915E+02  0.28271010000E+01 0. -1.
<mgrwt>
<rscale>  0 0.78587908E+01</rscale>
<asrwt>0</asrwt>
<pdfrwt beam="1">  1        1 0.74885248E+00 0.78587908E+01</pdfrwt>
<pdfrwt beam="2">  1       -1 0.36351268E+00 0.78587908E+01</pdfrwt>
<totfact> 0.15563091E-03</totfact>
</mgrwt>
</event>
<event>
 4    1  0.4367748E-004  0.6618215E+01  0.7818608E-02  0.2341295E+00
          1   -1    0    0  501    0  0.00000000000E+00  0.00000000000E+00  0.45727379508E+02  0.45727379785E+02  0.50400000000E-02 0. -1.
         -1   -1    0    0    0  501 -0.00000000000E+00 -0.00000000000E+00 -0.23944007078E+00  0.23949310866E+00  0.50400000000E-02 0.  1.
         31    1    1    2    0    0 -0.65721327368E+00 -0.50049555483E+00  0.33220568061E+02  0.33350878061E+02  0.28271010000E+01 0. -1.
        -31    1    1    2    0    0  0.65721327368E+00  0.50049555483E+00  0.12267371376E+02  0.12615994833E+02  0.28271010000E+01 0.  1.
<mgrwt>
<rscale>  0 0.66182150E+01</rscale>
<asrwt>0</asrwt>
<pdfrwt beam="1">  1        1 0.38008627E+00 0.66182150E+01</pdfrwt>
<pdfrwt beam="2">  1       -1 0.50793010E+00 0.66182150E+01</pdfrwt>
<totfact> 0.11065079E-02</totfact>
</mgrwt>
</event>
<event>
 4    1  0.4367748E-004  0.5801925E+01  0.7818608E-02  0.2441939E+00
          1   -1    0    0  501    0  0.00000000000E+00  0.00000000000E+00  0.77175128345E+02  0.77175128510E+02  0.50400000000E-02 0. -1.
         -1   -1    0    0    0  501 -0.00000000000E+00 -0.00000000000E+00 -0.10898689621E+00  0.10910336908E+00  0.50400000000E-02 0.  1.
         31    1    1    2    0    0  0.51872826741E+00 -0.39222016441E+00  0.38706277590E+02  0.38814834028E+02  0.28271010000E+01 0. -1.
        -31    1    1    2    0    0 -0.51872826741E+00  0.39222016441E+00  0.38359863859E+02  0.38469397851E+02  0.28271010000E+01 0.  1.
<mgrwt>
<rscale>  0 0.58019255E+01</rscale>
<asrwt>0</asrwt>
<pdfrwt beam="1">  1        1 0.63904010E+00 0.58019255E+01</pdfrwt>
<pdfrwt beam="2">  1       -1 0.23217773E+00 0.58019255E+01</pdfrwt>
<totfact> 0.41997340E-02</totfact>
</mgrwt>
</event>
<event>
 4    1  0.4367748E-004  0.6208887E+01  0.7818608E-02  0.2389004E+00
         -1   -1    0    0    0  501 -0.00000000000E+00  0.00000000000E+00  0.26127014654E+02  0.26127015140E+02  0.50400000000E-02 0.  1.
          1   -1    0    0  501    0  0.00000000000E+00 -0.00000000000E+00 -0.36885606039E+00  0.36889049173E+00  0.50400000000E-02 0. -1.
         31    1    1    2    0    0 -0.79458778010E+00  0.27020252091E+00  0.87401452608E+01  0.92242624847E+01  0.28271010000E+01 0. -1.
        -31    1    1    2    0    0  0.79458778010E+00 -0.27020252091E+00  0.17018013333E+02  0.17271643147E+02  0.28271010000E+01 0.  1.
<mgrwt>
<rscale>  0 0.62088873E+01</rscale>
<asrwt>0</asrwt>
<pdfrwt beam="2">  1        1 0.77556097E+00 0.62088873E+01</pdfrwt>
<pdfrwt beam="1">  1       -1 0.21908669E+00 0.62088873E+01</pdfrwt>
<totfact> 0.76122566E-03</totfact>
</mgrwt>
</event>
<event>
 4    1  0.4367748E-004  0.6275117E+01  0.7818608E-02  0.2380935E+00
         -1   -1    0    0    0  501 -0.00000000000E+00  0.00000000000E+00  0.34979578527E+02  0.34979578890E+02  0.50400000000E-02 0.  1.
          1   -1    0    0  501    0  0.00000000000E+00 -0.00000000000E+00 -0.28140623342E+00  0.28145136313E+00  0.50400000000E-02 0. -1.
         31    1    1    2    0    0  0.18116162380E-02  0.11563933539E+01  0.21379746686E+02  0.21596835817E+02  0.28271010000E+01 0. -1.
        -31    1    1    2    0    0 -0.18116162380E-02 -0.11563933539E+01  0.13318425608E+02  0.13664194437E+02  0.28271010000E+01 0.  1.
<mgrwt>
<rscale>  0 0.62751171E+01</rscale>
<asrwt>0</asrwt>
<pdfrwt beam="2">  1        1 0.59527252E+00 0.62751171E+01</pdfrwt>
<pdfrwt beam="1">  1       -1 0.29156287E+00 0.62751171E+01</pdfrwt>
<totfact> 0.30728591E-02</totfact>
</mgrwt>
</event>
<event>
 4    1  0.4367748E-004  0.6568438E+01  0.7818608E-02  0.2346833E+00
          1   -1    0    0  501    0  0.00000000000E+00  0.00000000000E+00  0.62469123837E+02  0.62469124040E+02  0.50400000000E-02 0.  1.
         -1   -1    0    0    0  501 -0.00000000000E+00 -0.00000000000E+00 -0.17262580658E+00  0.17269936508E+00  0.50400000000E-02 0. -1.
         31    1    1    2    0    0  0.88718286586E+00 -0.13539548687E+01  0.35118417781E+02  0.35269194132E+02  0.28271010000E+01 0.  1.
        -31    1    1    2    0    0 -0.88718286586E+00  0.13539548687E+01  0.27178080249E+02  0.27372629273E+02  0.28271010000E+01 0. -1.
<mgrwt>
<rscale>  0 0.65684376E+01</rscale>
<asrwt>0</asrwt>
<pdfrwt beam="1">  1        1 0.51796642E+00 0.65684376E+01</pdfrwt>
<pdfrwt beam="2">  1       -1 0.36713597E+00 0.65684376E+01</pdfrwt>
<totfact> 0.24828436E-02</totfact>
</mgrwt>
</event>
<event>
 4    1  0.4367748E-004  0.6140071E+01  0.7818608E-02  0.2397542E+00
         -1   -1    0    0    0  501 -0.00000000000E+00  0.00000000000E+00  0.25082256187E+02  0.25082256693E+02  0.50400000000E-02 0.  1.
          1   -1    0    0  501    0  0.00000000000E+00 -0.00000000000E+00 -0.37575091140E+00  0.37578471100E+00  0.50400000000E-02 0. -1.
         31    1    1    2    0    0 -0.83050683193E+00  0.76656375196E+00  0.13986963983E+02  0.14314503942E+02  0.28271010000E+01 0. -1.
        -31    1    1    2    0    0  0.83050683193E+00 -0.76656375196E+00  0.10719541292E+02  0.11143537462E+02  0.28271010000E+01 0. -1.
<mgrwt>
<rscale>  0 0.61400708E+01</rscale>
<asrwt>0</asrwt>
<pdfrwt beam="2">  1        1 0.78938511E+00 0.61400708E+01</pdfrwt>
<pdfrwt beam="1">  1       -1 0.21050490E+00 0.61400708E+01</pdfrwt>
<totfact> 0.68201026E-03</totfact>
</mgrwt>
</event>
<event>
 4    1  0.4367748E-004  0.5781316E+01  0.7818608E-02  0.2444785E+00
         -1   -1    0    0    0  501 -0.00000000000E+00  0.00000000000E+00  0.35780469462E+02  0.35780469817E+02  0.50400000000E-02 0.  1.
          1   -1    0    0  501    0  0.00000000000E+00 -0.00000000000E+00 -0.23350499829E+00  0.23355938394E+00  0.50400000000E-02 0. -1.
         31    1    1    2    0    0 -0.17827261214E+00  0.34500381663E+00  0.20645729830E+02  0.20842012116E+02  0.28271010000E+01 0.  1.
        -31    1    1    2    0    0  0.17827261214E+00 -0.34500381663E+00  0.14901234634E+02  0.15172017085E+02  0.28271010000E+01 0. -1.
<mgrwt>
<rscale>  0 0.57813162E+01</rscale>
<asrwt>0</asrwt>
<pdfrwt beam="2">  1        1 0.49470796E+00 0.57813162E+01</pdfrwt>
<pdfrwt beam="1">  1       -1 0.29778919E+00 0.57813162E+01</pdfrwt>
<totfact> 0.80361044E-02</totfact>
</mgrwt>
</event>
<event>
 4    1  0.4367748E-004  0.5915617E+01  0.7818608E-02  0.2426537E+00
         -1   -1    0    0    0  501 -0.00000000000E+00  0.00000000000E+00  0.44802465999E+02  0.44802466282E+02  0.50400000000E-02 0. -1.
          1   -1    0    0  501    0  0.00000000000E+00 -0.00000000000E+00 -0.19523837406E+00  0.19530341601E+00  0.50400000000E-02 0.  1.
         31    1    1    2    0    0  0.46636419452E+00  0.19363814830E+00  0.27688419823E+02  0.27836955359E+02  0.28271010000E+01 0. -1.
        -31    1    1    2    0    0 -0.46636419452E+00 -0.19363814830E+00  0.16918807801E+02  0.17160814339E+02  0.28271010000E+01 0.  1.
<mgrwt>
<rscale>  0 0.59156167E+01</rscale>
<asrwt>0</asrwt>
<pdfrwt beam="2">  1        1 0.41454935E+00 0.59156167E+01</pdfrwt>
<pdfrwt beam="1">  1       -1 0.37207304E+00 0.59156167E+01</pdfrwt>
<totfact> 0.62754593E-02</totfact>
</mgrwt>
</event>
<event>
 4    1  0.4367748E-004  0.6262036E+01  0.7818608E-02  0.2382518E+00
          1   -1    0    0  501    0  0.00000000000E+00  0.00000000000E+00  0.31718624087E+02  0.31718624488E+02  0.50400000000E-02 0. -1.
         -1   -1    0    0    0  501 -0.00000000000E+00 -0.00000000000E+00 -0.30904901838E+00  0.30909011204E+00  0.50400000000E-02 0.  1.
         31    1    1    2    0    0 -0.34347699054E+00  0.14956077557E+00  0.22315136938E+02  0.22496626002E+02  0.28271010000E+01 0. -1.
        -31    1    1    2    0    0  0.34347699054E+00 -0.14956077557E+00  0.90944381312E+01  0.95310885976E+01  0.28271010000E+01 0.  1.
<mgrwt>
<rscale>  0 0.62620361E+01</rscale>
<asrwt>0</asrwt>
<pdfrwt beam="1">  1        1 0.26482755E+00 0.62620361E+01</pdfrwt>
<pdfrwt beam="2">  1       -1 0.65263800E+00 0.62620361E+01</pdfrwt>
<totfact> 0.55586478E-03</totfact>
</mgrwt>
</event>
<event>
 4    1  0.4367748E-004  0.8446531E+01  0.7818608E-02  0.2175930E+00
          1   -1    0    0  501    0  0.00000000000E+00  0.00000000000E+00  0.68466303603E+02  0.68466303789E+02  0.50400000000E-02 0. -1.
         -1   -1    0    0    0  501 -0.00000000000E+00 -0.00000000000E+00 -0.26048270736E+00  0.26053146150E+00  0.50400000000E-02 0.  1.
         31    1    1    2    0    0 -0.42168171836E+00  0.50830760852E+00  0.91466236726E+01  0.95963230859E+01  0.28271010000E+01 0.  1.
        -31    1    1    2    0    0  0.42168171836E+00 -0.50830760852E+00  0.59059197223E+02  0.59130512164E+02  0.28271010000E+01 0. -1.
<mgrwt>
<rscale>  0 0.84465306E+01</rscale>
<asrwt>0</asrwt>
<pdfrwt beam="1">  1        1 0.56828156E+00 0.84465306E+01</pdfrwt>
<pdfrwt beam="2">  1       -1 0.55334698E+00 0.84465306E+01</pdfrwt>
<totfact> 0.85562321E-04</totfact>
</mgrwt>
</event>
<event>
 4    1  0.4367748E-004  0.8089626E+01  0.7818608E-02  0.2203406E+00
         -1   -1    0    0    0  501 -0.00000000000E+00  0.00000000000E+00  0.71364368261E+02  0.71364368439E+02  0.50400000000E-02 0.  1.
          1   -1    0    0  501    0  0.00000000000E+00 -0.00000000000E+00 -0.22922537461E+00  0.22928077540E+00  0.50400000000E-02 0. -1.
         31    1    1    2    0    0 -0.28895228700E+01 -0.98971899696E-01  0.34733800623E+02  0.34968393495E+02  0.28271010000E+01 0.  1.
        -31    1    1    2    0    0  0.28895228700E+01  0.98971899696E-01  0.36401342264E+02  0.36625255720E+02  0.28271010000E+01 0. -1.
<mgrwt>
<rscale>  0 0.80896263E+01</rscale>
<asrwt>0</asrwt>
<pdfrwt beam="2">  1        1 0.48724747E+00 0.80896263E+01</pdfrwt>
<pdfrwt beam="1">  1       -1 0.59198638E+00 0.80896263E+01</pdfrwt>
<totfact> 0.11979165E-03</totfact>
</mgrwt>
</event>
<event>
 4    1  0.4367748E-004  0.6861859E+01  0.7818608E-02  0.2315150E+00
          1   -1    0    0  501    0  0.00000000000E+00  0.00000000000E+00  0.61628557374E+02  0.61628557580E+02  0.50400000000E-02 0. -1.
         -1   -1    0    0    0  501 -0.00000000000E+00 -0.00000000000E+00 -0.19097016750E+00  0.19103666265E+00  0.50400000000E-02 0.  1.
         31    1    1    2    0    0 -0.37989795641E+00 -0.15524400411E+01  0.40687604564E+02  0.40817006967E+02  0.28271010000E+01 0.  1.
        -31    1    1    2    0    0  0.37989795641E+00  0.15524400411E+01  0.20749982642E+02  0.21002587275E+02  0.28271010000E+01 0.  1.
<mgrwt>
<rscale>  0 0.68618591E+01</rscale>
<asrwt>0</asrwt>
<pdfrwt beam="1">  1        1 0.51116766E+00 0.68618591E+01</pdfrwt>
<pdfrwt beam="2">  1       -1 0.40599867E+00 0.68618591E+01</pdfrwt>
<totfact> 0.15261061E-02</totfact>
</mgrwt>
</event>
<event>
 4    1  0.4367748E-004  0.7986377E+01  0.7818608E-02  0.2211722E+00
          1   -1    0    0  501    0  0.00000000000E+00  0.00000000000E+00  0.69462052599E+02  0.69462052782E+02  0.50400000000E-02 0. -1.
         -1   -1    0    0    0  501 -0.00000000000E+00 -0.00000000000E+00 -0.22952991033E+00  0.22958523762E+00  0.50400000000E-02 0.  1.
         31    1    1    2    0    0  0.18141997897E+01  0.17802546298E+01  0.23955770144E+02  0.24255557109E+02  0.28271010000E+01 0.  1.
        -31    1    1    2    0    0 -0.18141997897E+01 -0.17802546298E+01  0.45276752545E+02  0.45436080911E+02  0.28271010000E+01 0. -1.
<mgrwt>
<rscale>  0 0.79863767E+01</rscale>
<asrwt>0</asrwt>
<pdfrwt beam="1">  1        1 0.57625922E+00 0.79863767E+01</pdfrwt>
<pdfrwt beam="2">  1       -1 0.48784973E+00 0.79863767E+01</pdfrwt>
<totfact> 0.21744410E-03</totfact>
</mgrwt>
</event>
<event>
 4    1  0.4367748E-004  0.6413806E+01  0.7818608E-02  0.2364489E+00
          1   -1    0    0  501    0  0.00000000000E+00  0.00000000000E+00  0.57505417352E+02  0.57505417573E+02  0.50400000000E-02 0. -1.
         -1   -1    0    0    0  501 -0.00000000000E+00 -0.00000000000E+00 -0.17880354056E+00  0.17887455860E+00  0.50400000000E-02 0.  1.
         31    1    1    2    0    0  0.14671840349E+01 -0.31931220486E+00  0.26930107789E+02  0.27119693857E+02  0.28271010000E+01 0.  1.
        -31    1    1    2    0    0 -0.14671840349E+01  0.31931220486E+00  0.30396506022E+02  0.30564598275E+02  0.28271010000E+01 0. -1.
<mgrwt>
<rscale>  0 0.64138060E+01</rscale>
<asrwt>0</asrwt>
<pdfrwt beam="1">  1        1 0.47697409E+00 0.64138060E+01</pdfrwt>
<pdfrwt beam="2">  1       -1 0.38013796E+00 0.64138060E+01</pdfrwt>
<totfact> 0.31062637E-02</totfact>
</mgrwt>
</event>
<event>
 4    1  0.4367748E-004  0.5682503E+01  0.7818608E-02  0.2458674E+00
          1   -1    0    0  501    0  0.00000000000E+00  0.00000000000E+00  0.44472787275E+02  0.44472787561E+02  0.50400000000E-02 0.  1.
         -1   -1    0    0    0  501 -0.00000000000E+00 -0.00000000000E+00 -0.18148492594E+00  0.18155489512E+00  0.50400000000E-02 0. -1.
         31    1    1    2    0    0 -0.23093581386E+00  0.99761403399E-01  0.21123317240E+02  0.21313148875E+02  0.28271010000E+01 0. -1.
        -31    1    1    2    0    0  0.23093581386E+00 -0.99761403399E-01  0.23167985109E+02  0.23341193581E+02  0.28271010000E+01 0.  1.
<mgrwt>
<rscale>  0 0.56825027E+01</rscale>
<asrwt>0</asrwt>
<pdfrwt beam="1">  1        1 0.36923335E+00 0.56825027E+01</pdfrwt>
<pdfrwt beam="2">  1       -1 0.38546306E+00 0.56825027E+01</pdfrwt>
<totfact> 0.78406719E-02</totfact>
</mgrwt>
</event>
<event>
 4    1  0.4367748E-004  0.5914461E+01  0.7818608E-02  0.2426691E+00
         -1   -1    0    0    0  501 -0.00000000000E+00  0.00000000000E+00  0.48332689777E+02  0.48332690040E+02  0.50400000000E-02 0.  1.
          1   -1    0    0  501    0  0.00000000000E+00 -0.00000000000E+00 -0.18090245314E+00  0.18097264753E+00  0.50400000000E-02 0. -1.
         31    1    1    2    0    0 -0.25057264145E+00 -0.47770912993E+00  0.18502271177E+02  0.18724783882E+02  0.28271010000E+01 0. -1.
        -31    1    1    2    0    0  0.25057264145E+00  0.47770912993E+00  0.29649516147E+02  0.29788878806E+02  0.28271010000E+01 0. -1.
<mgrwt>
<rscale>  0 0.59144607E+01</rscale>
<asrwt>0</asrwt>
<pdfrwt beam="2">  1        1 0.38435576E+00 0.59144607E+01</pdfrwt>
<pdfrwt beam="1">  1       -1 0.40114491E+00 0.59144607E+01</pdfrwt>
<totfact> 0.54758604E-02</totfact>
</mgrwt>
</event>
<event>
 4    1  0.4367748E-004  0.5739340E+01  0.7818608E-02  0.2450636E+00
          1   -1    0    0  501    0  0.00000000000E+00  0.00000000000E+00  0.68480644923E+02  0.68480645109E+02  0.50400000000E-02 0. -1.
         -1   -1    0    0    0  501 -0.00000000000E+00 -0.00000000000E+00 -0.12020003296E+00  0.12030565043E+00  0.50400000000E-02 0.  1.
         31    1    1    2    0    0 -0.13187715441E+00 -0.38274556452E+00  0.37531667506E+02  0.37640170717E+02  0.28271010000E+01 0.  1.
        -31    1    1    2    0    0  0.13187715441E+00  0.38274556452E+00  0.30828777384E+02  0.30960780042E+02  0.28271010000E+01 0.  1.
<mgrwt>
<rscale>  0 0.57393396E+01</rscale>
<asrwt>0</asrwt>
<pdfrwt beam="1">  1        1 0.56724066E+00 0.57393396E+01</pdfrwt>
<pdfrwt beam="2">  1       -1 0.25595339E+00 0.57393396E+01</pdfrwt>
<totfact> 0.67477966E-02</totfact>
</mgrwt>
</event>
<event>
 4    1  0.4367748E-004  0.6454659E+01  0.7818608E-02  0.2359756E+00
          1   -1    0    0  501    0  0.00000000000E+00  0.00000000000E+00  0.42393200657E+02  0.42393200956E+02  0.50400000000E-02 0.  1.
         -1   -1    0    0    0  501 -0.00000000000E+00 -0.00000000000E+00 -0.24566547183E+00  0.24571716597E+00  0.50400000000E-02 0. -1.
         31    1    1    2    0    0  0.14643808993E+01 -0.51711917307E+00  0.20370605442E+02  0.20624400350E+02  0.28271010000E+01 0. -1.
        -31    1    1    2    0    0 -0.14643808993E+01  0.51711917307E+00  0.21776929743E+02  0.22014517772E+02  0.28271010000E+01 0. -1.
<mgrwt>
<rscale>  0 0.64546585E+01</rscale>
<asrwt>0</asrwt>
<pdfrwt beam="1">  1        1 0.35256841E+00 0.64546585E+01</pdfrwt>
<pdfrwt beam="2">  1       -1 0.52084384E+00 0.64546585E+01</pdfrwt>
<totfact> 0.11582092E-02</totfact>
</mgrwt>
</event>
<event>
 4    1  0.4367748E-004  0.5682895E+01  0.7818608E-02  0.2458618E+00
          1   -1    0    0  501    0  0.00000000000E+00  0.00000000000E+00  0.34809524746E+02  0.34809525111E+02  0.50400000000E-02 0.  1.
         -1   -1    0    0    0  501 -0.00000000000E+00 -0.00000000000E+00 -0.23191521320E+00  0.23196997157E+00  0.50400000000E-02 0. -1.
         31    1    1    2    0    0 -0.16805246503E+00 -0.16060670505E+00  0.18307392383E+02  0.18525850913E+02  0.28271010000E+01 0.  1.
        -31    1    1    2    0    0  0.16805246503E+00  0.16060670505E+00  0.16270217150E+02  0.16515644169E+02  0.28271010000E+01 0. -1.
<mgrwt>
<rscale>  0 0.56828951E+01</rscale>
<asrwt>0</asrwt>
<pdfrwt beam="1">  1        1 0.28974760E+00 0.56828951E+01</pdfrwt>
<pdfrwt beam="2">  1       -1 0.49127404E+00 0.56828951E+01</pdfrwt>
<totfact> 0.32297508E-02</totfact>
</mgrwt>
</event>
<event>
 4    1  0.4367748E-004  0.6503416E+01  0.7818608E-02  0.2354172E+00
          1   -1    0    0  501    0  0.00000000000E+00  0.00000000000E+00  0.53343994310E+02  0.53343994548E+02  0.50400000000E-02 0.  1.
         -1   -1    0    0    0  501 -0.00000000000E+00 -0.00000000000E+00 -0.19818319881E+00  0.19824727461E+00  0.50400000000E-02 0. -1.
         31    1    1    2    0    0  0.12678155099E+01  0.63283398359E+00  0.20339366905E+02  0.20583735841E+02  0.28271010000E+01 0.  1.
        -31    1    1    2    0    0 -0.12678155099E+01 -0.63283398359E+00  0.32806444207E+02  0.32958505982E+02  0.28271010000E+01 0. -1.
<mgrwt>
<rscale>  0 0.65034161E+01</rscale>
<asrwt>0</asrwt>
<pdfrwt beam="1">  1        1 0.44272472E+00 0.65034161E+01</pdfrwt>
<pdfrwt beam="2">  1       -1 0.42106941E+00 0.65034161E+01</pdfrwt>
<totfact> 0.23832627E-02</totfact>
</mgrwt>
</event>
<event>
 4    1  0.4367748E-004  0.6038907E+01  0.7818608E-02  0.2410387E+00
         -1   -1    0    0    0  501 -0.00000000000E+00  0.00000000000E+00  0.78193345298E+02  0.78193345460E+02  0.50400000000E-02 0.  1.
          1   -1    0    0  501    0  0.00000000000E+00 -0.00000000000E+00 -0.11654225123E+00  0.11665118054E+00  0.50400000000E-02 0. -1.
         31    1    1    2    0    0  0.14837433288E+00 -0.87964963673E+00  0.46474167905E+02  0.46568622279E+02  0.28271010000E+01 0.  1.
        -31    1    1    2    0    0 -0.14837433288E+00  0.87964963673E+00  0.31602635142E+02  0.31741374362E+02  0.28271010000E+01 0. -1.
<mgrwt>
<rscale>  0 0.60389072E+01</rscale>
<asrwt>0</asrwt>
<pdfrwt beam="2">  1        1 0.24823709E+00 0.60389072E+01</pdfrwt>
<pdfrwt beam="1">  1       -1 0.64752184E+00 0.60389072E+01</pdfrwt>
<totfact> 0.66303741E-03</totfact>
</mgrwt>
</event>
<event>
 4    1  0.4367748E-004  0.6392086E+01  0.7818608E-02  0.2367025E+00
         -1   -1    0    0    0  501 -0.00000000000E+00  0.00000000000E+00  0.10334461994E+03  0.10334462006E+03  0.50400000000E-02 0.  1.
          1   -1    0    0  501    0  0.00000000000E+00 -0.00000000000E+00 -0.98776679432E-01  0.98905176809E-01  0.50400000000E-02 0. -1.
         31    1    1    2    0    0  0.93906447783E+00  0.51805249233E+00  0.68378216782E+02  0.68445038175E+02  0.28271010000E+01 0.  1.
        -31    1    1    2    0    0 -0.93906447783E+00 -0.51805249233E+00  0.34867626476E+02  0.34998487062E+02  0.28271010000E+01 0. -1.
<mgrwt>
<rscale>  0 0.63920860E+01</rscale>
<asrwt>0</asrwt>
<pdfrwt beam="2">  1        1 0.21054701E+00 0.63920860E+01</pdfrwt>
<pdfrwt beam="1">  1       -1 0.85534344E+00 0.63920860E+01</pdfrwt>
<totfact> 0.21193723E-03</totfact>
</mgrwt>
</event>
<event>
 4    1  0.4367748E-004  0.6304235E+01  0.7818608E-02  0.2377433E+00
         -1   -1    0    0    0  501 -0.00000000000E+00  0.00000000000E+00  0.44374186543E+02  0.44374186829E+02  0.50400000000E-02 0.  1.
          1   -1    0    0  501    0  0.00000000000E+00 -0.00000000000E+00 -0.22388180286E+00  0.22393852561E+00  0.50400000000E-02 0. -1.
         31    1    1    2    0    0 -0.75785486846E+00  0.11104630839E+01  0.24682799925E+02  0.24880526209E+02  0.28271010000E+01 0.  1.
        -31    1    1    2    0    0  0.75785486846E+00 -0.11104630839E+01  0.19467504816E+02  0.19717599146E+02  0.28271010000E+01 0. -1.
<mgrwt>
<rscale>  0 0.63042348E+01</rscale>
<asrwt>0</asrwt>
<pdfrwt beam="2">  1        1 0.47502375E+00 0.63042348E+01</pdfrwt>
<pdfrwt beam="1">  1       -1 0.36876850E+00 0.63042348E+01</pdfrwt>
<totfact> 0.37146021E-02</totfact>
</mgrwt>
</event>
<event>
 4    1  0.4367748E-004  0.6345275E+01  0.7818608E-02  0.2372541E+00
         -1   -1    0    0    0  501 -0.00000000000E+00  0.00000000000E+00  0.51804343129E+02  0.51804343374E+02  0.50400000000E-02 0.  1.
          1   -1    0    0  501    0  0.00000000000E+00 -0.00000000000E+00 -0.19426795696E+00  0.19433332370E+00  0.50400000000E-02 0. -1.
         31    1    1    2    0    0  0.84359025933E+00  0.11657639851E+01  0.25396977109E+02  0.25594327429E+02  0.28271010000E+01 0.  1.
        -31    1    1    2    0    0 -0.84359025933E+00 -0.11657639851E+01  0.26213098063E+02  0.26404349269E+02  0.28271010000E+01 0.  1.
<mgrwt>
<rscale>  0 0.63452753E+01</rscale>
<asrwt>0</asrwt>
<pdfrwt beam="2">  1        1 0.41273929E+00 0.63452753E+01</pdfrwt>
<pdfrwt beam="1">  1       -1 0.42996144E+00 0.63452753E+01</pdfrwt>
<totfact> 0.27643514E-02</totfact>
</mgrwt>
</event>
<event>
 4    1  0.4367748E-004  0.5690849E+01  0.7818608E-02  0.2457485E+00
          1   -1    0    0  501    0  0.00000000000E+00  0.00000000000E+00  0.42581504646E+02  0.42581504944E+02  0.50400000000E-02 0.  1.
         -1   -1    0    0    0  501 -0.00000000000E+00 -0.00000000000E+00 -0.19010614143E+00  0.19017293868E+00  0.50400000000E-02 0. -1.
         31    1    1    2    0    0 -0.10190936965E+00 -0.17680461296E+00  0.23071582317E+02  0.23245043688E+02  0.28271010000E+01 0.  1.
        -31    1    1    2    0    0  0.10190936965E+00  0.17680461296E+00  0.19319816187E+02  0.19526634194E+02  0.28271010000E+01 0. -1.
<mgrwt>
<rscale>  0 0.56908489E+01</rscale>
<asrwt>0</asrwt>
<pdfrwt beam="1">  1        1 0.35366616E+00 0.56908489E+01</pdfrwt>
<pdfrwt beam="2">  1       -1 0.40361286E+00 0.56908489E+01</pdfrwt>
<totfact> 0.69551198E-02</totfact>
</mgrwt>
</event>
<event>
 4    1  0.4367748E-004  0.6354528E+01  0.7818608E-02  0.2371445E+00
         -1   -1    0    0    0  501 -0.00000000000E+00  0.00000000000E+00  0.51278537605E+02  0.51278537852E+02  0.50400000000E-02 0. -1.
          1   -1    0    0  501    0  0.00000000000E+00 -0.00000000000E+00 -0.19683362384E+00  0.19689813883E+00  0.50400000000E-02 0.  1.
         31    1    1    2    0    0 -0.45831787669E+00  0.13142485695E+01  0.28833347078E+02  0.29005029019E+02  0.28271010000E+01 0. -1.
        -31    1    1    2    0    0  0.45831787669E+00 -0.13142485695E+01  0.22248356902E+02  0.22470406972E+02  0.28271010000E+01 0. -1.
<mgrwt>
<rscale>  0 0.63545282E+01</rscale>
<asrwt>0</asrwt>
<pdfrwt beam="2">  1        1 0.41815159E+00 0.63545282E+01</pdfrwt>
<pdfrwt beam="1">  1       -1 0.42563492E+00 0.63545282E+01</pdfrwt>
<totfact> 0.28047685E-02</totfact>
</mgrwt>
</event>
<event>
 4    1  0.4367748E-004  0.7383389E+01  0.7818608E-02  0.2263994E+00
         -1   -1    0    0    0  501 -0.00000000000E+00  0.00000000000E+00  0.55348024484E+02  0.55348024714E+02  0.50400000000E-02 0. -1.
          1   -1    0    0  501    0  0.00000000000E+00 -0.00000000000E+00 -0.24620873799E+00  0.24626031808E+00  0.50400000000E-02 0.  1.
         31    1    1    2    0    0 -0.23526256562E+01  0.86001426071E-01  0.29857777658E+02  0.30083577422E+02  0.28271010000E+01 0. -1.
        -31    1    1    2    0    0  0.23526256562E+01 -0.86001426071E-01  0.25244038088E+02  0.25510707610E+02  0.28271010000E+01 0. -1.
<mgrwt>
<rscale>  0 0.73833888E+01</rscale>
<asrwt>0</asrwt>
<pdfrwt beam="2">  1        1 0.52269517E+00 0.73833888E+01</pdfrwt>
<pdfrwt beam="1">  1       -1 0.45969245E+00 0.73833888E+01</pdfrwt>
<totfact> 0.60103134E-03</totfact>
</mgrwt>
</event>
<event>
 4    1  0.4367748E-004  0.6163693E+01  0.7818608E-02  0.2394593E+00
          1   -1    0    0  501    0  0.00000000000E+00  0.00000000000E+00  0.44279994659E+02  0.44279994946E+02  0.50400000000E-02 0. -1.
         -1   -1    0    0    0  501 -0.00000000000E+00 -0.00000000000E+00 -0.21446379065E+00  0.21452300366E+00  0.50400000000E-02 0.  1.
         31    1    1    2    0    0 -0.93406921549E+00 -0.58082339548E+00  0.25956491469E+02  0.26133155006E+02  0.28271010000E+01 0.  1.
        -31    1    1    2    0    0  0.93406921549E+00  0.58082339548E+00  0.18109039400E+02  0.18361362944E+02  0.28271010000E+01 0. -1.
<mgrwt>
<rscale>  0 0.61636934E+01</rscale>
<asrwt>0</asrwt>
<pdfrwt beam="1">  1        1 0.36791181E+00 0.61636934E+01</pdfrwt>
<pdfrwt beam="2">  1       -1 0.45513761E+00 0.61636934E+01</pdfrwt>
<totfact> 0.28386977E-02</totfact>
</mgrwt>
</event>
<event>
 4    1  0.4367748E-004  0.5814285E+01  0.7818608E-02  0.2440240E+00
          1   -1    0    0  501    0  0.00000000000E+00  0.00000000000E+00  0.41088560347E+02  0.41088560656E+02  0.50400000000E-02 0.  1.
         -1   -1    0    0    0  501 -0.00000000000E+00 -0.00000000000E+00 -0.20565815539E+00  0.20571990297E+00  0.50400000000E-02 0. -1.
         31    1    1    2    0    0  0.15542152097E+00 -0.65566530984E+00  0.19942983726E+02  0.20153638699E+02  0.28271010000E+01 0. -1.
        -31    1    1    2    0    0 -0.15542152097E+00  0.65566530984E+00  0.20939918466E+02  0.21140641860E+02  0.28271010000E+01 0.  1.
<mgrwt>
<rscale>  0 0.58142854E+01</rscale>
<asrwt>0</asrwt>
<pdfrwt beam="1">  1        1 0.34145000E+00 0.58142854E+01</pdfrwt>
<pdfrwt beam="2">  1       -1 0.43638515E+00 0.58142854E+01</pdfrwt>
<totfact> 0.47859842E-02</totfact>
</mgrwt>
</event>
<event>
 4    1  0.4367748E-004  0.5854453E+01  0.7818608E-02  0.2434761E+00
         -1   -1    0    0    0  501 -0.00000000000E+00  0.00000000000E+00  0.24684280088E+02  0.24684280602E+02  0.50400000000E-02 0. -1.
          1   -1    0    0  501    0  0.00000000000E+00 -0.00000000000E+00 -0.34711119267E+00  0.34714778075E+00  0.50400000000E-02 0.  1.
         31    1    1    2    0    0 -0.10455666554E+00  0.75161936851E+00  0.12095719127E+02  0.12444869828E+02  0.28271010000E+01 0.  1.
        -31    1    1    2    0    0  0.10455666554E+00 -0.75161936851E+00  0.12241449768E+02  0.12586558555E+02  0.28271010000E+01 0.  1.
<mgrwt>
<rscale>  0 0.58544528E+01</rscale>
<asrwt>0</asrwt>
<pdfrwt beam="2">  1        1 0.72988451E+00 0.58544528E+01</pdfrwt>
<pdfrwt beam="1">  1       -1 0.20697736E+00 0.58544528E+01</pdfrwt>
<totfact> 0.18501702E-02</totfact>
</mgrwt>
</event>
<event>
 4    1  0.4367748E-004  0.6559204E+01  0.7818608E-02  0.2347868E+00
         -1   -1    0    0    0  501 -0.00000000000E+00  0.00000000000E+00  0.37083534871E+02  0.37083535214E+02  0.50400000000E-02 0. -1.
          1   -1    0    0  501    0  0.00000000000E+00 -0.00000000000E+00 -0.29001994735E+00  0.29006373689E+00  0.50400000000E-02 0.  1.
         31    1    1    2    0    0  0.66457244092E+00  0.74035443690E+00  0.10808703999E+02  0.11216521895E+02  0.28271010000E+01 0. -1.
        -31    1    1    2    0    0 -0.66457244092E+00 -0.74035443690E+00  0.25984810925E+02  0.26157077055E+02  0.28271010000E+01 0. -1.
<mgrwt>
<rscale>  0 0.65592041E+01</rscale>
<asrwt>0</asrwt>
<pdfrwt beam="2">  1        1 0.61362710E+00 0.65592041E+01</pdfrwt>
<pdfrwt beam="1">  1       -1 0.30903107E+00 0.65592041E+01</pdfrwt>
<totfact> 0.19715031E-02</totfact>
</mgrwt>
</event>
<event>
 4    1  0.4367748E-004  0.5963875E+01  0.7818608E-02  0.2420149E+00
          1   -1    0    0  501    0  0.00000000000E+00  0.00000000000E+00  0.65701334385E+02  0.65701334579E+02  0.50400000000E-02 0. -1.
         -1   -1    0    0    0  501 -0.00000000000E+00 -0.00000000000E+00 -0.13529187493E+00  0.13538571942E+00  0.50400000000E-02 0.  1.
         31    1    1    2    0    0 -0.81355566794E+00 -0.41101194250E+00  0.35675401584E+02  0.35798848891E+02  0.28271010000E+01 0. -1.
        -31    1    1    2    0    0  0.81355566794E+00  0.41101194250E+00  0.29890640926E+02  0.30037871407E+02  0.28271010000E+01 0.  1.
<mgrwt>
<rscale>  0 0.59638753E+01</rscale>
<asrwt>0</asrwt>
<pdfrwt beam="1">  1        1 0.54438407E+00 0.59638753E+01</pdfrwt>
<pdfrwt beam="2">  1       -1 0.28797587E+00 0.59638753E+01</pdfrwt>
<totfact> 0.55628724E-02</totfact>
</mgrwt>
</event>
<event>
 4    1  0.4367748E-004  0.6841754E+01  0.7818608E-02  0.2317249E+00
         -1   -1    0    0    0  501 -0.00000000000E+00  0.00000000000E+00  0.50043635027E+02  0.50043635281E+02  0.50400000000E-02 0.  1.
          1   -1    0    0  501    0  0.00000000000E+00 -0.00000000000E+00 -0.23381647177E+00  0.23387078499E+00  0.50400000000E-02 0. -1.
         31    1    1    2    0    0 -0.13405299235E+01  0.13392220453E+01  0.27443769498E+02  0.27653996465E+02  0.28271010000E+01 0.  1.
        -31    1    1    2    0    0  0.13405299235E+01 -0.13392220453E+01  0.22366049058E+02  0.22623509601E+02  0.28271010000E+01 0.  1.
<mgrwt>
<rscale>  0 0.68417536E+01</rscale>
<asrwt>0</asrwt>
<pdfrwt beam="2">  1        1 0.49628173E+00 0.68417536E+01</pdfrwt>
<pdfrwt beam="1">  1       -1 0.41572960E+00 0.68417536E+01</pdfrwt>
<totfact> 0.15349631E-02</totfact>
</mgrwt>
</event>
<event>
 4    1  0.4367748E-004  0.6094160E+01  0.7818608E-02  0.2403327E+00
          1   -1    0    0  501    0  0.00000000000E+00  0.00000000000E+00  0.49381037093E+02  0.49381037351E+02  0.50400000000E-02 0.  1.
         -1   -1    0    0    0  501 -0.00000000000E+00 -0.00000000000E+00 -0.18798748060E+00  0.18805503041E+00  0.50400000000E-02 0. -1.
         31    1    1    2    0    0 -0.13175213198E+00  0.89013062459E+00  0.18946524123E+02  0.19177407738E+02  0.28271010000E+01 0.  1.
        -31    1    1    2    0    0  0.13175213198E+00 -0.89013062459E+00  0.30246525490E+02  0.30391684643E+02  0.28271010000E+01 0.  1.
<mgrwt>
<rscale>  0 0.60941603E+01</rscale>
<asrwt>0</asrwt>
<pdfrwt beam="1">  1        1 0.40987194E+00 0.60941603E+01</pdfrwt>
<pdfrwt beam="2">  1       -1 0.39937782E+00 0.60941603E+01</pdfrwt>
<totfact> 0.44509899E-02</totfact>
</mgrwt>
</event>
<event>
 4    1  0.4367748E-004  0.6307582E+01  0.7818608E-02  0.2377032E+00
          1   -1    0    0  501    0  0.00000000000E+00  0.00000000000E+00  0.63332335782E+02  0.63332335982E+02  0.50400000000E-02 0. -1.
         -1   -1    0    0    0  501 -0.00000000000E+00 -0.00000000000E+00 -0.15701023754E+00  0.15709110826E+00  0.50400000000E-02 0.  1.
         31    1    1    2    0    0 -0.10237334270E+01  0.22302698385E+00  0.22274274922E+02  0.22477401863E+02  0.28271010000E+01 0.  1.
        -31    1    1    2    0    0  0.10237334270E+01 -0.22302698385E+00  0.40901050622E+02  0.41012025227E+02  0.28271010000E+01 0. -1.
<mgrwt>
<rscale>  0 0.63075823E+01</rscale>
<asrwt>0</asrwt>
<pdfrwt beam="1">  1        1 0.52497500E+00 0.63075823E+01</pdfrwt>
<pdfrwt beam="2">  1       -1 0.33403472E+00 0.63075823E+01</pdfrwt>
<totfact> 0.36495007E-02</totfact>
</mgrwt>
</event>
<event>
 4    1  0.4367748E-004  0.6267172E+01  0.7818608E-02  0.2381896E+00
         -1   -1    0    0    0  501 -0.00000000000E+00  0.00000000000E+00  0.43022934902E+02  0.43022935198E+02  0.50400000000E-02 0.  1.
          1   -1    0    0  501    0  0.00000000000E+00 -0.00000000000E+00 -0.22820741399E+00  0.22826306184E+00  0.50400000000E-02 0. -1.
         31    1    1    2    0    0 -0.88673077845E+00 -0.25014535558E-01  0.14359647705E+02  0.14662158759E+02  0.28271010000E+01 0. -1.
        -31    1    1    2    0    0  0.88673077845E+00  0.25014535558E-01  0.28435079784E+02  0.28589039501E+02  0.28271010000E+01 0.  1.
<mgrwt>
<rscale>  0 0.62671724E+01</rscale>
<asrwt>0</asrwt>
<pdfrwt beam="2">  1        1 0.48407461E+00 0.62671724E+01</pdfrwt>
<pdfrwt beam="1">  1       -1 0.35763117E+00 0.62671724E+01</pdfrwt>
<totfact> 0.39706089E-02</totfact>
</mgrwt>
</event>
<event>
 4    1  0.4367748E-004  0.6181368E+01  0.7818608E-02  0.2392400E+00
         -1   -1    0    0    0  501 -0.00000000000E+00  0.00000000000E+00  0.37028718605E+02  0.37028718948E+02  0.50400000000E-02 0. -1.
          1   -1    0    0  501    0  0.00000000000E+00 -0.00000000000E+00 -0.25794585471E+00  0.25799508825E+00  0.50400000000E-02 0.  1.
         31    1    1    2    0    0  0.11449260767E+01 -0.24836234771E+00  0.15774874107E+02  0.16068966760E+02  0.28271010000E+01 0.  1.
        -31    1    1    2    0    0 -0.11449260767E+01  0.24836234771E+00  0.20995898643E+02  0.21217747276E+02  0.28271010000E+01 0. -1.
<mgrwt>
<rscale>  0 0.61813684E+01</rscale>
<asrwt>0</asrwt>
<pdfrwt beam="2">  1        1 0.54623850E+00 0.61813684E+01</pdfrwt>
<pdfrwt beam="1">  1       -1 0.30831264E+00 0.61813684E+01</pdfrwt>
<totfact> 0.41520231E-02</totfact>
</mgrwt>
</event>
<event>
 4    1  0.4367748E-004  0.6325289E+01  0.7818608E-02  0.2374916E+00
         -1   -1    0    0    0  501 -0.00000000000E+00  0.00000000000E+00  0.41816421816E+02  0.41816422120E+02  0.50400000000E-02 0.  1.
          1   -1    0    0  501    0  0.00000000000E+00 -0.00000000000E+00 -0.23916911669E+00  0.23922221464E+00  0.50400000000E-02 0. -1.
         31    1    1    2    0    0  0.17059614028E+00 -0.83920979597E+00  0.13276814298E+02  0.13601458528E+02  0.28271010000E+01 0. -1.
        -31    1    1    2    0    0 -0.17059614028E+00  0.83920979597E+00  0.28300438402E+02  0.28454185807E+02  0.28271010000E+01 0.  1.
<mgrwt>
<rscale>  0 0.63252888E+01</rscale>
<asrwt>0</asrwt>
<pdfrwt beam="2">  1        1 0.50711166E+00 0.63252888E+01</pdfrwt>
<pdfrwt beam="1">  1       -1 0.34774549E+00 0.63252888E+01</pdfrwt>
<totfact> 0.36235268E-02</totfact>
</mgrwt>
</event>
<event>
 4    1  0.4367748E-004  0.6618206E+01  0.7818608E-02  0.2341296E+00
         -1   -1    0    0    0  501 -0.00000000000E+00  0.00000000000E+00  0.55328072943E+02  0.55328073173E+02  0.50400000000E-02 0.  1.
          1   -1    0    0  501    0  0.00000000000E+00 -0.00000000000E+00 -0.19788099276E+00  0.19794516639E+00  0.50400000000E-02 0. -1.
         31    1    1    2    0    0  0.40035112391E+00 -0.12019816076E+01  0.37322726100E+02  0.37451080417E+02  0.28271010000E+01 0.  1.
        -31    1    1    2    0    0 -0.40035112391E+00  0.12019816076E+01  0.17807465851E+02  0.18074937922E+02  0.28271010000E+01 0.  1.
<mgrwt>
<rscale>  0 0.66182058E+01</rscale>
<asrwt>0</asrwt>
<pdfrwt beam="2">  1        1 0.42048564E+00 0.66182058E+01</pdfrwt>
<pdfrwt beam="1">  1       -1 0.45912797E+00 0.66182058E+01</pdfrwt>
<totfact> 0.16464493E-02</totfact>
</mgrwt>
</event>
<event>
 4    1  0.4367748E-004  0.6347470E+01  0.7818608E-02  0.2372281E+00
         -1   -1    0    0    0  501 -0.00000000000E+00  0.00000000000E+00  0.34715646454E+02  0.34715646820E+02  0.50400000000E-02 0. -1.
          1   -1    0    0  501    0  0.00000000000E+00 -0.00000000000E+00 -0.29012336784E+00  0.29016714178E+00  0.50400000000E-02 0.  1.
         31    1    1    2    0    0 -0.34772009059E+00 -0.11037814944E+01  0.12465920743E+02  0.12834754493E+02  0.28271010000E+01 0.  1.
        -31    1    1    2    0    0  0.34772009059E+00  0.11037814944E+01  0.21959602343E+02  0.22171059469E+02  0.28271010000E+01 0.  1.
<mgrwt>
<rscale>  0 0.63474697E+01</rscale>
<asrwt>0</asrwt>
<pdfrwt beam="2">  1        1 0.61351934E+00 0.63474697E+01</pdfrwt>
<pdfrwt beam="1">  1       -1 0.28945256E+00 0.63474697E+01</pdfrwt>
<totfact> 0.25739472E-02</totfact>
</mgrwt>
</event>
<event>
 4    1  0.4367748E-004  0.5834224E+01  0.7818608E-02  0.2437512E+00
          1   -1    0    0  501    0  0.00000000000E+00  0.00000000000E+00  0.49803769971E+02  0.49803770226E+02  0.50400000000E-02 0.  1.
         -1   -1    0    0    0  501 -0.00000000000E+00 -0.00000000000E+00 -0.17082396297E+00  0.17089829702E+00  0.50400000000E-02 0. -1.
         31    1    1    2    0    0 -0.12280013979E+00  0.70309050212E+00  0.24068501224E+02  0.24244477048E+02  0.28271010000E+01 0.  1.
        -31    1    1    2    0    0  0.12280013979E+00 -0.70309050212E+00  0.25564444784E+02  0.25730191475E+02  0.28271010000E+01 0.  1.
<mgrwt>
<rscale>  0 0.58342236E+01</rscale>
<asrwt>0</asrwt>
<pdfrwt beam="1">  1        1 0.41322552E+00 0.58342236E+01</pdfrwt>
<pdfrwt beam="2">  1       -1 0.36306416E+00 0.58342236E+01</pdfrwt>
<totfact> 0.71962576E-02</totfact>
</mgrwt>
</event>
<event>
 4    1  0.4367748E-004  0.7393791E+01  0.7818608E-02  0.2263034E+00
          1   -1    0    0  501    0  0.00000000000E+00  0.00000000000E+00  0.74822620203E+02  0.74822620373E+02  0.50400000000E-02 0. -1.
         -1   -1    0    0    0  501 -0.00000000000E+00 -0.00000000000E+00 -0.18262423593E+00  0.18269376877E+00  0.50400000000E-02 0.  1.
         31    1    1    2    0    0 -0.22729263343E+01 -0.50147958663E+00  0.32178677253E+02  0.32386377471E+02  0.28271010000E+01 0. -1.
        -31    1    1    2    0    0  0.22729263343E+01  0.50147958663E+00  0.42461318715E+02  0.42618936671E+02  0.28271010000E+01 0. -1.
<mgrwt>
<rscale>  0 0.73937914E+01</rscale>
<asrwt>0</asrwt>
<pdfrwt beam="1">  1        1 0.62019642E+00 0.73937914E+01</pdfrwt>
<pdfrwt beam="2">  1       -1 0.38851655E+00 0.73937914E+01</pdfrwt>
<totfact> 0.60551070E-03</totfact>
</mgrwt>
</event>
<event>
 4    1  0.4367748E-004  0.5800904E+01  0.7818608E-02  0.2442079E+00
          1   -1    0    0  501    0  0.00000000000E+00  0.00000000000E+00  0.43352828580E+02  0.43352828873E+02  0.50400000000E-02 0.  1.
         -1   -1    0    0    0  501 -0.00000000000E+00 -0.00000000000E+00 -0.19401710047E+00  0.19408255170E+00  0.50400000000E-02 0. -1.
         31    1    1    2    0    0  0.83386993853E-01 -0.42434088808E+00  0.25203800993E+02  0.25365549533E+02  0.28271010000E+01 0.  1.
        -31    1    1    2    0    0 -0.83386993853E-01  0.42434088808E+00  0.17955010487E+02  0.18181361892E+02  0.28271010000E+01 0. -1.
<mgrwt>
<rscale>  0 0.58009039E+01</rscale>
<asrwt>0</asrwt>
<pdfrwt beam="1">  1        1 0.36007633E+00 0.58009039E+01</pdfrwt>
<pdfrwt beam="2">  1       -1 0.41190888E+00 0.58009039E+01</pdfrwt>
<totfact> 0.58262149E-02</totfact>
</mgrwt>
</event>
<event>
 4    1  0.4367748E-004  0.6194281E+01  0.7818608E-02  0.2390803E+00
          1   -1    0    0  501    0  0.00000000000E+00  0.00000000000E+00  0.49494848083E+02  0.49494848339E+02  0.50400000000E-02 0. -1.
         -1   -1    0    0    0  501 -0.00000000000E+00 -0.00000000000E+00 -0.19377056164E+00  0.19383609612E+00  0.50400000000E-02 0.  1.
         31    1    1    2    0    0 -0.38431786425E+00  0.81846135485E+00  0.31745098390E+02  0.31883559259E+02  0.28271010000E+01 0.  1.
        -31    1    1    2    0    0  0.38431786425E+00 -0.81846135485E+00  0.17555979132E+02  0.17805125176E+02  0.28271010000E+01 0.  1.
<mgrwt>
<rscale>  0 0.61942809E+01</rscale>
<asrwt>0</asrwt>
<pdfrwt beam="1">  1        1 0.41086081E+00 0.61942809E+01</pdfrwt>
<pdfrwt beam="2">  1       -1 0.41161526E+00 0.61942809E+01</pdfrwt>
<totfact> 0.36924020E-02</totfact>
</mgrwt>
</event>
<event>
 4    1  0.4367748E-004  0.5915114E+01  0.7818608E-02  0.2426604E+00
          1   -1    0    0  501    0  0.00000000000E+00  0.00000000000E+00  0.70564424944E+02  0.70564425124E+02  0.50400000000E-02 0. -1.
         -1   -1    0    0    0  501 -0.00000000000E+00 -0.00000000000E+00 -0.12390827630E+00  0.12401073556E+00  0.50400000000E-02 0.  1.
         31    1    1    2    0    0  0.75752842525E-01 -0.48638456008E+00  0.26666392192E+02  0.26820351993E+02  0.28271010000E+01 0.  1.
        -31    1    1    2    0    0 -0.75752842525E-01  0.48638456008E+00  0.43774124476E+02  0.43868083867E+02  0.28271010000E+01 0.  1.
<mgrwt>
<rscale>  0 0.59151142E+01</rscale>
<asrwt>0</asrwt>
<pdfrwt beam="1">  1        1 0.58450145E+00 0.59151142E+01</pdfrwt>
<pdfrwt beam="2">  1       -1 0.26384269E+00 0.59151142E+01</pdfrwt>
<totfact> 0.50349127E-02</totfact>
</mgrwt>
</event>
<event>
 4    1  0.4367748E-004  0.5853721E+01  0.7818608E-02  0.2434860E+00
         -1   -1    0    0    0  501 -0.00000000000E+00  0.00000000000E+00  0.42307079690E+02  0.42307079990E+02  0.50400000000E-02 0. -1.
          1   -1    0    0  501    0  0.00000000000E+00 -0.00000000000E+00 -0.20245244761E+00  0.20251517263E+00  0.50400000000E-02 0.  1.
         31    1    1    2    0    0  0.67520735251E-01 -0.56686703196E+00  0.24669581534E+02  0.24837605569E+02  0.28271010000E+01 0. -1.
        -31    1    1    2    0    0 -0.67520735251E-01  0.56686703196E+00  0.17435045708E+02  0.17671989594E+02  0.28271010000E+01 0.  1.
<mgrwt>
<rscale>  0 0.58537207E+01</rscale>
<asrwt>0</asrwt>
<pdfrwt beam="2">  1        1 0.42967906E+00 0.58537207E+01</pdfrwt>
<pdfrwt beam="1">  1       -1 0.35149908E+00 0.58537207E+01</pdfrwt>
<totfact> 0.72456879E-02</totfact>
</mgrwt>
</event>
<event>
 4    1  0.4367748E-004  0.5722492E+01  0.7818608E-02  0.2453004E+00
         -1   -1    0    0    0  501 -0.00000000000E+00  0.00000000000E+00  0.33473237688E+02  0.33473238067E+02  0.50400000000E-02 0.  1.
          1   -1    0    0  501    0  0.00000000000E+00 -0.00000000000E+00 -0.24454903947E+00  0.24460096955E+00  0.50400000000E-02 0. -1.
         31    1    1    2    0    0  0.36628546904E+00 -0.11216872181E-01  0.15171798780E+02  0.15437301227E+02  0.28271010000E+01 0. -1.
        -31    1    1    2    0    0 -0.36628546904E+00  0.11216872181E-01  0.18056889868E+02  0.18280537810E+02  0.28271010000E+01 0. -1.
<mgrwt>
<rscale>  0 0.57224925E+01</rscale>
<asrwt>0</asrwt>
<pdfrwt beam="2">  1        1 0.51769967E+00 0.57224925E+01</pdfrwt>
<pdfrwt beam="1">  1       -1 0.27880268E+00 0.57224925E+01</pdfrwt>
<totfact> 0.82519732E-02</totfact>
</mgrwt>
</event>
<event>
 4    1  0.4367748E-004  0.5807943E+01  0.7818608E-02  0.2441111E+00
          1   -1    0    0  501    0  0.00000000000E+00  0.00000000000E+00  0.46611417511E+02  0.46611417784E+02  0.50400000000E-02 0. -1.
         -1   -1    0    0    0  501 -0.00000000000E+00 -0.00000000000E+00 -0.18088703556E+00  0.18095723593E+00  0.50400000000E-02 0.  1.
         31    1    1    2    0    0 -0.30854122133E+00 -0.58201822294E+00  0.23870133494E+02  0.24045991682E+02  0.28271010000E+01 0.  1.
        -31    1    1    2    0    0  0.30854122133E+00  0.58201822294E+00  0.22560396982E+02  0.22746383338E+02  0.28271010000E+01 0.  1.
<mgrwt>
<rscale>  0 0.58079428E+01</rscale>
<asrwt>0</asrwt>
<pdfrwt beam="1">  1        1 0.38691210E+00 0.58079428E+01</pdfrwt>
<pdfrwt beam="2">  1       -1 0.38427023E+00 0.58079428E+01</pdfrwt>
<totfact> 0.68040802E-02</totfact>
</mgrwt>
</event>
<event>
 4    1  0.4367748E-004  0.6169815E+01  0.7818608E-02  0.2393832E+00
         -1   -1    0    0    0  501 -0.00000000000E+00  0.00000000000E+00  0.33553826055E+02  0.33553826434E+02  0.50400000000E-02 0.  1.
          1   -1    0    0  501    0  0.00000000000E+00 -0.00000000000E+00 -0.28360072034E+00  0.28364550089E+00  0.50400000000E-02 0. -1.
         31    1    1    2    0    0 -0.11001905291E+01  0.53873515563E+00  0.17475820926E+02  0.17745350712E+02  0.28271010000E+01 0.  1.
        -31    1    1    2    0    0  0.11001905291E+01 -0.53873515563E+00  0.15794404408E+02  0.16092121223E+02  0.28271010000E+01 0. -1.
<mgrwt>
<rscale>  0 0.61698147E+01</rscale>
<asrwt>0</asrwt>
<pdfrwt beam="2">  1        1 0.59967162E+00 0.61698147E+01</pdfrwt>
<pdfrwt beam="1">  1       -1 0.27979189E+00 0.61698147E+01</pdfrwt>
<totfact> 0.34308307E-02</totfact>
</mgrwt>
</event>
<event>
 4    1  0.4367748E-004  0.5730335E+01  0.7818608E-02  0.2451900E+00
          1   -1    0    0  501    0  0.00000000000E+00  0.00000000000E+00  0.70232799154E+02  0.70232799334E+02  0.50400000000E-02 0. -1.
         -1   -1    0    0    0  501 -0.00000000000E+00 -0.00000000000E+00 -0.11683082895E+00  0.11693948945E+00  0.50400000000E-02 0.  1.
         31    1    1    2    0    0 -0.42953017255E+00  0.14025446065E-01  0.37253825587E+02  0.37363414108E+02  0.28271010000E+01 0. -1.
        -31    1    1    2    0    0  0.42953017255E+00 -0.14025446065E-01  0.32862142737E+02  0.32986324715E+02  0.28271010000E+01 0.  1.
<mgrwt>
<rscale>  0 0.57303349E+01</rscale>
<asrwt>0</asrwt>
<pdfrwt beam="1">  1        1 0.58170086E+00 0.57303349E+01</pdfrwt>
<pdfrwt beam="2">  1       -1 0.24880820E+00 0.57303349E+01</pdfrwt>
<totfact> 0.63732156E-02</totfact>
</mgrwt>
</event>
<event>
 4    1  0.4367748E-004  0.6595741E+01  0.7818608E-02  0.2343787E+00
         -1   -1    0    0    0  501 -0.00000000000E+00  0.00000000000E+00  0.41810276777E+02  0.41810277081E+02  0.50400000000E-02 0.  1.
          1   -1    0    0  501    0  0.00000000000E+00 -0.00000000000E+00 -0.26010155061E+00  0.26015037619E+00  0.50400000000E-02 0. -1.
         31    1    1    2    0    0 -0.14016329177E+01 -0.71676199940E+00  0.16715239782E+02  0.17025570876E+02  0.28271010000E+01 0. -1.
        -31    1    1    2    0    0  0.14016329177E+01  0.71676199940E+00  0.24834935444E+02  0.25044856582E+02  0.28271010000E+01 0.  1.
<mgrwt>
<rscale>  0 0.65957414E+01</rscale>
<asrwt>0</asrwt>
<pdfrwt beam="2">  1        1 0.55121050E+00 0.65957414E+01</pdfrwt>
<pdfrwt beam="1">  1       -1 0.34786773E+00 0.65957414E+01</pdfrwt>
<totfact> 0.23019389E-02</totfact>
</mgrwt>
</event>
<event>
 4    1  0.4367748E-004  0.5910022E+01  0.7818608E-02  0.2427283E+00
          1   -1    0    0  501    0  0.00000000000E+00  0.00000000000E+00  0.68805409548E+02  0.68805409733E+02  0.50400000000E-02 0. -1.
         -1   -1    0    0    0  501 -0.00000000000E+00 -0.00000000000E+00 -0.12685971015E+00  0.12695978757E+00  0.50400000000E-02 0.  1.
         31    1    1    2    0    0 -0.43995471439E+00 -0.23649727046E+00  0.26173903885E+02  0.26330879889E+02  0.28271010000E+01 0.  1.
        -31    1    1    2    0    0  0.43995471439E+00  0.23649727046E+00  0.42504645954E+02  0.42601489632E+02  0.28271010000E+01 0. -1.
<mgrwt>
<rscale>  0 0.59100220E+01</rscale>
<asrwt>0</asrwt>
<pdfrwt beam="1">  1        1 0.56998106E+00 0.59100220E+01</pdfrwt>
<pdfrwt beam="2">  1       -1 0.27009849E+00 0.59100220E+01</pdfrwt>
<totfact> 0.54089684E-02</totfact>
</mgrwt>
</event>
<event>
 4    1  0.4367748E-004  0.5760140E+01  0.7818608E-02  0.2447728E+00
         -1   -1    0    0    0  501 -0.00000000000E+00  0.00000000000E+00  0.33598737714E+02  0.33598738092E+02  0.50400000000E-02 0.  1.
          1   -1    0    0  501    0  0.00000000000E+00 -0.00000000000E+00 -0.24685228500E+00  0.24690373066E+00  0.50400000000E-02 0. -1.
         31    1    1    2    0    0 -0.29862087088E+00 -0.41776688401E+00  0.15521546009E+02  0.15785265097E+02  0.28271010000E+01 0.  1.
        -31    1    1    2    0    0  0.29862087088E+00  0.41776688401E+00  0.17830339420E+02  0.18060376726E+02  0.28271010000E+01 0. -1.
<mgrwt>
<rscale>  0 0.57601396E+01</rscale>
<asrwt>0</asrwt>
<pdfrwt beam="2">  1        1 0.52255311E+00 0.57601396E+01</pdfrwt>
<pdfrwt beam="1">  1       -1 0.27985945E+00 0.57601396E+01</pdfrwt>
<totfact> 0.77494852E-02</totfact>
</mgrwt>
</event>
<event>
 4    1  0.4367748E-004  0.6174914E+01  0.7818608E-02  0.2393200E+00
          1   -1    0    0  501    0  0.00000000000E+00  0.00000000000E+00  0.35540766008E+02  0.35540766365E+02  0.50400000000E-02 0.  1.
         -1   -1    0    0    0  501 -0.00000000000E+00 -0.00000000000E+00 -0.26818600382E+00  0.26823335782E+00  0.50400000000E-02 0. -1.
         31    1    1    2    0    0 -0.36280898928E+00  0.13025205864E+00  0.24476521170E+02  0.24642264194E+02  0.28271010000E+01 0.  1.
        -31    1    1    2    0    0  0.36280898928E+00 -0.13025205864E+00  0.10796058834E+02  0.11166735529E+02  0.28271010000E+01 0.  1.
<mgrwt>
<rscale>  0 0.61749138E+01</rscale>
<asrwt>0</asrwt>
<pdfrwt beam="1">  1        1 0.29609386E+00 0.61749138E+01</pdfrwt>
<pdfrwt beam="2">  1       -1 0.56759267E+00 0.61749138E+01</pdfrwt>
<totfact> 0.95513855E-03</totfact>
</mgrwt>
</event>
<event>
 4    1  0.4367748E-004  0.6111502E+01  0.7818608E-02  0.2401134E+00
         -1   -1    0    0    0  501 -0.00000000000E+00  0.00000000000E+00  0.25500881500E+02  0.25500881998E+02  0.50400000000E-02 0.  1.
          1   -1    0    0  501    0  0.00000000000E+00 -0.00000000000E+00 -0.36615045427E+00  0.36618514001E+00  0.50400000000E-02 0. -1.
         31    1    1    2    0    0 -0.13168811792E+00  0.27542808916E+00  0.78316444244E+01  0.83318879522E+01  0.28271010000E+01 0.  1.
        -31    1    1    2    0    0  0.13168811792E+00 -0.27542808916E+00  0.17303086621E+02  0.17535179185E+02  0.28271010000E+01 0.  1.
<mgrwt>
<rscale>  0 0.61115021E+01</rscale>
<asrwt>0</asrwt>
<pdfrwt beam="2">  1        1 0.76969010E+00 0.61115021E+01</pdfrwt>
<pdfrwt beam="1">  1       -1 0.21388701E+00 0.61115021E+01</pdfrwt>
<totfact> 0.90563767E-03</totfact>
</mgrwt>
</event>
<event>
 4    1  0.4367748E-004  0.6192646E+01  0.7818608E-02  0.2391005E+00
         -1   -1    0    0    0  501 -0.00000000000E+00  0.00000000000E+00  0.42228811071E+02  0.42228811372E+02  0.50400000000E-02 0. -1.
          1   -1    0    0  501    0  0.00000000000E+00 -0.00000000000E+00 -0.22700197654E+00  0.22705791982E+00  0.50400000000E-02 0.  1.
         31    1    1    2    0    0 -0.29818805037E+00 -0.16251808207E+00  0.12662121475E+02  0.12978333812E+02  0.28271010000E+01 0.  1.
        -31    1    1    2    0    0  0.29818805037E+00  0.16251808207E+00  0.29339687620E+02  0.29477535479E+02  0.28271010000E+01 0. -1.
<mgrwt>
<rscale>  0 0.61926465E+01</rscale>
<asrwt>0</asrwt>
<pdfrwt beam="2">  1        1 0.48148416E+00 0.61926465E+01</pdfrwt>
<pdfrwt beam="1">  1       -1 0.35105483E+00 0.61926465E+01</pdfrwt>
<totfact> 0.44580473E-02</totfact>
</mgrwt>
</event>
<event>
 4    1  0.4367748E-004  0.6436648E+01  0.7818608E-02  0.2361836E+00
          1   -1    0    0  501    0  0.00000000000E+00  0.00000000000E+00  0.53186756106E+02  0.53186756345E+02  0.50400000000E-02 0.  1.
         -1   -1    0    0    0  501 -0.00000000000E+00 -0.00000000000E+00 -0.19470751375E+00  0.19477273298E+00  0.50400000000E-02 0. -1.
         31    1    1    2    0    0  0.14204436360E+01  0.47525243594E-01  0.31368615299E+02  0.31527804310E+02  0.28271010000E+01 0.  1.
        -31    1    1    2    0    0 -0.14204436360E+01 -0.47525243594E-01  0.21623433293E+02  0.21853724768E+02  0.28271010000E+01 0. -1.
<mgrwt>
<rscale>  0 0.64366476E+01</rscale>
<asrwt>0</asrwt>
<pdfrwt beam="1">  1        1 0.44139583E+00 0.64366476E+01</pdfrwt>
<pdfrwt beam="2">  1       -1 0.41370963E+00 0.64366476E+01</pdfrwt>
<totfact> 0.26914462E-02</totfact>
</mgrwt>
</event>
<event>
 4    1  0.4367748E-004  0.9272198E+01  0.7818608E-02  0.2118939E+00
          1   -1    0    0  501    0  0.00000000000E+00  0.00000000000E+00  0.75862156108E+02  0.75862156276E+02  0.50400000000E-02 0. -1.
         -1   -1    0    0    0  501 -0.00000000000E+00 -0.00000000000E+00 -0.28329936917E+00  0.28334419735E+00  0.50400000000E-02 0.  1.
         31    1    1    2    0    0 -0.27844717123E+00 -0.18202756176E+01  0.11677638073E+02  0.12155273225E+02  0.28271010000E+01 0.  1.
        -31    1    1    2    0    0  0.27844717123E+00  0.18202756176E+01  0.63901218666E+02  0.63990227248E+02  0.28271010000E+01 0. -1.
<mgrwt>
<rscale>  0 0.92721980E+01</rscale>
<asrwt>0</asrwt>
<pdfrwt beam="1">  1        1 0.62962427E+00 0.92721980E+01</pdfrwt>
<pdfrwt beam="2">  1       -1 0.60185007E+00 0.92721980E+01</pdfrwt>
<totfact> 0.22993328E-04</totfact>
</mgrwt>
</event>
<event>
 4    1  0.4367748E-004  0.6341427E+01  0.7818608E-02  0.2372997E+00
          1   -1    0    0  501    0  0.00000000000E+00  0.00000000000E+00  0.52401750360E+02  0.52401750603E+02  0.50400000000E-02 0.  1.
         -1   -1    0    0    0  501 -0.00000000000E+00 -0.00000000000E+00 -0.19181948674E+00  0.19188568756E+00  0.50400000000E-02 0. -1.
         31    1    1    2    0    0  0.62940837369E+00 -0.10037220525E+01  0.32829027451E+02  0.32971823673E+02  0.28271010000E+01 0.  1.
        -31    1    1    2    0    0 -0.62940837369E+00  0.10037220525E+01  0.19380903422E+02  0.19621812617E+02  0.28271010000E+01 0. -1.
<mgrwt>
<rscale>  0 0.63414270E+01</rscale>
<asrwt>0</asrwt>
<pdfrwt beam="1">  1        1 0.43488098E+00 0.63414270E+01</pdfrwt>
<pdfrwt beam="2">  1       -1 0.40757540E+00 0.63414270E+01</pdfrwt>
<totfact> 0.31316270E-02</totfact>
</mgrwt>
</event>
<event>
 4    1  0.4367748E-004  0.6250121E+01  0.7818608E-02  0.2383964E+00
          1   -1    0    0  501    0  0.00000000000E+00  0.00000000000E+00  0.53748789325E+02  0.53748789562E+02  0.50400000000E-02 0. -1.
         -1   -1    0    0    0  501 -0.00000000000E+00 -0.00000000000E+00 -0.18166197940E+00  0.18173188042E+00  0.50400000000E-02 0.  1.
         31    1    1    2    0    0 -0.11352285920E+01 -0.44990092551E+00  0.22198572985E+02  0.22411164572E+02  0.28271010000E+01 0.  1.
        -31    1    1    2    0    0  0.11352285920E+01  0.44990092551E+00  0.31368554361E+02  0.31519356871E+02  0.28271010000E+01 0.  1.
<mgrwt>
<rscale>  0 0.62501209E+01</rscale>
<asrwt>0</asrwt>
<pdfrwt beam="1">  1        1 0.44593528E+00 0.62501209E+01</pdfrwt>
<pdfrwt beam="2">  1       -1 0.38610851E+00 0.62501209E+01</pdfrwt>
<totfact> 0.38440895E-02</totfact>
</mgrwt>
</event>
<event>
 4    1  0.4367748E-004  0.5774705E+01  0.7818608E-02  0.2445702E+00
          1   -1    0    0  501    0  0.00000000000E+00  0.00000000000E+00  0.26309419328E+02  0.26309419811E+02  0.50400000000E-02 0.  1.
         -1   -1    0    0    0  501 -0.00000000000E+00 -0.00000000000E+00 -0.31685478482E+00  0.31689486626E+00  0.50400000000E-02 0. -1.
         31    1    1    2    0    0 -0.28709788804E+00  0.28138924429E+00  0.11025444739E+02  0.11389228984E+02  0.28271010000E+01 0. -1.
        -31    1    1    2    0    0  0.28709788804E+00 -0.28138924429E+00  0.14967119805E+02  0.15237085693E+02  0.28271010000E+01 0.  1.
<mgrwt>
<rscale>  0 0.57747053E+01</rscale>
<asrwt>0</asrwt>
<pdfrwt beam="1">  1        1 0.22016500E+00 0.57747053E+01</pdfrwt>
<pdfrwt beam="2">  1       -1 0.66759913E+00 0.57747053E+01</pdfrwt>
<totfact> 0.76489984E-03</totfact>
</mgrwt>
</event>
<event>
 4    1  0.4367748E-004  0.6044655E+01  0.7818608E-02  0.2409648E+00
         -1   -1    0    0    0  501 -0.00000000000E+00  0.00000000000E+00  0.44150078346E+02  0.44150078634E+02  0.50400000000E-02 0.  1.
          1   -1    0    0  501    0  0.00000000000E+00 -0.00000000000E+00 -0.20686474891E+00  0.20692613644E+00  0.50400000000E-02 0. -1.
         31    1    1    2    0    0 -0.41747103620E+00 -0.98153493915E+00  0.22451111434E+02  0.22653533887E+02  0.28271010000E+01 0.  1.
        -31    1    1    2    0    0  0.41747103620E+00  0.98153493915E+00  0.21492102164E+02  0.21703470884E+02  0.28271010000E+01 0.  1.
<mgrwt>
<rscale>  0 0.60446547E+01</rscale>
<asrwt>0</asrwt>
<pdfrwt beam="2">  1        1 0.43908434E+00 0.60446547E+01</pdfrwt>
<pdfrwt beam="1">  1       -1 0.36677475E+00 0.60446547E+01</pdfrwt>
<totfact> 0.53794080E-02</totfact>
</mgrwt>
</event>
<event>
 4    1  0.4367748E-004  0.7319127E+01  0.7818608E-02  0.2269975E+00
          1   -1    0    0  501    0  0.00000000000E+00  0.00000000000E+00  0.74564872707E+02  0.74564872877E+02  0.50400000000E-02 0. -1.
         -1   -1    0    0    0  501 -0.00000000000E+00 -0.00000000000E+00 -0.17957188350E+00  0.17964259780E+00  0.50400000000E-02 0.  1.
         31    1    1    2    0    0  0.18647666862E-01 -0.23129209856E+01  0.34910214765E+02  0.35100791248E+02  0.28271010000E+01 0.  1.
        -31    1    1    2    0    0 -0.18647666862E-01  0.23129209856E+01  0.39475086059E+02  0.39643724227E+02  0.28271010000E+01 0. -1.
<mgrwt>
<rscale>  0 0.73191267E+01</rscale>
<asrwt>0</asrwt>
<pdfrwt beam="1">  1        1 0.61803995E+00 0.73191267E+01</pdfrwt>
<pdfrwt beam="2">  1       -1 0.38203782E+00 0.73191267E+01</pdfrwt>
<totfact> 0.68168776E-03</totfact>
</mgrwt>
</event>
<event>
 4    1  0.4367748E-004  0.6533896E+01  0.7818608E-02  0.2350717E+00
         -1   -1    0    0    0  501 -0.00000000000E+00  0.00000000000E+00  0.45409975012E+02  0.45409975292E+02  0.50400000000E-02 0. -1.
          1   -1    0    0  501    0  0.00000000000E+00 -0.00000000000E+00 -0.23500801775E+00  0.23506205565E+00  0.50400000000E-02 0.  1.
         31    1    1    2    0    0  0.83348475699E+00  0.53174851620E+00  0.31703980594E+02  0.31845130537E+02  0.28271010000E+01 0. -1.
        -31    1    1    2    0    0 -0.83348475699E+00 -0.53174851620E+00  0.13470986400E+02  0.13799906810E+02  0.28271010000E+01 0.  1.
<mgrwt>
<rscale>  0 0.65338956E+01</rscale>
<asrwt>0</asrwt>
<pdfrwt beam="2">  1        1 0.49856063E+00 0.65338956E+01</pdfrwt>
<pdfrwt beam="1">  1       -1 0.37742510E+00 0.65338956E+01</pdfrwt>
<totfact> 0.26101597E-02</totfact>
</mgrwt>
</event>
<event>
 4    1  0.4367748E-004  0.6744285E+01  0.7818608E-02  0.2327572E+00
          1   -1    0    0  501    0  0.00000000000E+00  0.00000000000E+00  0.34711694670E+02  0.34711695036E+02  0.50400000000E-02 0. -1.
         -1   -1    0    0    0  501 -0.00000000000E+00 -0.00000000000E+00 -0.32757430416E+00  0.32761307413E+00  0.50400000000E-02 0.  1.
         31    1    1    2    0    0  0.13412660445E+00  0.18153801258E+01  0.15864942573E+02  0.16217351752E+02  0.28271010000E+01 0.  1.
        -31    1    1    2    0    0 -0.13412660445E+00 -0.18153801258E+01  0.18519177793E+02  0.18821956358E+02  0.28271010000E+01 0.  1.
<mgrwt>
<rscale>  0 0.67442850E+01</rscale>
<asrwt>0</asrwt>
<pdfrwt beam="1">  1        1 0.28972952E+00 0.67442850E+01</pdfrwt>
<pdfrwt beam="2">  1       -1 0.69196395E+00 0.67442850E+01</pdfrwt>
<totfact> 0.36963457E-03</totfact>
</mgrwt>
</event>
<event>
 4    1  0.4367748E-004  0.6288695E+01  0.7818608E-02  0.2379299E+00
         -1   -1    0    0    0  501 -0.00000000000E+00  0.00000000000E+00  0.44591804490E+02  0.44591804775E+02  0.50400000000E-02 0.  1.
          1   -1    0    0  501    0  0.00000000000E+00 -0.00000000000E+00 -0.22169166057E+00  0.22174894355E+00  0.50400000000E-02 0. -1.
         31    1    1    2    0    0 -0.83015250399E+00  0.51728107527E+00  0.15284596040E+02  0.15574598199E+02  0.28271010000E+01 0. -1.
        -31    1    1    2    0    0  0.83015250399E+00 -0.51728107527E+00  0.29085516789E+02  0.29238955519E+02  0.28271010000E+01 0.  1.
<mgrwt>
<rscale>  0 0.62886950E+01</rscale>
<asrwt>0</asrwt>
<pdfrwt beam="2">  1        1 0.47041249E+00 0.62886950E+01</pdfrwt>
<pdfrwt beam="1">  1       -1 0.37054982E+00 0.62886950E+01</pdfrwt>
<totfact> 0.37885729E-02</totfact>
</mgrwt>
</event>
<event>
 4    1  0.4367748E-004  0.7133269E+01  0.7818608E-02  0.2287764E+00
         -1   -1    0    0    0  501 -0.00000000000E+00  0.00000000000E+00  0.97458536112E+02  0.97458536242E+02  0.50400000000E-02 0.  1.
          1   -1    0    0  501    0  0.00000000000E+00 -0.00000000000E+00 -0.13047731852E+00  0.13057462329E+00  0.50400000000E-02 0. -1.
         31    1    1    2    0    0 -0.52225539964E+00 -0.11832740626E+01  0.72578099198E+02  0.72644654803E+02  0.28271010000E+01 0.  1.
        -31    1    1    2    0    0  0.52225539964E+00  0.11832740626E+01  0.24749959595E+02  0.24944456062E+02  0.28271010000E+01 0. -1.
<mgrwt>
<rscale>  0 0.71332693E+01</rscale>
<asrwt>0</asrwt>
<pdfrwt beam="2">  1        1 0.27793488E+00 0.71332693E+01</pdfrwt>
<pdfrwt beam="1">  1       -1 0.80693505E+00 0.71332693E+01</pdfrwt>
<totfact> 0.20396997E-03</totfact>
</mgrwt>
</event>
<event>
 4    1  0.4367748E-004  0.6785097E+01  0.7818608E-02  0.2323220E+00
          1   -1    0    0  501    0  0.00000000000E+00  0.00000000000E+00  0.61026665210E+02  0.61026665418E+02  0.50400000000E-02 0. -1.
         -1   -1    0    0    0  501 -0.00000000000E+00 -0.00000000000E+00 -0.18856211915E+00  0.18862946318E+00  0.50400000000E-02 0.  1.
         31    1    1    2    0    0  0.49606607800E-01  0.78084796734E+00  0.15042654937E+02  0.15325995954E+02  0.28271010000E+01 0.  1.
        -31    1    1    2    0    0 -0.49606607800E-01 -0.78084796734E+00  0.45795448154E+02  0.45889298928E+02  0.28271010000E+01 0. -1.
<mgrwt>
<rscale>  0 0.67850969E+01</rscale>
<asrwt>0</asrwt>
<pdfrwt beam="1">  1        1 0.50617089E+00 0.67850969E+01</pdfrwt>
<pdfrwt beam="2">  1       -1 0.40088456E+00 0.67850969E+01</pdfrwt>
<totfact> 0.17290853E-02</totfact>
</mgrwt>
</event>
<event>
 4    1  0.4367748E-004  0.6166358E+01  0.7818608E-02  0.2394262E+00
         -1   -1    0    0    0  501 -0.00000000000E+00  0.00000000000E+00  0.41327930340E+02  0.41327930647E+02  0.50400000000E-02 0. -1.
          1   -1    0    0  501    0  0.00000000000E+00 -0.00000000000E+00 -0.22998588161E+00  0.23004109924E+00  0.50400000000E-02 0.  1.
         31    1    1    2    0    0  0.50957700648E+00  0.75153083508E+00  0.26143245155E+02  0.26311332817E+02  0.28271010000E+01 0. -1.
        -31    1    1    2    0    0 -0.50957700648E+00 -0.75153083508E+00  0.14954699304E+02  0.15246638930E+02  0.28271010000E+01 0.  1.
<mgrwt>
<rscale>  0 0.61663585E+01</rscale>
<asrwt>0</asrwt>
<pdfrwt beam="2">  1        1 0.48771977E+00 0.61663585E+01</pdfrwt>
<pdfrwt beam="1">  1       -1 0.34363039E+00 0.61663585E+01</pdfrwt>
<totfact> 0.46434386E-02</totfact>
</mgrwt>
</event>
<event>
 4    1  0.4367748E-004  0.6708110E+01  0.7818608E-02  0.2331467E+00
         -1   -1    0    0    0  501 -0.00000000000E+00  0.00000000000E+00  0.43080722682E+02  0.43080722977E+02  0.50400000000E-02 0.  1.
          1   -1    0    0  501    0  0.00000000000E+00 -0.00000000000E+00 -0.26110577854E+00  0.26115441636E+00  0.50400000000E-02 0. -1.
         31    1    1    2    0    0  0.14723233689E+01 -0.97711433579E+00  0.19038504504E+02  0.19328208461E+02  0.28271010000E+01 0. -1.
        -31    1    1    2    0    0 -0.14723233689E+01  0.97711433579E+00  0.23781112400E+02  0.24013668932E+02  0.28271010000E+01 0.  1.
<mgrwt>
<rscale>  0 0.67081103E+01</rscale>
<asrwt>0</asrwt>
<pdfrwt beam="2">  1        1 0.55342636E+00 0.67081103E+01</pdfrwt>
<pdfrwt beam="1">  1       -1 0.35838097E+00 0.67081103E+01</pdfrwt>
<totfact> 0.19449893E-02</totfact>
</mgrwt>
</event>
<event>
 4    1  0.4367748E-004  0.7977001E+01  0.7818608E-02  0.2212485E+00
          1   -1    0    0  501    0  0.00000000000E+00  0.00000000000E+00  0.10737402530E+03  0.10737402542E+03  0.50400000000E-02 0.  1.
         -1   -1    0    0    0  501 -0.00000000000E+00 -0.00000000000E+00 -0.14811328969E+00  0.14819901546E+00  0.50400000000E-02 0. -1.
         31    1    1    2    0    0 -0.20328707983E+01  0.17032222424E+01  0.66272523143E+02  0.66385791804E+02  0.28271010000E+01 0.  1.
        -31    1    1    2    0    0  0.20328707983E+01 -0.17032222424E+01  0.40953388866E+02  0.41136432628E+02  0.28271010000E+01 0.  1.
<mgrwt>
<rscale>  0 0.79770007E+01</rscale>
<asrwt>0</asrwt>
<pdfrwt beam="1">  1        1 0.88906898E+00 0.79770007E+01</pdfrwt>
<pdfrwt beam="2">  1       -1 0.31546283E+00 0.79770007E+01</pdfrwt>
<totfact> 0.15852333E-04</totfact>
</mgrwt>
</event>
<event>
 4    1  0.4367748E-004  0.6320214E+01  0.7818608E-02  0.2375522E+00
         -1   -1    0    0    0  501 -0.00000000000E+00  0.00000000000E+00  0.31467619182E+02  0.31467619586E+02  0.50400000000E-02 0.  1.
          1   -1    0    0  501    0  0.00000000000E+00 -0.00000000000E+00 -0.31733045947E+00  0.31737048084E+00  0.50400000000E-02 0. -1.
         31    1    1    2    0    0 -0.71836293586E+00 -0.10305220225E+00  0.94836782333E+01  0.99226668775E+01  0.28271010000E+01 0. -1.
        -31    1    1    2    0    0  0.71836293586E+00  0.10305220225E+00  0.21666610489E+02  0.21862323189E+02  0.28271010000E+01 0.  1.
<mgrwt>
<rscale>  0 0.63202141E+01</rscale>
<asrwt>0</asrwt>
<pdfrwt beam="2">  1        1 0.66989797E+00 0.63202141E+01</pdfrwt>
<pdfrwt beam="1">  1       -1 0.26282054E+00 0.63202141E+01</pdfrwt>
<totfact> 0.18805033E-02</totfact>
</mgrwt>
</event>
<event>
 4    1  0.4367748E-004  0.7270810E+01  0.7818608E-02  0.2274528E+00
          1   -1    0    0  501    0  0.00000000000E+00  0.00000000000E+00  0.48491854097E+02  0.48491854359E+02  0.50400000000E-02 0. -1.
         -1   -1    0    0    0  501 -0.00000000000E+00 -0.00000000000E+00 -0.27252058893E+00  0.27256718987E+00  0.50400000000E-02 0.  1.
         31    1    1    2    0    0 -0.14442807744E+01  0.84243268273E+00  0.34560415409E+02  0.34716141103E+02  0.28271010000E+01 0. -1.
        -31    1    1    2    0    0  0.14442807744E+01 -0.84243268273E+00  0.13658918099E+02  0.14048280445E+02  0.28271010000E+01 0.  1.
<mgrwt>
<rscale>  0 0.72708105E+01</rscale>
<asrwt>0</asrwt>
<pdfrwt beam="1">  1        1 0.40321836E+00 0.72708105E+01</pdfrwt>
<pdfrwt beam="2">  1       -1 0.57786945E+00 0.72708105E+01</pdfrwt>
<totfact> 0.31803241E-03</totfact>
</mgrwt>
</event>
<event>
 4    1  0.4367748E-004  0.6496003E+01  0.7818608E-02  0.2355017E+00
          1   -1    0    0  501    0  0.00000000000E+00  0.00000000000E+00  0.77022942860E+02  0.77022943025E+02  0.50400000000E-02 0. -1.
         -1   -1    0    0    0  501 -0.00000000000E+00 -0.00000000000E+00 -0.13691934717E+00  0.13701207695E+00  0.50400000000E-02 0.  1.
         31    1    1    2    0    0 -0.71032853354E-02 -0.10704484239E+01  0.52552956900E+02  0.52639829876E+02  0.28271010000E+01 0. -1.
        -31    1    1    2    0    0  0.71032853354E-02  0.10704484239E+01  0.24333066612E+02  0.24520125226E+02  0.28271010000E+01 0.  1.
<mgrwt>
<rscale>  0 0.64960034E+01</rscale>
<asrwt>0</asrwt>
<pdfrwt beam="1">  1        1 0.63801249E+00 0.64960034E+01</pdfrwt>
<pdfrwt beam="2">  1       -1 0.29151955E+00 0.64960034E+01</pdfrwt>
<totfact> 0.18798538E-02</totfact>
</mgrwt>
</event>
<event>
 4    1  0.4367748E-004  0.7355219E+01  0.7818608E-02  0.2266606E+00
          1   -1    0    0  501    0  0.00000000000E+00  0.00000000000E+00  0.48623538819E+02  0.48623539081E+02  0.50400000000E-02 0. -1.
         -1   -1    0    0    0  501 -0.00000000000E+00 -0.00000000000E+00 -0.27813048196E+00  0.27817614311E+00  0.50400000000E-02 0.  1.
         31    1    1    2    0    0 -0.10412610684E+01  0.19097603003E+01  0.30122720991E+02  0.30333186924E+02  0.28271010000E+01 0.  1.
        -31    1    1    2    0    0  0.10412610684E+01 -0.19097603003E+01  0.18222687346E+02  0.18568528299E+02  0.28271010000E+01 0. -1.
<mgrwt>
<rscale>  0 0.73552189E+01</rscale>
<asrwt>0</asrwt>
<pdfrwt beam="1">  1        1 0.40435360E+00 0.73552189E+01</pdfrwt>
<pdfrwt beam="2">  1       -1 0.58970427E+00 0.73552189E+01</pdfrwt>
<totfact> 0.27234590E-03</totfact>
</mgrwt>
</event>
<event>
 4    1  0.4367748E-004  0.5960913E+01  0.7818608E-02  0.2420539E+00
          1   -1    0    0  501    0  0.00000000000E+00  0.00000000000E+00  0.71242787436E+02  0.71242787614E+02  0.50400000000E-02 0. -1.
         -1   -1    0    0    0  501 -0.00000000000E+00 -0.00000000000E+00 -0.12463688743E+00  0.12473874822E+00  0.50400000000E-02 0.  1.
         31    1    1    2    0    0 -0.83319426770E+00 -0.41013063187E+00  0.33548517874E+02  0.33680231166E+02  0.28271010000E+01 0. -1.
        -31    1    1    2    0    0  0.83319426770E+00  0.41013063187E+00  0.37569632675E+02  0.37687295196E+02  0.28271010000E+01 0.  1.
<mgrwt>
<rscale>  0 0.59609128E+01</rscale>
<asrwt>0</asrwt>
<pdfrwt beam="1">  1        1 0.59011664E+00 0.59609128E+01</pdfrwt>
<pdfrwt beam="2">  1       -1 0.26539459E+00 0.59609128E+01</pdfrwt>
<totfact> 0.46362695E-02</totfact>
</mgrwt>
</event>
<event>
 4    1  0.4367748E-004  0.6005597E+01  0.7818608E-02  0.2414696E+00
         -1   -1    0    0    0  501 -0.00000000000E+00  0.00000000000E+00  0.36134967450E+02  0.36134967802E+02  0.50400000000E-02 0. -1.
          1   -1    0    0  501    0  0.00000000000E+00 -0.00000000000E+00 -0.24950528710E+00  0.24955618584E+00  0.50400000000E-02 0.  1.
         31    1    1    2    0    0 -0.85151932988E+00 -0.27552577320E+00  0.15079851703E+02  0.15368650788E+02  0.28271010000E+01 0.  1.
        -31    1    1    2    0    0  0.85151932988E+00  0.27552577320E+00  0.20805610461E+02  0.21015873199E+02  0.28271010000E+01 0. -1.
<mgrwt>
<rscale>  0 0.60055967E+01</rscale>
<asrwt>0</asrwt>
<pdfrwt beam="2">  1        1 0.52839998E+00 0.60055967E+01</pdfrwt>
<pdfrwt beam="1">  1       -1 0.30085270E+00 0.60055967E+01</pdfrwt>
<totfact> 0.55137642E-02</totfact>
</mgrwt>
</event>
<event>
 4    1  0.4367748E-004  0.6255403E+01  0.7818608E-02  0.2383322E+00
          1   -1    0    0  501    0  0.00000000000E+00  0.00000000000E+00  0.42881127121E+02  0.42881127417E+02  0.50400000000E-02 0. -1.
         -1   -1    0    0    0  501 -0.00000000000E+00 -0.00000000000E+00 -0.22810293793E+00  0.22815861126E+00  0.50400000000E-02 0.  1.
         31    1    1    2    0    0  0.81569185591E+00  0.74970371916E+00  0.16157367499E+02  0.16440207828E+02  0.28271010000E+01 0.  1.
        -31    1    1    2    0    0 -0.81569185591E+00 -0.74970371916E+00  0.26495656684E+02  0.26669078200E+02  0.28271010000E+01 0. -1.
<mgrwt>
<rscale>  0 0.62554033E+01</rscale>
<asrwt>0</asrwt>
<pdfrwt beam="1">  1        1 0.35645774E+00 0.62554033E+01</pdfrwt>
<pdfrwt beam="2">  1       -1 0.48384578E+00 0.62554033E+01</pdfrwt>
<totfact> 0.20089747E-02</totfact>
</mgrwt>
</event>
<event>
 4    1  0.4367748E-004  0.6216844E+01  0.7818608E-02  0.2388028E+00
         -1   -1    0    0    0  501 -0.00000000000E+00  0.00000000000E+00  0.51330431416E+02  0.51330431663E+02  0.50400000000E-02 0.  1.
          1   -1    0    0  501    0  0.00000000000E+00 -0.00000000000E+00 -0.18820301674E+00  0.18827048921E+00  0.50400000000E-02 0. -1.
         31    1    1    2    0    0 -0.51500663283E+00 -0.59449640487E+00  0.34067278225E+02  0.34193429245E+02  0.28271010000E+01 0. -1.
        -31    1    1    2    0    0  0.51500663283E+00  0.59449640487E+00  0.17074950174E+02  0.17325272907E+02  0.28271010000E+01 0. -1.
<mgrwt>
<rscale>  0 0.62168437E+01</rscale>
<asrwt>0</asrwt>
<pdfrwt beam="2">  1        1 0.39989148E+00 0.62168437E+01</pdfrwt>
<pdfrwt beam="1">  1       -1 0.42599268E+00 0.62168437E+01</pdfrwt>
<totfact> 0.33026595E-02</totfact>
</mgrwt>
</event>
<event>
 4    1  0.4367748E-004  0.6096719E+01  0.7818608E-02  0.2403003E+00
          1   -1    0    0  501    0  0.00000000000E+00  0.00000000000E+00  0.73588154469E+02  0.73588154641E+02  0.50400000000E-02 0. -1.
         -1   -1    0    0    0  501 -0.00000000000E+00 -0.00000000000E+00 -0.12622658310E+00  0.12632716209E+00  0.50400000000E-02 0.  1.
         31    1    1    2    0    0 -0.11180352874E+01 -0.11250399716E+00  0.39067176828E+02  0.39185449665E+02  0.28271010000E+01 0.  1.
        -31    1    1    2    0    0  0.11180352874E+01  0.11250399716E+00  0.34394751058E+02  0.34529032139E+02  0.28271010000E+01 0.  1.
<mgrwt>
<rscale>  0 0.60967187E+01</rscale>
<asrwt>0</asrwt>
<pdfrwt beam="1">  1        1 0.60952291E+00 0.60967187E+01</pdfrwt>
<pdfrwt beam="2">  1       -1 0.26878601E+00 0.60967187E+01</pdfrwt>
<totfact> 0.35657330E-02</totfact>
</mgrwt>
</event>
<event>
 4    1  0.4367748E-004  0.6072472E+01  0.7818608E-02  0.2406086E+00
         -1   -1    0    0    0  501 -0.00000000000E+00  0.00000000000E+00  0.27655347294E+02  0.27655347753E+02  0.50400000000E-02 0.  1.
          1   -1    0    0  501    0  0.00000000000E+00 -0.00000000000E+00 -0.33332397353E+00  0.33336207482E+00  0.50400000000E-02 0. -1.
         31    1    1    2    0    0 -0.23190485344E+00 -0.83072611797E+00  0.10459936944E+02  0.10869529276E+02  0.28271010000E+01 0. -1.
        -31    1    1    2    0    0  0.23190485344E+00  0.83072611797E+00  0.16862086377E+02  0.17119180552E+02  0.28271010000E+01 0.  1.
<mgrwt>
<rscale>  0 0.60724723E+01</rscale>
<asrwt>0</asrwt>
<pdfrwt beam="2">  1        1 0.70228819E+00 0.60724723E+01</pdfrwt>
<pdfrwt beam="1">  1       -1 0.23143024E+00 0.60724723E+01</pdfrwt>
<totfact> 0.19087426E-02</totfact>
</mgrwt>
</event>
<event>
 4    1  0.4367748E-004  0.7669723E+01  0.7818608E-02  0.2238342E+00
          1   -1    0    0  501    0  0.00000000000E+00  0.00000000000E+00  0.53312127076E+02  0.53312127314E+02  0.50400000000E-02 0. -1.
         -1   -1    0    0    0  501 -0.00000000000E+00 -0.00000000000E+00 -0.27582694691E+00  0.27587298933E+00  0.50400000000E-02 0.  1.
         31    1    1    2    0    0  0.16175330747E+01  0.30197368107E+00  0.40502639364E+02  0.40634516078E+02  0.28271010000E+01 0.  1.
        -31    1    1    2    0    0 -0.16175330747E+01 -0.30197368107E+00  0.12533660765E+02  0.12953484226E+02  0.28271010000E+01 0.  1.
<mgrwt>
<rscale>  0 0.76697226E+01</rscale>
<asrwt>0</asrwt>
<pdfrwt beam="1">  1        1 0.44310308E+00 0.76697226E+01</pdfrwt>
<pdfrwt beam="2">  1       -1 0.58513885E+00 0.76697226E+01</pdfrwt>
<totfact> 0.19959872E-03</totfact>
</mgrwt>
</event>
<event>
 4    1  0.4367748E-004  0.7725859E+01  0.7818608E-02  0.2233495E+00
         -1   -1    0    0    0  501 -0.00000000000E+00  0.00000000000E+00  0.76802645146E+02  0.76802645312E+02  0.50400000000E-02 0. -1.
          1   -1    0    0  501    0  0.00000000000E+00 -0.00000000000E+00 -0.19426027463E+00  0.19432564396E+00  0.50400000000E-02 0.  1.
         31    1    1    2    0    0 -0.73209254344E+00  0.19490562380E+01  0.54358479126E+02  0.54471749859E+02  0.28271010000E+01 0. -1.
        -31    1    1    2    0    0  0.73209254344E+00 -0.19490562380E+01  0.22249905746E+02  0.22525221097E+02  0.28271010000E+01 0. -1.
<mgrwt>
<rscale>  0 0.77258594E+01</rscale>
<asrwt>0</asrwt>
<pdfrwt beam="2">  1        1 0.41322551E+00 0.77258594E+01</pdfrwt>
<pdfrwt beam="1">  1       -1 0.63666483E+00 0.77258594E+01</pdfrwt>
<totfact> 0.16216247E-03</totfact>
</mgrwt>
</event>
<event>
 4    1  0.4367748E-004  0.6452649E+01  0.7818608E-02  0.2359988E+00
         -1   -1    0    0    0  501 -0.00000000000E+00  0.00000000000E+00  0.50745181271E+02  0.50745181521E+02  0.50400000000E-02 0. -1.
          1   -1    0    0  501    0  0.00000000000E+00 -0.00000000000E+00 -0.20509505034E+00  0.20515696741E+00  0.50400000000E-02 0.  1.
         31    1    1    2    0    0  0.12366361989E+01 -0.38283487506E+00  0.18473774541E+02  0.18733624249E+02  0.28271010000E+01 0.  1.
        -31    1    1    2    0    0 -0.12366361989E+01  0.38283487506E+00  0.32066311679E+02  0.32216714240E+02  0.28271010000E+01 0. -1.
<mgrwt>
<rscale>  0 0.64526488E+01</rscale>
<asrwt>0</asrwt>
<pdfrwt beam="2">  1        1 0.43560831E+00 0.64526488E+01</pdfrwt>
<pdfrwt beam="1">  1       -1 0.42129305E+00 0.64526488E+01</pdfrwt>
<totfact> 0.25408187E-02</totfact>
</mgrwt>
</event>
<event>
 4    1  0.4367748E-004  0.6541728E+01  0.7818608E-02  0.2349833E+00
          1   -1    0    0  501    0  0.00000000000E+00  0.00000000000E+00  0.28072963130E+02  0.28072963582E+02  0.50400000000E-02 0. -1.
         -1   -1    0    0    0  501 -0.00000000000E+00 -0.00000000000E+00 -0.38108094079E+00  0.38111426769E+00  0.50400000000E-02 0.  1.
         31    1    1    2    0    0 -0.11194003100E+01 -0.23695362506E+00  0.18986691786E+02  0.19230085000E+02  0.28271010000E+01 0. -1.
        -31    1    1    2    0    0  0.11194003100E+01  0.23695362506E+00  0.87051904030E+01  0.92239928497E+01  0.28271010000E+01 0.  1.
<mgrwt>
<rscale>  0 0.65417281E+01</rscale>
<asrwt>0</asrwt>
<pdfrwt beam="1">  1        1 0.23527822E+00 0.65417281E+01</pdfrwt>
<pdfrwt beam="2">  1       -1 0.80169216E+00 0.65417281E+01</pdfrwt>
<totfact> 0.31808538E-03</totfact>
</mgrwt>
</event>
<event>
 4    1  0.4367748E-004  0.6155543E+01  0.7818608E-02  0.2395609E+00
          1   -1    0    0  501    0  0.00000000000E+00  0.00000000000E+00  0.54480014435E+02  0.54480014668E+02  0.50400000000E-02 0.  1.
         -1   -1    0    0    0  501 -0.00000000000E+00 -0.00000000000E+00 -0.17383760375E+00  0.17391064970E+00  0.50400000000E-02 0. -1.
         31    1    1    2    0    0  0.81921848136E+00 -0.57989530083E-01  0.19183414421E+02  0.19407997594E+02  0.28271010000E+01 0. -1.
        -31    1    1    2    0    0 -0.81921848136E+00  0.57989530083E-01  0.35122762410E+02  0.35245927724E+02  0.28271010000E+01 0.  1.
<mgrwt>
<rscale>  0 0.61555431E+01</rscale>
<asrwt>0</asrwt>
<pdfrwt beam="1">  1        1 0.45191689E+00 0.61555431E+01</pdfrwt>
<pdfrwt beam="2">  1       -1 0.36955455E+00 0.61555431E+01</pdfrwt>
<totfact> 0.45854973E-02</totfact>
</mgrwt>
</event>
<event>
 4    1  0.4367748E-004  0.5709933E+01  0.7818608E-02  0.2454778E+00
         -1   -1    0    0    0  501 -0.00000000000E+00  0.00000000000E+00  0.32669235979E+02  0.32669236367E+02  0.50400000000E-02 0. -1.
          1   -1    0    0  501    0  0.00000000000E+00 -0.00000000000E+00 -0.24946981194E+00  0.24952071792E+00  0.50400000000E-02 0.  1.
         31    1    1    2    0    0  0.34632064402E+00 -0.19550051591E+00  0.16285915773E+02  0.16534258709E+02  0.28271010000E+01 0. -1.
        -31    1    1    2    0    0 -0.34632064402E+00  0.19550051591E+00  0.16133850394E+02  0.16384498376E+02  0.28271010000E+01 0. -1.
<mgrwt>
<rscale>  0 0.57099326E+01</rscale>
<asrwt>0</asrwt>
<pdfrwt beam="2">  1        1 0.52794137E+00 0.57099326E+01</pdfrwt>
<pdfrwt beam="1">  1       -1 0.27219532E+00 0.57099326E+01</pdfrwt>
<totfact> 0.81350079E-02</totfact>
</mgrwt>
</event>
<event>
 4    1  0.4367748E-004  0.6102122E+01  0.7818608E-02  0.2402319E+00
         -1   -1    0    0    0  501 -0.00000000000E+00  0.00000000000E+00  0.40272695193E+02  0.40272695508E+02  0.50400000000E-02 0.  1.
          1   -1    0    0  501    0  0.00000000000E+00 -0.00000000000E+00 -0.23112073438E+00  0.23117568095E+00  0.50400000000E-02 0. -1.
         31    1    1    2    0    0 -0.23280169018E+00 -0.26693641376E+00  0.12776835029E+02  0.13090663280E+02  0.28271010000E+01 0. -1.
        -31    1    1    2    0    0  0.23280169018E+00  0.26693641376E+00  0.27264739429E+02  0.27413207909E+02  0.28271010000E+01 0.  1.
<mgrwt>
<rscale>  0 0.61021223E+01</rscale>
<asrwt>0</asrwt>
<pdfrwt beam="2">  1        1 0.49004103E+00 0.61021223E+01</pdfrwt>
<pdfrwt beam="1">  1       -1 0.33491435E+00 0.61021223E+01</pdfrwt>
<totfact> 0.51101907E-02</totfact>
</mgrwt>
</event>
<event>
 4    1  0.4367748E-004  0.6663488E+01  0.7818608E-02  0.2336318E+00
         -1   -1    0    0    0  501 -0.00000000000E+00  0.00000000000E+00  0.28643302800E+02  0.28643303243E+02  0.50400000000E-02 0. -1.
          1   -1    0    0  501    0  0.00000000000E+00 -0.00000000000E+00 -0.38752644144E+00  0.38755921407E+00  0.50400000000E-02 0.  1.
         31    1    1    2    0    0 -0.57838544209E+00  0.11474600541E+01  0.88693868892E+01  0.93973250529E+01  0.28271010000E+01 0.  1.
        -31    1    1    2    0    0  0.57838544209E+00 -0.11474600541E+01  0.19386389469E+02  0.19633537405E+02  0.28271010000E+01 0. -1.
<mgrwt>
<rscale>  0 0.66634884E+01</rscale>
<asrwt>0</asrwt>
<pdfrwt beam="2">  1        1 0.81528700E+00 0.66634884E+01</pdfrwt>
<pdfrwt beam="1">  1       -1 0.24004748E+00 0.66634884E+01</pdfrwt>
<totfact> 0.27411857E-03</totfact>
</mgrwt>
</event>
<event>
 4    1  0.4367748E-004  0.6062031E+01  0.7818608E-02  0.2407419E+00
         -1   -1    0    0    0  501 -0.00000000000E+00  0.00000000000E+00  0.27915139045E+02  0.27915139500E+02  0.50400000000E-02 0. -1.
          1   -1    0    0  501    0  0.00000000000E+00 -0.00000000000E+00 -0.32908679912E+00  0.32912539093E+00  0.50400000000E-02 0.  1.
         31    1    1    2    0    0  0.28365697279E-01  0.48723553192E-01  0.87074912631E+01  0.91551123837E+01  0.28271010000E+01 0.  1.
        -31    1    1    2    0    0 -0.28365697279E-01 -0.48723553192E-01  0.18878560983E+02  0.19089152507E+02  0.28271010000E+01 0. -1.
<mgrwt>
<rscale>  0 0.60620311E+01</rscale>
<asrwt>0</asrwt>
<pdfrwt beam="2">  1        1 0.69354270E+00 0.60620311E+01</pdfrwt>
<pdfrwt beam="1">  1       -1 0.23354334E+00 0.60620311E+01</pdfrwt>
<totfact> 0.20825729E-02</totfact>
</mgrwt>
</event>
<event>
 4    1  0.4367748E-004  0.7065555E+01  0.7818608E-02  0.2294435E+00
         -1   -1    0    0    0  501 -0.00000000000E+00  0.00000000000E+00  0.59311615542E+02  0.59311615757E+02  0.50400000000E-02 0. -1.
          1   -1    0    0  501    0  0.00000000000E+00 -0.00000000000E+00 -0.21039239882E+00  0.21045275736E+00  0.50400000000E-02 0.  1.
         31    1    1    2    0    0  0.34420655379E+00  0.66637874090E+00  0.12859780261E+02  0.13188213951E+02  0.28271010000E+01 0.  1.
        -31    1    1    2    0    0 -0.34420655379E+00 -0.66637874090E+00  0.46241442882E+02  0.46333854563E+02  0.28271010000E+01 0. -1.
<mgrwt>
<rscale>  0 0.70655547E+01</rscale>
<asrwt>0</asrwt>
<pdfrwt beam="2">  1        1 0.44707633E+00 0.70655547E+01</pdfrwt>
<pdfrwt beam="1">  1       -1 0.49217011E+00 0.70655547E+01</pdfrwt>
<totfact> 0.76079198E-03</totfact>
</mgrwt>
</event>
<event>
 4    1  0.4367748E-004  0.5904266E+01  0.7818608E-02  0.2428052E+00
          1   -1    0    0  501    0  0.00000000000E+00  0.00000000000E+00  0.52861510134E+02  0.52861510374E+02  0.50400000000E-02 0.  1.
         -1   -1    0    0    0  501 -0.00000000000E+00 -0.00000000000E+00 -0.16482767171E+00  0.16490470873E+00  0.50400000000E-02 0. -1.
         31    1    1    2    0    0 -0.73304190772E+00  0.14256026566E+00  0.29995510240E+02  0.30137697465E+02  0.28271010000E+01 0.  1.
        -31    1    1    2    0    0  0.73304190772E+00 -0.14256026566E+00  0.22701172222E+02  0.22888717618E+02  0.28271010000E+01 0. -1.
<mgrwt>
<rscale>  0 0.59042657E+01</rscale>
<asrwt>0</asrwt>
<pdfrwt beam="1">  1        1 0.43845950E+00 0.59042657E+01</pdfrwt>
<pdfrwt beam="2">  1       -1 0.35043437E+00 0.59042657E+01</pdfrwt>
<totfact> 0.67748483E-02</totfact>
</mgrwt>
</event>
<event>
 4    1  0.4367748E-004  0.6358439E+01  0.7818608E-02  0.2370983E+00
         -1   -1    0    0    0  501 -0.00000000000E+00  0.00000000000E+00  0.33308566446E+02  0.33308566828E+02  0.50400000000E-02 0. -1.
          1   -1    0    0  501    0  0.00000000000E+00 -0.00000000000E+00 -0.30342727667E+00  0.30346913159E+00  0.50400000000E-02 0.  1.
         31    1    1    2    0    0 -0.31504210801E+00 -0.13529577768E+01  0.14227711357E+02  0.14572234448E+02  0.28271010000E+01 0. -1.
        -31    1    1    2    0    0  0.31504210801E+00  0.13529577768E+01  0.18777427813E+02  0.19039801512E+02  0.28271010000E+01 0.  1.
<mgrwt>
<rscale>  0 0.63584393E+01</rscale>
<asrwt>0</asrwt>
<pdfrwt beam="2">  1        1 0.64117030E+00 0.63584393E+01</pdfrwt>
<pdfrwt beam="1">  1       -1 0.27792783E+00 0.63584393E+01</pdfrwt>
<totfact> 0.21778366E-02</totfact>
</mgrwt>
</event>
<event>
 4    1  0.4367748E-004  0.5679827E+01  0.7818608E-02  0.2459055E+00
          1   -1    0    0  501    0  0.00000000000E+00  0.00000000000E+00  0.47898535965E+02  0.47898536230E+02  0.50400000000E-02 0.  1.
         -1   -1    0    0    0  501 -0.00000000000E+00 -0.00000000000E+00 -0.16834105208E+00  0.16841648201E+00  0.50400000000E-02 0. -1.
         31    1    1    2    0    0  0.59930798106E-01  0.25802706820E+00  0.23447118215E+02  0.23618425484E+02  0.28271010000E+01 0. -1.
        -31    1    1    2    0    0 -0.59930798106E-01 -0.25802706820E+00  0.24283076697E+02  0.24448527228E+02  0.28271010000E+01 0.  1.
<mgrwt>
<rscale>  0 0.56798272E+01</rscale>
<asrwt>0</asrwt>
<pdfrwt beam="1">  1        1 0.39745120E+00 0.56798272E+01</pdfrwt>
<pdfrwt beam="2">  1       -1 0.35775920E+00 0.56798272E+01</pdfrwt>
<totfact> 0.89354798E-02</totfact>
</mgrwt>
</event>
<event>
 4    1  0.4367748E-004  0.6780372E+01  0.7818608E-02  0.2323722E+00
          1   -1    0    0  501    0  0.00000000000E+00  0.00000000000E+00  0.69929552419E+02  0.69929552601E+02  0.50400000000E-02 0. -1.
         -1   -1    0    0    0  501 -0.00000000000E+00 -0.00000000000E+00 -0.16431744155E+00  0.16439471767E+00  0.50400000000E-02 0.  1.
         31    1    1    2    0    0  0.15020075975E+01  0.16679603427E+00  0.46287070246E+02  0.46397944133E+02  0.28271010000E+01 0. -1.
        -31    1    1    2    0    0 -0.15020075975E+01 -0.16679603427E+00  0.23478164732E+02  0.23696003186E+02  0.28271010000E+01 0.  1.
<mgrwt>
<rscale>  0 0.67803716E+01</rscale>
<asrwt>0</asrwt>
<pdfrwt beam="1">  1        1 0.57958580E+00 0.67803716E+01</pdfrwt>
<pdfrwt beam="2">  1       -1 0.34961789E+00 0.67803716E+01</pdfrwt>
<totfact> 0.16585304E-02</totfact>
</mgrwt>
</event>
<event>
 4    1  0.4367748E-004  0.5929593E+01  0.7818608E-02  0.2424678E+00
          1   -1    0    0  501    0  0.00000000000E+00  0.00000000000E+00  0.76149663971E+02  0.76149664138E+02  0.50400000000E-02 0.  1.
         -1   -1    0    0    0  501 -0.00000000000E+00 -0.00000000000E+00 -0.11537562971E+00  0.11548565942E+00  0.50400000000E-02 0. -1.
         31    1    1    2    0    0 -0.55165683871E+00  0.67803337629E+00  0.40369934063E+02  0.40478242684E+02  0.28271010000E+01 0.  1.
        -31    1    1    2    0    0  0.55165683871E+00 -0.67803337629E+00  0.35664354279E+02  0.35786907113E+02  0.28271010000E+01 0. -1.
<mgrwt>
<rscale>  0 0.59295927E+01</rscale>
<asrwt>0</asrwt>
<pdfrwt beam="1">  1        1 0.63061362E+00 0.59295927E+01</pdfrwt>
<pdfrwt beam="2">  1       -1 0.24574844E+00 0.59295927E+01</pdfrwt>
<totfact> 0.38372479E-02</totfact>
</mgrwt>
</event>
<event>
 4    1  0.4367748E-004  0.5658548E+01  0.7818608E-02  0.2462102E+00
          1   -1    0    0  501    0  0.00000000000E+00  0.00000000000E+00  0.39514501506E+02  0.39514501828E+02  0.50400000000E-02 0. -1.
         -1   -1    0    0    0  501 -0.00000000000E+00 -0.00000000000E+00 -0.20254690622E+00  0.20260960199E+00  0.50400000000E-02 0.  1.
         31    1    1    2    0    0 -0.63819856909E-01  0.54366971301E-01  0.20165161680E+02  0.20362545872E+02  0.28271010000E+01 0. -1.
        -31    1    1    2    0    0  0.63819856909E-01 -0.54366971301E-01  0.19146792920E+02  0.19354565557E+02  0.28271010000E+01 0.  1.
<mgrwt>
<rscale>  0 0.56585480E+01</rscale>
<asrwt>0</asrwt>
<pdfrwt beam="1">  1        1 0.32840887E+00 0.56585480E+01</pdfrwt>
<pdfrwt beam="2">  1       -1 0.42973381E+00 0.56585480E+01</pdfrwt>
<totfact> 0.59319383E-02</totfact>
</mgrwt>
</event>
<event>
 4    1  0.4367748E-004  0.6509481E+01  0.7818608E-02  0.2353483E+00
         -1   -1    0    0    0  501 -0.00000000000E+00  0.00000000000E+00  0.52332705257E+02  0.52332705500E+02  0.50400000000E-02 0.  1.
          1   -1    0    0  501    0  0.00000000000E+00 -0.00000000000E+00 -0.20239122361E+00  0.20245396759E+00  0.50400000000E-02 0. -1.
         31    1    1    2    0    0 -0.67946639116E+00 -0.28730530615E+00  0.14491241908E+02  0.14782855307E+02  0.28271010000E+01 0. -1.
        -31    1    1    2    0    0  0.67946639116E+00  0.28730530615E+00  0.37639072125E+02  0.37752304160E+02  0.28271010000E+01 0.  1.
<mgrwt>
<rscale>  0 0.65094807E+01</rscale>
<asrwt>0</asrwt>
<pdfrwt beam="2">  1        1 0.42994193E+00 0.65094807E+01</pdfrwt>
<pdfrwt beam="1">  1       -1 0.43439746E+00 0.65094807E+01</pdfrwt>
<totfact> 0.22017412E-02</totfact>
</mgrwt>
</event>
<event>
 4    1  0.4367748E-004  0.6150599E+01  0.7818608E-02  0.2396226E+00
         -1   -1    0    0    0  501 -0.00000000000E+00  0.00000000000E+00  0.34716323885E+02  0.34716324251E+02  0.50400000000E-02 0. -1.
          1   -1    0    0  501    0  0.00000000000E+00 -0.00000000000E+00 -0.27239762243E+00  0.27244424439E+00  0.50400000000E-02 0.  1.
         31    1    1    2    0    0  0.78884142480E+00 -0.60807525468E-01  0.22432610081E+02  0.22623891430E+02  0.28271010000E+01 0. -1.
        -31    1    1    2    0    0 -0.78884142480E+00  0.60807525468E-01  0.12011316182E+02  0.12364877065E+02  0.28271010000E+01 0. -1.
<mgrwt>
<rscale>  0 0.61505987E+01</rscale>
<asrwt>0</asrwt>
<pdfrwt beam="2">  1        1 0.57633274E+00 0.61505987E+01</pdfrwt>
<pdfrwt beam="1">  1       -1 0.28931162E+00 0.61505987E+01</pdfrwt>
<totfact> 0.38982076E-02</totfact>
</mgrwt>
</event>
<event>
 4    1  0.4367748E-004  0.6423066E+01  0.7818608E-02  0.2363412E+00
          1   -1    0    0  501    0  0.00000000000E+00  0.00000000000E+00  0.65669135388E+02  0.65669135581E+02  0.50400000000E-02 0. -1.
         -1   -1    0    0    0  501 -0.00000000000E+00 -0.00000000000E+00 -0.15701861562E+00  0.15709948203E+00  0.50400000000E-02 0.  1.
         31    1    1    2    0    0 -0.82609579548E+00 -0.11075436832E+01  0.26175034363E+02  0.26363497705E+02  0.28271010000E+01 0.  1.
        -31    1    1    2    0    0  0.82609579548E+00  0.11075436832E+01  0.39337082410E+02  0.39462737359E+02  0.28271010000E+01 0.  1.
<mgrwt>
<rscale>  0 0.64230661E+01</rscale>
<asrwt>0</asrwt>
<pdfrwt beam="1">  1        1 0.54429737E+00 0.64230661E+01</pdfrwt>
<pdfrwt beam="2">  1       -1 0.33408189E+00 0.64230661E+01</pdfrwt>
<totfact> 0.29891062E-02</totfact>
</mgrwt>
</event>
<event>
 4    1  0.4367748E-004  0.7985507E+01  0.7818608E-02  0.2211792E+00
          1   -1    0    0  501    0  0.00000000000E+00  0.00000000000E+00  0.72212672407E+02  0.72212672583E+02  0.50400000000E-02 0.  1.
         -1   -1    0    0    0  501 -0.00000000000E+00 -0.00000000000E+00 -0.22073675196E+00  0.22079428269E+00  0.50400000000E-02 0. -1.
         31    1    1    2    0    0 -0.16875759469E+01 -0.21694822335E+01  0.41696869014E+02  0.41882883752E+02  0.28271010000E+01 0.  1.
        -31    1    1    2    0    0  0.16875759469E+01  0.21694822335E+01  0.30295066641E+02  0.30550583114E+02  0.28271010000E+01 0. -1.
<mgrwt>
<rscale>  0 0.79855070E+01</rscale>
<asrwt>0</asrwt>
<pdfrwt beam="1">  1        1 0.59893058E+00 0.79855070E+01</pdfrwt>
<pdfrwt beam="2">  1       -1 0.46928091E+00 0.79855070E+01</pdfrwt>
<totfact> 0.22677554E-03</totfact>
</mgrwt>
</event>
<event>
 4    1  0.4367748E-004  0.5752608E+01  0.7818608E-02  0.2448779E+00
          1   -1    0    0  501    0  0.00000000000E+00  0.00000000000E+00  0.70480598472E+02  0.70480598652E+02  0.50400000000E-02 0.  1.
         -1   -1    0    0    0  501 -0.00000000000E+00 -0.00000000000E+00 -0.11732730200E+00  0.11743550313E+00  0.50400000000E-02 0. -1.
         31    1    1    2    0    0  0.48623664761E+00 -0.35735730350E-01  0.32639124210E+02  0.32764960436E+02  0.28271010000E+01 0. -1.
        -31    1    1    2    0    0 -0.48623664761E+00  0.35735730350E-01  0.37724146961E+02  0.37833073720E+02  0.28271010000E+01 0.  1.
<mgrwt>
<rscale>  0 0.57526078E+01</rscale>
<asrwt>0</asrwt>
<pdfrwt beam="1">  1        1 0.58375394E+00 0.57526078E+01</pdfrwt>
<pdfrwt beam="2">  1       -1 0.24986423E+00 0.57526078E+01</pdfrwt>
<totfact> 0.61433346E-02</totfact>
</mgrwt>
</event>
<event>
 4    1  0.4367748E-004  0.6787041E+01  0.7818608E-02  0.2323014E+00
          1   -1    0    0  501    0  0.00000000000E+00  0.00000000000E+00  0.52378546309E+02  0.52378546552E+02  0.50400000000E-02 0.  1.
         -1   -1    0    0    0  501 -0.00000000000E+00 -0.00000000000E+00 -0.21983152297E+00  0.21988929054E+00  0.50400000000E-02 0. -1.
         31    1    1    2    0    0 -0.13686760893E+01 -0.73791425504E+00  0.17930270524E+02  0.18218257128E+02  0.28271010000E+01 0. -1.
        -31    1    1    2    0    0  0.13686760893E+01  0.73791425504E+00  0.34228444263E+02  0.34380178714E+02  0.28271010000E+01 0.  1.
<mgrwt>
<rscale>  0 0.67870410E+01</rscale>
<asrwt>0</asrwt>
<pdfrwt beam="1">  1        1 0.43492067E+00 0.67870410E+01</pdfrwt>
<pdfrwt beam="2">  1       -1 0.46682626E+00 0.67870410E+01</pdfrwt>
<totfact> 0.12750537E-02</totfact>
</mgrwt>
</event>
<event>
 4    1  0.4367748E-004  0.6043820E+01  0.7818608E-02  0.2409755E+00
          1   -1    0    0  501    0  0.00000000000E+00  0.00000000000E+00  0.69080042667E+02  0.69080042851E+02  0.50400000000E-02 0. -1.
         -1   -1    0    0    0  501 -0.00000000000E+00 -0.00000000000E+00 -0.13214538321E+00  0.13224146061E+00  0.50400000000E-02 0.  1.
         31    1    1    2    0    0 -0.56734643497E+00  0.83627269597E+00  0.38411182358E+02  0.38528335861E+02  0.28271010000E+01 0. -1.
        -31    1    1    2    0    0  0.56734643497E+00 -0.83627269597E+00  0.30536714926E+02  0.30683948451E+02  0.28271010000E+01 0. -1.
<mgrwt>
<rscale>  0 0.60438200E+01</rscale>
<asrwt>0</asrwt>
<pdfrwt beam="1">  1        1 0.57229559E+00 0.60438200E+01</pdfrwt>
<pdfrwt beam="2">  1       -1 0.28132415E+00 0.60438200E+01</pdfrwt>
<totfact> 0.45343730E-02</totfact>
</mgrwt>
</event>
<event>
 4    1  0.4367748E-004  0.7762500E+01  0.7818608E-02  0.2230361E+00
          1   -1    0    0  501    0  0.00000000000E+00  0.00000000000E+00  0.56766139320E+02  0.56766139544E+02  0.50400000000E-02 0.  1.
         -1   -1    0    0    0  501 -0.00000000000E+00 -0.00000000000E+00 -0.26534711043E+00  0.26539497097E+00  0.50400000000E-02 0. -1.
         31    1    1    2    0    0  0.42093089192E+00  0.20836958496E+01  0.39988756734E+02  0.40144889294E+02  0.28271010000E+01 0. -1.
        -31    1    1    2    0    0 -0.42093089192E+00 -0.20836958496E+01  0.16512035476E+02  0.16886645221E+02  0.28271010000E+01 0.  1.
<mgrwt>
<rscale>  0 0.77625002E+01</rscale>
<asrwt>0</asrwt>
<pdfrwt beam="1">  1        1 0.47157663E+00 0.77625002E+01</pdfrwt>
<pdfrwt beam="2">  1       -1 0.56319054E+00 0.77625002E+01</pdfrwt>
<totfact> 0.20164929E-03</totfact>
</mgrwt>
</event>
<event>
 4    1  0.4367748E-004  0.6050252E+01  0.7818608E-02  0.2408929E+00
          1   -1    0    0  501    0  0.00000000000E+00  0.00000000000E+00  0.53815590420E+02  0.53815590656E+02  0.50400000000E-02 0.  1.
         -1   -1    0    0    0  501 -0.00000000000E+00 -0.00000000000E+00 -0.17001328944E+00  0.17008797779E+00  0.50400000000E-02 0. -1.
         31    1    1    2    0    0 -0.23720538647E-01  0.44839726410E+00  0.35552928531E+02  0.35667980738E+02  0.28271010000E+01 0.  1.
        -31    1    1    2    0    0  0.23720538647E-01 -0.44839726410E+00  0.18092648600E+02  0.18317697895E+02  0.28271010000E+01 0. -1.
<mgrwt>
<rscale>  0 0.60502522E+01</rscale>
<asrwt>0</asrwt>
<pdfrwt beam="1">  1        1 0.44639136E+00 0.60502522E+01</pdfrwt>
<pdfrwt beam="2">  1       -1 0.36143946E+00 0.60502522E+01</pdfrwt>
<totfact> 0.54073483E-02</totfact>
</mgrwt>
</event>
<event>
 4    1  0.4367748E-004  0.6203420E+01  0.7818608E-02  0.2389677E+00
          1   -1    0    0  501    0  0.00000000000E+00  0.00000000000E+00  0.61363363658E+02  0.61363363865E+02  0.50400000000E-02 0. -1.
         -1   -1    0    0    0  501 -0.00000000000E+00 -0.00000000000E+00 -0.15674021553E+00  0.15682122549E+00  0.50400000000E-02 0.  1.
         31    1    1    2    0    0 -0.86412444315E+00 -0.93783218968E+00  0.30175062239E+02  0.30334025803E+02  0.28271010000E+01 0.  1.
        -31    1    1    2    0    0  0.86412444315E+00  0.93783218968E+00  0.31031561204E+02  0.31186159287E+02  0.28271010000E+01 0.  1.
<mgrwt>
<rscale>  0 0.62034201E+01</rscale>
<asrwt>0</asrwt>
<pdfrwt beam="1">  1        1 0.50869193E+00 0.62034201E+01</pdfrwt>
<pdfrwt beam="2">  1       -1 0.33343556E+00 0.62034201E+01</pdfrwt>
<totfact> 0.43356926E-02</totfact>
</mgrwt>
</event>
<event>
 4    1  0.4367748E-004  0.6510215E+01  0.7818608E-02  0.2353399E+00
         -1   -1    0    0    0  501 -0.00000000000E+00  0.00000000000E+00  0.98331953353E+02  0.98331953483E+02  0.50400000000E-02 0. -1.
          1   -1    0    0  501    0  0.00000000000E+00 -0.00000000000E+00 -0.10769557855E+00  0.10781344646E+00  0.50400000000E-02 0.  1.
         31    1    1    2    0    0 -0.12163302780E+01 -0.74163152268E+00  0.37658694678E+02  0.37791523673E+02  0.28271010000E+01 0. -1.
        -31    1    1    2    0    0  0.12163302780E+01  0.74163152268E+00  0.60565563097E+02  0.60648243256E+02  0.28271010000E+01 0. -1.
<mgrwt>
<rscale>  0 0.65102149E+01</rscale>
<asrwt>0</asrwt>
<pdfrwt beam="2">  1        1 0.22950240E+00 0.65102149E+01</pdfrwt>
<pdfrwt beam="1">  1       -1 0.81396887E+00 0.65102149E+01</pdfrwt>
<totfact> 0.29847654E-03</totfact>
</mgrwt>
</event>
<event>
 4    1  0.4367748E-004  0.7210662E+01  0.7818608E-02  0.2280266E+00
          1   -1    0    0  501    0  0.00000000000E+00  0.00000000000E+00  0.54078370077E+02  0.54078370312E+02  0.50400000000E-02 0.  1.
         -1   -1    0    0    0  501 -0.00000000000E+00 -0.00000000000E+00 -0.24033585590E+00  0.24038869614E+00  0.50400000000E-02 0. -1.
         31    1    1    2    0    0 -0.17318420501E+01  0.32171855474E+00  0.16526774960E+02  0.16859109417E+02  0.28271010000E+01 0. -1.
        -31    1    1    2    0    0  0.17318420501E+01 -0.32171855474E+00  0.37311259262E+02  0.37459649591E+02  0.28271010000E+01 0.  1.
<mgrwt>
<rscale>  0 0.72106623E+01</rscale>
<asrwt>0</asrwt>
<pdfrwt beam="1">  1        1 0.44914550E+00 0.72106623E+01</pdfrwt>
<pdfrwt beam="2">  1       -1 0.51023194E+00 0.72106623E+01</pdfrwt>
<totfact> 0.55957989E-03</totfact>
</mgrwt>
</event>
<event>
 4    1  0.4367748E-004  0.5682933E+01  0.7818608E-02  0.2458612E+00
         -1   -1    0    0    0  501 -0.00000000000E+00  0.00000000000E+00  0.34391387763E+02  0.34391388132E+02  0.50400000000E-02 0.  1.
          1   -1    0    0  501    0  0.00000000000E+00 -0.00000000000E+00 -0.23473869109E+00  0.23479279098E+00  0.50400000000E-02 0. -1.
         31    1    1    2    0    0 -0.43251528620E-01 -0.13257071689E+00  0.15561340413E+02  0.15816676680E+02  0.28271010000E+01 0. -1.
        -31    1    1    2    0    0  0.43251528620E-01  0.13257071689E+00  0.18595308659E+02  0.18809504243E+02  0.28271010000E+01 0. -1.
<mgrwt>
<rscale>  0 0.56829332E+01</rscale>
<asrwt>0</asrwt>
<pdfrwt beam="2">  1        1 0.49717316E+00 0.56829332E+01</pdfrwt>
<pdfrwt beam="1">  1       -1 0.28631349E+00 0.56829332E+01</pdfrwt>
<totfact> 0.91429509E-02</totfact>
</mgrwt>
</event>
<event>
 4    1  0.4367748E-004  0.6033722E+01  0.7818608E-02  0.2411055E+00
         -1   -1    0    0    0  501 -0.00000000000E+00  0.00000000000E+00  0.37738765876E+02  0.37738766213E+02  0.50400000000E-02 0.  1.
          1   -1    0    0  501    0  0.00000000000E+00 -0.00000000000E+00 -0.24114314309E+00  0.24119580647E+00  0.50400000000E-02 0. -1.
         31    1    1    2    0    0  0.53231261638E+00  0.90861340509E+00  0.18773974771E+02  0.19014824843E+02  0.28271010000E+01 0.  1.
        -31    1    1    2    0    0 -0.53231261638E+00 -0.90861340509E+00  0.18723647962E+02  0.18965137176E+02  0.28271010000E+01 0. -1.
<mgrwt>
<rscale>  0 0.60337223E+01</rscale>
<asrwt>0</asrwt>
<pdfrwt beam="2">  1        1 0.51095573E+00 0.60337223E+01</pdfrwt>
<pdfrwt beam="1">  1       -1 0.31404490E+00 0.60337223E+01</pdfrwt>
<totfact> 0.55063605E-02</totfact>
</mgrwt>
</event>
<event>
 4    1  0.4367748E-004  0.6277114E+01  0.7818608E-02  0.2380694E+00
         -1   -1    0    0    0  501 -0.00000000000E+00  0.00000000000E+00  0.43856487447E+02  0.43856487736E+02  0.50400000000E-02 0. -1.
          1   -1    0    0  501    0  0.00000000000E+00 -0.00000000000E+00 -0.22457993522E+00  0.22463648168E+00  0.50400000000E-02 0.  1.
         31    1    1    2    0    0 -0.45943350098E+00  0.87743173010E+00  0.28392695819E+02  0.28550282687E+02  0.28271010000E+01 0. -1.
        -31    1    1    2    0    0  0.45943350098E+00 -0.87743173010E+00  0.15239211693E+02  0.15530841531E+02  0.28271010000E+01 0.  1.
<mgrwt>
<rscale>  0 0.62771139E+01</rscale>
<asrwt>0</asrwt>
<pdfrwt beam="2">  1        1 0.47646886E+00 0.62771139E+01</pdfrwt>
<pdfrwt beam="1">  1       -1 0.36449358E+00 0.62771139E+01</pdfrwt>
<totfact> 0.38877708E-02</totfact>
</mgrwt>
</event>
<event>
 4    1  0.4367748E-004  0.6578332E+01  0.7818608E-02  0.2345727E+00
         -1   -1    0    0    0  501 -0.00000000000E+00  0.00000000000E+00  0.43379374832E+02  0.43379375125E+02  0.50400000000E-02 0.  1.
          1   -1    0    0  501    0  0.00000000000E+00 -0.00000000000E+00 -0.24936952321E+00  0.24942044966E+00  0.50400000000E-02 0. -1.
         31    1    1    2    0    0  0.74659595323E+00 -0.27410033106E+00  0.31387766187E+02  0.31524861662E+02  0.28271010000E+01 0.  1.
        -31    1    1    2    0    0 -0.74659595323E+00  0.27410033106E+00  0.11742239121E+02  0.12103933913E+02  0.28271010000E+01 0. -1.
<mgrwt>
<rscale>  0 0.65783315E+01</rscale>
<asrwt>0</asrwt>
<pdfrwt beam="2">  1        1 0.52871965E+00 0.65783315E+01</pdfrwt>
<pdfrwt beam="1">  1       -1 0.36075341E+00 0.65783315E+01</pdfrwt>
<totfact> 0.24324493E-02</totfact>
</mgrwt>
</event>
<event>
 4    1  0.4367748E-004  0.6589490E+01  0.7818608E-02  0.2344483E+00
         -1   -1    0    0    0  501 -0.00000000000E+00  0.00000000000E+00  0.57624627279E+02  0.57624627499E+02  0.50400000000E-02 0.  1.
          1   -1    0    0  501    0  0.00000000000E+00 -0.00000000000E+00 -0.18834637483E+00  0.18841379597E+00  0.50400000000E-02 0. -1.
         31    1    1    2    0    0 -0.12946929526E+01 -0.24744057675E+00  0.38025471950E+02  0.38153197425E+02  0.28271010000E+01 0.  1.
        -31    1    1    2    0    0  0.12946929526E+01  0.24744057675E+00  0.19410808954E+02  0.19659843870E+02  0.28271010000E+01 0.  1.
<mgrwt>
<rscale>  0 0.65894901E+01</rscale>
<asrwt>0</asrwt>
<pdfrwt beam="2">  1        1 0.40035473E+00 0.65894901E+01</pdfrwt>
<pdfrwt beam="1">  1       -1 0.47803868E+00 0.65894901E+01</pdfrwt>
<totfact> 0.14756871E-02</totfact>
</mgrwt>
</event>
<event>
 4    1  0.4367748E-004  0.6509245E+01  0.7818608E-02  0.2353510E+00
         -1   -1    0    0    0  501 -0.00000000000E+00  0.00000000000E+00  0.34474005026E+02  0.34474005395E+02  0.50400000000E-02 0.  1.
          1   -1    0    0  501    0  0.00000000000E+00 -0.00000000000E+00 -0.30724139005E+00  0.30728272545E+00  0.50400000000E-02 0. -1.
         31    1    1    2    0    0  0.10281126784E+01 -0.12382602075E+01  0.16555431240E+02  0.16872021445E+02  0.28271010000E+01 0.  1.
        -31    1    1    2    0    0 -0.10281126784E+01  0.12382602075E+01  0.17611332396E+02  0.17909266676E+02  0.28271010000E+01 0. -1.
<mgrwt>
<rscale>  0 0.65092447E+01</rscale>
<asrwt>0</asrwt>
<pdfrwt beam="2">  1        1 0.64935575E+00 0.65092447E+01</pdfrwt>
<pdfrwt beam="1">  1       -1 0.28759603E+00 0.65092447E+01</pdfrwt>
<totfact> 0.17293306E-02</totfact>
</mgrwt>
</event>
<event>
 4    1  0.4367748E-004  0.6475086E+01  0.7818608E-02  0.2357408E+00
         -1   -1    0    0    0  501 -0.00000000000E+00  0.00000000000E+00  0.36520023779E+02  0.36520024126E+02  0.50400000000E-02 0. -1.
          1   -1    0    0  501    0  0.00000000000E+00 -0.00000000000E+00 -0.28698947187E+00  0.28703372374E+00  0.50400000000E-02 0.  1.
         31    1    1    2    0    0  0.95202430377E+00  0.12345478750E+01  0.19494026772E+02  0.19759555627E+02  0.28271010000E+01 0. -1.
        -31    1    1    2    0    0 -0.95202430377E+00 -0.12345478750E+01  0.16739007535E+02  0.17047502223E+02  0.28271010000E+01 0. -1.
<mgrwt>
<rscale>  0 0.64750855E+01</rscale>
<asrwt>0</asrwt>
<pdfrwt beam="2">  1        1 0.60719345E+00 0.64750855E+01</pdfrwt>
<pdfrwt beam="1">  1       -1 0.30434651E+00 0.64750855E+01</pdfrwt>
<totfact> 0.22608527E-02</totfact>
</mgrwt>
</event>
<event>
 4    1  0.4367748E-004  0.8312488E+01  0.7818608E-02  0.2186027E+00
          1   -1    0    0  501    0  0.00000000000E+00  0.00000000000E+00  0.67203467029E+02  0.67203467218E+02  0.50400000000E-02 0.  1.
         -1   -1    0    0    0  501 -0.00000000000E+00 -0.00000000000E+00 -0.25702083619E+00  0.25707024689E+00  0.50400000000E-02 0. -1.
         31    1    1    2    0    0  0.19645471573E+01  0.20450748829E+00  0.52298177449E+02  0.52411765219E+02  0.28271010000E+01 0.  1.
        -31    1    1    2    0    0 -0.19645471573E+01 -0.20450748829E+00  0.14648268744E+02  0.15048772246E+02  0.28271010000E+01 0. -1.
<mgrwt>
<rscale>  0 0.83124880E+01</rscale>
<asrwt>0</asrwt>
<pdfrwt beam="1">  1        1 0.55781092E+00 0.83124880E+01</pdfrwt>
<pdfrwt beam="2">  1       -1 0.54598339E+00 0.83124880E+01</pdfrwt>
<totfact> 0.10680348E-03</totfact>
</mgrwt>
</event>
<event>
 4    1  0.4367748E-004  0.7437286E+01  0.7818608E-02  0.2259043E+00
         -1   -1    0    0    0  501 -0.00000000000E+00  0.00000000000E+00  0.42536271380E+02  0.42536271679E+02  0.50400000000E-02 0.  1.
          1   -1    0    0  501    0  0.00000000000E+00 -0.00000000000E+00 -0.32507464732E+00  0.32511371538E+00  0.50400000000E-02 0. -1.
         31    1    1    2    0    0  0.11923422080E+01  0.12198663693E+01  0.30963688928E+02  0.31139240292E+02  0.28271010000E+01 0.  1.
        -31    1    1    2    0    0 -0.11923422080E+01 -0.12198663693E+01  0.11247507805E+02  0.11722145102E+02  0.28271010000E+01 0. -1.
<mgrwt>
<rscale>  0 0.74372864E+01</rscale>
<asrwt>0</asrwt>
<pdfrwt beam="2">  1        1 0.68790738E+00 0.74372864E+01</pdfrwt>
<pdfrwt beam="1">  1       -1 0.35440792E+00 0.74372864E+01</pdfrwt>
<totfact> 0.42427870E-03</totfact>
</mgrwt>
</event>
<event>
 4    1  0.4367748E-004  0.6317053E+01  0.7818608E-02  0.2375899E+00
         -1   -1    0    0    0  501 -0.00000000000E+00  0.00000000000E+00  0.54631349591E+02  0.54631349824E+02  0.50400000000E-02 0.  1.
          1   -1    0    0  501    0  0.00000000000E+00 -0.00000000000E+00 -0.18257605316E+00  0.18264560434E+00  0.50400000000E-02 0. -1.
         31    1    1    2    0    0 -0.86488232909E-01 -0.13612189978E+01  0.30272416804E+02  0.30434718934E+02  0.28271010000E+01 0.  1.
        -31    1    1    2    0    0  0.86488232909E-01  0.13612189978E+01  0.24176356734E+02  0.24379276494E+02  0.28271010000E+01 0. -1.
<mgrwt>
<rscale>  0 0.63170527E+01</rscale>
<asrwt>0</asrwt>
<pdfrwt beam="2">  1        1 0.38806521E+00 0.63170527E+01</pdfrwt>
<pdfrwt beam="1">  1       -1 0.45324047E+00 0.63170527E+01</pdfrwt>
<totfact> 0.24340607E-02</totfact>
</mgrwt>
</event>
<event>
 4    1  0.4367748E-004  0.6495196E+01  0.7818608E-02  0.2355109E+00
          1   -1    0    0  501    0  0.00000000000E+00  0.00000000000E+00  0.55369094059E+02  0.55369094288E+02  0.50400000000E-02 0. -1.
         -1   -1    0    0    0  501 -0.00000000000E+00 -0.00000000000E+00 -0.19044979312E+00  0.19051646989E+00  0.50400000000E-02 0.  1.
         31    1    1    2    0    0 -0.25620630729E+00 -0.35788426712E+00  0.40732017684E+02  0.40832382829E+02  0.28271010000E+01 0. -1.
        -31    1    1    2    0    0  0.25620630729E+00  0.35788426712E+00  0.14446626582E+02  0.14727227930E+02  0.28271010000E+01 0.  1.
<mgrwt>
<rscale>  0 0.64951955E+01</rscale>
<asrwt>0</asrwt>
<pdfrwt beam="1">  1        1 0.45940573E+00 0.64951955E+01</pdfrwt>
<pdfrwt beam="2">  1       -1 0.40475519E+00 0.64951955E+01</pdfrwt>
<totfact> 0.25845852E-02</totfact>
</mgrwt>
</event>
<event>
 4    1  0.4367748E-004  0.6695555E+01  0.7818608E-02  0.2332826E+00
         -1   -1    0    0    0  501 -0.00000000000E+00  0.00000000000E+00  0.42371254217E+02  0.42371254517E+02  0.50400000000E-02 0. -1.
          1   -1    0    0  501    0  0.00000000000E+00 -0.00000000000E+00 -0.26448558136E+00  0.26453359777E+00  0.50400000000E-02 0.  1.
         31    1    1    2    0    0 -0.15248310163E+01 -0.25820326451E+00  0.26831371141E+02  0.27024188349E+02  0.28271010000E+01 0. -1.
        -31    1    1    2    0    0  0.15248310163E+01  0.25820326451E+00  0.15275397494E+02  0.15611599765E+02  0.28271010000E+01 0. -1.
<mgrwt>
<rscale>  0 0.66955555E+01</rscale>
<asrwt>0</asrwt>
<pdfrwt beam="2">  1        1 0.56048771E+00 0.66955555E+01</pdfrwt>
<pdfrwt beam="1">  1       -1 0.35254253E+00 0.66955555E+01</pdfrwt>
<totfact> 0.19568050E-02</totfact>
</mgrwt>
</event>
<event>
 4    1  0.4367748E-004  0.5978593E+01  0.7818608E-02  0.2418218E+00
          1   -1    0    0  501    0  0.00000000000E+00  0.00000000000E+00  0.60711646827E+02  0.60711647036E+02  0.50400000000E-02 0. -1.
         -1   -1    0    0    0  501 -0.00000000000E+00 -0.00000000000E+00 -0.14714248238E+00  0.14722877341E+00  0.50400000000E-02 0.  1.
         31    1    1    2    0    0  0.68931393390E+00  0.62250970347E+00  0.27390093203E+02  0.27551268169E+02  0.28271010000E+01 0.  1.
        -31    1    1    2    0    0 -0.68931393390E+00 -0.62250970347E+00  0.33174411142E+02  0.33307607640E+02  0.28271010000E+01 0. -1.
<mgrwt>
<rscale>  0 0.59785933E+01</rscale>
<asrwt>0</asrwt>
<pdfrwt beam="1">  1        1 0.50322377E+00 0.59785933E+01</pdfrwt>
<pdfrwt beam="2">  1       -1 0.31306987E+00 0.59785933E+01</pdfrwt>
<totfact> 0.60243800E-02</totfact>
</mgrwt>
</event>
<event>
 4    1  0.4367748E-004  0.6023398E+01  0.7818608E-02  0.2412388E+00
          1   -1    0    0  501    0  0.00000000000E+00  0.00000000000E+00  0.43321682041E+02  0.43321682334E+02  0.50400000000E-02 0.  1.
         -1   -1    0    0    0  501 -0.00000000000E+00 -0.00000000000E+00 -0.20934097635E+00  0.20940163795E+00  0.50400000000E-02 0. -1.
         31    1    1    2    0    0  0.66077473271E+00  0.94171928300E-01  0.15809283300E+02  0.16073936361E+02  0.28271010000E+01 0.  1.
        -31    1    1    2    0    0 -0.66077473271E+00 -0.94171928300E-01  0.27303057764E+02  0.27457147611E+02  0.28271010000E+01 0.  1.
<mgrwt>
<rscale>  0 0.60233977E+01</rscale>
<asrwt>0</asrwt>
<pdfrwt beam="1">  1        1 0.35994546E+00 0.60233977E+01</pdfrwt>
<pdfrwt beam="2">  1       -1 0.44427386E+00 0.60233977E+01</pdfrwt>
<totfact> 0.36020010E-02</totfact>
</mgrwt>
</event>
<event>
 4    1  0.4367748E-004  0.5891200E+01  0.7818608E-02  0.2429803E+00
          1   -1    0    0  501    0  0.00000000000E+00  0.00000000000E+00  0.64525457419E+02  0.64525457616E+02  0.50400000000E-02 0.  1.
         -1   -1    0    0    0  501 -0.00000000000E+00 -0.00000000000E+00 -0.13441979016E+00  0.13451424307E+00  0.50400000000E-02 0. -1.
         31    1    1    2    0    0 -0.62029358277E+00 -0.92677530765E-01  0.38113289476E+02  0.38223143356E+02  0.28271010000E+01 0.  1.
        -31    1    1    2    0    0  0.62029358277E+00  0.92677530765E-01  0.26277748153E+02  0.26436828503E+02  0.28271010000E+01 0.  1.
<mgrwt>
<rscale>  0 0.58911997E+01</rscale>
<asrwt>0</asrwt>
<pdfrwt beam="1">  1        1 0.53465389E+00 0.58911997E+01</pdfrwt>
<pdfrwt beam="2">  1       -1 0.28611402E+00 0.58911997E+01</pdfrwt>
<totfact> 0.63036291E-02</totfact>
</mgrwt>
</event>
<event>
 4    1  0.4367748E-004  0.6237832E+01  0.7818608E-02  0.2385460E+00
          1   -1    0    0  501    0  0.00000000000E+00  0.00000000000E+00  0.52933665008E+02  0.52933665248E+02  0.50400000000E-02 0.  1.
         -1   -1    0    0    0  501 -0.00000000000E+00 -0.00000000000E+00 -0.18373554935E+00  0.18380466179E+00  0.50400000000E-02 0. -1.
         31    1    1    2    0    0 -0.64273928723E+00 -0.77356089359E+00  0.33618678029E+02  0.33752326183E+02  0.28271010000E+01 0.  1.
        -31    1    1    2    0    0  0.64273928723E+00  0.77356089359E+00  0.19131251429E+02  0.19365143727E+02  0.28271010000E+01 0.  1.
<mgrwt>
<rscale>  0 0.62378323E+01</rscale>
<asrwt>0</asrwt>
<pdfrwt beam="1">  1        1 0.43921241E+00 0.62378323E+01</pdfrwt>
<pdfrwt beam="2">  1       -1 0.39047854E+00 0.62378323E+01</pdfrwt>
<totfact> 0.38486430E-02</totfact>
</mgrwt>
</event>
<event>
 4    1  0.4367748E-004  0.5920615E+01  0.7818608E-02  0.2425871E+00
          1   -1    0    0  501    0  0.00000000000E+00  0.00000000000E+00  0.48502026099E+02  0.48502026361E+02  0.50400000000E-02 0. -1.
         -1   -1    0    0    0  501 -0.00000000000E+00 -0.00000000000E+00 -0.18064615332E+00  0.18071644726E+00  0.50400000000E-02 0.  1.
         31    1    1    2    0    0 -0.14144278894E+00  0.58648205800E+00  0.18915259557E+02  0.19134876834E+02  0.28271010000E+01 0. -1.
        -31    1    1    2    0    0  0.14144278894E+00 -0.58648205800E+00  0.29406120389E+02  0.29547865974E+02  0.28271010000E+01 0. -1.
<mgrwt>
<rscale>  0 0.59206155E+01</rscale>
<asrwt>0</asrwt>
<pdfrwt beam="1">  1        1 0.40254298E+00 0.59206155E+01</pdfrwt>
<pdfrwt beam="2">  1       -1 0.38381844E+00 0.59206155E+01</pdfrwt>
<totfact> 0.59419973E-02</totfact>
</mgrwt>
</event>
<event>
 4    1  0.4367748E-004  0.5943382E+01  0.7818608E-02  0.2422851E+00
          1   -1    0    0  501    0  0.00000000000E+00  0.00000000000E+00  0.40007883320E+02  0.40007883638E+02  0.50400000000E-02 0.  1.
         -1   -1    0    0    0  501 -0.00000000000E+00 -0.00000000000E+00 -0.22070106452E+00  0.22075860454E+00  0.50400000000E-02 0. -1.
         31    1    1    2    0    0 -0.84504360555E+00  0.33972249675E+00  0.19253745866E+02  0.19481497376E+02  0.28271010000E+01 0. -1.
        -31    1    1    2    0    0  0.84504360555E+00 -0.33972249675E+00  0.20533436389E+02  0.20747144866E+02  0.28271010000E+01 0. -1.
<mgrwt>
<rscale>  0 0.59433816E+01</rscale>
<asrwt>0</asrwt>
<pdfrwt beam="1">  1        1 0.33263856E+00 0.59433816E+01</pdfrwt>
<pdfrwt beam="2">  1       -1 0.46805730E+00 0.59433816E+01</pdfrwt>
<totfact> 0.31852282E-02</totfact>
</mgrwt>
</event>
<event>
 4    1  0.4367748E-004  0.6468577E+01  0.7818608E-02  0.2358155E+00
          1   -1    0    0  501    0  0.00000000000E+00  0.00000000000E+00  0.45420095544E+02  0.45420095823E+02  0.50400000000E-02 0. -1.
         -1   -1    0    0    0  501 -0.00000000000E+00 -0.00000000000E+00 -0.23028035318E+00  0.23033550022E+00  0.50400000000E-02 0.  1.
         31    1    1    2    0    0  0.14935015996E+01 -0.10536125082E+00  0.19236417490E+02  0.19500612963E+02  0.28271010000E+01 0.  1.
        -31    1    1    2    0    0 -0.14935015996E+01  0.10536125082E+00  0.25953397700E+02  0.26149818360E+02  0.28271010000E+01 0.  1.
<mgrwt>
<rscale>  0 0.64685766E+01</rscale>
<asrwt>0</asrwt>
<pdfrwt beam="1">  1        1 0.37746971E+00 0.64685766E+01</pdfrwt>
<pdfrwt beam="2">  1       -1 0.48858455E+00 0.64685766E+01</pdfrwt>
<totfact> 0.15405789E-02</totfact>
</mgrwt>
</event>
<event>
 4    1  0.4367748E-004  0.5785068E+01  0.7818608E-02  0.2444266E+00
          1   -1    0    0  501    0  0.00000000000E+00  0.00000000000E+00  0.92182956890E+02  0.92182957028E+02  0.50400000000E-02 0.  1.
         -1   -1    0    0    0  501 -0.00000000000E+00 -0.00000000000E+00 -0.90692379477E-01  0.90832314157E-01  0.50400000000E-02 0. -1.
         31    1    1    2    0    0 -0.27246478727E+00 -0.40706029367E+00  0.40200404501E+02  0.40302666876E+02  0.28271010000E+01 0. -1.
        -31    1    1    2    0    0  0.27246478727E+00  0.40706029367E+00  0.51891860009E+02  0.51971122466E+02  0.28271010000E+01 0. -1.
<mgrwt>
<rscale>  0 0.57850684E+01</rscale>
<asrwt>0</asrwt>
<pdfrwt beam="1">  1        1 0.76298425E+00 0.57850684E+01</pdfrwt>
<pdfrwt beam="2">  1       -1 0.19333292E+00 0.57850684E+01</pdfrwt>
<totfact> 0.13750040E-02</totfact>
</mgrwt>
</event>
<event>
 4    1  0.4367748E-004  0.5827837E+01  0.7818608E-02  0.2438384E+00
          1   -1    0    0  501    0  0.00000000000E+00  0.00000000000E+00  0.35252631358E+02  0.35252631719E+02  0.50400000000E-02 0.  1.
         -1   -1    0    0    0  501 -0.00000000000E+00 -0.00000000000E+00 -0.24083246509E+00  0.24088519639E+00  0.50400000000E-02 0. -1.
         31    1    1    2    0    0 -0.24530437100E-01 -0.65499961692E+00  0.15908487364E+02  0.16171026452E+02  0.28271010000E+01 0. -1.
        -31    1    1    2    0    0  0.24530437100E-01  0.65499961692E+00  0.19103311529E+02  0.19322490463E+02  0.28271010000E+01 0.  1.
<mgrwt>
<rscale>  0 0.58278368E+01</rscale>
<asrwt>0</asrwt>
<pdfrwt beam="1">  1        1 0.29348523E+00 0.58278368E+01</pdfrwt>
<pdfrwt beam="2">  1       -1 0.51007365E+00 0.58278368E+01</pdfrwt>
<totfact> 0.23218535E-02</totfact>
</mgrwt>
</event>
<event>
 4    1  0.4367748E-004  0.7104938E+01  0.7818608E-02  0.2290543E+00
         -1   -1    0    0    0  501 -0.00000000000E+00  0.00000000000E+00  0.52172357685E+02  0.52172357928E+02  0.50400000000E-02 0.  1.
          1   -1    0    0  501    0  0.00000000000E+00 -0.00000000000E+00 -0.24186473622E+00  0.24191724251E+00  0.50400000000E-02 0. -1.
         31    1    1    2    0    0 -0.12059353804E+01 -0.13892626746E+01  0.17739777656E+02  0.18057589603E+02  0.28271010000E+01 0.  1.
        -31    1    1    2    0    0  0.12059353804E+01  0.13892626746E+01  0.34190715292E+02  0.34356685567E+02  0.28271010000E+01 0.  1.
<mgrwt>
<rscale>  0 0.71049380E+01</rscale>
<asrwt>0</asrwt>
<pdfrwt beam="2">  1        1 0.51337908E+00 0.71049380E+01</pdfrwt>
<pdfrwt beam="1">  1       -1 0.43339790E+00 0.71049380E+01</pdfrwt>
<totfact> 0.99181926E-03</totfact>
</mgrwt>
</event>
<event>
 4    1  0.4367748E-004  0.5860620E+01  0.7818608E-02  0.2433925E+00
          1   -1    0    0  501    0  0.00000000000E+00  0.00000000000E+00  0.51595130723E+02  0.51595130969E+02  0.50400000000E-02 0. -1.
         -1   -1    0    0    0  501 -0.00000000000E+00 -0.00000000000E+00 -0.16638651654E+00  0.16646283214E+00  0.50400000000E-02 0.  1.
         31    1    1    2    0    0  0.64313398201E+00  0.47745024832E-01  0.21984812667E+02  0.22175220156E+02  0.28271010000E+01 0.  1.
        -31    1    1    2    0    0 -0.64313398201E+00 -0.47745024832E-01  0.29443931539E+02  0.29586373645E+02  0.28271010000E+01 0. -1.
<mgrwt>
<rscale>  0 0.58606196E+01</rscale>
<asrwt>0</asrwt>
<pdfrwt beam="1">  1        1 0.42800107E+00 0.58606196E+01</pdfrwt>
<pdfrwt beam="2">  1       -1 0.35370939E+00 0.58606196E+01</pdfrwt>
<totfact> 0.71404876E-02</totfact>
</mgrwt>
</event>
<event>
 4    1  0.4367748E-004  0.6179395E+01  0.7818608E-02  0.2392644E+00
          1   -1    0    0  501    0  0.00000000000E+00  0.00000000000E+00  0.46608035938E+02  0.46608036211E+02  0.50400000000E-02 0. -1.
         -1   -1    0    0    0  501 -0.00000000000E+00 -0.00000000000E+00 -0.20478810862E+00  0.20485011846E+00  0.50400000000E-02 0.  1.
         31    1    1    2    0    0 -0.10145567468E+01  0.43274379767E+00  0.18802942623E+02  0.19046252753E+02  0.28271010000E+01 0.  1.
        -31    1    1    2    0    0  0.10145567468E+01 -0.43274379767E+00  0.27600305207E+02  0.27766633576E+02  0.28271010000E+01 0. -1.
<mgrwt>
<rscale>  0 0.61793946E+01</rscale>
<asrwt>0</asrwt>
<pdfrwt beam="1">  1        1 0.38708170E+00 0.61793946E+01</pdfrwt>
<pdfrwt beam="2">  1       -1 0.43480407E+00 0.61793946E+01</pdfrwt>
<totfact> 0.32534660E-02</totfact>
</mgrwt>
</event>
<event>
 4    1  0.4367748E-004  0.6306483E+01  0.7818608E-02  0.2377163E+00
         -1   -1    0    0    0  501 -0.00000000000E+00  0.00000000000E+00  0.52092510090E+02  0.52092510333E+02  0.50400000000E-02 0. -1.
          1   -1    0    0  501    0  0.00000000000E+00 -0.00000000000E+00 -0.19083715429E+00  0.19090369577E+00  0.50400000000E-02 0.  1.
         31    1    1    2    0    0 -0.63372085379E+00  0.66272496298E+00  0.34683866563E+02  0.34810973935E+02  0.28271010000E+01 0. -1.
        -31    1    1    2    0    0  0.63372085379E+00 -0.66272496298E+00  0.17217806372E+02  0.17472440094E+02  0.28271010000E+01 0.  1.
<mgrwt>
<rscale>  0 0.63064831E+01</rscale>
<asrwt>0</asrwt>
<pdfrwt beam="2">  1        1 0.40548771E+00 0.63064831E+01</pdfrwt>
<pdfrwt beam="1">  1       -1 0.43231585E+00 0.63064831E+01</pdfrwt>
<totfact> 0.28533303E-02</totfact>
</mgrwt>
</event>
<event>
 4    1  0.4367748E-004  0.6430563E+01  0.7818608E-02  0.2362541E+00
          1   -1    0    0  501    0  0.00000000000E+00  0.00000000000E+00  0.51333507329E+02  0.51333507576E+02  0.50400000000E-02 0.  1.
         -1   -1    0    0    0  501 -0.00000000000E+00 -0.00000000000E+00 -0.20135782934E+00  0.20142089523E+00  0.50400000000E-02 0. -1.
         31    1    1    2    0    0 -0.21265639143E+00 -0.15032572735E+01  0.23952682790E+02  0.24166681984E+02  0.28271010000E+01 0. -1.
        -31    1    1    2    0    0  0.21265639143E+00  0.15032572735E+01  0.27179466709E+02  0.27368246488E+02  0.28271010000E+01 0.  1.
<mgrwt>
<rscale>  0 0.64305630E+01</rscale>
<asrwt>0</asrwt>
<pdfrwt beam="1">  1        1 0.42612685E+00 0.64305630E+01</pdfrwt>
<pdfrwt beam="2">  1       -1 0.42772386E+00 0.64305630E+01</pdfrwt>
<totfact> 0.25233512E-02</totfact>
</mgrwt>
</event>
<event>
 4    1  0.4367748E-004  0.6034876E+01  0.7818608E-02  0.2410906E+00
          1   -1    0    0  501    0  0.00000000000E+00  0.00000000000E+00  0.63972878045E+02  0.63972878243E+02  0.50400000000E-02 0.  1.
         -1   -1    0    0    0  501 -0.00000000000E+00 -0.00000000000E+00 -0.14228004482E+00  0.14236928305E+00  0.50400000000E-02 0. -1.
         31    1    1    2    0    0 -0.30075509038E+00 -0.43882810222E+00  0.22239720948E+02  0.22425001931E+02  0.28271010000E+01 0. -1.
        -31    1    1    2    0    0  0.30075509038E+00  0.43882810222E+00  0.41590877052E+02  0.41690245595E+02  0.28271010000E+01 0.  1.
<mgrwt>
<rscale>  0 0.60348757E+01</rscale>
<asrwt>0</asrwt>
<pdfrwt beam="1">  1        1 0.53014973E+00 0.60348757E+01</pdfrwt>
<pdfrwt beam="2">  1       -1 0.30279068E+00 0.60348757E+01</pdfrwt>
<totfact> 0.52774857E-02</totfact>
</mgrwt>
</event>
<event>
 4    1  0.4367748E-004  0.6446847E+01  0.7818608E-02  0.2360657E+00
          1   -1    0    0  501    0  0.00000000000E+00  0.00000000000E+00  0.48737297093E+02  0.48737297354E+02  0.50400000000E-02 0. -1.
         -1   -1    0    0    0  501 -0.00000000000E+00 -0.00000000000E+00 -0.21316311616E+00  0.21322269037E+00  0.50400000000E-02 0.  1.
         31    1    1    2    0    0  0.13512592146E+01  0.66353808227E+00  0.27018359326E+02  0.27207543531E+02  0.28271010000E+01 0. -1.
        -31    1    1    2    0    0 -0.13512592146E+01 -0.66353808227E+00  0.21505774651E+02  0.21742976513E+02  0.28271010000E+01 0.  1.
<mgrwt>
<rscale>  0 0.64468469E+01</rscale>
<asrwt>0</asrwt>
<pdfrwt beam="1">  1        1 0.40475715E+00 0.64468469E+01</pdfrwt>
<pdfrwt beam="2">  1       -1 0.45258959E+00 0.64468469E+01</pdfrwt>
<totfact> 0.21087728E-02</totfact>
</mgrwt>
</event>
<event>
 4    1  0.4367748E-004  0.6668176E+01  0.7818608E-02  0.2335806E+00
          1   -1    0    0  501    0  0.00000000000E+00  0.00000000000E+00  0.51320541648E+02  0.51320541896E+02  0.50400000000E-02 0.  1.
         -1   -1    0    0    0  501 -0.00000000000E+00 -0.00000000000E+00 -0.21657264719E+00  0.21663128377E+00  0.50400000000E-02 0. -1.
         31    1    1    2    0    0 -0.75303733897E-01  0.16910492681E+01  0.21623759108E+02  0.21873380541E+02  0.28271010000E+01 0. -1.
        -31    1    1    2    0    0  0.75303733897E-01 -0.16910492681E+01  0.29480209893E+02  0.29663792638E+02  0.28271010000E+01 0.  1.
<mgrwt>
<rscale>  0 0.66681760E+01</rscale>
<asrwt>0</asrwt>
<pdfrwt beam="1">  1        1 0.42614541E+00 0.66681760E+01</pdfrwt>
<pdfrwt beam="2">  1       -1 0.45989712E+00 0.66681760E+01</pdfrwt>
<totfact> 0.15430068E-02</totfact>
</mgrwt>
</event>
<event>
 4    1  0.4367748E-004  0.7332311E+01  0.7818608E-02  0.2268741E+00
          1   -1    0    0  501    0  0.00000000000E+00  0.00000000000E+00  0.62577466416E+02  0.62577466619E+02  0.50400000000E-02 0. -1.
         -1   -1    0    0    0  501 -0.00000000000E+00 -0.00000000000E+00 -0.21475517646E+00  0.21481430916E+00  0.50400000000E-02 0.  1.
         31    1    1    2    0    0  0.14106797482E+00 -0.23035171807E+01  0.28188856309E+02  0.28424113207E+02  0.28271010000E+01 0.  1.
        -31    1    1    2    0    0 -0.14106797482E+00  0.23035171807E+01  0.34173854931E+02  0.34368167721E+02  0.28271010000E+01 0.  1.
<mgrwt>
<rscale>  0 0.73323114E+01</rscale>
<asrwt>0</asrwt>
<pdfrwt beam="1">  1        1 0.51921051E+00 0.73323114E+01</pdfrwt>
<pdfrwt beam="2">  1       -1 0.45639693E+00 0.73323114E+01</pdfrwt>
<totfact> 0.65585616E-03</totfact>
</mgrwt>
</event>
<event>
 4    1  0.4367748E-004  0.7339866E+01  0.7818608E-02  0.2268036E+00
          1   -1    0    0  501    0  0.00000000000E+00  0.00000000000E+00  0.77481492750E+02  0.77481492914E+02  0.50400000000E-02 0. -1.
         -1   -1    0    0    0  501 -0.00000000000E+00 -0.00000000000E+00 -0.17379071547E+00  0.17386378112E+00  0.50400000000E-02 0.  1.
         31    1    1    2    0    0 -0.18119551047E+01 -0.14759141658E+01  0.37384107910E+02  0.37563619743E+02  0.28271010000E+01 0. -1.
        -31    1    1    2    0    0  0.18119551047E+01  0.14759141658E+01  0.39923594124E+02  0.40091736952E+02  0.28271010000E+01 0.  1.
<mgrwt>
<rscale>  0 0.73398658E+01</rscale>
<asrwt>0</asrwt>
<pdfrwt beam="1">  1        1 0.64210882E+00 0.73398658E+01</pdfrwt>
<pdfrwt beam="2">  1       -1 0.36980432E+00 0.73398658E+01</pdfrwt>
<totfact> 0.60997395E-03</totfact>
</mgrwt>
</event>
<event>
 4    1  0.4367748E-004  0.5862785E+01  0.7818608E-02  0.2433632E+00
         -1   -1    0    0    0  501 -0.00000000000E+00  0.00000000000E+00  0.28142770524E+02  0.28142770975E+02  0.50400000000E-02 0. -1.
          1   -1    0    0  501    0  0.00000000000E+00 -0.00000000000E+00 -0.30531690340E+00  0.30535849931E+00  0.50400000000E-02 0.  1.
         31    1    1    2    0    0  0.37050356868E-01 -0.52504063158E+00  0.16678676156E+02  0.16924768205E+02  0.28271010000E+01 0. -1.
        -31    1    1    2    0    0 -0.37050356868E-01  0.52504063158E+00  0.11158777464E+02  0.11523361270E+02  0.28271010000E+01 0.  1.
<mgrwt>
<rscale>  0 0.58627849E+01</rscale>
<asrwt>0</asrwt>
<pdfrwt beam="2">  1        1 0.64405264E+00 0.58627849E+01</pdfrwt>
<pdfrwt beam="1">  1       -1 0.23522904E+00 0.58627849E+01</pdfrwt>
<totfact> 0.37902896E-02</totfact>
</mgrwt>
</event>
<event>
 4    1  0.4367748E-004  0.6081041E+01  0.7818608E-02  0.2404994E+00
         -1   -1    0    0    0  501 -0.00000000000E+00  0.00000000000E+00  0.36267664190E+02  0.36267664540E+02  0.50400000000E-02 0.  1.
          1   -1    0    0  501    0  0.00000000000E+00 -0.00000000000E+00 -0.25487853364E+00  0.25492835956E+00  0.50400000000E-02 0. -1.
         31    1    1    2    0    0  0.85888874268E+00 -0.71527573174E+00  0.17679851082E+02  0.17939312796E+02  0.28271010000E+01 0.  1.
        -31    1    1    2    0    0 -0.85888874268E+00  0.71527573174E+00  0.18332934575E+02  0.18583280104E+02  0.28271010000E+01 0. -1.
<mgrwt>
<rscale>  0 0.60810411E+01</rscale>
<asrwt>0</asrwt>
<pdfrwt beam="2">  1        1 0.53971122E+00 0.60810411E+01</pdfrwt>
<pdfrwt beam="1">  1       -1 0.30199435E+00 0.60810411E+01</pdfrwt>
<totfact> 0.48363744E-02</totfact>
</mgrwt>
</event>
<event>
 4    1  0.4367748E-004  0.6006267E+01  0.7818608E-02  0.2414609E+00
         -1   -1    0    0    0  501 -0.00000000000E+00  0.00000000000E+00  0.39885939579E+02  0.39885939897E+02  0.50400000000E-02 0.  1.
          1   -1    0    0  501    0  0.00000000000E+00 -0.00000000000E+00 -0.22608664054E+00  0.22614281025E+00  0.50400000000E-02 0. -1.
         31    1    1    2    0    0  0.62354989093E+00  0.27058088074E+00  0.14813218141E+02  0.15095892165E+02  0.28271010000E+01 0. -1.
        -31    1    1    2    0    0 -0.62354989093E+00 -0.27058088074E+00  0.24846634797E+02  0.25016190543E+02  0.28271010000E+01 0.  1.
<mgrwt>
<rscale>  0 0.60062671E+01</rscale>
<asrwt>0</asrwt>
<pdfrwt beam="2">  1        1 0.47940353E+00 0.60062671E+01</pdfrwt>
<pdfrwt beam="1">  1       -1 0.33167476E+00 0.60062671E+01</pdfrwt>
<totfact> 0.59215139E-02</totfact>
</mgrwt>
</event>
<event>
 4    1  0.4367748E-004  0.6281010E+01  0.7818608E-02  0.2380224E+00
          1   -1    0    0  501    0  0.00000000000E+00  0.00000000000E+00  0.76296806881E+02  0.76296807047E+02  0.50400000000E-02 0.  1.
         -1   -1    0    0    0  501 -0.00000000000E+00 -0.00000000000E+00 -0.12921916451E+00  0.12931741599E+00  0.50400000000E-02 0. -1.
         31    1    1    2    0    0 -0.12174574522E+01  0.37282754416E+00  0.32011247757E+02  0.32161058534E+02  0.28271010000E+01 0. -1.
        -31    1    1    2    0    0  0.12174574522E+01 -0.37282754416E+00  0.44156339960E+02  0.44265065930E+02  0.28271010000E+01 0.  1.
<mgrwt>
<rscale>  0 0.62810096E+01</rscale>
<asrwt>0</asrwt>
<pdfrwt beam="1">  1        1 0.63194467E+00 0.62810096E+01</pdfrwt>
<pdfrwt beam="2">  1       -1 0.27515933E+00 0.62810096E+01</pdfrwt>
<totfact> 0.25235289E-02</totfact>
</mgrwt>
</event>
<event>
 4    1  0.4367748E-004  0.6685561E+01  0.7818608E-02  0.2333911E+00
         -1   -1    0    0    0  501 -0.00000000000E+00  0.00000000000E+00  0.50931566564E+02  0.50931566814E+02  0.50400000000E-02 0. -1.
          1   -1    0    0  501    0  0.00000000000E+00 -0.00000000000E+00 -0.21936679812E+00  0.21942468803E+00  0.50400000000E-02 0.  1.
         31    1    1    2    0    0 -0.14270903110E+01  0.72730716043E+00  0.31361591046E+02  0.31529469635E+02  0.28271010000E+01 0. -1.
        -31    1    1    2    0    0  0.14270903110E+01 -0.72730716043E+00  0.19350608721E+02  0.19621521867E+02  0.28271010000E+01 0.  1.
<mgrwt>
<rscale>  0 0.66855610E+01</rscale>
<asrwt>0</asrwt>
<pdfrwt beam="2">  1        1 0.46578857E+00 0.66855610E+01</pdfrwt>
<pdfrwt beam="1">  1       -1 0.42295219E+00 0.66855610E+01</pdfrwt>
<totfact> 0.18586714E-02</totfact>
</mgrwt>
</event>
<event>
 4    1  0.4367748E-004  0.6822051E+01  0.7818608E-02  0.2319316E+00
          1   -1    0    0  501    0  0.00000000000E+00  0.00000000000E+00  0.91686300892E+02  0.91686301030E+02  0.50400000000E-02 0. -1.
         -1   -1    0    0    0  501 -0.00000000000E+00 -0.00000000000E+00 -0.12685095361E+00  0.12695103793E+00  0.50400000000E-02 0.  1.
         31    1    1    2    0    0  0.12004015149E+01 -0.35099299226E+00  0.65182269482E+02  0.65255535510E+02  0.28271010000E+01 0. -1.
        -31    1    1    2    0    0 -0.12004015149E+01  0.35099299226E+00  0.26377180456E+02  0.26557716558E+02  0.28271010000E+01 0.  1.
<mgrwt>
<rscale>  0 0.68220512E+01</rscale>
<asrwt>0</asrwt>
<pdfrwt beam="1">  1        1 0.75917621E+00 0.68220512E+01</pdfrwt>
<pdfrwt beam="2">  1       -1 0.27020398E+00 0.68220512E+01</pdfrwt>
<totfact> 0.48236564E-03</totfact>
</mgrwt>
</event>
<event>
 4    1  0.4367748E-004  0.5955726E+01  0.7818608E-02  0.2421222E+00
         -1   -1    0    0    0  501 -0.00000000000E+00  0.00000000000E+00  0.41765914170E+02  0.41765914474E+02  0.50400000000E-02 0. -1.
          1   -1    0    0  501    0  0.00000000000E+00 -0.00000000000E+00 -0.21228809216E+00  0.21234791187E+00  0.50400000000E-02 0.  1.
         31    1    1    2    0    0  0.20053196644E+00  0.35046784029E+00  0.14828845698E+02  0.15101331251E+02  0.28271010000E+01 0.  1.
        -31    1    1    2    0    0 -0.20053196644E+00 -0.35046784029E+00  0.26724780380E+02  0.26876931134E+02  0.28271010000E+01 0. -1.
<mgrwt>
<rscale>  0 0.59557260E+01</rscale>
<asrwt>0</asrwt>
<pdfrwt beam="2">  1        1 0.45041426E+00 0.59557260E+01</pdfrwt>
<pdfrwt beam="1">  1       -1 0.34710564E+00 0.59557260E+01</pdfrwt>
<totfact> 0.63366787E-02</totfact>
</mgrwt>
</event>
<event>
 4    1  0.4367748E-004  0.6683287E+01  0.7818608E-02  0.2334159E+00
         -1   -1    0    0    0  501 -0.00000000000E+00  0.00000000000E+00  0.42306733291E+02  0.42306733591E+02  0.50400000000E-02 0. -1.
          1   -1    0    0  501    0  0.00000000000E+00 -0.00000000000E+00 -0.26391901287E+00  0.26396713234E+00  0.50400000000E-02 0.  1.
         31    1    1    2    0    0  0.98297928634E+00 -0.94191534062E+00  0.13701406804E+02  0.14056119709E+02  0.28271010000E+01 0.  1.
        -31    1    1    2    0    0 -0.98297928634E+00  0.94191534062E+00  0.28341407474E+02  0.28514581015E+02  0.28271010000E+01 0. -1.
<mgrwt>
<rscale>  0 0.66832872E+01</rscale>
<asrwt>0</asrwt>
<pdfrwt beam="2">  1        1 0.55928943E+00 0.66832872E+01</pdfrwt>
<pdfrwt beam="1">  1       -1 0.35200434E+00 0.66832872E+01</pdfrwt>
<totfact> 0.19966653E-02</totfact>
</mgrwt>
</event>
<event>
 4    1  0.4367748E-004  0.8072848E+01  0.7818608E-02  0.2204746E+00
         -1   -1    0    0    0  501 -0.00000000000E+00  0.00000000000E+00  0.50574492395E+02  0.50574492646E+02  0.50400000000E-02 0.  1.
          1   -1    0    0  501    0  0.00000000000E+00 -0.00000000000E+00 -0.32213294720E+00  0.32217237198E+00  0.50400000000E-02 0. -1.
         31    1    1    2    0    0  0.13882222919E+00  0.24019281858E+01  0.15134339270E+02  0.15582979684E+02  0.28271010000E+01 0. -1.
        -31    1    1    2    0    0 -0.13882222919E+00 -0.24019281858E+01  0.35118020177E+02  0.35313685334E+02  0.28271010000E+01 0.  1.
<mgrwt>
<rscale>  0 0.80728483E+01</rscale>
<asrwt>0</asrwt>
<pdfrwt beam="2">  1        1 0.68254521E+00 0.80728483E+01</pdfrwt>
<pdfrwt beam="1">  1       -1 0.42084924E+00 0.80728483E+01</pdfrwt>
<totfact> 0.17325786E-03</totfact>
</mgrwt>
</event>
<event>
 4    1  0.4367748E-004  0.6236229E+01  0.7818608E-02  0.2385656E+00
         -1   -1    0    0    0  501 -0.00000000000E+00  0.00000000000E+00  0.63788545732E+02  0.63788545931E+02  0.50400000000E-02 0. -1.
          1   -1    0    0  501    0  0.00000000000E+00 -0.00000000000E+00 -0.15237794387E+00  0.15246127173E+00  0.50400000000E-02 0.  1.
         31    1    1    2    0    0  0.45738445278E-01  0.12459657108E+01  0.36114818153E+02  0.36246753135E+02  0.28271010000E+01 0. -1.
        -31    1    1    2    0    0 -0.45738445278E-01 -0.12459657108E+01  0.27521349636E+02  0.27694254068E+02  0.28271010000E+01 0.  1.
<mgrwt>
<rscale>  0 0.62362289E+01</rscale>
<asrwt>0</asrwt>
<pdfrwt beam="2">  1        1 0.32421402E+00 0.62362289E+01</pdfrwt>
<pdfrwt beam="1">  1       -1 0.52870898E+00 0.62362289E+01</pdfrwt>
<totfact> 0.13204824E-02</totfact>
</mgrwt>
</event>
<event>
 4    1  0.4367748E-004  0.5718293E+01  0.7818608E-02  0.2453596E+00
          1   -1    0    0  501    0  0.00000000000E+00  0.00000000000E+00  0.43489507094E+02  0.43489507386E+02  0.50400000000E-02 0.  1.
         -1   -1    0    0    0  501 -0.00000000000E+00 -0.00000000000E+00 -0.18793583645E+00  0.18800340482E+00  0.50400000000E-02 0. -1.
         31    1    1    2    0    0 -0.17427958717E+00 -0.22208922722E+00  0.19205105735E+02  0.19414125871E+02  0.28271010000E+01 0. -1.
        -31    1    1    2    0    0  0.17427958717E+00  0.22208922722E+00  0.24096465523E+02  0.24263384920E+02  0.28271010000E+01 0. -1.
<mgrwt>
<rscale>  0 0.57182931E+01</rscale>
<asrwt>0</asrwt>
<pdfrwt beam="1">  1        1 0.36115622E+00 0.57182931E+01</pdfrwt>
<pdfrwt beam="2">  1       -1 0.39906359E+00 0.57182931E+01</pdfrwt>
<totfact> 0.69465236E-02</totfact>
</mgrwt>
</event>
<event>
 4    1  0.4367748E-004  0.5948974E+01  0.7818608E-02  0.2422112E+00
         -1   -1    0    0    0  501 -0.00000000000E+00  0.00000000000E+00  0.52575367722E+02  0.52575367964E+02  0.50400000000E-02 0. -1.
          1   -1    0    0  501    0  0.00000000000E+00 -0.00000000000E+00 -0.16824565721E+00  0.16832112990E+00  0.50400000000E-02 0.  1.
         31    1    1    2    0    0  0.73301237024E+00 -0.39060435136E+00  0.29807081003E+02  0.29952369804E+02  0.28271010000E+01 0.  1.
        -31    1    1    2    0    0 -0.73301237024E+00  0.39060435136E+00  0.22600041062E+02  0.22791319289E+02  0.28271010000E+01 0.  1.
<mgrwt>
<rscale>  0 0.59489744E+01</rscale>
<asrwt>0</asrwt>
<pdfrwt beam="2">  1        1 0.35766864E+00 0.59489744E+01</pdfrwt>
<pdfrwt beam="1">  1       -1 0.43612172E+00 0.59489744E+01</pdfrwt>
<totfact> 0.41589287E-02</totfact>
</mgrwt>
</event>
<event>
 4    1  0.4367748E-004  0.6665854E+01  0.7818608E-02  0.2336059E+00
          1   -1    0    0  501    0  0.00000000000E+00  0.00000000000E+00  0.53691312620E+02  0.53691312856E+02  0.50400000000E-02 0. -1.
         -1   -1    0    0    0  501 -0.00000000000E+00 -0.00000000000E+00 -0.20686291719E+00  0.20692430526E+00  0.50400000000E-02 0.  1.
         31    1    1    2    0    0 -0.12172069954E+01  0.38415740296E+00  0.16883172454E+02  0.17165756084E+02  0.28271010000E+01 0.  1.
        -31    1    1    2    0    0  0.12172069954E+01 -0.38415740296E+00  0.36601277249E+02  0.36732481078E+02  0.28271010000E+01 0.  1.
<mgrwt>
<rscale>  0 0.66658540E+01</rscale>
<asrwt>0</asrwt>
<pdfrwt beam="1">  1        1 0.44566834E+00 0.66658540E+01</pdfrwt>
<pdfrwt beam="2">  1       -1 0.43944466E+00 0.66658540E+01</pdfrwt>
<totfact> 0.17579658E-02</totfact>
</mgrwt>
</event>
<event>
 4    1  0.4367748E-004  0.6292724E+01  0.7818608E-02  0.2378814E+00
         -1   -1    0    0    0  501 -0.00000000000E+00  0.00000000000E+00  0.57090709072E+02  0.57090709294E+02  0.50400000000E-02 0. -1.
          1   -1    0    0  501    0  0.00000000000E+00 -0.00000000000E+00 -0.17336427563E+00  0.17343752093E+00  0.50400000000E-02 0.  1.
         31    1    1    2    0    0  0.11539162042E+01 -0.26487413820E+00  0.34928115453E+02  0.35062336347E+02  0.28271010000E+01 0. -1.
        -31    1    1    2    0    0 -0.11539162042E+01  0.26487413820E+00  0.21989229343E+02  0.22201810468E+02  0.28271010000E+01 0.  1.
<mgrwt>
<rscale>  0 0.62927237E+01</rscale>
<asrwt>0</asrwt>
<pdfrwt beam="2">  1        1 0.36860541E+00 0.62927237E+01</pdfrwt>
<pdfrwt beam="1">  1       -1 0.47350003E+00 0.62927237E+01</pdfrwt>
<totfact> 0.21191708E-02</totfact>
</mgrwt>
</event>
<event>
 4    1  0.4367748E-004  0.5706088E+01  0.7818608E-02  0.2455322E+00
          1   -1    0    0  501    0  0.00000000000E+00  0.00000000000E+00  0.43901454653E+02  0.43901454942E+02  0.50400000000E-02 0.  1.
         -1   -1    0    0    0  501 -0.00000000000E+00 -0.00000000000E+00 -0.18537752468E+00  0.18544602519E+00  0.50400000000E-02 0. -1.
         31    1    1    2    0    0  0.21431808243E+00  0.29015361891E+00  0.20843628195E+02  0.21037572525E+02  0.28271010000E+01 0.  1.
        -31    1    1    2    0    0 -0.21431808243E+00 -0.29015361891E+00  0.22872448933E+02  0.23049328442E+02  0.28271010000E+01 0. -1.
<mgrwt>
<rscale>  0 0.57060878E+01</rscale>
<asrwt>0</asrwt>
<pdfrwt beam="1">  1        1 0.36454134E+00 0.57060878E+01</pdfrwt>
<pdfrwt beam="2">  1       -1 0.39367196E+00 0.57060878E+01</pdfrwt>
<totfact> 0.72792744E-02</totfact>
</mgrwt>
</event>
<event>
 4    1  0.4367748E-004  0.5903869E+01  0.7818608E-02  0.2428106E+00
          1   -1    0    0  501    0  0.00000000000E+00  0.00000000000E+00  0.51917920034E+02  0.51917920279E+02  0.50400000000E-02 0. -1.
         -1   -1    0    0    0  501 -0.00000000000E+00 -0.00000000000E+00 -0.16780219284E+00  0.16787786489E+00  0.50400000000E-02 0.  1.
         31    1    1    2    0    0 -0.19711682962E+00 -0.80539845043E+00  0.24250790672E+02  0.24429098837E+02  0.28271010000E+01 0.  1.
        -31    1    1    2    0    0  0.19711682962E+00  0.80539845043E+00  0.27499327169E+02  0.27656699306E+02  0.28271010000E+01 0.  1.
<mgrwt>
<rscale>  0 0.59038692E+01</rscale>
<asrwt>0</asrwt>
<pdfrwt beam="1">  1        1 0.43068182E+00 0.59038692E+01</pdfrwt>
<pdfrwt beam="2">  1       -1 0.35671494E+00 0.59038692E+01</pdfrwt>
<totfact> 0.66843741E-02</totfact>
</mgrwt>
</event>
<event>
 4    1  0.4367748E-004  0.6721166E+01  0.7818608E-02  0.2330057E+00
          1   -1    0    0  501    0  0.00000000000E+00  0.00000000000E+00  0.51405146968E+02  0.51405147215E+02  0.50400000000E-02 0.  1.
         -1   -1    0    0    0  501 -0.00000000000E+00 -0.00000000000E+00 -0.21966708281E+00  0.21972489361E+00  0.50400000000E-02 0. -1.
         31    1    1    2    0    0 -0.38065204986E+00 -0.10462413838E+01  0.36620976526E+02  0.36746808552E+02  0.28271010000E+01 0.  1.
        -31    1    1    2    0    0  0.38065204986E+00  0.10462413838E+01  0.14564503360E+02  0.14878063557E+02  0.28271010000E+01 0.  1.
<mgrwt>
<rscale>  0 0.67211658E+01</rscale>
<asrwt>0</asrwt>
<pdfrwt beam="1">  1        1 0.42687056E+00 0.67211658E+01</pdfrwt>
<pdfrwt beam="2">  1       -1 0.46644172E+00 0.67211658E+01</pdfrwt>
<totfact> 0.13837899E-02</totfact>
</mgrwt>
</event>
<event>
 4    1  0.4367748E-004  0.5820695E+01  0.7818608E-02  0.2439361E+00
          1   -1    0    0  501    0  0.00000000000E+00  0.00000000000E+00  0.77894340394E+02  0.77894340557E+02  0.50400000000E-02 0. -1.
         -1   -1    0    0    0  501 -0.00000000000E+00 -0.00000000000E+00 -0.10868006359E+00  0.10879686494E+00  0.50400000000E-02 0.  1.
         31    1    1    2    0    0  0.61796269302E+00 -0.30375938258E+00  0.39682914538E+02  0.39789450285E+02  0.28271010000E+01 0. -1.
        -31    1    1    2    0    0 -0.61796269302E+00  0.30375938258E+00  0.38102745792E+02  0.38213687137E+02  0.28271010000E+01 0. -1.
<mgrwt>
<rscale>  0 0.58206954E+01</rscale>
<asrwt>0</asrwt>
<pdfrwt beam="1">  1        1 0.64498452E+00 0.58206954E+01</pdfrwt>
<pdfrwt beam="2">  1       -1 0.23152870E+00 0.58206954E+01</pdfrwt>
<totfact> 0.39485534E-02</totfact>
</mgrwt>
</event>
<event>
 4    1  0.4367748E-004  0.6346819E+01  0.7818608E-02  0.2372358E+00
         -1   -1    0    0    0  501 -0.00000000000E+00  0.00000000000E+00  0.38764352223E+02  0.38764352551E+02  0.50400000000E-02 0.  1.
          1   -1    0    0  501    0  0.00000000000E+00 -0.00000000000E+00 -0.25976360504E+00  0.25981249413E+00  0.50400000000E-02 0. -1.
         31    1    1    2    0    0  0.99100873556E+00  0.31385844853E+00  0.25392983587E+02  0.25571013295E+02  0.28271010000E+01 0.  1.
        -31    1    1    2    0    0 -0.99100873556E+00 -0.31385844853E+00  0.13111605031E+02  0.13453151749E+02  0.28271010000E+01 0. -1.
<mgrwt>
<rscale>  0 0.63468191E+01</rscale>
<asrwt>0</asrwt>
<pdfrwt beam="2">  1        1 0.55023193E+00 0.63468191E+01</pdfrwt>
<pdfrwt beam="1">  1       -1 0.32267910E+00 0.63468191E+01</pdfrwt>
<totfact> 0.32802182E-02</totfact>
</mgrwt>
</event>
<event>
 4    1  0.4367748E-004  0.5802094E+01  0.7818608E-02  0.2441916E+00
          1   -1    0    0  501    0  0.00000000000E+00  0.00000000000E+00  0.34048392288E+02  0.34048392661E+02  0.50400000000E-02 0.  1.
         -1   -1    0    0    0  501 -0.00000000000E+00 -0.00000000000E+00 -0.24715374351E+00  0.24720512643E+00  0.50400000000E-02 0. -1.
         31    1    1    2    0    0 -0.17299088375E+00 -0.98247533007E-01  0.13237784870E+02  0.13537762989E+02  0.28271010000E+01 0. -1.
        -31    1    1    2    0    0  0.17299088375E+00  0.98247533007E-01  0.20563453675E+02  0.20757834798E+02  0.28271010000E+01 0.  1.
<mgrwt>
<rscale>  0 0.58020945E+01</rscale>
<asrwt>0</asrwt>
<pdfrwt beam="1">  1        1 0.28358000E+00 0.58020945E+01</pdfrwt>
<pdfrwt beam="2">  1       -1 0.52323692E+00 0.58020945E+01</pdfrwt>
<totfact> 0.20600818E-02</totfact>
</mgrwt>
</event>
<event>
 4    1  0.4367748E-004  0.6361959E+01  0.7818608E-02  0.2370567E+00
          1   -1    0    0  501    0  0.00000000000E+00  0.00000000000E+00  0.88172463455E+02  0.88172463599E+02  0.50400000000E-02 0. -1.
         -1   -1    0    0    0  501 -0.00000000000E+00 -0.00000000000E+00 -0.11470405736E+00  0.11481473065E+00  0.50400000000E-02 0.  1.
         31    1    1    2    0    0 -0.60442162590E+00  0.13269412956E+01  0.44107889749E+02  0.44222443813E+02  0.28271010000E+01 0.  1.
        -31    1    1    2    0    0  0.60442162590E+00 -0.13269412956E+01  0.43949869649E+02  0.44064834517E+02  0.28271010000E+01 0.  1.
<mgrwt>
<rscale>  0 0.63619592E+01</rscale>
<asrwt>0</asrwt>
<pdfrwt beam="1">  1        1 0.73002099E+00 0.63619592E+01</pdfrwt>
<pdfrwt beam="2">  1       -1 0.24437164E+00 0.63619592E+01</pdfrwt>
<totfact> 0.10768712E-02</totfact>
</mgrwt>
</event>
<event>
 4    1  0.4367748E-004  0.5768131E+01  0.7818608E-02  0.2446615E+00
          1   -1    0    0  501    0  0.00000000000E+00  0.00000000000E+00  0.42255605061E+02  0.42255605361E+02  0.50400000000E-02 0. -1.
         -1   -1    0    0    0  501 -0.00000000000E+00 -0.00000000000E+00 -0.19681309554E+00  0.19687761726E+00  0.50400000000E-02 0.  1.
         31    1    1    2    0    0  0.48572666975E+00  0.28294764625E+00  0.21740773952E+02  0.21931022362E+02  0.28271010000E+01 0. -1.
        -31    1    1    2    0    0 -0.48572666975E+00 -0.28294764625E+00  0.20318018013E+02  0.20521460616E+02  0.28271010000E+01 0. -1.
<mgrwt>
<rscale>  0 0.57681305E+01</rscale>
<asrwt>0</asrwt>
<pdfrwt beam="1">  1        1 0.35102683E+00 0.57681305E+01</pdfrwt>
<pdfrwt beam="2">  1       -1 0.41776709E+00 0.57681305E+01</pdfrwt>
<totfact> 0.57963896E-02</totfact>
</mgrwt>
</event>
<event>
 4    1  0.4367748E-004  0.5877636E+01  0.7818608E-02  0.2431627E+00
         -1   -1    0    0    0  501 -0.00000000000E+00  0.00000000000E+00  0.84478139525E+02  0.84478139676E+02  0.50400000000E-02 0. -1.
          1   -1    0    0  501    0  0.00000000000E+00 -0.00000000000E+00 -0.10217307802E+00  0.10229730921E+00  0.50400000000E-02 0.  1.
         31    1    1    2    0    0  0.44164355201E-01 -0.60747991001E+00  0.49709114052E+02  0.49793167224E+02  0.28271010000E+01 0. -1.
        -31    1    1    2    0    0 -0.44164355201E-01  0.60747991001E+00  0.34666852395E+02  0.34787269761E+02  0.28271010000E+01 0.  1.
<mgrwt>
<rscale>  0 0.58776361E+01</rscale>
<asrwt>0</asrwt>
<pdfrwt beam="2">  1        1 0.21772216E+00 0.58776361E+01</pdfrwt>
<pdfrwt beam="1">  1       -1 0.69937023E+00 0.58776361E+01</pdfrwt>
<totfact> 0.68340606E-03</totfact>
</mgrwt>
</event>
<event>
 4    1  0.4367748E-004  0.5866323E+01  0.7818608E-02  0.2433153E+00
         -1   -1    0    0    0  501 -0.00000000000E+00  0.00000000000E+00  0.31552121301E+02  0.31552121704E+02  0.50400000000E-02 0. -1.
          1   -1    0    0  501    0  0.00000000000E+00 -0.00000000000E+00 -0.27265012681E+00  0.27269670561E+00  0.50400000000E-02 0.  1.
         31    1    1    2    0    0  0.44014818971E-01 -0.54731911360E+00  0.12621942355E+02  0.12946328606E+02  0.28271010000E+01 0. -1.
        -31    1    1    2    0    0 -0.44014818971E-01  0.54731911360E+00  0.18657528820E+02  0.18878489803E+02  0.28271010000E+01 0. -1.
<mgrwt>
<rscale>  0 0.58663234E+01</rscale>
<asrwt>0</asrwt>
<pdfrwt beam="2">  1        1 0.57641229E+00 0.58663234E+01</pdfrwt>
<pdfrwt beam="1">  1       -1 0.26314987E+00 0.58663234E+01</pdfrwt>
<totfact> 0.55475074E-02</totfact>
</mgrwt>
</event>
<event>
 4    1  0.4367748E-004  0.5787030E+01  0.7818608E-02  0.2443994E+00
         -1   -1    0    0    0  501 -0.00000000000E+00  0.00000000000E+00  0.56513163280E+02  0.56513163505E+02  0.50400000000E-02 0.  1.
          1   -1    0    0  501    0  0.00000000000E+00 -0.00000000000E+00 -0.14810697180E+00  0.14819270122E+00  0.50400000000E-02 0. -1.
         31    1    1    2    0    0 -0.24663827417E-01 -0.57377856228E+00  0.30374036955E+02  0.30510726821E+02  0.28271010000E+01 0.  1.
        -31    1    1    2    0    0  0.24663827417E-01  0.57377856228E+00  0.25991019353E+02  0.26150629385E+02  0.28271010000E+01 0. -1.
<mgrwt>
<rscale>  0 0.57870298E+01</rscale>
<asrwt>0</asrwt>
<pdfrwt beam="2">  1        1 0.31505882E+00 0.57870298E+01</pdfrwt>
<pdfrwt beam="1">  1       -1 0.46851574E+00 0.57870298E+01</pdfrwt>
<totfact> 0.36945952E-02</totfact>
</mgrwt>
</event>
<event>
 4    1  0.4367748E-004  0.6008492E+01  0.7818608E-02  0.2414320E+00
         -1   -1    0    0    0  501 -0.00000000000E+00  0.00000000000E+00  0.32858131387E+02  0.32858131774E+02  0.50400000000E-02 0.  1.
          1   -1    0    0  501    0  0.00000000000E+00 -0.00000000000E+00 -0.27465715821E+00  0.27470339669E+00  0.50400000000E-02 0. -1.
         31    1    1    2    0    0  0.50010637361E+00 -0.87462584183E+00  0.17029846582E+02  0.17292288785E+02  0.28271010000E+01 0.  1.
        -31    1    1    2    0    0 -0.50010637361E+00  0.87462584183E+00  0.15553627647E+02  0.15840546386E+02  0.28271010000E+01 0. -1.
<mgrwt>
<rscale>  0 0.60084918E+01</rscale>
<asrwt>0</asrwt>
<pdfrwt beam="2">  1        1 0.58081726E+00 0.60084918E+01</pdfrwt>
<pdfrwt beam="1">  1       -1 0.27396546E+00 0.60084918E+01</pdfrwt>
<totfact> 0.45683659E-02</totfact>
</mgrwt>
</event>
<event>
 4    1  0.4367748E-004  0.6197623E+01  0.7818608E-02  0.2390391E+00
         -1   -1    0    0    0  501 -0.00000000000E+00  0.00000000000E+00  0.26962290014E+02  0.26962290485E+02  0.50400000000E-02 0. -1.
          1   -1    0    0  501    0  0.00000000000E+00 -0.00000000000E+00 -0.35613213485E+00  0.35616779623E+00  0.50400000000E-02 0.  1.
         31    1    1    2    0    0 -0.11310438231E+01  0.49523814464E+00  0.12013362011E+02  0.12403140240E+02  0.28271010000E+01 0.  1.
        -31    1    1    2    0    0  0.11310438231E+01 -0.49523814464E+00  0.14592795868E+02  0.14915318041E+02  0.28271010000E+01 0.  1.
<mgrwt>
<rscale>  0 0.61976226E+01</rscale>
<asrwt>0</asrwt>
<pdfrwt beam="2">  1        1 0.74948204E+00 0.61976226E+01</pdfrwt>
<pdfrwt beam="1">  1       -1 0.22588813E+00 0.61976226E+01</pdfrwt>
<totfact> 0.10474716E-02</totfact>
</mgrwt>
</event>
<event>
 4    1  0.4367748E-004  0.5957097E+01  0.7818608E-02  0.2421041E+00
         -1   -1    0    0    0  501 -0.00000000000E+00  0.00000000000E+00  0.27306576152E+02  0.27306576617E+02  0.50400000000E-02 0. -1.
          1   -1    0    0  501    0  0.00000000000E+00 -0.00000000000E+00 -0.32487428389E+00  0.32491337604E+00  0.50400000000E-02 0.  1.
         31    1    1    2    0    0  0.37687378225E+00 -0.42697372950E+00  0.10035588212E+02  0.10441736984E+02  0.28271010000E+01 0.  1.
        -31    1    1    2    0    0 -0.37687378225E+00  0.42697372950E+00  0.16946113655E+02  0.17189753009E+02  0.28271010000E+01 0. -1.
<mgrwt>
<rscale>  0 0.59570969E+01</rscale>
<asrwt>0</asrwt>
<pdfrwt beam="2">  1        1 0.68459259E+00 0.59570969E+01</pdfrwt>
<pdfrwt beam="1">  1       -1 0.22847649E+00 0.59570969E+01</pdfrwt>
<totfact> 0.25169095E-02</totfact>
</mgrwt>
</event>
<event>
 4    1  0.4367748E-004  0.5897456E+01  0.7818608E-02  0.2428964E+00
         -1   -1    0    0    0  501 -0.00000000000E+00  0.00000000000E+00  0.44152956561E+02  0.44152956849E+02  0.50400000000E-02 0. -1.
          1   -1    0    0  501    0  0.00000000000E+00 -0.00000000000E+00 -0.19689646611E+00  0.19696096051E+00  0.50400000000E-02 0.  1.
         31    1    1    2    0    0 -0.52598361696E+00  0.47038764072E+00  0.18576662084E+02  0.18803797424E+02  0.28271010000E+01 0.  1.
        -31    1    1    2    0    0  0.52598361696E+00 -0.47038764072E+00  0.25379398011E+02  0.25546120386E+02  0.28271010000E+01 0. -1.
<mgrwt>
<rscale>  0 0.58974563E+01</rscale>
<asrwt>0</asrwt>
<pdfrwt beam="2">  1        1 0.41802649E+00 0.58974563E+01</pdfrwt>
<pdfrwt beam="1">  1       -1 0.36671615E+00 0.58974563E+01</pdfrwt>
<totfact> 0.65470622E-02</totfact>
</mgrwt>
</event>
<event>
 4    1  0.4367748E-004  0.7895854E+01  0.7818608E-02  0.2219156E+00
          1   -1    0    0  501    0  0.00000000000E+00  0.00000000000E+00  0.70228093336E+02  0.70228093517E+02  0.50400000000E-02 0.  1.
         -1   -1    0    0    0  501 -0.00000000000E+00 -0.00000000000E+00 -0.22190697633E+00  0.22196420374E+00  0.50400000000E-02 0. -1.
         31    1    1    2    0    0  0.47915642509E+00 -0.25292617415E+01  0.26229725265E+02  0.26506937646E+02  0.28271010000E+01 0. -1.
        -31    1    1    2    0    0 -0.47915642509E+00  0.25292617415E+01  0.43776461095E+02  0.43943120074E+02  0.28271010000E+01 0. -1.
<mgrwt>
<rscale>  0 0.78958536E+01</rscale>
<asrwt>0</asrwt>
<pdfrwt beam="1">  1        1 0.58253037E+00 0.78958536E+01</pdfrwt>
<pdfrwt beam="2">  1       -1 0.47171967E+00 0.78958536E+01</pdfrwt>
<totfact> 0.26227118E-03</totfact>
</mgrwt>
</event>
<event>
 4    1  0.4367748E-004  0.6203160E+01  0.7818608E-02  0.2389709E+00
         -1   -1    0    0    0  501 -0.00000000000E+00  0.00000000000E+00  0.27473697447E+02  0.27473697909E+02  0.50400000000E-02 0. -1.
          1   -1    0    0  501    0  0.00000000000E+00 -0.00000000000E+00 -0.35012719009E+00  0.35016346303E+00  0.50400000000E-02 0.  1.
         31    1    1    2    0    0 -0.74437903582E+00 -0.35378536692E-03  0.89150858644E+01  0.93821829181E+01  0.28271010000E+01 0.  1.
        -31    1    1    2    0    0  0.74437903582E+00  0.35378536692E-03  0.18208484393E+02  0.18441678454E+02  0.28271010000E+01 0. -1.
<mgrwt>
<rscale>  0 0.62031603E+01</rscale>
<asrwt>0</asrwt>
<pdfrwt beam="2">  1        1 0.73718379E+00 0.62031603E+01</pdfrwt>
<pdfrwt beam="1">  1       -1 0.23006715E+00 0.62031603E+01</pdfrwt>
<totfact> 0.11876624E-02</totfact>
</mgrwt>
</event>
<event>
 4    1  0.4367748E-004  0.6253538E+01  0.7818608E-02  0.2383549E+00
          1   -1    0    0  501    0  0.00000000000E+00  0.00000000000E+00  0.34551133877E+02  0.34551134244E+02  0.50400000000E-02 0.  1.
         -1   -1    0    0    0  501 -0.00000000000E+00 -0.00000000000E+00 -0.28293993666E+00  0.28298482178E+00  0.50400000000E-02 0. -1.
         31    1    1    2    0    0  0.12584010314E+01  0.24160496543E+00  0.15033289322E+02  0.15350382211E+02  0.28271010000E+01 0.  1.
        -31    1    1    2    0    0 -0.12584010314E+01 -0.24160496543E+00  0.19234904618E+02  0.19483736856E+02  0.28271010000E+01 0.  1.
<mgrwt>
<rscale>  0 0.62535378E+01</rscale>
<asrwt>0</asrwt>
<pdfrwt beam="1">  1        1 0.28803287E+00 0.62535378E+01</pdfrwt>
<pdfrwt beam="2">  1       -1 0.59843074E+00 0.62535378E+01</pdfrwt>
<totfact> 0.70177414E-03</totfact>
</mgrwt>
</event>
<event>
 4    1  0.4367748E-004  0.8291299E+01  0.7818608E-02  0.2187647E+00
         -1   -1    0    0    0  501 -0.00000000000E+00  0.00000000000E+00  0.49874296711E+02  0.49874296966E+02  0.50400000000E-02 0.  1.
          1   -1    0    0  501    0  0.00000000000E+00 -0.00000000000E+00 -0.34457582264E+00  0.34461267990E+00  0.50400000000E-02 0. -1.
         31    1    1    2    0    0  0.63796143026E+00 -0.10455791251E+01  0.79647660289E+01  0.85399196982E+01  0.28271010000E+01 0. -1.
        -31    1    1    2    0    0 -0.63796143026E+00  0.10455791251E+01  0.41564954859E+02  0.41678989947E+02  0.28271010000E+01 0.  1.
<mgrwt>
<rscale>  0 0.82912987E+01</rscale>
<asrwt>0</asrwt>
<pdfrwt beam="2">  1        1 0.72970112E+00 0.82912987E+01</pdfrwt>
<pdfrwt beam="1">  1       -1 0.41524508E+00 0.82912987E+01</pdfrwt>
<totfact> 0.97731917E-04</totfact>
</mgrwt>
</event>
<event>
 4    1  0.4367748E-004  0.5953797E+01  0.7818608E-02  0.2421476E+00
          1   -1    0    0  501    0  0.00000000000E+00  0.00000000000E+00  0.82834465126E+02  0.82834465280E+02  0.50400000000E-02 0.  1.
         -1   -1    0    0    0  501 -0.00000000000E+00 -0.00000000000E+00 -0.10692403605E+00  0.10704275354E+00  0.50400000000E-02 0. -1.
         31    1    1    2    0    0 -0.62335034098E+00 -0.55033157442E-01  0.31734023230E+02  0.31865848879E+02  0.28271010000E+01 0. -1.
        -31    1    1    2    0    0  0.62335034098E+00  0.55033157442E-01  0.50993517860E+02  0.51075659155E+02  0.28271010000E+01 0. -1.
<mgrwt>
<rscale>  0 0.59537971E+01</rscale>
<asrwt>0</asrwt>
<pdfrwt beam="1">  1        1 0.68581842E+00 0.59537971E+01</pdfrwt>
<pdfrwt beam="2">  1       -1 0.22781552E+00 0.59537971E+01</pdfrwt>
<totfact> 0.25005434E-02</totfact>
</mgrwt>
</event>
<event>
 4    1  0.4367748E-004  0.6828855E+01  0.7818608E-02  0.2318601E+00
          1   -1    0    0  501    0  0.00000000000E+00  0.00000000000E+00  0.60206016435E+02  0.60206016646E+02  0.50400000000E-02 0.  1.
         -1   -1    0    0    0  501 -0.00000000000E+00 -0.00000000000E+00 -0.19360734635E+00  0.19367293606E+00  0.50400000000E-02 0. -1.
         31    1    1    2    0    0  0.16358819534E+00  0.17282382848E+01  0.22863011572E+02  0.23102453698E+02  0.28271010000E+01 0. -1.
        -31    1    1    2    0    0 -0.16358819534E+00 -0.17282382848E+01  0.37149397517E+02  0.37297235884E+02  0.28271010000E+01 0.  1.
<mgrwt>
<rscale>  0 0.68288547E+01</rscale>
<asrwt>0</asrwt>
<pdfrwt beam="1">  1        1 0.49942689E+00 0.68288547E+01</pdfrwt>
<pdfrwt beam="2">  1       -1 0.41155531E+00 0.68288547E+01</pdfrwt>
<totfact> 0.15822727E-02</totfact>
</mgrwt>
</event>
<event>
 4    1  0.4367748E-004  0.6768904E+01  0.7818608E-02  0.2324942E+00
          1   -1    0    0  501    0  0.00000000000E+00  0.00000000000E+00  0.30679639614E+02  0.30679640028E+02  0.50400000000E-02 0. -1.
         -1   -1    0    0    0  501 -0.00000000000E+00 -0.00000000000E+00 -0.37334145360E+00  0.37337547131E+00  0.50400000000E-02 0.  1.
         31    1    1    2    0    0  0.11036183228E+01 -0.39336578832E+00  0.85220362957E+01  0.90548502326E+01  0.28271010000E+01 0. -1.
        -31    1    1    2    0    0 -0.11036183228E+01  0.39336578832E+00  0.21784261865E+02  0.21998165267E+02  0.28271010000E+01 0.  1.
<mgrwt>
<rscale>  0 0.67689042E+01</rscale>
<asrwt>0</asrwt>
<pdfrwt beam="1">  1        1 0.25676806E+00 0.67689042E+01</pdfrwt>
<pdfrwt beam="2">  1       -1 0.78650251E+00 0.67689042E+01</pdfrwt>
<totfact> 0.29672215E-03</totfact>
</mgrwt>
</event>
<event>
 4    1  0.4367748E-004  0.6127032E+01  0.7818608E-02  0.2399178E+00
         -1   -1    0    0    0  501 -0.00000000000E+00  0.00000000000E+00  0.50184457779E+02  0.50184458032E+02  0.50400000000E-02 0. -1.
          1   -1    0    0  501    0  0.00000000000E+00 -0.00000000000E+00 -0.18697845097E+00  0.18704636518E+00  0.50400000000E-02 0.  1.
         31    1    1    2    0    0 -0.20128712628E+00  0.72445664349E+00  0.17521182217E+02  0.17763718087E+02  0.28271010000E+01 0.  1.
        -31    1    1    2    0    0  0.20128712628E+00 -0.72445664349E+00  0.32476297111E+02  0.32607786310E+02  0.28271010000E+01 0. -1.
<mgrwt>
<rscale>  0 0.61270316E+01</rscale>
<asrwt>0</asrwt>
<pdfrwt beam="2">  1        1 0.39726699E+00 0.61270316E+01</pdfrwt>
<pdfrwt beam="1">  1       -1 0.41650684E+00 0.61270316E+01</pdfrwt>
<totfact> 0.38936367E-02</totfact>
</mgrwt>
</event>
<event>
 4    1  0.4367748E-004  0.5867819E+01  0.7818608E-02  0.2432951E+00
         -1   -1    0    0    0  501 -0.00000000000E+00  0.00000000000E+00  0.43589706395E+02  0.43589706686E+02  0.50400000000E-02 0. -1.
          1   -1    0    0  501    0  0.00000000000E+00 -0.00000000000E+00 -0.19744133134E+00  0.19750564782E+00  0.50400000000E-02 0.  1.
         31    1    1    2    0    0 -0.49355903988E+00 -0.60124331468E+00  0.22450893507E+02  0.22641559429E+02  0.28271010000E+01 0. -1.
        -31    1    1    2    0    0  0.49355903988E+00  0.60124331468E+00  0.20941371557E+02  0.21145652905E+02  0.28271010000E+01 0.  1.
<mgrwt>
<rscale>  0 0.58678187E+01</rscale>
<asrwt>0</asrwt>
<pdfrwt beam="2">  1        1 0.41915364E+00 0.58678187E+01</pdfrwt>
<pdfrwt beam="1">  1       -1 0.36206331E+00 0.58678187E+01</pdfrwt>
<totfact> 0.69094049E-02</totfact>
</mgrwt>
</event>
<event>
 4    1  0.4367748E-004  0.7335606E+01  0.7818608E-02  0.2268433E+00
          1   -1    0    0  501    0  0.00000000000E+00  0.00000000000E+00  0.66049932715E+02  0.66049932907E+02  0.50400000000E-02 0. -1.
         -1   -1    0    0    0  501 -0.00000000000E+00 -0.00000000000E+00 -0.20364451862E+00  0.20370687657E+00  0.50400000000E-02 0.  1.
         31    1    1    2    0    0 -0.67398175963E-01  0.19947137700E+01  0.43899101559E+02  0.44035293155E+02  0.28271010000E+01 0. -1.
        -31    1    1    2    0    0  0.67398175963E-01 -0.19947137700E+01  0.21947186638E+02  0.22218346629E+02  0.28271010000E+01 0.  1.
<mgrwt>
<rscale>  0 0.73356060E+01</rscale>
<asrwt>0</asrwt>
<pdfrwt beam="1">  1        1 0.54783145E+00 0.73356060E+01</pdfrwt>
<pdfrwt beam="2">  1       -1 0.43294170E+00 0.73356060E+01</pdfrwt>
<totfact> 0.69902006E-03</totfact>
</mgrwt>
</event>
<event>
 4    1  0.4367748E-004  0.7991549E+01  0.7818608E-02  0.2211301E+00
         -1   -1    0    0    0  501 -0.00000000000E+00  0.00000000000E+00  0.59410271974E+02  0.59410272187E+02  0.50400000000E-02 0.  1.
          1   -1    0    0  501    0  0.00000000000E+00 -0.00000000000E+00 -0.26872118576E+00  0.26876844546E+00  0.50400000000E-02 0. -1.
         31    1    1    2    0    0  0.23171238462E+01  0.11825580481E+01  0.37772441635E+02  0.37967319547E+02  0.28271010000E+01 0. -1.
        -31    1    1    2    0    0 -0.23171238462E+01 -0.11825580481E+01  0.21369109153E+02  0.21711721085E+02  0.28271010000E+01 0. -1.
<mgrwt>
<rscale>  0 0.79915494E+01</rscale>
<asrwt>0</asrwt>
<pdfrwt beam="2">  1        1 0.57043650E+00 0.79915494E+01</pdfrwt>
<pdfrwt beam="1">  1       -1 0.49346806E+00 0.79915494E+01</pdfrwt>
<totfact> 0.21187982E-03</totfact>
</mgrwt>
</event>
<event>
 4    1  0.4367748E-004  0.6029714E+01  0.7818608E-02  0.2411572E+00
         -1   -1    0    0    0  501 -0.00000000000E+00  0.00000000000E+00  0.34469973936E+02  0.34469974304E+02  0.50400000000E-02 0.  1.
          1   -1    0    0  501    0  0.00000000000E+00 -0.00000000000E+00 -0.26366479144E+00  0.26371295729E+00  0.50400000000E-02 0. -1.
         31    1    1    2    0    0 -0.60260064853E+00 -0.85473426264E+00  0.16779179656E+02  0.17047787781E+02  0.28271010000E+01 0. -1.
        -31    1    1    2    0    0  0.60260064853E+00  0.85473426264E+00  0.17427129488E+02  0.17685899481E+02  0.28271010000E+01 0. -1.
<mgrwt>
<rscale>  0 0.60297136E+01</rscale>
<asrwt>0</asrwt>
<pdfrwt beam="2">  1        1 0.55796844E+00 0.60297136E+01</pdfrwt>
<pdfrwt beam="1">  1       -1 0.28720243E+00 0.60297136E+01</pdfrwt>
<totfact> 0.48781028E-02</totfact>
</mgrwt>
</event>
<event>
 4    1  0.4367748E-004  0.7100773E+01  0.7818608E-02  0.2290953E+00
          1   -1    0    0  501    0  0.00000000000E+00  0.00000000000E+00  0.30229590666E+02  0.30229591086E+02  0.50400000000E-02 0. -1.
         -1   -1    0    0    0  501 -0.00000000000E+00 -0.00000000000E+00 -0.41696802460E+00  0.41699848338E+00  0.50400000000E-02 0.  1.
         31    1    1    2    0    0  0.38840482015E+00 -0.10703426012E+01  0.22765910590E+02  0.22969015579E+02  0.28271010000E+01 0. -1.
        -31    1    1    2    0    0 -0.38840482015E+00  0.10703426012E+01  0.70467120511E+01  0.76775739907E+01  0.28271010000E+01 0.  1.
<mgrwt>
<rscale>  0 0.71007734E+01</rscale>
<asrwt>0</asrwt>
<pdfrwt beam="1">  1        1 0.25340744E+00 0.71007734E+01</pdfrwt>
<pdfrwt beam="2">  1       -1 0.87699340E+00 0.71007734E+01</pdfrwt>
<totfact> 0.96030677E-04</totfact>
</mgrwt>
</event>
<event>
 4    1  0.4367748E-004  0.6113124E+01  0.7818608E-02  0.2400929E+00
         -1   -1    0    0    0  501 -0.00000000000E+00  0.00000000000E+00  0.42337816144E+02  0.42337816444E+02  0.50400000000E-02 0. -1.
          1   -1    0    0  501    0  0.00000000000E+00 -0.00000000000E+00 -0.22063822467E+00  0.22069578108E+00  0.50400000000E-02 0.  1.
         31    1    1    2    0    0  0.55754062199E+00 -0.10177563535E+01  0.20653118500E+02  0.20877990405E+02  0.28271010000E+01 0.  1.
        -31    1    1    2    0    0 -0.55754062199E+00  0.10177563535E+01  0.21464059420E+02  0.21680521820E+02  0.28271010000E+01 0. -1.
<mgrwt>
<rscale>  0 0.61131242E+01</rscale>
<asrwt>0</asrwt>
<pdfrwt beam="2">  1        1 0.46806607E+00 0.61131242E+01</pdfrwt>
<pdfrwt beam="1">  1       -1 0.35190356E+00 0.61131242E+01</pdfrwt>
<totfact> 0.50166896E-02</totfact>
</mgrwt>
</event>
<event>
 4    1  0.4367748E-004  0.7340792E+01  0.7818608E-02  0.2267949E+00
          1   -1    0    0  501    0  0.00000000000E+00  0.00000000000E+00  0.67381726627E+02  0.67381726815E+02  0.50400000000E-02 0. -1.
         -1   -1    0    0    0  501 -0.00000000000E+00 -0.00000000000E+00 -0.19990071125E+00  0.19996423670E+00  0.50400000000E-02 0.  1.
         31    1    1    2    0    0 -0.10104072087E+00 -0.20837054300E+01  0.43365539440E+02  0.43507637819E+02  0.28271010000E+01 0.  1.
        -31    1    1    2    0    0  0.10104072087E+00  0.20837054300E+01  0.23816286475E+02  0.24074053233E+02  0.28271010000E+01 0. -1.
<mgrwt>
<rscale>  0 0.73407923E+01</rscale>
<asrwt>0</asrwt>
<pdfrwt beam="1">  1        1 0.55881271E+00 0.73407923E+01</pdfrwt>
<pdfrwt beam="2">  1       -1 0.42503431E+00 0.73407923E+01</pdfrwt>
<totfact> 0.70104607E-03</totfact>
</mgrwt>
</event>
<event>
 4    1  0.4367748E-004  0.6319705E+01  0.7818608E-02  0.2375582E+00
          1   -1    0    0  501    0  0.00000000000E+00  0.00000000000E+00  0.80996854635E+02  0.80996854792E+02  0.50400000000E-02 0.  1.
         -1   -1    0    0    0  501 -0.00000000000E+00 -0.00000000000E+00 -0.12322060510E+00  0.12332363570E+00  0.50400000000E-02 0. -1.
         31    1    1    2    0    0  0.19645700405E+00 -0.52099200752E+00  0.57084853077E+02  0.57157527754E+02  0.28271010000E+01 0.  1.
        -31    1    1    2    0    0 -0.19645700405E+00  0.52099200752E+00  0.23788780952E+02  0.23962650673E+02  0.28271010000E+01 0. -1.
<mgrwt>
<rscale>  0 0.63197047E+01</rscale>
<asrwt>0</asrwt>
<pdfrwt beam="1">  1        1 0.67075839E+00 0.63197047E+01</pdfrwt>
<pdfrwt beam="2">  1       -1 0.26244109E+00 0.63197047E+01</pdfrwt>
<totfact> 0.18698656E-02</totfact>
</mgrwt>
</event>
<event>
 4    1  0.4367748E-004  0.6243711E+01  0.7818608E-02  0.2384744E+00
          1   -1    0    0  501    0  0.00000000000E+00  0.00000000000E+00  0.45799455689E+02  0.45799455966E+02  0.50400000000E-02 0.  1.
         -1   -1    0    0    0  501 -0.00000000000E+00 -0.00000000000E+00 -0.21276677841E+00  0.21282646356E+00  0.50400000000E-02 0. -1.
         31    1    1    2    0    0 -0.81233911800E+00 -0.17573579216E+00  0.30390257712E+02  0.30532786342E+02  0.28271010000E+01 0.  1.
        -31    1    1    2    0    0  0.81233911800E+00  0.17573579216E+00  0.15196431198E+02  0.15479496088E+02  0.28271010000E+01 0. -1.
<mgrwt>
<rscale>  0 0.62437111E+01</rscale>
<asrwt>0</asrwt>
<pdfrwt beam="1">  1        1 0.38046174E+00 0.62437111E+01</pdfrwt>
<pdfrwt beam="2">  1       -1 0.45162606E+00 0.62437111E+01</pdfrwt>
<totfact> 0.26744861E-02</totfact>
</mgrwt>
</event>
<event>
 4    1  0.4367748E-004  0.6456094E+01  0.7818608E-02  0.2359591E+00
          1   -1    0    0  501    0  0.00000000000E+00  0.00000000000E+00  0.52814838090E+02  0.52814838330E+02  0.50400000000E-02 0.  1.
         -1   -1    0    0    0  501 -0.00000000000E+00 -0.00000000000E+00 -0.19726603802E+00  0.19733041163E+00  0.50400000000E-02 0. -1.
         31    1    1    2    0    0  0.13473169066E+00  0.12468957307E+01  0.18716727268E+02  0.18970537190E+02  0.28271010000E+01 0. -1.
        -31    1    1    2    0    0 -0.13473169066E+00 -0.12468957307E+01  0.33900844784E+02  0.34041631552E+02  0.28271010000E+01 0. -1.
<mgrwt>
<rscale>  0 0.64560937E+01</rscale>
<asrwt>0</asrwt>
<pdfrwt beam="1">  1        1 0.43834170E+00 0.64560937E+01</pdfrwt>
<pdfrwt beam="2">  1       -1 0.41911311E+00 0.64560937E+01</pdfrwt>
<totfact> 0.25575892E-02</totfact>
</mgrwt>
</event>
<event>
 4    1  0.4367748E-004  0.8011960E+01  0.7818608E-02  0.2209645E+00
          1   -1    0    0  501    0  0.00000000000E+00  0.00000000000E+00  0.79774107138E+02  0.79774107297E+02  0.50400000000E-02 0. -1.
         -1   -1    0    0    0  501 -0.00000000000E+00 -0.00000000000E+00 -0.20113473007E+00  0.20119786590E+00  0.50400000000E-02 0.  1.
         31    1    1    2    0    0 -0.25123360796E-01 -0.82025938783E+00  0.66907239807E+02  0.66971969475E+02  0.28271010000E+01 0. -1.
        -31    1    1    2    0    0  0.25123360796E-01  0.82025938783E+00  0.12665732601E+02  0.13003335689E+02  0.28271010000E+01 0.  1.
<mgrwt>
<rscale>  0 0.80119597E+01</rscale>
<asrwt>0</asrwt>
<pdfrwt beam="1">  1        1 0.66129178E+00 0.80119597E+01</pdfrwt>
<pdfrwt beam="2">  1       -1 0.42784728E+00 0.80119597E+01</pdfrwt>
<totfact> 0.20494033E-03</totfact>
</mgrwt>
</event>
<event>
 4    1  0.4367748E-004  0.6641559E+01  0.7818608E-02  0.2338722E+00
          1   -1    0    0  501    0  0.00000000000E+00  0.00000000000E+00  0.58640091762E+02  0.58640091979E+02  0.50400000000E-02 0. -1.
         -1   -1    0    0    0  501 -0.00000000000E+00 -0.00000000000E+00 -0.18802127000E+00  0.18808880767E+00  0.50400000000E-02 0.  1.
         31    1    1    2    0    0 -0.16125592635E+01 -0.65879406660E+00  0.28988296905E+02  0.29177872001E+02  0.28271010000E+01 0.  1.
        -31    1    1    2    0    0  0.16125592635E+01  0.65879406660E+00  0.29463773587E+02  0.29650308785E+02  0.28271010000E+01 0. -1.
<mgrwt>
<rscale>  0 0.66415593E+01</rscale>
<asrwt>0</asrwt>
<pdfrwt beam="1">  1        1 0.48643256E+00 0.66415593E+01</pdfrwt>
<pdfrwt beam="2">  1       -1 0.39968869E+00 0.66415593E+01</pdfrwt>
<totfact> 0.21399916E-02</totfact>
</mgrwt>
</event>
<event>
 4    1  0.4367748E-004  0.5830336E+01  0.7818608E-02  0.2438043E+00
         -1   -1    0    0    0  501 -0.00000000000E+00  0.00000000000E+00  0.57276404229E+02  0.57276404451E+02  0.50400000000E-02 0.  1.
          1   -1    0    0  501    0  0.00000000000E+00 -0.00000000000E+00 -0.14832880388E+00  0.14841440516E+00  0.50400000000E-02 0. -1.
         31    1    1    2    0    0 -0.53183775715E+00  0.85955319994E-02  0.33212866228E+02  0.33337215067E+02  0.28271010000E+01 0.  1.
        -31    1    1    2    0    0  0.53183775715E+00 -0.85955319994E-02  0.23915209198E+02  0.24087603789E+02  0.28271010000E+01 0.  1.
<mgrwt>
<rscale>  0 0.58303361E+01</rscale>
<asrwt>0</asrwt>
<pdfrwt beam="2">  1        1 0.31554021E+00 0.58303361E+01</pdfrwt>
<pdfrwt beam="1">  1       -1 0.47482858E+00 0.58303361E+01</pdfrwt>
<totfact> 0.33335215E-02</totfact>
</mgrwt>
</event>
<event>
 4    1  0.4367748E-004  0.6307457E+01  0.7818608E-02  0.2377047E+00
          1   -1    0    0  501    0  0.00000000000E+00  0.00000000000E+00  0.39050173356E+02  0.39050173681E+02  0.50400000000E-02 0. -1.
         -1   -1    0    0    0  501 -0.00000000000E+00 -0.00000000000E+00 -0.25467280445E+00  0.25472267061E+00  0.50400000000E-02 0.  1.
         31    1    1    2    0    0 -0.14565829735E-01  0.12336005623E+01  0.15304264288E+02  0.15612014219E+02  0.28271010000E+01 0.  1.
        -31    1    1    2    0    0  0.14565829735E-01 -0.12336005623E+01  0.23491236264E+02  0.23692882133E+02  0.28271010000E+01 0. -1.
<mgrwt>
<rscale>  0 0.63074570E+01</rscale>
<asrwt>0</asrwt>
<pdfrwt beam="1">  1        1 0.32500038E+00 0.63074570E+01</pdfrwt>
<pdfrwt beam="2">  1       -1 0.53954679E+00 0.63074570E+01</pdfrwt>
<totfact> 0.11101123E-02</totfact>
</mgrwt>
</event>
<event>
 4    1  0.4367748E-004  0.6402011E+01  0.7818608E-02  0.2365864E+00
         -1   -1    0    0    0  501 -0.00000000000E+00  0.00000000000E+00  0.49513802941E+02  0.49513803197E+02  0.50400000000E-02 0.  1.
          1   -1    0    0  501    0  0.00000000000E+00 -0.00000000000E+00 -0.20691006230E+00  0.20697143639E+00  0.50400000000E-02 0. -1.
         31    1    1    2    0    0  0.98666262810E+00 -0.65319316863E+00  0.17477282608E+02  0.17743958744E+02  0.28271010000E+01 0. -1.
        -31    1    1    2    0    0 -0.98666262810E+00  0.65319316863E+00  0.31829610270E+02  0.31976815890E+02  0.28271010000E+01 0.  1.
<mgrwt>
<rscale>  0 0.64020110E+01</rscale>
<asrwt>0</asrwt>
<pdfrwt beam="2">  1        1 0.43940208E+00 0.64020110E+01</pdfrwt>
<pdfrwt beam="1">  1       -1 0.41112615E+00 0.64020110E+01</pdfrwt>
<totfact> 0.28489171E-02</totfact>
</mgrwt>
</event>
<event>
 4    1  0.4367748E-004  0.9686496E+01  0.7818608E-02  0.2093281E+00
          1   -1    0    0  501    0  0.00000000000E+00  0.00000000000E+00  0.70497671528E+02  0.70497671708E+02  0.50400000000E-02 0.  1.
         -1   -1    0    0    0  501 -0.00000000000E+00 -0.00000000000E+00 -0.33271582396E+00  0.33275399489E+00  0.50400000000E-02 0. -1.
         31    1    1    2    0    0 -0.32300595954E+01 -0.77493064176E+00  0.19690599548E+02  0.20167945188E+02  0.28271010000E+01 0. -1.
        -31    1    1    2    0    0  0.32300595954E+01  0.77493064176E+00  0.50474356156E+02  0.50662480514E+02  0.28271010000E+01 0. -1.
<mgrwt>
<rscale>  0 0.96864956E+01</rscale>
<asrwt>0</asrwt>
<pdfrwt beam="1">  1        1 0.58567552E+00 0.96864956E+01</pdfrwt>
<pdfrwt beam="2">  1       -1 0.70612353E+00 0.96864956E+01</pdfrwt>
<totfact> 0.19384947E-04</totfact>
</mgrwt>
</event>
<event>
 4    1  0.4367748E-004  0.5847511E+01  0.7818608E-02  0.2435703E+00
         -1   -1    0    0    0  501 -0.00000000000E+00  0.00000000000E+00  0.47701317471E+02  0.47701317737E+02  0.50400000000E-02 0. -1.
          1   -1    0    0  501    0  0.00000000000E+00 -0.00000000000E+00 -0.17916993518E+00  0.17924080806E+00  0.50400000000E-02 0.  1.
         31    1    1    2    0    0  0.68311661435E+00 -0.24391280653E+00  0.25172278249E+02  0.25340920150E+02  0.28271010000E+01 0.  1.
        -31    1    1    2    0    0 -0.68311661435E+00  0.24391280653E+00  0.22349869287E+02  0.22539638395E+02  0.28271010000E+01 0.  1.
<mgrwt>
<rscale>  0 0.58475106E+01</rscale>
<asrwt>0</asrwt>
<pdfrwt beam="2">  1        1 0.38067118E+00 0.58475106E+01</pdfrwt>
<pdfrwt beam="1">  1       -1 0.39590996E+00 0.58475106E+01</pdfrwt>
<totfact> 0.61023394E-02</totfact>
</mgrwt>
</event>
<event>
 4    1  0.4367748E-004  0.5989918E+01  0.7818608E-02  0.2416738E+00
          1   -1    0    0  501    0  0.00000000000E+00  0.00000000000E+00  0.80888176782E+02  0.80888176939E+02  0.50400000000E-02 0. -1.
         -1   -1    0    0    0  501 -0.00000000000E+00 -0.00000000000E+00 -0.11083368615E+00  0.11094822029E+00  0.50400000000E-02 0.  1.
         31    1    1    2    0    0  0.21883863413E+00  0.86217543722E+00  0.46221321653E+02  0.46316242423E+02  0.28271010000E+01 0. -1.
        -31    1    1    2    0    0 -0.21883863413E+00 -0.86217543722E+00  0.34556021444E+02  0.34682882736E+02  0.28271010000E+01 0. -1.
<mgrwt>
<rscale>  0 0.59899181E+01</rscale>
<asrwt>0</asrwt>
<pdfrwt beam="1">  1        1 0.66975744E+00 0.59899181E+01</pdfrwt>
<pdfrwt beam="2">  1       -1 0.23611773E+00 0.59899181E+01</pdfrwt>
<totfact> 0.27305866E-02</totfact>
</mgrwt>
</event>
<event>
 4    1  0.4367748E-004  0.6584675E+01  0.7818608E-02  0.2345019E+00
         -1   -1    0    0    0  501 -0.00000000000E+00  0.00000000000E+00  0.85334904900E+02  0.85334905049E+02  0.50400000000E-02 0. -1.
          1   -1    0    0  501    0  0.00000000000E+00 -0.00000000000E+00 -0.12697273945E+00  0.12707272785E+00  0.50400000000E-02 0.  1.
         31    1    1    2    0    0 -0.34115574905E+00  0.11205005720E+01  0.58367221694E+02  0.58447386401E+02  0.28271010000E+01 0. -1.
        -31    1    1    2    0    0  0.34115574905E+00 -0.11205005720E+01  0.26840710466E+02  0.27014591376E+02  0.28271010000E+01 0.  1.
<mgrwt>
<rscale>  0 0.65846748E+01</rscale>
<asrwt>0</asrwt>
<pdfrwt beam="2">  1        1 0.27043500E+00 0.65846748E+01</pdfrwt>
<pdfrwt beam="1">  1       -1 0.70665943E+00 0.65846748E+01</pdfrwt>
<totfact> 0.41249192E-03</totfact>
</mgrwt>
</event>
<event>
 4    1  0.4367748E-004  0.8205854E+01  0.7818608E-02  0.2194248E+00
          1   -1    0    0  501    0  0.00000000000E+00  0.00000000000E+00  0.41718401949E+02  0.41718402253E+02  0.50400000000E-02 0. -1.
         -1   -1    0    0    0  501 -0.00000000000E+00 -0.00000000000E+00 -0.40349913098E+00  0.40353060640E+00  0.50400000000E-02 0.  1.
         31    1    1    2    0    0 -0.90179134094E+00  0.21755448875E+01  0.11339273051E+02  0.11921318575E+02  0.28271010000E+01 0.  1.
        -31    1    1    2    0    0  0.90179134094E+00 -0.21755448875E+01  0.29975629767E+02  0.30200614284E+02  0.28271010000E+01 0. -1.
<mgrwt>
<rscale>  0 0.82058536E+01</rscale>
<asrwt>0</asrwt>
<pdfrwt beam="1">  1        1 0.34829361E+00 0.82058536E+01</pdfrwt>
<pdfrwt beam="2">  1       -1 0.85213107E+00 0.82058536E+01</pdfrwt>
<totfact> 0.60443805E-04</totfact>
</mgrwt>
</event>
<event>
 4    1  0.4367748E-004  0.7016396E+01  0.7818608E-02  0.2299344E+00
         -1   -1    0    0    0  501 -0.00000000000E+00  0.00000000000E+00  0.47690863879E+02  0.47690864145E+02  0.50400000000E-02 0.  1.
          1   -1    0    0  501    0  0.00000000000E+00 -0.00000000000E+00 -0.25804244325E+00  0.25809165837E+00  0.50400000000E-02 0. -1.
         31    1    1    2    0    0 -0.15020425429E+01  0.11703990988E+01  0.29388861064E+02  0.29585868595E+02  0.28271010000E+01 0.  1.
        -31    1    1    2    0    0  0.15020425429E+01 -0.11703990988E+01  0.18043960372E+02  0.18363087208E+02  0.28271010000E+01 0. -1.
<mgrwt>
<rscale>  0 0.70163960E+01</rscale>
<asrwt>0</asrwt>
<pdfrwt beam="2">  1        1 0.54728835E+00 0.70163960E+01</pdfrwt>
<pdfrwt beam="1">  1       -1 0.39647551E+00 0.70163960E+01</pdfrwt>
<totfact> 0.12087553E-02</totfact>
</mgrwt>
</event>
<event>
 4    1  0.4367748E-004  0.5895192E+01  0.7818608E-02  0.2429267E+00
          1   -1    0    0  501    0  0.00000000000E+00  0.00000000000E+00  0.52183573360E+02  0.52183573604E+02  0.50400000000E-02 0. -1.
         -1   -1    0    0    0  501 -0.00000000000E+00 -0.00000000000E+00 -0.16645696063E+00  0.16653324396E+00  0.50400000000E-02 0.  1.
         31    1    1    2    0    0 -0.60429442386E+00  0.51108535633E+00  0.28348639168E+02  0.28500249521E+02  0.28271010000E+01 0.  1.
        -31    1    1    2    0    0  0.60429442386E+00 -0.51108535633E+00  0.23668477232E+02  0.23849857327E+02  0.28271010000E+01 0.  1.
<mgrwt>
<rscale>  0 0.58951920E+01</rscale>
<asrwt>0</asrwt>
<pdfrwt beam="1">  1        1 0.43286731E+00 0.58951920E+01</pdfrwt>
<pdfrwt beam="2">  1       -1 0.35387143E+00 0.58951920E+01</pdfrwt>
<totfact> 0.68100289E-02</totfact>
</mgrwt>
</event>
<event>
 4    1  0.4367748E-004  0.5918732E+01  0.7818608E-02  0.2426122E+00
         -1   -1    0    0    0  501 -0.00000000000E+00  0.00000000000E+00  0.43283515498E+02  0.43283515792E+02  0.50400000000E-02 0. -1.
          1   -1    0    0  501    0  0.00000000000E+00 -0.00000000000E+00 -0.20230509914E+00  0.20236786983E+00  0.50400000000E-02 0.  1.
         31    1    1    2    0    0 -0.67980766581E+00  0.16593661220E+00  0.25398205430E+02  0.25564643798E+02  0.28271010000E+01 0.  1.
        -31    1    1    2    0    0  0.67980766581E+00 -0.16593661220E+00  0.17683004970E+02  0.17921239863E+02  0.28271010000E+01 0.  1.
<mgrwt>
<rscale>  0 0.59187320E+01</rscale>
<asrwt>0</asrwt>
<pdfrwt beam="2">  1        1 0.42941402E+00 0.59187320E+01</pdfrwt>
<pdfrwt beam="1">  1       -1 0.35957171E+00 0.59187320E+01</pdfrwt>
<totfact> 0.65032889E-02</totfact>
</mgrwt>
</event>
