<event>
 4    1 -0.5021037E-019  0.1492945E+02  0.7818608E-02  0.1870229E+00
         -2   -1    0    0    0  501 -0.00000000000E+00  0.00000000000E+00  0.11995253399E+03  0.11995253401E+03  0.25500000000E-02 0.  1.
          2   -1    0    0  501    0  0.00000000000E+00 -0.00000000000E+00 -0.46453125543E+00  0.46453825437E+00  0.25500000000E-02 0. -1.
         31    1    1    2    0    0  0.35086550180E+00 -0.33676101283E+00  0.61061549299E+02  0.61515918618E+02  0.74470750000E+01 0. -1.
        -31    1    1    2    0    0 -0.35086550180E+00  0.33676101283E+00  0.58426453433E+02  0.58901153651E+02  0.74470750000E+01 0.  1.
<mgrwt>
<rscale>  0 0.14929451E+02</rscale>
<asrwt>0</asrwt>
<pdfrwt beam="2">  1        2 0.98665826E+00 0.14929451E+02</pdfrwt>
<pdfrwt beam="1">  1       -2 0.99569261E+00 0.14929451E+02</pdfrwt>
<totfact>-0.25924124E-13</totfact>
</mgrwt>
</event>
<event>
 4    1  0.5021037E-019  0.1489991E+02  0.7818608E-02  0.1871138E+00
          2   -1    0    0  501    0  0.00000000000E+00  0.00000000000E+00  0.12002766767E+03  0.12002766770E+03  0.25500000000E-02 0.  1.
         -2   -1    0    0    0  501 -0.00000000000E+00 -0.00000000000E+00 -0.46240535386E+00  0.46241238497E+00  0.25500000000E-02 0. -1.
         31    1    1    2    0    0  0.86470203088E-01 -0.52705770436E-01  0.58320754812E+02  0.58794384281E+02  0.74470750000E+01 0. -1.
        -31    1    1    2    0    0 -0.86470203088E-01  0.52705770436E-01  0.61244507507E+02  0.61695695804E+02  0.74470750000E+01 0.  1.
<mgrwt>
<rscale>  0 0.14899914E+02</rscale>
<asrwt>0</asrwt>
<pdfrwt beam="1">  1        2 0.99629628E+00 0.14899914E+02</pdfrwt>
<pdfrwt beam="2">  1       -2 0.98216265E+00 0.14899914E+02</pdfrwt>
<totfact> 0.80283516E-13</totfact>
</mgrwt>
</event>
<event>
 4    1  0.5021037E-019  0.1490620E+02  0.7818608E-02  0.1870944E+00
          2   -1    0    0  501    0  0.00000000000E+00  0.00000000000E+00  0.12010018226E+03  0.12010018229E+03  0.25500000000E-02 0. -1.
         -2   -1    0    0    0  501 -0.00000000000E+00 -0.00000000000E+00 -0.46251613982E+00  0.46252316925E+00  0.25500000000E-02 0.  1.
         31    1    1    2    0    0  0.28442004843E+00  0.45746054817E-01  0.59152630361E+02  0.59620261591E+02  0.74470750000E+01 0. -1.
        -31    1    1    2    0    0 -0.28442004843E+00 -0.45746054817E-01  0.60485035758E+02  0.60942443864E+02  0.74470750000E+01 0. -1.
<mgrwt>
<rscale>  0 0.14906200E+02</rscale>
<asrwt>0</asrwt>
<pdfrwt beam="1">  1        2 0.99689680E+00 0.14906200E+02</pdfrwt>
<pdfrwt beam="2">  1       -2 0.98239933E+00 0.14906200E+02</pdfrwt>
<totfact> 0.68346829E-13</totfact>
</mgrwt>
</event>
<event>
 4    1 -0.5021037E-019  0.1493800E+02  0.7818608E-02  0.1869966E+00
         -2   -1    0    0    0  501 -0.00000000000E+00  0.00000000000E+00  0.12034519200E+03  0.12034519203E+03  0.25500000000E-02 0. -1.
          2   -1    0    0  501    0  0.00000000000E+00 -0.00000000000E+00 -0.46354609676E+00  0.46355311057E+00  0.25500000000E-02 0.  1.
         31    1    1    2    0    0  0.12103982482E+00 -0.10965566435E-01  0.64460138529E+02  0.64889006435E+02  0.74470750000E+01 0. -1.
        -31    1    1    2    0    0 -0.12103982482E+00  0.10965566435E-01  0.55421507375E+02  0.55919738704E+02  0.74470750000E+01 0.  1.
<mgrwt>
<rscale>  0 0.14938001E+02</rscale>
<asrwt>0</asrwt>
<pdfrwt beam="2">  1        2 0.98458625E+00 0.14938001E+02</pdfrwt>
<pdfrwt beam="1">  1       -2 0.99893123E+00 0.14938001E+02</pdfrwt>
<totfact>-0.12829248E-13</totfact>
</mgrwt>
</event>
<event>
 4    1  0.5021037E-019  0.1496767E+02  0.7818608E-02  0.1869057E+00
         -2   -1    0    0    0  501 -0.00000000000E+00  0.00000000000E+00  0.11900569905E+03  0.11900569908E+03  0.25500000000E-02 0. -1.
          2   -1    0    0  501    0  0.00000000000E+00 -0.00000000000E+00 -0.47062740340E+00  0.47063431168E+00  0.25500000000E-02 0.  1.
         31    1    1    2    0    0 -0.12047733169E+00  0.37624725719E-01  0.65094616918E+02  0.65519340718E+02  0.74470750000E+01 0. -1.
        -31    1    1    2    0    0  0.12047733169E+00 -0.37624725719E-01  0.53440454729E+02  0.53956992671E+02  0.74470750000E+01 0.  1.
<mgrwt>
<rscale>  0 0.14967666E+02</rscale>
<asrwt>0</asrwt>
<pdfrwt beam="2">  1        2 0.99952453E+00 0.14967666E+02</pdfrwt>
<pdfrwt beam="1">  1       -2 0.98791392E+00 0.14967666E+02</pdfrwt>
<totfact> 0.24553717E-14</totfact>
</mgrwt>
</event>
<event>
 4    1 -0.5021037E-019  0.1496777E+02  0.7818608E-02  0.1869054E+00
         -2   -1    0    0    0  501 -0.00000000000E+00  0.00000000000E+00  0.12020626421E+03  0.12020626423E+03  0.25500000000E-02 0.  1.
          2   -1    0    0  501    0  0.00000000000E+00 -0.00000000000E+00 -0.46593346283E+00  0.46594044070E+00  0.25500000000E-02 0. -1.
         31    1    1    2    0    0  0.63259516352E+00 -0.38605533812E+00  0.60031843658E+02  0.60496532086E+02  0.74470750000E+01 0. -1.
        -31    1    1    2    0    0 -0.63259516352E+00  0.38605533812E+00  0.59708487084E+02  0.60175672587E+02  0.74470750000E+01 0. -1.
<mgrwt>
<rscale>  0 0.14967771E+02</rscale>
<asrwt>0</asrwt>
<pdfrwt beam="2">  1        2 0.98963305E+00 0.14967771E+02</pdfrwt>
<pdfrwt beam="1">  1       -2 0.99780222E+00 0.14967771E+02</pdfrwt>
<totfact>-0.11856809E-13</totfact>
</mgrwt>
</event>
<event>
 4    1  0.5021037E-019  0.1491621E+02  0.7818608E-02  0.1870636E+00
          2   -1    0    0  501    0  0.00000000000E+00  0.00000000000E+00  0.12026682502E+03  0.12026682505E+03  0.25500000000E-02 0.  1.
         -2   -1    0    0    0  501 -0.00000000000E+00 -0.00000000000E+00 -0.46249571010E+00  0.46250273984E+00  0.25500000000E-02 0. -1.
         31    1    1    2    0    0 -0.24725372578E+00 -0.17393661091E+00  0.62089031594E+02  0.62534775595E+02  0.74470750000E+01 0.  1.
        -31    1    1    2    0    0  0.24725372578E+00  0.17393661091E+00  0.57715297714E+02  0.58194552191E+02  0.74470750000E+01 0.  1.
<mgrwt>
<rscale>  0 0.14916208E+02</rscale>
<asrwt>0</asrwt>
<pdfrwt beam="1">  1        2 0.99827455E+00 0.14916208E+02</pdfrwt>
<pdfrwt beam="2">  1       -2 0.98236132E+00 0.14916208E+02</pdfrwt>
<totfact> 0.44558698E-13</totfact>
</mgrwt>
</event>
<event>
 4    1 -0.5021037E-019  0.1501841E+02  0.7818608E-02  0.1867507E+00
          2   -1    0    0  501    0  0.00000000000E+00  0.00000000000E+00  0.12011364538E+03  0.12011364540E+03  0.25500000000E-02 0. -1.
         -2   -1    0    0    0  501 -0.00000000000E+00 -0.00000000000E+00 -0.46945346668E+00  0.46946039224E+00  0.25500000000E-02 0.  1.
         31    1    1    2    0    0  0.55778725935E+00 -0.34048866875E+00  0.65511951938E+02  0.65937105122E+02  0.74470750000E+01 0. -1.
        -31    1    1    2    0    0 -0.55778725935E+00  0.34048866875E+00  0.54132239973E+02  0.54646000675E+02  0.74470750000E+01 0.  1.
<mgrwt>
<rscale>  0 0.15018414E+02</rscale>
<asrwt>0</asrwt>
<pdfrwt beam="1">  1        2 0.99706549E+00 0.15018414E+02</pdfrwt>
<pdfrwt beam="2">  1       -2 0.99707728E+00 0.15018414E+02</pdfrwt>
<totfact>-0.68322878E-14</totfact>
</mgrwt>
</event>
<event>
 4    1  0.5021037E-019  0.1493167E+02  0.7818608E-02  0.1870161E+00
          2   -1    0    0  501    0  0.00000000000E+00  0.00000000000E+00  0.11998228073E+03  0.11998228076E+03  0.25500000000E-02 0. -1.
         -2   -1    0    0    0  501 -0.00000000000E+00 -0.00000000000E+00 -0.46455403218E+00  0.46456103078E+00  0.25500000000E-02 0.  1.
         31    1    1    2    0    0  0.15033339442E+00 -0.33592763486E+00  0.56694621396E+02  0.57182816202E+02  0.74470750000E+01 0. -1.
        -31    1    1    2    0    0 -0.15033339442E+00  0.33592763486E+00  0.62823105303E+02  0.63264025587E+02  0.74470750000E+01 0. -1.
<mgrwt>
<rscale>  0 0.14931668E+02</rscale>
<asrwt>0</asrwt>
<pdfrwt beam="1">  1        2 0.99593876E+00 0.14931668E+02</pdfrwt>
<pdfrwt beam="2">  1       -2 0.98670740E+00 0.14931668E+02</pdfrwt>
<totfact> 0.24678860E-13</totfact>
</mgrwt>
</event>
<event>
 4    1 -0.5021037E-019  0.1491656E+02  0.7818608E-02  0.1870625E+00
         -2   -1    0    0    0  501 -0.00000000000E+00  0.00000000000E+00  0.12013836083E+03  0.12013836086E+03  0.25500000000E-02 0.  1.
          2   -1    0    0  501    0  0.00000000000E+00 -0.00000000000E+00 -0.46301236571E+00  0.46301938760E+00  0.25500000000E-02 0. -1.
         31    1    1    2    0    0  0.25582869429E+00  0.17128131880E+00  0.57664309538E+02  0.58144013502E+02  0.74470750000E+01 0.  1.
        -31    1    1    2    0    0 -0.25582869429E+00 -0.17128131880E+00  0.62011038927E+02  0.62457366743E+02  0.74470750000E+01 0.  1.
<mgrwt>
<rscale>  0 0.14916564E+02</rscale>
<asrwt>0</asrwt>
<pdfrwt beam="2">  1        2 0.98345046E+00 0.14916564E+02</pdfrwt>
<pdfrwt beam="1">  1       -2 0.99721659E+00 0.14916564E+02</pdfrwt>
<totfact>-0.34190067E-13</totfact>
</mgrwt>
</event>
<event>
 4    1 -0.5021037E-019  0.1503104E+02  0.7818608E-02  0.1867123E+00
         -2   -1    0    0    0  501 -0.00000000000E+00  0.00000000000E+00  0.12026173128E+03  0.12026173131E+03  0.25500000000E-02 0. -1.
          2   -1    0    0  501    0  0.00000000000E+00 -0.00000000000E+00 -0.46966430381E+00  0.46967122625E+00  0.25500000000E-02 0.  1.
         31    1    1    2    0    0  0.92626457830E+00  0.29916600039E-01  0.63161417773E+02  0.63605679638E+02  0.74470750000E+01 0. -1.
        -31    1    1    2    0    0 -0.92626457830E+00 -0.29916600039E-01  0.56630649207E+02  0.57125722899E+02  0.74470750000E+01 0.  1.
<mgrwt>
<rscale>  0 0.15031043E+02</rscale>
<asrwt>0</asrwt>
<pdfrwt beam="2">  1        2 0.99752811E+00 0.15031043E+02</pdfrwt>
<pdfrwt beam="1">  1       -2 0.99829171E+00 0.15031043E+02</pdfrwt>
<totfact>-0.40134654E-14</totfact>
</mgrwt>
</event>
<event>
 4    1 -0.5021037E-019  0.1502740E+02  0.7818608E-02  0.1867234E+00
          2   -1    0    0  501    0  0.00000000000E+00  0.00000000000E+00  0.12039096340E+03  0.12039096342E+03  0.25500000000E-02 0.  1.
         -2   -1    0    0    0  501 -0.00000000000E+00 -0.00000000000E+00 -0.46893263085E+00  0.46893956410E+00  0.25500000000E-02 0. -1.
         31    1    1    2    0    0 -0.31573502724E+00  0.92754298872E+00  0.61502206751E+02  0.61959183225E+02  0.74470750000E+01 0.  1.
        -31    1    1    2    0    0  0.31573502724E+00 -0.92754298872E+00  0.58419824016E+02  0.58900719764E+02  0.74470750000E+01 0. -1.
<mgrwt>
<rscale>  0 0.15027398E+02</rscale>
<asrwt>0</asrwt>
<pdfrwt beam="1">  1        2 0.99935424E+00 0.15027398E+02</pdfrwt>
<pdfrwt beam="2">  1       -2 0.99598431E+00 0.15027398E+02</pdfrwt>
<totfact>-0.23096289E-14</totfact>
</mgrwt>
</event>
<event>
 4    1  0.5021037E-019  0.1494040E+02  0.7818608E-02  0.1869893E+00
          2   -1    0    0  501    0  0.00000000000E+00  0.00000000000E+00  0.11994924558E+03  0.11994924560E+03  0.25500000000E-02 0. -1.
         -2   -1    0    0    0  501 -0.00000000000E+00 -0.00000000000E+00 -0.46522574948E+00  0.46523273797E+00  0.25500000000E-02 0.  1.
         31    1    1    2    0    0  0.62398498846E-01  0.43906559486E+00  0.56638238691E+02  0.57127451197E+02  0.74470750000E+01 0.  1.
        -31    1    1    2    0    0 -0.62398498846E-01 -0.43906559486E+00  0.62845781136E+02  0.63287027144E+02  0.74470750000E+01 0. -1.
<mgrwt>
<rscale>  0 0.14940402E+02</rscale>
<asrwt>0</asrwt>
<pdfrwt beam="1">  1        2 0.99567116E+00 0.14940402E+02</pdfrwt>
<pdfrwt beam="2">  1       -2 0.98812753E+00 0.14940402E+02</pdfrwt>
<totfact> 0.12995733E-13</totfact>
</mgrwt>
</event>
<event>
 4    1  0.5021037E-019  0.1492876E+02  0.7818608E-02  0.1870250E+00
          2   -1    0    0  501    0  0.00000000000E+00  0.00000000000E+00  0.11973296151E+03  0.11973296154E+03  0.25500000000E-02 0.  1.
         -2   -1    0    0    0  501 -0.00000000000E+00 -0.00000000000E+00 -0.46534022853E+00  0.46534721530E+00  0.25500000000E-02 0. -1.
         31    1    1    2    0    0 -0.37113099944E+00 -0.96831637504E-01  0.56952003327E+02  0.57438112118E+02  0.74470750000E+01 0. -1.
        -31    1    1    2    0    0  0.37113099944E+00  0.96831637504E-01  0.62315617959E+02  0.62760196639E+02  0.74470750000E+01 0.  1.
<mgrwt>
<rscale>  0 0.14928762E+02</rscale>
<asrwt>0</asrwt>
<pdfrwt beam="1">  1        2 0.99388372E+00 0.14928762E+02</pdfrwt>
<pdfrwt beam="2">  1       -2 0.98836284E+00 0.14928762E+02</pdfrwt>
<totfact> 0.13364435E-13</totfact>
</mgrwt>
</event>
<event>
 4    1  0.5021037E-019  0.1491207E+02  0.7818608E-02  0.1870764E+00
         -2   -1    0    0    0  501 -0.00000000000E+00  0.00000000000E+00  0.11864245410E+03  0.11864245413E+03  0.25500000000E-02 0. -1.
          2   -1    0    0  501    0  0.00000000000E+00 -0.00000000000E+00 -0.46856762759E+00  0.46857456624E+00  0.25500000000E-02 0.  1.
         31    1    1    2    0    0  0.33517203011E+00  0.12757764902E+00  0.58528629531E+02  0.59001593345E+02  0.74470750000E+01 0. -1.
        -31    1    1    2    0    0 -0.33517203011E+00 -0.12757764902E+00  0.59645256946E+02  0.60109435353E+02  0.74470750000E+01 0.  1.
<mgrwt>
<rscale>  0 0.14912066E+02</rscale>
<asrwt>0</asrwt>
<pdfrwt beam="2">  1        2 0.99515522E+00 0.14912066E+02</pdfrwt>
<pdfrwt beam="1">  1       -2 0.98489332E+00 0.14912066E+02</pdfrwt>
<totfact> 0.49140303E-13</totfact>
</mgrwt>
</event>
<event>
 4    1 -0.5021037E-019  0.1492698E+02  0.7818608E-02  0.1870305E+00
          2   -1    0    0  501    0  0.00000000000E+00  0.00000000000E+00  0.11880092214E+03  0.11880092217E+03  0.25500000000E-02 0.  1.
         -2   -1    0    0    0  501 -0.00000000000E+00 -0.00000000000E+00 -0.46887880207E+00  0.46888573611E+00  0.25500000000E-02 0. -1.
         31    1    1    2    0    0  0.71526135963E-01 -0.47384491495E+00  0.58184877573E+02  0.58661474149E+02  0.74470750000E+01 0. -1.
        -31    1    1    2    0    0 -0.71526135963E-01  0.47384491495E+00  0.60147165767E+02  0.60608333757E+02  0.74470750000E+01 0.  1.
<mgrwt>
<rscale>  0 0.14926975E+02</rscale>
<asrwt>0</asrwt>
<pdfrwt beam="1">  1        2 0.98620622E+00 0.14926975E+02</pdfrwt>
<pdfrwt beam="2">  1       -2 0.99581872E+00 0.14926975E+02</pdfrwt>
<totfact>-0.27436044E-13</totfact>
</mgrwt>
</event>
<event>
 4    1 -0.5021037E-019  0.1495643E+02  0.7818608E-02  0.1869401E+00
         -2   -1    0    0    0  501 -0.00000000000E+00  0.00000000000E+00  0.11955551683E+03  0.11955551685E+03  0.25500000000E-02 0. -1.
          2   -1    0    0  501    0  0.00000000000E+00 -0.00000000000E+00 -0.46776009559E+00  0.46776704622E+00  0.25500000000E-02 0.  1.
         31    1    1    2    0    0  0.74031878309E-01  0.67755734700E+00  0.59665050287E+02  0.60131869391E+02  0.74470750000E+01 0. -1.
        -31    1    1    2    0    0 -0.74031878309E-01 -0.67755734700E+00  0.59422706445E+02  0.59891414510E+02  0.74470750000E+01 0.  1.
<mgrwt>
<rscale>  0 0.14956433E+02</rscale>
<asrwt>0</asrwt>
<pdfrwt beam="2">  1        2 0.99347672E+00 0.14956433E+02</pdfrwt>
<pdfrwt beam="1">  1       -2 0.99243649E+00 0.14956433E+02</pdfrwt>
<totfact>-0.10380459E-13</totfact>
</mgrwt>
</event>
<event>
 4    1 -0.5021037E-019  0.1493599E+02  0.7818608E-02  0.1870028E+00
         -2   -1    0    0    0  501 -0.00000000000E+00  0.00000000000E+00  0.11975804834E+03  0.11975804836E+03  0.25500000000E-02 0.  1.
          2   -1    0    0  501    0  0.00000000000E+00 -0.00000000000E+00 -0.46569334721E+00  0.46570032869E+00  0.25500000000E-02 0. -1.
         31    1    1    2    0    0 -0.43084431583E+00 -0.17883992973E+00  0.57172928984E+02  0.57657786510E+02  0.74470750000E+01 0.  1.
        -31    1    1    2    0    0  0.43084431583E+00  0.17883992973E+00  0.62119426007E+02  0.62565962184E+02  0.74470750000E+01 0.  1.
<mgrwt>
<rscale>  0 0.14935990E+02</rscale>
<asrwt>0</asrwt>
<pdfrwt beam="2">  1        2 0.98911074E+00 0.14935990E+02</pdfrwt>
<pdfrwt beam="1">  1       -2 0.99409407E+00 0.14935990E+02</pdfrwt>
<totfact>-0.19254701E-13</totfact>
</mgrwt>
</event>
<event>
 4    1 -0.5021037E-019  0.1491203E+02  0.7818608E-02  0.1870765E+00
         -2   -1    0    0    0  501 -0.00000000000E+00  0.00000000000E+00  0.11996821493E+03  0.11996821496E+03  0.25500000000E-02 0. -1.
          2   -1    0    0  501    0  0.00000000000E+00 -0.00000000000E+00 -0.46338719904E+00  0.46339421526E+00  0.25500000000E-02 0.  1.
         31    1    1    2    0    0 -0.30573923085E+00 -0.19170584117E+00  0.59309656774E+02  0.59776454732E+02  0.74470750000E+01 0.  1.
        -31    1    1    2    0    0  0.30573923085E+00  0.19170584117E+00  0.60195170958E+02  0.60655154442E+02  0.74470750000E+01 0.  1.
<mgrwt>
<rscale>  0 0.14912030E+02</rscale>
<asrwt>0</asrwt>
<pdfrwt beam="2">  1        2 0.98423819E+00 0.14912030E+02</pdfrwt>
<pdfrwt beam="1">  1       -2 0.99581281E+00 0.14912030E+02</pdfrwt>
<totfact>-0.37604220E-13</totfact>
</mgrwt>
</event>
<event>
 4    1  0.5021037E-019  0.1492986E+02  0.7818608E-02  0.1870217E+00
          2   -1    0    0  501    0  0.00000000000E+00  0.00000000000E+00  0.12036388795E+03  0.12036388798E+03  0.25500000000E-02 0.  1.
         -2   -1    0    0    0  501 -0.00000000000E+00 -0.00000000000E+00 -0.46296880928E+00  0.46297583184E+00  0.25500000000E-02 0. -1.
         31    1    1    2    0    0  0.11826823110E+00  0.49781283275E+00  0.59412369871E+02  0.59879465802E+02  0.74470750000E+01 0. -1.
        -31    1    1    2    0    0 -0.11826823110E+00 -0.49781283275E+00  0.60488549269E+02  0.60947398006E+02  0.74470750000E+01 0.  1.
<mgrwt>
<rscale>  0 0.14929856E+02</rscale>
<asrwt>0</asrwt>
<pdfrwt beam="1">  1        2 0.99908105E+00 0.14929856E+02</pdfrwt>
<pdfrwt beam="2">  1       -2 0.98336538E+00 0.14929856E+02</pdfrwt>
<totfact> 0.20873036E-13</totfact>
</mgrwt>
</event>
<event>
 4    1 -0.5021037E-019  0.1493152E+02  0.7818608E-02  0.1870165E+00
         -2   -1    0    0    0  501 -0.00000000000E+00  0.00000000000E+00  0.12025752864E+03  0.12025752867E+03  0.25500000000E-02 0. -1.
          2   -1    0    0  501    0  0.00000000000E+00 -0.00000000000E+00 -0.46348170128E+00  0.46348871607E+00  0.25500000000E-02 0.  1.
         31    1    1    2    0    0  0.22821555488E+00  0.45876342049E+00  0.58870621510E+02  0.59341988079E+02  0.74470750000E+01 0.  1.
        -31    1    1    2    0    0 -0.22821555488E+00 -0.45876342049E+00  0.60923425434E+02  0.61379029308E+02  0.74470750000E+01 0. -1.
<mgrwt>
<rscale>  0 0.14931522E+02</rscale>
<asrwt>0</asrwt>
<pdfrwt beam="2">  1        2 0.98444725E+00 0.14931522E+02</pdfrwt>
<pdfrwt beam="1">  1       -2 0.99820584E+00 0.14931522E+02</pdfrwt>
<totfact>-0.20661669E-13</totfact>
</mgrwt>
</event>
<event>
 4    1 -0.5021037E-019  0.1494995E+02  0.7818608E-02  0.1869600E+00
          2   -1    0    0  501    0  0.00000000000E+00  0.00000000000E+00  0.11907726857E+03  0.11907726859E+03  0.25500000000E-02 0.  1.
         -2   -1    0    0    0  501 -0.00000000000E+00 -0.00000000000E+00 -0.46923195126E+00  0.46923888009E+00  0.25500000000E-02 0. -1.
         31    1    1    2    0    0  0.39560367470E+00 -0.46728406396E+00  0.60932864352E+02  0.61389312921E+02  0.74470750000E+01 0.  1.
        -31    1    1    2    0    0 -0.39560367470E+00  0.46728406396E+00  0.57675172263E+02  0.58157194553E+02  0.74470750000E+01 0. -1.
<mgrwt>
<rscale>  0 0.14949953E+02</rscale>
<asrwt>0</asrwt>
<pdfrwt beam="1">  1        2 0.98849417E+00 0.14949953E+02</pdfrwt>
<pdfrwt beam="2">  1       -2 0.99657488E+00 0.14949953E+02</pdfrwt>
<totfact>-0.18230140E-13</totfact>
</mgrwt>
</event>
<event>
 4    1 -0.5021037E-019  0.1491243E+02  0.7818608E-02  0.1870753E+00
         -2   -1    0    0    0  501 -0.00000000000E+00  0.00000000000E+00  0.12031507546E+03  0.12031507549E+03  0.25500000000E-02 0.  1.
          2   -1    0    0  501    0  0.00000000000E+00 -0.00000000000E+00 -0.46207592197E+00  0.46208295810E+00  0.25500000000E-02 0. -1.
         31    1    1    2    0    0  0.89905962682E-01 -0.35788058417E+00  0.59876373862E+02  0.60338836868E+02  0.74470750000E+01 0.  1.
        -31    1    1    2    0    0 -0.89905962682E-01  0.35788058417E+00  0.59976625679E+02  0.60438321580E+02  0.74470750000E+01 0.  1.
<mgrwt>
<rscale>  0 0.14912428E+02</rscale>
<asrwt>0</asrwt>
<pdfrwt beam="2">  1        2 0.98147461E+00 0.14912428E+02</pdfrwt>
<pdfrwt beam="1">  1       -2 0.99867005E+00 0.14912428E+02</pdfrwt>
<totfact>-0.26336262E-13</totfact>
</mgrwt>
</event>
<event>
 4    1 -0.5021037E-019  0.1496430E+02  0.7818608E-02  0.1869160E+00
          2   -1    0    0  501    0  0.00000000000E+00  0.00000000000E+00  0.11971168944E+03  0.11971168946E+03  0.25500000000E-02 0.  1.
         -2   -1    0    0    0  501 -0.00000000000E+00 -0.00000000000E+00 -0.46764176430E+00  0.46764871668E+00  0.25500000000E-02 0. -1.
         31    1    1    2    0    0  0.18463489113E-01 -0.69953576289E+00  0.58141433610E+02  0.58620601493E+02  0.74470750000E+01 0. -1.
        -31    1    1    2    0    0 -0.18463489113E-01  0.69953576289E+00  0.61102614064E+02  0.61558736688E+02  0.74470750000E+01 0.  1.
<mgrwt>
<rscale>  0 0.14964305E+02</rscale>
<asrwt>0</asrwt>
<pdfrwt beam="1">  1        2 0.99372685E+00 0.14964305E+02</pdfrwt>
<pdfrwt beam="2">  1       -2 0.99323143E+00 0.14964305E+02</pdfrwt>
<totfact>-0.12032480E-13</totfact>
</mgrwt>
</event>
<event>
 4    1 -0.5021037E-019  0.1500043E+02  0.7818608E-02  0.1868055E+00
         -2   -1    0    0    0  501 -0.00000000000E+00  0.00000000000E+00  0.11993236241E+03  0.11993236243E+03  0.25500000000E-02 0.  1.
          2   -1    0    0  501    0  0.00000000000E+00 -0.00000000000E+00 -0.46903791624E+00  0.46904484793E+00  0.25500000000E-02 0. -1.
         31    1    1    2    0    0 -0.23609439035E-01  0.12100514608E+00  0.66816494270E+02  0.67230335654E+02  0.74470750000E+01 0.  1.
        -31    1    1    2    0    0  0.23609439035E-01 -0.12100514608E+00  0.52646830219E+02  0.53171071626E+02  0.74470750000E+01 0. -1.
<mgrwt>
<rscale>  0 0.15000433E+02</rscale>
<asrwt>0</asrwt>
<pdfrwt beam="2">  1        2 0.99619227E+00 0.15000433E+02</pdfrwt>
<pdfrwt beam="1">  1       -2 0.99556308E+00 0.15000433E+02</pdfrwt>
<totfact>-0.99956029E-14</totfact>
</mgrwt>
</event>
<event>
 4    1  0.5021037E-019  0.1493079E+02  0.7818608E-02  0.1870188E+00
          2   -1    0    0  501    0  0.00000000000E+00  0.00000000000E+00  0.12038055422E+03  0.12038055424E+03  0.25500000000E-02 0.  1.
         -2   -1    0    0    0  501 -0.00000000000E+00 -0.00000000000E+00 -0.46296272486E+00  0.46296974752E+00  0.25500000000E-02 0. -1.
         31    1    1    2    0    0 -0.45190376639E-01  0.63968096313E-01  0.55776089795E+02  0.56271104956E+02  0.74470750000E+01 0. -1.
        -31    1    1    2    0    0  0.45190376639E-01 -0.63968096313E-01  0.64141501698E+02  0.64572419036E+02  0.74470750000E+01 0.  1.
<mgrwt>
<rscale>  0 0.14930792E+02</rscale>
<asrwt>0</asrwt>
<pdfrwt beam="1">  1        2 0.99921881E+00 0.14930792E+02</pdfrwt>
<pdfrwt beam="2">  1       -2 0.98335303E+00 0.14930792E+02</pdfrwt>
<totfact> 0.18067697E-13</totfact>
</mgrwt>
</event>
<event>
 4    1 -0.5021037E-019  0.1493791E+02  0.7818608E-02  0.1869969E+00
         -2   -1    0    0    0  501 -0.00000000000E+00  0.00000000000E+00  0.12033487138E+03  0.12033487140E+03  0.25500000000E-02 0. -1.
          2   -1    0    0  501    0  0.00000000000E+00 -0.00000000000E+00 -0.46358008987E+00  0.46358710317E+00  0.25500000000E-02 0.  1.
         31    1    1    2    0    0 -0.57084926156E+00 -0.12660197183E-01  0.59790873087E+02  0.60255567873E+02  0.74470750000E+01 0. -1.
        -31    1    1    2    0    0  0.57084926156E+00  0.12660197183E-01  0.60080418200E+02  0.60542890634E+02  0.74470750000E+01 0. -1.
<mgrwt>
<rscale>  0 0.14937908E+02</rscale>
<asrwt>0</asrwt>
<pdfrwt beam="2">  1        2 0.98465785E+00 0.14937908E+02</pdfrwt>
<pdfrwt beam="1">  1       -2 0.99884617E+00 0.14937908E+02</pdfrwt>
<totfact>-0.13590868E-13</totfact>
</mgrwt>
</event>
<event>
 4    1 -0.5021037E-019  0.1491040E+02  0.7818608E-02  0.1870815E+00
         -2   -1    0    0    0  501 -0.00000000000E+00  0.00000000000E+00  0.11967764735E+03  0.11967764737E+03  0.25500000000E-02 0. -1.
          2   -1    0    0  501    0  0.00000000000E+00 -0.00000000000E+00 -0.46441090318E+00  0.46441790393E+00  0.25500000000E-02 0.  1.
         31    1    1    2    0    0  0.15086000188E+00  0.20731483729E+00  0.57710730929E+02  0.58189802617E+02  0.74470750000E+01 0.  1.
        -31    1    1    2    0    0 -0.15086000188E+00 -0.20731483729E+00  0.61502505513E+02  0.61952262659E+02  0.74470750000E+01 0.  1.
<mgrwt>
<rscale>  0 0.14910403E+02</rscale>
<asrwt>0</asrwt>
<pdfrwt beam="2">  1        2 0.98639489E+00 0.14910403E+02</pdfrwt>
<pdfrwt beam="1">  1       -2 0.99341865E+00 0.14910403E+02</pdfrwt>
<totfact>-0.25839289E-13</totfact>
</mgrwt>
</event>
<event>
 4    1 -0.5021037E-019  0.1496200E+02  0.7818608E-02  0.1869230E+00
          2   -1    0    0  501    0  0.00000000000E+00  0.00000000000E+00  0.11936969402E+03  0.11936969405E+03  0.25500000000E-02 0.  1.
         -2   -1    0    0    0  501 -0.00000000000E+00 -0.00000000000E+00 -0.46883681669E+00  0.46884375135E+00  0.25500000000E-02 0. -1.
         31    1    1    2    0    0  0.30687495412E+00  0.18171957245E+00  0.54518195797E+02  0.55025628513E+02  0.74470750000E+01 0. -1.
        -31    1    1    2    0    0 -0.30687495412E+00 -0.18171957245E+00  0.64382661407E+02  0.64812909287E+02  0.74470750000E+01 0.  1.
<mgrwt>
<rscale>  0 0.14961995E+02</rscale>
<asrwt>0</asrwt>
<pdfrwt beam="1">  1        2 0.99090888E+00 0.14961995E+02</pdfrwt>
<pdfrwt beam="2">  1       -2 0.99574855E+00 0.14961995E+02</pdfrwt>
<totfact>-0.15833895E-13</totfact>
</mgrwt>
</event>
<event>
 4    1  0.5021037E-019  0.1494456E+02  0.7818608E-02  0.1869765E+00
         -2   -1    0    0    0  501 -0.00000000000E+00  0.00000000000E+00  0.11915558040E+03  0.11915558043E+03  0.25500000000E-02 0. -1.
          2   -1    0    0  501    0  0.00000000000E+00 -0.00000000000E+00 -0.46858514596E+00  0.46859208435E+00  0.25500000000E-02 0.  1.
         31    1    1    2    0    0  0.34358304118E+00  0.15778467192E+00  0.63207956284E+02  0.63646269403E+02  0.74470750000E+01 0. -1.
        -31    1    1    2    0    0 -0.34358304118E+00 -0.15778467192E+00  0.55479038974E+02  0.55977903112E+02  0.74470750000E+01 0.  1.
<mgrwt>
<rscale>  0 0.14944558E+02</rscale>
<asrwt>0</asrwt>
<pdfrwt beam="2">  1        2 0.99520914E+00 0.14944558E+02</pdfrwt>
<pdfrwt beam="1">  1       -2 0.98913636E+00 0.14944558E+02</pdfrwt>
<totfact> 0.61482162E-14</totfact>
</mgrwt>
</event>
<event>
 4    1 -0.5021037E-019  0.1491130E+02  0.7818608E-02  0.1870787E+00
         -2   -1    0    0    0  501 -0.00000000000E+00  0.00000000000E+00  0.11992268302E+03  0.11992268305E+03  0.25500000000E-02 0. -1.
          2   -1    0    0  501    0  0.00000000000E+00 -0.00000000000E+00 -0.46351779812E+00  0.46352481236E+00  0.25500000000E-02 0.  1.
         31    1    1    2    0    0  0.22273313634E+00 -0.27873909577E+00  0.59908338706E+02  0.60370483500E+02  0.74470750000E+01 0.  1.
        -31    1    1    2    0    0 -0.22273313634E+00  0.27873909577E+00  0.59550826515E+02  0.60015724358E+02  0.74470750000E+01 0. -1.
<mgrwt>
<rscale>  0 0.14911301E+02</rscale>
<asrwt>0</asrwt>
<pdfrwt beam="2">  1        2 0.98451307E+00 0.14911301E+02</pdfrwt>
<pdfrwt beam="1">  1       -2 0.99543740E+00 0.14911301E+02</pdfrwt>
<totfact>-0.36944042E-13</totfact>
</mgrwt>
</event>
<event>
 4    1 -0.5021037E-019  0.1495654E+02  0.7818608E-02  0.1869398E+00
          2   -1    0    0  501    0  0.00000000000E+00  0.00000000000E+00  0.11970166659E+03  0.11970166662E+03  0.25500000000E-02 0. -1.
         -2   -1    0    0    0  501 -0.00000000000E+00 -0.00000000000E+00 -0.46719564297E+00  0.46720260199E+00  0.25500000000E-02 0.  1.
         31    1    1    2    0    0  0.34155881742E-01 -0.67121686960E+00  0.58670247342E+02  0.59144809983E+02  0.74470750000E+01 0. -1.
        -31    1    1    2    0    0 -0.34155881742E-01  0.67121686960E+00  0.60564223606E+02  0.61024059237E+02  0.74470750000E+01 0.  1.
<mgrwt>
<rscale>  0 0.14956539E+02</rscale>
<asrwt>0</asrwt>
<pdfrwt beam="1">  1        2 0.99364029E+00 0.14956539E+02</pdfrwt>
<pdfrwt beam="2">  1       -2 0.99228728E+00 0.14956539E+02</pdfrwt>
<totfact>-0.98103870E-14</totfact>
</mgrwt>
</event>
<event>
 4    1 -0.5021037E-019  0.1494102E+02  0.7818608E-02  0.1869874E+00
          2   -1    0    0  501    0  0.00000000000E+00  0.00000000000E+00  0.11921379988E+03  0.11921379991E+03  0.25500000000E-02 0. -1.
         -2   -1    0    0    0  501 -0.00000000000E+00 -0.00000000000E+00 -0.46813478580E+00  0.46814173086E+00  0.25500000000E-02 0.  1.
         31    1    1    2    0    0  0.54301207490E+00  0.76084935638E-02  0.61246244938E+02  0.61699727431E+02  0.74470750000E+01 0.  1.
        -31    1    1    2    0    0 -0.54301207490E+00 -0.76084935638E-02  0.57499420156E+02  0.57982214207E+02  0.74470750000E+01 0. -1.
<mgrwt>
<rscale>  0 0.14941023E+02</rscale>
<asrwt>0</asrwt>
<pdfrwt beam="1">  1        2 0.98961403E+00 0.14941023E+02</pdfrwt>
<pdfrwt beam="2">  1       -2 0.99425829E+00 0.14941023E+02</pdfrwt>
<totfact>-0.18407897E-13</totfact>
</mgrwt>
</event>
<event>
 4    1  0.5021037E-019  0.1495756E+02  0.7818608E-02  0.1869366E+00
          2   -1    0    0  501    0  0.00000000000E+00  0.00000000000E+00  0.12044549596E+03  0.12044549598E+03  0.25500000000E-02 0. -1.
         -2   -1    0    0    0  501 -0.00000000000E+00 -0.00000000000E+00 -0.46437371282E+00  0.46438071413E+00  0.25500000000E-02 0.  1.
         31    1    1    2    0    0 -0.42358983877E+00  0.37803494199E+00  0.56850630365E+02  0.57339126586E+02  0.74470750000E+01 0.  1.
        -31    1    1    2    0    0  0.42358983877E+00 -0.37803494199E+00  0.63130491879E+02  0.63570750111E+02  0.74470750000E+01 0. -1.
<mgrwt>
<rscale>  0 0.14957560E+02</rscale>
<asrwt>0</asrwt>
<pdfrwt beam="1">  1        2 0.99976746E+00 0.14957560E+02</pdfrwt>
<pdfrwt beam="2">  1       -2 0.98634051E+00 0.14957560E+02</pdfrwt>
<totfact> 0.24618130E-14</totfact>
</mgrwt>
</event>
<event>
 4    1 -0.5021037E-019  0.1498243E+02  0.7818608E-02  0.1868605E+00
          2   -1    0    0  501    0  0.00000000000E+00  0.00000000000E+00  0.11955501341E+03  0.11955501344E+03  0.25500000000E-02 0.  1.
         -2   -1    0    0    0  501 -0.00000000000E+00 -0.00000000000E+00 -0.46938979291E+00  0.46939671940E+00  0.25500000000E-02 0. -1.
         31    1    1    2    0    0  0.35093566701E+00  0.84366315748E-01  0.65370075037E+02  0.65793889609E+02  0.74470750000E+01 0.  1.
        -31    1    1    2    0    0 -0.35093566701E+00 -0.84366315748E-01  0.53715548579E+02  0.54230520546E+02  0.74470750000E+01 0. -1.
<mgrwt>
<rscale>  0 0.14982432E+02</rscale>
<asrwt>0</asrwt>
<pdfrwt beam="1">  1        2 0.99244580E+00 0.14982432E+02</pdfrwt>
<pdfrwt beam="2">  1       -2 0.99692443E+00 0.14982432E+02</pdfrwt>
<totfact>-0.11930427E-13</totfact>
</mgrwt>
</event>
<event>
 4    1 -0.5021037E-019  0.1492527E+02  0.7818608E-02  0.1870357E+00
         -2   -1    0    0    0  501 -0.00000000000E+00  0.00000000000E+00  0.11990245224E+03  0.11990245227E+03  0.25500000000E-02 0.  1.
          2   -1    0    0  501    0  0.00000000000E+00 -0.00000000000E+00 -0.46446534011E+00  0.46447234004E+00  0.25500000000E-02 0. -1.
         31    1    1    2    0    0 -0.35004014376E+00 -0.32154187730E-01  0.57062945615E+02  0.57547912650E+02  0.74470750000E+01 0. -1.
        -31    1    1    2    0    0  0.35004014376E+00  0.32154187730E-01  0.62375041285E+02  0.62819011958E+02  0.74470750000E+01 0.  1.
<mgrwt>
<rscale>  0 0.14925275E+02</rscale>
<asrwt>0</asrwt>
<pdfrwt beam="2">  1        2 0.98651721E+00 0.14925275E+02</pdfrwt>
<pdfrwt beam="1">  1       -2 0.99527795E+00 0.14925275E+02</pdfrwt>
<totfact>-0.27157260E-13</totfact>
</mgrwt>
</event>
<event>
 4    1  0.5021037E-019  0.1491493E+02  0.7818608E-02  0.1870676E+00
          2   -1    0    0  501    0  0.00000000000E+00  0.00000000000E+00  0.12035514433E+03  0.12035514435E+03  0.25500000000E-02 0.  1.
         -2   -1    0    0    0  501 -0.00000000000E+00 -0.00000000000E+00 -0.46207683240E+00  0.46208386851E+00  0.25500000000E-02 0. -1.
         31    1    1    2    0    0  0.36159227990E+00  0.14245940673E+00  0.59448452364E+02  0.59914342675E+02  0.74470750000E+01 0. -1.
        -31    1    1    2    0    0 -0.36159227990E+00 -0.14245940673E+00  0.60444615130E+02  0.60902885547E+02  0.74470750000E+01 0. -1.
<mgrwt>
<rscale>  0 0.14914925E+02</rscale>
<asrwt>0</asrwt>
<pdfrwt beam="1">  1        2 0.99900137E+00 0.14914925E+02</pdfrwt>
<pdfrwt beam="2">  1       -2 0.98147778E+00 0.14914925E+02</pdfrwt>
<totfact> 0.33286065E-13</totfact>
</mgrwt>
</event>
<event>
 4    1 -0.5021037E-019  0.1491542E+02  0.7818608E-02  0.1870661E+00
          2   -1    0    0  501    0  0.00000000000E+00  0.00000000000E+00  0.11886323304E+03  0.11886323307E+03  0.25500000000E-02 0.  1.
         -2   -1    0    0    0  501 -0.00000000000E+00 -0.00000000000E+00 -0.46790758665E+00  0.46791453508E+00  0.25500000000E-02 0. -1.
         31    1    1    2    0    0  0.29337996196E+00  0.21549516282E+00  0.57907897430E+02  0.58385923139E+02  0.74470750000E+01 0. -1.
        -31    1    1    2    0    0 -0.29337996196E+00 -0.21549516282E+00  0.60487428021E+02  0.60945224461E+02  0.74470750000E+01 0.  1.
<mgrwt>
<rscale>  0 0.14915418E+02</rscale>
<asrwt>0</asrwt>
<pdfrwt beam="1">  1        2 0.98671342E+00 0.14915418E+02</pdfrwt>
<pdfrwt beam="2">  1       -2 0.99376619E+00 0.14915418E+02</pdfrwt>
<totfact>-0.25593613E-13</totfact>
</mgrwt>
</event>
<event>
 4    1 -0.5021037E-019  0.1497940E+02  0.7818608E-02  0.1868698E+00
          2   -1    0    0  501    0  0.00000000000E+00  0.00000000000E+00  0.11946431166E+03  0.11946431169E+03  0.25500000000E-02 0.  1.
         -2   -1    0    0    0  501 -0.00000000000E+00 -0.00000000000E+00 -0.46955579955E+00  0.46956272359E+00  0.25500000000E-02 0. -1.
         31    1    1    2    0    0  0.57810115292E+00 -0.52864937217E+00  0.58283644822E+02  0.58762707995E+02  0.74470750000E+01 0. -1.
        -31    1    1    2    0    0 -0.57810115292E+00  0.52864937217E+00  0.60711111037E+02  0.61171166415E+02  0.74470750000E+01 0. -1.
<mgrwt>
<rscale>  0 0.14979396E+02</rscale>
<asrwt>0</asrwt>
<pdfrwt beam="1">  1        2 0.99169719E+00 0.14979396E+02</pdfrwt>
<pdfrwt beam="2">  1       -2 0.99727266E+00 0.14979396E+02</pdfrwt>
<totfact>-0.11631051E-13</totfact>
</mgrwt>
</event>
<event>
 4    1  0.5021037E-019  0.1491126E+02  0.7818608E-02  0.1870788E+00
         -2   -1    0    0    0  501 -0.00000000000E+00  0.00000000000E+00  0.11833527797E+03  0.11833527800E+03  0.25500000000E-02 0.  1.
          2   -1    0    0  501    0  0.00000000000E+00 -0.00000000000E+00 -0.46973339273E+00  0.46974031416E+00  0.25500000000E-02 0. -1.
         31    1    1    2    0    0 -0.81930211726E-01 -0.34663849010E+00  0.59135516559E+02  0.59603650186E+02  0.74470750000E+01 0.  1.
        -31    1    1    2    0    0  0.81930211726E-01  0.34663849010E+00  0.58730028019E+02  0.59201368126E+02  0.74470750000E+01 0.  1.
<mgrwt>
<rscale>  0 0.14911263E+02</rscale>
<asrwt>0</asrwt>
<pdfrwt beam="2">  1        2 0.99761109E+00 0.14911263E+02</pdfrwt>
<pdfrwt beam="1">  1       -2 0.98236302E+00 0.14911263E+02</pdfrwt>
<totfact> 0.57312019E-13</totfact>
</mgrwt>
</event>
<event>
 4    1 -0.5021037E-019  0.1491469E+02  0.7818608E-02  0.1870683E+00
          2   -1    0    0  501    0  0.00000000000E+00  0.00000000000E+00  0.11919196612E+03  0.11919196614E+03  0.25500000000E-02 0.  1.
         -2   -1    0    0    0  501 -0.00000000000E+00 -0.00000000000E+00 -0.46657145303E+00  0.46657842137E+00  0.25500000000E-02 0. -1.
         31    1    1    2    0    0  0.17233855344E+00 -0.34680004774E+00  0.59808703542E+02  0.60271800340E+02  0.74470750000E+01 0. -1.
        -31    1    1    2    0    0 -0.17233855344E+00  0.34680004774E+00  0.58916691122E+02  0.59386744225E+02  0.74470750000E+01 0.  1.
<mgrwt>
<rscale>  0 0.14914689E+02</rscale>
<asrwt>0</asrwt>
<pdfrwt beam="1">  1        2 0.98942057E+00 0.14914689E+02</pdfrwt>
<pdfrwt beam="2">  1       -2 0.99095026E+00 0.14914689E+02</pdfrwt>
<totfact>-0.62864353E-14</totfact>
</mgrwt>
</event>
<event>
 4    1 -0.5021037E-019  0.1497065E+02  0.7818608E-02  0.1868966E+00
          2   -1    0    0  501    0  0.00000000000E+00  0.00000000000E+00  0.11936571073E+03  0.11936571075E+03  0.25500000000E-02 0.  1.
         -2   -1    0    0    0  501 -0.00000000000E+00 -0.00000000000E+00 -0.46939491464E+00  0.46940184106E+00  0.25500000000E-02 0. -1.
         31    1    1    2    0    0 -0.18642869562E+00 -0.31865832895E+00  0.54169628679E+02  0.54680379443E+02  0.74470750000E+01 0.  1.
        -31    1    1    2    0    0  0.18642869562E+00  0.31865832895E+00  0.64726687132E+02  0.65154733151E+02  0.74470750000E+01 0.  1.
<mgrwt>
<rscale>  0 0.14970648E+02</rscale>
<asrwt>0</asrwt>
<pdfrwt beam="1">  1        2 0.99088056E+00 0.14970648E+02</pdfrwt>
<pdfrwt beam="2">  1       -2 0.99692909E+00 0.14970648E+02</pdfrwt>
<totfact>-0.13425777E-13</totfact>
</mgrwt>
</event>
<event>
 4    1 -0.5021037E-019  0.1500472E+02  0.7818608E-02  0.1867924E+00
         -2   -1    0    0    0  501 -0.00000000000E+00  0.00000000000E+00  0.12001607029E+03  0.12001607032E+03  0.25500000000E-02 0.  1.
          2   -1    0    0  501    0  0.00000000000E+00 -0.00000000000E+00 -0.46897896730E+00  0.46898589986E+00  0.25500000000E-02 0. -1.
         31    1    1    2    0    0 -0.32858112797E+00  0.71956701639E+00  0.63371434556E+02  0.63812407775E+02  0.74470750000E+01 0. -1.
        -31    1    1    2    0    0  0.32858112797E+00 -0.71956701639E+00  0.56175656769E+02  0.56672648444E+02  0.74470750000E+01 0. -1.
<mgrwt>
<rscale>  0 0.15004724E+02</rscale>
<asrwt>0</asrwt>
<pdfrwt beam="2">  1        2 0.99607027E+00 0.15004724E+02</pdfrwt>
<pdfrwt beam="1">  1       -2 0.99625474E+00 0.15004724E+02</pdfrwt>
<totfact>-0.95103026E-14</totfact>
</mgrwt>
</event>
<event>
 4    1  0.5021037E-019  0.1494723E+02  0.7818608E-02  0.1869683E+00
         -2   -1    0    0    0  501 -0.00000000000E+00  0.00000000000E+00  0.11875814229E+03  0.11875814232E+03  0.25500000000E-02 0.  1.
          2   -1    0    0  501    0  0.00000000000E+00 -0.00000000000E+00 -0.47032124004E+00  0.47032815282E+00  0.25500000000E-02 0. -1.
         31    1    1    2    0    0  0.48819261893E+00 -0.36123643237E+00  0.57829807725E+02  0.58310500010E+02  0.74470750000E+01 0. -1.
        -31    1    1    2    0    0 -0.48819261893E+00  0.36123643237E+00  0.60458013326E+02  0.60917970462E+02  0.74470750000E+01 0.  1.
<mgrwt>
<rscale>  0 0.14947226E+02</rscale>
<asrwt>0</asrwt>
<pdfrwt beam="2">  1        2 0.99886866E+00 0.14947226E+02</pdfrwt>
<pdfrwt beam="1">  1       -2 0.98586441E+00 0.14947226E+02</pdfrwt>
<totfact> 0.12759617E-13</totfact>
</mgrwt>
</event>
<event>
 4    1 -0.5021037E-019  0.1490527E+02  0.7818608E-02  0.1870973E+00
          2   -1    0    0  501    0  0.00000000000E+00  0.00000000000E+00  0.11829285896E+03  0.11829285899E+03  0.25500000000E-02 0. -1.
         -2   -1    0    0    0  501 -0.00000000000E+00 -0.00000000000E+00 -0.46952385203E+00  0.46953077655E+00  0.25500000000E-02 0.  1.
         31    1    1    2    0    0  0.21761300993E+00  0.18624836220E+00  0.58691765151E+02  0.59163031249E+02  0.74470750000E+01 0. -1.
        -31    1    1    2    0    0 -0.21761300993E+00 -0.18624836220E+00  0.59131569959E+02  0.59599358518E+02  0.74470750000E+01 0. -1.
<mgrwt>
<rscale>  0 0.14905265E+02</rscale>
<asrwt>0</asrwt>
<pdfrwt beam="1">  1        2 0.98201053E+00 0.14905265E+02</pdfrwt>
<pdfrwt beam="2">  1       -2 0.99716642E+00 0.14905265E+02</pdfrwt>
<totfact>-0.44142356E-13</totfact>
</mgrwt>
</event>
<event>
 4    1 -0.5021037E-019  0.1490012E+02  0.7818608E-02  0.1871132E+00
         -2   -1    0    0    0  501 -0.00000000000E+00  0.00000000000E+00  0.11964529117E+03  0.11964529119E+03  0.25500000000E-02 0.  1.
          2   -1    0    0  501    0  0.00000000000E+00 -0.00000000000E+00 -0.46389591994E+00  0.46390292846E+00  0.25500000000E-02 0. -1.
         31    1    1    2    0    0  0.12572730907E+00  0.99051184226E-01  0.58484248478E+02  0.58956694824E+02  0.74470750000E+01 0. -1.
        -31    1    1    2    0    0 -0.12572730907E+00 -0.99051184226E-01  0.60697146769E+02  0.61152499299E+02  0.74470750000E+01 0. -1.
<mgrwt>
<rscale>  0 0.14900119E+02</rscale>
<asrwt>0</asrwt>
<pdfrwt beam="2">  1        2 0.98530429E+00 0.14900119E+02</pdfrwt>
<pdfrwt beam="1">  1       -2 0.99314685E+00 0.14900119E+02</pdfrwt>
<totfact>-0.29427614E-13</totfact>
</mgrwt>
</event>
<event>
 4    1 -0.5021037E-019  0.1501050E+02  0.7818608E-02  0.1867748E+00
         -2   -1    0    0    0  501 -0.00000000000E+00  0.00000000000E+00  0.11998133502E+03  0.11998133504E+03  0.25500000000E-02 0. -1.
          2   -1    0    0  501    0  0.00000000000E+00 -0.00000000000E+00 -0.46947583805E+00  0.46948276327E+00  0.25500000000E-02 0.  1.
         31    1    1    2    0    0  0.86998112474E+00 -0.32246622690E-01  0.57071356512E+02  0.57561763065E+02  0.74470750000E+01 0.  1.
        -31    1    1    2    0    0 -0.86998112474E+00  0.32246622690E-01  0.62440502667E+02  0.62889054742E+02  0.74470750000E+01 0.  1.
<mgrwt>
<rscale>  0 0.15010497E+02</rscale>
<asrwt>0</asrwt>
<pdfrwt beam="2">  1        2 0.99712032E+00 0.15010497E+02</pdfrwt>
<pdfrwt beam="1">  1       -2 0.99597164E+00 0.15010497E+02</pdfrwt>
<totfact>-0.80611292E-14</totfact>
</mgrwt>
</event>
<event>
 4    1  0.5021037E-019  0.1491124E+02  0.7818608E-02  0.1870789E+00
         -2   -1    0    0    0  501 -0.00000000000E+00  0.00000000000E+00  0.11832924696E+03  0.11832924699E+03  0.25500000000E-02 0. -1.
          2   -1    0    0  501    0  0.00000000000E+00 -0.00000000000E+00 -0.46975606196E+00  0.46976298306E+00  0.25500000000E-02 0.  1.
         31    1    1    2    0    0 -0.14975592604E+00 -0.30733928092E+00  0.59745485446E+02  0.60208793722E+02  0.74470750000E+01 0. -1.
        -31    1    1    2    0    0  0.14975592604E+00  0.30733928092E+00  0.58114005453E+02  0.58590216250E+02  0.74470750000E+01 0. -1.
<mgrwt>
<rscale>  0 0.14911243E+02</rscale>
<asrwt>0</asrwt>
<pdfrwt beam="2">  1        2 0.99765884E+00 0.14911243E+02</pdfrwt>
<pdfrwt beam="1">  1       -2 0.98231333E+00 0.14911243E+02</pdfrwt>
<totfact> 0.57041727E-13</totfact>
</mgrwt>
</event>
<event>
 4    1  0.5021037E-019  0.1493384E+02  0.7818608E-02  0.1870094E+00
          2   -1    0    0  501    0  0.00000000000E+00  0.00000000000E+00  0.12002115593E+03  0.12002115596E+03  0.25500000000E-02 0. -1.
         -2   -1    0    0    0  501 -0.00000000000E+00 -0.00000000000E+00 -0.46453839931E+00  0.46454539814E+00  0.25500000000E-02 0.  1.
         31    1    1    2    0    0  0.44070226508E-01  0.35163951533E+00  0.63108145188E+02  0.63547010218E+02  0.74470750000E+01 0. -1.
        -31    1    1    2    0    0 -0.44070226508E-01 -0.35163951533E+00  0.56448472347E+02  0.56938691141E+02  0.74470750000E+01 0.  1.
<mgrwt>
<rscale>  0 0.14933835E+02</rscale>
<asrwt>0</asrwt>
<pdfrwt beam="1">  1        2 0.99626008E+00 0.14933835E+02</pdfrwt>
<pdfrwt beam="2">  1       -2 0.98667555E+00 0.14933835E+02</pdfrwt>
<totfact> 0.23795600E-13</totfact>
</mgrwt>
</event>
<event>
 4    1 -0.5021037E-019  0.1499234E+02  0.7818608E-02  0.1868302E+00
          2   -1    0    0  501    0  0.00000000000E+00  0.00000000000E+00  0.11976319854E+03  0.11976319857E+03  0.25500000000E-02 0. -1.
         -2   -1    0    0    0  501 -0.00000000000E+00 -0.00000000000E+00 -0.46919365723E+00  0.46920058662E+00  0.25500000000E-02 0.  1.
         31    1    1    2    0    0 -0.43189897854E+00 -0.64389866684E+00  0.56728014511E+02  0.57219993872E+02  0.74470750000E+01 0. -1.
        -31    1    1    2    0    0  0.43189897854E+00  0.64389866684E+00  0.62565990371E+02  0.63012405281E+02  0.74470750000E+01 0. -1.
<mgrwt>
<rscale>  0 0.14992338E+02</rscale>
<asrwt>0</asrwt>
<pdfrwt beam="1">  1        2 0.99416560E+00 0.14992338E+02</pdfrwt>
<pdfrwt beam="2">  1       -2 0.99651627E+00 0.14992338E+02</pdfrwt>
<totfact>-0.11296083E-13</totfact>
</mgrwt>
</event>
<event>
 4    1 -0.5021037E-019  0.1494263E+02  0.7818608E-02  0.1869824E+00
         -2   -1    0    0    0  501 -0.00000000000E+00  0.00000000000E+00  0.11998175748E+03  0.11998175750E+03  0.25500000000E-02 0.  1.
          2   -1    0    0  501    0  0.00000000000E+00 -0.00000000000E+00 -0.46523851005E+00  0.46524549835E+00  0.25500000000E-02 0. -1.
         31    1    1    2    0    0 -0.32506732475E+00  0.41309915507E+00  0.62112609498E+02  0.62559663557E+02  0.74470750000E+01 0.  1.
        -31    1    1    2    0    0  0.32506732475E+00 -0.41309915507E+00  0.57403909467E+02  0.57887339443E+02  0.74470750000E+01 0. -1.
<mgrwt>
<rscale>  0 0.14942631E+02</rscale>
<asrwt>0</asrwt>
<pdfrwt beam="2">  1        2 0.98815557E+00 0.14942631E+02</pdfrwt>
<pdfrwt beam="1">  1       -2 0.99594009E+00 0.14942631E+02</pdfrwt>
<totfact>-0.20666815E-13</totfact>
</mgrwt>
</event>
<event>
 4    1  0.5021037E-019  0.1490362E+02  0.7818608E-02  0.1871024E+00
          2   -1    0    0  501    0  0.00000000000E+00  0.00000000000E+00  0.11974629758E+03  0.11974629760E+03  0.25500000000E-02 0. -1.
         -2   -1    0    0    0  501 -0.00000000000E+00 -0.00000000000E+00 -0.46372264173E+00  0.46372965287E+00  0.25500000000E-02 0.  1.
         31    1    1    2    0    0  0.10155739647E+00 -0.19398070207E+00  0.58428083930E+02  0.58901170278E+02  0.74470750000E+01 0.  1.
        -31    1    1    2    0    0 -0.10155739647E+00  0.19398070207E+00  0.60854491004E+02  0.61308856977E+02  0.74470750000E+01 0. -1.
<mgrwt>
<rscale>  0 0.14903623E+02</rscale>
<asrwt>0</asrwt>
<pdfrwt beam="1">  1        2 0.99398061E+00 0.14903623E+02</pdfrwt>
<pdfrwt beam="2">  1       -2 0.98494089E+00 0.14903623E+02</pdfrwt>
<totfact> 0.54059016E-13</totfact>
</mgrwt>
</event>
<event>
 4    1 -0.5021037E-019  0.1494671E+02  0.7818608E-02  0.1869699E+00
          2   -1    0    0  501    0  0.00000000000E+00  0.00000000000E+00  0.11922570118E+03  0.11922570121E+03  0.25500000000E-02 0. -1.
         -2   -1    0    0    0  501 -0.00000000000E+00 -0.00000000000E+00 -0.46844416626E+00  0.46845110674E+00  0.25500000000E-02 0.  1.
         31    1    1    2    0    0  0.51406517352E+00  0.58537285905E-01  0.56554318522E+02  0.57044873206E+02  0.74470750000E+01 0.  1.
        -31    1    1    2    0    0 -0.51406517352E+00 -0.58537285905E-01  0.62202938497E+02  0.62649279112E+02  0.74470750000E+01 0.  1.
<mgrwt>
<rscale>  0 0.14946705E+02</rscale>
<asrwt>0</asrwt>
<pdfrwt beam="1">  1        2 0.98971500E+00 0.14946705E+02</pdfrwt>
<pdfrwt beam="2">  1       -2 0.99491319E+00 0.14946705E+02</pdfrwt>
<totfact>-0.18387165E-13</totfact>
</mgrwt>
</event>
<event>
 4    1 -0.5021037E-019  0.1496246E+02  0.7818608E-02  0.1869216E+00
         -2   -1    0    0    0  501 -0.00000000000E+00  0.00000000000E+00  0.11994338085E+03  0.11994338088E+03  0.25500000000E-02 0.  1.
          2   -1    0    0  501    0  0.00000000000E+00 -0.00000000000E+00 -0.46662321986E+00  0.46663018743E+00  0.25500000000E-02 0. -1.
         31    1    1    2    0    0 -0.20733839769E+00 -0.61704672527E+00  0.57376670912E+02  0.57861602353E+02  0.74470750000E+01 0. -1.
        -31    1    1    2    0    0  0.20733839769E+00  0.61704672527E+00  0.62100086718E+02  0.62548408711E+02  0.74470750000E+01 0.  1.
<mgrwt>
<rscale>  0 0.14962458E+02</rscale>
<asrwt>0</asrwt>
<pdfrwt beam="2">  1        2 0.99108399E+00 0.14962458E+02</pdfrwt>
<pdfrwt beam="1">  1       -2 0.99563422E+00 0.14962458E+02</pdfrwt>
<totfact>-0.15750926E-13</totfact>
</mgrwt>
</event>
<event>
 4    1  0.5021037E-019  0.1491089E+02  0.7818608E-02  0.1870800E+00
          2   -1    0    0  501    0  0.00000000000E+00  0.00000000000E+00  0.11983379183E+03  0.11983379185E+03  0.25500000000E-02 0. -1.
         -2   -1    0    0    0  501 -0.00000000000E+00 -0.00000000000E+00 -0.46383593673E+00  0.46384294616E+00  0.25500000000E-02 0.  1.
         31    1    1    2    0    0  0.24925409182E+00  0.44587603203E-01  0.57698919175E+02  0.58178074184E+02  0.74470750000E+01 0.  1.
        -31    1    1    2    0    0 -0.24925409182E+00 -0.44587603203E-01  0.61671036714E+02  0.62119560616E+02  0.74470750000E+01 0. -1.
<mgrwt>
<rscale>  0 0.14910888E+02</rscale>
<asrwt>0</asrwt>
<pdfrwt beam="1">  1        2 0.99470501E+00 0.14910888E+02</pdfrwt>
<pdfrwt beam="2">  1       -2 0.98518337E+00 0.14910888E+02</pdfrwt>
<totfact> 0.47359081E-13</totfact>
</mgrwt>
</event>
<event>
 4    1 -0.5021037E-019  0.1495036E+02  0.7818608E-02  0.1869587E+00
         -2   -1    0    0    0  501 -0.00000000000E+00  0.00000000000E+00  0.11937111296E+03  0.11937111299E+03  0.25500000000E-02 0.  1.
          2   -1    0    0  501    0  0.00000000000E+00 -0.00000000000E+00 -0.46810207999E+00  0.46810902554E+00  0.25500000000E-02 0. -1.
         31    1    1    2    0    0  0.52340674166E+00  0.12916800801E-01  0.56396686809E+02  0.56888657310E+02  0.74470750000E+01 0. -1.
        -31    1    1    2    0    0 -0.52340674166E+00 -0.12916800801E-01  0.62506324075E+02  0.62950564707E+02  0.74470750000E+01 0. -1.
<mgrwt>
<rscale>  0 0.14950356E+02</rscale>
<asrwt>0</asrwt>
<pdfrwt beam="2">  1        2 0.99419423E+00 0.14950356E+02</pdfrwt>
<pdfrwt beam="1">  1       -2 0.99091453E+00 0.14950356E+02</pdfrwt>
<totfact>-0.40950814E-14</totfact>
</mgrwt>
</event>
<event>
 4    1  0.5021037E-019  0.1491762E+02  0.7818608E-02  0.1870593E+00
         -2   -1    0    0    0  501 -0.00000000000E+00  0.00000000000E+00  0.11857239537E+03  0.11857239540E+03  0.25500000000E-02 0.  1.
          2   -1    0    0  501    0  0.00000000000E+00 -0.00000000000E+00 -0.46919400258E+00  0.46920093197E+00  0.25500000000E-02 0. -1.
         31    1    1    2    0    0 -0.31524033617E+00  0.22520348762E-01  0.56865315794E+02  0.57351747576E+02  0.74470750000E+01 0. -1.
        -31    1    1    2    0    0  0.31524033617E+00 -0.22520348762E-01  0.61237885575E+02  0.61689848755E+02  0.74470750000E+01 0.  1.
<mgrwt>
<rscale>  0 0.14917623E+02</rscale>
<asrwt>0</asrwt>
<pdfrwt beam="2">  1        2 0.99647795E+00 0.14917623E+02</pdfrwt>
<pdfrwt beam="1">  1       -2 0.98431921E+00 0.14917623E+02</pdfrwt>
<totfact> 0.47717368E-13</totfact>
</mgrwt>
</event>
<event>
 4    1 -0.5021037E-019  0.1498438E+02  0.7818608E-02  0.1868545E+00
         -2   -1    0    0    0  501 -0.00000000000E+00  0.00000000000E+00  0.11962646552E+03  0.11962646554E+03  0.25500000000E-02 0.  1.
          2   -1    0    0  501    0  0.00000000000E+00 -0.00000000000E+00 -0.46923169423E+00  0.46923862306E+00  0.25500000000E-02 0. -1.
         31    1    1    2    0    0 -0.36481220401E+00  0.22416967214E+00  0.53964414551E+02  0.54477521088E+02  0.74470750000E+01 0. -1.
        -31    1    1    2    0    0  0.36481220401E+00 -0.22416967214E+00  0.65192819270E+02  0.65618183078E+02  0.74470750000E+01 0.  1.
<mgrwt>
<rscale>  0 0.14984385E+02</rscale>
<asrwt>0</asrwt>
<pdfrwt beam="2">  1        2 0.99659230E+00 0.14984385E+02</pdfrwt>
<pdfrwt beam="1">  1       -2 0.99303531E+00 0.14984385E+02</pdfrwt>
<totfact>-0.83568410E-14</totfact>
</mgrwt>
</event>
<event>
 4    1 -0.5021037E-019  0.1497414E+02  0.7818608E-02  0.1868859E+00
          2   -1    0    0  501    0  0.00000000000E+00  0.00000000000E+00  0.11988984108E+03  0.11988984110E+03  0.25500000000E-02 0. -1.
         -2   -1    0    0    0  501 -0.00000000000E+00 -0.00000000000E+00 -0.46756081858E+00  0.46756777217E+00  0.25500000000E-02 0.  1.
         31    1    1    2    0    0 -0.56992648911E-01  0.41268133096E+00  0.64943248189E+02  0.65370161125E+02  0.74470750000E+01 0. -1.
        -31    1    1    2    0    0  0.56992648911E-01 -0.41268133096E+00  0.54479032067E+02  0.54987247750E+02  0.74470750000E+01 0.  1.
<mgrwt>
<rscale>  0 0.14974139E+02</rscale>
<asrwt>0</asrwt>
<pdfrwt beam="1">  1        2 0.99519927E+00 0.14974139E+02</pdfrwt>
<pdfrwt beam="2">  1       -2 0.99306592E+00 0.14974139E+02</pdfrwt>
<totfact>-0.10250723E-13</totfact>
</mgrwt>
</event>
<event>
 4    1  0.5021037E-019  0.1491129E+02  0.7818608E-02  0.1870788E+00
          2   -1    0    0  501    0  0.00000000000E+00  0.00000000000E+00  0.12002074443E+03  0.12002074446E+03  0.25500000000E-02 0. -1.
         -2   -1    0    0    0  501 -0.00000000000E+00 -0.00000000000E+00 -0.46313820727E+00  0.46314522726E+00  0.25500000000E-02 0.  1.
         31    1    1    2    0    0 -0.31266770441E+00  0.17208733914E+00  0.59922377857E+02  0.60384415781E+02  0.74470750000E+01 0.  1.
        -31    1    1    2    0    0  0.31266770441E+00 -0.17208733914E+00  0.59635228367E+02  0.60099473905E+02  0.74470750000E+01 0.  1.
<mgrwt>
<rscale>  0 0.14911287E+02</rscale>
<asrwt>0</asrwt>
<pdfrwt beam="1">  1        2 0.99624510E+00 0.14911287E+02</pdfrwt>
<pdfrwt beam="2">  1       -2 0.98371302E+00 0.14911287E+02</pdfrwt>
<totfact> 0.57655439E-13</totfact>
</mgrwt>
</event>
<event>
 4    1  0.5021037E-019  0.1492801E+02  0.7818608E-02  0.1870273E+00
          2   -1    0    0  501    0  0.00000000000E+00  0.00000000000E+00  0.12008102371E+03  0.12008102373E+03  0.25500000000E-02 0.  1.
         -2   -1    0    0    0  501 -0.00000000000E+00 -0.00000000000E+00 -0.46394440094E+00  0.46395140873E+00  0.25500000000E-02 0. -1.
         31    1    1    2    0    0  0.38788462025E+00  0.19145769869E+00  0.61872132202E+02  0.62320195602E+02  0.74470750000E+01 0. -1.
        -31    1    1    2    0    0 -0.38788462025E+00 -0.19145769869E+00  0.57744947103E+02  0.58224779540E+02  0.74470750000E+01 0. -1.
<mgrwt>
<rscale>  0 0.14928006E+02</rscale>
<asrwt>0</asrwt>
<pdfrwt beam="1">  1        2 0.99675020E+00 0.14928006E+02</pdfrwt>
<pdfrwt beam="2">  1       -2 0.98542068E+00 0.14928006E+02</pdfrwt>
<totfact> 0.33373088E-13</totfact>
</mgrwt>
</event>
<event>
 4    1 -0.5021037E-019  0.1490937E+02  0.7818608E-02  0.1870847E+00
         -2   -1    0    0    0  501 -0.00000000000E+00  0.00000000000E+00  0.12015974172E+03  0.12015974174E+03  0.25500000000E-02 0.  1.
          2   -1    0    0  501    0  0.00000000000E+00 -0.00000000000E+00 -0.46248334395E+00  0.46249037388E+00  0.25500000000E-02 0. -1.
         31    1    1    2    0    0 -0.25836218324E+00 -0.19038103035E+00  0.59024254585E+02  0.59493063052E+02  0.74470750000E+01 0.  1.
        -31    1    1    2    0    0  0.25836218324E+00  0.19038103035E+00  0.60673003787E+02  0.61129169065E+02  0.74470750000E+01 0.  1.
<mgrwt>
<rscale>  0 0.14909367E+02</rscale>
<asrwt>0</asrwt>
<pdfrwt beam="2">  1        2 0.98233180E+00 0.14909367E+02</pdfrwt>
<pdfrwt beam="1">  1       -2 0.99738901E+00 0.14909367E+02</pdfrwt>
<totfact>-0.39491002E-13</totfact>
</mgrwt>
</event>
<event>
 4    1 -0.5021037E-019  0.1501260E+02  0.7818608E-02  0.1867684E+00
         -2   -1    0    0    0  501 -0.00000000000E+00  0.00000000000E+00  0.12022333790E+03  0.12022333793E+03  0.25500000000E-02 0.  1.
          2   -1    0    0  501    0  0.00000000000E+00 -0.00000000000E+00 -0.46866219503E+00  0.46866913228E+00  0.25500000000E-02 0. -1.
         31    1    1    2    0    0  0.19854431953E+00 -0.52312063858E+00  0.65960511826E+02  0.66381933698E+02  0.74470750000E+01 0.  1.
        -31    1    1    2    0    0 -0.19854431953E+00  0.52312063858E+00  0.53794163883E+02  0.54310073365E+02  0.74470750000E+01 0. -1.
<mgrwt>
<rscale>  0 0.15012602E+02</rscale>
<asrwt>0</asrwt>
<pdfrwt beam="2">  1        2 0.99540677E+00 0.15012602E+02</pdfrwt>
<pdfrwt beam="1">  1       -2 0.99796596E+00 0.15012602E+02</pdfrwt>
<totfact>-0.68743526E-14</totfact>
</mgrwt>
</event>
<event>
 4    1 -0.5021037E-019  0.1501329E+02  0.7818608E-02  0.1867663E+00
          2   -1    0    0  501    0  0.00000000000E+00  0.00000000000E+00  0.12023794629E+03  0.12023794631E+03  0.25500000000E-02 0.  1.
         -2   -1    0    0    0  501 -0.00000000000E+00 -0.00000000000E+00 -0.46864800809E+00  0.46865494555E+00  0.25500000000E-02 0. -1.
         31    1    1    2    0    0 -0.53401420357E+00 -0.77148372002E+00  0.59064334248E+02  0.59539355593E+02  0.74470750000E+01 0.  1.
        -31    1    1    2    0    0  0.53401420357E+00  0.77148372002E+00  0.60704964032E+02  0.61167245667E+02  0.74470750000E+01 0.  1.
<mgrwt>
<rscale>  0 0.15013287E+02</rscale>
<asrwt>0</asrwt>
<pdfrwt beam="1">  1        2 0.99808663E+00 0.15013287E+02</pdfrwt>
<pdfrwt beam="2">  1       -2 0.99537723E+00 0.15013287E+02</pdfrwt>
<totfact>-0.62387089E-14</totfact>
</mgrwt>
</event>
<event>
 4    1 -0.5021037E-019  0.1496932E+02  0.7818608E-02  0.1869006E+00
          2   -1    0    0  501    0  0.00000000000E+00  0.00000000000E+00  0.11956947251E+03  0.11956947254E+03  0.25500000000E-02 0.  1.
         -2   -1    0    0    0  501 -0.00000000000E+00 -0.00000000000E+00 -0.46851205241E+00  0.46851899188E+00  0.25500000000E-02 0. -1.
         31    1    1    2    0    0 -0.40429683153E+00 -0.20553822403E+00  0.64331870302E+02  0.64763061729E+02  0.74470750000E+01 0. -1.
        -31    1    1    2    0    0  0.40429683153E+00  0.20553822403E+00  0.54769090156E+02  0.55274929800E+02  0.74470750000E+01 0. -1.
<mgrwt>
<rscale>  0 0.14969323E+02</rscale>
<asrwt>0</asrwt>
<pdfrwt beam="1">  1        2 0.99255810E+00 0.14969323E+02</pdfrwt>
<pdfrwt beam="2">  1       -2 0.99506800E+00 0.14969323E+02</pdfrwt>
<totfact>-0.14512811E-13</totfact>
</mgrwt>
</event>
<event>
 4    1 -0.5021037E-019  0.1499778E+02  0.7818608E-02  0.1868136E+00
          2   -1    0    0  501    0  0.00000000000E+00  0.00000000000E+00  0.11969569961E+03  0.11969569963E+03  0.25500000000E-02 0.  1.
         -2   -1    0    0    0  501 -0.00000000000E+00 -0.00000000000E+00 -0.46979885028E+00  0.46980577075E+00  0.25500000000E-02 0. -1.
         31    1    1    2    0    0 -0.14474808057E+00  0.65192551746E+00  0.55021209430E+02  0.55526915745E+02  0.74470750000E+01 0. -1.
        -31    1    1    2    0    0  0.14474808057E+00 -0.65192551746E+00  0.64204691325E+02  0.64638589659E+02  0.74470750000E+01 0.  1.
<mgrwt>
<rscale>  0 0.14997776E+02</rscale>
<asrwt>0</asrwt>
<pdfrwt beam="1">  1        2 0.99361247E+00 0.14997776E+02</pdfrwt>
<pdfrwt beam="2">  1       -2 0.99779440E+00 0.14997776E+02</pdfrwt>
<totfact>-0.86487526E-14</totfact>
</mgrwt>
</event>
<event>
 4    1  0.5021037E-019  0.1494187E+02  0.7818608E-02  0.1869848E+00
         -2   -1    0    0    0  501 -0.00000000000E+00  0.00000000000E+00  0.11858774775E+03  0.11858774777E+03  0.25500000000E-02 0.  1.
          2   -1    0    0  501    0  0.00000000000E+00 -0.00000000000E+00 -0.47065938880E+00  0.47066629661E+00  0.25500000000E-02 0. -1.
         31    1    1    2    0    0 -0.40104744465E+00 -0.34009117282E+00  0.56812970609E+02  0.57301387911E+02  0.74470750000E+01 0. -1.
        -31    1    1    2    0    0  0.40104744465E+00  0.34009117282E+00  0.61304117748E+02  0.61757026159E+02  0.74470750000E+01 0.  1.
<mgrwt>
<rscale>  0 0.14941867E+02</rscale>
<asrwt>0</asrwt>
<pdfrwt beam="2">  1        2 0.99957831E+00 0.14941867E+02</pdfrwt>
<pdfrwt beam="1">  1       -2 0.98445827E+00 0.14941867E+02</pdfrwt>
<totfact> 0.77479105E-14</totfact>
</mgrwt>
</event>
<event>
 4    1 -0.5021037E-019  0.1490322E+02  0.7818608E-02  0.1871036E+00
          2   -1    0    0  501    0  0.00000000000E+00  0.00000000000E+00  0.11804391285E+03  0.11804391288E+03  0.25500000000E-02 0. -1.
         -2   -1    0    0    0  501 -0.00000000000E+00 -0.00000000000E+00 -0.47038467640E+00  0.47039158824E+00  0.25500000000E-02 0.  1.
         31    1    1    2    0    0 -0.17478543088E+00  0.18274711969E+00  0.58310527476E+02  0.58784696028E+02  0.74470750000E+01 0.  1.
        -31    1    1    2    0    0  0.17478543088E+00 -0.18274711969E+00  0.59263000699E+02  0.59729608440E+02  0.74470750000E+01 0.  1.
<mgrwt>
<rscale>  0 0.14903216E+02</rscale>
<asrwt>0</asrwt>
<pdfrwt beam="1">  1        2 0.97995919E+00 0.14903216E+02</pdfrwt>
<pdfrwt beam="2">  1       -2 0.99897901E+00 0.14903216E+02</pdfrwt>
<totfact>-0.26695173E-13</totfact>
</mgrwt>
</event>
<event>
 4    1 -0.5021037E-019  0.1490693E+02  0.7818608E-02  0.1870922E+00
         -2   -1    0    0    0  501 -0.00000000000E+00  0.00000000000E+00  0.12006837282E+03  0.12006837285E+03  0.25500000000E-02 0. -1.
          2   -1    0    0  501    0  0.00000000000E+00 -0.00000000000E+00 -0.46268414999E+00  0.46269117687E+00  0.25500000000E-02 0.  1.
         31    1    1    2    0    0  0.43936162817E-01  0.26790486434E+00  0.58616476605E+02  0.59088272601E+02  0.74470750000E+01 0.  1.
        -31    1    1    2    0    0 -0.43936162817E-01 -0.26790486434E+00  0.60989212067E+02  0.61442791424E+02  0.74470750000E+01 0. -1.
<mgrwt>
<rscale>  0 0.14906932E+02</rscale>
<asrwt>0</asrwt>
<pdfrwt beam="2">  1        2 0.98275381E+00 0.14906932E+02</pdfrwt>
<pdfrwt beam="1">  1       -2 0.99663517E+00 0.14906932E+02</pdfrwt>
<totfact>-0.43387858E-13</totfact>
</mgrwt>
</event>
<event>
 4    1 -0.5021037E-019  0.1501693E+02  0.7818608E-02  0.1867552E+00
         -2   -1    0    0    0  501 -0.00000000000E+00  0.00000000000E+00  0.12033863359E+03  0.12033863362E+03  0.25500000000E-02 0.  1.
          2   -1    0    0  501    0  0.00000000000E+00 -0.00000000000E+00 -0.46848345874E+00  0.46849039863E+00  0.25500000000E-02 0. -1.
         31    1    1    2    0    0  0.75377869915E+00 -0.37017743619E+00  0.63647351316E+02  0.64087046033E+02  0.74470750000E+01 0.  1.
        -31    1    1    2    0    0 -0.75377869915E+00  0.37017743619E+00  0.56222798817E+02  0.56720077985E+02  0.74470750000E+01 0. -1.
<mgrwt>
<rscale>  0 0.15016934E+02</rscale>
<asrwt>0</asrwt>
<pdfrwt beam="2">  1        2 0.99503233E+00 0.15016934E+02</pdfrwt>
<pdfrwt beam="1">  1       -2 0.99891783E+00 0.15016934E+02</pdfrwt>
<totfact>-0.41566377E-14</totfact>
</mgrwt>
</event>
<event>
 4    1 -0.5021037E-019  0.1492393E+02  0.7818608E-02  0.1870399E+00
          2   -1    0    0  501    0  0.00000000000E+00  0.00000000000E+00  0.11899177304E+03  0.11899177307E+03  0.25500000000E-02 0. -1.
         -2   -1    0    0    0  501 -0.00000000000E+00 -0.00000000000E+00 -0.46793558200E+00  0.46794253002E+00  0.25500000000E-02 0.  1.
         31    1    1    2    0    0 -0.30369128412E+00  0.24011969664E+00  0.61411103328E+02  0.61862205133E+02  0.74470750000E+01 0. -1.
        -31    1    1    2    0    0  0.30369128412E+00 -0.24011969664E+00  0.57112734132E+02  0.57597510467E+02  0.74470750000E+01 0.  1.
<mgrwt>
<rscale>  0 0.14923927E+02</rscale>
<asrwt>0</asrwt>
<pdfrwt beam="1">  1        2 0.98777651E+00 0.14923927E+02</pdfrwt>
<pdfrwt beam="2">  1       -2 0.99382962E+00 0.14923927E+02</pdfrwt>
<totfact>-0.22202512E-13</totfact>
</mgrwt>
</event>
<event>
 4    1 -0.5021037E-019  0.1492933E+02  0.7818608E-02  0.1870233E+00
          2   -1    0    0  501    0  0.00000000000E+00  0.00000000000E+00  0.11917371821E+03  0.11917371824E+03  0.25500000000E-02 0. -1.
         -2   -1    0    0    0  501 -0.00000000000E+00 -0.00000000000E+00 -0.46755965518E+00  0.46756660879E+00  0.25500000000E-02 0.  1.
         31    1    1    2    0    0 -0.45390659371E-01  0.50930510488E+00  0.59588382849E+02  0.60054106842E+02  0.74470750000E+01 0.  1.
        -31    1    1    2    0    0  0.45390659371E-01 -0.50930510488E+00  0.59117775704E+02  0.59587178002E+02  0.74470750000E+01 0.  1.
<mgrwt>
<rscale>  0 0.14929332E+02</rscale>
<asrwt>0</asrwt>
<pdfrwt beam="1">  1        2 0.98927785E+00 0.14929332E+02</pdfrwt>
<pdfrwt beam="2">  1       -2 0.99304028E+00 0.14929332E+02</pdfrwt>
<totfact>-0.16792214E-13</totfact>
</mgrwt>
</event>
<event>
 4    1 -0.5021037E-019  0.1494338E+02  0.7818608E-02  0.1869801E+00
         -2   -1    0    0    0  501 -0.00000000000E+00  0.00000000000E+00  0.11959342286E+03  0.11959342289E+03  0.25500000000E-02 0.  1.
          2   -1    0    0  501    0  0.00000000000E+00 -0.00000000000E+00 -0.46679618606E+00  0.46680315104E+00  0.25500000000E-02 0. -1.
         31    1    1    2    0    0 -0.24544203383E+00 -0.50076228749E+00  0.61468700742E+02  0.61920683956E+02  0.74470750000E+01 0.  1.
        -31    1    1    2    0    0  0.24544203383E+00  0.50076228749E+00  0.57657925934E+02  0.58139542084E+02  0.74470750000E+01 0. -1.
<mgrwt>
<rscale>  0 0.14943383E+02</rscale>
<asrwt>0</asrwt>
<pdfrwt beam="2">  1        2 0.99143869E+00 0.14943383E+02</pdfrwt>
<pdfrwt beam="1">  1       -2 0.99274195E+00 0.14943383E+02</pdfrwt>
<totfact>-0.13004827E-13</totfact>
</mgrwt>
</event>
<event>
 4    1 -0.5021037E-019  0.1495447E+02  0.7818608E-02  0.1869461E+00
          2   -1    0    0  501    0  0.00000000000E+00  0.00000000000E+00  0.11932025737E+03  0.11932025740E+03  0.25500000000E-02 0. -1.
         -2   -1    0    0    0  501 -0.00000000000E+00 -0.00000000000E+00 -0.46855968756E+00  0.46856662633E+00  0.25500000000E-02 0.  1.
         31    1    1    2    0    0 -0.10161896936E+00 -0.30475290553E+00  0.54707604625E+02  0.55213079343E+02  0.74470750000E+01 0. -1.
        -31    1    1    2    0    0  0.10161896936E+00  0.30475290553E+00  0.64144093057E+02  0.64575744680E+02  0.74470750000E+01 0. -1.
<mgrwt>
<rscale>  0 0.14954475E+02</rscale>
<asrwt>0</asrwt>
<pdfrwt beam="1">  1        2 0.99049781E+00 0.14954475E+02</pdfrwt>
<pdfrwt beam="2">  1       -2 0.99516066E+00 0.14954475E+02</pdfrwt>
<totfact>-0.16981694E-13</totfact>
</mgrwt>
</event>
<event>
 4    1 -0.5021037E-019  0.1494041E+02  0.7818608E-02  0.1869892E+00
          2   -1    0    0  501    0  0.00000000000E+00  0.00000000000E+00  0.11886220057E+03  0.11886220059E+03  0.25500000000E-02 0.  1.
         -2   -1    0    0    0  501 -0.00000000000E+00 -0.00000000000E+00 -0.46948097843E+00  0.46948790358E+00  0.25500000000E-02 0. -1.
         31    1    1    2    0    0 -0.14116256658E-02 -0.49166792769E+00  0.61763359949E+02  0.62212645801E+02  0.74470750000E+01 0.  1.
        -31    1    1    2    0    0  0.14116256658E-02  0.49166792769E+00  0.56629359639E+02  0.57119042696E+02  0.74470750000E+01 0. -1.
<mgrwt>
<rscale>  0 0.14940409E+02</rscale>
<asrwt>0</asrwt>
<pdfrwt beam="1">  1        2 0.98671789E+00 0.14940409E+02</pdfrwt>
<pdfrwt beam="2">  1       -2 0.99709461E+00 0.14940409E+02</pdfrwt>
<totfact>-0.20870380E-13</totfact>
</mgrwt>
</event>
<event>
 4    1 -0.5021037E-019  0.1501121E+02  0.7818608E-02  0.1867727E+00
         -2   -1    0    0    0  501 -0.00000000000E+00  0.00000000000E+00  0.12027981669E+03  0.12027981671E+03  0.25500000000E-02 0. -1.
          2   -1    0    0  501    0  0.00000000000E+00 -0.00000000000E+00 -0.46835532657E+00  0.46836226836E+00  0.25500000000E-02 0.  1.
         31    1    1    2    0    0 -0.50296238052E+00 -0.52501173318E+00  0.55170228925E+02  0.55675323925E+02  0.74470750000E+01 0.  1.
        -31    1    1    2    0    0  0.50296238052E+00  0.52501173318E+00  0.64641232436E+02  0.65072855058E+02  0.74470750000E+01 0. -1.
<mgrwt>
<rscale>  0 0.15011211E+02</rscale>
<asrwt>0</asrwt>
<pdfrwt beam="2">  1        2 0.99475936E+00 0.15011211E+02</pdfrwt>
<pdfrwt beam="1">  1       -2 0.99843043E+00 0.15011211E+02</pdfrwt>
<totfact>-0.59376201E-14</totfact>
</mgrwt>
</event>
<event>
 4    1 -0.5021037E-019  0.1494280E+02  0.7818608E-02  0.1869819E+00
         -2   -1    0    0    0  501 -0.00000000000E+00  0.00000000000E+00  0.12038938999E+03  0.12038939002E+03  0.25500000000E-02 0.  1.
          2   -1    0    0  501    0  0.00000000000E+00 -0.00000000000E+00 -0.46367380647E+00  0.46368081836E+00  0.25500000000E-02 0. -1.
         31    1    1    2    0    0 -0.59322577066E+00 -0.85226852388E-01  0.59469205167E+02  0.59936670492E+02  0.74470750000E+01 0. -1.
        -31    1    1    2    0    0  0.59322577066E+00  0.85226852388E-01  0.60456511018E+02  0.60916400345E+02  0.74470750000E+01 0.  1.
<mgrwt>
<rscale>  0 0.14942802E+02</rscale>
<asrwt>0</asrwt>
<pdfrwt beam="2">  1        2 0.98485785E+00 0.14942802E+02</pdfrwt>
<pdfrwt beam="1">  1       -2 0.99929775E+00 0.14942802E+02</pdfrwt>
<totfact>-0.83062563E-14</totfact>
</mgrwt>
</event>
<event>
 4    1 -0.5021037E-019  0.1493715E+02  0.7818608E-02  0.1869992E+00
          2   -1    0    0  501    0  0.00000000000E+00  0.00000000000E+00  0.11889301784E+03  0.11889301787E+03  0.25500000000E-02 0. -1.
         -2   -1    0    0    0  501 -0.00000000000E+00 -0.00000000000E+00 -0.46915460824E+00  0.46916153821E+00  0.25500000000E-02 0.  1.
         31    1    1    2    0    0  0.21140348787E+00  0.29813896247E+00  0.55755270094E+02  0.56251601289E+02  0.74470750000E+01 0.  1.
        -31    1    1    2    0    0 -0.21140348787E+00 -0.29813896247E+00  0.62668593140E+02  0.63110578119E+02  0.74470750000E+01 0. -1.
<mgrwt>
<rscale>  0 0.14937151E+02</rscale>
<asrwt>0</asrwt>
<pdfrwt beam="1">  1        2 0.98697001E+00 0.14937151E+02</pdfrwt>
<pdfrwt beam="2">  1       -2 0.99640521E+00 0.14937151E+02</pdfrwt>
<totfact>-0.22876565E-13</totfact>
</mgrwt>
</event>
<event>
 4    1  0.5021037E-019  0.1493621E+02  0.7818608E-02  0.1870021E+00
         -2   -1    0    0    0  501 -0.00000000000E+00  0.00000000000E+00  0.11885084746E+03  0.11885084749E+03  0.25500000000E-02 0.  1.
          2   -1    0    0  501    0  0.00000000000E+00 -0.00000000000E+00 -0.46926198275E+00  0.46926891113E+00  0.25500000000E-02 0. -1.
         31    1    1    2    0    0 -0.75228960700E-01 -0.50567853737E+00  0.57363799919E+02  0.57847435876E+02  0.74470750000E+01 0. -1.
        -31    1    1    2    0    0  0.75228960700E-01  0.50567853737E+00  0.61017785558E+02  0.61472680522E+02  0.74470750000E+01 0.  1.
<mgrwt>
<rscale>  0 0.14936211E+02</rscale>
<asrwt>0</asrwt>
<pdfrwt beam="2">  1        2 0.99663096E+00 0.14936211E+02</pdfrwt>
<pdfrwt beam="1">  1       -2 0.98662221E+00 0.14936211E+02</pdfrwt>
<totfact> 0.22759651E-13</totfact>
</mgrwt>
</event>
<event>
 4    1  0.5021037E-019  0.1490995E+02  0.7818608E-02  0.1870829E+00
          2   -1    0    0  501    0  0.00000000000E+00  0.00000000000E+00  0.12019342797E+03  0.12019342800E+03  0.25500000000E-02 0.  1.
         -2   -1    0    0    0  501 -0.00000000000E+00 -0.00000000000E+00 -0.46238973381E+00  0.46239676516E+00  0.25500000000E-02 0. -1.
         31    1    1    2    0    0 -0.13951373548E+00 -0.27915568207E+00  0.61018919442E+02  0.61472472277E+02  0.74470750000E+01 0. -1.
        -31    1    1    2    0    0  0.13951373548E+00  0.27915568207E+00  0.58712118795E+02  0.59183352486E+02  0.74470750000E+01 0.  1.
<mgrwt>
<rscale>  0 0.14909947E+02</rscale>
<asrwt>0</asrwt>
<pdfrwt beam="1">  1        2 0.99766678E+00 0.14909947E+02</pdfrwt>
<pdfrwt beam="2">  1       -2 0.98213479E+00 0.14909947E+02</pdfrwt>
<totfact> 0.59000415E-13</totfact>
</mgrwt>
</event>
<event>
 4    1  0.5021037E-019  0.1491950E+02  0.7818608E-02  0.1870535E+00
          2   -1    0    0  501    0  0.00000000000E+00  0.00000000000E+00  0.12019693000E+03  0.12019693003E+03  0.25500000000E-02 0. -1.
         -2   -1    0    0    0  501 -0.00000000000E+00 -0.00000000000E+00 -0.46296923592E+00  0.46297625847E+00  0.25500000000E-02 0.  1.
         31    1    1    2    0    0  0.17628582962E+00 -0.29477661500E+00  0.62022087008E+02  0.62468521455E+02  0.74470750000E+01 0. -1.
        -31    1    1    2    0    0 -0.17628582962E+00  0.29477661500E+00  0.57711873755E+02  0.58191384829E+02  0.74470750000E+01 0.  1.
<mgrwt>
<rscale>  0 0.14919505E+02</rscale>
<asrwt>0</asrwt>
<pdfrwt beam="1">  1        2 0.99770053E+00 0.14919505E+02</pdfrwt>
<pdfrwt beam="2">  1       -2 0.98336105E+00 0.14919505E+02</pdfrwt>
<totfact> 0.44870953E-13</totfact>
</mgrwt>
</event>
<event>
 4    1 -0.5021037E-019  0.1498891E+02  0.7818608E-02  0.1868407E+00
         -2   -1    0    0    0  501 -0.00000000000E+00  0.00000000000E+00  0.12018653230E+03  0.12018653232E+03  0.25500000000E-02 0.  1.
          2   -1    0    0  501    0  0.00000000000E+00 -0.00000000000E+00 -0.46732714781E+00  0.46733410488E+00  0.25500000000E-02 0. -1.
         31    1    1    2    0    0 -0.39530052652E+00  0.67253577810E+00  0.62396904000E+02  0.62844579095E+02  0.74470750000E+01 0.  1.
        -31    1    1    2    0    0  0.39530052652E+00 -0.67253577810E+00  0.57322301150E+02  0.57809287334E+02  0.74470750000E+01 0.  1.
<mgrwt>
<rscale>  0 0.14988909E+02</rscale>
<asrwt>0</asrwt>
<pdfrwt beam="2">  1        2 0.99258107E+00 0.14988909E+02</pdfrwt>
<pdfrwt beam="1">  1       -2 0.99765058E+00 0.14988909E+02</pdfrwt>
<totfact>-0.97855927E-14</totfact>
</mgrwt>
</event>
<event>
 4    1 -0.5021037E-019  0.1495967E+02  0.7818608E-02  0.1869302E+00
         -2   -1    0    0    0  501 -0.00000000000E+00  0.00000000000E+00  0.11998897921E+03  0.11998897923E+03  0.25500000000E-02 0.  1.
          2   -1    0    0  501    0  0.00000000000E+00 -0.00000000000E+00 -0.46627211347E+00  0.46627908628E+00  0.25500000000E-02 0. -1.
         31    1    1    2    0    0 -0.88397906548E-01 -0.34878194227E+00  0.64589515434E+02  0.65018411955E+02  0.74470750000E+01 0. -1.
        -31    1    1    2    0    0  0.88397906548E-01  0.34878194227E+00  0.54933191659E+02  0.55436846366E+02  0.74470750000E+01 0. -1.
<mgrwt>
<rscale>  0 0.14959671E+02</rscale>
<asrwt>0</asrwt>
<pdfrwt beam="2">  1        2 0.99034261E+00 0.14959671E+02</pdfrwt>
<pdfrwt beam="1">  1       -2 0.99600835E+00 0.14959671E+02</pdfrwt>
<totfact>-0.16219041E-13</totfact>
</mgrwt>
</event>
<event>
 4    1  0.5021037E-019  0.1491609E+02  0.7818608E-02  0.1870640E+00
         -2   -1    0    0    0  501 -0.00000000000E+00  0.00000000000E+00  0.11899943588E+03  0.11899943590E+03  0.25500000000E-02 0. -1.
          2   -1    0    0  501    0  0.00000000000E+00 -0.00000000000E+00 -0.46741390760E+00  0.46742086338E+00  0.25500000000E-02 0.  1.
         31    1    1    2    0    0 -0.14988477674E-01  0.28899765877E+00  0.57004360614E+02  0.57489475553E+02  0.74470750000E+01 0.  1.
        -31    1    1    2    0    0  0.14988477674E-01 -0.28899765877E+00  0.61527661355E+02  0.61977381214E+02  0.74470750000E+01 0. -1.
<mgrwt>
<rscale>  0 0.14916086E+02</rscale>
<asrwt>0</asrwt>
<pdfrwt beam="2">  1        2 0.99272626E+00 0.14916086E+02</pdfrwt>
<pdfrwt beam="1">  1       -2 0.98783556E+00 0.14916086E+02</pdfrwt>
<totfact> 0.19957826E-13</totfact>
</mgrwt>
</event>
<event>
 4    1 -0.5021037E-019  0.1502817E+02  0.7818608E-02  0.1867210E+00
         -2   -1    0    0    0  501 -0.00000000000E+00  0.00000000000E+00  0.12019620386E+03  0.12019620388E+03  0.25500000000E-02 0.  1.
          2   -1    0    0  501    0  0.00000000000E+00 -0.00000000000E+00 -0.46974062527E+00  0.46974754660E+00  0.25500000000E-02 0. -1.
         31    1    1    2    0    0  0.45460337724E-01 -0.37686174351E+00  0.67302566340E+02  0.67714388821E+02  0.74470750000E+01 0.  1.
        -31    1    1    2    0    0 -0.45460337724E-01  0.37686174351E+00  0.52423896890E+02  0.52951562608E+02  0.74470750000E+01 0. -1.
<mgrwt>
<rscale>  0 0.15028168E+02</rscale>
<asrwt>0</asrwt>
<pdfrwt beam="2">  1        2 0.99768746E+00 0.15028168E+02</pdfrwt>
<pdfrwt beam="1">  1       -2 0.99775051E+00 0.15028168E+02</pdfrwt>
<totfact>-0.47726936E-14</totfact>
</mgrwt>
</event>
<event>
 4    1  0.5021037E-019  0.1489958E+02  0.7818608E-02  0.1871148E+00
          2   -1    0    0  501    0  0.00000000000E+00  0.00000000000E+00  0.12021191996E+03  0.12021191998E+03  0.25500000000E-02 0. -1.
         -2   -1    0    0    0  501 -0.00000000000E+00 -0.00000000000E+00 -0.46167581651E+00  0.46168285874E+00  0.25500000000E-02 0.  1.
         31    1    1    2    0    0 -0.15653662778E+00  0.12098256942E+00  0.60166722616E+02  0.60626170726E+02  0.74470750000E+01 0.  1.
        -31    1    1    2    0    0  0.15653662778E+00 -0.12098256942E+00  0.59583521524E+02  0.60047432117E+02  0.74470750000E+01 0.  1.
<mgrwt>
<rscale>  0 0.14899579E+02</rscale>
<asrwt>0</asrwt>
<pdfrwt beam="1">  1        2 0.99781378E+00 0.14899579E+02</pdfrwt>
<pdfrwt beam="2">  1       -2 0.98062481E+00 0.14899579E+02</pdfrwt>
<totfact> 0.74689638E-13</totfact>
</mgrwt>
</event>
<event>
 4    1 -0.5021037E-019  0.1491404E+02  0.7818608E-02  0.1870703E+00
         -2   -1    0    0    0  501 -0.00000000000E+00  0.00000000000E+00  0.11986156611E+03  0.11986156614E+03  0.25500000000E-02 0.  1.
          2   -1    0    0  501    0  0.00000000000E+00 -0.00000000000E+00 -0.46392453438E+00  0.46393154247E+00  0.25500000000E-02 0. -1.
         31    1    1    2    0    0  0.23326745997E+00 -0.23420333613E+00  0.61291160938E+02  0.61742810109E+02  0.74470750000E+01 0.  1.
        -31    1    1    2    0    0 -0.23326745997E+00  0.23420333613E+00  0.58106480641E+02  0.58582687575E+02  0.74470750000E+01 0. -1.
<mgrwt>
<rscale>  0 0.14914040E+02</rscale>
<asrwt>0</asrwt>
<pdfrwt beam="2">  1        2 0.98537170E+00 0.14914040E+02</pdfrwt>
<pdfrwt beam="1">  1       -2 0.99493540E+00 0.14914040E+02</pdfrwt>
<totfact>-0.32739448E-13</totfact>
</mgrwt>
</event>
<event>
 4    1 -0.5021037E-019  0.1493898E+02  0.7818608E-02  0.1869936E+00
          2   -1    0    0  501    0  0.00000000000E+00  0.00000000000E+00  0.11945611597E+03  0.11945611599E+03  0.25500000000E-02 0.  1.
         -2   -1    0    0    0  501 -0.00000000000E+00 -0.00000000000E+00 -0.46705710793E+00  0.46706406902E+00  0.25500000000E-02 0. -1.
         31    1    1    2    0    0 -0.55210632824E-01  0.43929964911E+00  0.56509314851E+02  0.56999628274E+02  0.74470750000E+01 0. -1.
        -31    1    1    2    0    0  0.55210632824E-01 -0.43929964911E+00  0.62479744009E+02  0.62923551790E+02  0.74470750000E+01 0.  1.
<mgrwt>
<rscale>  0 0.14938975E+02</rscale>
<asrwt>0</asrwt>
<pdfrwt beam="1">  1        2 0.99160876E+00 0.14938975E+02</pdfrwt>
<pdfrwt beam="2">  1       -2 0.99198626E+00 0.14938975E+02</pdfrwt>
<totfact>-0.10238339E-13</totfact>
</mgrwt>
</event>
<event>
 4    1  0.5021037E-019  0.1494386E+02  0.7818608E-02  0.1869786E+00
          2   -1    0    0  501    0  0.00000000000E+00  0.00000000000E+00  0.11992483835E+03  0.11992483838E+03  0.25500000000E-02 0. -1.
         -2   -1    0    0    0  501 -0.00000000000E+00 -0.00000000000E+00 -0.46553607670E+00  0.46554306054E+00  0.25500000000E-02 0.  1.
         31    1    1    2    0    0  0.19779034611E-01 -0.11692465289E+00  0.64541637337E+02  0.64969961819E+02  0.74470750000E+01 0. -1.
        -31    1    1    2    0    0 -0.19779034611E-01  0.11692465289E+00  0.54917664941E+02  0.55420419623E+02  0.74470750000E+01 0.  1.
<mgrwt>
<rscale>  0 0.14943863E+02</rscale>
<asrwt>0</asrwt>
<pdfrwt beam="1">  1        2 0.99547191E+00 0.14943863E+02</pdfrwt>
<pdfrwt beam="2">  1       -2 0.98878332E+00 0.14943863E+02</pdfrwt>
<totfact> 0.83746202E-14</totfact>
</mgrwt>
</event>
<event>
 4    1  0.5021037E-019  0.1492147E+02  0.7818608E-02  0.1870474E+00
         -2   -1    0    0    0  501 -0.00000000000E+00  0.00000000000E+00  0.11855784740E+03  0.11855784743E+03  0.25500000000E-02 0.  1.
          2   -1    0    0  501    0  0.00000000000E+00 -0.00000000000E+00 -0.46949393169E+00  0.46950085665E+00  0.25500000000E-02 0. -1.
         31    1    1    2    0    0 -0.24661914781E+00  0.31738302207E+00  0.57406971815E+02  0.57889384968E+02  0.74470750000E+01 0. -1.
        -31    1    1    2    0    0  0.24661914781E+00 -0.31738302207E+00  0.60681381651E+02  0.61137963314E+02  0.74470750000E+01 0.  1.
<mgrwt>
<rscale>  0 0.14921475E+02</rscale>
<asrwt>0</asrwt>
<pdfrwt beam="2">  1        2 0.99711194E+00 0.14921475E+02</pdfrwt>
<pdfrwt beam="1">  1       -2 0.98420139E+00 0.14921475E+02</pdfrwt>
<totfact> 0.43173923E-13</totfact>
</mgrwt>
</event>
<event>
 4    1 -0.5021037E-019  0.1491350E+02  0.7818608E-02  0.1870720E+00
          2   -1    0    0  501    0  0.00000000000E+00  0.00000000000E+00  0.11851250783E+03  0.11851250786E+03  0.25500000000E-02 0. -1.
         -2   -1    0    0    0  501 -0.00000000000E+00 -0.00000000000E+00 -0.46917160308E+00  0.46917853279E+00  0.25500000000E-02 0.  1.
         31    1    1    2    0    0  0.22303113132E+00 -0.18564096333E+00  0.60975666847E+02  0.61429431700E+02  0.74470750000E+01 0.  1.
        -31    1    1    2    0    0 -0.22303113132E+00  0.18564096333E+00  0.57067669378E+02  0.57552254688E+02  0.74470750000E+01 0.  1.
<mgrwt>
<rscale>  0 0.14913500E+02</rscale>
<asrwt>0</asrwt>
<pdfrwt beam="1">  1        2 0.98382383E+00 0.14913500E+02</pdfrwt>
<pdfrwt beam="2">  1       -2 0.99642858E+00 0.14913500E+02</pdfrwt>
<totfact>-0.37448397E-13</totfact>
</mgrwt>
</event>
<event>
 4    1  0.5021037E-019  0.1492125E+02  0.7818608E-02  0.1870481E+00
         -2   -1    0    0    0  501 -0.00000000000E+00  0.00000000000E+00  0.11888619431E+03  0.11888619433E+03  0.25500000000E-02 0. -1.
          2   -1    0    0  501    0  0.00000000000E+00 -0.00000000000E+00 -0.46818307262E+00  0.46819001697E+00  0.25500000000E-02 0.  1.
         31    1    1    2    0    0 -0.15587144307E+00  0.37145299451E+00  0.57614813825E+02  0.58095507325E+02  0.74470750000E+01 0.  1.
        -31    1    1    2    0    0  0.15587144307E+00 -0.37145299451E+00  0.60803197409E+02  0.61258877026E+02  0.74470750000E+01 0. -1.
<mgrwt>
<rscale>  0 0.14921249E+02</rscale>
<asrwt>0</asrwt>
<pdfrwt beam="2">  1        2 0.99434973E+00 0.14921249E+02</pdfrwt>
<pdfrwt beam="1">  1       -2 0.98690556E+00 0.14921249E+02</pdfrwt>
<totfact> 0.27168965E-13</totfact>
</mgrwt>
</event>
<event>
 4    1 -0.5021037E-019  0.1491810E+02  0.7818608E-02  0.1870578E+00
          2   -1    0    0  501    0  0.00000000000E+00  0.00000000000E+00  0.11827698903E+03  0.11827698906E+03  0.25500000000E-02 0. -1.
         -2   -1    0    0    0  501 -0.00000000000E+00 -0.00000000000E+00 -0.47039614725E+00  0.47040305892E+00  0.25500000000E-02 0.  1.
         31    1    1    2    0    0 -0.50967978775E-02  0.17080470520E+00  0.61979235358E+02  0.62425265252E+02  0.74470750000E+01 0. -1.
        -31    1    1    2    0    0  0.50967978775E-02 -0.17080470520E+00  0.55827357526E+02  0.56322126865E+02  0.74470750000E+01 0.  1.
<mgrwt>
<rscale>  0 0.14918103E+02</rscale>
<asrwt>0</asrwt>
<pdfrwt beam="1">  1        2 0.98188652E+00 0.14918103E+02</pdfrwt>
<pdfrwt beam="2">  1       -2 0.99901109E+00 0.14918103E+02</pdfrwt>
<totfact>-0.18806523E-13</totfact>
</mgrwt>
</event>
<event>
 4    1 -0.5021037E-019  0.1497071E+02  0.7818608E-02  0.1868964E+00
          2   -1    0    0  501    0  0.00000000000E+00  0.00000000000E+00  0.11932963336E+03  0.11932963338E+03  0.25500000000E-02 0.  1.
         -2   -1    0    0    0  501 -0.00000000000E+00 -0.00000000000E+00 -0.46954056926E+00  0.46954749353E+00  0.25500000000E-02 0. -1.
         31    1    1    2    0    0 -0.25652843646E+00 -0.54556270188E+00  0.63080934254E+02  0.63521859528E+02  0.74470750000E+01 0.  1.
        -31    1    1    2    0    0  0.25652843646E+00  0.54556270188E+00  0.55779158533E+02  0.56277321349E+02  0.74470750000E+01 0. -1.
<mgrwt>
<rscale>  0 0.14970707E+02</rscale>
<asrwt>0</asrwt>
<pdfrwt beam="1">  1        2 0.99058345E+00 0.14970707E+02</pdfrwt>
<pdfrwt beam="2">  1       -2 0.99723604E+00 0.14970707E+02</pdfrwt>
<totfact>-0.12840157E-13</totfact>
</mgrwt>
</event>
<event>
 4    1  0.5021037E-019  0.1490370E+02  0.7818608E-02  0.1871021E+00
         -2   -1    0    0    0  501 -0.00000000000E+00  0.00000000000E+00  0.11878055386E+03  0.11878055389E+03  0.25500000000E-02 0.  1.
          2   -1    0    0  501    0  0.00000000000E+00 -0.00000000000E+00 -0.46749780177E+00  0.46750475629E+00  0.25500000000E-02 0. -1.
         31    1    1    2    0    0  0.16851336669E+00 -0.20628020697E+00  0.59046302937E+02  0.59514668485E+02  0.74470750000E+01 0. -1.
        -31    1    1    2    0    0 -0.16851336669E+00  0.20628020697E+00  0.59266753124E+02  0.59733390162E+02  0.74470750000E+01 0.  1.
<mgrwt>
<rscale>  0 0.14903699E+02</rscale>
<asrwt>0</asrwt>
<pdfrwt beam="2">  1        2 0.99289658E+00 0.14903699E+02</pdfrwt>
<pdfrwt beam="1">  1       -2 0.98602638E+00 0.14903699E+02</pdfrwt>
<totfact> 0.42054387E-13</totfact>
</mgrwt>
</event>
<event>
 4    1  0.5021037E-019  0.1492196E+02  0.7818608E-02  0.1870459E+00
         -2   -1    0    0    0  501 -0.00000000000E+00  0.00000000000E+00  0.11887498657E+03  0.11887498660E+03  0.25500000000E-02 0.  1.
          2   -1    0    0  501    0  0.00000000000E+00 -0.00000000000E+00 -0.46827177166E+00  0.46827871470E+00  0.25500000000E-02 0. -1.
         31    1    1    2    0    0 -0.16277752243E-02  0.13167356441E-01  0.55563559809E+02  0.56060398507E+02  0.74470750000E+01 0. -1.
        -31    1    1    2    0    0  0.16277752243E-02 -0.13167356441E-01  0.62843154987E+02  0.63282866803E+02  0.74470750000E+01 0.  1.
<mgrwt>
<rscale>  0 0.14921959E+02</rscale>
<asrwt>0</asrwt>
<pdfrwt beam="2">  1        2 0.99453700E+00 0.14921959E+02</pdfrwt>
<pdfrwt beam="1">  1       -2 0.98681362E+00 0.14921959E+02</pdfrwt>
<totfact> 0.27728917E-13</totfact>
</mgrwt>
</event>
<event>
 4    1  0.5021037E-019  0.1494547E+02  0.7818608E-02  0.1869737E+00
         -2   -1    0    0    0  501 -0.00000000000E+00  0.00000000000E+00  0.11888237299E+03  0.11888237301E+03  0.25500000000E-02 0.  1.
          2   -1    0    0  501    0  0.00000000000E+00 -0.00000000000E+00 -0.46971910625E+00  0.46972602789E+00  0.25500000000E-02 0. -1.
         31    1    1    2    0    0  0.19630351450E+00  0.25281251581E+00  0.63434762378E+02  0.63871202065E+02  0.74470750000E+01 0.  1.
        -31    1    1    2    0    0 -0.19630351450E+00 -0.25281251581E+00  0.54977891501E+02  0.55480896975E+02  0.74470750000E+01 0. -1.
<mgrwt>
<rscale>  0 0.14945466E+02</rscale>
<asrwt>0</asrwt>
<pdfrwt beam="2">  1        2 0.99759902E+00 0.14945466E+02</pdfrwt>
<pdfrwt beam="1">  1       -2 0.98688666E+00 0.14945466E+02</pdfrwt>
<totfact> 0.16243521E-13</totfact>
</mgrwt>
</event>
<event>
 4    1  0.5021037E-019  0.1491175E+02  0.7818608E-02  0.1870774E+00
         -2   -1    0    0    0  501 -0.00000000000E+00  0.00000000000E+00  0.11910770125E+03  0.11910770128E+03  0.25500000000E-02 0. -1.
          2   -1    0    0  501    0  0.00000000000E+00 -0.00000000000E+00 -0.46671748908E+00  0.46672445523E+00  0.25500000000E-02 0.  1.
         31    1    1    2    0    0  0.35006329331E+00  0.88130275162E-01  0.59551242067E+02  0.60016161732E+02  0.74470750000E+01 0.  1.
        -31    1    1    2    0    0 -0.35006329331E+00 -0.88130275162E-01  0.59089741694E+02  0.59558264000E+02  0.74470750000E+01 0.  1.
<mgrwt>
<rscale>  0 0.14911749E+02</rscale>
<asrwt>0</asrwt>
<pdfrwt beam="2">  1        2 0.99125648E+00 0.14911749E+02</pdfrwt>
<pdfrwt beam="1">  1       -2 0.98872501E+00 0.14911749E+02</pdfrwt>
<totfact> 0.12433471E-13</totfact>
</mgrwt>
</event>
<event>
 4    1  0.5021037E-019  0.1494089E+02  0.7818608E-02  0.1869878E+00
         -2   -1    0    0    0  501 -0.00000000000E+00  0.00000000000E+00  0.11860208073E+03  0.11860208075E+03  0.25500000000E-02 0. -1.
          2   -1    0    0  501    0  0.00000000000E+00 -0.00000000000E+00 -0.47054085339E+00  0.47054776294E+00  0.25500000000E-02 0.  1.
         31    1    1    2    0    0  0.53828751826E+00 -0.18581504689E+00  0.60308885165E+02  0.60769604545E+02  0.74470750000E+01 0. -1.
        -31    1    1    2    0    0 -0.53828751826E+00  0.18581504689E+00  0.57822654707E+02  0.58303023970E+02  0.74470750000E+01 0.  1.
<mgrwt>
<rscale>  0 0.14940888E+02</rscale>
<asrwt>0</asrwt>
<pdfrwt beam="2">  1        2 0.99932804E+00 0.14940888E+02</pdfrwt>
<pdfrwt beam="1">  1       -2 0.98457580E+00 0.14940888E+02</pdfrwt>
<totfact> 0.11642830E-13</totfact>
</mgrwt>
</event>
<event>
 4    1  0.5021037E-019  0.1492806E+02  0.7818608E-02  0.1870272E+00
          2   -1    0    0  501    0  0.00000000000E+00  0.00000000000E+00  0.12040612585E+03  0.12040612587E+03  0.25500000000E-02 0.  1.
         -2   -1    0    0    0  501 -0.00000000000E+00 -0.00000000000E+00 -0.46269519811E+00  0.46270222482E+00  0.25500000000E-02 0. -1.
         31    1    1    2    0    0  0.14542598124E+00 -0.45555162702E+00  0.58713185022E+02  0.59185519322E+02  0.74470750000E+01 0. -1.
        -31    1    1    2    0    0 -0.14542598124E+00  0.45555162702E+00  0.61230245628E+02  0.61683308777E+02  0.74470750000E+01 0.  1.
<mgrwt>
<rscale>  0 0.14928063E+02</rscale>
<asrwt>0</asrwt>
<pdfrwt beam="1">  1        2 0.99942804E+00 0.14928063E+02</pdfrwt>
<pdfrwt beam="2">  1       -2 0.98278777E+00 0.14928063E+02</pdfrwt>
<totfact> 0.15344186E-13</totfact>
</mgrwt>
</event>
<event>
 4    1 -0.5021037E-019  0.1491669E+02  0.7818608E-02  0.1870621E+00
          2   -1    0    0  501    0  0.00000000000E+00  0.00000000000E+00  0.11889485404E+03  0.11889485407E+03  0.25500000000E-02 0. -1.
         -2   -1    0    0    0  501 -0.00000000000E+00 -0.00000000000E+00 -0.46786303292E+00  0.46786998201E+00  0.25500000000E-02 0.  1.
         31    1    1    2    0    0 -0.35610703995E-02  0.40399790031E+00  0.58660819599E+02  0.59133018772E+02  0.74470750000E+01 0.  1.
        -31    1    1    2    0    0  0.35610703995E-02 -0.40399790031E+00  0.59766171408E+02  0.60229705277E+02  0.74470750000E+01 0. -1.
<mgrwt>
<rscale>  0 0.14916692E+02</rscale>
<asrwt>0</asrwt>
<pdfrwt beam="1">  1        2 0.98697452E+00 0.14916692E+02</pdfrwt>
<pdfrwt beam="2">  1       -2 0.99367297E+00 0.14916692E+02</pdfrwt>
<totfact>-0.24431774E-13</totfact>
</mgrwt>
</event>
<event>
 4    1  0.5021037E-019  0.1489493E+02  0.7818608E-02  0.1871292E+00
         -2   -1    0    0    0  501 -0.00000000000E+00  0.00000000000E+00  0.11830146288E+03  0.11830146291E+03  0.25500000000E-02 0. -1.
          2   -1    0    0  501    0  0.00000000000E+00 -0.00000000000E+00 -0.46883869304E+00  0.46884562767E+00  0.25500000000E-02 0.  1.
         31    1    1    2    0    0  0.46566802080E-01  0.43968703359E-02  0.59394932835E+02  0.59859996327E+02  0.74470750000E+01 0. -1.
        -31    1    1    2    0    0 -0.46566802080E-01 -0.43968703359E-02  0.58437691352E+02  0.58910312208E+02  0.74470750000E+01 0.  1.
<mgrwt>
<rscale>  0 0.14894928E+02</rscale>
<asrwt>0</asrwt>
<pdfrwt beam="2">  1        2 0.99571734E+00 0.14894928E+02</pdfrwt>
<pdfrwt beam="1">  1       -2 0.98207601E+00 0.14894928E+02</pdfrwt>
<totfact> 0.88936540E-13</totfact>
</mgrwt>
</event>
<event>
 4    1 -0.5021037E-019  0.1494659E+02  0.7818608E-02  0.1869703E+00
          2   -1    0    0  501    0  0.00000000000E+00  0.00000000000E+00  0.11887766702E+03  0.11887766705E+03  0.25500000000E-02 0.  1.
         -2   -1    0    0    0  501 -0.00000000000E+00 -0.00000000000E+00 -0.46980860114E+00  0.46981552146E+00  0.25500000000E-02 0. -1.
         31    1    1    2    0    0  0.58743823030E+00 -0.13614702681E+00  0.57876909465E+02  0.58357169182E+02  0.74470750000E+01 0. -1.
        -31    1    1    2    0    0 -0.58743823030E+00  0.13614702681E+00  0.60530948958E+02  0.60990313391E+02  0.74470750000E+01 0.  1.
<mgrwt>
<rscale>  0 0.14946594E+02</rscale>
<asrwt>0</asrwt>
<pdfrwt beam="1">  1        2 0.98684849E+00 0.14946594E+02</pdfrwt>
<pdfrwt beam="2">  1       -2 0.99778818E+00 0.14946594E+02</pdfrwt>
<totfact>-0.16803516E-13</totfact>
</mgrwt>
</event>
<event>
 4    1  0.5021037E-019  0.1491103E+02  0.7818608E-02  0.1870796E+00
          2   -1    0    0  501    0  0.00000000000E+00  0.00000000000E+00  0.12035329732E+03  0.12035329734E+03  0.25500000000E-02 0.  1.
         -2   -1    0    0    0  501 -0.00000000000E+00 -0.00000000000E+00 -0.46184231414E+00  0.46184935383E+00  0.25500000000E-02 0. -1.
         31    1    1    2    0    0  0.25134787993E+00  0.21237769960E+00  0.58874918032E+02  0.59344950749E+02  0.74470750000E+01 0. -1.
        -31    1    1    2    0    0 -0.25134787993E+00 -0.21237769960E+00  0.61016536970E+02  0.61470195948E+02  0.74470750000E+01 0.  1.
<mgrwt>
<rscale>  0 0.14911026E+02</rscale>
<asrwt>0</asrwt>
<pdfrwt beam="1">  1        2 0.99898416E+00 0.14911026E+02</pdfrwt>
<pdfrwt beam="2">  1       -2 0.98098151E+00 0.14911026E+02</pdfrwt>
<totfact> 0.37060395E-13</totfact>
</mgrwt>
</event>
<event>
 4    1 -0.5021037E-019  0.1492003E+02  0.7818608E-02  0.1870519E+00
         -2   -1    0    0    0  501 -0.00000000000E+00  0.00000000000E+00  0.11958019475E+03  0.11958019477E+03  0.25500000000E-02 0.  1.
          2   -1    0    0  501    0  0.00000000000E+00 -0.00000000000E+00 -0.46538968701E+00  0.46539667304E+00  0.25500000000E-02 0. -1.
         31    1    1    2    0    0 -0.43830440566E+00  0.63498749818E-02  0.59339532771E+02  0.59806615242E+02  0.74470750000E+01 0. -1.
        -31    1    1    2    0    0  0.43830440566E+00 -0.63498749818E-02  0.59775272289E+02  0.60238976206E+02  0.74470750000E+01 0.  1.
<mgrwt>
<rscale>  0 0.14920028E+02</rscale>
<asrwt>0</asrwt>
<pdfrwt beam="2">  1        2 0.98846259E+00 0.14920028E+02</pdfrwt>
<pdfrwt beam="1">  1       -2 0.99262094E+00 0.14920028E+02</pdfrwt>
<totfact>-0.16884173E-13</totfact>
</mgrwt>
</event>
<event>
 4    1 -0.5021037E-019  0.1490221E+02  0.7818608E-02  0.1871067E+00
         -2   -1    0    0    0  501 -0.00000000000E+00  0.00000000000E+00  0.12013242795E+03  0.12013242797E+03  0.25500000000E-02 0.  1.
          2   -1    0    0  501    0  0.00000000000E+00 -0.00000000000E+00 -0.46214440123E+00  0.46215143631E+00  0.25500000000E-02 0. -1.
         31    1    1    2    0    0 -0.11369068226E+00 -0.12069235861E+00  0.58375444423E+02  0.58848780190E+02  0.74470750000E+01 0. -1.
        -31    1    1    2    0    0  0.11369068226E+00  0.12069235861E+00  0.61294839123E+02  0.61745799221E+02  0.74470750000E+01 0.  1.
<mgrwt>
<rscale>  0 0.14902209E+02</rscale>
<asrwt>0</asrwt>
<pdfrwt beam="2">  1        2 0.98161379E+00 0.14902209E+02</pdfrwt>
<pdfrwt beam="1">  1       -2 0.99716036E+00 0.14902209E+02</pdfrwt>
<totfact>-0.47263731E-13</totfact>
</mgrwt>
</event>
<event>
 4    1 -0.5021037E-019  0.1499302E+02  0.7818608E-02  0.1868281E+00
          2   -1    0    0  501    0  0.00000000000E+00  0.00000000000E+00  0.11993300667E+03  0.11993300670E+03  0.25500000000E-02 0.  1.
         -2   -1    0    0    0  501 -0.00000000000E+00 -0.00000000000E+00 -0.46857218315E+00  0.46857912173E+00  0.25500000000E-02 0. -1.
         31    1    1    2    0    0 -0.81459437019E+00 -0.25358763461E+00  0.60570371976E+02  0.61032423826E+02  0.74470750000E+01 0.  1.
        -31    1    1    2    0    0  0.81459437019E+00  0.25358763461E+00  0.58894062511E+02  0.59369161993E+02  0.74470750000E+01 0.  1.
<mgrwt>
<rscale>  0 0.14993024E+02</rscale>
<asrwt>0</asrwt>
<pdfrwt beam="1">  1        2 0.99556455E+00 0.14993024E+02</pdfrwt>
<pdfrwt beam="2">  1       -2 0.99520698E+00 0.14993024E+02</pdfrwt>
<totfact>-0.11120868E-13</totfact>
</mgrwt>
</event>
<event>
 4    1  0.5021037E-019  0.1491001E+02  0.7818608E-02  0.1870827E+00
          2   -1    0    0  501    0  0.00000000000E+00  0.00000000000E+00  0.11971972089E+03  0.11971972092E+03  0.25500000000E-02 0. -1.
         -2   -1    0    0    0  501 -0.00000000000E+00 -0.00000000000E+00 -0.46422296988E+00  0.46422997347E+00  0.25500000000E-02 0.  1.
         31    1    1    2    0    0 -0.12524067604E+00  0.19045458193E+00  0.57554073775E+02  0.58034319952E+02  0.74470750000E+01 0.  1.
        -31    1    1    2    0    0  0.12524067604E+00 -0.19045458193E+00  0.61701424144E+02  0.62149630937E+02  0.74470750000E+01 0. -1.
<mgrwt>
<rscale>  0 0.14910006E+02</rscale>
<asrwt>0</asrwt>
<pdfrwt beam="1">  1        2 0.99376499E+00 0.14910006E+02</pdfrwt>
<pdfrwt beam="2">  1       -2 0.98599861E+00 0.14910006E+02</pdfrwt>
<totfact> 0.39802419E-13</totfact>
</mgrwt>
</event>
<event>
 4    1 -0.5021037E-019  0.1499405E+02  0.7818608E-02  0.1868250E+00
         -2   -1    0    0    0  501 -0.00000000000E+00  0.00000000000E+00  0.11994419926E+03  0.11994419929E+03  0.25500000000E-02 0. -1.
          2   -1    0    0  501    0  0.00000000000E+00 -0.00000000000E+00 -0.46859246338E+00  0.46859940166E+00  0.25500000000E-02 0.  1.
         31    1    1    2    0    0  0.57200024043E+00 -0.61950026327E+00  0.61250398316E+02  0.61707221496E+02  0.74470750000E+01 0.  1.
        -31    1    1    2    0    0 -0.57200024043E+00  0.61950026327E+00  0.58225208480E+02  0.58705577192E+02  0.74470750000E+01 0.  1.
<mgrwt>
<rscale>  0 0.14994048E+02</rscale>
<asrwt>0</asrwt>
<pdfrwt beam="2">  1        2 0.99525025E+00 0.14994048E+02</pdfrwt>
<pdfrwt beam="1">  1       -2 0.99565727E+00 0.14994048E+02</pdfrwt>
<totfact>-0.11246284E-13</totfact>
</mgrwt>
</event>
<event>
 4    1  0.5021037E-019  0.1493894E+02  0.7818608E-02  0.1869937E+00
          2   -1    0    0  501    0  0.00000000000E+00  0.00000000000E+00  0.12029359972E+03  0.12029359975E+03  0.25500000000E-02 0. -1.
         -2   -1    0    0    0  501 -0.00000000000E+00 -0.00000000000E+00 -0.46380338983E+00  0.46381039975E+00  0.25500000000E-02 0.  1.
         31    1    1    2    0    0 -0.16892539614E+00 -0.44453547996E+00  0.57259276802E+02  0.57743483213E+02  0.74470750000E+01 0.  1.
        -31    1    1    2    0    0  0.16892539614E+00  0.44453547996E+00  0.62570519527E+02  0.63013926933E+02  0.74470750000E+01 0. -1.
<mgrwt>
<rscale>  0 0.14938943E+02</rscale>
<asrwt>0</asrwt>
<pdfrwt beam="1">  1        2 0.99850676E+00 0.14938943E+02</pdfrwt>
<pdfrwt beam="2">  1       -2 0.98512902E+00 0.14938943E+02</pdfrwt>
<totfact> 0.20268309E-13</totfact>
</mgrwt>
</event>
<event>
 4    1 -0.5021037E-019  0.1499725E+02  0.7818608E-02  0.1868152E+00
          2   -1    0    0  501    0  0.00000000000E+00  0.00000000000E+00  0.11953328994E+03  0.11953328996E+03  0.25500000000E-02 0.  1.
         -2   -1    0    0    0  501 -0.00000000000E+00 -0.00000000000E+00 -0.47040410312E+00  0.47041101468E+00  0.25500000000E-02 0. -1.
         31    1    1    2    0    0 -0.69274777637E+00 -0.53897231576E+00  0.59587847296E+02  0.60057812665E+02  0.74470750000E+01 0. -1.
        -31    1    1    2    0    0  0.69274777637E+00  0.53897231576E+00  0.59475038537E+02  0.59945888313E+02  0.74470750000E+01 0. -1.
<mgrwt>
<rscale>  0 0.14997249E+02</rscale>
<asrwt>0</asrwt>
<pdfrwt beam="1">  1        2 0.99227456E+00 0.14997249E+02</pdfrwt>
<pdfrwt beam="2">  1       -2 0.99906951E+00 0.14997249E+02</pdfrwt>
<totfact>-0.45161662E-14</totfact>
</mgrwt>
</event>
<event>
 4    1 -0.5021037E-019  0.1495990E+02  0.7818608E-02  0.1869294E+00
          2   -1    0    0  501    0  0.00000000000E+00  0.00000000000E+00  0.11937902507E+03  0.11937902509E+03  0.25500000000E-02 0. -1.
         -2   -1    0    0    0  501 -0.00000000000E+00 -0.00000000000E+00 -0.46866918925E+00  0.46867612639E+00  0.25500000000E-02 0.  1.
         31    1    1    2    0    0  0.66494966390E+00 -0.50922552658E-01  0.57736748348E+02  0.58218861094E+02  0.74470750000E+01 0.  1.
        -31    1    1    2    0    0 -0.66494966390E+00  0.50922552658E-01  0.61173607529E+02  0.61628840127E+02  0.74470750000E+01 0.  1.
<mgrwt>
<rscale>  0 0.14959905E+02</rscale>
<asrwt>0</asrwt>
<pdfrwt beam="1">  1        2 0.99098465E+00 0.14959905E+02</pdfrwt>
<pdfrwt beam="2">  1       -2 0.99539423E+00 0.14959905E+02</pdfrwt>
<totfact>-0.16125505E-13</totfact>
</mgrwt>
</event>
<event>
 4    1 -0.5021037E-019  0.1501543E+02  0.7818608E-02  0.1867598E+00
          2   -1    0    0  501    0  0.00000000000E+00  0.00000000000E+00  0.12019583098E+03  0.12019583101E+03  0.25500000000E-02 0. -1.
         -2   -1    0    0    0  501 -0.00000000000E+00 -0.00000000000E+00 -0.46894593132E+00  0.46895286437E+00  0.25500000000E-02 0.  1.
         31    1    1    2    0    0 -0.59980793435E-01 -0.70792872995E+00  0.54767805036E+02  0.55276361632E+02  0.74470750000E+01 0.  1.
        -31    1    1    2    0    0  0.59980793435E-01  0.70792872995E+00  0.64959080017E+02  0.65388422244E+02  0.74470750000E+01 0. -1.
<mgrwt>
<rscale>  0 0.15015428E+02</rscale>
<asrwt>0</asrwt>
<pdfrwt beam="1">  1        2 0.99774086E+00 0.15015428E+02</pdfrwt>
<pdfrwt beam="2">  1       -2 0.99600617E+00 0.15015428E+02</pdfrwt>
<totfact>-0.67440653E-14</totfact>
</mgrwt>
</event>
<event>
 4    1 -0.5021037E-019  0.1490763E+02  0.7818608E-02  0.1870900E+00
         -2   -1    0    0    0  501 -0.00000000000E+00  0.00000000000E+00  0.12043438840E+03  0.12043438843E+03  0.25500000000E-02 0. -1.
          2   -1    0    0  501    0  0.00000000000E+00 -0.00000000000E+00 -0.46132105282E+00  0.46132810046E+00  0.25500000000E-02 0.  1.
         31    1    1    2    0    0  0.25903010494E+00  0.58711023272E-01  0.61388281442E+02  0.61838908206E+02  0.74470750000E+01 0. -1.
        -31    1    1    2    0    0 -0.25903010494E+00 -0.58711023272E-01  0.58584785910E+02  0.59056808326E+02  0.74470750000E+01 0.  1.
<mgrwt>
<rscale>  0 0.14907628E+02</rscale>
<asrwt>0</asrwt>
<pdfrwt beam="2">  1        2 0.97988108E+00 0.14907628E+02</pdfrwt>
<pdfrwt beam="1">  1       -2 0.99965037E+00 0.14907628E+02</pdfrwt>
<totfact>-0.97597570E-14</totfact>
</mgrwt>
</event>
<event>
 4    1 -0.5021037E-019  0.1494772E+02  0.7818608E-02  0.1869668E+00
          2   -1    0    0  501    0  0.00000000000E+00  0.00000000000E+00  0.11930145263E+03  0.11930145265E+03  0.25500000000E-02 0. -1.
         -2   -1    0    0    0  501 -0.00000000000E+00 -0.00000000000E+00 -0.46821013514E+00  0.46821707909E+00  0.25500000000E-02 0.  1.
         31    1    1    2    0    0  0.78371711814E-01  0.29097406855E+00  0.54963817474E+02  0.55466845642E+02  0.74470750000E+01 0.  1.
        -31    1    1    2    0    0 -0.78371711814E-01 -0.29097406855E+00  0.63869425017E+02  0.64302824091E+02  0.74470750000E+01 0. -1.
<mgrwt>
<rscale>  0 0.14947718E+02</rscale>
<asrwt>0</asrwt>
<pdfrwt beam="1">  1        2 0.99033943E+00 0.14947718E+02</pdfrwt>
<pdfrwt beam="2">  1       -2 0.99442056E+00 0.14947718E+02</pdfrwt>
<totfact>-0.17269169E-13</totfact>
</mgrwt>
</event>
<event>
 4    1 -0.5021037E-019  0.1491988E+02  0.7818608E-02  0.1870523E+00
         -2   -1    0    0    0  501 -0.00000000000E+00  0.00000000000E+00  0.11989693933E+03  0.11989693935E+03  0.25500000000E-02 0. -1.
          2   -1    0    0  501    0  0.00000000000E+00 -0.00000000000E+00 -0.46415127621E+00  0.46415828088E+00  0.25500000000E-02 0.  1.
         31    1    1    2    0    0  0.23787512609E+00  0.16678532854E+00  0.57072474163E+02  0.57557020728E+02  0.74470750000E+01 0.  1.
        -31    1    1    2    0    0 -0.23787512609E+00 -0.16678532854E+00  0.62360313886E+02  0.62804076905E+02  0.74470750000E+01 0. -1.
<mgrwt>
<rscale>  0 0.14919885E+02</rscale>
<asrwt>0</asrwt>
<pdfrwt beam="2">  1        2 0.98585255E+00 0.14919885E+02</pdfrwt>
<pdfrwt beam="1">  1       -2 0.99522977E+00 0.14919885E+02</pdfrwt>
<totfact>-0.30102824E-13</totfact>
</mgrwt>
</event>
<event>
 4    1 -0.5021037E-019  0.1496967E+02  0.7818608E-02  0.1868996E+00
         -2   -1    0    0    0  501 -0.00000000000E+00  0.00000000000E+00  0.11968655410E+03  0.11968655413E+03  0.25500000000E-02 0.  1.
          2   -1    0    0  501    0  0.00000000000E+00 -0.00000000000E+00 -0.46807526728E+00  0.46808221323E+00  0.25500000000E-02 0. -1.
         31    1    1    2    0    0 -0.63251247476E+00 -0.30660179762E+00  0.57489685941E+02  0.57974278713E+02  0.74470750000E+01 0.  1.
        -31    1    1    2    0    0  0.63251247476E+00  0.30660179762E+00  0.61728792894E+02  0.62180357629E+02  0.74470750000E+01 0.  1.
<mgrwt>
<rscale>  0 0.14969667E+02</rscale>
<asrwt>0</asrwt>
<pdfrwt beam="2">  1        2 0.99414774E+00 0.14969667E+02</pdfrwt>
<pdfrwt beam="1">  1       -2 0.99352260E+00 0.14969667E+02</pdfrwt>
<totfact>-0.12092470E-13</totfact>
</mgrwt>
</event>
<event>
 4    1  0.5021037E-019  0.1491989E+02  0.7818608E-02  0.1870523E+00
          2   -1    0    0  501    0  0.00000000000E+00  0.00000000000E+00  0.12002756194E+03  0.12002756196E+03  0.25500000000E-02 0.  1.
         -2   -1    0    0    0  501 -0.00000000000E+00 -0.00000000000E+00 -0.46364636288E+00  0.46365337518E+00  0.25500000000E-02 0. -1.
         31    1    1    2    0    0  0.17741642582E+00  0.38401987037E+00  0.60698942668E+02  0.61155535439E+02  0.74470750000E+01 0. -1.
        -31    1    1    2    0    0 -0.17741642582E+00 -0.38401987037E+00  0.58864972906E+02  0.59335679900E+02  0.74470750000E+01 0.  1.
<mgrwt>
<rscale>  0 0.14919888E+02</rscale>
<asrwt>0</asrwt>
<pdfrwt beam="1">  1        2 0.99630567E+00 0.14919888E+02</pdfrwt>
<pdfrwt beam="2">  1       -2 0.98478840E+00 0.14919888E+02</pdfrwt>
<totfact> 0.43392716E-13</totfact>
</mgrwt>
</event>
<event>
 4    1  0.5021037E-019  0.1493862E+02  0.7818608E-02  0.1869947E+00
          2   -1    0    0  501    0  0.00000000000E+00  0.00000000000E+00  0.12000485287E+03  0.12000485289E+03  0.25500000000E-02 0. -1.
         -2   -1    0    0    0  501 -0.00000000000E+00 -0.00000000000E+00 -0.46489945626E+00  0.46490644965E+00  0.25500000000E-02 0.  1.
         31    1    1    2    0    0  0.14678565428E+00  0.48325794771E+00  0.57537990587E+02  0.58020120399E+02  0.74470750000E+01 0.  1.
        -31    1    1    2    0    0 -0.14678565428E+00 -0.48325794771E+00  0.62001962822E+02  0.62449638943E+02  0.74470750000E+01 0. -1.
<mgrwt>
<rscale>  0 0.14938623E+02</rscale>
<asrwt>0</asrwt>
<pdfrwt beam="1">  1        2 0.99612826E+00 0.14938623E+02</pdfrwt>
<pdfrwt beam="2">  1       -2 0.98743895E+00 0.14938623E+02</pdfrwt>
<totfact> 0.17562042E-13</totfact>
</mgrwt>
</event>
<event>
 4    1  0.5021037E-019  0.1491884E+02  0.7818608E-02  0.1870555E+00
         -2   -1    0    0    0  501 -0.00000000000E+00  0.00000000000E+00  0.11842287726E+03  0.11842287729E+03  0.25500000000E-02 0.  1.
          2   -1    0    0  501    0  0.00000000000E+00 -0.00000000000E+00 -0.46986321637E+00  0.46987013589E+00  0.25500000000E-02 0. -1.
         31    1    1    2    0    0  0.18562727662E+00 -0.38612884582E+00  0.59152544876E+02  0.59621020156E+02  0.74470750000E+01 0. -1.
        -31    1    1    2    0    0 -0.18562727662E+00  0.38612884582E+00  0.58800469166E+02  0.59271727267E+02  0.74470750000E+01 0. -1.
<mgrwt>
<rscale>  0 0.14918843E+02</rscale>
<asrwt>0</asrwt>
<pdfrwt beam="2">  1        2 0.99788863E+00 0.14918843E+02</pdfrwt>
<pdfrwt beam="1">  1       -2 0.98308842E+00 0.14918843E+02</pdfrwt>
<totfact> 0.44727980E-13</totfact>
</mgrwt>
</event>
<event>
 4    1 -0.5021037E-019  0.1493298E+02  0.7818608E-02  0.1870121E+00
         -2   -1    0    0    0  501 -0.00000000000E+00  0.00000000000E+00  0.11993150700E+03  0.11993150703E+03  0.25500000000E-02 0.  1.
          2   -1    0    0  501    0  0.00000000000E+00 -0.00000000000E+00 -0.46483237197E+00  0.46483936638E+00  0.25500000000E-02 0. -1.
         31    1    1    2    0    0 -0.32011450989E+00 -0.32719368842E+00  0.57452726583E+02  0.57935172796E+02  0.74470750000E+01 0. -1.
        -31    1    1    2    0    0  0.32011450989E+00  0.32719368842E+00  0.62013948048E+02  0.62461173601E+02  0.74470750000E+01 0.  1.
<mgrwt>
<rscale>  0 0.14932980E+02</rscale>
<asrwt>0</asrwt>
<pdfrwt beam="2">  1        2 0.98729468E+00 0.14932980E+02</pdfrwt>
<pdfrwt beam="1">  1       -2 0.99552123E+00 0.14932980E+02</pdfrwt>
<totfact>-0.23971739E-13</totfact>
</mgrwt>
</event>
<event>
 4    1 -0.5021037E-019  0.1496358E+02  0.7818608E-02  0.1869182E+00
         -2   -1    0    0    0  501 -0.00000000000E+00  0.00000000000E+00  0.11996637345E+03  0.11996637348E+03  0.25500000000E-02 0. -1.
          2   -1    0    0  501    0  0.00000000000E+00 -0.00000000000E+00 -0.46660384604E+00  0.46661081389E+00  0.25500000000E-02 0.  1.
         31    1    1    2    0    0 -0.55781820669E+00  0.45203330371E+00  0.60173566299E+02  0.60636890607E+02  0.74470750000E+01 0. -1.
        -31    1    1    2    0    0  0.55781820669E+00 -0.45203330371E+00  0.59326203306E+02  0.59796093686E+02  0.74470750000E+01 0.  1.
<mgrwt>
<rscale>  0 0.14963581E+02</rscale>
<asrwt>0</asrwt>
<pdfrwt beam="2">  1        2 0.99104374E+00 0.14963581E+02</pdfrwt>
<pdfrwt beam="1">  1       -2 0.99582418E+00 0.14963581E+02</pdfrwt>
<totfact>-0.15555914E-13</totfact>
</mgrwt>
</event>
<event>
 4    1 -0.5021037E-019  0.1492717E+02  0.7818608E-02  0.1870299E+00
          2   -1    0    0  501    0  0.00000000000E+00  0.00000000000E+00  0.11884429634E+03  0.11884429637E+03  0.25500000000E-02 0.  1.
         -2   -1    0    0    0  501 -0.00000000000E+00 -0.00000000000E+00 -0.46872018499E+00  0.46872712138E+00  0.25500000000E-02 0. -1.
         31    1    1    2    0    0  0.66678527793E-01  0.30784082676E+00  0.62252332090E+02  0.62696977509E+02  0.74470750000E+01 0.  1.
        -31    1    1    2    0    0 -0.66678527793E-01 -0.30784082676E+00  0.56123244065E+02  0.56616045980E+02  0.74470750000E+01 0. -1.
<mgrwt>
<rscale>  0 0.14927175E+02</rscale>
<asrwt>0</asrwt>
<pdfrwt beam="1">  1        2 0.98656356E+00 0.14927175E+02</pdfrwt>
<pdfrwt beam="2">  1       -2 0.99548460E+00 0.14927175E+02</pdfrwt>
<totfact>-0.26677342E-13</totfact>
</mgrwt>
</event>
<event>
 4    1  0.5021037E-019  0.1490071E+02  0.7818608E-02  0.1871114E+00
          2   -1    0    0  501    0  0.00000000000E+00  0.00000000000E+00  0.11968466226E+03  0.11968466229E+03  0.25500000000E-02 0. -1.
         -2   -1    0    0    0  501 -0.00000000000E+00 -0.00000000000E+00 -0.46378007429E+00  0.46378708457E+00  0.25500000000E-02 0.  1.
         31    1    1    2    0    0  0.21459094166E+00  0.58680433347E-02  0.59185715573E+02  0.59652778121E+02  0.74470750000E+01 0.  1.
        -31    1    1    2    0    0 -0.21459094166E+00 -0.58680433347E-02  0.60035166612E+02  0.60495671249E+02  0.74470750000E+01 0.  1.
<mgrwt>
<rscale>  0 0.14900709E+02</rscale>
<asrwt>0</asrwt>
<pdfrwt beam="1">  1        2 0.99347144E+00 0.14900709E+02</pdfrwt>
<pdfrwt beam="2">  1       -2 0.98506044E+00 0.14900709E+02</pdfrwt>
<totfact> 0.54364037E-13</totfact>
</mgrwt>
</event>
<event>
 4    1 -0.5021037E-019  0.1495782E+02  0.7818608E-02  0.1869358E+00
          2   -1    0    0  501    0  0.00000000000E+00  0.00000000000E+00  0.11895064780E+03  0.11895064783E+03  0.25500000000E-02 0.  1.
         -2   -1    0    0    0  501 -0.00000000000E+00 -0.00000000000E+00 -0.47022586164E+00  0.47023277582E+00  0.25500000000E-02 0. -1.
         31    1    1    2    0    0  0.57492163847E+00  0.24856682079E+00  0.56942321004E+02  0.57430646590E+02  0.74470750000E+01 0. -1.
        -31    1    1    2    0    0 -0.57492163847E+00 -0.24856682079E+00  0.61538100933E+02  0.61990234012E+02  0.74470750000E+01 0.  1.
<mgrwt>
<rscale>  0 0.14957819E+02</rscale>
<asrwt>0</asrwt>
<pdfrwt beam="1">  1        2 0.98745540E+00 0.14957819E+02</pdfrwt>
<pdfrwt beam="2">  1       -2 0.99867328E+00 0.14957819E+02</pdfrwt>
<totfact>-0.10061594E-13</totfact>
</mgrwt>
</event>
<event>
 4    1  0.5021037E-019  0.1492699E+02  0.7818608E-02  0.1870305E+00
         -2   -1    0    0    0  501 -0.00000000000E+00  0.00000000000E+00  0.11857213223E+03  0.11857213226E+03  0.25500000000E-02 0.  1.
          2   -1    0    0  501    0  0.00000000000E+00 -0.00000000000E+00 -0.46978424705E+00  0.46979116773E+00  0.25500000000E-02 0. -1.
         31    1    1    2    0    0 -0.46675276145E-01  0.85134073224E-01  0.62920305244E+02  0.63359554642E+02  0.74470750000E+01 0.  1.
        -31    1    1    2    0    0  0.46675276145E-01 -0.85134073224E-01  0.55182042739E+02  0.55682368783E+02  0.74470750000E+01 0. -1.
<mgrwt>
<rscale>  0 0.14926987E+02</rscale>
<asrwt>0</asrwt>
<pdfrwt beam="2">  1        2 0.99772654E+00 0.14926987E+02</pdfrwt>
<pdfrwt beam="1">  1       -2 0.98432191E+00 0.14926987E+02</pdfrwt>
<totfact> 0.35254663E-13</totfact>
</mgrwt>
</event>
<event>
 4    1  0.5021037E-019  0.1491420E+02  0.7818608E-02  0.1870698E+00
         -2   -1    0    0    0  501 -0.00000000000E+00  0.00000000000E+00  0.11841608515E+03  0.11841608517E+03  0.25500000000E-02 0. -1.
          2   -1    0    0  501    0  0.00000000000E+00 -0.00000000000E+00 -0.46959744014E+00  0.46960436358E+00  0.25500000000E-02 0.  1.
         31    1    1    2    0    0 -0.38226194283E+00 -0.57034041044E-01  0.58978915827E+02  0.59448471934E+02  0.74470750000E+01 0.  1.
        -31    1    1    2    0    0  0.38226194283E+00  0.57034041044E-01  0.58967571878E+02  0.59437217602E+02  0.74470750000E+01 0.  1.
<mgrwt>
<rscale>  0 0.14914195E+02</rscale>
<asrwt>0</asrwt>
<pdfrwt beam="2">  1        2 0.99732619E+00 0.14914195E+02</pdfrwt>
<pdfrwt beam="1">  1       -2 0.98303006E+00 0.14914195E+02</pdfrwt>
<totfact> 0.53936441E-13</totfact>
</mgrwt>
</event>
<event>
 4    1  0.5021037E-019  0.1493063E+02  0.7818608E-02  0.1870193E+00
         -2   -1    0    0    0  501 -0.00000000000E+00  0.00000000000E+00  0.11867034018E+03  0.11867034021E+03  0.25500000000E-02 0. -1.
          2   -1    0    0  501    0  0.00000000000E+00 -0.00000000000E+00 -0.46962473258E+00  0.46963165561E+00  0.25500000000E-02 0.  1.
         31    1    1    2    0    0 -0.18254154447E+00  0.10870858770E+00  0.62901143385E+02  0.63340807575E+02  0.74470750000E+01 0. -1.
        -31    1    1    2    0    0  0.18254154447E+00 -0.10870858770E+00  0.55299572062E+02  0.55799164288E+02  0.74470750000E+01 0.  1.
<mgrwt>
<rscale>  0 0.14930632E+02</rscale>
<asrwt>0</asrwt>
<pdfrwt beam="2">  1        2 0.99739236E+00 0.14930632E+02</pdfrwt>
<pdfrwt beam="1">  1       -2 0.98513265E+00 0.14930632E+02</pdfrwt>
<totfact> 0.31263566E-13</totfact>
</mgrwt>
</event>
<event>
 4    1  0.5021037E-019  0.1492125E+02  0.7818608E-02  0.1870481E+00
          2   -1    0    0  501    0  0.00000000000E+00  0.00000000000E+00  0.12009446681E+03  0.12009446684E+03  0.25500000000E-02 0.  1.
         -2   -1    0    0    0  501 -0.00000000000E+00 -0.00000000000E+00 -0.46347291403E+00  0.46347992895E+00  0.25500000000E-02 0. -1.
         31    1    1    2    0    0 -0.30607001743E+00 -0.29328847429E+00  0.58608035860E+02  0.59080796292E+02  0.74470750000E+01 0. -1.
        -31    1    1    2    0    0  0.30607001743E+00  0.29328847429E+00  0.61022958037E+02  0.61477150476E+02  0.74470750000E+01 0.  1.
<mgrwt>
<rscale>  0 0.14921254E+02</rscale>
<asrwt>0</asrwt>
<pdfrwt beam="1">  1        2 0.99685745E+00 0.14921254E+02</pdfrwt>
<pdfrwt beam="2">  1       -2 0.98442352E+00 0.14921254E+02</pdfrwt>
<totfact> 0.43165969E-13</totfact>
</mgrwt>
</event>
<event>
 4    1 -0.5021037E-019  0.1491914E+02  0.7818608E-02  0.1870546E+00
          2   -1    0    0  501    0  0.00000000000E+00  0.00000000000E+00  0.11840211153E+03  0.11840211156E+03  0.25500000000E-02 0. -1.
         -2   -1    0    0    0  501 -0.00000000000E+00 -0.00000000000E+00 -0.46996437695E+00  0.46997129498E+00  0.25500000000E-02 0.  1.
         31    1    1    2    0    0  0.82810208610E-01  0.42062395078E+00  0.59362808227E+02  0.59829639049E+02  0.74470750000E+01 0. -1.
        -31    1    1    2    0    0 -0.82810208610E-01 -0.42062395078E+00  0.58569338928E+02  0.59042443806E+02  0.74470750000E+01 0.  1.
<mgrwt>
<rscale>  0 0.14919140E+02</rscale>
<asrwt>0</asrwt>
<pdfrwt beam="1">  1        2 0.98291755E+00 0.14919140E+02</pdfrwt>
<pdfrwt beam="2">  1       -2 0.99810193E+00 0.14919140E+02</pdfrwt>
<totfact>-0.27967276E-13</totfact>
</mgrwt>
</event>
<event>
 4    1 -0.5021037E-019  0.1494936E+02  0.7818608E-02  0.1869618E+00
          2   -1    0    0  501    0  0.00000000000E+00  0.00000000000E+00  0.11888540776E+03  0.11888540779E+03  0.25500000000E-02 0.  1.
         -2   -1    0    0    0  501 -0.00000000000E+00 -0.00000000000E+00 -0.46995201146E+00  0.46995892967E+00  0.25500000000E-02 0. -1.
         31    1    1    2    0    0  0.84541132624E-01  0.47985097446E+00  0.55872366494E+02  0.56368587598E+02  0.74470750000E+01 0.  1.
        -31    1    1    2    0    0 -0.84541132624E-01 -0.47985097446E+00  0.62543089254E+02  0.62986779118E+02  0.74470750000E+01 0.  1.
<mgrwt>
<rscale>  0 0.14949361E+02</rscale>
<asrwt>0</asrwt>
<pdfrwt beam="1">  1        2 0.98691368E+00 0.14949361E+02</pdfrwt>
<pdfrwt beam="2">  1       -2 0.99809181E+00 0.14949361E+02</pdfrwt>
<totfact>-0.14798993E-13</totfact>
</mgrwt>
</event>
<event>
 4    1 -0.5021037E-019  0.1491136E+02  0.7818608E-02  0.1870786E+00
         -2   -1    0    0    0  501 -0.00000000000E+00  0.00000000000E+00  0.12026910350E+03  0.12026910353E+03  0.25500000000E-02 0. -1.
          2   -1    0    0  501    0  0.00000000000E+00 -0.00000000000E+00 -0.46218617486E+00  0.46219320931E+00  0.25500000000E-02 0.  1.
         31    1    1    2    0    0 -0.28279942151E-02  0.33445831085E+00  0.58868272432E+02  0.59338388043E+02  0.74470750000E+01 0.  1.
        -31    1    1    2    0    0  0.28279942151E-02 -0.33445831085E+00  0.60938644891E+02  0.61392908691E+02  0.74470750000E+01 0.  1.
<mgrwt>
<rscale>  0 0.14911357E+02</rscale>
<asrwt>0</asrwt>
<pdfrwt beam="2">  1        2 0.98170646E+00 0.14911357E+02</pdfrwt>
<pdfrwt beam="1">  1       -2 0.99829083E+00 0.14911357E+02</pdfrwt>
<totfact>-0.31458688E-13</totfact>
</mgrwt>
</event>
<event>
 4    1 -0.5021037E-019  0.1490143E+02  0.7818608E-02  0.1871092E+00
          2   -1    0    0  501    0  0.00000000000E+00  0.00000000000E+00  0.11899342408E+03  0.11899342410E+03  0.25500000000E-02 0. -1.
         -2   -1    0    0    0  501 -0.00000000000E+00 -0.00000000000E+00 -0.46651904817E+00  0.46652601729E+00  0.25500000000E-02 0.  1.
         31    1    1    2    0    0 -0.18699987496E+00 -0.88224984509E-01  0.60120831763E+02  0.60580657726E+02  0.74470750000E+01 0. -1.
        -31    1    1    2    0    0  0.18699987496E+00  0.88224984509E-01  0.58406073264E+02  0.58879292394E+02  0.74470750000E+01 0.  1.
<mgrwt>
<rscale>  0 0.14901425E+02</rscale>
<asrwt>0</asrwt>
<pdfrwt beam="1">  1        2 0.98777845E+00 0.14901425E+02</pdfrwt>
<pdfrwt beam="2">  1       -2 0.99083295E+00 0.14901425E+02</pdfrwt>
<totfact>-0.66208466E-14</totfact>
</mgrwt>
</event>
<event>
 4    1 -0.5021037E-019  0.1498228E+02  0.7818608E-02  0.1868610E+00
         -2   -1    0    0    0  501 -0.00000000000E+00  0.00000000000E+00  0.11997507483E+03  0.11997507486E+03  0.25500000000E-02 0. -1.
          2   -1    0    0  501    0  0.00000000000E+00 -0.00000000000E+00 -0.46773696567E+00  0.46774391664E+00  0.25500000000E-02 0.  1.
         31    1    1    2    0    0  0.15163217858E+00 -0.64325872504E+00  0.63537113430E+02  0.63975467823E+02  0.74470750000E+01 0. -1.
        -31    1    1    2    0    0 -0.15163217858E+00  0.64325872504E+00  0.55970224435E+02  0.56467350951E+02  0.74470750000E+01 0.  1.
<mgrwt>
<rscale>  0 0.14982283E+02</rscale>
<asrwt>0</asrwt>
<pdfrwt beam="2">  1        2 0.99344133E+00 0.14982283E+02</pdfrwt>
<pdfrwt beam="1">  1       -2 0.99590550E+00 0.14982283E+02</pdfrwt>
<totfact>-0.12924661E-13</totfact>
</mgrwt>
</event>
<event>
 4    1 -0.5021037E-019  0.1492451E+02  0.7818608E-02  0.1870381E+00
          2   -1    0    0  501    0  0.00000000000E+00  0.00000000000E+00  0.11911215238E+03  0.11911215240E+03  0.25500000000E-02 0.  1.
         -2   -1    0    0    0  501 -0.00000000000E+00 -0.00000000000E+00 -0.46749917323E+00  0.46750612773E+00  0.25500000000E-02 0. -1.
         31    1    1    2    0    0  0.33871384371E+00 -0.66827926965E-01  0.56699829531E+02  0.57187837762E+02  0.74470750000E+01 0. -1.
        -31    1    1    2    0    0 -0.33871384371E+00  0.66827926965E-01  0.61944823671E+02  0.62391820768E+02  0.74470750000E+01 0.  1.
<mgrwt>
<rscale>  0 0.14924510E+02</rscale>
<asrwt>0</asrwt>
<pdfrwt beam="1">  1        2 0.98876828E+00 0.14924510E+02</pdfrwt>
<pdfrwt beam="2">  1       -2 0.99291032E+00 0.14924510E+02</pdfrwt>
<totfact>-0.17348373E-13</totfact>
</mgrwt>
</event>
<event>
 4    1  0.5021037E-019  0.1494227E+02  0.7818608E-02  0.1869835E+00
          2   -1    0    0  501    0  0.00000000000E+00  0.00000000000E+00  0.11993886184E+03  0.11993886187E+03  0.25500000000E-02 0. -1.
         -2   -1    0    0    0  501 -0.00000000000E+00 -0.00000000000E+00 -0.46538249466E+00  0.46538948080E+00  0.25500000000E-02 0.  1.
         31    1    1    2    0    0  0.59740154485E+00  0.38824505527E-01  0.59548290205E+02  0.60015132994E+02  0.74470750000E+01 0. -1.
        -31    1    1    2    0    0 -0.59740154485E+00 -0.38824505527E-01  0.59925189144E+02  0.60389118357E+02  0.74470750000E+01 0. -1.
<mgrwt>
<rscale>  0 0.14942271E+02</rscale>
<asrwt>0</asrwt>
<pdfrwt beam="1">  1        2 0.99558659E+00 0.14942271E+02</pdfrwt>
<pdfrwt beam="2">  1       -2 0.98845883E+00 0.14942271E+02</pdfrwt>
<totfact> 0.10595002E-13</totfact>
</mgrwt>
</event>
<event>
 4    1 -0.5021037E-019  0.1493848E+02  0.7818608E-02  0.1869952E+00
          2   -1    0    0  501    0  0.00000000000E+00  0.00000000000E+00  0.11858362312E+03  0.11858362315E+03  0.25500000000E-02 0.  1.
         -2   -1    0    0    0  501 -0.00000000000E+00 -0.00000000000E+00 -0.47046255977E+00  0.47046947047E+00  0.25500000000E-02 0. -1.
         31    1    1    2    0    0  0.30208046333E+00  0.33974398317E+00  0.56250601968E+02  0.56743244764E+02  0.74470750000E+01 0.  1.
        -31    1    1    2    0    0 -0.30208046333E+00 -0.33974398317E+00  0.61862558590E+02  0.62310847851E+02  0.74470750000E+01 0. -1.
<mgrwt>
<rscale>  0 0.14938483E+02</rscale>
<asrwt>0</asrwt>
<pdfrwt beam="1">  1        2 0.98442254E+00 0.14938483E+02</pdfrwt>
<pdfrwt beam="2">  1       -2 0.99916181E+00 0.14938483E+02</pdfrwt>
<totfact>-0.10533627E-13</totfact>
</mgrwt>
</event>
<event>
 4    1  0.5021037E-019  0.1491626E+02  0.7818608E-02  0.1870635E+00
          2   -1    0    0  501    0  0.00000000000E+00  0.00000000000E+00  0.12018281914E+03  0.12018281916E+03  0.25500000000E-02 0. -1.
         -2   -1    0    0    0  501 -0.00000000000E+00 -0.00000000000E+00 -0.46282241153E+00  0.46282943631E+00  0.25500000000E-02 0.  1.
         31    1    1    2    0    0  0.15891223205E+00 -0.22605856601E+00  0.57454580334E+02  0.57935861804E+02  0.74470750000E+01 0.  1.
        -31    1    1    2    0    0 -0.15891223205E+00  0.22605856601E+00  0.62265416391E+02  0.62709786795E+02  0.74470750000E+01 0. -1.
<mgrwt>
<rscale>  0 0.14916263E+02</rscale>
<asrwt>0</asrwt>
<pdfrwt beam="1">  1        2 0.99758263E+00 0.14916263E+02</pdfrwt>
<pdfrwt beam="2">  1       -2 0.98304995E+00 0.14916263E+02</pdfrwt>
<totfact> 0.49935344E-13</totfact>
</mgrwt>
</event>
<event>
 4    1 -0.5021037E-019  0.1496684E+02  0.7818608E-02  0.1869082E+00
         -2   -1    0    0    0  501 -0.00000000000E+00  0.00000000000E+00  0.11978718221E+03  0.11978718224E+03  0.25500000000E-02 0.  1.
          2   -1    0    0  501    0  0.00000000000E+00 -0.00000000000E+00 -0.46750544503E+00  0.46751239944E+00  0.25500000000E-02 0. -1.
         31    1    1    2    0    0 -0.48038878877E+00 -0.43908815023E+00  0.56887190535E+02  0.57376257675E+02  0.74470750000E+01 0. -1.
        -31    1    1    2    0    0  0.48038878877E+00  0.43908815023E+00  0.62432486230E+02  0.62878436961E+02  0.74470750000E+01 0.  1.
<mgrwt>
<rscale>  0 0.14966841E+02</rscale>
<asrwt>0</asrwt>
<pdfrwt beam="2">  1        2 0.99294546E+00 0.14966841E+02</pdfrwt>
<pdfrwt beam="1">  1       -2 0.99434995E+00 0.14966841E+02</pdfrwt>
<totfact>-0.14081517E-13</totfact>
</mgrwt>
</event>
<event>
 4    1 -0.5021037E-019  0.1498049E+02  0.7818608E-02  0.1868664E+00
         -2   -1    0    0    0  501 -0.00000000000E+00  0.00000000000E+00  0.11958052996E+03  0.11958052999E+03  0.25500000000E-02 0. -1.
          2   -1    0    0  501    0  0.00000000000E+00 -0.00000000000E+00 -0.46916822544E+00  0.46917515520E+00  0.25500000000E-02 0.  1.
         31    1    1    2    0    0  0.50972761238E+00 -0.35962427104E+00  0.55503196875E+02  0.56004043972E+02  0.74470750000E+01 0.  1.
        -31    1    1    2    0    0 -0.50972761238E+00  0.35962427104E+00  0.63608164863E+02  0.64045661173E+02  0.74470750000E+01 0. -1.
<mgrwt>
<rscale>  0 0.14980494E+02</rscale>
<asrwt>0</asrwt>
<pdfrwt beam="2">  1        2 0.99645653E+00 0.14980494E+02</pdfrwt>
<pdfrwt beam="1">  1       -2 0.99265496E+00 0.14980494E+02</pdfrwt>
<totfact>-0.79194390E-14</totfact>
</mgrwt>
</event>
<event>
 4    1 -0.5021037E-019  0.1493109E+02  0.7818608E-02  0.1870179E+00
          2   -1    0    0  501    0  0.00000000000E+00  0.00000000000E+00  0.11876420266E+03  0.11876420269E+03  0.25500000000E-02 0. -1.
         -2   -1    0    0    0  501 -0.00000000000E+00 -0.00000000000E+00 -0.46928253916E+00  0.46928946724E+00  0.25500000000E-02 0.  1.
         31    1    1    2    0    0 -0.44575766276E+00  0.10164672223E+00  0.57089358948E+02  0.57574845750E+02  0.74470750000E+01 0. -1.
        -31    1    1    2    0    0  0.44575766276E+00 -0.10164672223E+00  0.61205561173E+02  0.61658646405E+02  0.74470750000E+01 0. -1.
<mgrwt>
<rscale>  0 0.14931093E+02</rscale>
<asrwt>0</asrwt>
<pdfrwt beam="1">  1        2 0.98590594E+00 0.14931093E+02</pdfrwt>
<pdfrwt beam="2">  1       -2 0.99667159E+00 0.14931093E+02</pdfrwt>
<totfact>-0.25680379E-13</totfact>
</mgrwt>
</event>
<event>
 4    1 -0.5021037E-019  0.1490290E+02  0.7818608E-02  0.1871046E+00
         -2   -1    0    0    0  501 -0.00000000000E+00  0.00000000000E+00  0.12030325254E+03  0.12030325256E+03  0.25500000000E-02 0.  1.
          2   -1    0    0  501    0  0.00000000000E+00 -0.00000000000E+00 -0.46153125545E+00  0.46153829988E+00  0.25500000000E-02 0. -1.
         31    1    1    2    0    0  0.23205896907E-01  0.93476006461E-01  0.61837385656E+02  0.62284271426E+02  0.74470750000E+01 0. -1.
        -31    1    1    2    0    0 -0.23205896907E-01 -0.93476006461E-01  0.58004335626E+02  0.58480519438E+02  0.74470750000E+01 0. -1.
<mgrwt>
<rscale>  0 0.14902904E+02</rscale>
<asrwt>0</asrwt>
<pdfrwt beam="2">  1        2 0.98032178E+00 0.14902904E+02</pdfrwt>
<pdfrwt beam="1">  1       -2 0.99856779E+00 0.14902904E+02</pdfrwt>
<totfact>-0.34059244E-13</totfact>
</mgrwt>
</event>
<event>
 4    1 -0.5021037E-019  0.1498303E+02  0.7818608E-02  0.1868587E+00
          2   -1    0    0  501    0  0.00000000000E+00  0.00000000000E+00  0.11961202135E+03  0.11961202137E+03  0.25500000000E-02 0.  1.
         -2   -1    0    0    0  501 -0.00000000000E+00 -0.00000000000E+00 -0.46920366442E+00  0.46921059366E+00  0.25500000000E-02 0. -1.
         31    1    1    2    0    0 -0.14295688999E-01  0.28746764275E+00  0.65680569375E+02  0.66102034473E+02  0.74470750000E+01 0.  1.
        -31    1    1    2    0    0  0.14295688999E-01 -0.28746764275E+00  0.53462248308E+02  0.53979197495E+02  0.74470750000E+01 0. -1.
<mgrwt>
<rscale>  0 0.14983033E+02</rscale>
<asrwt>0</asrwt>
<pdfrwt beam="1">  1        2 0.99291564E+00 0.14983033E+02</pdfrwt>
<pdfrwt beam="2">  1       -2 0.99653253E+00 0.14983033E+02</pdfrwt>
<totfact>-0.12391466E-13</totfact>
</mgrwt>
</event>
<event>
 4    1  0.5021037E-019  0.1495216E+02  0.7818608E-02  0.1869532E+00
         -2   -1    0    0    0  501 -0.00000000000E+00  0.00000000000E+00  0.11878127158E+03  0.11878127161E+03  0.25500000000E-02 0. -1.
          2   -1    0    0  501    0  0.00000000000E+00 -0.00000000000E+00 -0.47053997848E+00  0.47054688804E+00  0.25500000000E-02 0.  1.
         31    1    1    2    0    0 -0.50324191031E+00 -0.42257508750E+00  0.58902852215E+02  0.59375388397E+02  0.74470750000E+01 0. -1.
        -31    1    1    2    0    0  0.50324191031E+00  0.42257508750E+00  0.59407879388E+02  0.59876430101E+02  0.74470750000E+01 0.  1.
<mgrwt>
<rscale>  0 0.14952157E+02</rscale>
<asrwt>0</asrwt>
<pdfrwt beam="2">  1        2 0.99933215E+00 0.14952157E+02</pdfrwt>
<pdfrwt beam="1">  1       -2 0.98605747E+00 0.14952157E+02</pdfrwt>
<totfact> 0.74362646E-14</totfact>
</mgrwt>
</event>
<event>
 4    1  0.5021037E-019  0.1490936E+02  0.7818608E-02  0.1870847E+00
         -2   -1    0    0    0  501 -0.00000000000E+00  0.00000000000E+00  0.11873035001E+03  0.11873035003E+03  0.25500000000E-02 0. -1.
          2   -1    0    0  501    0  0.00000000000E+00 -0.00000000000E+00 -0.46805051862E+00  0.46805746494E+00  0.25500000000E-02 0.  1.
         31    1    1    2    0    0 -0.12143885397E+00 -0.31221401082E+00  0.59392238827E+02  0.59858242406E+02  0.74470750000E+01 0. -1.
        -31    1    1    2    0    0  0.12143885397E+00  0.31221401082E+00  0.58870060660E+02  0.59340165092E+02  0.74470750000E+01 0.  1.
<mgrwt>
<rscale>  0 0.14909355E+02</rscale>
<asrwt>0</asrwt>
<pdfrwt beam="2">  1        2 0.99406419E+00 0.14909355E+02</pdfrwt>
<pdfrwt beam="1">  1       -2 0.98561583E+00 0.14909355E+02</pdfrwt>
<totfact> 0.43981985E-13</totfact>
</mgrwt>
</event>
<event>
 4    1 -0.5021037E-019  0.1491212E+02  0.7818608E-02  0.1870762E+00
         -2   -1    0    0    0  501 -0.00000000000E+00  0.00000000000E+00  0.11947315578E+03  0.11947315580E+03  0.25500000000E-02 0.  1.
          2   -1    0    0  501    0  0.00000000000E+00 -0.00000000000E+00 -0.46531306248E+00  0.46532004966E+00  0.25500000000E-02 0. -1.
         31    1    1    2    0    0  0.61908894980E-01  0.98198612579E-01  0.62295195596E+02  0.62738853959E+02  0.74470750000E+01 0.  1.
        -31    1    1    2    0    0 -0.61908894980E-01 -0.98198612579E-01  0.56712647117E+02  0.57199621894E+02  0.74470750000E+01 0. -1.
<mgrwt>
<rscale>  0 0.14912121E+02</rscale>
<asrwt>0</asrwt>
<pdfrwt beam="2">  1        2 0.98829705E+00 0.14912121E+02</pdfrwt>
<pdfrwt beam="1">  1       -2 0.99173524E+00 0.14912121E+02</pdfrwt>
<totfact>-0.12666763E-13</totfact>
</mgrwt>
</event>
<event>
 4    1  0.5021037E-019  0.1492409E+02  0.7818608E-02  0.1870394E+00
         -2   -1    0    0    0  501 -0.00000000000E+00  0.00000000000E+00  0.11848927622E+03  0.11848927625E+03  0.25500000000E-02 0. -1.
          2   -1    0    0  501    0  0.00000000000E+00 -0.00000000000E+00 -0.46993031438E+00  0.46993723291E+00  0.25500000000E-02 0.  1.
         31    1    1    2    0    0 -0.46899278076E+00 -0.54210117770E-01  0.58872315929E+02  0.59343334940E+02  0.74470750000E+01 0. -1.
        -31    1    1    2    0    0  0.46899278076E+00  0.54210117770E-01  0.59147029980E+02  0.59615878543E+02  0.74470750000E+01 0.  1.
<mgrwt>
<rscale>  0 0.14924090E+02</rscale>
<asrwt>0</asrwt>
<pdfrwt beam="2">  1        2 0.99803278E+00 0.14924090E+02</pdfrwt>
<pdfrwt beam="1">  1       -2 0.98363801E+00 0.14924090E+02</pdfrwt>
<totfact> 0.37340707E-13</totfact>
</mgrwt>
</event>
<event>
 4    1  0.5021037E-019  0.1495198E+02  0.7818608E-02  0.1869537E+00
         -2   -1    0    0    0  501 -0.00000000000E+00  0.00000000000E+00  0.11915334352E+03  0.11915334355E+03  0.25500000000E-02 0.  1.
          2   -1    0    0  501    0  0.00000000000E+00 -0.00000000000E+00 -0.46905965425E+00  0.46906658562E+00  0.25500000000E-02 0. -1.
         31    1    1    2    0    0  0.23304538959E+00 -0.26884825680E-01  0.54433214093E+02  0.54940774980E+02  0.74470750000E+01 0. -1.
        -31    1    1    2    0    0 -0.23304538959E+00  0.26884825680E-01  0.64251069778E+02  0.64681635157E+02  0.74470750000E+01 0.  1.
<mgrwt>
<rscale>  0 0.14951982E+02</rscale>
<asrwt>0</asrwt>
<pdfrwt beam="2">  1        2 0.99621289E+00 0.14951982E+02</pdfrwt>
<pdfrwt beam="1">  1       -2 0.98912178E+00 0.14951982E+02</pdfrwt>
<totfact> 0.54726726E-14</totfact>
</mgrwt>
</event>
<event>
 4    1 -0.5021037E-019  0.1491337E+02  0.7818608E-02  0.1870724E+00
         -2   -1    0    0    0  501 -0.00000000000E+00  0.00000000000E+00  0.11980088529E+03  0.11980088532E+03  0.25500000000E-02 0.  1.
          2   -1    0    0  501    0  0.00000000000E+00 -0.00000000000E+00 -0.46411805233E+00  0.46412505750E+00  0.25500000000E-02 0. -1.
         31    1    1    2    0    0 -0.25392740701E+00  0.42346868557E-01  0.57430968079E+02  0.57912358724E+02  0.74470750000E+01 0. -1.
        -31    1    1    2    0    0  0.25392740701E+00 -0.42346868557E-01  0.61905799158E+02  0.62352651650E+02  0.74470750000E+01 0. -1.
<mgrwt>
<rscale>  0 0.14913373E+02</rscale>
<asrwt>0</asrwt>
<pdfrwt beam="2">  1        2 0.98577921E+00 0.14913373E+02</pdfrwt>
<pdfrwt beam="1">  1       -2 0.99443525E+00 0.14913373E+02</pdfrwt>
<totfact>-0.30623463E-13</totfact>
</mgrwt>
</event>
<event>
 4    1 -0.5021037E-019  0.1490626E+02  0.7818608E-02  0.1870942E+00
          2   -1    0    0  501    0  0.00000000000E+00  0.00000000000E+00  0.11846655131E+03  0.11846655133E+03  0.25500000000E-02 0.  1.
         -2   -1    0    0    0  501 -0.00000000000E+00 -0.00000000000E+00 -0.46889832406E+00  0.46890525782E+00  0.25500000000E-02 0. -1.
         31    1    1    2    0    0 -0.14775481245E+00 -0.25524613666E+00  0.58542339024E+02  0.59014840223E+02  0.74470750000E+01 0. -1.
        -31    1    1    2    0    0  0.14775481245E+00  0.25524613666E+00  0.59455313958E+02  0.59920616368E+02  0.74470750000E+01 0.  1.
<mgrwt>
<rscale>  0 0.14906265E+02</rscale>
<asrwt>0</asrwt>
<pdfrwt beam="1">  1        2 0.98344157E+00 0.14906265E+02</pdfrwt>
<pdfrwt beam="2">  1       -2 0.99584896E+00 0.14906265E+02</pdfrwt>
<totfact>-0.42824154E-13</totfact>
</mgrwt>
</event>
<event>
 4    1  0.5021037E-019  0.1494715E+02  0.7818608E-02  0.1869686E+00
         -2   -1    0    0    0  501 -0.00000000000E+00  0.00000000000E+00  0.11904285842E+03  0.11904285845E+03  0.25500000000E-02 0.  1.
          2   -1    0    0  501    0  0.00000000000E+00 -0.00000000000E+00 -0.46919131027E+00  0.46919823970E+00  0.25500000000E-02 0. -1.
         31    1    1    2    0    0  0.49760338951E+00  0.23701553177E-01  0.56219240560E+02  0.56712521599E+02  0.74470750000E+01 0. -1.
        -31    1    1    2    0    0 -0.49760338951E+00 -0.23701553177E-01  0.62354426555E+02  0.62799535093E+02  0.74470750000E+01 0.  1.
<mgrwt>
<rscale>  0 0.14947146E+02</rscale>
<asrwt>0</asrwt>
<pdfrwt beam="2">  1        2 0.99648778E+00 0.14947146E+02</pdfrwt>
<pdfrwt beam="1">  1       -2 0.98820930E+00 0.14947146E+02</pdfrwt>
<totfact> 0.10923207E-13</totfact>
</mgrwt>
</event>
<event>
 4    1  0.5021037E-019  0.1492594E+02  0.7818608E-02  0.1870337E+00
         -2   -1    0    0    0  501 -0.00000000000E+00  0.00000000000E+00  0.11855327778E+03  0.11855327781E+03  0.25500000000E-02 0. -1.
          2   -1    0    0  501    0  0.00000000000E+00 -0.00000000000E+00 -0.46979297526E+00  0.46979989581E+00  0.25500000000E-02 0.  1.
         31    1    1    2    0    0 -0.46367401667E+00 -0.12613492971E+00  0.59663575504E+02  0.60128463074E+02  0.74470750000E+01 0.  1.
        -31    1    1    2    0    0  0.46367401667E+00  0.12613492971E+00  0.58419909302E+02  0.58894614631E+02  0.74470750000E+01 0.  1.
<mgrwt>
<rscale>  0 0.14925939E+02</rscale>
<asrwt>0</asrwt>
<pdfrwt beam="2">  1        2 0.99774438E+00 0.14925939E+02</pdfrwt>
<pdfrwt beam="1">  1       -2 0.98416608E+00 0.14925939E+02</pdfrwt>
<totfact> 0.36464126E-13</totfact>
</mgrwt>
</event>
<event>
 4    1 -0.5021037E-019  0.1490355E+02  0.7818608E-02  0.1871026E+00
          2   -1    0    0  501    0  0.00000000000E+00  0.00000000000E+00  0.11839027932E+03  0.11839027935E+03  0.25500000000E-02 0. -1.
         -2   -1    0    0    0  501 -0.00000000000E+00 -0.00000000000E+00 -0.46902949756E+00  0.46903642937E+00  0.25500000000E-02 0.  1.
         31    1    1    2    0    0  0.12981049227E+00  0.22980979852E+00  0.58809841996E+02  0.59280064988E+02  0.74470750000E+01 0.  1.
        -31    1    1    2    0    0 -0.12981049227E+00 -0.22980979852E+00  0.59111407830E+02  0.59579250793E+02  0.74470750000E+01 0.  1.
<mgrwt>
<rscale>  0 0.14903549E+02</rscale>
<asrwt>0</asrwt>
<pdfrwt beam="1">  1        2 0.98281198E+00 0.14903549E+02</pdfrwt>
<pdfrwt beam="2">  1       -2 0.99612392E+00 0.14903549E+02</pdfrwt>
<totfact>-0.46257679E-13</totfact>
</mgrwt>
</event>
<event>
 4    1 -0.5021037E-019  0.1495459E+02  0.7818608E-02  0.1869457E+00
         -2   -1    0    0    0  501 -0.00000000000E+00  0.00000000000E+00  0.11967999688E+03  0.11967999691E+03  0.25500000000E-02 0. -1.
          2   -1    0    0  501    0  0.00000000000E+00 -0.00000000000E+00 -0.46715863581E+00  0.46716559539E+00  0.25500000000E-02 0.  1.
         31    1    1    2    0    0  0.55238751431E+00  0.25763917299E+00  0.61872098663E+02  0.62321641738E+02  0.74470750000E+01 0.  1.
        -31    1    1    2    0    0 -0.55238751431E+00 -0.25763917299E+00  0.57340739581E+02  0.57825520764E+02  0.74470750000E+01 0. -1.
<mgrwt>
<rscale>  0 0.14954593E+02</rscale>
<asrwt>0</asrwt>
<pdfrwt beam="2">  1        2 0.99220829E+00 0.14954593E+02</pdfrwt>
<pdfrwt beam="1">  1       -2 0.99346080E+00 0.14954593E+02</pdfrwt>
<totfact>-0.13868976E-13</totfact>
</mgrwt>
</event>
<event>
 4    1 -0.5021037E-019  0.1494943E+02  0.7818608E-02  0.1869615E+00
         -2   -1    0    0    0  501 -0.00000000000E+00  0.00000000000E+00  0.12021281851E+03  0.12021281853E+03  0.25500000000E-02 0.  1.
          2   -1    0    0  501    0  0.00000000000E+00 -0.00000000000E+00 -0.46476722254E+00  0.46477421792E+00  0.25500000000E-02 0. -1.
         31    1    1    2    0    0 -0.14838152705E+00 -0.39890178090E+00  0.55991420558E+02  0.56486097775E+02  0.74470750000E+01 0. -1.
        -31    1    1    2    0    0  0.14838152705E+00  0.39890178090E+00  0.63756630726E+02  0.64191494976E+02  0.74470750000E+01 0.  1.
<mgrwt>
<rscale>  0 0.14949435E+02</rscale>
<asrwt>0</asrwt>
<pdfrwt beam="2">  1        2 0.98716576E+00 0.14949435E+02</pdfrwt>
<pdfrwt beam="1">  1       -2 0.99784677E+00 0.14949435E+02</pdfrwt>
<totfact>-0.15730160E-13</totfact>
</mgrwt>
</event>
<event>
 4    1 -0.5021037E-019  0.1499751E+02  0.7818608E-02  0.1868144E+00
          2   -1    0    0  501    0  0.00000000000E+00  0.00000000000E+00  0.11986242237E+03  0.11986242239E+03  0.25500000000E-02 0. -1.
         -2   -1    0    0    0  501 -0.00000000000E+00 -0.00000000000E+00 -0.46912891937E+00  0.46913584972E+00  0.25500000000E-02 0.  1.
         31    1    1    2    0    0  0.32844017877E-01 -0.20554265541E+00  0.66547620020E+02  0.66963333122E+02  0.74470750000E+01 0. -1.
        -31    1    1    2    0    0 -0.32844017877E-01  0.20554265541E+00  0.52845673429E+02  0.53368225122E+02  0.74470750000E+01 0.  1.
<mgrwt>
<rscale>  0 0.14997513E+02</rscale>
<asrwt>0</asrwt>
<pdfrwt beam="1">  1        2 0.99498552E+00 0.14997513E+02</pdfrwt>
<pdfrwt beam="2">  1       -2 0.99638253E+00 0.14997513E+02</pdfrwt>
<totfact>-0.10687520E-13</totfact>
</mgrwt>
</event>
<event>
 4    1  0.5021037E-019  0.1490717E+02  0.7818608E-02  0.1870915E+00
          2   -1    0    0  501    0  0.00000000000E+00  0.00000000000E+00  0.11966899888E+03  0.11966899891E+03  0.25500000000E-02 0. -1.
         -2   -1    0    0    0  501 -0.00000000000E+00 -0.00000000000E+00 -0.46424292286E+00  0.46424992615E+00  0.25500000000E-02 0.  1.
         31    1    1    2    0    0  0.18737387490E+00  0.22129236648E+00  0.60517775448E+02  0.60974946909E+02  0.74470750000E+01 0. -1.
        -31    1    1    2    0    0 -0.18737387490E+00 -0.22129236648E+00  0.58686980513E+02  0.59158301929E+02  0.74470750000E+01 0. -1.
<mgrwt>
<rscale>  0 0.14907167E+02</rscale>
<asrwt>0</asrwt>
<pdfrwt beam="1">  1        2 0.99334575E+00 0.14907167E+02</pdfrwt>
<pdfrwt beam="2">  1       -2 0.98603921E+00 0.14907167E+02</pdfrwt>
<totfact> 0.40528199E-13</totfact>
</mgrwt>
</event>
<event>
 4    1 -0.5021037E-019  0.1496101E+02  0.7818608E-02  0.1869261E+00
          2   -1    0    0  501    0  0.00000000000E+00  0.00000000000E+00  0.11964309752E+03  0.11964309754E+03  0.25500000000E-02 0.  1.
         -2   -1    0    0    0  501 -0.00000000000E+00 -0.00000000000E+00 -0.46770407453E+00  0.46771102599E+00  0.25500000000E-02 0. -1.
         31    1    1    2    0    0  0.68578257301E+00  0.16246111607E+00  0.59978194706E+02  0.60442861097E+02  0.74470750000E+01 0.  1.
        -31    1    1    2    0    0 -0.68578257301E+00 -0.16246111607E+00  0.59197198735E+02  0.59667947472E+02  0.74470750000E+01 0. -1.
<mgrwt>
<rscale>  0 0.14961014E+02</rscale>
<asrwt>0</asrwt>
<pdfrwt beam="1">  1        2 0.99316020E+00 0.14961014E+02</pdfrwt>
<pdfrwt beam="2">  1       -2 0.99336104E+00 0.14961014E+02</pdfrwt>
<totfact>-0.12786943E-13</totfact>
</mgrwt>
</event>
<event>
 4    1 -0.5021037E-019  0.1498814E+02  0.7818608E-02  0.1868431E+00
          2   -1    0    0  501    0  0.00000000000E+00  0.00000000000E+00  0.11985678308E+03  0.11985678310E+03  0.25500000000E-02 0. -1.
         -2   -1    0    0    0  501 -0.00000000000E+00 -0.00000000000E+00 -0.46856464774E+00  0.46857158643E+00  0.25500000000E-02 0.  1.
         31    1    1    2    0    0  0.67551326911E+00 -0.40561220674E+00  0.61983225761E+02  0.62433965445E+02  0.74470750000E+01 0. -1.
        -31    1    1    2    0    0 -0.67551326911E+00  0.40561220674E+00  0.57404992669E+02  0.57891389246E+02  0.74470750000E+01 0.  1.
<mgrwt>
<rscale>  0 0.14988138E+02</rscale>
<asrwt>0</asrwt>
<pdfrwt beam="1">  1        2 0.99493422E+00 0.14988138E+02</pdfrwt>
<pdfrwt beam="2">  1       -2 0.99518858E+00 0.14988138E+02</pdfrwt>
<totfact>-0.11942183E-13</totfact>
</mgrwt>
</event>
<event>
 4    1 -0.5021037E-019  0.1497901E+02  0.7818608E-02  0.1868710E+00
         -2   -1    0    0    0  501 -0.00000000000E+00  0.00000000000E+00  0.11956429031E+03  0.11956429034E+03  0.25500000000E-02 0.  1.
          2   -1    0    0  501    0  0.00000000000E+00 -0.00000000000E+00 -0.46913873142E+00  0.46914566162E+00  0.25500000000E-02 0. -1.
         31    1    1    2    0    0  0.72833394423E-01 -0.79063756759E+00  0.60009202830E+02  0.60474736566E+02  0.74470750000E+01 0. -1.
        -31    1    1    2    0    0 -0.72833394423E-01  0.79063756759E+00  0.59085948748E+02  0.59558699432E+02  0.74470750000E+01 0.  1.
<mgrwt>
<rscale>  0 0.14979006E+02</rscale>
<asrwt>0</asrwt>
<pdfrwt beam="2">  1        2 0.99639361E+00 0.14979006E+02</pdfrwt>
<pdfrwt beam="1">  1       -2 0.99252043E+00 0.14979006E+02</pdfrwt>
<totfact>-0.77419060E-14</totfact>
</mgrwt>
</event>
<event>
 4    1  0.5021037E-019  0.1489768E+02  0.7818608E-02  0.1871207E+00
          2   -1    0    0  501    0  0.00000000000E+00  0.00000000000E+00  0.12029070406E+03  0.12029070409E+03  0.25500000000E-02 0.  1.
         -2   -1    0    0    0  501 -0.00000000000E+00 -0.00000000000E+00 -0.46125569106E+00  0.46126273970E+00  0.25500000000E-02 0. -1.
         31    1    1    2    0    0 -0.34314210621E-01 -0.14816509329E+00  0.59460341999E+02  0.59925072608E+02  0.74470750000E+01 0.  1.
        -31    1    1    2    0    0  0.34314210621E-01  0.14816509329E+00  0.60369106373E+02  0.60826894222E+02  0.74470750000E+01 0.  1.
<mgrwt>
<rscale>  0 0.14897678E+02</rscale>
<asrwt>0</asrwt>
<pdfrwt beam="1">  1        2 0.99846175E+00 0.14897678E+02</pdfrwt>
<pdfrwt beam="2">  1       -2 0.97973831E+00 0.14897678E+02</pdfrwt>
<totfact> 0.65695905E-13</totfact>
</mgrwt>
</event>
<event>
 4    1  0.5021037E-019  0.1494887E+02  0.7818608E-02  0.1869633E+00
          2   -1    0    0  501    0  0.00000000000E+00  0.00000000000E+00  0.12005813030E+03  0.12005813032E+03  0.25500000000E-02 0.  1.
         -2   -1    0    0    0  501 -0.00000000000E+00 -0.00000000000E+00 -0.46533104738E+00  0.46533803429E+00  0.25500000000E-02 0. -1.
         31    1    1    2    0    0  0.63340450602E+00  0.63238700889E-01  0.60243242780E+02  0.60705126860E+02  0.74470750000E+01 0.  1.
        -31    1    1    2    0    0 -0.63340450602E+00 -0.63238700889E-01  0.59349556470E+02  0.59818341499E+02  0.74470750000E+01 0. -1.
<mgrwt>
<rscale>  0 0.14948873E+02</rscale>
<asrwt>0</asrwt>
<pdfrwt beam="1">  1        2 0.99657236E+00 0.14948873E+02</pdfrwt>
<pdfrwt beam="2">  1       -2 0.98835378E+00 0.14948873E+02</pdfrwt>
<totfact> 0.98009342E-14</totfact>
</mgrwt>
</event>
<event>
 4    1 -0.5021037E-019  0.1494279E+02  0.7818608E-02  0.1869819E+00
          2   -1    0    0  501    0  0.00000000000E+00  0.00000000000E+00  0.11897149966E+03  0.11897149968E+03  0.25500000000E-02 0. -1.
         -2   -1    0    0    0  501 -0.00000000000E+00 -0.00000000000E+00 -0.46919908670E+00  0.46920601601E+00  0.25500000000E-02 0.  1.
         31    1    1    2    0    0 -0.33741634423E+00  0.14540019143E+00  0.55435978279E+02  0.55935155357E+02  0.74470750000E+01 0.  1.
        -31    1    1    2    0    0  0.33741634423E+00 -0.14540019143E+00  0.63066322292E+02  0.63505550344E+02  0.74470750000E+01 0. -1.
<mgrwt>
<rscale>  0 0.14942789E+02</rscale>
<asrwt>0</asrwt>
<pdfrwt beam="1">  1        2 0.98761932E+00 0.14942789E+02</pdfrwt>
<pdfrwt beam="2">  1       -2 0.99650188E+00 0.14942789E+02</pdfrwt>
<totfact>-0.20609030E-13</totfact>
</mgrwt>
</event>
<event>
 4    1 -0.5021037E-019  0.1490688E+02  0.7818608E-02  0.1870923E+00
         -2   -1    0    0    0  501 -0.00000000000E+00  0.00000000000E+00  0.11997530071E+03  0.11997530074E+03  0.25500000000E-02 0. -1.
          2   -1    0    0  501    0  0.00000000000E+00 -0.00000000000E+00 -0.46303987910E+00  0.46304690058E+00  0.25500000000E-02 0.  1.
         31    1    1    2    0    0 -0.27050180245E-01 -0.17590612961E+00  0.57725448467E+02  0.58204106397E+02  0.74470750000E+01 0.  1.
        -31    1    1    2    0    0  0.27050180245E-01  0.17590612961E+00  0.61786812362E+02  0.62234241239E+02  0.74470750000E+01 0. -1.
<mgrwt>
<rscale>  0 0.14906881E+02</rscale>
<asrwt>0</asrwt>
<pdfrwt beam="2">  1        2 0.98350355E+00 0.14906881E+02</pdfrwt>
<pdfrwt beam="1">  1       -2 0.99586852E+00 0.14906881E+02</pdfrwt>
<totfact>-0.42301540E-13</totfact>
</mgrwt>
</event>
<event>
 4    1 -0.5021037E-019  0.1494331E+02  0.7818608E-02  0.1869803E+00
         -2   -1    0    0    0  501 -0.00000000000E+00  0.00000000000E+00  0.11983032720E+03  0.11983032723E+03  0.25500000000E-02 0.  1.
          2   -1    0    0  501    0  0.00000000000E+00 -0.00000000000E+00 -0.46586884875E+00  0.46587582759E+00  0.25500000000E-02 0. -1.
         31    1    1    2    0    0 -0.21001665459E+00  0.55826404296E+00  0.58839988065E+02  0.59312383928E+02  0.74470750000E+01 0. -1.
        -31    1    1    2    0    0  0.21001665459E+00 -0.55826404296E+00  0.60524470291E+02  0.60983819131E+02  0.74470750000E+01 0. -1.
<mgrwt>
<rscale>  0 0.14943311E+02</rscale>
<asrwt>0</asrwt>
<pdfrwt beam="2">  1        2 0.98948436E+00 0.14943311E+02</pdfrwt>
<pdfrwt beam="1">  1       -2 0.99469317E+00 0.14943311E+02</pdfrwt>
<totfact>-0.18843506E-13</totfact>
</mgrwt>
</event>
<event>
 4    1  0.5021037E-019  0.1490790E+02  0.7818608E-02  0.1870892E+00
          2   -1    0    0  501    0  0.00000000000E+00  0.00000000000E+00  0.11943279049E+03  0.11943279051E+03  0.25500000000E-02 0.  1.
         -2   -1    0    0    0  501 -0.00000000000E+00 -0.00000000000E+00 -0.46520654164E+00  0.46521353042E+00  0.25500000000E-02 0. -1.
         31    1    1    2    0    0  0.28982548825E+00  0.40386614505E-01  0.60525611680E+02  0.60982737108E+02  0.74470750000E+01 0.  1.
        -31    1    1    2    0    0 -0.28982548825E+00 -0.40386614505E-01  0.58441972266E+02  0.58915266938E+02  0.74470750000E+01 0. -1.
<mgrwt>
<rscale>  0 0.14907895E+02</rscale>
<asrwt>0</asrwt>
<pdfrwt beam="1">  1        2 0.99140059E+00 0.14907895E+02</pdfrwt>
<pdfrwt beam="2">  1       -2 0.98807039E+00 0.14907895E+02</pdfrwt>
<totfact> 0.19280682E-13</totfact>
</mgrwt>
</event>
<event>
 4    1 -0.5021037E-019  0.1499792E+02  0.7818608E-02  0.1868132E+00
          2   -1    0    0  501    0  0.00000000000E+00  0.00000000000E+00  0.11956224381E+03  0.11956224384E+03  0.25500000000E-02 0. -1.
         -2   -1    0    0    0  501 -0.00000000000E+00 -0.00000000000E+00 -0.47033203111E+00  0.47033894373E+00  0.25500000000E-02 0.  1.
         31    1    1    2    0    0 -0.62383218852E+00  0.62092740304E+00  0.59761597116E+02  0.60230242680E+02  0.74470750000E+01 0. -1.
        -31    1    1    2    0    0  0.62383218852E+00 -0.62092740304E+00  0.59330314666E+02  0.59802340104E+02  0.74470750000E+01 0.  1.
<mgrwt>
<rscale>  0 0.14997916E+02</rscale>
<asrwt>0</asrwt>
<pdfrwt beam="1">  1        2 0.99251338E+00 0.14997916E+02</pdfrwt>
<pdfrwt beam="2">  1       -2 0.99891799E+00 0.14997916E+02</pdfrwt>
<totfact>-0.50980841E-14</totfact>
</mgrwt>
</event>
<event>
 4    1 -0.5021037E-019  0.1495029E+02  0.7818608E-02  0.1869589E+00
          2   -1    0    0  501    0  0.00000000000E+00  0.00000000000E+00  0.11962582782E+03  0.11962582785E+03  0.25500000000E-02 0.  1.
         -2   -1    0    0    0  501 -0.00000000000E+00 -0.00000000000E+00 -0.46710141718E+00  0.46710837760E+00  0.25500000000E-02 0. -1.
         31    1    1    2    0    0  0.60599163069E-02 -0.17456948383E+00  0.54573327281E+02  0.55079374432E+02  0.74470750000E+01 0. -1.
        -31    1    1    2    0    0 -0.60599163069E-02  0.17456948383E+00  0.64585399125E+02  0.65013561796E+02  0.74470750000E+01 0.  1.
<mgrwt>
<rscale>  0 0.14950293E+02</rscale>
<asrwt>0</asrwt>
<pdfrwt beam="1">  1        2 0.99301242E+00 0.14950293E+02</pdfrwt>
<pdfrwt beam="2">  1       -2 0.99208549E+00 0.14950293E+02</pdfrwt>
<totfact>-0.95992344E-14</totfact>
</mgrwt>
</event>
<event>
 4    1 -0.5021037E-019  0.1492996E+02  0.7818608E-02  0.1870213E+00
         -2   -1    0    0    0  501 -0.00000000000E+00  0.00000000000E+00  0.12037777754E+03  0.12037777756E+03  0.25500000000E-02 0.  1.
          2   -1    0    0  501    0  0.00000000000E+00 -0.00000000000E+00 -0.46292192433E+00  0.46292894760E+00  0.25500000000E-02 0. -1.
         31    1    1    2    0    0 -0.17195463229E+00 -0.47415951610E+00  0.60866561100E+02  0.61322521000E+02  0.74470750000E+01 0. -1.
        -31    1    1    2    0    0  0.17195463229E+00  0.47415951610E+00  0.59048294513E+02  0.59518185512E+02  0.74470750000E+01 0. -1.
<mgrwt>
<rscale>  0 0.14929962E+02</rscale>
<asrwt>0</asrwt>
<pdfrwt beam="2">  1        2 0.98326661E+00 0.14929962E+02</pdfrwt>
<pdfrwt beam="1">  1       -2 0.99919551E+00 0.14929962E+02</pdfrwt>
<totfact>-0.12299296E-13</totfact>
</mgrwt>
</event>
<event>
 4    1 -0.5021037E-019  0.1498986E+02  0.7818608E-02  0.1868378E+00
         -2   -1    0    0    0  501 -0.00000000000E+00  0.00000000000E+00  0.12040434434E+03  0.12040434437E+03  0.25500000000E-02 0. -1.
          2   -1    0    0  501    0  0.00000000000E+00 -0.00000000000E+00 -0.46654076777E+00  0.46654773656E+00  0.25500000000E-02 0.  1.
         31    1    1    2    0    0  0.30582706476E+00 -0.61395633850E+00  0.55981257525E+02  0.56478585258E+02  0.74470750000E+01 0.  1.
        -31    1    1    2    0    0 -0.30582706476E+00  0.61395633850E+00  0.63956546047E+02  0.64392306846E+02  0.74470750000E+01 0. -1.
<mgrwt>
<rscale>  0 0.14989858E+02</rscale>
<asrwt>0</asrwt>
<pdfrwt beam="2">  1        2 0.99092425E+00 0.14989858E+02</pdfrwt>
<pdfrwt beam="1">  1       -2 0.99944510E+00 0.14989858E+02</pdfrwt>
<totfact>-0.30758214E-14</totfact>
</mgrwt>
</event>
<event>
 4    1 -0.5021037E-019  0.1499743E+02  0.7818608E-02  0.1868147E+00
          2   -1    0    0  501    0  0.00000000000E+00  0.00000000000E+00  0.12015268685E+03  0.12015268687E+03  0.25500000000E-02 0. -1.
         -2   -1    0    0    0  501 -0.00000000000E+00 -0.00000000000E+00 -0.46799065638E+00  0.46799760358E+00  0.25500000000E-02 0.  1.
         31    1    1    2    0    0  0.69924738386E-01  0.72597257897E+00  0.55903009595E+02  0.56401572083E+02  0.74470750000E+01 0.  1.
        -31    1    1    2    0    0 -0.69924738386E-01 -0.72597257897E+00  0.63781686595E+02  0.64219112393E+02  0.74470750000E+01 0. -1.
<mgrwt>
<rscale>  0 0.14997434E+02</rscale>
<asrwt>0</asrwt>
<pdfrwt beam="1">  1        2 0.99737621E+00 0.14997434E+02</pdfrwt>
<pdfrwt beam="2">  1       -2 0.99398375E+00 0.14997434E+02</pdfrwt>
<totfact>-0.78418330E-14</totfact>
</mgrwt>
</event>
<event>
 4    1  0.5021037E-019  0.1491379E+02  0.7818608E-02  0.1870711E+00
          2   -1    0    0  501    0  0.00000000000E+00  0.00000000000E+00  0.12012635847E+03  0.12012635850E+03  0.25500000000E-02 0.  1.
         -2   -1    0    0    0  501 -0.00000000000E+00 -0.00000000000E+00 -0.46288636662E+00  0.46289339043E+00  0.25500000000E-02 0. -1.
         31    1    1    2    0    0 -0.26068092495E+00  0.11035937032E+00  0.57751025236E+02  0.58229889022E+02  0.74470750000E+01 0. -1.
        -31    1    1    2    0    0  0.26068092495E+00 -0.11035937032E+00  0.61912446867E+02  0.62359362864E+02  0.74470750000E+01 0.  1.
<mgrwt>
<rscale>  0 0.14913789E+02</rscale>
<asrwt>0</asrwt>
<pdfrwt beam="1">  1        2 0.99711631E+00 0.14913789E+02</pdfrwt>
<pdfrwt beam="2">  1       -2 0.98318349E+00 0.14913789E+02</pdfrwt>
<totfact> 0.54945793E-13</totfact>
</mgrwt>
</event>
<event>
 4    1  0.5021037E-019  0.1492185E+02  0.7818608E-02  0.1870463E+00
         -2   -1    0    0    0  501 -0.00000000000E+00  0.00000000000E+00  0.11863935114E+03  0.11863935117E+03  0.25500000000E-02 0. -1.
          2   -1    0    0  501    0  0.00000000000E+00 -0.00000000000E+00 -0.46919524343E+00  0.46920217280E+00  0.25500000000E-02 0.  1.
         31    1    1    2    0    0  0.19438483520E+00 -0.28188319339E+00  0.61469911418E+02  0.61920321216E+02  0.74470750000E+01 0. -1.
        -31    1    1    2    0    0 -0.19438483520E+00  0.28188319339E+00  0.56700244477E+02  0.57188232123E+02  0.74470750000E+01 0.  1.
<mgrwt>
<rscale>  0 0.14921854E+02</rscale>
<asrwt>0</asrwt>
<pdfrwt beam="2">  1        2 0.99648279E+00 0.14921854E+02</pdfrwt>
<pdfrwt beam="1">  1       -2 0.98487286E+00 0.14921854E+02</pdfrwt>
<totfact> 0.41127882E-13</totfact>
</mgrwt>
</event>
<event>
 4    1  0.5021037E-019  0.1492736E+02  0.7818608E-02  0.1870293E+00
         -2   -1    0    0    0  501 -0.00000000000E+00  0.00000000000E+00  0.11900419681E+03  0.11900419683E+03  0.25500000000E-02 0.  1.
          2   -1    0    0  501    0  0.00000000000E+00 -0.00000000000E+00 -0.46810199773E+00  0.46810894328E+00  0.25500000000E-02 0. -1.
         31    1    1    2    0    0 -0.39477018256E+00 -0.11126679005E+00  0.57013239516E+02  0.57499014165E+02  0.74470750000E+01 0. -1.
        -31    1    1    2    0    0  0.39477018256E+00  0.11126679005E+00  0.61522855294E+02  0.61973291613E+02  0.74470750000E+01 0.  1.
<mgrwt>
<rscale>  0 0.14927360E+02</rscale>
<asrwt>0</asrwt>
<pdfrwt beam="2">  1        2 0.99418208E+00 0.14927360E+02</pdfrwt>
<pdfrwt beam="1">  1       -2 0.98788061E+00 0.14927360E+02</pdfrwt>
<totfact> 0.17445844E-13</totfact>
</mgrwt>
</event>
<event>
 4    1 -0.5021037E-019  0.1496165E+02  0.7818608E-02  0.1869241E+00
          2   -1    0    0  501    0  0.00000000000E+00  0.00000000000E+00  0.11901044671E+03  0.11901044674E+03  0.25500000000E-02 0. -1.
         -2   -1    0    0    0  501 -0.00000000000E+00 -0.00000000000E+00 -0.47023042863E+00  0.47023734275E+00  0.25500000000E-02 0.  1.
         31    1    1    2    0    0  0.51770513870E-01 -0.14236813566E+00  0.64807859349E+02  0.65234503971E+02  0.74470750000E+01 0. -1.
        -31    1    1    2    0    0 -0.51770513870E-01  0.14236813566E+00  0.53732356930E+02  0.54246180107E+02  0.74470750000E+01 0.  1.
<mgrwt>
<rscale>  0 0.14961651E+02</rscale>
<asrwt>0</asrwt>
<pdfrwt beam="1">  1        2 0.98794989E+00 0.14961651E+02</pdfrwt>
<pdfrwt beam="2">  1       -2 0.99868491E+00 0.14961651E+02</pdfrwt>
<totfact>-0.93516795E-14</totfact>
</mgrwt>
</event>
<event>
 4    1  0.5021037E-019  0.1490996E+02  0.7818608E-02  0.1870829E+00
         -2   -1    0    0    0  501 -0.00000000000E+00  0.00000000000E+00  0.11841862541E+03  0.11841862544E+03  0.25500000000E-02 0. -1.
          2   -1    0    0  501    0  0.00000000000E+00 -0.00000000000E+00 -0.46932066548E+00  0.46932759300E+00  0.25500000000E-02 0.  1.
         31    1    1    2    0    0 -0.32155955820E-02 -0.26528851099E+00  0.57238518563E+02  0.57721549890E+02  0.74470750000E+01 0. -1.
        -31    1    1    2    0    0  0.32155955820E-02  0.26528851099E+00  0.60710786179E+02  0.61166403138E+02  0.74470750000E+01 0. -1.
<mgrwt>
<rscale>  0 0.14909959E+02</rscale>
<asrwt>0</asrwt>
<pdfrwt beam="2">  1        2 0.99674079E+00 0.14909959E+02</pdfrwt>
<pdfrwt beam="1">  1       -2 0.98304878E+00 0.14909959E+02</pdfrwt>
<totfact> 0.61440220E-13</totfact>
</mgrwt>
</event>
<event>
 4    1  0.5021037E-019  0.1490958E+02  0.7818608E-02  0.1870840E+00
          2   -1    0    0  501    0  0.00000000000E+00  0.00000000000E+00  0.11980171508E+03  0.11980171511E+03  0.25500000000E-02 0. -1.
         -2   -1    0    0    0  501 -0.00000000000E+00 -0.00000000000E+00 -0.46387903430E+00  0.46388604308E+00  0.25500000000E-02 0.  1.
         31    1    1    2    0    0 -0.20285377667E+00  0.15679033205E+00  0.61459353467E+02  0.61909424061E+02  0.74470750000E+01 0. -1.
        -31    1    1    2    0    0  0.20285377667E+00 -0.15679033205E+00  0.57878482581E+02  0.58356177092E+02  0.74470750000E+01 0.  1.
<mgrwt>
<rscale>  0 0.14909584E+02</rscale>
<asrwt>0</asrwt>
<pdfrwt beam="1">  1        2 0.99444014E+00 0.14909584E+02</pdfrwt>
<pdfrwt beam="2">  1       -2 0.98527353E+00 0.14909584E+02</pdfrwt>
<totfact> 0.47259100E-13</totfact>
</mgrwt>
</event>
<event>
 4    1 -0.5021037E-019  0.1500263E+02  0.7818608E-02  0.1867988E+00
         -2   -1    0    0    0  501 -0.00000000000E+00  0.00000000000E+00  0.11991087236E+03  0.11991087239E+03  0.25500000000E-02 0. -1.
          2   -1    0    0  501    0  0.00000000000E+00 -0.00000000000E+00 -0.46925945014E+00  0.46926637856E+00  0.25500000000E-02 0.  1.
         31    1    1    2    0    0  0.34669787617E+00  0.25415085649E+00  0.66069410786E+02  0.66489177764E+02  0.74470750000E+01 0. -1.
        -31    1    1    2    0    0 -0.34669787617E+00 -0.25415085649E+00  0.53372202126E+02  0.53890961004E+02  0.74470750000E+01 0.  1.
<mgrwt>
<rscale>  0 0.15002630E+02</rscale>
<asrwt>0</asrwt>
<pdfrwt beam="2">  1        2 0.99666025E+00 0.15002630E+02</pdfrwt>
<pdfrwt beam="1">  1       -2 0.99538721E+00 0.15002630E+02</pdfrwt>
<totfact>-0.93132199E-14</totfact>
</mgrwt>
</event>
<event>
 4    1 -0.5021037E-019  0.1495034E+02  0.7818608E-02  0.1869588E+00
         -2   -1    0    0    0  501 -0.00000000000E+00  0.00000000000E+00  0.11940216337E+03  0.11940216339E+03  0.25500000000E-02 0. -1.
          2   -1    0    0  501    0  0.00000000000E+00 -0.00000000000E+00 -0.46797958177E+00  0.46798652914E+00  0.25500000000E-02 0.  1.
         31    1    1    2    0    0 -0.42294604571E+00  0.47674767337E+00  0.58549587146E+02  0.59024734245E+02  0.74470750000E+01 0. -1.
        -31    1    1    2    0    0  0.42294604571E+00 -0.47674767337E+00  0.60384596638E+02  0.60845415677E+02  0.74470750000E+01 0.  1.
<mgrwt>
<rscale>  0 0.14950343E+02</rscale>
<asrwt>0</asrwt>
<pdfrwt beam="2">  1        2 0.99393609E+00 0.14950343E+02</pdfrwt>
<pdfrwt beam="1">  1       -2 0.99117027E+00 0.14950343E+02</pdfrwt>
<totfact>-0.53897556E-14</totfact>
</mgrwt>
</event>
<event>
 4    1  0.5021037E-019  0.1492081E+02  0.7818608E-02  0.1870495E+00
          2   -1    0    0  501    0  0.00000000000E+00  0.00000000000E+00  0.12017051663E+03  0.12017051666E+03  0.25500000000E-02 0.  1.
         -2   -1    0    0    0  501 -0.00000000000E+00 -0.00000000000E+00 -0.46315224159E+00  0.46315926137E+00  0.25500000000E-02 0. -1.
         31    1    1    2    0    0  0.21837107365E+00 -0.10964266167E+00  0.62868348300E+02  0.63308355305E+02  0.74470750000E+01 0.  1.
        -31    1    1    2    0    0 -0.21837107365E+00  0.10964266167E+00  0.56839016086E+02  0.57325320611E+02  0.74470750000E+01 0. -1.
<mgrwt>
<rscale>  0 0.14920814E+02</rscale>
<asrwt>0</asrwt>
<pdfrwt beam="1">  1        2 0.99748364E+00 0.14920814E+02</pdfrwt>
<pdfrwt beam="2">  1       -2 0.98374743E+00 0.14920814E+02</pdfrwt>
<totfact> 0.43804711E-13</totfact>
</mgrwt>
</event>
<event>
 4    1  0.5021037E-019  0.1494182E+02  0.7818608E-02  0.1869849E+00
         -2   -1    0    0    0  501 -0.00000000000E+00  0.00000000000E+00  0.11872382075E+03  0.11872382078E+03  0.25500000000E-02 0. -1.
          2   -1    0    0  501    0  0.00000000000E+00 -0.00000000000E+00 -0.47011700287E+00  0.47012391865E+00  0.25500000000E-02 0.  1.
         31    1    1    2    0    0  0.91550714700E-01 -0.30191104480E+00  0.55090334007E+02  0.55592295859E+02  0.74470750000E+01 0. -1.
        -31    1    1    2    0    0 -0.91550714700E-01  0.30191104480E+00  0.63163369742E+02  0.63601648839E+02  0.74470750000E+01 0. -1.
<mgrwt>
<rscale>  0 0.14941821E+02</rscale>
<asrwt>0</asrwt>
<pdfrwt beam="2">  1        2 0.99843548E+00 0.14941821E+02</pdfrwt>
<pdfrwt beam="1">  1       -2 0.98557893E+00 0.14941821E+02</pdfrwt>
<totfact> 0.18416717E-13</totfact>
</mgrwt>
</event>
<event>
 4    1 -0.5021037E-019  0.1493863E+02  0.7818608E-02  0.1869947E+00
          2   -1    0    0  501    0  0.00000000000E+00  0.00000000000E+00  0.11920490081E+03  0.11920490084E+03  0.25500000000E-02 0. -1.
         -2   -1    0    0    0  501 -0.00000000000E+00 -0.00000000000E+00 -0.46801948484E+00  0.46802643161E+00  0.25500000000E-02 0.  1.
         31    1    1    2    0    0  0.14140622650E+00  0.65499049155E-01  0.54926707036E+02  0.55429471923E+02  0.74470750000E+01 0.  1.
        -31    1    1    2    0    0 -0.14140622650E+00 -0.65499049155E-01  0.63810174294E+02  0.64243455350E+02  0.74470750000E+01 0. -1.
<mgrwt>
<rscale>  0 0.14938626E+02</rscale>
<asrwt>0</asrwt>
<pdfrwt beam="1">  1        2 0.98953949E+00 0.14938626E+02</pdfrwt>
<pdfrwt beam="2">  1       -2 0.99401408E+00 0.14938626E+02</pdfrwt>
<totfact>-0.18307625E-13</totfact>
</mgrwt>
</event>
<event>
 4    1 -0.5021037E-019  0.1496820E+02  0.7818608E-02  0.1869040E+00
         -2   -1    0    0    0  501 -0.00000000000E+00  0.00000000000E+00  0.11983754662E+03  0.11983754664E+03  0.25500000000E-02 0.  1.
          2   -1    0    0  501    0  0.00000000000E+00 -0.00000000000E+00 -0.46739395159E+00  0.46740090767E+00  0.25500000000E-02 0. -1.
         31    1    1    2    0    0  0.66042845016E+00  0.26968472082E+00  0.58000238480E+02  0.58480727470E+02  0.74470750000E+01 0.  1.
        -31    1    1    2    0    0 -0.66042845016E+00 -0.26968472082E+00  0.61369914185E+02  0.61824220082E+02  0.74470750000E+01 0. -1.
<mgrwt>
<rscale>  0 0.14968202E+02</rscale>
<asrwt>0</asrwt>
<pdfrwt beam="2">  1        2 0.99271120E+00 0.14968202E+02</pdfrwt>
<pdfrwt beam="1">  1       -2 0.99476548E+00 0.14968202E+02</pdfrwt>
<totfact>-0.14416548E-13</totfact>
</mgrwt>
</event>
<event>
 4    1 -0.5021037E-019  0.1493536E+02  0.7818608E-02  0.1870047E+00
          2   -1    0    0  501    0  0.00000000000E+00  0.00000000000E+00  0.11928189968E+03  0.11928189971E+03  0.25500000000E-02 0.  1.
         -2   -1    0    0    0  501 -0.00000000000E+00 -0.00000000000E+00 -0.46751280244E+00  0.46751975674E+00  0.25500000000E-02 0. -1.
         31    1    1    2    0    0  0.32831882090E+00  0.42659920696E+00  0.58345713094E+02  0.58821517684E+02  0.74470750000E+01 0.  1.
        -31    1    1    2    0    0 -0.32831882090E+00 -0.42659920696E+00  0.60468673784E+02  0.60927901781E+02  0.74470750000E+01 0.  1.
<mgrwt>
<rscale>  0 0.14935358E+02</rscale>
<asrwt>0</asrwt>
<pdfrwt beam="1">  1        2 0.99017198E+00 0.14935358E+02</pdfrwt>
<pdfrwt beam="2">  1       -2 0.99294468E+00 0.14935358E+02</pdfrwt>
<totfact>-0.15091468E-13</totfact>
</mgrwt>
</event>
<event>
 4    1  0.5021037E-019  0.1491091E+02  0.7818608E-02  0.1870799E+00
          2   -1    0    0  501    0  0.00000000000E+00  0.00000000000E+00  0.11968802979E+03  0.11968802981E+03  0.25500000000E-02 0.  1.
         -2   -1    0    0    0  501 -0.00000000000E+00 -0.00000000000E+00 -0.46440223121E+00  0.46440923209E+00  0.25500000000E-02 0. -1.
         31    1    1    2    0    0  0.13479472825E+00 -0.29044595496E+00  0.60816636866E+02  0.61271728996E+02  0.74470750000E+01 0.  1.
        -31    1    1    2    0    0 -0.13479472825E+00  0.29044595496E+00  0.58406990689E+02  0.58880710049E+02  0.74470750000E+01 0. -1.
<mgrwt>
<rscale>  0 0.14910910E+02</rscale>
<asrwt>0</asrwt>
<pdfrwt beam="1">  1        2 0.99350443E+00 0.14910910E+02</pdfrwt>
<pdfrwt beam="2">  1       -2 0.98637687E+00 0.14910910E+02</pdfrwt>
<totfact> 0.35601920E-13</totfact>
</mgrwt>
</event>
<event>
 4    1 -0.5021037E-019  0.1493036E+02  0.7818608E-02  0.1870201E+00
          2   -1    0    0  501    0  0.00000000000E+00  0.00000000000E+00  0.11860306932E+03  0.11860306934E+03  0.25500000000E-02 0.  1.
         -2   -1    0    0    0  501 -0.00000000000E+00 -0.00000000000E+00 -0.46987402469E+00  0.46988094404E+00  0.25500000000E-02 0. -1.
         31    1    1    2    0    0 -0.44688772523E+00 -0.17874224796E+00  0.60628023671E+02  0.61085577985E+02  0.74470750000E+01 0.  1.
        -31    1    1    2    0    0  0.44688772523E+00  0.17874224796E+00  0.57505171621E+02  0.57987372303E+02  0.74470750000E+01 0. -1.
<mgrwt>
<rscale>  0 0.14930360E+02</rscale>
<asrwt>0</asrwt>
<pdfrwt beam="1">  1        2 0.98457846E+00 0.14930360E+02</pdfrwt>
<pdfrwt beam="2">  1       -2 0.99791748E+00 0.14930360E+02</pdfrwt>
<totfact>-0.22824103E-13</totfact>
</mgrwt>
</event>
<event>
 4    1 -0.5021037E-019  0.1492246E+02  0.7818608E-02  0.1870444E+00
          2   -1    0    0  501    0  0.00000000000E+00  0.00000000000E+00  0.11889950897E+03  0.11889950900E+03  0.25500000000E-02 0.  1.
         -2   -1    0    0    0  501 -0.00000000000E+00 -0.00000000000E+00 -0.46820653167E+00  0.46821347567E+00  0.25500000000E-02 0. -1.
         31    1    1    2    0    0 -0.42316786559E+00 -0.17371072973E+00  0.58879088012E+02  0.59349938312E+02  0.74470750000E+01 0. -1.
        -31    1    1    2    0    0  0.42316786559E+00  0.17371072973E+00  0.59552214425E+02  0.60017784160E+02  0.74470750000E+01 0. -1.
<mgrwt>
<rscale>  0 0.14922459E+02</rscale>
<asrwt>0</asrwt>
<pdfrwt beam="1">  1        2 0.98701585E+00 0.14922459E+02</pdfrwt>
<pdfrwt beam="2">  1       -2 0.99439979E+00 0.14922459E+02</pdfrwt>
<totfact>-0.25431946E-13</totfact>
</mgrwt>
</event>
<event>
 4    1 -0.5021037E-019  0.1489987E+02  0.7818608E-02  0.1871140E+00
         -2   -1    0    0    0  501 -0.00000000000E+00  0.00000000000E+00  0.11966331043E+03  0.11966331046E+03  0.25500000000E-02 0. -1.
          2   -1    0    0  501    0  0.00000000000E+00 -0.00000000000E+00 -0.46381039512E+00  0.46381740493E+00  0.25500000000E-02 0.  1.
         31    1    1    2    0    0 -0.72533445134E-01  0.13134494244E+00  0.60741961515E+02  0.61196955213E+02  0.74470750000E+01 0.  1.
        -31    1    1    2    0    0  0.72533445134E-01 -0.13134494244E+00  0.58457538519E+02  0.58930172649E+02  0.74470750000E+01 0.  1.
<mgrwt>
<rscale>  0 0.14899867E+02</rscale>
<asrwt>0</asrwt>
<pdfrwt beam="2">  1        2 0.98512392E+00 0.14899867E+02</pdfrwt>
<pdfrwt beam="1">  1       -2 0.99329514E+00 0.14899867E+02</pdfrwt>
<totfact>-0.30981490E-13</totfact>
</mgrwt>
</event>
<event>
 4    1 -0.5021037E-019  0.1501652E+02  0.7818608E-02  0.1867565E+00
          2   -1    0    0  501    0  0.00000000000E+00  0.00000000000E+00  0.12017764918E+03  0.12017764921E+03  0.25500000000E-02 0. -1.
         -2   -1    0    0    0  501 -0.00000000000E+00 -0.00000000000E+00 -0.46908516106E+00  0.46909209205E+00  0.25500000000E-02 0.  1.
         31    1    1    2    0    0 -0.92024409024E+00 -0.10626487709E-01  0.57757915581E+02  0.58243306056E+02  0.74470750000E+01 0.  1.
        -31    1    1    2    0    0  0.92024409024E+00  0.10626487709E-01  0.61950648442E+02  0.62403435246E+02  0.74470750000E+01 0. -1.
<mgrwt>
<rscale>  0 0.15016520E+02</rscale>
<asrwt>0</asrwt>
<pdfrwt beam="1">  1        2 0.99759167E+00 0.15016520E+02</pdfrwt>
<pdfrwt beam="2">  1       -2 0.99630015E+00 0.15016520E+02</pdfrwt>
<totfact>-0.68241780E-14</totfact>
</mgrwt>
</event>
<event>
 4    1 -0.5021037E-019  0.1494224E+02  0.7818608E-02  0.1869836E+00
          2   -1    0    0  501    0  0.00000000000E+00  0.00000000000E+00  0.11907641689E+03  0.11907641692E+03  0.25500000000E-02 0. -1.
         -2   -1    0    0    0  501 -0.00000000000E+00 -0.00000000000E+00 -0.46875117273E+00  0.46875810866E+00  0.25500000000E-02 0.  1.
         31    1    1    2    0    0  0.60832741416E-01 -0.82591272855E-01  0.54583015370E+02  0.55088792099E+02  0.74470750000E+01 0.  1.
        -31    1    1    2    0    0 -0.60832741416E-01  0.82591272855E-01  0.64024650348E+02  0.64456382928E+02  0.74470750000E+01 0. -1.
<mgrwt>
<rscale>  0 0.14942239E+02</rscale>
<asrwt>0</asrwt>
<pdfrwt beam="1">  1        2 0.98848315E+00 0.14942239E+02</pdfrwt>
<pdfrwt beam="2">  1       -2 0.99555778E+00 0.14942239E+02</pdfrwt>
<totfact>-0.20505857E-13</totfact>
</mgrwt>
</event>
<event>
 4    1 -0.5021037E-019  0.1500275E+02  0.7818608E-02  0.1867985E+00
         -2   -1    0    0    0  501 -0.00000000000E+00  0.00000000000E+00  0.12013053914E+03  0.12013053917E+03  0.25500000000E-02 0.  1.
          2   -1    0    0  501    0  0.00000000000E+00 -0.00000000000E+00 -0.46840899462E+00  0.46841593562E+00  0.25500000000E-02 0. -1.
         31    1    1    2    0    0 -0.30147602275E+00  0.84559635039E+00  0.59218969665E+02  0.59692136963E+02  0.74470750000E+01 0.  1.
        -31    1    1    2    0    0  0.30147602275E+00 -0.84559635039E+00  0.60443160483E+02  0.60906818143E+02  0.74470750000E+01 0.  1.
<mgrwt>
<rscale>  0 0.15002752E+02</rscale>
<asrwt>0</asrwt>
<pdfrwt beam="2">  1        2 0.99486810E+00 0.15002752E+02</pdfrwt>
<pdfrwt beam="1">  1       -2 0.99719654E+00 0.15002752E+02</pdfrwt>
<totfact>-0.92585084E-14</totfact>
</mgrwt>
</event>
<event>
 4    1 -0.5021037E-019  0.1498026E+02  0.7818608E-02  0.1868672E+00
          2   -1    0    0  501    0  0.00000000000E+00  0.00000000000E+00  0.11959252224E+03  0.11959252227E+03  0.25500000000E-02 0.  1.
         -2   -1    0    0    0  501 -0.00000000000E+00 -0.00000000000E+00 -0.46910627107E+00  0.46911320175E+00  0.25500000000E-02 0. -1.
         31    1    1    2    0    0  0.11225631523E+00 -0.40433285190E+00  0.65038759465E+02  0.65465068894E+02  0.74470750000E+01 0.  1.
        -31    1    1    2    0    0 -0.11225631523E+00  0.40433285190E+00  0.54084656506E+02  0.54596566577E+02  0.74470750000E+01 0. -1.
<mgrwt>
<rscale>  0 0.14980256E+02</rscale>
<asrwt>0</asrwt>
<pdfrwt beam="1">  1        2 0.99275360E+00 0.14980256E+02</pdfrwt>
<pdfrwt beam="2">  1       -2 0.99632585E+00 0.14980256E+02</pdfrwt>
<totfact>-0.12928539E-13</totfact>
</mgrwt>
</event>
<event>
 4    1 -0.5021037E-019  0.1493174E+02  0.7818608E-02  0.1870159E+00
          2   -1    0    0  501    0  0.00000000000E+00  0.00000000000E+00  0.11873514049E+03  0.11873514051E+03  0.25500000000E-02 0. -1.
         -2   -1    0    0    0  501 -0.00000000000E+00 -0.00000000000E+00 -0.46943813143E+00  0.46944505721E+00  0.25500000000E-02 0.  1.
         31    1    1    2    0    0  0.15780085333E+00  0.45337901390E+00  0.60915063396E+02  0.61370467883E+02  0.74470750000E+01 0.  1.
        -31    1    1    2    0    0 -0.15780085333E+00 -0.45337901390E+00  0.57350638960E+02  0.57834117689E+02  0.74470750000E+01 0.  1.
<mgrwt>
<rscale>  0 0.14931740E+02</rscale>
<asrwt>0</asrwt>
<pdfrwt beam="1">  1        2 0.98566692E+00 0.14931740E+02</pdfrwt>
<pdfrwt beam="2">  1       -2 0.99699977E+00 0.14931740E+02</pdfrwt>
<totfact>-0.24998536E-13</totfact>
</mgrwt>
</event>
<event>
 4    1 -0.5021037E-019  0.1496453E+02  0.7818608E-02  0.1869153E+00
         -2   -1    0    0    0  501 -0.00000000000E+00  0.00000000000E+00  0.12006685364E+03  0.12006685367E+03  0.25500000000E-02 0.  1.
          2   -1    0    0  501    0  0.00000000000E+00 -0.00000000000E+00 -0.46627251418E+00  0.46627948698E+00  0.25500000000E-02 0. -1.
         31    1    1    2    0    0  0.96433812099E-01  0.15113832159E+00  0.54143542046E+02  0.54653583722E+02  0.74470750000E+01 0. -1.
        -31    1    1    2    0    0 -0.96433812099E-01 -0.15113832159E+00  0.65457039082E+02  0.65879549435E+02  0.74470750000E+01 0.  1.
<mgrwt>
<rscale>  0 0.14964531E+02</rscale>
<asrwt>0</asrwt>
<pdfrwt beam="2">  1        2 0.99034595E+00 0.14964531E+02</pdfrwt>
<pdfrwt beam="1">  1       -2 0.99665228E+00 0.14964531E+02</pdfrwt>
<totfact>-0.14820835E-13</totfact>
</mgrwt>
</event>
<event>
 4    1 -0.5021037E-019  0.1496439E+02  0.7818608E-02  0.1869157E+00
          2   -1    0    0  501    0  0.00000000000E+00  0.00000000000E+00  0.11985378006E+03  0.11985378008E+03  0.25500000000E-02 0.  1.
         -2   -1    0    0    0  501 -0.00000000000E+00 -0.00000000000E+00 -0.46709258456E+00  0.46709954512E+00  0.25500000000E-02 0. -1.
         31    1    1    2    0    0 -0.95909241279E-01 -0.45499153708E+00  0.64156283859E+02  0.64588728897E+02  0.74470750000E+01 0.  1.
        -31    1    1    2    0    0  0.95909241279E-01  0.45499153708E+00  0.55230403615E+02  0.55732150733E+02  0.74470750000E+01 0. -1.
<mgrwt>
<rscale>  0 0.14964389E+02</rscale>
<asrwt>0</asrwt>
<pdfrwt beam="1">  1        2 0.99489722E+00 0.14964389E+02</pdfrwt>
<pdfrwt beam="2">  1       -2 0.99207414E+00 0.14964389E+02</pdfrwt>
<totfact>-0.81869733E-14</totfact>
</mgrwt>
</event>
<event>
 4    1 -0.5021037E-019  0.1494794E+02  0.7818608E-02  0.1869661E+00
          2   -1    0    0  501    0  0.00000000000E+00  0.00000000000E+00  0.11966091149E+03  0.11966091152E+03  0.25500000000E-02 0.  1.
         -2   -1    0    0    0  501 -0.00000000000E+00 -0.00000000000E+00 -0.46681724118E+00  0.46682420585E+00  0.25500000000E-02 0. -1.
         31    1    1    2    0    0  0.45713771010E+00 -0.18320633605E+00  0.56395256063E+02  0.56886961352E+02  0.74470750000E+01 0.  1.
        -31    1    1    2    0    0 -0.45713771010E+00  0.18320633605E+00  0.62798838189E+02  0.63240774373E+02  0.74470750000E+01 0.  1.
<mgrwt>
<rscale>  0 0.14947936E+02</rscale>
<asrwt>0</asrwt>
<pdfrwt beam="1">  1        2 0.99330017E+00 0.14947936E+02</pdfrwt>
<pdfrwt beam="2">  1       -2 0.99148540E+00 0.14947936E+02</pdfrwt>
<totfact>-0.70848937E-14</totfact>
</mgrwt>
</event>
<event>
 4    1 -0.5021037E-019  0.1490021E+02  0.7818608E-02  0.1871129E+00
         -2   -1    0    0    0  501 -0.00000000000E+00  0.00000000000E+00  0.12012024885E+03  0.12012024888E+03  0.25500000000E-02 0. -1.
          2   -1    0    0  501    0  0.00000000000E+00 -0.00000000000E+00 -0.46206712595E+00  0.46207416221E+00  0.25500000000E-02 0.  1.
         31    1    1    2    0    0  0.14666984254E+00  0.15070881489E+00  0.60070893046E+02  0.60531110535E+02  0.74470750000E+01 0.  1.
        -31    1    1    2    0    0 -0.14666984254E+00 -0.15070881489E+00  0.59587288679E+02  0.60051212505E+02  0.74470750000E+01 0.  1.
<mgrwt>
<rscale>  0 0.14900207E+02</rscale>
<asrwt>0</asrwt>
<pdfrwt beam="2">  1        2 0.98144991E+00 0.14900207E+02</pdfrwt>
<pdfrwt beam="1">  1       -2 0.99705901E+00 0.14900207E+02</pdfrwt>
<totfact>-0.49736401E-13</totfact>
</mgrwt>
</event>
<event>
 4    1 -0.5021037E-019  0.1498666E+02  0.7818608E-02  0.1868476E+00
          2   -1    0    0  501    0  0.00000000000E+00  0.00000000000E+00  0.12011293598E+03  0.12011293601E+03  0.25500000000E-02 0. -1.
         -2   -1    0    0    0  501 -0.00000000000E+00 -0.00000000000E+00 -0.46747296264E+00  0.46747991754E+00  0.25500000000E-02 0.  1.
         31    1    1    2    0    0 -0.23357863319E+00 -0.69044389479E+00  0.63038790036E+02  0.63481329909E+02  0.74470750000E+01 0. -1.
        -31    1    1    2    0    0  0.23357863319E+00  0.69044389479E+00  0.56606672981E+02  0.57099086015E+02  0.74470750000E+01 0.  1.
<mgrwt>
<rscale>  0 0.14986657E+02</rscale>
<asrwt>0</asrwt>
<pdfrwt beam="1">  1        2 0.99704324E+00 0.14986657E+02</pdfrwt>
<pdfrwt beam="2">  1       -2 0.99288721E+00 0.14986657E+02</pdfrwt>
<totfact>-0.74034909E-14</totfact>
</mgrwt>
</event>
<event>
 4    1 -0.5021037E-019  0.1500057E+02  0.7818608E-02  0.1868051E+00
         -2   -1    0    0    0  501 -0.00000000000E+00  0.00000000000E+00  0.11973385370E+03  0.11973385372E+03  0.25500000000E-02 0. -1.
          2   -1    0    0  501    0  0.00000000000E+00 -0.00000000000E+00 -0.46982427877E+00  0.46983119886E+00  0.25500000000E-02 0.  1.
         31    1    1    2    0    0  0.64740949478E+00  0.60495151703E+00  0.58820433811E+02  0.59296605848E+02  0.74470750000E+01 0. -1.
        -31    1    1    2    0    0 -0.64740949478E+00 -0.60495151703E+00  0.60443595607E+02  0.60907079074E+02  0.74470750000E+01 0. -1.
<mgrwt>
<rscale>  0 0.15000572E+02</rscale>
<asrwt>0</asrwt>
<pdfrwt beam="2">  1        2 0.99784944E+00 0.15000572E+02</pdfrwt>
<pdfrwt beam="1">  1       -2 0.99392817E+00 0.15000572E+02</pdfrwt>
<totfact>-0.67440226E-14</totfact>
</mgrwt>
</event>
<event>
 4    1  0.5021037E-019  0.1491791E+02  0.7818608E-02  0.1870584E+00
         -2   -1    0    0    0  501 -0.00000000000E+00  0.00000000000E+00  0.11842119247E+03  0.11842119249E+03  0.25500000000E-02 0. -1.
          2   -1    0    0  501    0  0.00000000000E+00 -0.00000000000E+00 -0.46981094452E+00  0.46981786480E+00  0.25500000000E-02 0.  1.
         31    1    1    2    0    0 -0.18447814280E+00  0.31713097218E+00  0.57333568225E+02  0.57816360796E+02  0.74470750000E+01 0.  1.
        -31    1    1    2    0    0  0.18447814280E+00 -0.31713097218E+00  0.60617813298E+02  0.61074649564E+02  0.74470750000E+01 0.  1.
<mgrwt>
<rscale>  0 0.14917907E+02</rscale>
<asrwt>0</asrwt>
<pdfrwt beam="2">  1        2 0.99777800E+00 0.14917907E+02</pdfrwt>
<pdfrwt beam="1">  1       -2 0.98307406E+00 0.14917907E+02</pdfrwt>
<totfact> 0.46648622E-13</totfact>
</mgrwt>
</event>
<event>
 4    1 -0.5021037E-019  0.1495432E+02  0.7818608E-02  0.1869466E+00
          2   -1    0    0  501    0  0.00000000000E+00  0.00000000000E+00  0.11920476148E+03  0.11920476151E+03  0.25500000000E-02 0. -1.
         -2   -1    0    0    0  501 -0.00000000000E+00 -0.00000000000E+00 -0.46900417473E+00  0.46901110692E+00  0.25500000000E-02 0.  1.
         31    1    1    2    0    0 -0.85486341740E-01  0.61274071311E-02  0.54049442302E+02  0.54560136406E+02  0.74470750000E+01 0.  1.
        -31    1    1    2    0    0  0.85486341740E-01 -0.61274071311E-02  0.64686315006E+02  0.65113636211E+02  0.74470750000E+01 0. -1.
<mgrwt>
<rscale>  0 0.14954323E+02</rscale>
<asrwt>0</asrwt>
<pdfrwt beam="1">  1        2 0.98954648E+00 0.14954323E+02</pdfrwt>
<pdfrwt beam="2">  1       -2 0.99609721E+00 0.14954323E+02</pdfrwt>
<totfact>-0.17338362E-13</totfact>
</mgrwt>
</event>
<event>
 4    1 -0.5021037E-019  0.1491692E+02  0.7818608E-02  0.1870614E+00
         -2   -1    0    0    0  501 -0.00000000000E+00  0.00000000000E+00  0.11959850463E+03  0.11959850466E+03  0.25500000000E-02 0. -1.
          2   -1    0    0  501    0  0.00000000000E+00 -0.00000000000E+00 -0.46512435550E+00  0.46513134551E+00  0.25500000000E-02 0.  1.
         31    1    1    2    0    0  0.20353678173E+00 -0.25327730652E+00  0.57528954722E+02  0.58009871005E+02  0.74470750000E+01 0. -1.
        -31    1    1    2    0    0 -0.20353678173E+00  0.25327730652E+00  0.61604425553E+02  0.62053764998E+02  0.74470750000E+01 0. -1.
<mgrwt>
<rscale>  0 0.14916916E+02</rscale>
<asrwt>0</asrwt>
<pdfrwt beam="2">  1        2 0.98790182E+00 0.14916916E+02</pdfrwt>
<pdfrwt beam="1">  1       -2 0.99277015E+00 0.14916916E+02</pdfrwt>
<totfact>-0.18741845E-13</totfact>
</mgrwt>
</event>
<event>
 4    1  0.5021037E-019  0.1490272E+02  0.7818608E-02  0.1871052E+00
         -2   -1    0    0    0  501 -0.00000000000E+00  0.00000000000E+00  0.11887007359E+03  0.11887007362E+03  0.25500000000E-02 0.  1.
          2   -1    0    0  501    0  0.00000000000E+00 -0.00000000000E+00 -0.46708421942E+00  0.46709118010E+00  0.25500000000E-02 0. -1.
         31    1    1    2    0    0  0.72287904561E-01  0.11493094950E+00  0.60907572559E+02  0.61361305036E+02  0.74470750000E+01 0.  1.
        -31    1    1    2    0    0 -0.72287904561E-01 -0.11493094950E+00  0.57495416817E+02  0.57975859766E+02  0.74470750000E+01 0. -1.
<mgrwt>
<rscale>  0 0.14902718E+02</rscale>
<asrwt>0</asrwt>
<pdfrwt beam="2">  1        2 0.99202457E+00 0.14902718E+02</pdfrwt>
<pdfrwt beam="1">  1       -2 0.98676317E+00 0.14902718E+02</pdfrwt>
<totfact> 0.34263396E-13</totfact>
</mgrwt>
</event>
<event>
 4    1 -0.5021037E-019  0.1497119E+02  0.7818608E-02  0.1868949E+00
          2   -1    0    0  501    0  0.00000000000E+00  0.00000000000E+00  0.11933858922E+03  0.11933858925E+03  0.25500000000E-02 0.  1.
         -2   -1    0    0    0  501 -0.00000000000E+00 -0.00000000000E+00 -0.46953529319E+00  0.46954221754E+00  0.25500000000E-02 0. -1.
         31    1    1    2    0    0 -0.46313781677E+00  0.19497271309E+00  0.54888815031E+02  0.55393983902E+02  0.74470750000E+01 0. -1.
        -31    1    1    2    0    0  0.46313781677E+00 -0.19497271309E+00  0.63980238900E+02  0.64414147567E+02  0.74470750000E+01 0.  1.
<mgrwt>
<rscale>  0 0.14971185E+02</rscale>
<asrwt>0</asrwt>
<pdfrwt beam="1">  1        2 0.99065746E+00 0.14971185E+02</pdfrwt>
<pdfrwt beam="2">  1       -2 0.99722517E+00 0.14971185E+02</pdfrwt>
<totfact>-0.12792767E-13</totfact>
</mgrwt>
</event>
<event>
 4    1 -0.5021037E-019  0.1491850E+02  0.7818608E-02  0.1870566E+00
          2   -1    0    0  501    0  0.00000000000E+00  0.00000000000E+00  0.11870862414E+03  0.11870862416E+03  0.25500000000E-02 0.  1.
         -2   -1    0    0    0  501 -0.00000000000E+00 -0.00000000000E+00 -0.46871068444E+00  0.46871762097E+00  0.25500000000E-02 0. -1.
         31    1    1    2    0    0 -0.57286052039E-01 -0.35599502494E+00  0.60932413598E+02  0.61386871292E+02  0.74470750000E+01 0. -1.
        -31    1    1    2    0    0  0.57286052039E-01  0.35599502494E+00  0.57307499855E+02  0.57790470494E+02  0.74470750000E+01 0. -1.
<mgrwt>
<rscale>  0 0.14918501E+02</rscale>
<asrwt>0</asrwt>
<pdfrwt beam="1">  1        2 0.98544165E+00 0.14918501E+02</pdfrwt>
<pdfrwt beam="2">  1       -2 0.99546003E+00 0.14918501E+02</pdfrwt>
<totfact>-0.31741563E-13</totfact>
</mgrwt>
</event>
<event>
 4    1  0.5021037E-019  0.1494024E+02  0.7818608E-02  0.1869898E+00
          2   -1    0    0  501    0  0.00000000000E+00  0.00000000000E+00  0.12004553025E+03  0.12004553028E+03  0.25500000000E-02 0.  1.
         -2   -1    0    0    0  501 -0.00000000000E+00 -0.00000000000E+00 -0.46484264352E+00  0.46484963777E+00  0.25500000000E-02 0. -1.
         31    1    1    2    0    0 -0.31821785612E+00 -0.48936683116E+00  0.59345888753E+02  0.59814163711E+02  0.74470750000E+01 0.  1.
        -31    1    1    2    0    0  0.31821785612E+00  0.48936683116E+00  0.60234798855E+02  0.60696216205E+02  0.74470750000E+01 0.  1.
<mgrwt>
<rscale>  0 0.14940242E+02</rscale>
<asrwt>0</asrwt>
<pdfrwt beam="1">  1        2 0.99646414E+00 0.14940242E+02</pdfrwt>
<pdfrwt beam="2">  1       -2 0.98732004E+00 0.14940242E+02</pdfrwt>
<totfact> 0.17559592E-13</totfact>
</mgrwt>
</event>
<event>
 4    1  0.5021037E-019  0.1492691E+02  0.7818608E-02  0.1870307E+00
         -2   -1    0    0    0  501 -0.00000000000E+00  0.00000000000E+00  0.11906686264E+03  0.11906686267E+03  0.25500000000E-02 0.  1.
          2   -1    0    0  501    0  0.00000000000E+00 -0.00000000000E+00 -0.46782713785E+00  0.46783408748E+00  0.25500000000E-02 0. -1.
         31    1    1    2    0    0  0.15725788212E+00  0.46418699976E+00  0.59806044460E+02  0.60269910234E+02  0.74470750000E+01 0.  1.
        -31    1    1    2    0    0 -0.15725788212E+00 -0.46418699976E+00  0.58792991043E+02  0.59264786521E+02  0.74470750000E+01 0.  1.
<mgrwt>
<rscale>  0 0.14926905E+02</rscale>
<asrwt>0</asrwt>
<pdfrwt beam="2">  1        2 0.99360266E+00 0.14926905E+02</pdfrwt>
<pdfrwt beam="1">  1       -2 0.98839651E+00 0.14926905E+02</pdfrwt>
<totfact> 0.13351957E-13</totfact>
</mgrwt>
</event>
<event>
 4    1 -0.5021037E-019  0.1494083E+02  0.7818608E-02  0.1869879E+00
         -2   -1    0    0    0  501 -0.00000000000E+00  0.00000000000E+00  0.11951700653E+03  0.11951700656E+03  0.25500000000E-02 0. -1.
          2   -1    0    0  501    0  0.00000000000E+00 -0.00000000000E+00 -0.46693509343E+00  0.46694205634E+00  0.25500000000E-02 0.  1.
         31    1    1    2    0    0  0.21670181703E-01 -0.52316738232E+00  0.57340412266E+02  0.57824354546E+02  0.74470750000E+01 0. -1.
        -31    1    1    2    0    0 -0.21670181703E-01  0.52316738232E+00  0.61709659170E+02  0.62159594068E+02  0.74470750000E+01 0. -1.
<mgrwt>
<rscale>  0 0.14940830E+02</rscale>
<asrwt>0</asrwt>
<pdfrwt beam="2">  1        2 0.99173010E+00 0.14940830E+02</pdfrwt>
<pdfrwt beam="1">  1       -2 0.99211124E+00 0.14940830E+02</pdfrwt>
<totfact>-0.10632328E-13</totfact>
</mgrwt>
</event>
<event>
 4    1  0.5021037E-019  0.1490766E+02  0.7818608E-02  0.1870900E+00
         -2   -1    0    0    0  501 -0.00000000000E+00  0.00000000000E+00  0.11870801766E+03  0.11870801769E+03  0.25500000000E-02 0. -1.
          2   -1    0    0  501    0  0.00000000000E+00 -0.00000000000E+00 -0.46803193628E+00  0.46803888287E+00  0.25500000000E-02 0.  1.
         31    1    1    2    0    0  0.17446143510E+00 -0.25749072012E+00  0.58621095342E+02  0.59093049366E+02  0.74470750000E+01 0.  1.
        -31    1    1    2    0    0 -0.17446143510E+00  0.25749072012E+00  0.59618890386E+02  0.60083007208E+02  0.74470750000E+01 0.  1.
<mgrwt>
<rscale>  0 0.14907657E+02</rscale>
<asrwt>0</asrwt>
<pdfrwt beam="2">  1        2 0.99402415E+00 0.14907657E+02</pdfrwt>
<pdfrwt beam="1">  1       -2 0.98543102E+00 0.14907657E+02</pdfrwt>
<totfact> 0.46705350E-13</totfact>
</mgrwt>
</event>
<event>
 4    1 -0.5021037E-019  0.1498773E+02  0.7818608E-02  0.1868443E+00
         -2   -1    0    0    0  501 -0.00000000000E+00  0.00000000000E+00  0.12002478182E+03  0.12002478184E+03  0.25500000000E-02 0. -1.
          2   -1    0    0  501    0  0.00000000000E+00 -0.00000000000E+00 -0.46788349837E+00  0.46789044717E+00  0.25500000000E-02 0.  1.
         31    1    1    2    0    0 -0.58089529620E+00 -0.50785974905E+00  0.57188955359E+02  0.57676952953E+02  0.74470750000E+01 0.  1.
        -31    1    1    2    0    0  0.58089529620E+00  0.50785974905E+00  0.62367942958E+02  0.62815719337E+02  0.74470750000E+01 0. -1.
<mgrwt>
<rscale>  0 0.14987733E+02</rscale>
<asrwt>0</asrwt>
<pdfrwt beam="2">  1        2 0.99375294E+00 0.14987733E+02</pdfrwt>
<pdfrwt beam="1">  1       -2 0.99631772E+00 0.14987733E+02</pdfrwt>
<totfact>-0.12024751E-13</totfact>
</mgrwt>
</event>
<event>
 4    1  0.5021037E-019  0.1492410E+02  0.7818608E-02  0.1870394E+00
          2   -1    0    0  501    0  0.00000000000E+00  0.00000000000E+00  0.11982720284E+03  0.11982720287E+03  0.25500000000E-02 0.  1.
         -2   -1    0    0    0  501 -0.00000000000E+00 -0.00000000000E+00 -0.46468382280E+00  0.46469081944E+00  0.25500000000E-02 0. -1.
         31    1    1    2    0    0 -0.22511806630E+00  0.38395834496E+00  0.60959689886E+02  0.61414500073E+02  0.74470750000E+01 0.  1.
        -31    1    1    2    0    0  0.22511806630E+00 -0.38395834496E+00  0.58402829133E+02  0.58877393616E+02  0.74470750000E+01 0. -1.
<mgrwt>
<rscale>  0 0.14924099E+02</rscale>
<asrwt>0</asrwt>
<pdfrwt beam="1">  1        2 0.99465754E+00 0.14924099E+02</pdfrwt>
<pdfrwt beam="2">  1       -2 0.98697708E+00 0.14924099E+02</pdfrwt>
<totfact> 0.25659819E-13</totfact>
</mgrwt>
</event>
<event>
 4    1  0.5021037E-019  0.1491129E+02  0.7818608E-02  0.1870788E+00
         -2   -1    0    0    0  501 -0.00000000000E+00  0.00000000000E+00  0.11860576868E+03  0.11860576870E+03  0.25500000000E-02 0.  1.
          2   -1    0    0  501    0  0.00000000000E+00 -0.00000000000E+00 -0.46866363853E+00  0.46867057576E+00  0.25500000000E-02 0. -1.
         31    1    1    2    0    0 -0.11292886204E+00  0.31776127932E+00  0.58124552158E+02  0.58600650293E+02  0.74470750000E+01 0.  1.
        -31    1    1    2    0    0  0.11292886204E+00 -0.31776127932E+00  0.60012552881E+02  0.60473788987E+02  0.74470750000E+01 0. -1.
<mgrwt>
<rscale>  0 0.14911288E+02</rscale>
<asrwt>0</asrwt>
<pdfrwt beam="2">  1        2 0.99535711E+00 0.14911288E+02</pdfrwt>
<pdfrwt beam="1">  1       -2 0.98459078E+00 0.14911288E+02</pdfrwt>
<totfact> 0.52169026E-13</totfact>
</mgrwt>
</event>
<event>
 4    1 -0.5021037E-019  0.1491094E+02  0.7818608E-02  0.1870798E+00
         -2   -1    0    0    0  501 -0.00000000000E+00  0.00000000000E+00  0.11992850252E+03  0.11992850254E+03  0.25500000000E-02 0. -1.
          2   -1    0    0  501    0  0.00000000000E+00 -0.00000000000E+00 -0.46347292424E+00  0.46347993916E+00  0.25500000000E-02 0.  1.
         31    1    1    2    0    0  0.14596785014E+00 -0.31412104450E+00  0.59154050486E+02  0.59621980792E+02  0.74470750000E+01 0. -1.
        -31    1    1    2    0    0 -0.14596785014E+00  0.31412104450E+00  0.60310979105E+02  0.60770001689E+02  0.74470750000E+01 0. -1.
<mgrwt>
<rscale>  0 0.14910941E+02</rscale>
<asrwt>0</asrwt>
<pdfrwt beam="2">  1        2 0.98441831E+00 0.14910941E+02</pdfrwt>
<pdfrwt beam="1">  1       -2 0.99548515E+00 0.14910941E+02</pdfrwt>
<totfact>-0.37419092E-13</totfact>
</mgrwt>
</event>
<event>
 4    1 -0.5021037E-019  0.1496744E+02  0.7818608E-02  0.1869064E+00
         -2   -1    0    0    0  501 -0.00000000000E+00  0.00000000000E+00  0.12023362314E+03  0.12023362317E+03  0.25500000000E-02 0.  1.
          2   -1    0    0  501    0  0.00000000000E+00 -0.00000000000E+00 -0.46580693187E+00  0.46581391164E+00  0.25500000000E-02 0. -1.
         31    1    1    2    0    0 -0.12439072793E+00  0.71922501607E+00  0.58916406070E+02  0.59389684188E+02  0.74470750000E+01 0.  1.
        -31    1    1    2    0    0  0.12439072793E+00 -0.71922501607E+00  0.60851410140E+02  0.61309752893E+02  0.74470750000E+01 0.  1.
<mgrwt>
<rscale>  0 0.14967442E+02</rscale>
<asrwt>0</asrwt>
<pdfrwt beam="2">  1        2 0.98936621E+00 0.14967442E+02</pdfrwt>
<pdfrwt beam="1">  1       -2 0.99802739E+00 0.14967442E+02</pdfrwt>
<totfact>-0.11186675E-13</totfact>
</mgrwt>
</event>
<event>
 4    1 -0.5021037E-019  0.1492194E+02  0.7818608E-02  0.1870460E+00
         -2   -1    0    0    0  501 -0.00000000000E+00  0.00000000000E+00  0.11982268297E+03  0.11982268300E+03  0.25500000000E-02 0. -1.
          2   -1    0    0  501    0  0.00000000000E+00 -0.00000000000E+00 -0.46456709277E+00  0.46457409117E+00  0.25500000000E-02 0.  1.
         31    1    1    2    0    0  0.28193576566E+00 -0.35385296925E+00  0.59278245395E+02  0.59745912018E+02  0.74470750000E+01 0. -1.
        -31    1    1    2    0    0 -0.28193576566E+00  0.35385296925E+00  0.60079870481E+02  0.60541345069E+02  0.74470750000E+01 0.  1.
<mgrwt>
<rscale>  0 0.14921943E+02</rscale>
<asrwt>0</asrwt>
<pdfrwt beam="2">  1        2 0.98672996E+00 0.14921943E+02</pdfrwt>
<pdfrwt beam="1">  1       -2 0.99461920E+00 0.14921943E+02</pdfrwt>
<totfact>-0.26617172E-13</totfact>
</mgrwt>
</event>
<event>
 4    1 -0.5021037E-019  0.1493760E+02  0.7818608E-02  0.1869979E+00
         -2   -1    0    0    0  501 -0.00000000000E+00  0.00000000000E+00  0.11988131845E+03  0.11988131848E+03  0.25500000000E-02 0.  1.
          2   -1    0    0  501    0  0.00000000000E+00 -0.00000000000E+00 -0.46531458761E+00  0.46532157477E+00  0.25500000000E-02 0. -1.
         31    1    1    2    0    0 -0.37754099328E+00  0.13783761446E+00  0.56460413138E+02  0.56950844718E+02  0.74470750000E+01 0. -1.
        -31    1    1    2    0    0  0.37754099328E+00 -0.13783761446E+00  0.62955590726E+02  0.63395795334E+02  0.74470750000E+01 0.  1.
<mgrwt>
<rscale>  0 0.14937597E+02</rscale>
<asrwt>0</asrwt>
<pdfrwt beam="2">  1        2 0.98831333E+00 0.14937597E+02</pdfrwt>
<pdfrwt beam="1">  1       -2 0.99511022E+00 0.14937597E+02</pdfrwt>
<totfact>-0.21398250E-13</totfact>
</mgrwt>
</event>
<event>
 4    1 -0.5021037E-019  0.1491728E+02  0.7818608E-02  0.1870603E+00
          2   -1    0    0  501    0  0.00000000000E+00  0.00000000000E+00  0.11902105459E+03  0.11902105462E+03  0.25500000000E-02 0.  1.
         -2   -1    0    0    0  501 -0.00000000000E+00 -0.00000000000E+00 -0.46740407260E+00  0.46741102852E+00  0.25500000000E-02 0. -1.
         31    1    1    2    0    0  0.22547661857E+00  0.28294153082E+00  0.60909016506E+02  0.61363654661E+02  0.74470750000E+01 0.  1.
        -31    1    1    2    0    0 -0.22547661857E+00 -0.28294153082E+00  0.57644634011E+02  0.58124810984E+02  0.74470750000E+01 0.  1.
<mgrwt>
<rscale>  0 0.14917284E+02</rscale>
<asrwt>0</asrwt>
<pdfrwt beam="1">  1        2 0.98801424E+00 0.14917284E+02</pdfrwt>
<pdfrwt beam="2">  1       -2 0.99270616E+00 0.14917284E+02</pdfrwt>
<totfact>-0.18211850E-13</totfact>
</mgrwt>
</event>
<event>
 4    1 -0.5021037E-019  0.1491863E+02  0.7818608E-02  0.1870562E+00
          2   -1    0    0  501    0  0.00000000000E+00  0.00000000000E+00  0.11883096756E+03  0.11883096759E+03  0.25500000000E-02 0. -1.
         -2   -1    0    0    0  501 -0.00000000000E+00 -0.00000000000E+00 -0.46823644045E+00  0.46824338400E+00  0.25500000000E-02 0.  1.
         31    1    1    2    0    0  0.34543390430E-02  0.40930624878E+00  0.60158643713E+02  0.60619212161E+02  0.74470750000E+01 0.  1.
        -31    1    1    2    0    0 -0.34543390430E-02 -0.40930624878E+00  0.58204087407E+02  0.58679998811E+02  0.74470750000E+01 0.  1.
<mgrwt>
<rscale>  0 0.14918633E+02</rscale>
<asrwt>0</asrwt>
<pdfrwt beam="1">  1        2 0.98644935E+00 0.14918633E+02</pdfrwt>
<pdfrwt beam="2">  1       -2 0.99446081E+00 0.14918633E+02</pdfrwt>
<totfact>-0.27664507E-13</totfact>
</mgrwt>
</event>
<event>
 4    1  0.5021037E-019  0.1492017E+02  0.7818608E-02  0.1870514E+00
         -2   -1    0    0    0  501 -0.00000000000E+00  0.00000000000E+00  0.11855214777E+03  0.11855214779E+03  0.25500000000E-02 0. -1.
          2   -1    0    0  501    0  0.00000000000E+00 -0.00000000000E+00 -0.46943454668E+00  0.46944147252E+00  0.25500000000E-02 0.  1.
         31    1    1    2    0    0  0.33864938917E+00  0.23353319172E+00  0.60296099015E+02  0.60755639274E+02  0.74470750000E+01 0. -1.
        -31    1    1    2    0    0 -0.33864938917E+00 -0.23353319172E+00  0.57786614204E+02  0.58265949992E+02  0.74470750000E+01 0.  1.
<mgrwt>
<rscale>  0 0.14920173E+02</rscale>
<asrwt>0</asrwt>
<pdfrwt beam="2">  1        2 0.99698613E+00 0.14920173E+02</pdfrwt>
<pdfrwt beam="1">  1       -2 0.98415378E+00 0.14920173E+02</pdfrwt>
<totfact> 0.44979671E-13</totfact>
</mgrwt>
</event>
<event>
 4    1 -0.5021037E-019  0.1493537E+02  0.7818608E-02  0.1870047E+00
          2   -1    0    0  501    0  0.00000000000E+00  0.00000000000E+00  0.11900542246E+03  0.11900542249E+03  0.25500000000E-02 0.  1.
         -2   -1    0    0    0  501 -0.00000000000E+00 -0.00000000000E+00 -0.46859940954E+00  0.46860634771E+00  0.25500000000E-02 0. -1.
         31    1    1    2    0    0 -0.12846682045E-01 -0.47171273288E+00  0.56940560148E+02  0.57427423710E+02  0.74470750000E+01 0.  1.
        -31    1    1    2    0    0  0.12846682045E-01  0.47171273288E+00  0.61596262901E+02  0.62046605123E+02  0.74470750000E+01 0.  1.
<mgrwt>
<rscale>  0 0.14935366E+02</rscale>
<asrwt>0</asrwt>
<pdfrwt beam="1">  1        2 0.98789486E+00 0.14935366E+02</pdfrwt>
<pdfrwt beam="2">  1       -2 0.99523439E+00 0.14935366E+02</pdfrwt>
<totfact>-0.22458412E-13</totfact>
</mgrwt>
</event>
<event>
 4    1 -0.5021037E-019  0.1497774E+02  0.7818608E-02  0.1868749E+00
          2   -1    0    0  501    0  0.00000000000E+00  0.00000000000E+00  0.11999409258E+03  0.11999409260E+03  0.25500000000E-02 0.  1.
         -2   -1    0    0    0  501 -0.00000000000E+00 -0.00000000000E+00 -0.46737922479E+00  0.46738618108E+00  0.25500000000E-02 0. -1.
         31    1    1    2    0    0  0.41221777394E+00 -0.27956172109E+00  0.64696111748E+02  0.65125216926E+02  0.74470750000E+01 0.  1.
        -31    1    1    2    0    0 -0.41221777394E+00  0.27956172109E+00  0.54830601604E+02  0.55336261859E+02  0.74470750000E+01 0. -1.
<mgrwt>
<rscale>  0 0.14977739E+02</rscale>
<asrwt>0</asrwt>
<pdfrwt beam="1">  1        2 0.99605979E+00 0.14977739E+02</pdfrwt>
<pdfrwt beam="2">  1       -2 0.99268508E+00 0.14977739E+02</pdfrwt>
<totfact>-0.85051735E-14</totfact>
</mgrwt>
</event>
<event>
 4    1 -0.5021037E-019  0.1498386E+02  0.7818608E-02  0.1868561E+00
          2   -1    0    0  501    0  0.00000000000E+00  0.00000000000E+00  0.11937698312E+03  0.11937698315E+03  0.25500000000E-02 0. -1.
         -2   -1    0    0    0  501 -0.00000000000E+00 -0.00000000000E+00 -0.47017927333E+00  0.47018618819E+00  0.25500000000E-02 0.  1.
         31    1    1    2    0    0  0.68522829604E-01 -0.40693489032E+00  0.65107903456E+02  0.65533718877E+02  0.74470750000E+01 0. -1.
        -31    1    1    2    0    0 -0.68522829604E-01  0.40693489032E+00  0.53798900396E+02  0.54313450463E+02  0.74470750000E+01 0.  1.
<mgrwt>
<rscale>  0 0.14983858E+02</rscale>
<asrwt>0</asrwt>
<pdfrwt beam="1">  1        2 0.99098025E+00 0.14983858E+02</pdfrwt>
<pdfrwt beam="2">  1       -2 0.99858876E+00 0.14983858E+02</pdfrwt>
<totfact>-0.72553576E-14</totfact>
</mgrwt>
</event>
<event>
 4    1 -0.5021037E-019  0.1500203E+02  0.7818608E-02  0.1868006E+00
          2   -1    0    0  501    0  0.00000000000E+00  0.00000000000E+00  0.11981598641E+03  0.11981598644E+03  0.25500000000E-02 0.  1.
         -2   -1    0    0    0  501 -0.00000000000E+00 -0.00000000000E+00 -0.46959380187E+00  0.46960072536E+00  0.25500000000E-02 0. -1.
         31    1    1    2    0    0 -0.26233081324E+00 -0.53526262477E+00  0.65057852300E+02  0.65485405973E+02  0.74470750000E+01 0.  1.
        -31    1    1    2    0    0  0.26233081324E+00  0.53526262477E+00  0.54288540307E+02  0.54800181188E+02  0.74470750000E+01 0. -1.
<mgrwt>
<rscale>  0 0.15002035E+02</rscale>
<asrwt>0</asrwt>
<pdfrwt beam="1">  1        2 0.99460539E+00 0.15002035E+02</pdfrwt>
<pdfrwt beam="2">  1       -2 0.99736452E+00 0.15002035E+02</pdfrwt>
<totfact>-0.90940268E-14</totfact>
</mgrwt>
</event>
<event>
 4    1 -0.5021037E-019  0.1490975E+02  0.7818608E-02  0.1870835E+00
         -2   -1    0    0    0  501 -0.00000000000E+00  0.00000000000E+00  0.11993160013E+03  0.11993160015E+03  0.25500000000E-02 0. -1.
          2   -1    0    0  501    0  0.00000000000E+00 -0.00000000000E+00 -0.46338716596E+00  0.46339418218E+00  0.25500000000E-02 0.  1.
         31    1    1    2    0    0 -0.30242034825E-01  0.62663038996E-03  0.62476574625E+02  0.62918854233E+02  0.74470750000E+01 0. -1.
        -31    1    1    2    0    0  0.30242034825E-01 -0.62663038996E-03  0.56991638334E+02  0.57476140102E+02  0.74470750000E+01 0.  1.
<mgrwt>
<rscale>  0 0.14909754E+02</rscale>
<asrwt>0</asrwt>
<pdfrwt beam="2">  1        2 0.98423696E+00 0.14909754E+02</pdfrwt>
<pdfrwt beam="1">  1       -2 0.99551005E+00 0.14909754E+02</pdfrwt>
<totfact>-0.38499695E-13</totfact>
</mgrwt>
</event>
<event>
 4    1 -0.5021037E-019  0.1501226E+02  0.7818608E-02  0.1867695E+00
          2   -1    0    0  501    0  0.00000000000E+00  0.00000000000E+00  0.11980668656E+03  0.11980668658E+03  0.25500000000E-02 0. -1.
         -2   -1    0    0    0  501 -0.00000000000E+00 -0.00000000000E+00 -0.47027051763E+00  0.47027743116E+00  0.25500000000E-02 0.  1.
         31    1    1    2    0    0 -0.80404658960E+00  0.35472785853E+00  0.62334155548E+02  0.62783582222E+02  0.74470750000E+01 0.  1.
        -31    1    1    2    0    0  0.80404658960E+00 -0.35472785853E+00  0.57002260491E+02  0.57493381793E+02  0.74470750000E+01 0. -1.
<mgrwt>
<rscale>  0 0.15012258E+02</rscale>
<asrwt>0</asrwt>
<pdfrwt beam="1">  1        2 0.99453409E+00 0.15012258E+02</pdfrwt>
<pdfrwt beam="2">  1       -2 0.99879585E+00 0.15012258E+02</pdfrwt>
<totfact>-0.48046110E-14</totfact>
</mgrwt>
</event>
<event>
 4    1 -0.5021037E-019  0.1491949E+02  0.7818608E-02  0.1870535E+00
         -2   -1    0    0    0  501 -0.00000000000E+00  0.00000000000E+00  0.12004057992E+03  0.12004057995E+03  0.25500000000E-02 0. -1.
          2   -1    0    0  501    0  0.00000000000E+00 -0.00000000000E+00 -0.46357121906E+00  0.46357823249E+00  0.25500000000E-02 0.  1.
         31    1    1    2    0    0  0.29852094140E+00 -0.25547131172E+00  0.58288801784E+02  0.58763915117E+02  0.74470750000E+01 0.  1.
        -31    1    1    2    0    0 -0.29852094140E+00  0.25547131172E+00  0.61288206916E+02  0.61740243063E+02  0.74470750000E+01 0. -1.
<mgrwt>
<rscale>  0 0.14919488E+02</rscale>
<asrwt>0</asrwt>
<pdfrwt beam="2">  1        2 0.98462982E+00 0.14919488E+02</pdfrwt>
<pdfrwt beam="1">  1       -2 0.99641269E+00 0.14919488E+02</pdfrwt>
<totfact>-0.32836812E-13</totfact>
</mgrwt>
</event>
<event>
 4    1  0.5021037E-019  0.1489963E+02  0.7818608E-02  0.1871147E+00
         -2   -1    0    0    0  501 -0.00000000000E+00  0.00000000000E+00  0.11836833937E+03  0.11836833940E+03  0.25500000000E-02 0. -1.
          2   -1    0    0  501    0  0.00000000000E+00 -0.00000000000E+00 -0.46886980368E+00  0.46887673786E+00  0.25500000000E-02 0.  1.
         31    1    1    2    0    0  0.54256011396E-01  0.12621000990E+00  0.60131532787E+02  0.60591080483E+02  0.74470750000E+01 0. -1.
        -31    1    1    2    0    0 -0.54256011396E-01 -0.12621000990E+00  0.57767936782E+02  0.58246135656E+02  0.74470750000E+01 0.  1.
<mgrwt>
<rscale>  0 0.14899631E+02</rscale>
<asrwt>0</asrwt>
<pdfrwt beam="2">  1        2 0.99578537E+00 0.14899631E+02</pdfrwt>
<pdfrwt beam="1">  1       -2 0.98262925E+00 0.14899631E+02</pdfrwt>
<totfact> 0.78651494E-13</totfact>
</mgrwt>
</event>
<event>
 4    1 -0.5021037E-019  0.1498883E+02  0.7818608E-02  0.1868409E+00
         -2   -1    0    0    0  501 -0.00000000000E+00  0.00000000000E+00  0.12005312871E+03  0.12005312874E+03  0.25500000000E-02 0.  1.
          2   -1    0    0  501    0  0.00000000000E+00 -0.00000000000E+00 -0.46784167849E+00  0.46784862791E+00  0.25500000000E-02 0. -1.
         31    1    1    2    0    0 -0.51120392760E+00  0.59318168793E+00  0.62259947044E+02  0.62708636773E+02  0.74470750000E+01 0.  1.
        -31    1    1    2    0    0  0.51120392760E+00 -0.59318168793E+00  0.57325339991E+02  0.57812340595E+02  0.74470750000E+01 0. -1.
<mgrwt>
<rscale>  0 0.14988833E+02</rscale>
<asrwt>0</asrwt>
<pdfrwt beam="2">  1        2 0.99366537E+00 0.14988833E+02</pdfrwt>
<pdfrwt beam="1">  1       -2 0.99655177E+00 0.14988833E+02</pdfrwt>
<totfact>-0.11689265E-13</totfact>
</mgrwt>
</event>
<event>
 4    1 -0.5021037E-019  0.1493257E+02  0.7818608E-02  0.1870133E+00
         -2   -1    0    0    0  501 -0.00000000000E+00  0.00000000000E+00  0.11940506913E+03  0.11940506916E+03  0.25500000000E-02 0.  1.
          2   -1    0    0  501    0  0.00000000000E+00 -0.00000000000E+00 -0.46685620061E+00  0.46686316469E+00  0.25500000000E-02 0. -1.
         31    1    1    2    0    0 -0.15705369166E+00 -0.50587242945E+00  0.60086607406E+02  0.60548657197E+02  0.74470750000E+01 0. -1.
        -31    1    1    2    0    0  0.15705369166E+00  0.50587242945E+00  0.58851605524E+02  0.59323275125E+02  0.74470750000E+01 0. -1.
<mgrwt>
<rscale>  0 0.14932571E+02</rscale>
<asrwt>0</asrwt>
<pdfrwt beam="2">  1        2 0.99155957E+00 0.14932571E+02</pdfrwt>
<pdfrwt beam="1">  1       -2 0.99118501E+00 0.14932571E+02</pdfrwt>
<totfact>-0.65034622E-14</totfact>
</mgrwt>
</event>
<event>
 4    1 -0.5021037E-019  0.1495704E+02  0.7818608E-02  0.1869382E+00
          2   -1    0    0  501    0  0.00000000000E+00  0.00000000000E+00  0.11959401867E+03  0.11959401870E+03  0.25500000000E-02 0.  1.
         -2   -1    0    0    0  501 -0.00000000000E+00 -0.00000000000E+00 -0.46764733739E+00  0.46765428969E+00  0.25500000000E-02 0. -1.
         31    1    1    2    0    0  0.48423504532E+00  0.48291136694E+00  0.59239069606E+02  0.59709245355E+02  0.74470750000E+01 0. -1.
        -31    1    1    2    0    0 -0.48423504532E+00 -0.48291136694E+00  0.59887301727E+02  0.60352427633E+02  0.74470750000E+01 0. -1.
<mgrwt>
<rscale>  0 0.14957038E+02</rscale>
<asrwt>0</asrwt>
<pdfrwt beam="1">  1        2 0.99275392E+00 0.14957038E+02</pdfrwt>
<pdfrwt beam="2">  1       -2 0.99323942E+00 0.14957038E+02</pdfrwt>
<totfact>-0.12941208E-13</totfact>
</mgrwt>
</event>
<event>
 4    1  0.5021037E-019  0.1489567E+02  0.7818608E-02  0.1871269E+00
         -2   -1    0    0    0  501 -0.00000000000E+00  0.00000000000E+00  0.11821514639E+03  0.11821514641E+03  0.25500000000E-02 0.  1.
          2   -1    0    0  501    0  0.00000000000E+00 -0.00000000000E+00 -0.46922761693E+00  0.46923454582E+00  0.25500000000E-02 0. -1.
         31    1    1    2    0    0 -0.35103376477E-01 -0.99203071994E-01  0.58753528867E+02  0.59223704324E+02  0.74470750000E+01 0. -1.
        -31    1    1    2    0    0  0.35103376477E-01  0.99203071994E-01  0.58992389903E+02  0.59460676637E+02  0.74470750000E+01 0.  1.
<mgrwt>
<rscale>  0 0.14895667E+02</rscale>
<asrwt>0</asrwt>
<pdfrwt beam="2">  1        2 0.99653719E+00 0.14895667E+02</pdfrwt>
<pdfrwt beam="1">  1       -2 0.98136550E+00 0.14895667E+02</pdfrwt>
<totfact> 0.89946076E-13</totfact>
</mgrwt>
</event>
<event>
 4    1  0.5021037E-019  0.1491532E+02  0.7818608E-02  0.1870664E+00
          2   -1    0    0  501    0  0.00000000000E+00  0.00000000000E+00  0.12019207263E+03  0.12019207265E+03  0.25500000000E-02 0. -1.
         -2   -1    0    0    0  501 -0.00000000000E+00 -0.00000000000E+00 -0.46272841576E+00  0.46273544196E+00  0.25500000000E-02 0.  1.
         31    1    1    2    0    0 -0.14970870949E-01 -0.25141679574E+00  0.57379890889E+02  0.57861681959E+02  0.74470750000E+01 0.  1.
        -31    1    1    2    0    0  0.14970870949E-01  0.25141679574E+00  0.62349453321E+02  0.62793126137E+02  0.74470750000E+01 0. -1.
<mgrwt>
<rscale>  0 0.14915323E+02</rscale>
<asrwt>0</asrwt>
<pdfrwt beam="1">  1        2 0.99765837E+00 0.14915323E+02</pdfrwt>
<pdfrwt beam="2">  1       -2 0.98285136E+00 0.14915323E+02</pdfrwt>
<totfact> 0.50940178E-13</totfact>
</mgrwt>
</event>
<event>
 4    1 -0.5021037E-019  0.1499331E+02  0.7818608E-02  0.1868273E+00
          2   -1    0    0  501    0  0.00000000000E+00  0.00000000000E+00  0.11956468598E+03  0.11956468601E+03  0.25500000000E-02 0.  1.
         -2   -1    0    0    0  501 -0.00000000000E+00 -0.00000000000E+00 -0.47003363159E+00  0.47004054859E+00  0.25500000000E-02 0. -1.
         31    1    1    2    0    0  0.69768432093E+00  0.49456620184E+00  0.60329904543E+02  0.60793812739E+02  0.74470750000E+01 0. -1.
        -31    1    1    2    0    0 -0.69768432093E+00 -0.49456620184E+00  0.58764747805E+02  0.59240913816E+02  0.74470750000E+01 0.  1.
<mgrwt>
<rscale>  0 0.14993311E+02</rscale>
<asrwt>0</asrwt>
<pdfrwt beam="1">  1        2 0.99253110E+00 0.14993311E+02</pdfrwt>
<pdfrwt beam="2">  1       -2 0.99828681E+00 0.14993311E+02</pdfrwt>
<totfact>-0.76243480E-14</totfact>
</mgrwt>
</event>
<event>
 4    1 -0.5021037E-019  0.1490509E+02  0.7818608E-02  0.1870979E+00
          2   -1    0    0  501    0  0.00000000000E+00  0.00000000000E+00  0.11880524632E+03  0.11880524635E+03  0.25500000000E-02 0.  1.
         -2   -1    0    0    0  501 -0.00000000000E+00 -0.00000000000E+00 -0.46748771153E+00  0.46749466621E+00  0.25500000000E-02 0. -1.
         31    1    1    2    0    0  0.75455566578E-01 -0.15237219197E+00  0.57334095754E+02  0.57815969877E+02  0.74470750000E+01 0. -1.
        -31    1    1    2    0    0 -0.75455566578E-01  0.15237219197E+00  0.61003662859E+02  0.61456771141E+02  0.74470750000E+01 0.  1.
<mgrwt>
<rscale>  0 0.14905088E+02</rscale>
<asrwt>0</asrwt>
<pdfrwt beam="1">  1        2 0.98623047E+00 0.14905088E+02</pdfrwt>
<pdfrwt beam="2">  1       -2 0.99287604E+00 0.14905088E+02</pdfrwt>
<totfact>-0.24256394E-13</totfact>
</mgrwt>
</event>
<event>
 4    1  0.5021037E-019  0.1493840E+02  0.7818608E-02  0.1869954E+00
         -2   -1    0    0    0  501 -0.00000000000E+00  0.00000000000E+00  0.11921431571E+03  0.11921431574E+03  0.25500000000E-02 0. -1.
          2   -1    0    0  501    0  0.00000000000E+00 -0.00000000000E+00 -0.46796843041E+00  0.46797537794E+00  0.25500000000E-02 0.  1.
         31    1    1    2    0    0 -0.12513102556E-01 -0.24663460772E+00  0.55217551109E+02  0.55718020979E+02  0.74470750000E+01 0.  1.
        -31    1    1    2    0    0  0.12513102556E-01  0.24663460772E+00  0.63528796170E+02  0.63964270137E+02  0.74470750000E+01 0. -1.
<mgrwt>
<rscale>  0 0.14938401E+02</rscale>
<asrwt>0</asrwt>
<pdfrwt beam="2">  1        2 0.99390638E+00 0.14938401E+02</pdfrwt>
<pdfrwt beam="1">  1       -2 0.98961692E+00 0.14938401E+02</pdfrwt>
<totfact> 0.34444706E-14</totfact>
</mgrwt>
</event>
<event>
 4    1  0.5021037E-019  0.1491474E+02  0.7818608E-02  0.1870681E+00
          2   -1    0    0  501    0  0.00000000000E+00  0.00000000000E+00  0.12000055568E+03  0.12000055571E+03  0.25500000000E-02 0.  1.
         -2   -1    0    0    0  501 -0.00000000000E+00 -0.00000000000E+00 -0.46343086039E+00  0.46343787595E+00  0.25500000000E-02 0. -1.
         31    1    1    2    0    0 -0.21858325200E+00 -0.30085519115E+00  0.60763241630E+02  0.61219022795E+02  0.74470750000E+01 0.  1.
        -31    1    1    2    0    0  0.21858325200E+00  0.30085519115E+00  0.58773883191E+02  0.59244970790E+02  0.74470750000E+01 0. -1.
<mgrwt>
<rscale>  0 0.14914742E+02</rscale>
<asrwt>0</asrwt>
<pdfrwt beam="1">  1        2 0.99608058E+00 0.14914742E+02</pdfrwt>
<pdfrwt beam="2">  1       -2 0.98433159E+00 0.14914742E+02</pdfrwt>
<totfact> 0.50755830E-13</totfact>
</mgrwt>
</event>
<event>
 4    1 -0.5021037E-019  0.1490977E+02  0.7818608E-02  0.1870834E+00
          2   -1    0    0  501    0  0.00000000000E+00  0.00000000000E+00  0.11864744503E+03  0.11864744506E+03  0.25500000000E-02 0. -1.
         -2   -1    0    0    0  501 -0.00000000000E+00 -0.00000000000E+00 -0.46840386547E+00  0.46841080654E+00  0.25500000000E-02 0.  1.
         31    1    1    2    0    0  0.14987993257E+00 -0.29286091328E+00  0.58366987484E+02  0.58841077366E+02  0.74470750000E+01 0. -1.
        -31    1    1    2    0    0 -0.14987993257E+00  0.29286091328E+00  0.59812053679E+02  0.60274778497E+02  0.74470750000E+01 0.  1.
<mgrwt>
<rscale>  0 0.14909774E+02</rscale>
<asrwt>0</asrwt>
<pdfrwt beam="1">  1        2 0.98493324E+00 0.14909774E+02</pdfrwt>
<pdfrwt beam="2">  1       -2 0.99480895E+00 0.14909774E+02</pdfrwt>
<totfact>-0.35180717E-13</totfact>
</mgrwt>
</event>
<event>
 4    1 -0.5021037E-019  0.1491959E+02  0.7818608E-02  0.1870532E+00
         -2   -1    0    0    0  501 -0.00000000000E+00  0.00000000000E+00  0.11984808477E+03  0.11984808480E+03  0.25500000000E-02 0. -1.
          2   -1    0    0  501    0  0.00000000000E+00 -0.00000000000E+00 -0.46432243602E+00  0.46432943811E+00  0.25500000000E-02 0.  1.
         31    1    1    2    0    0  0.38006712554E+00 -0.17159584117E+00  0.60704082650E+02  0.61160595751E+02  0.74470750000E+01 0. -1.
        -31    1    1    2    0    0 -0.38006712554E+00  0.17159584117E+00  0.58679679685E+02  0.59151818486E+02  0.74470750000E+01 0. -1.
<mgrwt>
<rscale>  0 0.14919595E+02</rscale>
<asrwt>0</asrwt>
<pdfrwt beam="2">  1        2 0.98621314E+00 0.14919595E+02</pdfrwt>
<pdfrwt beam="1">  1       -2 0.99482722E+00 0.14919595E+02</pdfrwt>
<totfact>-0.28755042E-13</totfact>
</mgrwt>
</event>
<event>
 4    1 -0.5021037E-019  0.1500862E+02  0.7818608E-02  0.1867806E+00
         -2   -1    0    0    0  501 -0.00000000000E+00  0.00000000000E+00  0.11964156178E+03  0.11964156181E+03  0.25500000000E-02 0. -1.
          2   -1    0    0  501    0  0.00000000000E+00 -0.00000000000E+00 -0.47069135167E+00  0.47069825901E+00  0.25500000000E-02 0.  1.
         31    1    1    2    0    0  0.48190591487E+00  0.69637607752E+00  0.62564464318E+02  0.63011810753E+02  0.74470750000E+01 0. -1.
        -31    1    1    2    0    0 -0.48190591487E+00 -0.69637607752E+00  0.56606406110E+02  0.57100449312E+02  0.74470750000E+01 0. -1.
<mgrwt>
<rscale>  0 0.15008620E+02</rscale>
<asrwt>0</asrwt>
<pdfrwt beam="2">  1        2 0.99968073E+00 0.15008620E+02</pdfrwt>
<pdfrwt beam="1">  1       -2 0.99317220E+00 0.15008620E+02</pdfrwt>
<totfact>-0.11248238E-14</totfact>
</mgrwt>
</event>
<event>
 4    1 -0.5021037E-019  0.1494926E+02  0.7818608E-02  0.1869621E+00
         -2   -1    0    0    0  501 -0.00000000000E+00  0.00000000000E+00  0.11953443675E+03  0.11953443678E+03  0.25500000000E-02 0. -1.
          2   -1    0    0  501    0  0.00000000000E+00 -0.00000000000E+00 -0.46739381729E+00  0.46740077337E+00  0.25500000000E-02 0.  1.
         31    1    1    2    0    0 -0.47367222407E+00  0.32473437673E+00  0.57244243164E+02  0.57729473575E+02  0.74470750000E+01 0.  1.
        -31    1    1    2    0    0  0.47367222407E+00 -0.32473437673E+00  0.61822799774E+02  0.62272363980E+02  0.74470750000E+01 0. -1.
<mgrwt>
<rscale>  0 0.14949258E+02</rscale>
<asrwt>0</asrwt>
<pdfrwt beam="2">  1        2 0.99270114E+00 0.14949258E+02</pdfrwt>
<pdfrwt beam="1">  1       -2 0.99225915E+00 0.14949258E+02</pdfrwt>
<totfact>-0.10415752E-13</totfact>
</mgrwt>
</event>
<event>
 4    1 -0.5021037E-019  0.1491064E+02  0.7818608E-02  0.1870808E+00
          2   -1    0    0  501    0  0.00000000000E+00  0.00000000000E+00  0.11809156670E+03  0.11809156673E+03  0.25500000000E-02 0.  1.
         -2   -1    0    0    0  501 -0.00000000000E+00 -0.00000000000E+00 -0.47066339408E+00  0.47067030183E+00  0.25500000000E-02 0. -1.
         31    1    1    2    0    0  0.10665291406E+00  0.36370411587E-01  0.61449649751E+02  0.61899362502E+02  0.74470750000E+01 0.  1.
        -31    1    1    2    0    0 -0.10665291406E+00 -0.36370411587E-01  0.56171253557E+02  0.56662874529E+02  0.74470750000E+01 0. -1.
<mgrwt>
<rscale>  0 0.14910639E+02</rscale>
<asrwt>0</asrwt>
<pdfrwt beam="1">  1        2 0.98035553E+00 0.14910639E+02</pdfrwt>
<pdfrwt beam="2">  1       -2 0.99957018E+00 0.14910639E+02</pdfrwt>
<totfact>-0.11032385E-13</totfact>
</mgrwt>
</event>
<event>
 4    1 -0.5021037E-019  0.1496771E+02  0.7818608E-02  0.1869056E+00
         -2   -1    0    0    0  501 -0.00000000000E+00  0.00000000000E+00  0.11961414017E+03  0.11961414020E+03  0.25500000000E-02 0. -1.
          2   -1    0    0  501    0  0.00000000000E+00 -0.00000000000E+00 -0.46823590112E+00  0.46824284468E+00  0.25500000000E-02 0.  1.
         31    1    1    2    0    0  0.11594957824E-01 -0.43554350552E+00  0.64381892667E+02  0.64812628877E+02  0.74470750000E+01 0. -1.
        -31    1    1    2    0    0 -0.11594957824E-01  0.43554350552E+00  0.54764011603E+02  0.55269754165E+02  0.74470750000E+01 0.  1.
<mgrwt>
<rscale>  0 0.14967706E+02</rscale>
<asrwt>0</asrwt>
<pdfrwt beam="2">  1        2 0.99448523E+00 0.14967706E+02</pdfrwt>
<pdfrwt beam="1">  1       -2 0.99292516E+00 0.14967706E+02</pdfrwt>
<totfact>-0.10722229E-13</totfact>
</mgrwt>
</event>
<event>
 4    1 -0.5021037E-019  0.1497809E+02  0.7818608E-02  0.1868738E+00
          2   -1    0    0  501    0  0.00000000000E+00  0.00000000000E+00  0.11942601774E+03  0.11942601776E+03  0.25500000000E-02 0.  1.
         -2   -1    0    0    0  501 -0.00000000000E+00 -0.00000000000E+00 -0.46962457474E+00  0.46963149778E+00  0.25500000000E-02 0. -1.
         31    1    1    2    0    0  0.70071126261E+00 -0.31061737202E+00  0.61067170942E+02  0.61524351052E+02  0.74470750000E+01 0. -1.
        -31    1    1    2    0    0 -0.70071126261E+00  0.31061737202E+00  0.57889222218E+02  0.58371298208E+02  0.74470750000E+01 0. -1.
<mgrwt>
<rscale>  0 0.14978092E+02</rscale>
<asrwt>0</asrwt>
<pdfrwt beam="1">  1        2 0.99138111E+00 0.14978092E+02</pdfrwt>
<pdfrwt beam="2">  1       -2 0.99741691E+00 0.14978092E+02</pdfrwt>
<totfact>-0.11465628E-13</totfact>
</mgrwt>
</event>
<event>
 4    1 -0.5021037E-019  0.1500439E+02  0.7818608E-02  0.1867935E+00
         -2   -1    0    0    0  501 -0.00000000000E+00  0.00000000000E+00  0.12019931828E+03  0.12019931831E+03  0.25500000000E-02 0. -1.
          2   -1    0    0  501    0  0.00000000000E+00 -0.00000000000E+00 -0.46824325303E+00  0.46825019649E+00  0.25500000000E-02 0.  1.
         31    1    1    2    0    0 -0.63017163632E+00 -0.57169009833E+00  0.62409558873E+02  0.62858061621E+02  0.74470750000E+01 0.  1.
        -31    1    1    2    0    0  0.63017163632E+00  0.57169009833E+00  0.57321516153E+02  0.57809506883E+02  0.74470750000E+01 0. -1.
<mgrwt>
<rscale>  0 0.15004391E+02</rscale>
<asrwt>0</asrwt>
<pdfrwt beam="2">  1        2 0.99451966E+00 0.15004391E+02</pdfrwt>
<pdfrwt beam="1">  1       -2 0.99776388E+00 0.15004391E+02</pdfrwt>
<totfact>-0.81122892E-14</totfact>
</mgrwt>
</event>
<event>
 4    1 -0.5021037E-019  0.1490610E+02  0.7818608E-02  0.1870947E+00
          2   -1    0    0  501    0  0.00000000000E+00  0.00000000000E+00  0.11851411636E+03  0.11851411639E+03  0.25500000000E-02 0. -1.
         -2   -1    0    0    0  501 -0.00000000000E+00 -0.00000000000E+00 -0.46869981698E+00  0.46870675367E+00  0.25500000000E-02 0.  1.
         31    1    1    2    0    0 -0.14921094709E+00  0.53802316660E-01  0.61040067814E+02  0.61492877338E+02  0.74470750000E+01 0. -1.
        -31    1    1    2    0    0  0.14921094709E+00 -0.53802316660E-01  0.57005348732E+02  0.57489945805E+02  0.74470750000E+01 0.  1.
<mgrwt>
<rscale>  0 0.14906101E+02</rscale>
<asrwt>0</asrwt>
<pdfrwt beam="1">  1        2 0.98383323E+00 0.14906101E+02</pdfrwt>
<pdfrwt beam="2">  1       -2 0.99543062E+00 0.14906101E+02</pdfrwt>
<totfact>-0.41379988E-13</totfact>
</mgrwt>
</event>
<event>
 4    1  0.5021037E-019  0.1491016E+02  0.7818608E-02  0.1870823E+00
          2   -1    0    0  501    0  0.00000000000E+00  0.00000000000E+00  0.11965737802E+03  0.11965737805E+03  0.25500000000E-02 0. -1.
         -2   -1    0    0    0  501 -0.00000000000E+00 -0.00000000000E+00 -0.46447432040E+00  0.46448132020E+00  0.25500000000E-02 0.  1.
         31    1    1    2    0    0 -0.15339563330E+00 -0.72768335037E-01  0.57173505512E+02  0.57656721065E+02  0.74470750000E+01 0.  1.
        -31    1    1    2    0    0  0.15339563330E+00  0.72768335037E-01  0.62019398188E+02  0.62465138302E+02  0.74470750000E+01 0. -1.
<mgrwt>
<rscale>  0 0.14910158E+02</rscale>
<asrwt>0</asrwt>
<pdfrwt beam="1">  1        2 0.99325158E+00 0.14910158E+02</pdfrwt>
<pdfrwt beam="2">  1       -2 0.98652842E+00 0.14910158E+02</pdfrwt>
<totfact> 0.34313411E-13</totfact>
</mgrwt>
</event>
<event>
 4    1 -0.5021037E-019  0.1489431E+02  0.7818608E-02  0.1871311E+00
          2   -1    0    0  501    0  0.00000000000E+00  0.00000000000E+00  0.11810640221E+03  0.11810640224E+03  0.25500000000E-02 0. -1.
         -2   -1    0    0    0  501 -0.00000000000E+00 -0.00000000000E+00 -0.46957417094E+00  0.46958109472E+00  0.25500000000E-02 0.  1.
         31    1    1    2    0    0 -0.26246720913E-01 -0.61992971929E-02  0.58991860102E+02  0.59460064006E+02  0.74470750000E+01 0. -1.
        -31    1    1    2    0    0  0.26246720913E-01  0.61992971929E-02  0.58644967939E+02  0.59115919328E+02  0.74470750000E+01 0.  1.
<mgrwt>
<rscale>  0 0.14894311E+02</rscale>
<asrwt>0</asrwt>
<pdfrwt beam="1">  1        2 0.98046919E+00 0.14894311E+02</pdfrwt>
<pdfrwt beam="2">  1       -2 0.99726664E+00 0.14894311E+02</pdfrwt>
<totfact>-0.55738182E-13</totfact>
</mgrwt>
</event>
<event>
 4    1  0.5021037E-019  0.1491159E+02  0.7818608E-02  0.1870778E+00
          2   -1    0    0  501    0  0.00000000000E+00  0.00000000000E+00  0.11994288174E+03  0.11994288177E+03  0.25500000000E-02 0. -1.
         -2   -1    0    0    0  501 -0.00000000000E+00 -0.00000000000E+00 -0.46345794680E+00  0.46346496195E+00  0.25500000000E-02 0.  1.
         31    1    1    2    0    0  0.35754586128E+00  0.11100489210E-01  0.60102385621E+02  0.60563055122E+02  0.74470750000E+01 0. -1.
        -31    1    1    2    0    0 -0.35754586128E+00 -0.11100489210E-01  0.59377038173E+02  0.59843291608E+02  0.74470750000E+01 0.  1.
<mgrwt>
<rscale>  0 0.14911594E+02</rscale>
<asrwt>0</asrwt>
<pdfrwt beam="1">  1        2 0.99560392E+00 0.14911594E+02</pdfrwt>
<pdfrwt beam="2">  1       -2 0.98438707E+00 0.14911594E+02</pdfrwt>
<totfact> 0.53424655E-13</totfact>
</mgrwt>
</event>
<event>
 4    1 -0.5021037E-019  0.1498196E+02  0.7818608E-02  0.1868620E+00
         -2   -1    0    0    0  501 -0.00000000000E+00  0.00000000000E+00  0.12011329335E+03  0.12011329338E+03  0.25500000000E-02 0. -1.
          2   -1    0    0  501    0  0.00000000000E+00 -0.00000000000E+00 -0.46717847994E+00  0.46718543922E+00  0.25500000000E-02 0.  1.
         31    1    1    2    0    0  0.46338590484E-01 -0.10732944558E-01  0.66329705321E+02  0.66746468045E+02  0.74470750000E+01 0. -1.
        -31    1    1    2    0    0 -0.46338590484E-01  0.10732944558E-01  0.53316409549E+02  0.53834010772E+02  0.74470750000E+01 0.  1.
<mgrwt>
<rscale>  0 0.14981958E+02</rscale>
<asrwt>0</asrwt>
<pdfrwt beam="2">  1        2 0.99226419E+00 0.14981958E+02</pdfrwt>
<pdfrwt beam="1">  1       -2 0.99704376E+00 0.14981958E+02</pdfrwt>
<totfact>-0.11782279E-13</totfact>
</mgrwt>
</event>
<event>
 4    1  0.5021037E-019  0.1493091E+02  0.7818608E-02  0.1870184E+00
         -2   -1    0    0    0  501 -0.00000000000E+00  0.00000000000E+00  0.11906759939E+03  0.11906759942E+03  0.25500000000E-02 0.  1.
          2   -1    0    0  501    0  0.00000000000E+00 -0.00000000000E+00 -0.46807505566E+00  0.46808200161E+00  0.25500000000E-02 0. -1.
         31    1    1    2    0    0 -0.84495333918E-01 -0.42395445665E+00  0.56935816519E+02  0.57422408567E+02  0.74470750000E+01 0. -1.
        -31    1    1    2    0    0  0.84495333918E-01  0.42395445665E+00  0.61663707817E+02  0.62113272854E+02  0.74470750000E+01 0.  1.
<mgrwt>
<rscale>  0 0.14930906E+02</rscale>
<asrwt>0</asrwt>
<pdfrwt beam="2">  1        2 0.99412716E+00 0.14930906E+02</pdfrwt>
<pdfrwt beam="1">  1       -2 0.98840465E+00 0.14930906E+02</pdfrwt>
<totfact> 0.12738670E-13</totfact>
</mgrwt>
</event>
<event>
 4    1  0.5021037E-019  0.1492655E+02  0.7818608E-02  0.1870318E+00
          2   -1    0    0  501    0  0.00000000000E+00  0.00000000000E+00  0.11993586936E+03  0.11993586939E+03  0.25500000000E-02 0.  1.
         -2   -1    0    0    0  501 -0.00000000000E+00 -0.00000000000E+00 -0.46441520694E+00  0.46442220763E+00  0.25500000000E-02 0. -1.
         31    1    1    2    0    0 -0.40498324903E+00 -0.84792618729E-01  0.61874975632E+02  0.62322890953E+02  0.74470750000E+01 0.  1.
        -31    1    1    2    0    0  0.40498324903E+00  0.84792618729E-01  0.57596478520E+02  0.58077400641E+02  0.74470750000E+01 0.  1.
<mgrwt>
<rscale>  0 0.14926549E+02</rscale>
<asrwt>0</asrwt>
<pdfrwt beam="1">  1        2 0.99555385E+00 0.14926549E+02</pdfrwt>
<pdfrwt beam="2">  1       -2 0.98641220E+00 0.14926549E+02</pdfrwt>
<totfact> 0.29017659E-13</totfact>
</mgrwt>
</event>
<event>
 4    1  0.5021037E-019  0.1491758E+02  0.7818608E-02  0.1870594E+00
         -2   -1    0    0    0  501 -0.00000000000E+00  0.00000000000E+00  0.11857835517E+03  0.11857835520E+03  0.25500000000E-02 0.  1.
          2   -1    0    0  501    0  0.00000000000E+00 -0.00000000000E+00 -0.46916759242E+00  0.46917452219E+00  0.25500000000E-02 0. -1.
         31    1    1    2    0    0  0.14969626055E+00  0.17102553404E+00  0.56256336242E+02  0.56747563403E+02  0.74470750000E+01 0. -1.
        -31    1    1    2    0    0 -0.14969626055E+00 -0.17102553404E+00  0.61852851335E+02  0.62299966317E+02  0.74470750000E+01 0. -1.
<mgrwt>
<rscale>  0 0.14917578E+02</rscale>
<asrwt>0</asrwt>
<pdfrwt beam="2">  1        2 0.99642228E+00 0.14917578E+02</pdfrwt>
<pdfrwt beam="1">  1       -2 0.98436827E+00 0.14917578E+02</pdfrwt>
<totfact> 0.47579650E-13</totfact>
</mgrwt>
</event>
<event>
 4    1  0.5021037E-019  0.1491618E+02  0.7818608E-02  0.1870637E+00
          2   -1    0    0  501    0  0.00000000000E+00  0.00000000000E+00  0.12023878047E+03  0.12023878049E+03  0.25500000000E-02 0. -1.
         -2   -1    0    0    0  501 -0.00000000000E+00 -0.00000000000E+00 -0.46260159232E+00  0.46260862045E+00  0.25500000000E-02 0.  1.
         31    1    1    2    0    0  0.16487691464E+00  0.13926381815E+00  0.62662732567E+02  0.63104069263E+02  0.74470750000E+01 0. -1.
        -31    1    1    2    0    0 -0.16487691464E+00 -0.13926381815E+00  0.57113446307E+02  0.57597319851E+02  0.74470750000E+01 0. -1.
<mgrwt>
<rscale>  0 0.14916176E+02</rscale>
<asrwt>0</asrwt>
<pdfrwt beam="1">  1        2 0.99804354E+00 0.14916176E+02</pdfrwt>
<pdfrwt beam="2">  1       -2 0.98258448E+00 0.14916176E+02</pdfrwt>
<totfact> 0.47012721E-13</totfact>
</mgrwt>
</event>
<event>
 4    1 -0.5021037E-019  0.1493336E+02  0.7818608E-02  0.1870109E+00
         -2   -1    0    0    0  501 -0.00000000000E+00  0.00000000000E+00  0.11934571756E+03  0.11934571759E+03  0.25500000000E-02 0.  1.
          2   -1    0    0  501    0  0.00000000000E+00 -0.00000000000E+00 -0.46713758073E+00  0.46714454061E+00  0.25500000000E-02 0. -1.
         31    1    1    2    0    0  0.21698383420E+00 -0.42042637276E+00  0.61539491249E+02  0.61990255279E+02  0.74470750000E+01 0. -1.
        -31    1    1    2    0    0 -0.21698383420E+00  0.42042637276E+00  0.57339088731E+02  0.57822606849E+02  0.74470750000E+01 0.  1.
<mgrwt>
<rscale>  0 0.14933357E+02</rscale>
<asrwt>0</asrwt>
<pdfrwt beam="2">  1        2 0.99215294E+00 0.14933357E+02</pdfrwt>
<pdfrwt beam="1">  1       -2 0.99069657E+00 0.14933357E+02</pdfrwt>
<totfact>-0.35123825E-14</totfact>
</mgrwt>
</event>
<event>
 4    1 -0.5021037E-019  0.1495380E+02  0.7818608E-02  0.1869482E+00
          2   -1    0    0  501    0  0.00000000000E+00  0.00000000000E+00  0.11912825391E+03  0.11912825393E+03  0.25500000000E-02 0. -1.
         -2   -1    0    0    0  501 -0.00000000000E+00 -0.00000000000E+00 -0.46927249690E+00  0.46927942513E+00  0.25500000000E-02 0.  1.
         31    1    1    2    0    0 -0.60191598596E+00  0.19496600295E+00  0.57636893392E+02  0.58119452170E+02  0.74470750000E+01 0.  1.
        -31    1    1    2    0    0  0.60191598596E+00 -0.19496600295E+00  0.61022088016E+02  0.61478081188E+02  0.74470750000E+01 0. -1.
<mgrwt>
<rscale>  0 0.14953799E+02</rscale>
<asrwt>0</asrwt>
<pdfrwt beam="1">  1        2 0.98891608E+00 0.14953799E+02</pdfrwt>
<pdfrwt beam="2">  1       -2 0.99666233E+00 0.14953799E+02</pdfrwt>
<totfact>-0.17101146E-13</totfact>
</mgrwt>
</event>
<event>
 4    1 -0.5021037E-019  0.1492461E+02  0.7818608E-02  0.1870378E+00
         -2   -1    0    0    0  501 -0.00000000000E+00  0.00000000000E+00  0.12041229444E+03  0.12041229446E+03  0.25500000000E-02 0. -1.
          2   -1    0    0  501    0  0.00000000000E+00 -0.00000000000E+00 -0.46245741681E+00  0.46246444713E+00  0.25500000000E-02 0.  1.
         31    1    1    2    0    0  0.22384730260E+00 -0.39310318813E+00  0.61187647618E+02  0.61640828878E+02  0.74470750000E+01 0.  1.
        -31    1    1    2    0    0 -0.22384730260E+00  0.39310318813E+00  0.58762189401E+02  0.59233930031E+02  0.74470750000E+01 0.  1.
<mgrwt>
<rscale>  0 0.14924609E+02</rscale>
<asrwt>0</asrwt>
<pdfrwt beam="2">  1        2 0.98228485E+00 0.14924609E+02</pdfrwt>
<pdfrwt beam="1">  1       -2 0.99947708E+00 0.14924609E+02</pdfrwt>
<totfact>-0.96476554E-14</totfact>
</mgrwt>
</event>
<event>
 4    1  0.5021037E-019  0.1496775E+02  0.7818608E-02  0.1869054E+00
         -2   -1    0    0    0  501 -0.00000000000E+00  0.00000000000E+00  0.11924216325E+03  0.11924216328E+03  0.25500000000E-02 0. -1.
          2   -1    0    0  501    0  0.00000000000E+00 -0.00000000000E+00 -0.46969905761E+00  0.46970597955E+00  0.25500000000E-02 0.  1.
         31    1    1    2    0    0 -0.23005323086E+00  0.45193681846E+00  0.63709959072E+02  0.64145732378E+02  0.74470750000E+01 0. -1.
        -31    1    1    2    0    0  0.23005323086E+00 -0.45193681846E+00  0.55062505119E+02  0.55566136877E+02  0.74470750000E+01 0.  1.
<mgrwt>
<rscale>  0 0.14967745E+02</rscale>
<asrwt>0</asrwt>
<pdfrwt beam="2">  1        2 0.99756845E+00 0.14967745E+02</pdfrwt>
<pdfrwt beam="1">  1       -2 0.98986149E+00 0.14967745E+02</pdfrwt>
<totfact> 0.10455272E-14</totfact>
</mgrwt>
</event>
<event>
 4    1 -0.5021037E-019  0.1490388E+02  0.7818608E-02  0.1871016E+00
         -2   -1    0    0    0  501 -0.00000000000E+00  0.00000000000E+00  0.12008865490E+03  0.12008865493E+03  0.25500000000E-02 0. -1.
          2   -1    0    0  501    0  0.00000000000E+00 -0.00000000000E+00 -0.46241679378E+00  0.46242382472E+00  0.25500000000E-02 0.  1.
         31    1    1    2    0    0  0.15008331772E+00  0.11626404217E+00  0.61357756258E+02  0.61808326473E+02  0.74470750000E+01 0. -1.
        -31    1    1    2    0    0 -0.15008331772E+00 -0.11626404217E+00  0.58268481851E+02  0.58742752282E+02  0.74470750000E+01 0.  1.
<mgrwt>
<rscale>  0 0.14903884E+02</rscale>
<asrwt>0</asrwt>
<pdfrwt beam="2">  1        2 0.98218876E+00 0.14903884E+02</pdfrwt>
<pdfrwt beam="1">  1       -2 0.99680066E+00 0.14903884E+02</pdfrwt>
<totfact>-0.46328201E-13</totfact>
</mgrwt>
</event>
<event>
 4    1  0.5021037E-019  0.1490726E+02  0.7818608E-02  0.1870912E+00
          2   -1    0    0  501    0  0.00000000000E+00  0.00000000000E+00  0.12018490175E+03  0.12018490178E+03  0.25500000000E-02 0. -1.
         -2   -1    0    0    0  501 -0.00000000000E+00 -0.00000000000E+00 -0.46225603233E+00  0.46226306572E+00  0.25500000000E-02 0.  1.
         31    1    1    2    0    0 -0.94069202617E-02 -0.31233941036E+00  0.59919282387E+02  0.60381097805E+02  0.74470750000E+01 0.  1.
        -31    1    1    2    0    0  0.94069202617E-02  0.31233941036E+00  0.59803363332E+02  0.60266067038E+02  0.74470750000E+01 0. -1.
<mgrwt>
<rscale>  0 0.14907263E+02</rscale>
<asrwt>0</asrwt>
<pdfrwt beam="1">  1        2 0.99759517E+00 0.14907263E+02</pdfrwt>
<pdfrwt beam="2">  1       -2 0.98185163E+00 0.14907263E+02</pdfrwt>
<totfact> 0.63828457E-13</totfact>
</mgrwt>
</event>
<event>
 4    1  0.5021037E-019  0.1491756E+02  0.7818608E-02  0.1870595E+00
         -2   -1    0    0    0  501 -0.00000000000E+00  0.00000000000E+00  0.11915068559E+03  0.11915068562E+03  0.25500000000E-02 0. -1.
          2   -1    0    0  501    0  0.00000000000E+00 -0.00000000000E+00 -0.46691287070E+00  0.46691983394E+00  0.25500000000E-02 0.  1.
         31    1    1    2    0    0  0.21104508262E+00 -0.34670337872E+00  0.60133147073E+02  0.60593886212E+02  0.74470750000E+01 0.  1.
        -31    1    1    2    0    0 -0.21104508262E+00  0.34670337872E+00  0.58550625650E+02  0.59023719244E+02  0.74470750000E+01 0.  1.
<mgrwt>
<rscale>  0 0.14917561E+02</rscale>
<asrwt>0</asrwt>
<pdfrwt beam="2">  1        2 0.99167122E+00 0.14917561E+02</pdfrwt>
<pdfrwt beam="1">  1       -2 0.98908205E+00 0.14917561E+02</pdfrwt>
<totfact> 0.86637744E-14</totfact>
</mgrwt>
</event>
<event>
 4    1 -0.5021037E-019  0.1503750E+02  0.7818608E-02  0.1866926E+00
         -2   -1    0    0    0  501 -0.00000000000E+00  0.00000000000E+00  0.12026059514E+03  0.12026059516E+03  0.25500000000E-02 0.  1.
          2   -1    0    0  501    0  0.00000000000E+00 -0.00000000000E+00 -0.47007225661E+00  0.47007917305E+00  0.25500000000E-02 0. -1.
         31    1    1    2    0    0  0.51842688754E+00  0.87734425472E+00  0.58411307770E+02  0.58892939312E+02  0.74470750000E+01 0. -1.
        -31    1    1    2    0    0 -0.51842688754E+00 -0.87734425472E+00  0.61379215110E+02  0.61837735025E+02  0.74470750000E+01 0.  1.
<mgrwt>
<rscale>  0 0.15037498E+02</rscale>
<asrwt>0</asrwt>
<pdfrwt beam="2">  1        2 0.99839114E+00 0.15037498E+02</pdfrwt>
<pdfrwt beam="1">  1       -2 0.99828569E+00 0.15037498E+02</pdfrwt>
<totfact>-0.28816452E-14</totfact>
</mgrwt>
</event>
<event>
 4    1 -0.5021037E-019  0.1495197E+02  0.7818608E-02  0.1869538E+00
          2   -1    0    0  501    0  0.00000000000E+00  0.00000000000E+00  0.11924307964E+03  0.11924307967E+03  0.25500000000E-02 0.  1.
         -2   -1    0    0    0  501 -0.00000000000E+00 -0.00000000000E+00 -0.46870606689E+00  0.46871300349E+00  0.25500000000E-02 0. -1.
         31    1    1    2    0    0 -0.64539211906E+00  0.11773231551E+00  0.59127286066E+02  0.59598030802E+02  0.74470750000E+01 0.  1.
        -31    1    1    2    0    0  0.64539211906E+00 -0.11773231551E+00  0.59647087510E+02  0.60113761872E+02  0.74470750000E+01 0.  1.
<mgrwt>
<rscale>  0 0.14951973E+02</rscale>
<asrwt>0</asrwt>
<pdfrwt beam="1">  1        2 0.98986086E+00 0.14951973E+02</pdfrwt>
<pdfrwt beam="2">  1       -2 0.99546781E+00 0.14951973E+02</pdfrwt>
<totfact>-0.17755415E-13</totfact>
</mgrwt>
</event>
<event>
 4    1 -0.5021037E-019  0.1496188E+02  0.7818608E-02  0.1869234E+00
          2   -1    0    0  501    0  0.00000000000E+00  0.00000000000E+00  0.11947420244E+03  0.11947420246E+03  0.25500000000E-02 0.  1.
         -2   -1    0    0    0  501 -0.00000000000E+00 -0.00000000000E+00 -0.46841959916E+00  0.46842654000E+00  0.25500000000E-02 0. -1.
         31    1    1    2    0    0  0.51763665698E+00 -0.35067340905E+00  0.56788721387E+02  0.57278344271E+02  0.74470750000E+01 0. -1.
        -31    1    1    2    0    0 -0.51763665698E+00  0.35067340905E+00  0.62217061450E+02  0.62664284733E+02  0.74470750000E+01 0. -1.
<mgrwt>
<rscale>  0 0.14961882E+02</rscale>
<asrwt>0</asrwt>
<pdfrwt beam="1">  1        2 0.99176958E+00 0.14961882E+02</pdfrwt>
<pdfrwt beam="2">  1       -2 0.99486931E+00 0.14961882E+02</pdfrwt>
<totfact>-0.15425378E-13</totfact>
</mgrwt>
</event>
<event>
 4    1 -0.5021037E-019  0.1493737E+02  0.7818608E-02  0.1869986E+00
         -2   -1    0    0    0  501 -0.00000000000E+00  0.00000000000E+00  0.12012311573E+03  0.12012311575E+03  0.25500000000E-02 0. -1.
          2   -1    0    0  501    0  0.00000000000E+00 -0.00000000000E+00 -0.46436373449E+00  0.46437073595E+00  0.25500000000E-02 0.  1.
         31    1    1    2    0    0  0.48492325931E+00 -0.89372392561E-01  0.57557778573E+02  0.58039641094E+02  0.74470750000E+01 0.  1.
        -31    1    1    2    0    0 -0.48492325931E+00  0.89372392561E-01  0.62100973419E+02  0.62547845395E+02  0.74470750000E+01 0.  1.
<mgrwt>
<rscale>  0 0.14937368E+02</rscale>
<asrwt>0</asrwt>
<pdfrwt beam="2">  1        2 0.98630923E+00 0.14937368E+02</pdfrwt>
<pdfrwt beam="1">  1       -2 0.99710171E+00 0.14937368E+02</pdfrwt>
<totfact>-0.22137390E-13</totfact>
</mgrwt>
</event>
<event>
 4    1 -0.5021037E-019  0.1491850E+02  0.7818608E-02  0.1870566E+00
          2   -1    0    0  501    0  0.00000000000E+00  0.00000000000E+00  0.11847718366E+03  0.11847718369E+03  0.25500000000E-02 0.  1.
         -2   -1    0    0    0  501 -0.00000000000E+00 -0.00000000000E+00 -0.46962644117E+00  0.46963336417E+00  0.25500000000E-02 0. -1.
         31    1    1    2    0    0  0.28475613228E+00 -0.15516809651E+00  0.61206755999E+02  0.61658990173E+02  0.74470750000E+01 0.  1.
        -31    1    1    2    0    0 -0.28475613228E+00  0.15516809651E+00  0.56800801224E+02  0.57287826882E+02  0.74470750000E+01 0. -1.
<mgrwt>
<rscale>  0 0.14918503E+02</rscale>
<asrwt>0</asrwt>
<pdfrwt beam="1">  1        2 0.98353551E+00 0.14918503E+02</pdfrwt>
<pdfrwt beam="2">  1       -2 0.99738957E+00 0.14918503E+02</pdfrwt>
<totfact>-0.32220664E-13</totfact>
</mgrwt>
</event>
<event>
 4    1  0.5021037E-019  0.1490776E+02  0.7818608E-02  0.1870896E+00
          2   -1    0    0  501    0  0.00000000000E+00  0.00000000000E+00  0.11979936757E+03  0.11979936760E+03  0.25500000000E-02 0.  1.
         -2   -1    0    0    0  501 -0.00000000000E+00 -0.00000000000E+00 -0.46377486791E+00  0.46378187826E+00  0.25500000000E-02 0. -1.
         31    1    1    2    0    0 -0.16980785310E+00  0.21529824965E+00  0.58360894662E+02  0.58834752824E+02  0.74470750000E+01 0. -1.
        -31    1    1    2    0    0  0.16980785310E+00 -0.21529824965E+00  0.60974698045E+02  0.61428396656E+02  0.74470750000E+01 0. -1.
<mgrwt>
<rscale>  0 0.14907764E+02</rscale>
<asrwt>0</asrwt>
<pdfrwt beam="1">  1        2 0.99441986E+00 0.14907764E+02</pdfrwt>
<pdfrwt beam="2">  1       -2 0.98505307E+00 0.14907764E+02</pdfrwt>
<totfact> 0.50469403E-13</totfact>
</mgrwt>
</event>
<event>
 4    1  0.5021037E-019  0.1492355E+02  0.7818608E-02  0.1870410E+00
         -2   -1    0    0    0  501 -0.00000000000E+00  0.00000000000E+00  0.11862112460E+03  0.11862112463E+03  0.25500000000E-02 0.  1.
          2   -1    0    0  501    0  0.00000000000E+00 -0.00000000000E+00 -0.46937423676E+00  0.46938116349E+00  0.25500000000E-02 0. -1.
         31    1    1    2    0    0 -0.17974587275E+00  0.39705236354E+00  0.60440174324E+02  0.60898797669E+02  0.74470750000E+01 0.  1.
        -31    1    1    2    0    0  0.17974587275E+00 -0.39705236354E+00  0.57711576041E+02  0.58191708124E+02  0.74470750000E+01 0. -1.
<mgrwt>
<rscale>  0 0.14923554E+02</rscale>
<asrwt>0</asrwt>
<pdfrwt beam="2">  1        2 0.99686083E+00 0.14923554E+02</pdfrwt>
<pdfrwt beam="1">  1       -2 0.98472363E+00 0.14923554E+02</pdfrwt>
<totfact> 0.39826695E-13</totfact>
</mgrwt>
</event>
<event>
 4    1  0.5021037E-019  0.1494613E+02  0.7818608E-02  0.1869717E+00
         -2   -1    0    0    0  501 -0.00000000000E+00  0.00000000000E+00  0.11863530900E+03  0.11863530902E+03  0.25500000000E-02 0.  1.
          2   -1    0    0  501    0  0.00000000000E+00 -0.00000000000E+00 -0.47073907200E+00  0.47074597864E+00  0.25500000000E-02 0. -1.
         31    1    1    2    0    0  0.65513652163E-01  0.61856900560E+00  0.58850977523E+02  0.59323548454E+02  0.74470750000E+01 0.  1.
        -31    1    1    2    0    0 -0.65513652163E-01 -0.61856900560E+00  0.59313592401E+02  0.59782506549E+02  0.74470750000E+01 0. -1.
<mgrwt>
<rscale>  0 0.14946128E+02</rscale>
<asrwt>0</asrwt>
<pdfrwt beam="2">  1        2 0.99974845E+00 0.14946128E+02</pdfrwt>
<pdfrwt beam="1">  1       -2 0.98485220E+00 0.14946128E+02</pdfrwt>
<totfact> 0.42357823E-14</totfact>
</mgrwt>
</event>
<event>
 4    1  0.5021037E-019  0.1490123E+02  0.7818608E-02  0.1871098E+00
         -2   -1    0    0    0  501 -0.00000000000E+00  0.00000000000E+00  0.11836509653E+03  0.11836509656E+03  0.25500000000E-02 0.  1.
          2   -1    0    0  501    0  0.00000000000E+00 -0.00000000000E+00 -0.46898323503E+00  0.46899016753E+00  0.25500000000E-02 0. -1.
         31    1    1    2    0    0  0.17089777296E+00  0.10494902149E+00  0.58055984217E+02  0.58532012180E+02  0.74470750000E+01 0. -1.
        -31    1    1    2    0    0 -0.17089777296E+00 -0.10494902149E+00  0.59840129082E+02  0.60302074549E+02  0.74470750000E+01 0. -1.
<mgrwt>
<rscale>  0 0.14901229E+02</rscale>
<asrwt>0</asrwt>
<pdfrwt beam="2">  1        2 0.99602522E+00 0.14901229E+02</pdfrwt>
<pdfrwt beam="1">  1       -2 0.98260337E+00 0.14901229E+02</pdfrwt>
<totfact> 0.76458704E-13</totfact>
</mgrwt>
</event>
<event>
 4    1 -0.5021037E-019  0.1495369E+02  0.7818608E-02  0.1869485E+00
          2   -1    0    0  501    0  0.00000000000E+00  0.00000000000E+00  0.11925524521E+03  0.11925524524E+03  0.25500000000E-02 0. -1.
         -2   -1    0    0    0  501 -0.00000000000E+00 -0.00000000000E+00 -0.46876597072E+00  0.46877290644E+00  0.25500000000E-02 0.  1.
         31    1    1    2    0    0  0.20747246221E+00 -0.57769056961E+00  0.57312823735E+02  0.57797884579E+02  0.74470750000E+01 0. -1.
        -31    1    1    2    0    0 -0.20747246221E+00  0.57769056961E+00  0.61473655502E+02  0.61926133563E+02  0.74470750000E+01 0. -1.
<mgrwt>
<rscale>  0 0.14953691E+02</rscale>
<asrwt>0</asrwt>
<pdfrwt beam="1">  1        2 0.98996195E+00 0.14953691E+02</pdfrwt>
<pdfrwt beam="2">  1       -2 0.99559493E+00 0.14953691E+02</pdfrwt>
<totfact>-0.17436288E-13</totfact>
</mgrwt>
</event>
<event>
 4    1 -0.5021037E-019  0.1497802E+02  0.7818608E-02  0.1868740E+00
         -2   -1    0    0    0  501 -0.00000000000E+00  0.00000000000E+00  0.12009161086E+03  0.12009161089E+03  0.25500000000E-02 0.  1.
          2   -1    0    0  501    0  0.00000000000E+00 -0.00000000000E+00 -0.46701718968E+00  0.46702415136E+00  0.25500000000E-02 0. -1.
         31    1    1    2    0    0 -0.22500657524E+00 -0.46473497982E+00  0.64639943061E+02  0.65069561022E+02  0.74470750000E+01 0.  1.
        -31    1    1    2    0    0  0.22500657524E+00  0.46473497982E+00  0.54984650610E+02  0.55489074018E+02  0.74470750000E+01 0. -1.
<mgrwt>
<rscale>  0 0.14978020E+02</rscale>
<asrwt>0</asrwt>
<pdfrwt beam="2">  1        2 0.99192225E+00 0.14978020E+02</pdfrwt>
<pdfrwt beam="1">  1       -2 0.99686315E+00 0.14978020E+02</pdfrwt>
<totfact>-0.12546161E-13</totfact>
</mgrwt>
</event>
<event>
 4    1  0.5021037E-019  0.1493167E+02  0.7818608E-02  0.1870161E+00
         -2   -1    0    0    0  501 -0.00000000000E+00  0.00000000000E+00  0.11844103159E+03  0.11844103162E+03  0.25500000000E-02 0.  1.
          2   -1    0    0  501    0  0.00000000000E+00 -0.00000000000E+00 -0.47059933615E+00  0.47060624484E+00  0.25500000000E-02 0. -1.
         31    1    1    2    0    0 -0.27737214715E+00 -0.21729253323E+00  0.55843774914E+02  0.56339242753E+02  0.74470750000E+01 0. -1.
        -31    1    1    2    0    0  0.27737214715E+00  0.21729253323E+00  0.62126657340E+02  0.62572395108E+02  0.74470750000E+01 0.  1.
<mgrwt>
<rscale>  0 0.14931669E+02</rscale>
<asrwt>0</asrwt>
<pdfrwt beam="2">  1        2 0.99944638E+00 0.14931669E+02</pdfrwt>
<pdfrwt beam="1">  1       -2 0.98324462E+00 0.14931669E+02</pdfrwt>
<totfact> 0.13457777E-13</totfact>
</mgrwt>
</event>
<event>
 4    1  0.5021037E-019  0.1491449E+02  0.7818608E-02  0.1870689E+00
         -2   -1    0    0    0  501 -0.00000000000E+00  0.00000000000E+00  0.11843240045E+03  0.11843240047E+03  0.25500000000E-02 0. -1.
          2   -1    0    0  501    0  0.00000000000E+00 -0.00000000000E+00 -0.46955139138E+00  0.46955831549E+00  0.25500000000E-02 0.  1.
         31    1    1    2    0    0  0.16546269512E+00 -0.30383895656E+00  0.57557767934E+02  0.58038567105E+02  0.74470750000E+01 0.  1.
        -31    1    1    2    0    0 -0.16546269512E+00  0.30383895656E+00  0.60405081121E+02  0.60863391685E+02  0.74470750000E+01 0.  1.
<mgrwt>
<rscale>  0 0.14914491E+02</rscale>
<asrwt>0</asrwt>
<pdfrwt beam="2">  1        2 0.99722932E+00 0.14914491E+02</pdfrwt>
<pdfrwt beam="1">  1       -2 0.98316459E+00 0.14914491E+02</pdfrwt>
<totfact> 0.53673894E-13</totfact>
</mgrwt>
</event>
<event>
 4    1 -0.5021037E-019  0.1501859E+02  0.7818608E-02  0.1867502E+00
         -2   -1    0    0    0  501 -0.00000000000E+00  0.00000000000E+00  0.11986396980E+03  0.11986396983E+03  0.25500000000E-02 0.  1.
          2   -1    0    0  501    0  0.00000000000E+00 -0.00000000000E+00 -0.47044214594E+00  0.47044905694E+00  0.25500000000E-02 0. -1.
         31    1    1    2    0    0  0.32966904595E+00  0.89383970038E+00  0.60909876314E+02  0.61370836639E+02  0.74470750000E+01 0.  1.
        -31    1    1    2    0    0 -0.32966904595E+00 -0.89383970038E+00  0.58483651343E+02  0.58963582248E+02  0.74470750000E+01 0. -1.
<mgrwt>
<rscale>  0 0.15018586E+02</rscale>
<asrwt>0</asrwt>
<pdfrwt beam="2">  1        2 0.99916080E+00 0.15018586E+02</pdfrwt>
<pdfrwt beam="1">  1       -2 0.99500917E+00 0.15018586E+02</pdfrwt>
<totfact>-0.31241811E-14</totfact>
</mgrwt>
</event>
<event>
 4    1 -0.5021037E-019  0.1499335E+02  0.7818608E-02  0.1868271E+00
         -2   -1    0    0    0  501 -0.00000000000E+00  0.00000000000E+00  0.11963288779E+03  0.11963288782E+03  0.25500000000E-02 0. -1.
          2   -1    0    0  501    0  0.00000000000E+00 -0.00000000000E+00 -0.46976812477E+00  0.46977504569E+00  0.25500000000E-02 0.  1.
         31    1    1    2    0    0 -0.78041913254E+00  0.28085093835E+00  0.57732610704E+02  0.58216846325E+02  0.74470750000E+01 0.  1.
        -31    1    1    2    0    0  0.78041913254E+00 -0.28085093835E+00  0.61430508965E+02  0.61885816542E+02  0.74470750000E+01 0. -1.
<mgrwt>
<rscale>  0 0.14993350E+02</rscale>
<asrwt>0</asrwt>
<pdfrwt beam="2">  1        2 0.99772735E+00 0.14993350E+02</pdfrwt>
<pdfrwt beam="1">  1       -2 0.99309285E+00 0.14993350E+02</pdfrwt>
<totfact>-0.63688581E-14</totfact>
</mgrwt>
</event>
<event>
 4    1  0.5021037E-019  0.1492128E+02  0.7818608E-02  0.1870480E+00
         -2   -1    0    0    0  501 -0.00000000000E+00  0.00000000000E+00  0.11848706163E+03  0.11848706166E+03  0.25500000000E-02 0.  1.
          2   -1    0    0  501    0  0.00000000000E+00 -0.00000000000E+00 -0.46976206205E+00  0.46976898305E+00  0.25500000000E-02 0. -1.
         31    1    1    2    0    0  0.41597771762E-01  0.44774668000E+00  0.58988864102E+02  0.59458785907E+02  0.74470750000E+01 0. -1.
        -31    1    1    2    0    0 -0.41597771762E-01 -0.44774668000E+00  0.59028435465E+02  0.59498044732E+02  0.74470750000E+01 0.  1.
<mgrwt>
<rscale>  0 0.14921279E+02</rscale>
<asrwt>0</asrwt>
<pdfrwt beam="2">  1        2 0.99767679E+00 0.14921279E+02</pdfrwt>
<pdfrwt beam="1">  1       -2 0.98361831E+00 0.14921279E+02</pdfrwt>
<totfact> 0.42595909E-13</totfact>
</mgrwt>
</event>
<event>
 4    1 -0.5021037E-019  0.1494720E+02  0.7818608E-02  0.1869684E+00
          2   -1    0    0  501    0  0.00000000000E+00  0.00000000000E+00  0.11891423513E+03  0.11891423515E+03  0.25500000000E-02 0.  1.
         -2   -1    0    0    0  501 -0.00000000000E+00 -0.00000000000E+00 -0.46970205406E+00  0.46970897595E+00  0.25500000000E-02 0. -1.
         31    1    1    2    0    0  0.58572497913E+00 -0.20792622217E+00  0.59998375139E+02  0.60461973607E+02  0.74470750000E+01 0. -1.
        -31    1    1    2    0    0 -0.58572497913E+00  0.20792622217E+00  0.58446157934E+02  0.58921970523E+02  0.74470750000E+01 0. -1.
<mgrwt>
<rscale>  0 0.14947197E+02</rscale>
<asrwt>0</asrwt>
<pdfrwt beam="1">  1        2 0.98714998E+00 0.14947197E+02</pdfrwt>
<pdfrwt beam="2">  1       -2 0.99756400E+00 0.14947197E+02</pdfrwt>
<totfact>-0.17323443E-13</totfact>
</mgrwt>
</event>
<event>
 4    1  0.5021037E-019  0.1490322E+02  0.7818608E-02  0.1871036E+00
         -2   -1    0    0    0  501 -0.00000000000E+00  0.00000000000E+00  0.11875112556E+03  0.11875112559E+03  0.25500000000E-02 0. -1.
          2   -1    0    0  501    0  0.00000000000E+00 -0.00000000000E+00 -0.46758326630E+00  0.46759021955E+00  0.25500000000E-02 0.  1.
         31    1    1    2    0    0  0.12724129707E+00  0.19670626175E+00  0.58242205565E+02  0.58716848680E+02  0.74470750000E+01 0.  1.
        -31    1    1    2    0    0 -0.12724129707E+00 -0.19670626175E+00  0.60041336729E+02  0.60501867128E+02  0.74470750000E+01 0.  1.
<mgrwt>
<rscale>  0 0.14903215E+02</rscale>
<asrwt>0</asrwt>
<pdfrwt beam="2">  1        2 0.99307641E+00 0.14903215E+02</pdfrwt>
<pdfrwt beam="1">  1       -2 0.98578376E+00 0.14903215E+02</pdfrwt>
<totfact> 0.44961613E-13</totfact>
</mgrwt>
</event>
<event>
 4    1 -0.5021037E-019  0.1499543E+02  0.7818608E-02  0.1868208E+00
         -2   -1    0    0    0  501 -0.00000000000E+00  0.00000000000E+00  0.11995582424E+03  0.11995582427E+03  0.25500000000E-02 0.  1.
          2   -1    0    0  501    0  0.00000000000E+00 -0.00000000000E+00 -0.46863361841E+00  0.46864055608E+00  0.25500000000E-02 0. -1.
         31    1    1    2    0    0 -0.21961354557E+00 -0.13901792430E+00  0.53076292970E+02  0.53596822272E+02  0.74470750000E+01 0. -1.
        -31    1    1    2    0    0  0.21961354557E+00  0.13901792430E+00  0.66410897654E+02  0.66827642554E+02  0.74470750000E+01 0.  1.
<mgrwt>
<rscale>  0 0.14995433E+02</rscale>
<asrwt>0</asrwt>
<pdfrwt beam="2">  1        2 0.99533769E+00 0.14995433E+02</pdfrwt>
<pdfrwt beam="1">  1       -2 0.99575373E+00 0.14995433E+02</pdfrwt>
<totfact>-0.11049238E-13</totfact>
</mgrwt>
</event>
<event>
 4    1 -0.5021037E-019  0.1494770E+02  0.7818608E-02  0.1869669E+00
          2   -1    0    0  501    0  0.00000000000E+00  0.00000000000E+00  0.11902114252E+03  0.11902114255E+03  0.25500000000E-02 0.  1.
         -2   -1    0    0    0  501 -0.00000000000E+00 -0.00000000000E+00 -0.46931162989E+00  0.46931855754E+00  0.25500000000E-02 0. -1.
         31    1    1    2    0    0  0.38857136008E+00  0.19745493180E+00  0.55616840129E+02  0.56114898273E+02  0.74470750000E+01 0. -1.
        -31    1    1    2    0    0 -0.38857136008E+00 -0.19745493180E+00  0.62934990763E+02  0.63375562834E+02  0.74470750000E+01 0. -1.
<mgrwt>
<rscale>  0 0.14947698E+02</rscale>
<asrwt>0</asrwt>
<pdfrwt beam="1">  1        2 0.98803074E+00 0.14947698E+02</pdfrwt>
<pdfrwt beam="2">  1       -2 0.99674160E+00 0.14947698E+02</pdfrwt>
<totfact>-0.18751754E-13</totfact>
</mgrwt>
</event>
<event>
 4    1  0.5021037E-019  0.1493101E+02  0.7818608E-02  0.1870181E+00
          2   -1    0    0  501    0  0.00000000000E+00  0.00000000000E+00  0.12031586850E+03  0.12031586853E+03  0.25500000000E-02 0.  1.
         -2   -1    0    0    0  501 -0.00000000000E+00 -0.00000000000E+00 -0.46322491422E+00  0.46323193290E+00  0.25500000000E-02 0. -1.
         31    1    1    2    0    0 -0.19424724721E+00  0.32887731066E+00  0.62830708783E+02  0.63271658620E+02  0.74470750000E+01 0.  1.
        -31    1    1    2    0    0  0.19424724721E+00 -0.32887731066E+00  0.57021934802E+02  0.57507441839E+02  0.74470750000E+01 0. -1.
<mgrwt>
<rscale>  0 0.14931006E+02</rscale>
<asrwt>0</asrwt>
<pdfrwt beam="1">  1        2 0.99868611E+00 0.14931006E+02</pdfrwt>
<pdfrwt beam="2">  1       -2 0.98390576E+00 0.14931006E+02</pdfrwt>
<totfact> 0.25144335E-13</totfact>
</mgrwt>
</event>
<event>
 4    1 -0.5021037E-019  0.1497695E+02  0.7818608E-02  0.1868773E+00
         -2   -1    0    0    0  501 -0.00000000000E+00  0.00000000000E+00  0.11995728917E+03  0.11995728919E+03  0.25500000000E-02 0. -1.
          2   -1    0    0  501    0  0.00000000000E+00 -0.00000000000E+00 -0.46747305170E+00  0.46748000660E+00  0.25500000000E-02 0.  1.
         31    1    1    2    0    0  0.48632448901E+00  0.31358884439E-01  0.64706725395E+02  0.65135679410E+02  0.74470750000E+01 0. -1.
        -31    1    1    2    0    0 -0.48632448901E+00 -0.31358884439E-01  0.54783090721E+02  0.55289089791E+02  0.74470750000E+01 0.  1.
<mgrwt>
<rscale>  0 0.14976945E+02</rscale>
<asrwt>0</asrwt>
<pdfrwt beam="2">  1        2 0.99288240E+00 0.14976945E+02</pdfrwt>
<pdfrwt beam="1">  1       -2 0.99575625E+00 0.14976945E+02</pdfrwt>
<totfact>-0.13647230E-13</totfact>
</mgrwt>
</event>
<event>
 4    1 -0.5021037E-019  0.1502462E+02  0.7818608E-02  0.1867318E+00
          2   -1    0    0  501    0  0.00000000000E+00  0.00000000000E+00  0.12032310780E+03  0.12032310782E+03  0.25500000000E-02 0. -1.
         -2   -1    0    0    0  501 -0.00000000000E+00 -0.00000000000E+00 -0.46902373414E+00  0.46903066604E+00  0.25500000000E-02 0.  1.
         31    1    1    2    0    0  0.81350648772E-01 -0.59013027963E+00  0.53591460554E+02  0.54109688984E+02  0.74470750000E+01 0.  1.
        -31    1    1    2    0    0 -0.81350648772E-01  0.59013027963E+00  0.66262623507E+02  0.66682449504E+02  0.74470750000E+01 0. -1.
<mgrwt>
<rscale>  0 0.15024622E+02</rscale>
<asrwt>0</asrwt>
<pdfrwt beam="1">  1        2 0.99879391E+00 0.15024622E+02</pdfrwt>
<pdfrwt beam="2">  1       -2 0.99617487E+00 0.15024622E+02</pdfrwt>
<totfact>-0.39669733E-14</totfact>
</mgrwt>
</event>
<event>
 4    1  0.5021037E-019  0.1494256E+02  0.7818608E-02  0.1869826E+00
          2   -1    0    0  501    0  0.00000000000E+00  0.00000000000E+00  0.12023061238E+03  0.12023061241E+03  0.25500000000E-02 0. -1.
         -2   -1    0    0    0  501 -0.00000000000E+00 -0.00000000000E+00 -0.46427130198E+00  0.46427830484E+00  0.25500000000E-02 0.  1.
         31    1    1    2    0    0 -0.29651769126E+00  0.41411797744E+00  0.57307239215E+02  0.57791331607E+02  0.74470750000E+01 0.  1.
        -31    1    1    2    0    0  0.29651769126E+00 -0.41411797744E+00  0.62459101867E+02  0.62903559109E+02  0.74470750000E+01 0. -1.
<mgrwt>
<rscale>  0 0.14942563E+02</rscale>
<asrwt>0</asrwt>
<pdfrwt beam="1">  1        2 0.99798980E+00 0.14942563E+02</pdfrwt>
<pdfrwt beam="2">  1       -2 0.98611706E+00 0.14942563E+02</pdfrwt>
<totfact> 0.18902547E-13</totfact>
</mgrwt>
</event>
<event>
 4    1 -0.5021037E-019  0.1491914E+02  0.7818608E-02  0.1870546E+00
         -2   -1    0    0    0  501 -0.00000000000E+00  0.00000000000E+00  0.12005388507E+03  0.12005388510E+03  0.25500000000E-02 0.  1.
          2   -1    0    0  501    0  0.00000000000E+00 -0.00000000000E+00 -0.46349811127E+00  0.46350512581E+00  0.25500000000E-02 0. -1.
         31    1    1    2    0    0 -0.74481822862E-01  0.42430139694E+00  0.60003980312E+02  0.60465875984E+02  0.74470750000E+01 0.  1.
        -31    1    1    2    0    0  0.74481822862E-01 -0.42430139694E+00  0.59586406648E+02  0.60051514240E+02  0.74470750000E+01 0. -1.
<mgrwt>
<rscale>  0 0.14919138E+02</rscale>
<asrwt>0</asrwt>
<pdfrwt beam="2">  1        2 0.98447556E+00 0.14919138E+02</pdfrwt>
<pdfrwt beam="1">  1       -2 0.99652210E+00 0.14919138E+02</pdfrwt>
<totfact>-0.33120766E-13</totfact>
</mgrwt>
</event>
<event>
 4    1 -0.5021037E-019  0.1493203E+02  0.7818608E-02  0.1870150E+00
          2   -1    0    0  501    0  0.00000000000E+00  0.00000000000E+00  0.11912672899E+03  0.11912672901E+03  0.25500000000E-02 0.  1.
         -2   -1    0    0    0  501 -0.00000000000E+00 -0.00000000000E+00 -0.46791321102E+00  0.46792015937E+00  0.25500000000E-02 0. -1.
         31    1    1    2    0    0 -0.14019974526E+00 -0.15296227710E+00  0.63248289313E+02  0.63685540592E+02  0.74470750000E+01 0.  1.
        -31    1    1    2    0    0  0.14019974526E+00  0.15296227710E+00  0.55410526461E+02  0.55909108580E+02  0.74470750000E+01 0. -1.
<mgrwt>
<rscale>  0 0.14932031E+02</rscale>
<asrwt>0</asrwt>
<pdfrwt beam="1">  1        2 0.98889224E+00 0.14932031E+02</pdfrwt>
<pdfrwt beam="2">  1       -2 0.99378670E+00 0.14932031E+02</pdfrwt>
<totfact>-0.19297013E-13</totfact>
</mgrwt>
</event>
<event>
 4    1 -0.5021037E-019  0.1497615E+02  0.7818608E-02  0.1868797E+00
         -2   -1    0    0    0  501 -0.00000000000E+00  0.00000000000E+00  0.11998201917E+03  0.11998201920E+03  0.25500000000E-02 0. -1.
          2   -1    0    0  501    0  0.00000000000E+00 -0.00000000000E+00 -0.46732732435E+00  0.46733428141E+00  0.25500000000E-02 0.  1.
         31    1    1    2    0    0 -0.15295218182E+00  0.61997953118E+00  0.63395312053E+02  0.63834413018E+02  0.74470750000E+01 0. -1.
        -31    1    1    2    0    0  0.15295218182E+00 -0.61997953118E+00  0.56119379792E+02  0.56614940460E+02  0.74470750000E+01 0.  1.
<mgrwt>
<rscale>  0 0.14976154E+02</rscale>
<asrwt>0</asrwt>
<pdfrwt beam="2">  1        2 0.99257489E+00 0.14976154E+02</pdfrwt>
<pdfrwt beam="1">  1       -2 0.99595953E+00 0.14976154E+02</pdfrwt>
<totfact>-0.13686240E-13</totfact>
</mgrwt>
</event>
<event>
 4    1  0.5021037E-019  0.1489476E+02  0.7818608E-02  0.1871297E+00
         -2   -1    0    0    0  501 -0.00000000000E+00  0.00000000000E+00  0.11831762414E+03  0.11831762417E+03  0.25500000000E-02 0. -1.
          2   -1    0    0  501    0  0.00000000000E+00 -0.00000000000E+00 -0.46876397705E+00  0.46877091279E+00  0.25500000000E-02 0.  1.
         31    1    1    2    0    0 -0.65563864450E-01  0.94898398897E-02  0.58830445894E+02  0.59299955134E+02  0.74470750000E+01 0. -1.
        -31    1    1    2    0    0  0.65563864450E-01 -0.94898398897E-02  0.59018414268E+02  0.59486439946E+02  0.74470750000E+01 0. -1.
<mgrwt>
<rscale>  0 0.14894758E+02</rscale>
<asrwt>0</asrwt>
<pdfrwt beam="2">  1        2 0.99555983E+00 0.14894758E+02</pdfrwt>
<pdfrwt beam="1">  1       -2 0.98220903E+00 0.14894758E+02</pdfrwt>
<totfact> 0.88338202E-13</totfact>
</mgrwt>
</event>
<event>
 4    1 -0.5021037E-019  0.1490147E+02  0.7818608E-02  0.1871090E+00
          2   -1    0    0  501    0  0.00000000000E+00  0.00000000000E+00  0.11805980598E+03  0.11805980601E+03  0.25500000000E-02 0. -1.
         -2   -1    0    0    0  501 -0.00000000000E+00 -0.00000000000E+00 -0.47021102085E+00  0.47021793525E+00  0.25500000000E-02 0.  1.
         31    1    1    2    0    0  0.33149688634E-01 -0.18953675235E+00  0.57743025003E+02  0.58221584362E+02  0.74470750000E+01 0.  1.
        -31    1    1    2    0    0 -0.33149688634E-01  0.18953675235E+00  0.59846569954E+02  0.60308439579E+02  0.74470750000E+01 0.  1.
<mgrwt>
<rscale>  0 0.14901467E+02</rscale>
<asrwt>0</asrwt>
<pdfrwt beam="1">  1        2 0.98008917E+00 0.14901467E+02</pdfrwt>
<pdfrwt beam="2">  1       -2 0.99861221E+00 0.14901467E+02</pdfrwt>
<totfact>-0.34425340E-13</totfact>
</mgrwt>
</event>
<event>
 4    1 -0.5021037E-019  0.1490024E+02  0.7818608E-02  0.1871128E+00
         -2   -1    0    0    0  501 -0.00000000000E+00  0.00000000000E+00  0.12014883128E+03  0.12014883131E+03  0.25500000000E-02 0. -1.
          2   -1    0    0  501    0  0.00000000000E+00 -0.00000000000E+00 -0.46195946735E+00  0.46196650526E+00  0.25500000000E-02 0.  1.
         31    1    1    2    0    0  0.10666257116E+00  0.97131990517E-01  0.58574408057E+02  0.59046092308E+02  0.74470750000E+01 0.  1.
        -31    1    1    2    0    0 -0.10666257116E+00 -0.97131990517E-01  0.61112463756E+02  0.61564705505E+02  0.74470750000E+01 0. -1.
<mgrwt>
<rscale>  0 0.14900244E+02</rscale>
<asrwt>0</asrwt>
<pdfrwt beam="2">  1        2 0.98122301E+00 0.14900244E+02</pdfrwt>
<pdfrwt beam="1">  1       -2 0.99729446E+00 0.14900244E+02</pdfrwt>
<totfact>-0.48814131E-13</totfact>
</mgrwt>
</event>
<event>
 4    1 -0.5021037E-019  0.1493638E+02  0.7818608E-02  0.1870016E+00
          2   -1    0    0  501    0  0.00000000000E+00  0.00000000000E+00  0.11925553245E+03  0.11925553247E+03  0.25500000000E-02 0.  1.
         -2   -1    0    0    0  501 -0.00000000000E+00 -0.00000000000E+00 -0.46768030311E+00  0.46768725492E+00  0.25500000000E-02 0. -1.
         31    1    1    2    0    0  0.44217844381E+00  0.17088651418E+00  0.56986174997E+02  0.57472669947E+02  0.74470750000E+01 0.  1.
        -31    1    1    2    0    0 -0.44217844381E+00 -0.17088651418E+00  0.61801677147E+02  0.62250549782E+02  0.74470750000E+01 0.  1.
<mgrwt>
<rscale>  0 0.14936383E+02</rscale>
<asrwt>0</asrwt>
<pdfrwt beam="1">  1        2 0.98995535E+00 0.14936383E+02</pdfrwt>
<pdfrwt beam="2">  1       -2 0.99329818E+00 0.14936383E+02</pdfrwt>
<totfact>-0.16330656E-13</totfact>
</mgrwt>
</event>
<event>
 4    1 -0.5021037E-019  0.1493073E+02  0.7818608E-02  0.1870190E+00
          2   -1    0    0  501    0  0.00000000000E+00  0.00000000000E+00  0.11846930625E+03  0.11846930628E+03  0.25500000000E-02 0.  1.
         -2   -1    0    0    0  501 -0.00000000000E+00 -0.00000000000E+00 -0.47042789654E+00  0.47043480775E+00  0.25500000000E-02 0. -1.
         31    1    1    2    0    0 -0.28800127399E+00 -0.43099355335E+00  0.58492294604E+02  0.58966737694E+02  0.74470750000E+01 0.  1.
        -31    1    1    2    0    0  0.28800127399E+00  0.43099355335E+00  0.59506583753E+02  0.59973003394E+02  0.74470750000E+01 0. -1.
<mgrwt>
<rscale>  0 0.14930731E+02</rscale>
<asrwt>0</asrwt>
<pdfrwt beam="1">  1        2 0.98347700E+00 0.14930731E+02</pdfrwt>
<pdfrwt beam="2">  1       -2 0.99908467E+00 0.14930731E+02</pdfrwt>
<totfact>-0.13386208E-13</totfact>
</mgrwt>
</event>
<event>
 4    1 -0.5021037E-019  0.1500141E+02  0.7818608E-02  0.1868026E+00
          2   -1    0    0  501    0  0.00000000000E+00  0.00000000000E+00  0.12026765506E+03  0.12026765509E+03  0.25500000000E-02 0.  1.
         -2   -1    0    0    0  501 -0.00000000000E+00 -0.00000000000E+00 -0.46779107704E+00  0.46779802720E+00  0.25500000000E-02 0. -1.
         31    1    1    2    0    0  0.23201129472E+00  0.85306221323E+00  0.58759270925E+02  0.59235904569E+02  0.74470750000E+01 0. -1.
        -31    1    1    2    0    0 -0.23201129472E+00 -0.85306221323E+00  0.61040593058E+02  0.61499548546E+02  0.74470750000E+01 0.  1.
<mgrwt>
<rscale>  0 0.15001408E+02</rscale>
<asrwt>0</asrwt>
<pdfrwt beam="1">  1        2 0.99832520E+00 0.15001408E+02</pdfrwt>
<pdfrwt beam="2">  1       -2 0.99356519E+00 0.15001408E+02</pdfrwt>
<totfact>-0.53540220E-14</totfact>
</mgrwt>
</event>
<event>
 4    1  0.5021037E-019  0.1489857E+02  0.7818608E-02  0.1871179E+00
         -2   -1    0    0    0  501 -0.00000000000E+00  0.00000000000E+00  0.11833806374E+03  0.11833806377E+03  0.25500000000E-02 0.  1.
          2   -1    0    0  501    0  0.00000000000E+00 -0.00000000000E+00 -0.46892312206E+00  0.46893005545E+00  0.25500000000E-02 0. -1.
         31    1    1    2    0    0  0.74826207502E-01  0.10277623695E-01  0.60250638064E+02  0.60709175730E+02  0.74470750000E+01 0.  1.
        -31    1    1    2    0    0 -0.74826207502E-01 -0.10277623695E-01  0.57618502552E+02  0.58097818091E+02  0.74470750000E+01 0. -1.
<mgrwt>
<rscale>  0 0.14898573E+02</rscale>
<asrwt>0</asrwt>
<pdfrwt beam="2">  1        2 0.99589716E+00 0.14898573E+02</pdfrwt>
<pdfrwt beam="1">  1       -2 0.98237935E+00 0.14898573E+02</pdfrwt>
<totfact> 0.81604067E-13</totfact>
</mgrwt>
</event>
<event>
 4    1 -0.5021037E-019  0.1498887E+02  0.7818608E-02  0.1868408E+00
         -2   -1    0    0    0  501 -0.00000000000E+00  0.00000000000E+00  0.12009065009E+03  0.12009065011E+03  0.25500000000E-02 0.  1.
          2   -1    0    0  501    0  0.00000000000E+00 -0.00000000000E+00 -0.46769769442E+00  0.46770464597E+00  0.25500000000E-02 0. -1.
         31    1    1    2    0    0  0.83926236190E+00 -0.40648448744E-01  0.60133321402E+02  0.60598525415E+02  0.74470750000E+01 0. -1.
        -31    1    1    2    0    0 -0.83926236190E+00  0.40648448744E-01  0.59489630991E+02  0.59959829345E+02  0.74470750000E+01 0. -1.
<mgrwt>
<rscale>  0 0.14988868E+02</rscale>
<asrwt>0</asrwt>
<pdfrwt beam="2">  1        2 0.99336195E+00 0.14988868E+02</pdfrwt>
<pdfrwt beam="1">  1       -2 0.99686083E+00 0.14988868E+02</pdfrwt>
<totfact>-0.11312598E-13</totfact>
</mgrwt>
</event>
<event>
 4    1 -0.5021037E-019  0.1498039E+02  0.7818608E-02  0.1868667E+00
         -2   -1    0    0    0  501 -0.00000000000E+00  0.00000000000E+00  0.12019595649E+03  0.12019595652E+03  0.25500000000E-02 0.  1.
          2   -1    0    0  501    0  0.00000000000E+00 -0.00000000000E+00 -0.46675963574E+00  0.46676660126E+00  0.25500000000E-02 0. -1.
         31    1    1    2    0    0  0.12070041535E-02 -0.14795446842E+00  0.66218252167E+02  0.66635859251E+02  0.74470750000E+01 0.  1.
        -31    1    1    2    0    0 -0.12070041535E-02  0.14795446842E+00  0.53510944687E+02  0.54026863867E+02  0.74470750000E+01 0. -1.
<mgrwt>
<rscale>  0 0.14980393E+02</rscale>
<asrwt>0</asrwt>
<pdfrwt beam="2">  1        2 0.99138068E+00 0.14980393E+02</pdfrwt>
<pdfrwt beam="1">  1       -2 0.99772382E+00 0.14980393E+02</pdfrwt>
<totfact>-0.10436532E-13</totfact>
</mgrwt>
</event>
<event>
 4    1  0.5021037E-019  0.1491415E+02  0.7818608E-02  0.1870700E+00
         -2   -1    0    0    0  501 -0.00000000000E+00  0.00000000000E+00  0.11825020531E+03  0.11825020533E+03  0.25500000000E-02 0. -1.
          2   -1    0    0  501    0  0.00000000000E+00 -0.00000000000E+00 -0.47025336810E+00  0.47026028187E+00  0.25500000000E-02 0.  1.
         31    1    1    2    0    0 -0.19619054241E+00  0.26234611645E+00  0.57263917616E+02  0.57747056228E+02  0.74470750000E+01 0. -1.
        -31    1    1    2    0    0  0.19619054241E+00 -0.26234611645E+00  0.60516034323E+02  0.60973409389E+02  0.74470750000E+01 0.  1.
<mgrwt>
<rscale>  0 0.14914150E+02</rscale>
<asrwt>0</asrwt>
<pdfrwt beam="2">  1        2 0.99870817E+00 0.14914150E+02</pdfrwt>
<pdfrwt beam="1">  1       -2 0.98166387E+00 0.14914150E+02</pdfrwt>
<totfact> 0.40223461E-13</totfact>
</mgrwt>
</event>
<event>
 4    1 -0.5021037E-019  0.1492431E+02  0.7818608E-02  0.1870387E+00
         -2   -1    0    0    0  501 -0.00000000000E+00  0.00000000000E+00  0.11972925157E+03  0.11972925160E+03  0.25500000000E-02 0.  1.
          2   -1    0    0  501    0  0.00000000000E+00 -0.00000000000E+00 -0.46507702756E+00  0.46508401829E+00  0.25500000000E-02 0. -1.
         31    1    1    2    0    0 -0.30325094730E+00  0.33425442731E+00  0.60802853228E+02  0.61258873429E+02  0.74470750000E+01 0. -1.
        -31    1    1    2    0    0  0.30325094730E+00 -0.33425442731E+00  0.58461321317E+02  0.58935462188E+02  0.74470750000E+01 0. -1.
<mgrwt>
<rscale>  0 0.14924309E+02</rscale>
<asrwt>0</asrwt>
<pdfrwt beam="2">  1        2 0.98780587E+00 0.14924309E+02</pdfrwt>
<pdfrwt beam="1">  1       -2 0.99385086E+00 0.14924309E+02</pdfrwt>
<totfact>-0.22155791E-13</totfact>
</mgrwt>
</event>
<event>
 4    1  0.5021037E-019  0.1495689E+02  0.7818608E-02  0.1869387E+00
         -2   -1    0    0    0  501 -0.00000000000E+00  0.00000000000E+00  0.11887867237E+03  0.11887867239E+03  0.25500000000E-02 0.  1.
          2   -1    0    0  501    0  0.00000000000E+00 -0.00000000000E+00 -0.47045236010E+00  0.47045927095E+00  0.25500000000E-02 0. -1.
         31    1    1    2    0    0  0.50975050708E+00  0.14836240166E+00  0.62649044623E+02  0.63092341653E+02  0.74470750000E+01 0.  1.
        -31    1    1    2    0    0 -0.50975050708E+00 -0.14836240166E+00  0.55759175383E+02  0.56256790012E+02  0.74470750000E+01 0. -1.
<mgrwt>
<rscale>  0 0.14956894E+02</rscale>
<asrwt>0</asrwt>
<pdfrwt beam="2">  1        2 0.99915003E+00 0.14956894E+02</pdfrwt>
<pdfrwt beam="1">  1       -2 0.98686212E+00 0.14956894E+02</pdfrwt>
<totfact> 0.68953510E-14</totfact>
</mgrwt>
</event>
<event>
 4    1 -0.5021037E-019  0.1492773E+02  0.7818608E-02  0.1870282E+00
          2   -1    0    0  501    0  0.00000000000E+00  0.00000000000E+00  0.11886074071E+03  0.11886074074E+03  0.25500000000E-02 0. -1.
         -2   -1    0    0    0  501 -0.00000000000E+00 -0.00000000000E+00 -0.46869047047E+00  0.46869740730E+00  0.25500000000E-02 0.  1.
         31    1    1    2    0    0 -0.27035478716E+00  0.41786371976E+00  0.58781875966E+02  0.59253823251E+02  0.74470750000E+01 0.  1.
        -31    1    1    2    0    0  0.27035478716E+00 -0.41786371976E+00  0.59610174276E+02  0.60075614896E+02  0.74470750000E+01 0. -1.
<mgrwt>
<rscale>  0 0.14927734E+02</rscale>
<asrwt>0</asrwt>
<pdfrwt beam="1">  1        2 0.98669929E+00 0.14927734E+02</pdfrwt>
<pdfrwt beam="2">  1       -2 0.99542228E+00 0.14927734E+02</pdfrwt>
<totfact>-0.26247411E-13</totfact>
</mgrwt>
</event>
<event>
 4    1 -0.5021037E-019  0.1495707E+02  0.7818608E-02  0.1869381E+00
          2   -1    0    0  501    0  0.00000000000E+00  0.00000000000E+00  0.11911963447E+03  0.11911963450E+03  0.25500000000E-02 0. -1.
         -2   -1    0    0    0  501 -0.00000000000E+00 -0.00000000000E+00 -0.46951156321E+00  0.46951848791E+00  0.25500000000E-02 0.  1.
         31    1    1    2    0    0 -0.64737832863E+00 -0.21094104205E+00  0.58708806276E+02  0.59183160234E+02  0.74470750000E+01 0.  1.
        -31    1    1    2    0    0  0.64737832863E+00  0.21094104205E+00  0.59941316632E+02  0.60405992753E+02  0.74470750000E+01 0.  1.
<mgrwt>
<rscale>  0 0.14957067E+02</rscale>
<asrwt>0</asrwt>
<pdfrwt beam="1">  1        2 0.98884679E+00 0.14957067E+02</pdfrwt>
<pdfrwt beam="2">  1       -2 0.99716779E+00 0.14957067E+02</pdfrwt>
<totfact>-0.15533686E-13</totfact>
</mgrwt>
</event>
<event>
 4    1  0.5021037E-019  0.1492085E+02  0.7818608E-02  0.1870493E+00
          2   -1    0    0  501    0  0.00000000000E+00  0.00000000000E+00  0.12027762244E+03  0.12027762247E+03  0.25500000000E-02 0. -1.
         -2   -1    0    0    0  501 -0.00000000000E+00 -0.00000000000E+00 -0.46274227240E+00  0.46274929840E+00  0.25500000000E-02 0.  1.
         31    1    1    2    0    0 -0.41736806067E+00 -0.70966598585E-01  0.61046314800E+02  0.61500330967E+02  0.74470750000E+01 0. -1.
        -31    1    1    2    0    0  0.41736806067E+00  0.70966598585E-01  0.58768565367E+02  0.59240040797E+02  0.74470750000E+01 0.  1.
<mgrwt>
<rscale>  0 0.14920853E+02</rscale>
<asrwt>0</asrwt>
<pdfrwt beam="1">  1        2 0.99836587E+00 0.14920853E+02</pdfrwt>
<pdfrwt beam="2">  1       -2 0.98288336E+00 0.14920853E+02</pdfrwt>
<totfact> 0.38175518E-13</totfact>
</mgrwt>
</event>
<event>
 4    1  0.5021037E-019  0.1493963E+02  0.7818608E-02  0.1869916E+00
          2   -1    0    0  501    0  0.00000000000E+00  0.00000000000E+00  0.12023475267E+03  0.12023475270E+03  0.25500000000E-02 0. -1.
         -2   -1    0    0    0  501 -0.00000000000E+00 -0.00000000000E+00 -0.46407315636E+00  0.46408016220E+00  0.25500000000E-02 0.  1.
         31    1    1    2    0    0  0.24356495262E+00 -0.45572509986E+00  0.57714325086E+02  0.58195096490E+02  0.74470750000E+01 0. -1.
        -31    1    1    2    0    0 -0.24356495262E+00  0.45572509986E+00  0.62056354427E+02  0.62503736369E+02  0.74470750000E+01 0.  1.
<mgrwt>
<rscale>  0 0.14939631E+02</rscale>
<asrwt>0</asrwt>
<pdfrwt beam="1">  1        2 0.99802240E+00 0.14939631E+02</pdfrwt>
<pdfrwt beam="2">  1       -2 0.98569795E+00 0.14939631E+02</pdfrwt>
<totfact> 0.21423937E-13</totfact>
</mgrwt>
</event>
<event>
 4    1  0.5021037E-019  0.1495733E+02  0.7818608E-02  0.1869373E+00
          2   -1    0    0  501    0  0.00000000000E+00  0.00000000000E+00  0.12024616633E+03  0.12024616635E+03  0.25500000000E-02 0. -1.
         -2   -1    0    0    0  501 -0.00000000000E+00 -0.00000000000E+00 -0.46512926136E+00  0.46513625130E+00  0.25500000000E-02 0.  1.
         31    1    1    2    0    0  0.20880267553E+00 -0.65390917432E+00  0.60033119570E+02  0.60497153380E+02  0.74470750000E+01 0. -1.
        -31    1    1    2    0    0 -0.20880267553E+00  0.65390917432E+00  0.59747917497E+02  0.60214149226E+02  0.74470750000E+01 0. -1.
<mgrwt>
<rscale>  0 0.14957331E+02</rscale>
<asrwt>0</asrwt>
<pdfrwt beam="1">  1        2 0.99812551E+00 0.14957331E+02</pdfrwt>
<pdfrwt beam="2">  1       -2 0.98793281E+00 0.14957331E+02</pdfrwt>
<totfact> 0.82037798E-14</totfact>
</mgrwt>
</event>
<event>
 4    1 -0.5021037E-019  0.1491275E+02  0.7818608E-02  0.1870743E+00
          2   -1    0    0  501    0  0.00000000000E+00  0.00000000000E+00  0.11860507843E+03  0.11860507846E+03  0.25500000000E-02 0.  1.
         -2   -1    0    0    0  501 -0.00000000000E+00 -0.00000000000E+00 -0.46875801774E+00  0.46876495357E+00  0.25500000000E-02 0. -1.
         31    1    1    2    0    0  0.23059624282E+00 -0.18384412015E+00  0.57254442613E+02  0.57737484343E+02  0.74470750000E+01 0.  1.
        -31    1    1    2    0    0 -0.23059624282E+00  0.18384412015E+00  0.60881877803E+02  0.61336359071E+02  0.74470750000E+01 0.  1.
<mgrwt>
<rscale>  0 0.14912746E+02</rscale>
<asrwt>0</asrwt>
<pdfrwt beam="1">  1        2 0.98458585E+00 0.14912746E+02</pdfrwt>
<pdfrwt beam="2">  1       -2 0.99555674E+00 0.14912746E+02</pdfrwt>
<totfact>-0.36231070E-13</totfact>
</mgrwt>
</event>
<event>
 4    1 -0.5021037E-019  0.1494700E+02  0.7818608E-02  0.1869690E+00
         -2   -1    0    0    0  501 -0.00000000000E+00  0.00000000000E+00  0.11986900054E+03  0.11986900057E+03  0.25500000000E-02 0.  1.
          2   -1    0    0  501    0  0.00000000000E+00 -0.00000000000E+00 -0.46594858172E+00  0.46595555937E+00  0.25500000000E-02 0. -1.
         31    1    1    2    0    0 -0.23221538095E+00 -0.58273936995E+00  0.59925944921E+02  0.60390159049E+02  0.74470750000E+01 0. -1.
        -31    1    1    2    0    0  0.23221538095E+00  0.58273936995E+00  0.59477107036E+02  0.59944797077E+02  0.74470750000E+01 0. -1.
<mgrwt>
<rscale>  0 0.14947001E+02</rscale>
<asrwt>0</asrwt>
<pdfrwt beam="2">  1        2 0.98965428E+00 0.14947001E+02</pdfrwt>
<pdfrwt beam="1">  1       -2 0.99501361E+00 0.14947001E+02</pdfrwt>
<totfact>-0.18465856E-13</totfact>
</mgrwt>
</event>
<event>
 4    1  0.5021037E-019  0.1492983E+02  0.7818608E-02  0.1870217E+00
          2   -1    0    0  501    0  0.00000000000E+00  0.00000000000E+00  0.11983356518E+03  0.11983356521E+03  0.25500000000E-02 0.  1.
         -2   -1    0    0    0  501 -0.00000000000E+00 -0.00000000000E+00 -0.46501587018E+00  0.46502286183E+00  0.25500000000E-02 0. -1.
         31    1    1    2    0    0  0.60446279917E-01 -0.32470869266E+00  0.56492445162E+02  0.56982140851E+02  0.74470750000E+01 0. -1.
        -31    1    1    2    0    0 -0.60446279917E-01  0.32470869266E+00  0.62876104152E+02  0.63316447223E+02  0.74470750000E+01 0.  1.
<mgrwt>
<rscale>  0 0.14929827E+02</rscale>
<asrwt>0</asrwt>
<pdfrwt beam="1">  1        2 0.99471289E+00 0.14929827E+02</pdfrwt>
<pdfrwt beam="2">  1       -2 0.98767980E+00 0.14929827E+02</pdfrwt>
<totfact> 0.18499126E-13</totfact>
</mgrwt>
</event>
<event>
 4    1 -0.5021037E-019  0.1491602E+02  0.7818608E-02  0.1870642E+00
          2   -1    0    0  501    0  0.00000000000E+00  0.00000000000E+00  0.11856385477E+03  0.11856385480E+03  0.25500000000E-02 0. -1.
         -2   -1    0    0    0  501 -0.00000000000E+00 -0.00000000000E+00 -0.46912688708E+00  0.46913381746E+00  0.25500000000E-02 0.  1.
         31    1    1    2    0    0  0.27527194535E+00 -0.22760124042E+00  0.57545828456E+02  0.58026794464E+02  0.74470750000E+01 0.  1.
        -31    1    1    2    0    0 -0.27527194535E+00  0.22760124042E+00  0.60548899428E+02  0.61006194152E+02  0.74470750000E+01 0. -1.
<mgrwt>
<rscale>  0 0.14916019E+02</rscale>
<asrwt>0</asrwt>
<pdfrwt beam="1">  1        2 0.98424803E+00 0.14916019E+02</pdfrwt>
<pdfrwt beam="2">  1       -2 0.99633569E+00 0.14916019E+02</pdfrwt>
<totfact>-0.35362115E-13</totfact>
</mgrwt>
</event>
<event>
 4    1  0.5021037E-019  0.1494025E+02  0.7818608E-02  0.1869897E+00
          2   -1    0    0  501    0  0.00000000000E+00  0.00000000000E+00  0.12024341483E+03  0.12024341486E+03  0.25500000000E-02 0. -1.
         -2   -1    0    0    0  501 -0.00000000000E+00 -0.00000000000E+00 -0.46407814192E+00  0.46408514769E+00  0.25500000000E-02 0.  1.
         31    1    1    2    0    0  0.40982062178E+00  0.34526877712E+00  0.57966249177E+02  0.58445120696E+02  0.74470750000E+01 0.  1.
        -31    1    1    2    0    0 -0.40982062178E+00 -0.34526877712E+00  0.61813087512E+02  0.62262379309E+02  0.74470750000E+01 0. -1.
<mgrwt>
<rscale>  0 0.14940250E+02</rscale>
<asrwt>0</asrwt>
<pdfrwt beam="1">  1        2 0.99809406E+00 0.14940250E+02</pdfrwt>
<pdfrwt beam="2">  1       -2 0.98570877E+00 0.14940250E+02</pdfrwt>
<totfact> 0.20740623E-13</totfact>
</mgrwt>
</event>
<event>
 4    1 -0.5021037E-019  0.1495318E+02  0.7818608E-02  0.1869501E+00
         -2   -1    0    0    0  501 -0.00000000000E+00  0.00000000000E+00  0.12017697698E+03  0.12017697700E+03  0.25500000000E-02 0.  1.
          2   -1    0    0  501    0  0.00000000000E+00 -0.00000000000E+00 -0.46513880421E+00  0.46514579401E+00  0.25500000000E-02 0. -1.
         31    1    1    2    0    0 -0.12979811858E+00 -0.65010233244E+00  0.60110025992E+02  0.60573208859E+02  0.74470750000E+01 0.  1.
        -31    1    1    2    0    0  0.12979811858E+00  0.65010233244E+00  0.59601812180E+02  0.60068913938E+02  0.74470750000E+01 0. -1.
<mgrwt>
<rscale>  0 0.14953180E+02</rscale>
<asrwt>0</asrwt>
<pdfrwt beam="2">  1        2 0.98795081E+00 0.14953180E+02</pdfrwt>
<pdfrwt beam="1">  1       -2 0.99755348E+00 0.14953180E+02</pdfrwt>
<totfact>-0.15604925E-13</totfact>
</mgrwt>
</event>
<event>
 4    1  0.5021037E-019  0.1494308E+02  0.7818608E-02  0.1869810E+00
          2   -1    0    0  501    0  0.00000000000E+00  0.00000000000E+00  0.12007985503E+03  0.12007985506E+03  0.25500000000E-02 0. -1.
         -2   -1    0    0    0  501 -0.00000000000E+00 -0.00000000000E+00 -0.46488626451E+00  0.46489325811E+00  0.25500000000E-02 0.  1.
         31    1    1    2    0    0  0.50430079064E-01  0.11152622938E+00  0.55035086001E+02  0.55536785994E+02  0.74470750000E+01 0.  1.
        -31    1    1    2    0    0 -0.50430079064E-01 -0.11152622938E+00  0.64579882769E+02  0.65007962326E+02  0.74470750000E+01 0. -1.
<mgrwt>
<rscale>  0 0.14943078E+02</rscale>
<asrwt>0</asrwt>
<pdfrwt beam="1">  1        2 0.99674832E+00 0.14943078E+02</pdfrwt>
<pdfrwt beam="2">  1       -2 0.98741342E+00 0.14943078E+02</pdfrwt>
<totfact> 0.15945529E-13</totfact>
</mgrwt>
</event>
<event>
 4    1 -0.5021037E-019  0.1496003E+02  0.7818608E-02  0.1869291E+00
         -2   -1    0    0    0  501 -0.00000000000E+00  0.00000000000E+00  0.12009594953E+03  0.12009594956E+03  0.25500000000E-02 0. -1.
          2   -1    0    0  501    0  0.00000000000E+00 -0.00000000000E+00 -0.46587890546E+00  0.46588588415E+00  0.25500000000E-02 0.  1.
         31    1    1    2    0    0  0.55278096683E+00  0.42295174331E+00  0.59130699439E+02  0.59601870752E+02  0.74470750000E+01 0. -1.
        -31    1    1    2    0    0 -0.55278096683E+00 -0.42295174331E+00  0.60499371189E+02  0.60959964692E+02  0.74470750000E+01 0. -1.
<mgrwt>
<rscale>  0 0.14960026E+02</rscale>
<asrwt>0</asrwt>
<pdfrwt beam="2">  1        2 0.98951411E+00 0.14960026E+02</pdfrwt>
<pdfrwt beam="1">  1       -2 0.99688961E+00 0.14960026E+02</pdfrwt>
<totfact>-0.15361481E-13</totfact>
</mgrwt>
</event>
<event>
 4    1 -0.5021037E-019  0.1489693E+02  0.7818608E-02  0.1871230E+00
          2   -1    0    0  501    0  0.00000000000E+00  0.00000000000E+00  0.11823633775E+03  0.11823633778E+03  0.25500000000E-02 0. -1.
         -2   -1    0    0    0  501 -0.00000000000E+00 -0.00000000000E+00 -0.46922280040E+00  0.46922972936E+00  0.25500000000E-02 0.  1.
         31    1    1    2    0    0 -0.99748848725E-01 -0.65135189302E-01  0.59525001814E+02  0.59989157016E+02  0.74470750000E+01 0. -1.
        -31    1    1    2    0    0  0.99748848725E-01  0.65135189302E-01  0.58242113134E+02  0.58716410490E+02  0.74470750000E+01 0.  1.
<mgrwt>
<rscale>  0 0.14896926E+02</rscale>
<asrwt>0</asrwt>
<pdfrwt beam="1">  1        2 0.98154069E+00 0.14896926E+02</pdfrwt>
<pdfrwt beam="2">  1       -2 0.99652771E+00 0.14896926E+02</pdfrwt>
<totfact>-0.54207352E-13</totfact>
</mgrwt>
</event>
<event>
 4    1  0.5021037E-019  0.1491016E+02  0.7818608E-02  0.1870822E+00
         -2   -1    0    0    0  501 -0.00000000000E+00  0.00000000000E+00  0.11888033874E+03  0.11888033877E+03  0.25500000000E-02 0.  1.
          2   -1    0    0  501    0  0.00000000000E+00 -0.00000000000E+00 -0.46751046888E+00  0.46751742322E+00  0.25500000000E-02 0. -1.
         31    1    1    2    0    0  0.32995563616E+00  0.95565111965E-01  0.58918914238E+02  0.59388680609E+02  0.74470750000E+01 0. -1.
        -31    1    1    2    0    0 -0.32995563616E+00 -0.95565111965E-01  0.59493914034E+02  0.59959175583E+02  0.74470750000E+01 0. -1.
<mgrwt>
<rscale>  0 0.14910160E+02</rscale>
<asrwt>0</asrwt>
<pdfrwt beam="2">  1        2 0.99292664E+00 0.14910160E+02</pdfrwt>
<pdfrwt beam="1">  1       -2 0.98685158E+00 0.14910160E+02</pdfrwt>
<totfact> 0.31000343E-13</totfact>
</mgrwt>
</event>
<event>
 4    1 -0.5021037E-019  0.1497878E+02  0.7818608E-02  0.1868717E+00
         -2   -1    0    0    0  501 -0.00000000000E+00  0.00000000000E+00  0.11999116758E+03  0.11999116760E+03  0.25500000000E-02 0. -1.
          2   -1    0    0  501    0  0.00000000000E+00 -0.00000000000E+00 -0.46745571366E+00  0.46746266881E+00  0.25500000000E-02 0.  1.
         31    1    1    2    0    0 -0.77358677566E+00  0.12734379576E+00  0.58701098195E+02  0.59176790284E+02  0.74470750000E+01 0. -1.
        -31    1    1    2    0    0  0.77358677566E+00 -0.12734379576E+00  0.60822613666E+02  0.61281839987E+02  0.74470750000E+01 0. -1.
<mgrwt>
<rscale>  0 0.14978782E+02</rscale>
<asrwt>0</asrwt>
<pdfrwt beam="2">  1        2 0.99284681E+00 0.14978782E+02</pdfrwt>
<pdfrwt beam="1">  1       -2 0.99603624E+00 0.14978782E+02</pdfrwt>
<totfact>-0.13313167E-13</totfact>
</mgrwt>
</event>
<event>
 4    1 -0.5021037E-019  0.1494283E+02  0.7818608E-02  0.1869818E+00
         -2   -1    0    0    0  501 -0.00000000000E+00  0.00000000000E+00  0.11979215060E+03  0.11979215062E+03  0.25500000000E-02 0. -1.
          2   -1    0    0  501    0  0.00000000000E+00 -0.00000000000E+00 -0.46598721869E+00  0.46599419576E+00  0.25500000000E-02 0.  1.
         31    1    1    2    0    0 -0.43037719323E+00 -0.11559444047E+00  0.62927384756E+02  0.63368077649E+02  0.74470750000E+01 0.  1.
        -31    1    1    2    0    0  0.43037719323E+00  0.11559444047E+00  0.56398778622E+02  0.56890067171E+02  0.74470750000E+01 0.  1.
<mgrwt>
<rscale>  0 0.14942829E+02</rscale>
<asrwt>0</asrwt>
<pdfrwt beam="2">  1        2 0.98973357E+00 0.14942829E+02</pdfrwt>
<pdfrwt beam="1">  1       -2 0.99437848E+00 0.14942829E+02</pdfrwt>
<totfact>-0.18268875E-13</totfact>
</mgrwt>
</event>
<event>
 4    1 -0.5021037E-019  0.1497345E+02  0.7818608E-02  0.1868880E+00
         -2   -1    0    0    0  501 -0.00000000000E+00  0.00000000000E+00  0.12026012853E+03  0.12026012856E+03  0.25500000000E-02 0.  1.
          2   -1    0    0  501    0  0.00000000000E+00 -0.00000000000E+00 -0.46607810235E+00  0.46608507806E+00  0.25500000000E-02 0. -1.
         31    1    1    2    0    0  0.61243859728E+00 -0.39540863939E+00  0.61883133774E+02  0.62333880040E+02  0.74470750000E+01 0. -1.
        -31    1    1    2    0    0 -0.61243859728E+00  0.39540863939E+00  0.57910916658E+02  0.58392333600E+02  0.74470750000E+01 0. -1.
<mgrwt>
<rscale>  0 0.14973448E+02</rscale>
<asrwt>0</asrwt>
<pdfrwt beam="2">  1        2 0.98994078E+00 0.14973448E+02</pdfrwt>
<pdfrwt beam="1">  1       -2 0.99824880E+00 0.14973448E+02</pdfrwt>
<totfact>-0.95725992E-14</totfact>
</mgrwt>
</event>
<event>
 4    1  0.5021037E-019  0.1490967E+02  0.7818608E-02  0.1870838E+00
          2   -1    0    0  501    0  0.00000000000E+00  0.00000000000E+00  0.11940431510E+03  0.11940431513E+03  0.25500000000E-02 0.  1.
         -2   -1    0    0    0  501 -0.00000000000E+00 -0.00000000000E+00 -0.46542811842E+00  0.46543510387E+00  0.25500000000E-02 0. -1.
         31    1    1    2    0    0 -0.26148340105E-01 -0.24591550043E+00  0.61345680033E+02  0.61796541513E+02  0.74470750000E+01 0. -1.
        -31    1    1    2    0    0  0.26148340105E-01  0.24591550043E+00  0.57593206949E+02  0.58073208718E+02  0.74470750000E+01 0. -1.
<mgrwt>
<rscale>  0 0.14909667E+02</rscale>
<asrwt>0</asrwt>
<pdfrwt beam="1">  1        2 0.99116696E+00 0.14909667E+02</pdfrwt>
<pdfrwt beam="2">  1       -2 0.98853825E+00 0.14909667E+02</pdfrwt>
<totfact> 0.14462685E-13</totfact>
</mgrwt>
</event>
<event>
 4    1 -0.5021037E-019  0.1496830E+02  0.7818608E-02  0.1869037E+00
         -2   -1    0    0    0  501 -0.00000000000E+00  0.00000000000E+00  0.11989344369E+03  0.11989344371E+03  0.25500000000E-02 0.  1.
          2   -1    0    0  501    0  0.00000000000E+00 -0.00000000000E+00 -0.46718245726E+00  0.46718941648E+00  0.25500000000E-02 0. -1.
         31    1    1    2    0    0  0.38764776930E-01 -0.71122583295E+00  0.61442665509E+02  0.61896424903E+02  0.74470750000E+01 0.  1.
        -31    1    1    2    0    0 -0.38764776930E-01  0.71122583295E+00  0.57983595721E+02  0.58464208228E+02  0.74470750000E+01 0. -1.
<mgrwt>
<rscale>  0 0.14968304E+02</rscale>
<asrwt>0</asrwt>
<pdfrwt beam="2">  1        2 0.99226555E+00 0.14968304E+02</pdfrwt>
<pdfrwt beam="1">  1       -2 0.99522593E+00 0.14968304E+02</pdfrwt>
<totfact>-0.14742752E-13</totfact>
</mgrwt>
</event>
<event>
 4    1 -0.5021037E-019  0.1495377E+02  0.7818608E-02  0.1869482E+00
         -2   -1    0    0    0  501 -0.00000000000E+00  0.00000000000E+00  0.11959063271E+03  0.11959063273E+03  0.25500000000E-02 0. -1.
          2   -1    0    0  501    0  0.00000000000E+00 -0.00000000000E+00 -0.46745653658E+00  0.46746349172E+00  0.25500000000E-02 0.  1.
         31    1    1    2    0    0 -0.21839459508E+00  0.61061102885E+00  0.60815030280E+02  0.61272729465E+02  0.74470750000E+01 0.  1.
        -31    1    1    2    0    0  0.21839459508E+00 -0.61061102885E+00  0.58308145889E+02  0.58785366760E+02  0.74470750000E+01 0. -1.
<mgrwt>
<rscale>  0 0.14953774E+02</rscale>
<asrwt>0</asrwt>
<pdfrwt beam="2">  1        2 0.99283565E+00 0.14953774E+02</pdfrwt>
<pdfrwt beam="1">  1       -2 0.99272434E+00 0.14953774E+02</pdfrwt>
<totfact>-0.11693341E-13</totfact>
</mgrwt>
</event>
<event>
 4    1 -0.5021037E-019  0.1491493E+02  0.7818608E-02  0.1870675E+00
          2   -1    0    0  501    0  0.00000000000E+00  0.00000000000E+00  0.11852717956E+03  0.11852717959E+03  0.25500000000E-02 0.  1.
         -2   -1    0    0    0  501 -0.00000000000E+00 -0.00000000000E+00 -0.46920378265E+00  0.46921071189E+00  0.25500000000E-02 0. -1.
         31    1    1    2    0    0 -0.36544986895E+00 -0.32389959072E-01  0.57892637974E+02  0.58370806577E+02  0.74470750000E+01 0. -1.
        -31    1    1    2    0    0  0.36544986895E+00  0.32389959072E-01  0.60165337802E+02  0.60625583722E+02  0.74470750000E+01 0. -1.
<mgrwt>
<rscale>  0 0.14914934E+02</rscale>
<asrwt>0</asrwt>
<pdfrwt beam="1">  1        2 0.98394541E+00 0.14914934E+02</pdfrwt>
<pdfrwt beam="2">  1       -2 0.99649714E+00 0.14914934E+02</pdfrwt>
<totfact>-0.36311990E-13</totfact>
</mgrwt>
</event>
<event>
 4    1  0.5021037E-019  0.1489734E+02  0.7818608E-02  0.1871218E+00
         -2   -1    0    0    0  501 -0.00000000000E+00  0.00000000000E+00  0.11851050125E+03  0.11851050127E+03  0.25500000000E-02 0.  1.
          2   -1    0    0  501    0  0.00000000000E+00 -0.00000000000E+00 -0.46816305230E+00  0.46816999695E+00  0.25500000000E-02 0. -1.
         31    1    1    2    0    0 -0.12392140924E+00 -0.27542064141E-01  0.59717954546E+02  0.60180637553E+02  0.74470750000E+01 0.  1.
        -31    1    1    2    0    0  0.12392140924E+00  0.27542064141E-01  0.58324383647E+02  0.58798033717E+02  0.74470750000E+01 0. -1.
<mgrwt>
<rscale>  0 0.14897336E+02</rscale>
<asrwt>0</asrwt>
<pdfrwt beam="2">  1        2 0.99429501E+00 0.14897336E+02</pdfrwt>
<pdfrwt beam="1">  1       -2 0.98379890E+00 0.14897336E+02</pdfrwt>
<totfact> 0.70809835E-13</totfact>
</mgrwt>
</event>
<event>
 4    1 -0.5021037E-019  0.1503858E+02  0.7818608E-02  0.1866894E+00
          2   -1    0    0  501    0  0.00000000000E+00  0.00000000000E+00  0.12018881524E+03  0.12018881527E+03  0.25500000000E-02 0.  1.
         -2   -1    0    0    0  501 -0.00000000000E+00 -0.00000000000E+00 -0.47042055962E+00  0.47042747094E+00  0.25500000000E-02 0. -1.
         31    1    1    2    0    0 -0.23018485461E+00  0.61542708236E+00  0.66323055099E+02  0.66743076789E+02  0.74470750000E+01 0.  1.
        -31    1    1    2    0    0  0.23018485461E+00 -0.61542708236E+00  0.53395339584E+02  0.53916165952E+02  0.74470750000E+01 0.  1.
<mgrwt>
<rscale>  0 0.15038578E+02</rscale>
<asrwt>0</asrwt>
<pdfrwt beam="1">  1        2 0.99769504E+00 0.15038578E+02</pdfrwt>
<pdfrwt beam="2">  1       -2 0.99912569E+00 0.15038578E+02</pdfrwt>
<totfact>-0.20974534E-14</totfact>
</mgrwt>
</event>
<event>
 4    1  0.5021037E-019  0.1490714E+02  0.7818608E-02  0.1870916E+00
         -2   -1    0    0    0  501 -0.00000000000E+00  0.00000000000E+00  0.11836256957E+03  0.11836256959E+03  0.25500000000E-02 0.  1.
          2   -1    0    0  501    0  0.00000000000E+00 -0.00000000000E+00 -0.46936511627E+00  0.46937204313E+00  0.25500000000E-02 0. -1.
         31    1    1    2    0    0 -0.17696645004E+00 -0.16232614278E+00  0.57370717609E+02  0.57852535225E+02  0.74470750000E+01 0. -1.
        -31    1    1    2    0    0  0.17696645004E+00  0.16232614278E+00  0.60522486841E+02  0.60979406412E+02  0.74470750000E+01 0.  1.
<mgrwt>
<rscale>  0 0.14907136E+02</rscale>
<asrwt>0</asrwt>
<pdfrwt beam="2">  1        2 0.99683296E+00 0.14907136E+02</pdfrwt>
<pdfrwt beam="1">  1       -2 0.98258564E+00 0.14907136E+02</pdfrwt>
<totfact> 0.66632416E-13</totfact>
</mgrwt>
</event>
<event>
 4    1  0.5021037E-019  0.1492187E+02  0.7818608E-02  0.1870462E+00
         -2   -1    0    0    0  501 -0.00000000000E+00  0.00000000000E+00  0.11924278413E+03  0.11924278416E+03  0.25500000000E-02 0. -1.
          2   -1    0    0  501    0  0.00000000000E+00 -0.00000000000E+00 -0.46682178444E+00  0.46682874904E+00  0.25500000000E-02 0.  1.
         31    1    1    2    0    0 -0.20968685834E+00 -0.83872985495E-01  0.56223253575E+02  0.56714761499E+02  0.74470750000E+01 0.  1.
        -31    1    1    2    0    0  0.20968685834E+00  0.83872985495E-01  0.62552708769E+02  0.62994851406E+02  0.74470750000E+01 0. -1.
<mgrwt>
<rscale>  0 0.14921870E+02</rscale>
<asrwt>0</asrwt>
<pdfrwt beam="2">  1        2 0.99148151E+00 0.14921870E+02</pdfrwt>
<pdfrwt beam="1">  1       -2 0.98984284E+00 0.14921870E+02</pdfrwt>
<totfact> 0.23055570E-14</totfact>
</mgrwt>
</event>
<event>
 4    1 -0.5021037E-019  0.1490805E+02  0.7818608E-02  0.1870887E+00
         -2   -1    0    0    0  501 -0.00000000000E+00  0.00000000000E+00  0.12014028051E+03  0.12014028053E+03  0.25500000000E-02 0.  1.
          2   -1    0    0  501    0  0.00000000000E+00 -0.00000000000E+00 -0.46247663613E+00  0.46248366616E+00  0.25500000000E-02 0. -1.
         31    1    1    2    0    0 -0.19094600075E+00  0.10490414293E+00  0.61755120495E+02  0.62202904262E+02  0.74470750000E+01 0.  1.
        -31    1    1    2    0    0  0.19094600075E+00 -0.10490414293E+00  0.57922683375E+02  0.58399859937E+02  0.74470750000E+01 0. -1.
<mgrwt>
<rscale>  0 0.14908051E+02</rscale>
<asrwt>0</asrwt>
<pdfrwt beam="2">  1        2 0.98231700E+00 0.14908051E+02</pdfrwt>
<pdfrwt beam="1">  1       -2 0.99722804E+00 0.14908051E+02</pdfrwt>
<totfact>-0.41289386E-13</totfact>
</mgrwt>
</event>
<event>
 4    1 -0.5021037E-019  0.1491007E+02  0.7818608E-02  0.1870825E+00
         -2   -1    0    0    0  501 -0.00000000000E+00  0.00000000000E+00  0.12031474248E+03  0.12031474251E+03  0.25500000000E-02 0.  1.
          2   -1    0    0  501    0  0.00000000000E+00 -0.00000000000E+00 -0.46193113463E+00  0.46193817296E+00  0.25500000000E-02 0. -1.
         31    1    1    2    0    0  0.29023252438E+00  0.15591542989E+00  0.59113074069E+02  0.59581230236E+02  0.74470750000E+01 0.  1.
        -31    1    1    2    0    0 -0.29023252438E+00 -0.15591542989E+00  0.60739737281E+02  0.61195450448E+02  0.74470750000E+01 0.  1.
<mgrwt>
<rscale>  0 0.14910071E+02</rscale>
<asrwt>0</asrwt>
<pdfrwt beam="2">  1        2 0.98116824E+00 0.14910071E+02</pdfrwt>
<pdfrwt beam="1">  1       -2 0.99866610E+00 0.14910071E+02</pdfrwt>
<totfact>-0.27797388E-13</totfact>
</mgrwt>
</event>
<event>
 4    1 -0.5021037E-019  0.1501990E+02  0.7818608E-02  0.1867462E+00
          2   -1    0    0  501    0  0.00000000000E+00  0.00000000000E+00  0.12032323324E+03  0.12032323327E+03  0.25500000000E-02 0. -1.
         -2   -1    0    0    0  501 -0.00000000000E+00 -0.00000000000E+00 -0.46872838505E+00  0.46873532132E+00  0.25500000000E-02 0.  1.
         31    1    1    2    0    0  0.87929392122E+00 -0.29440878880E+00  0.57644435246E+02  0.58130884005E+02  0.74470750000E+01 0.  1.
        -31    1    1    2    0    0 -0.87929392122E+00  0.29440878880E+00  0.62210069609E+02  0.62661084583E+02  0.74470750000E+01 0. -1.
<mgrwt>
<rscale>  0 0.15019898E+02</rscale>
<asrwt>0</asrwt>
<pdfrwt beam="1">  1        2 0.99879251E+00 0.15019898E+02</pdfrwt>
<pdfrwt beam="2">  1       -2 0.99555002E+00 0.15019898E+02</pdfrwt>
<totfact>-0.42132871E-14</totfact>
</mgrwt>
</event>
<event>
 4    1 -0.5021037E-019  0.1501246E+02  0.7818608E-02  0.1867689E+00
          2   -1    0    0  501    0  0.00000000000E+00  0.00000000000E+00  0.11973908095E+03  0.11973908098E+03  0.25500000000E-02 0. -1.
         -2   -1    0    0    0  501 -0.00000000000E+00 -0.00000000000E+00 -0.47054849503E+00  0.47055540447E+00  0.25500000000E-02 0.  1.
         31    1    1    2    0    0 -0.98703794369E-01  0.93410608304E+00  0.60013122935E+02  0.60480708884E+02  0.74470750000E+01 0. -1.
        -31    1    1    2    0    0  0.98703794369E-01 -0.93410608304E+00  0.59255409522E+02  0.59728927500E+02  0.74470750000E+01 0.  1.
<mgrwt>
<rscale>  0 0.15012456E+02</rscale>
<asrwt>0</asrwt>
<pdfrwt beam="1">  1        2 0.99397738E+00 0.15012456E+02</pdfrwt>
<pdfrwt beam="2">  1       -2 0.99938171E+00 0.15012456E+02</pdfrwt>
<totfact>-0.27135202E-14</totfact>
</mgrwt>
</event>
<event>
 4    1  0.5021037E-019  0.1489907E+02  0.7818608E-02  0.1871164E+00
          2   -1    0    0  501    0  0.00000000000E+00  0.00000000000E+00  0.11930135652E+03  0.11930135655E+03  0.25500000000E-02 0. -1.
         -2   -1    0    0    0  501 -0.00000000000E+00 -0.00000000000E+00 -0.46516755132E+00  0.46517454069E+00  0.25500000000E-02 0.  1.
         31    1    1    2    0    0  0.18266586698E+00  0.55409522069E-01  0.59311157841E+02  0.59777159581E+02  0.74470750000E+01 0. -1.
        -31    1    1    2    0    0 -0.18266586698E+00 -0.55409522069E-01  0.59525031128E+02  0.59989371507E+02  0.74470750000E+01 0. -1.
<mgrwt>
<rscale>  0 0.14899066E+02</rscale>
<asrwt>0</asrwt>
<pdfrwt beam="1">  1        2 0.99031348E+00 0.14899066E+02</pdfrwt>
<pdfrwt beam="2">  1       -2 0.98798368E+00 0.14899066E+02</pdfrwt>
<totfact> 0.22206919E-13</totfact>
</mgrwt>
</event>
<event>
 4    1  0.5021037E-019  0.1492867E+02  0.7818608E-02  0.1870253E+00
         -2   -1    0    0    0  501 -0.00000000000E+00  0.00000000000E+00  0.11872759937E+03  0.11872759940E+03  0.25500000000E-02 0. -1.
          2   -1    0    0  501    0  0.00000000000E+00 -0.00000000000E+00 -0.46927468783E+00  0.46928161603E+00  0.25500000000E-02 0.  1.
         31    1    1    2    0    0 -0.50165565049E+00  0.11049657929E-02  0.58527091564E+02  0.59001110435E+02  0.74470750000E+01 0. -1.
        -31    1    1    2    0    0  0.50165565049E+00 -0.11049657929E-02  0.59731233121E+02  0.60195770581E+02  0.74470750000E+01 0. -1.
<mgrwt>
<rscale>  0 0.14928667E+02</rscale>
<asrwt>0</asrwt>
<pdfrwt beam="2">  1        2 0.99665377E+00 0.14928667E+02</pdfrwt>
<pdfrwt beam="1">  1       -2 0.98560321E+00 0.14928667E+02</pdfrwt>
<totfact> 0.32156723E-13</totfact>
</mgrwt>
</event>
<event>
 4    1  0.5021037E-019  0.1489687E+02  0.7818608E-02  0.1871232E+00
         -2   -1    0    0    0  501 -0.00000000000E+00  0.00000000000E+00  0.11821775004E+03  0.11821775007E+03  0.25500000000E-02 0.  1.
          2   -1    0    0  501    0  0.00000000000E+00 -0.00000000000E+00 -0.46929312937E+00  0.46930005729E+00  0.25500000000E-02 0. -1.
         31    1    1    2    0    0 -0.56431862856E-01 -0.88875047517E-01  0.58110816544E+02  0.58586150315E+02  0.74470750000E+01 0. -1.
        -31    1    1    2    0    0  0.56431862856E-01  0.88875047517E-01  0.59637640369E+02  0.60100899812E+02  0.74470750000E+01 0.  1.
<mgrwt>
<rscale>  0 0.14896871E+02</rscale>
<asrwt>0</asrwt>
<pdfrwt beam="2">  1        2 0.99667586E+00 0.14896871E+02</pdfrwt>
<pdfrwt beam="1">  1       -2 0.98138757E+00 0.14896871E+02</pdfrwt>
<totfact> 0.87273520E-13</totfact>
</mgrwt>
</event>
<event>
 4    1 -0.5021037E-019  0.1491861E+02  0.7818608E-02  0.1870562E+00
         -2   -1    0    0    0  501 -0.00000000000E+00  0.00000000000E+00  0.12032567148E+03  0.12032567151E+03  0.25500000000E-02 0.  1.
          2   -1    0    0  501    0  0.00000000000E+00 -0.00000000000E+00 -0.46241832108E+00  0.46242535199E+00  0.25500000000E-02 0. -1.
         31    1    1    2    0    0 -0.29396336112E+00 -0.94012192195E-01  0.57542928049E+02  0.58023639556E+02  0.74470750000E+01 0. -1.
        -31    1    1    2    0    0  0.29396336112E+00  0.94012192195E-01  0.62320325108E+02  0.62764457301E+02  0.74470750000E+01 0.  1.
<mgrwt>
<rscale>  0 0.14918609E+02</rscale>
<asrwt>0</asrwt>
<pdfrwt beam="2">  1        2 0.98219942E+00 0.14918609E+02</pdfrwt>
<pdfrwt beam="1">  1       -2 0.99876050E+00 0.14918609E+02</pdfrwt>
<totfact>-0.21892778E-13</totfact>
</mgrwt>
</event>
<event>
 4    1  0.5021037E-019  0.1492810E+02  0.7818608E-02  0.1870271E+00
          2   -1    0    0  501    0  0.00000000000E+00  0.00000000000E+00  0.12008111639E+03  0.12008111642E+03  0.25500000000E-02 0. -1.
         -2   -1    0    0    0  501 -0.00000000000E+00 -0.00000000000E+00 -0.46394958017E+00  0.46395658788E+00  0.25500000000E-02 0.  1.
         31    1    1    2    0    0 -0.39871279194E+00 -0.72835999204E-01  0.57402212418E+02  0.57884688765E+02  0.74470750000E+01 0.  1.
        -31    1    1    2    0    0  0.39871279194E+00  0.72835999204E-01  0.62214954396E+02  0.62660384243E+02  0.74470750000E+01 0. -1.
<mgrwt>
<rscale>  0 0.14928095E+02</rscale>
<asrwt>0</asrwt>
<pdfrwt beam="1">  1        2 0.99675100E+00 0.14928095E+02</pdfrwt>
<pdfrwt beam="2">  1       -2 0.98543164E+00 0.14928095E+02</pdfrwt>
<totfact> 0.33257267E-13</totfact>
</mgrwt>
</event>
<event>
 4    1 -0.5021037E-019  0.1489931E+02  0.7818608E-02  0.1871157E+00
         -2   -1    0    0    0  501 -0.00000000000E+00  0.00000000000E+00  0.12005763664E+03  0.12005763667E+03  0.25500000000E-02 0. -1.
          2   -1    0    0  501    0  0.00000000000E+00 -0.00000000000E+00 -0.46225226916E+00  0.46225930260E+00  0.25500000000E-02 0.  1.
         31    1    1    2    0    0 -0.54969872301E-01 -0.10385552706E+00  0.58528815144E+02  0.59000804536E+02  0.74470750000E+01 0.  1.
        -31    1    1    2    0    0  0.54969872301E-01  0.10385552706E+00  0.61066569228E+02  0.61519091435E+02  0.74470750000E+01 0. -1.
<mgrwt>
<rscale>  0 0.14899307E+02</rscale>
<asrwt>0</asrwt>
<pdfrwt beam="2">  1        2 0.98183968E+00 0.14899307E+02</pdfrwt>
<pdfrwt beam="1">  1       -2 0.99654282E+00 0.14899307E+02</pdfrwt>
<totfact>-0.51420881E-13</totfact>
</mgrwt>
</event>
<event>
 4    1 -0.5021037E-019  0.1499944E+02  0.7818608E-02  0.1868086E+00
         -2   -1    0    0    0  501 -0.00000000000E+00  0.00000000000E+00  0.12019473144E+03  0.12019473147E+03  0.25500000000E-02 0. -1.
          2   -1    0    0  501    0  0.00000000000E+00 -0.00000000000E+00 -0.46795183847E+00  0.46795878625E+00  0.25500000000E-02 0.  1.
         31    1    1    2    0    0  0.66402206249E+00  0.99654895173E-01  0.55200476682E+02  0.55704599526E+02  0.74470750000E+01 0.  1.
        -31    1    1    2    0    0 -0.66402206249E+00 -0.99654895173E-01  0.64526302925E+02  0.64958090732E+02  0.74470750000E+01 0. -1.
<mgrwt>
<rscale>  0 0.14999436E+02</rscale>
<asrwt>0</asrwt>
<pdfrwt beam="2">  1        2 0.99390298E+00 0.14999436E+02</pdfrwt>
<pdfrwt beam="1">  1       -2 0.99772355E+00 0.14999436E+02</pdfrwt>
<totfact>-0.86645233E-14</totfact>
</mgrwt>
</event>
<event>
 4    1  0.5021037E-019  0.1492494E+02  0.7818608E-02  0.1870368E+00
         -2   -1    0    0    0  501 -0.00000000000E+00  0.00000000000E+00  0.11919459896E+03  0.11919459899E+03  0.25500000000E-02 0. -1.
          2   -1    0    0  501    0  0.00000000000E+00 -0.00000000000E+00 -0.46720289526E+00  0.46720985418E+00  0.25500000000E-02 0.  1.
         31    1    1    2    0    0  0.26780918379E+00 -0.37989754106E+00  0.60295592730E+02  0.60755522157E+02  0.74470750000E+01 0.  1.
        -31    1    1    2    0    0 -0.26780918379E+00  0.37989754106E+00  0.58431803337E+02  0.58906286686E+02  0.74470750000E+01 0.  1.
<mgrwt>
<rscale>  0 0.14924943E+02</rscale>
<asrwt>0</asrwt>
<pdfrwt beam="2">  1        2 0.99228621E+00 0.14924943E+02</pdfrwt>
<pdfrwt beam="1">  1       -2 0.98944756E+00 0.14924943E+02</pdfrwt>
<totfact> 0.52172816E-14</totfact>
</mgrwt>
</event>
<event>
 4    1  0.5021037E-019  0.1491469E+02  0.7818608E-02  0.1870683E+00
         -2   -1    0    0    0  501 -0.00000000000E+00  0.00000000000E+00  0.11886748150E+03  0.11886748153E+03  0.25500000000E-02 0. -1.
          2   -1    0    0  501    0  0.00000000000E+00 -0.00000000000E+00 -0.46784496382E+00  0.46785191319E+00  0.25500000000E-02 0.  1.
         31    1    1    2    0    0 -0.37822143158E+00 -0.93727712795E-01  0.58921901970E+02  0.59391929537E+02  0.74470750000E+01 0. -1.
        -31    1    1    2    0    0  0.37822143158E+00  0.93727712795E-01  0.59477734564E+02  0.59943403901E+02  0.74470750000E+01 0.  1.
<mgrwt>
<rscale>  0 0.14914687E+02</rscale>
<asrwt>0</asrwt>
<pdfrwt beam="2">  1        2 0.99363385E+00 0.14914687E+02</pdfrwt>
<pdfrwt beam="1">  1       -2 0.98674803E+00 0.14914687E+02</pdfrwt>
<totfact> 0.30662154E-13</totfact>
</mgrwt>
</event>
<event>
 4    1  0.5021037E-019  0.1493912E+02  0.7818608E-02  0.1869932E+00
         -2   -1    0    0    0  501 -0.00000000000E+00  0.00000000000E+00  0.11877077688E+03  0.11877077690E+03  0.25500000000E-02 0. -1.
          2   -1    0    0  501    0  0.00000000000E+00 -0.00000000000E+00 -0.46976143626E+00  0.46976835728E+00  0.25500000000E-02 0.  1.
         31    1    1    2    0    0 -0.46679924460E+00 -0.16714276357E+00  0.61539452429E+02  0.61990394172E+02  0.74470750000E+01 0. -1.
        -31    1    1    2    0    0  0.46679924460E+00  0.16714276357E+00  0.56761563011E+02  0.57250151089E+02  0.74470750000E+01 0.  1.
<mgrwt>
<rscale>  0 0.14939122E+02</rscale>
<asrwt>0</asrwt>
<pdfrwt beam="2">  1        2 0.99768487E+00 0.14939122E+02</pdfrwt>
<pdfrwt beam="1">  1       -2 0.98596426E+00 0.14939122E+02</pdfrwt>
<totfact> 0.22162973E-13</totfact>
</mgrwt>
</event>
<event>
 4    1  0.5021037E-019  0.1491435E+02  0.7818608E-02  0.1870693E+00
          2   -1    0    0  501    0  0.00000000000E+00  0.00000000000E+00  0.11954786232E+03  0.11954786234E+03  0.25500000000E-02 0. -1.
         -2   -1    0    0    0  501 -0.00000000000E+00 -0.00000000000E+00 -0.46516149331E+00  0.46516848277E+00  0.25500000000E-02 0.  1.
         31    1    1    2    0    0  0.20218239100E-01  0.37987017147E+00  0.60156656691E+02  0.60617051895E+02  0.74470750000E+01 0. -1.
        -31    1    1    2    0    0 -0.20218239100E-01 -0.37987017147E+00  0.58926044131E+02  0.59395978931E+02  0.74470750000E+01 0. -1.
<mgrwt>
<rscale>  0 0.14914353E+02</rscale>
<asrwt>0</asrwt>
<pdfrwt beam="1">  1        2 0.99235171E+00 0.14914353E+02</pdfrwt>
<pdfrwt beam="2">  1       -2 0.98797877E+00 0.14914353E+02</pdfrwt>
<totfact> 0.18941892E-13</totfact>
</mgrwt>
</event>
<event>
 4    1 -0.5021037E-019  0.1497825E+02  0.7818608E-02  0.1868733E+00
          2   -1    0    0  501    0  0.00000000000E+00  0.00000000000E+00  0.12009537047E+03  0.12009537050E+03  0.25500000000E-02 0. -1.
         -2   -1    0    0    0  501 -0.00000000000E+00 -0.00000000000E+00 -0.46701723101E+00  0.46702419269E+00  0.25500000000E-02 0.  1.
         31    1    1    2    0    0  0.56195811511E+00  0.55778707205E+00  0.59537764534E+02  0.60006926726E+02  0.74470750000E+01 0. -1.
        -31    1    1    2    0    0 -0.56195811511E+00 -0.55778707205E+00  0.60090588706E+02  0.60555467965E+02  0.74470750000E+01 0.  1.
<mgrwt>
<rscale>  0 0.14978255E+02</rscale>
<asrwt>0</asrwt>
<pdfrwt beam="1">  1        2 0.99689423E+00 0.14978255E+02</pdfrwt>
<pdfrwt beam="2">  1       -2 0.99192246E+00 0.14978255E+02</pdfrwt>
<totfact>-0.57679369E-14</totfact>
</mgrwt>
</event>
<event>
 4    1 -0.5021037E-019  0.1497195E+02  0.7818608E-02  0.1868926E+00
         -2   -1    0    0    0  501 -0.00000000000E+00  0.00000000000E+00  0.11986336988E+03  0.11986336991E+03  0.25500000000E-02 0.  1.
          2   -1    0    0  501    0  0.00000000000E+00 -0.00000000000E+00 -0.46752763156E+00  0.46753458565E+00  0.25500000000E-02 0. -1.
         31    1    1    2    0    0 -0.60995450858E+00  0.16340587365E+00  0.56267436443E+02  0.56761625029E+02  0.74470750000E+01 0. -1.
        -31    1    1    2    0    0  0.60995450858E+00 -0.16340587365E+00  0.63128405804E+02  0.63569279462E+02  0.74470750000E+01 0.  1.
<mgrwt>
<rscale>  0 0.14971955E+02</rscale>
<asrwt>0</asrwt>
<pdfrwt beam="2">  1        2 0.99299485E+00 0.14971955E+02</pdfrwt>
<pdfrwt beam="1">  1       -2 0.99498011E+00 0.14971955E+02</pdfrwt>
<totfact>-0.14094503E-13</totfact>
</mgrwt>
</event>
<event>
 4    1  0.5021037E-019  0.1491427E+02  0.7818608E-02  0.1870696E+00
          2   -1    0    0  501    0  0.00000000000E+00  0.00000000000E+00  0.11991450669E+03  0.11991450671E+03  0.25500000000E-02 0. -1.
         -2   -1    0    0    0  501 -0.00000000000E+00 -0.00000000000E+00 -0.46373387764E+00  0.46374088861E+00  0.25500000000E-02 0.  1.
         31    1    1    2    0    0  0.73482362242E-02 -0.37338782975E+00  0.60550255432E+02  0.61007637484E+02  0.74470750000E+01 0. -1.
        -31    1    1    2    0    0 -0.73482362242E-02  0.37338782975E+00  0.58900517376E+02  0.59370610117E+02  0.74470750000E+01 0.  1.
<mgrwt>
<rscale>  0 0.14914267E+02</rscale>
<asrwt>0</asrwt>
<pdfrwt beam="1">  1        2 0.99537158E+00 0.14914267E+02</pdfrwt>
<pdfrwt beam="2">  1       -2 0.98496999E+00 0.14914267E+02</pdfrwt>
<totfact> 0.46944659E-13</totfact>
</mgrwt>
</event>
<event>
 4    1 -0.5021037E-019  0.1493260E+02  0.7818608E-02  0.1870132E+00
         -2   -1    0    0    0  501 -0.00000000000E+00  0.00000000000E+00  0.12004429555E+03  0.12004429557E+03  0.25500000000E-02 0.  1.
          2   -1    0    0  501    0  0.00000000000E+00 -0.00000000000E+00 -0.46437202679E+00  0.46437902813E+00  0.25500000000E-02 0. -1.
         31    1    1    2    0    0  0.21505910787E+00  0.29801495758E+00  0.56647285195E+02  0.57135881103E+02  0.74470750000E+01 0. -1.
        -31    1    1    2    0    0 -0.21505910787E+00 -0.29801495758E+00  0.62932638324E+02  0.63372793499E+02  0.74470750000E+01 0.  1.
<mgrwt>
<rscale>  0 0.14932600E+02</rscale>
<asrwt>0</asrwt>
<pdfrwt beam="2">  1        2 0.98632428E+00 0.14932600E+02</pdfrwt>
<pdfrwt beam="1">  1       -2 0.99645004E+00 0.14932600E+02</pdfrwt>
<totfact>-0.24980583E-13</totfact>
</mgrwt>
</event>
<event>
 4    1 -0.5021037E-019  0.1493760E+02  0.7818608E-02  0.1869979E+00
         -2   -1    0    0    0  501 -0.00000000000E+00  0.00000000000E+00  0.11976619282E+03  0.11976619285E+03  0.25500000000E-02 0. -1.
          2   -1    0    0  501    0  0.00000000000E+00 -0.00000000000E+00 -0.46576214801E+00  0.46576912845E+00  0.25500000000E-02 0.  1.
         31    1    1    2    0    0 -0.14827220391E+00 -0.46339431378E+00  0.57271543714E+02  0.57755738800E+02  0.74470750000E+01 0.  1.
        -31    1    1    2    0    0  0.14827220391E+00  0.46339431378E+00  0.62028886956E+02  0.62476223174E+02  0.74470750000E+01 0. -1.
<mgrwt>
<rscale>  0 0.14937601E+02</rscale>
<asrwt>0</asrwt>
<pdfrwt beam="2">  1        2 0.98925656E+00 0.14937601E+02</pdfrwt>
<pdfrwt beam="1">  1       -2 0.99416198E+00 0.14937601E+02</pdfrwt>
<totfact>-0.19022273E-13</totfact>
</mgrwt>
</event>
<event>
 4    1  0.5021037E-019  0.1491070E+02  0.7818608E-02  0.1870806E+00
          2   -1    0    0  501    0  0.00000000000E+00  0.00000000000E+00  0.12032877388E+03  0.12032877390E+03  0.25500000000E-02 0.  1.
         -2   -1    0    0    0  501 -0.00000000000E+00 -0.00000000000E+00 -0.46191648640E+00  0.46192352495E+00  0.25500000000E-02 0. -1.
         31    1    1    2    0    0 -0.28293363860E+00  0.11513298668E+00  0.58529415050E+02  0.59002073347E+02  0.74470750000E+01 0. -1.
        -31    1    1    2    0    0  0.28293363860E+00 -0.11513298668E+00  0.61337442340E+02  0.61788624082E+02  0.74470750000E+01 0.  1.
<mgrwt>
<rscale>  0 0.14910704E+02</rscale>
<asrwt>0</asrwt>
<pdfrwt beam="1">  1        2 0.99878200E+00 0.14910704E+02</pdfrwt>
<pdfrwt beam="2">  1       -2 0.98113769E+00 0.14910704E+02</pdfrwt>
<totfact> 0.42225498E-13</totfact>
</mgrwt>
</event>
<event>
 4    1  0.5021037E-019  0.1494672E+02  0.7818608E-02  0.1869699E+00
          2   -1    0    0  501    0  0.00000000000E+00  0.00000000000E+00  0.12031432702E+03  0.12031432704E+03  0.25500000000E-02 0. -1.
         -2   -1    0    0    0  501 -0.00000000000E+00 -0.00000000000E+00 -0.46420638290E+00  0.46421338674E+00  0.25500000000E-02 0.  1.
         31    1    1    2    0    0  0.12386315184E+00  0.36843069524E+00  0.55957377443E+02  0.56452086761E+02  0.74470750000E+01 0.  1.
        -31    1    1    2    0    0 -0.12386315184E+00 -0.36843069524E+00  0.63892743192E+02  0.64326453671E+02  0.74470750000E+01 0. -1.
<mgrwt>
<rscale>  0 0.14946719E+02</rscale>
<asrwt>0</asrwt>
<pdfrwt beam="1">  1        2 0.99868148E+00 0.14946719E+02</pdfrwt>
<pdfrwt beam="2">  1       -2 0.98598234E+00 0.14946719E+02</pdfrwt>
<totfact> 0.14009472E-13</totfact>
</mgrwt>
</event>
<event>
 4    1 -0.5021037E-019  0.1490557E+02  0.7818608E-02  0.1870964E+00
          2   -1    0    0  501    0  0.00000000000E+00  0.00000000000E+00  0.11832597809E+03  0.11832597812E+03  0.25500000000E-02 0.  1.
         -2   -1    0    0    0  501 -0.00000000000E+00 -0.00000000000E+00 -0.46941137330E+00  0.46941829947E+00  0.25500000000E-02 0. -1.
         31    1    1    2    0    0 -0.14269263284E+00 -0.14274288542E+00  0.57250628354E+02  0.57733301566E+02  0.74470750000E+01 0. -1.
        -31    1    1    2    0    0  0.14269263284E+00  0.14274288542E+00  0.60605938365E+02  0.61062094854E+02  0.74470750000E+01 0.  1.
<mgrwt>
<rscale>  0 0.14905566E+02</rscale>
<asrwt>0</asrwt>
<pdfrwt beam="1">  1        2 0.98228345E+00 0.14905566E+02</pdfrwt>
<pdfrwt beam="2">  1       -2 0.99692959E+00 0.14905566E+02</pdfrwt>
<totfact>-0.44438164E-13</totfact>
</mgrwt>
</event>
<event>
 4    1  0.5021037E-019  0.1493243E+02  0.7818608E-02  0.1870138E+00
          2   -1    0    0  501    0  0.00000000000E+00  0.00000000000E+00  0.12025419468E+03  0.12025419471E+03  0.25500000000E-02 0.  1.
         -2   -1    0    0    0  501 -0.00000000000E+00 -0.00000000000E+00 -0.46355075241E+00  0.46355776615E+00  0.25500000000E-02 0. -1.
         31    1    1    2    0    0  0.34751625360E+00 -0.32709645994E+00  0.57954058608E+02  0.58432521722E+02  0.74470750000E+01 0. -1.
        -31    1    1    2    0    0 -0.34751625360E+00  0.32709645994E+00  0.61836585322E+02  0.62285230753E+02  0.74470750000E+01 0.  1.
<mgrwt>
<rscale>  0 0.14932427E+02</rscale>
<asrwt>0</asrwt>
<pdfrwt beam="1">  1        2 0.99817884E+00 0.14932427E+02</pdfrwt>
<pdfrwt beam="2">  1       -2 0.98459324E+00 0.14932427E+02</pdfrwt>
<totfact> 0.27653021E-13</totfact>
</mgrwt>
</event>
<event>
 4    1  0.5021037E-019  0.1490792E+02  0.7818608E-02  0.1870892E+00
          2   -1    0    0  501    0  0.00000000000E+00  0.00000000000E+00  0.11999024648E+03  0.11999024651E+03  0.25500000000E-02 0. -1.
         -2   -1    0    0    0  501 -0.00000000000E+00 -0.00000000000E+00 -0.46304653826E+00  0.46305355964E+00  0.25500000000E-02 0.  1.
         31    1    1    2    0    0  0.28789184579E+00 -0.13941916178E+00  0.59636540634E+02  0.60100567587E+02  0.74470750000E+01 0. -1.
        -31    1    1    2    0    0 -0.28789184579E+00  0.13941916178E+00  0.59890659310E+02  0.60352732482E+02  0.74470750000E+01 0.  1.
<mgrwt>
<rscale>  0 0.14907916E+02</rscale>
<asrwt>0</asrwt>
<pdfrwt beam="1">  1        2 0.99599216E+00 0.14907916E+02</pdfrwt>
<pdfrwt beam="2">  1       -2 0.98351811E+00 0.14907916E+02</pdfrwt>
<totfact> 0.62742852E-13</totfact>
</mgrwt>
</event>
<event>
 4    1  0.5021037E-019  0.1494534E+02  0.7818608E-02  0.1869741E+00
         -2   -1    0    0    0  501 -0.00000000000E+00  0.00000000000E+00  0.11904779869E+03  0.11904779872E+03  0.25500000000E-02 0.  1.
          2   -1    0    0  501    0  0.00000000000E+00 -0.00000000000E+00 -0.46905853704E+00  0.46906546843E+00  0.25500000000E-02 0. -1.
         31    1    1    2    0    0  0.55856303938E+00  0.62989645909E-01  0.61342506706E+02  0.61795453032E+02  0.74470750000E+01 0.  1.
        -31    1    1    2    0    0 -0.55856303938E+00 -0.62989645909E-01  0.57236233450E+02  0.57721411157E+02  0.74470750000E+01 0.  1.
<mgrwt>
<rscale>  0 0.14945341E+02</rscale>
<asrwt>0</asrwt>
<pdfrwt beam="2">  1        2 0.99620706E+00 0.14945341E+02</pdfrwt>
<pdfrwt beam="1">  1       -2 0.98824905E+00 0.14945341E+02</pdfrwt>
<totfact> 0.11167535E-13</totfact>
</mgrwt>
</event>
<event>
 4    1  0.5021037E-019  0.1490134E+02  0.7818608E-02  0.1871094E+00
          2   -1    0    0  501    0  0.00000000000E+00  0.00000000000E+00  0.12004018498E+03  0.12004018500E+03  0.25500000000E-02 0. -1.
         -2   -1    0    0    0  501 -0.00000000000E+00 -0.00000000000E+00 -0.46244540503E+00  0.46245243553E+00  0.25500000000E-02 0.  1.
         31    1    1    2    0    0 -0.15834915027E+00  0.12930374190E+00  0.58912769128E+02  0.59381942426E+02  0.74470750000E+01 0.  1.
        -31    1    1    2    0    0  0.15834915027E+00 -0.12930374190E+00  0.60664970443E+02  0.61120695012E+02  0.74470750000E+01 0. -1.
<mgrwt>
<rscale>  0 0.14901336E+02</rscale>
<asrwt>0</asrwt>
<pdfrwt beam="1">  1        2 0.99640012E+00 0.14901336E+02</pdfrwt>
<pdfrwt beam="2">  1       -2 0.98224778E+00 0.14901336E+02</pdfrwt>
<totfact> 0.77545614E-13</totfact>
</mgrwt>
</event>
<event>
 4    1 -0.5021037E-019  0.1503227E+02  0.7818608E-02  0.1867085E+00
         -2   -1    0    0    0  501 -0.00000000000E+00  0.00000000000E+00  0.12020484224E+03  0.12020484227E+03  0.25500000000E-02 0.  1.
          2   -1    0    0  501    0  0.00000000000E+00 -0.00000000000E+00 -0.46996333236E+00  0.46997025040E+00  0.25500000000E-02 0. -1.
         31    1    1    2    0    0  0.30085292687E+00 -0.94862256873E+00  0.61531404508E+02  0.61988410723E+02  0.74470750000E+01 0.  1.
        -31    1    1    2    0    0 -0.30085292687E+00  0.94862256873E+00  0.58203474404E+02  0.58686401798E+02  0.74470750000E+01 0. -1.
<mgrwt>
<rscale>  0 0.15032270E+02</rscale>
<asrwt>0</asrwt>
<pdfrwt beam="2">  1        2 0.99815890E+00 0.15032270E+02</pdfrwt>
<pdfrwt beam="1">  1       -2 0.99782378E+00 0.15032270E+02</pdfrwt>
<totfact>-0.39011440E-14</totfact>
</mgrwt>
</event>
<event>
 4    1 -0.5021037E-019  0.1497565E+02  0.7818608E-02  0.1868812E+00
          2   -1    0    0  501    0  0.00000000000E+00  0.00000000000E+00  0.11997173661E+03  0.11997173664E+03  0.25500000000E-02 0.  1.
         -2   -1    0    0    0  501 -0.00000000000E+00 -0.00000000000E+00 -0.46733587072E+00  0.46734282766E+00  0.25500000000E-02 0. -1.
         31    1    1    2    0    0 -0.64614723599E+00  0.32966482437E+00  0.62060857890E+02  0.62510280700E+02  0.74470750000E+01 0.  1.
        -31    1    1    2    0    0  0.64614723599E+00 -0.32966482437E+00  0.57443542850E+02  0.57928798765E+02  0.74470750000E+01 0. -1.
<mgrwt>
<rscale>  0 0.14975649E+02</rscale>
<asrwt>0</asrwt>
<pdfrwt beam="1">  1        2 0.99587458E+00 0.14975649E+02</pdfrwt>
<pdfrwt beam="2">  1       -2 0.99259264E+00 0.14975649E+02</pdfrwt>
<totfact>-0.85434112E-14</totfact>
</mgrwt>
</event>
<event>
 4    1  0.5021037E-019  0.1490606E+02  0.7818608E-02  0.1870949E+00
          2   -1    0    0  501    0  0.00000000000E+00  0.00000000000E+00  0.12023486214E+03  0.12023486217E+03  0.25500000000E-02 0.  1.
         -2   -1    0    0    0  501 -0.00000000000E+00 -0.00000000000E+00 -0.46198941259E+00  0.46199645004E+00  0.25500000000E-02 0. -1.
         31    1    1    2    0    0 -0.18155864946E+00  0.22997850821E+00  0.59451900452E+02  0.59917219954E+02  0.74470750000E+01 0. -1.
        -31    1    1    2    0    0  0.18155864946E+00 -0.22997850821E+00  0.60320972278E+02  0.60779638665E+02  0.74470750000E+01 0.  1.
<mgrwt>
<rscale>  0 0.14906060E+02</rscale>
<asrwt>0</asrwt>
<pdfrwt beam="1">  1        2 0.99800607E+00 0.14906060E+02</pdfrwt>
<pdfrwt beam="2">  1       -2 0.98128906E+00 0.14906060E+02</pdfrwt>
<totfact> 0.61672724E-13</totfact>
</mgrwt>
</event>
<event>
 4    1 -0.5021037E-019  0.1497050E+02  0.7818608E-02  0.1868970E+00
          2   -1    0    0  501    0  0.00000000000E+00  0.00000000000E+00  0.11933400028E+03  0.11933400030E+03  0.25500000000E-02 0.  1.
         -2   -1    0    0    0  501 -0.00000000000E+00 -0.00000000000E+00 -0.46951052413E+00  0.46951744885E+00  0.25500000000E-02 0. -1.
         31    1    1    2    0    0  0.59763284133E+00 -0.45942811228E+00  0.59773667110E+02  0.60240505020E+02  0.74470750000E+01 0. -1.
        -31    1    1    2    0    0 -0.59763284133E+00  0.45942811228E+00  0.59090822641E+02  0.59563012732E+02  0.74470750000E+01 0.  1.
<mgrwt>
<rscale>  0 0.14970502E+02</rscale>
<asrwt>0</asrwt>
<pdfrwt beam="1">  1        2 0.99061931E+00 0.14970502E+02</pdfrwt>
<pdfrwt beam="2">  1       -2 0.99717262E+00 0.14970502E+02</pdfrwt>
<totfact>-0.13000601E-13</totfact>
</mgrwt>
</event>
<event>
 4    1  0.5021037E-019  0.1494658E+02  0.7818608E-02  0.1869703E+00
          2   -1    0    0  501    0  0.00000000000E+00  0.00000000000E+00  0.12032129832E+03  0.12032129834E+03  0.25500000000E-02 0.  1.
         -2   -1    0    0    0  501 -0.00000000000E+00 -0.00000000000E+00 -0.46417061734E+00  0.46417762172E+00  0.25500000000E-02 0. -1.
         31    1    1    2    0    0 -0.53011889229E+00  0.29648756219E+00  0.58725069908E+02  0.59198494006E+02  0.74470750000E+01 0.  1.
        -31    1    1    2    0    0  0.53011889229E+00 -0.29648756219E+00  0.61132057790E+02  0.61586981958E+02  0.74470750000E+01 0.  1.
<mgrwt>
<rscale>  0 0.14946576E+02</rscale>
<asrwt>0</asrwt>
<pdfrwt beam="1">  1        2 0.99873882E+00 0.14946576E+02</pdfrwt>
<pdfrwt beam="2">  1       -2 0.98590688E+00 0.14946576E+02</pdfrwt>
<totfact> 0.13826949E-13</totfact>
</mgrwt>
</event>
<event>
 4    1 -0.5021037E-019  0.1491228E+02  0.7818608E-02  0.1870757E+00
          2   -1    0    0  501    0  0.00000000000E+00  0.00000000000E+00  0.11839230957E+03  0.11839230959E+03  0.25500000000E-02 0.  1.
         -2   -1    0    0    0  501 -0.00000000000E+00 -0.00000000000E+00 -0.46957102239E+00  0.46957794621E+00  0.25500000000E-02 0. -1.
         31    1    1    2    0    0  0.21371174159E+00  0.28841490136E+00  0.58332284093E+02  0.58806829105E+02  0.74470750000E+01 0. -1.
        -31    1    1    2    0    0 -0.21371174159E+00 -0.28841490136E+00  0.59590454451E+02  0.60055058434E+02  0.74470750000E+01 0.  1.
<mgrwt>
<rscale>  0 0.14912278E+02</rscale>
<asrwt>0</asrwt>
<pdfrwt beam="1">  1        2 0.98283325E+00 0.14912278E+02</pdfrwt>
<pdfrwt beam="2">  1       -2 0.99726951E+00 0.14912278E+02</pdfrwt>
<totfact>-0.37444129E-13</totfact>
</mgrwt>
</event>
<event>
 4    1 -0.5021037E-019  0.1489705E+02  0.7818608E-02  0.1871226E+00
         -2   -1    0    0    0  501 -0.00000000000E+00  0.00000000000E+00  0.12024457373E+03  0.12024457376E+03  0.25500000000E-02 0. -1.
          2   -1    0    0  501    0  0.00000000000E+00 -0.00000000000E+00 -0.46139374486E+00  0.46140079139E+00  0.25500000000E-02 0.  1.
         31    1    1    2    0    0  0.14018923187E+00  0.11253091307E-01  0.59546357527E+02  0.60010394104E+02  0.74470750000E+01 0.  1.
        -31    1    1    2    0    0 -0.14018923187E+00 -0.11253091307E-01  0.60236822458E+02  0.60695580445E+02  0.74470750000E+01 0. -1.
<mgrwt>
<rscale>  0 0.14897050E+02</rscale>
<asrwt>0</asrwt>
<pdfrwt beam="2">  1        2 0.98002899E+00 0.14897050E+02</pdfrwt>
<pdfrwt beam="1">  1       -2 0.99808145E+00 0.14897050E+02</pdfrwt>
<totfact>-0.45770325E-13</totfact>
</mgrwt>
</event>
<event>
 4    1 -0.5021037E-019  0.1496613E+02  0.7818608E-02  0.1869104E+00
          2   -1    0    0  501    0  0.00000000000E+00  0.00000000000E+00  0.11940811590E+03  0.11940811593E+03  0.25500000000E-02 0.  1.
         -2   -1    0    0    0  501 -0.00000000000E+00 -0.00000000000E+00 -0.46894487424E+00  0.46895180730E+00  0.25500000000E-02 0. -1.
         31    1    1    2    0    0 -0.79497284959E-01 -0.96510148864E-01  0.53684241496E+02  0.54198453346E+02  0.74470750000E+01 0. -1.
        -31    1    1    2    0    0  0.79497284959E-01  0.96510148864E-01  0.65254929532E+02  0.65678614391E+02  0.74470750000E+01 0.  1.
<mgrwt>
<rscale>  0 0.14966127E+02</rscale>
<asrwt>0</asrwt>
<pdfrwt beam="1">  1        2 0.99122747E+00 0.14966127E+02</pdfrwt>
<pdfrwt beam="2">  1       -2 0.99597840E+00 0.14966127E+02</pdfrwt>
<totfact>-0.15097935E-13</totfact>
</mgrwt>
</event>
<event>
 4    1  0.5021037E-019  0.1491610E+02  0.7818608E-02  0.1870640E+00
          2   -1    0    0  501    0  0.00000000000E+00  0.00000000000E+00  0.11958108129E+03  0.11958108132E+03  0.25500000000E-02 0. -1.
         -2   -1    0    0    0  501 -0.00000000000E+00 -0.00000000000E+00 -0.46514095910E+00  0.46514794886E+00  0.25500000000E-02 0.  1.
         31    1    1    2    0    0 -0.28855808870E+00  0.37827665159E-01  0.61818000153E+02  0.62265630694E+02  0.74470750000E+01 0. -1.
        -31    1    1    2    0    0  0.28855808870E+00 -0.37827665159E-01  0.57297940179E+02  0.57780598574E+02  0.74470750000E+01 0. -1.
<mgrwt>
<rscale>  0 0.14916096E+02</rscale>
<asrwt>0</asrwt>
<pdfrwt beam="1">  1        2 0.99262622E+00 0.14916096E+02</pdfrwt>
<pdfrwt beam="2">  1       -2 0.98793639E+00 0.14916096E+02</pdfrwt>
<totfact> 0.19021183E-13</totfact>
</mgrwt>
</event>
<event>
 4    1 -0.5021037E-019  0.1490554E+02  0.7818608E-02  0.1870965E+00
          2   -1    0    0  501    0  0.00000000000E+00  0.00000000000E+00  0.11838174550E+03  0.11838174553E+03  0.25500000000E-02 0.  1.
         -2   -1    0    0    0  501 -0.00000000000E+00 -0.00000000000E+00 -0.46918863634E+00  0.46919556580E+00  0.25500000000E-02 0. -1.
         31    1    1    2    0    0  0.27642498390E+00  0.91264627055E-01  0.58869994067E+02  0.59339867438E+02  0.74470750000E+01 0. -1.
        -31    1    1    2    0    0 -0.27642498390E+00 -0.91264627055E-01  0.59042562799E+02  0.59511073658E+02  0.74470750000E+01 0. -1.
<mgrwt>
<rscale>  0 0.14905540E+02</rscale>
<asrwt>0</asrwt>
<pdfrwt beam="1">  1        2 0.98274274E+00 0.14905540E+02</pdfrwt>
<pdfrwt beam="2">  1       -2 0.99646027E+00 0.14905540E+02</pdfrwt>
<totfact>-0.44718414E-13</totfact>
</mgrwt>
</event>
<event>
 4    1 -0.5021037E-019  0.1496040E+02  0.7818608E-02  0.1869279E+00
         -2   -1    0    0    0  501 -0.00000000000E+00  0.00000000000E+00  0.11999539219E+03  0.11999539222E+03  0.25500000000E-02 0. -1.
          2   -1    0    0  501    0  0.00000000000E+00 -0.00000000000E+00 -0.46629268851E+00  0.46629966101E+00  0.25500000000E-02 0.  1.
         31    1    1    2    0    0 -0.61419444621E+00  0.33481816380E+00  0.60341356018E+02  0.60803186677E+02  0.74470750000E+01 0.  1.
        -31    1    1    2    0    0  0.61419444621E+00 -0.33481816380E+00  0.59187743484E+02  0.59658505201E+02  0.74470750000E+01 0. -1.
<mgrwt>
<rscale>  0 0.14960400E+02</rscale>
<asrwt>0</asrwt>
<pdfrwt beam="2">  1        2 0.99038635E+00 0.14960400E+02</pdfrwt>
<pdfrwt beam="1">  1       -2 0.99606155E+00 0.14960400E+02</pdfrwt>
<totfact>-0.16060735E-13</totfact>
</mgrwt>
</event>
<event>
 4    1  0.5021037E-019  0.1494159E+02  0.7818608E-02  0.1869856E+00
          2   -1    0    0  501    0  0.00000000000E+00  0.00000000000E+00  0.12025264759E+03  0.12025264761E+03  0.25500000000E-02 0. -1.
         -2   -1    0    0    0  501 -0.00000000000E+00 -0.00000000000E+00 -0.46412567497E+00  0.46413268002E+00  0.25500000000E-02 0.  1.
         31    1    1    2    0    0 -0.16547492511E+00  0.47557079871E+00  0.62452846084E+02  0.62897300893E+02  0.74470750000E+01 0. -1.
        -31    1    1    2    0    0  0.16547492511E+00 -0.47557079871E+00  0.57335675829E+02  0.57819479402E+02  0.74470750000E+01 0.  1.
<mgrwt>
<rscale>  0 0.14941588E+02</rscale>
<asrwt>0</asrwt>
<pdfrwt beam="1">  1        2 0.99817080E+00 0.14941588E+02</pdfrwt>
<pdfrwt beam="2">  1       -2 0.98580963E+00 0.14941588E+02</pdfrwt>
<totfact> 0.19437344E-13</totfact>
</mgrwt>
</event>
<event>
 4    1 -0.5021037E-019  0.1496872E+02  0.7818608E-02  0.1869025E+00
         -2   -1    0    0    0  501 -0.00000000000E+00  0.00000000000E+00  0.11973108719E+03  0.11973108722E+03  0.25500000000E-02 0. -1.
          2   -1    0    0  501    0  0.00000000000E+00 -0.00000000000E+00 -0.46784185361E+00  0.46784880302E+00  0.25500000000E-02 0.  1.
         31    1    1    2    0    0  0.28590936138E+00  0.55667488458E+00  0.56369067584E+02  0.56862310342E+02  0.74470750000E+01 0.  1.
        -31    1    1    2    0    0 -0.28590936138E+00 -0.55667488458E+00  0.62894177756E+02  0.63336625682E+02  0.74470750000E+01 0.  1.
<mgrwt>
<rscale>  0 0.14968718E+02</rscale>
<asrwt>0</asrwt>
<pdfrwt beam="2">  1        2 0.99365537E+00 0.14968718E+02</pdfrwt>
<pdfrwt beam="1">  1       -2 0.99388890E+00 0.14968718E+02</pdfrwt>
<totfact>-0.13026506E-13</totfact>
</mgrwt>
</event>
<event>
 4    1 -0.5021037E-019  0.1495288E+02  0.7818608E-02  0.1869510E+00
         -2   -1    0    0    0  501 -0.00000000000E+00  0.00000000000E+00  0.11974061319E+03  0.11974061321E+03  0.25500000000E-02 0. -1.
          2   -1    0    0  501    0  0.00000000000E+00 -0.00000000000E+00 -0.46681496369E+00  0.46682192839E+00  0.25500000000E-02 0.  1.
         31    1    1    2    0    0 -0.24072488811E+00 -0.53576270009E+00  0.62091309798E+02  0.62539065140E+02  0.74470750000E+01 0. -1.
        -31    1    1    2    0    0  0.24072488811E+00  0.53576270009E+00  0.57182488425E+02  0.57668370002E+02  0.74470750000E+01 0.  1.
<mgrwt>
<rscale>  0 0.14952877E+02</rscale>
<asrwt>0</asrwt>
<pdfrwt beam="2">  1        2 0.99148315E+00 0.14952877E+02</pdfrwt>
<pdfrwt beam="1">  1       -2 0.99395918E+00 0.14952877E+02</pdfrwt>
<totfact>-0.15352711E-13</totfact>
</mgrwt>
</event>
<event>
 4    1 -0.5021037E-019  0.1491521E+02  0.7818608E-02  0.1870667E+00
         -2   -1    0    0    0  501 -0.00000000000E+00  0.00000000000E+00  0.11975557763E+03  0.11975557766E+03  0.25500000000E-02 0. -1.
          2   -1    0    0  501    0  0.00000000000E+00 -0.00000000000E+00 -0.46440783562E+00  0.46441483641E+00  0.25500000000E-02 0.  1.
         31    1    1    2    0    0 -0.35649937587E+00 -0.99654563668E-02  0.61035451989E+02  0.61489125191E+02  0.74470750000E+01 0. -1.
        -31    1    1    2    0    0  0.35649937587E+00  0.99654563668E-02  0.58255717807E+02  0.58730867305E+02  0.74470750000E+01 0. -1.
<mgrwt>
<rscale>  0 0.14915207E+02</rscale>
<asrwt>0</asrwt>
<pdfrwt beam="2">  1        2 0.98639088E+00 0.14915207E+02</pdfrwt>
<pdfrwt beam="1">  1       -2 0.99406301E+00 0.14915207E+02</pdfrwt>
<totfact>-0.27444602E-13</totfact>
</mgrwt>
</event>
<event>
 4    1  0.5021037E-019  0.1494862E+02  0.7818608E-02  0.1869640E+00
         -2   -1    0    0    0  501 -0.00000000000E+00  0.00000000000E+00  0.11882690667E+03  0.11882690669E+03  0.25500000000E-02 0. -1.
          2   -1    0    0  501    0  0.00000000000E+00 -0.00000000000E+00 -0.47013664983E+00  0.47014356532E+00  0.25500000000E-02 0.  1.
         31    1    1    2    0    0  0.27416421501E+00  0.20823672515E+00  0.54896778634E+02  0.55400665691E+02  0.74470750000E+01 0.  1.
        -31    1    1    2    0    0 -0.27416421501E+00 -0.20823672515E+00  0.63459991382E+02  0.63896384568E+02  0.74470750000E+01 0. -1.
<mgrwt>
<rscale>  0 0.14948618E+02</rscale>
<asrwt>0</asrwt>
<pdfrwt beam="2">  1        2 0.99848046E+00 0.14948618E+02</pdfrwt>
<pdfrwt beam="1">  1       -2 0.98643148E+00 0.14948618E+02</pdfrwt>
<totfact> 0.13499720E-13</totfact>
</mgrwt>
</event>
<event>
 4    1 -0.5021037E-019  0.1491991E+02  0.7818608E-02  0.1870522E+00
          2   -1    0    0  501    0  0.00000000000E+00  0.00000000000E+00  0.11867483344E+03  0.11867483347E+03  0.25500000000E-02 0.  1.
         -2   -1    0    0    0  501 -0.00000000000E+00 -0.00000000000E+00 -0.46893303682E+00  0.46893997007E+00  0.25500000000E-02 0. -1.
         31    1    1    2    0    0 -0.40719919982E+00 -0.14113106286E+00  0.59737260372E+02  0.60201203742E+02  0.74470750000E+01 0.  1.
        -31    1    1    2    0    0  0.40719919982E+00  0.14113106286E+00  0.58468640030E+02  0.58942569694E+02  0.74470750000E+01 0. -1.
<mgrwt>
<rscale>  0 0.14919915E+02</rscale>
<asrwt>0</asrwt>
<pdfrwt beam="1">  1        2 0.98516408E+00 0.14919915E+02</pdfrwt>
<pdfrwt beam="2">  1       -2 0.99592929E+00 0.14919915E+02</pdfrwt>
<totfact>-0.31958933E-13</totfact>
</mgrwt>
</event>
<event>
 4    1 -0.5021037E-019  0.1492244E+02  0.7818608E-02  0.1870445E+00
          2   -1    0    0  501    0  0.00000000000E+00  0.00000000000E+00  0.11879964364E+03  0.11879964367E+03  0.25500000000E-02 0.  1.
         -2   -1    0    0    0  501 -0.00000000000E+00 -0.00000000000E+00 -0.46859876709E+00  0.46860570527E+00  0.25500000000E-02 0. -1.
         31    1    1    2    0    0 -0.26977308231E+00 -0.35614662906E+00  0.58318239760E+02  0.58793499919E+02  0.74470750000E+01 0. -1.
        -31    1    1    2    0    0  0.26977308231E+00  0.35614662906E+00  0.60012805118E+02  0.60474749459E+02  0.74470750000E+01 0.  1.
<mgrwt>
<rscale>  0 0.14922437E+02</rscale>
<asrwt>0</asrwt>
<pdfrwt beam="1">  1        2 0.98619333E+00 0.14922437E+02</pdfrwt>
<pdfrwt beam="2">  1       -2 0.99522627E+00 0.14922437E+02</pdfrwt>
<totfact>-0.28572072E-13</totfact>
</mgrwt>
</event>
<event>
 4    1 -0.5021037E-019  0.1502132E+02  0.7818608E-02  0.1867419E+00
          2   -1    0    0  501    0  0.00000000000E+00  0.00000000000E+00  0.12002686797E+03  0.12002686800E+03  0.25500000000E-02 0.  1.
         -2   -1    0    0    0  501 -0.00000000000E+00 -0.00000000000E+00 -0.46997470674E+00  0.46998162462E+00  0.25500000000E-02 0. -1.
         31    1    1    2    0    0  0.71598891608E+00 -0.22880037989E+00  0.64762865467E+02  0.65193961832E+02  0.74470750000E+01 0.  1.
        -31    1    1    2    0    0 -0.71598891608E+00  0.22880037989E+00  0.54794027800E+02  0.55302887794E+02  0.74470750000E+01 0. -1.
<mgrwt>
<rscale>  0 0.15021320E+02</rscale>
<asrwt>0</asrwt>
<pdfrwt beam="1">  1        2 0.99635226E+00 0.15021320E+02</pdfrwt>
<pdfrwt beam="2">  1       -2 0.99817720E+00 0.15021320E+02</pdfrwt>
<totfact>-0.55055777E-14</totfact>
</mgrwt>
</event>
<event>
 4    1 -0.5021037E-019  0.1500209E+02  0.7818608E-02  0.1868005E+00
         -2   -1    0    0    0  501 -0.00000000000E+00  0.00000000000E+00  0.12018527101E+03  0.12018527103E+03  0.25500000000E-02 0.  1.
          2   -1    0    0  501    0  0.00000000000E+00 -0.00000000000E+00 -0.46815458825E+00  0.46816153302E+00  0.25500000000E-02 0. -1.
         31    1    1    2    0    0 -0.26366980889E+00  0.40292359939E+00  0.65956569958E+02  0.66377405161E+02  0.74470750000E+01 0.  1.
        -31    1    1    2    0    0  0.26366980889E+00 -0.40292359939E+00  0.53760546459E+02  0.54276027405E+02  0.74470750000E+01 0. -1.
<mgrwt>
<rscale>  0 0.15002094E+02</rscale>
<asrwt>0</asrwt>
<pdfrwt beam="2">  1        2 0.99433163E+00 0.15002094E+02</pdfrwt>
<pdfrwt beam="1">  1       -2 0.99764700E+00 0.15002094E+02</pdfrwt>
<totfact>-0.85754914E-14</totfact>
</mgrwt>
</event>
<event>
 4    1  0.5021037E-019  0.1493991E+02  0.7818608E-02  0.1869908E+00
          2   -1    0    0  501    0  0.00000000000E+00  0.00000000000E+00  0.12031861706E+03  0.12031861709E+03  0.25500000000E-02 0.  1.
         -2   -1    0    0    0  501 -0.00000000000E+00 -0.00000000000E+00 -0.46376723914E+00  0.46377424961E+00  0.25500000000E-02 0. -1.
         31    1    1    2    0    0  0.50272276065E-01 -0.27461183584E+00  0.64076559344E+02  0.64508467059E+02  0.74470750000E+01 0.  1.
        -31    1    1    2    0    0 -0.50272276065E-01  0.27461183584E+00  0.55778290482E+02  0.56273924282E+02  0.74470750000E+01 0. -1.
<mgrwt>
<rscale>  0 0.14939914E+02</rscale>
<asrwt>0</asrwt>
<pdfrwt beam="1">  1        2 0.99871332E+00 0.14939914E+02</pdfrwt>
<pdfrwt beam="2">  1       -2 0.98505332E+00 0.14939914E+02</pdfrwt>
<totfact> 0.18261298E-13</totfact>
</mgrwt>
</event>
<event>
 4    1 -0.5021037E-019  0.1494381E+02  0.7818608E-02  0.1869788E+00
          2   -1    0    0  501    0  0.00000000000E+00  0.00000000000E+00  0.11918487990E+03  0.11918487993E+03  0.25500000000E-02 0. -1.
         -2   -1    0    0    0  501 -0.00000000000E+00 -0.00000000000E+00 -0.46842280855E+00  0.46842974934E+00  0.25500000000E-02 0.  1.
         31    1    1    2    0    0  0.71227620394E-01  0.82877268802E-02  0.64197360826E+02  0.64627898041E+02  0.74470750000E+01 0. -1.
        -31    1    1    2    0    0 -0.71227620394E-01 -0.82877268802E-02  0.54519096264E+02  0.55025411635E+02  0.74470750000E+01 0.  1.
<mgrwt>
<rscale>  0 0.14943806E+02</rscale>
<asrwt>0</asrwt>
<pdfrwt beam="1">  1        2 0.98937728E+00 0.14943806E+02</pdfrwt>
<pdfrwt beam="2">  1       -2 0.99486667E+00 0.14943806E+02</pdfrwt>
<totfact>-0.19046121E-13</totfact>
</mgrwt>
</event>
<event>
 4    1 -0.5021037E-019  0.1498308E+02  0.7818608E-02  0.1868585E+00
          2   -1    0    0  501    0  0.00000000000E+00  0.00000000000E+00  0.11995403910E+03  0.11995403913E+03  0.25500000000E-02 0. -1.
         -2   -1    0    0    0  501 -0.00000000000E+00 -0.00000000000E+00 -0.46786871388E+00  0.46787566289E+00  0.25500000000E-02 0.  1.
         31    1    1    2    0    0 -0.26757864965E+00  0.54404189065E+00  0.64120634912E+02  0.64554491149E+02  0.74470750000E+01 0. -1.
        -31    1    1    2    0    0  0.26757864965E+00 -0.54404189065E+00  0.55365535478E+02  0.55867423645E+02  0.74470750000E+01 0.  1.
<mgrwt>
<rscale>  0 0.14983079E+02</rscale>
<asrwt>0</asrwt>
<pdfrwt beam="1">  1        2 0.99573265E+00 0.14983079E+02</pdfrwt>
<pdfrwt beam="2">  1       -2 0.99371938E+00 0.14983079E+02</pdfrwt>
<totfact>-0.10478125E-13</totfact>
</mgrwt>
</event>
<event>
 4    1  0.5021037E-019  0.1491941E+02  0.7818608E-02  0.1870538E+00
          2   -1    0    0  501    0  0.00000000000E+00  0.00000000000E+00  0.11960523062E+03  0.11960523065E+03  0.25500000000E-02 0. -1.
         -2   -1    0    0    0  501 -0.00000000000E+00 -0.00000000000E+00 -0.46525398074E+00  0.46526096881E+00  0.25500000000E-02 0.  1.
         31    1    1    2    0    0 -0.44907981810E-01  0.41300530997E+00  0.60578862419E+02  0.61036301397E+02  0.74470750000E+01 0.  1.
        -31    1    1    2    0    0  0.44907981810E-01 -0.41300530997E+00  0.58561114220E+02  0.59034190220E+02  0.74470750000E+01 0.  1.
<mgrwt>
<rscale>  0 0.14919414E+02</rscale>
<asrwt>0</asrwt>
<pdfrwt beam="1">  1        2 0.99282683E+00 0.14919414E+02</pdfrwt>
<pdfrwt beam="2">  1       -2 0.98817628E+00 0.14919414E+02</pdfrwt>
<totfact> 0.16293867E-13</totfact>
</mgrwt>
</event>
<event>
 4    1 -0.5021037E-019  0.1491947E+02  0.7818608E-02  0.1870536E+00
          2   -1    0    0  501    0  0.00000000000E+00  0.00000000000E+00  0.11826029296E+03  0.11826029299E+03  0.25500000000E-02 0.  1.
         -2   -1    0    0    0  501 -0.00000000000E+00 -0.00000000000E+00 -0.47054865845E+00  0.47055556789E+00  0.25500000000E-02 0. -1.
         31    1    1    2    0    0 -0.90110311833E-01 -0.10450647377E+00  0.55616877355E+02  0.56113412071E+02  0.74470750000E+01 0. -1.
        -31    1    1    2    0    0  0.90110311833E-01  0.10450647377E+00  0.62172866950E+02  0.62617436488E+02  0.74470750000E+01 0.  1.
<mgrwt>
<rscale>  0 0.14919468E+02</rscale>
<asrwt>0</asrwt>
<pdfrwt beam="1">  1        2 0.98174973E+00 0.14919468E+02</pdfrwt>
<pdfrwt beam="2">  1       -2 0.99933314E+00 0.14919468E+02</pdfrwt>
<totfact>-0.13317536E-13</totfact>
</mgrwt>
</event>
<event>
 4    1 -0.5021037E-019  0.1493651E+02  0.7818608E-02  0.1870012E+00
          2   -1    0    0  501    0  0.00000000000E+00  0.00000000000E+00  0.11928793683E+03  0.11928793686E+03  0.25500000000E-02 0. -1.
         -2   -1    0    0    0  501 -0.00000000000E+00 -0.00000000000E+00 -0.46756113570E+00  0.46756808929E+00  0.25500000000E-02 0.  1.
         31    1    1    2    0    0  0.54738114594E+00  0.58519514581E-01  0.60318855720E+02  0.60779324873E+02  0.74470750000E+01 0. -1.
        -31    1    1    2    0    0 -0.54738114594E+00 -0.58519514581E-01  0.58501519978E+02  0.58976180077E+02  0.74470750000E+01 0. -1.
<mgrwt>
<rscale>  0 0.14936508E+02</rscale>
<asrwt>0</asrwt>
<pdfrwt beam="1">  1        2 0.99022230E+00 0.14936508E+02</pdfrwt>
<pdfrwt beam="2">  1       -2 0.99304712E+00 0.14936508E+02</pdfrwt>
<totfact>-0.15304802E-13</totfact>
</mgrwt>
</event>
<event>
 4    1  0.5021037E-019  0.1491239E+02  0.7818608E-02  0.1870754E+00
         -2   -1    0    0    0  501 -0.00000000000E+00  0.00000000000E+00  0.11875373072E+03  0.11875373075E+03  0.25500000000E-02 0. -1.
          2   -1    0    0  501    0  0.00000000000E+00 -0.00000000000E+00 -0.46814882065E+00  0.46815576551E+00  0.25500000000E-02 0.  1.
         31    1    1    2    0    0 -0.33313575440E+00 -0.86554099764E-01  0.58087065571E+02  0.58563508978E+02  0.74470750000E+01 0.  1.
        -31    1    1    2    0    0  0.33313575440E+00  0.86554099764E-01  0.60198516326E+02  0.60658377534E+02  0.74470750000E+01 0. -1.
<mgrwt>
<rscale>  0 0.14912389E+02</rscale>
<asrwt>0</asrwt>
<pdfrwt beam="2">  1        2 0.99427292E+00 0.14912389E+02</pdfrwt>
<pdfrwt beam="1">  1       -2 0.98580997E+00 0.14912389E+02</pdfrwt>
<totfact> 0.40636463E-13</totfact>
</mgrwt>
</event>
<event>
 4    1  0.5021037E-019  0.1491530E+02  0.7818608E-02  0.1870664E+00
          2   -1    0    0  501    0  0.00000000000E+00  0.00000000000E+00  0.12027219386E+03  0.12027219389E+03  0.25500000000E-02 0.  1.
         -2   -1    0    0    0  501 -0.00000000000E+00 -0.00000000000E+00 -0.46241873998E+00  0.46242577089E+00  0.25500000000E-02 0. -1.
         31    1    1    2    0    0  0.30713582588E+00 -0.25135618306E+00  0.59822334763E+02  0.60285389398E+02  0.74470750000E+01 0.  1.
        -31    1    1    2    0    0 -0.30713582588E+00  0.25135618306E+00  0.59987440359E+02  0.60449230262E+02  0.74470750000E+01 0.  1.
<mgrwt>
<rscale>  0 0.14915300E+02</rscale>
<asrwt>0</asrwt>
<pdfrwt beam="1">  1        2 0.99831831E+00 0.14915300E+02</pdfrwt>
<pdfrwt beam="2">  1       -2 0.98219863E+00 0.14915300E+02</pdfrwt>
<totfact> 0.45114816E-13</totfact>
</mgrwt>
</event>
<event>
 4    1  0.5021037E-019  0.1490209E+02  0.7818608E-02  0.1871071E+00
          2   -1    0    0  501    0  0.00000000000E+00  0.00000000000E+00  0.12001471500E+03  0.12001471503E+03  0.25500000000E-02 0. -1.
         -2   -1    0    0    0  501 -0.00000000000E+00 -0.00000000000E+00 -0.46259005793E+00  0.46259708624E+00  0.25500000000E-02 0.  1.
         31    1    1    2    0    0  0.24024460670E+00  0.30224644749E-01  0.59598584667E+02  0.60062541166E+02  0.74470750000E+01 0.  1.
        -31    1    1    2    0    0 -0.24024460670E+00 -0.30224644749E-01  0.59953540275E+02  0.60414770947E+02  0.74470750000E+01 0. -1.
<mgrwt>
<rscale>  0 0.14902086E+02</rscale>
<asrwt>0</asrwt>
<pdfrwt beam="1">  1        2 0.99619071E+00 0.14902086E+02</pdfrwt>
<pdfrwt beam="2">  1       -2 0.98255304E+00 0.14902086E+02</pdfrwt>
<totfact> 0.75350715E-13</totfact>
</mgrwt>
</event>
<event>
 4    1 -0.5021037E-019  0.1495729E+02  0.7818608E-02  0.1869375E+00
          2   -1    0    0  501    0  0.00000000000E+00  0.00000000000E+00  0.11948677552E+03  0.11948677555E+03  0.25500000000E-02 0. -1.
         -2   -1    0    0    0  501 -0.00000000000E+00 -0.00000000000E+00 -0.46808301217E+00  0.46808995801E+00  0.25500000000E-02 0.  1.
         31    1    1    2    0    0  0.14871123777E+00  0.33427362251E+00  0.64167532901E+02  0.64599265155E+02  0.74470750000E+01 0. -1.
        -31    1    1    2    0    0 -0.14871123777E+00 -0.33427362251E+00  0.54851159611E+02  0.55355600354E+02  0.74470750000E+01 0.  1.
<mgrwt>
<rscale>  0 0.14957292E+02</rscale>
<asrwt>0</asrwt>
<pdfrwt beam="1">  1        2 0.99187076E+00 0.14957292E+02</pdfrwt>
<pdfrwt beam="2">  1       -2 0.99415765E+00 0.14957292E+02</pdfrwt>
<totfact>-0.15091784E-13</totfact>
</mgrwt>
</event>
<event>
 4    1  0.5021037E-019  0.1490735E+02  0.7818608E-02  0.1870909E+00
         -2   -1    0    0    0  501 -0.00000000000E+00  0.00000000000E+00  0.11809741470E+03  0.11809741473E+03  0.25500000000E-02 0. -1.
          2   -1    0    0  501    0  0.00000000000E+00 -0.00000000000E+00 -0.47043274861E+00  0.47043965975E+00  0.25500000000E-02 0.  1.
         31    1    1    2    0    0  0.11097304060E-02  0.10302371173E+00  0.56457255937E+02  0.56946389606E+02  0.74470750000E+01 0.  1.
        -31    1    1    2    0    0 -0.11097304060E-02 -0.10302371173E+00  0.61169726018E+02  0.61621464786E+02  0.74470750000E+01 0. -1.
<mgrwt>
<rscale>  0 0.14907354E+02</rscale>
<asrwt>0</asrwt>
<pdfrwt beam="2">  1        2 0.99908249E+00 0.14907354E+02</pdfrwt>
<pdfrwt beam="1">  1       -2 0.98040198E+00 0.14907354E+02</pdfrwt>
<totfact> 0.37512458E-13</totfact>
</mgrwt>
</event>
<event>
 4    1  0.5021037E-019  0.1491399E+02  0.7818608E-02  0.1870705E+00
          2   -1    0    0  501    0  0.00000000000E+00  0.00000000000E+00  0.11962755477E+03  0.11962755479E+03  0.25500000000E-02 0. -1.
         -2   -1    0    0    0  501 -0.00000000000E+00 -0.00000000000E+00 -0.46482885482E+00  0.46483584927E+00  0.25500000000E-02 0.  1.
         31    1    1    2    0    0  0.24460476297E+00 -0.14696563619E-01  0.57195542684E+02  0.57678844271E+02  0.74470750000E+01 0.  1.
        -31    1    1    2    0    0 -0.24460476297E+00  0.14696563619E-01  0.61967183226E+02  0.62413546370E+02  0.74470750000E+01 0. -1.
<mgrwt>
<rscale>  0 0.14913988E+02</rscale>
<asrwt>0</asrwt>
<pdfrwt beam="1">  1        2 0.99300791E+00 0.14913988E+02</pdfrwt>
<pdfrwt beam="2">  1       -2 0.98727756E+00 0.14913988E+02</pdfrwt>
<totfact> 0.25717653E-13</totfact>
</mgrwt>
</event>
<event>
 4    1 -0.5021037E-019  0.1495518E+02  0.7818608E-02  0.1869439E+00
          2   -1    0    0  501    0  0.00000000000E+00  0.00000000000E+00  0.11908403432E+03  0.11908403435E+03  0.25500000000E-02 0.  1.
         -2   -1    0    0    0  501 -0.00000000000E+00 -0.00000000000E+00 -0.46953374117E+00  0.46954066554E+00  0.25500000000E-02 0. -1.
         31    1    1    2    0    0  0.39254429758E-01  0.33353470253E-01  0.53927923067E+02  0.54439714049E+02  0.74470750000E+01 0. -1.
        -31    1    1    2    0    0 -0.39254429758E-01 -0.33353470253E-01  0.64686577510E+02  0.65113860962E+02  0.74470750000E+01 0.  1.
<mgrwt>
<rscale>  0 0.14955185E+02</rscale>
<asrwt>0</asrwt>
<pdfrwt beam="1">  1        2 0.98855261E+00 0.14955185E+02</pdfrwt>
<pdfrwt beam="2">  1       -2 0.99721353E+00 0.14955185E+02</pdfrwt>
<totfact>-0.15897323E-13</totfact>
</mgrwt>
</event>
<event>
 4    1 -0.5021037E-019  0.1496829E+02  0.7818608E-02  0.1869038E+00
          2   -1    0    0  501    0  0.00000000000E+00  0.00000000000E+00  0.11963951002E+03  0.11963951005E+03  0.25500000000E-02 0. -1.
         -2   -1    0    0    0  501 -0.00000000000E+00 -0.00000000000E+00 -0.46817328022E+00  0.46818022471E+00  0.25500000000E-02 0.  1.
         31    1    1    2    0    0  0.26578679911E+00  0.69244155061E+00  0.60053314660E+02  0.60517845679E+02  0.74470750000E+01 0.  1.
        -31    1    1    2    0    0 -0.26578679911E+00 -0.69244155061E+00  0.59118022085E+02  0.59589844598E+02  0.74470750000E+01 0.  1.
<mgrwt>
<rscale>  0 0.14968292E+02</rscale>
<asrwt>0</asrwt>
<pdfrwt beam="1">  1        2 0.99313442E+00 0.14968292E+02</pdfrwt>
<pdfrwt beam="2">  1       -2 0.99435357E+00 0.14968292E+02</pdfrwt>
<totfact>-0.13892384E-13</totfact>
</mgrwt>
</event>
<event>
 4    1  0.5021037E-019  0.1491306E+02  0.7818608E-02  0.1870733E+00
          2   -1    0    0  501    0  0.00000000000E+00  0.00000000000E+00  0.12007294675E+03  0.12007294678E+03  0.25500000000E-02 0.  1.
         -2   -1    0    0    0  501 -0.00000000000E+00 -0.00000000000E+00 -0.46304725672E+00  0.46305427809E+00  0.25500000000E-02 0. -1.
         31    1    1    2    0    0 -0.57103170285E-01  0.35983520082E+00  0.60537090109E+02  0.60994515713E+02  0.74470750000E+01 0. -1.
        -31    1    1    2    0    0  0.57103170285E-01 -0.35983520082E+00  0.59072809385E+02  0.59541485343E+02  0.74470750000E+01 0. -1.
<mgrwt>
<rscale>  0 0.14913065E+02</rscale>
<asrwt>0</asrwt>
<pdfrwt beam="1">  1        2 0.99667599E+00 0.14913065E+02</pdfrwt>
<pdfrwt beam="2">  1       -2 0.98352223E+00 0.14913065E+02</pdfrwt>
<totfact> 0.55891665E-13</totfact>
</mgrwt>
</event>
<event>
 4    1 -0.5021037E-019  0.1497681E+02  0.7818608E-02  0.1868777E+00
          2   -1    0    0  501    0  0.00000000000E+00  0.00000000000E+00  0.11943668832E+03  0.11943668834E+03  0.25500000000E-02 0. -1.
         -2   -1    0    0    0  501 -0.00000000000E+00 -0.00000000000E+00 -0.46950224742E+00  0.46950917225E+00  0.25500000000E-02 0.  1.
         31    1    1    2    0    0  0.11567083663E+00 -0.75950506324E+00  0.60800512710E+02  0.61259705350E+02  0.74470750000E+01 0. -1.
        -31    1    1    2    0    0 -0.11567083663E+00  0.75950506324E+00  0.58166673357E+02  0.58646492165E+02  0.74470750000E+01 0. -1.
<mgrwt>
<rscale>  0 0.14976810E+02</rscale>
<asrwt>0</asrwt>
<pdfrwt beam="1">  1        2 0.99146834E+00 0.14976810E+02</pdfrwt>
<pdfrwt beam="2">  1       -2 0.99715847E+00 0.14976810E+02</pdfrwt>
<totfact>-0.12173135E-13</totfact>
</mgrwt>
</event>
<event>
 4    1  0.5021037E-019  0.1489634E+02  0.7818608E-02  0.1871248E+00
         -2   -1    0    0    0  501 -0.00000000000E+00  0.00000000000E+00  0.11820404450E+03  0.11820404453E+03  0.25500000000E-02 0. -1.
          2   -1    0    0  501    0  0.00000000000E+00 -0.00000000000E+00 -0.46931389520E+00  0.46932082281E+00  0.25500000000E-02 0.  1.
         31    1    1    2    0    0  0.28589503081E-01 -0.10592767557E+00  0.59386673552E+02  0.59851883510E+02  0.74470750000E+01 0.  1.
        -31    1    1    2    0    0 -0.28589503081E-01  0.10592767557E+00  0.58348057052E+02  0.58821481840E+02  0.74470750000E+01 0.  1.
<mgrwt>
<rscale>  0 0.14896337E+02</rscale>
<asrwt>0</asrwt>
<pdfrwt beam="2">  1        2 0.99671933E+00 0.14896337E+02</pdfrwt>
<pdfrwt beam="1">  1       -2 0.98127442E+00 0.14896337E+02</pdfrwt>
<totfact> 0.88390529E-13</totfact>
</mgrwt>
</event>
<event>
 4    1 -0.5021037E-019  0.1492124E+02  0.7818608E-02  0.1870481E+00
          2   -1    0    0  501    0  0.00000000000E+00  0.00000000000E+00  0.11841755988E+03  0.11841755991E+03  0.25500000000E-02 0.  1.
         -2   -1    0    0    0  501 -0.00000000000E+00 -0.00000000000E+00 -0.47003531547E+00  0.47004223245E+00  0.25500000000E-02 0. -1.
         31    1    1    2    0    0  0.31565537106E-01 -0.44520970814E+00  0.59388831271E+02  0.59855587992E+02  0.74470750000E+01 0.  1.
        -31    1    1    2    0    0 -0.31565537106E-01  0.44520970814E+00  0.58558693294E+02  0.59032014148E+02  0.74470750000E+01 0. -1.
<mgrwt>
<rscale>  0 0.14921240E+02</rscale>
<asrwt>0</asrwt>
<pdfrwt beam="1">  1        2 0.98304588E+00 0.14921240E+02</pdfrwt>
<pdfrwt beam="2">  1       -2 0.99825250E+00 0.14921240E+02</pdfrwt>
<totfact>-0.25558362E-13</totfact>
</mgrwt>
</event>
<event>
 4    1  0.5021037E-019  0.1492812E+02  0.7818608E-02  0.1870270E+00
          2   -1    0    0  501    0  0.00000000000E+00  0.00000000000E+00  0.11961448069E+03  0.11961448072E+03  0.25500000000E-02 0. -1.
         -2   -1    0    0    0  501 -0.00000000000E+00 -0.00000000000E+00 -0.46576091475E+00  0.46576789521E+00  0.25500000000E-02 0.  1.
         31    1    1    2    0    0 -0.25176833361E+00  0.26034634459E+00  0.62384860424E+02  0.62828822237E+02  0.74470750000E+01 0. -1.
        -31    1    1    2    0    0  0.25176833361E+00 -0.26034634459E+00  0.56763859352E+02  0.57251426377E+02  0.74470750000E+01 0.  1.
<mgrwt>
<rscale>  0 0.14928117E+02</rscale>
<asrwt>0</asrwt>
<pdfrwt beam="1">  1        2 0.99290751E+00 0.14928117E+02</pdfrwt>
<pdfrwt beam="2">  1       -2 0.98924909E+00 0.14928117E+02</pdfrwt>
<totfact> 0.65531997E-14</totfact>
</mgrwt>
</event>
<event>
 4    1  0.5021037E-019  0.1490494E+02  0.7818608E-02  0.1870983E+00
          2   -1    0    0  501    0  0.00000000000E+00  0.00000000000E+00  0.11979363173E+03  0.11979363175E+03  0.25500000000E-02 0.  1.
         -2   -1    0    0    0  501 -0.00000000000E+00 -0.00000000000E+00 -0.46362133384E+00  0.46362834652E+00  0.25500000000E-02 0. -1.
         31    1    1    2    0    0  0.16852087811E+00  0.21439528549E+00  0.59039209082E+02  0.59507659169E+02  0.74470750000E+01 0.  1.
        -31    1    1    2    0    0 -0.16852087811E+00 -0.21439528549E+00  0.60290801311E+02  0.60749600932E+02  0.74470750000E+01 0.  1.
<mgrwt>
<rscale>  0 0.14904940E+02</rscale>
<asrwt>0</asrwt>
<pdfrwt beam="1">  1        2 0.99437117E+00 0.14904940E+02</pdfrwt>
<pdfrwt beam="2">  1       -2 0.98472804E+00 0.14904940E+02</pdfrwt>
<totfact> 0.55483504E-13</totfact>
</mgrwt>
</event>
<event>
 4    1 -0.5021037E-019  0.1494266E+02  0.7818608E-02  0.1869823E+00
          2   -1    0    0  501    0  0.00000000000E+00  0.00000000000E+00  0.11882542773E+03  0.11882542775E+03  0.25500000000E-02 0. -1.
         -2   -1    0    0    0  501 -0.00000000000E+00 -0.00000000000E+00 -0.46976788593E+00  0.46977480685E+00  0.25500000000E-02 0.  1.
         31    1    1    2    0    0 -0.10895476221E+00  0.21661667822E+00  0.54782793182E+02  0.55287178883E+02  0.74470750000E+01 0.  1.
        -31    1    1    2    0    0  0.10895476221E+00 -0.21661667822E+00  0.63572866657E+02  0.64008023677E+02  0.74470750000E+01 0. -1.
<mgrwt>
<rscale>  0 0.14942662E+02</rscale>
<asrwt>0</asrwt>
<pdfrwt beam="1">  1        2 0.98641620E+00 0.14942662E+02</pdfrwt>
<pdfrwt beam="2">  1       -2 0.99770032E+00 0.14942662E+02</pdfrwt>
<totfact>-0.18449054E-13</totfact>
</mgrwt>
</event>
<event>
 4    1  0.5021037E-019  0.1493315E+02  0.7818608E-02  0.1870115E+00
          2   -1    0    0  501    0  0.00000000000E+00  0.00000000000E+00  0.12024252700E+03  0.12024252703E+03  0.25500000000E-02 0.  1.
         -2   -1    0    0    0  501 -0.00000000000E+00 -0.00000000000E+00 -0.46364073024E+00  0.46364774262E+00  0.25500000000E-02 0. -1.
         31    1    1    2    0    0 -0.18605832845E+00 -0.50418110699E+00  0.59526555146E+02  0.59992987173E+02  0.74470750000E+01 0.  1.
        -31    1    1    2    0    0  0.18605832845E+00  0.50418110699E+00  0.60252331125E+02  0.60713187598E+02  0.74470750000E+01 0.  1.
<mgrwt>
<rscale>  0 0.14933152E+02</rscale>
<asrwt>0</asrwt>
<pdfrwt beam="1">  1        2 0.99808311E+00 0.14933152E+02</pdfrwt>
<pdfrwt beam="2">  1       -2 0.98478326E+00 0.14933152E+02</pdfrwt>
<totfact> 0.27358556E-13</totfact>
</mgrwt>
</event>
<event>
 4    1  0.5021037E-019  0.1492913E+02  0.7818608E-02  0.1870239E+00
         -2   -1    0    0    0  501 -0.00000000000E+00  0.00000000000E+00  0.11882406589E+03  0.11882406592E+03  0.25500000000E-02 0.  1.
          2   -1    0    0  501    0  0.00000000000E+00 -0.00000000000E+00 -0.46892281198E+00  0.46892974537E+00  0.25500000000E-02 0. -1.
         31    1    1    2    0    0  0.29911905104E-01 -0.42344869011E-01  0.63237218527E+02  0.63674228860E+02  0.74470750000E+01 0.  1.
        -31    1    1    2    0    0 -0.29911905104E-01  0.42344869011E-01  0.55117924556E+02  0.55618766808E+02  0.74470750000E+01 0. -1.
<mgrwt>
<rscale>  0 0.14929130E+02</rscale>
<asrwt>0</asrwt>
<pdfrwt beam="2">  1        2 0.99591258E+00 0.14929130E+02</pdfrwt>
<pdfrwt beam="1">  1       -2 0.98639795E+00 0.14929130E+02</pdfrwt>
<totfact> 0.27819448E-13</totfact>
</mgrwt>
</event>
<event>
 4    1 -0.5021037E-019  0.1491525E+02  0.7818608E-02  0.1870666E+00
         -2   -1    0    0    0  501 -0.00000000000E+00  0.00000000000E+00  0.11985877118E+03  0.11985877121E+03  0.25500000000E-02 0.  1.
          2   -1    0    0  501    0  0.00000000000E+00 -0.00000000000E+00 -0.46401092156E+00  0.46401792834E+00  0.25500000000E-02 0. -1.
         31    1    1    2    0    0  0.18236574152E+00  0.15926608435E+00  0.62231180871E+02  0.62675652542E+02  0.74470750000E+01 0.  1.
        -31    1    1    2    0    0 -0.18236574152E+00 -0.15926608435E+00  0.57163579386E+02  0.57647136592E+02  0.74470750000E+01 0. -1.
<mgrwt>
<rscale>  0 0.14915254E+02</rscale>
<asrwt>0</asrwt>
<pdfrwt beam="2">  1        2 0.98555439E+00 0.14915254E+02</pdfrwt>
<pdfrwt beam="1">  1       -2 0.99491301E+00 0.14915254E+02</pdfrwt>
<totfact>-0.31815013E-13</totfact>
</mgrwt>
</event>
<event>
 4    1  0.5021037E-019  0.1490755E+02  0.7818608E-02  0.1870903E+00
          2   -1    0    0  501    0  0.00000000000E+00  0.00000000000E+00  0.12025628332E+03  0.12025628335E+03  0.25500000000E-02 0. -1.
         -2   -1    0    0    0  501 -0.00000000000E+00 -0.00000000000E+00 -0.46199971285E+00  0.46200675014E+00  0.25500000000E-02 0.  1.
         31    1    1    2    0    0  0.19556694206E+00  0.24752944364E+00  0.60048950890E+02  0.60509792152E+02  0.74470750000E+01 0. -1.
        -31    1    1    2    0    0 -0.19556694206E+00 -0.24752944364E+00  0.59745332717E+02  0.60208497945E+02  0.74470750000E+01 0. -1.
<mgrwt>
<rscale>  0 0.14907554E+02</rscale>
<asrwt>0</asrwt>
<pdfrwt beam="1">  1        2 0.99818328E+00 0.14907554E+02</pdfrwt>
<pdfrwt beam="2">  1       -2 0.98131152E+00 0.14907554E+02</pdfrwt>
<totfact> 0.57064327E-13</totfact>
</mgrwt>
</event>
<event>
 4    1 -0.5021037E-019  0.1492159E+02  0.7818608E-02  0.1870471E+00
         -2   -1    0    0    0  501 -0.00000000000E+00  0.00000000000E+00  0.12004277553E+03  0.12004277556E+03  0.25500000000E-02 0.  1.
          2   -1    0    0  501    0  0.00000000000E+00 -0.00000000000E+00 -0.46369311562E+00  0.46370012721E+00  0.25500000000E-02 0. -1.
         31    1    1    2    0    0  0.72706393448E-01  0.99437191788E-01  0.63303593124E+02  0.63740246332E+02  0.74470750000E+01 0.  1.
        -31    1    1    2    0    0 -0.72706393448E-01 -0.99437191788E-01  0.56275489292E+02  0.56766229354E+02  0.74470750000E+01 0. -1.
<mgrwt>
<rscale>  0 0.14921586E+02</rscale>
<asrwt>0</asrwt>
<pdfrwt beam="2">  1        2 0.98488780E+00 0.14921586E+02</pdfrwt>
<pdfrwt beam="1">  1       -2 0.99643186E+00 0.14921586E+02</pdfrwt>
<totfact>-0.31391553E-13</totfact>
</mgrwt>
</event>
<event>
 4    1 -0.5021037E-019  0.1493481E+02  0.7818608E-02  0.1870064E+00
         -2   -1    0    0    0  501 -0.00000000000E+00  0.00000000000E+00  0.12036619126E+03  0.12036619128E+03  0.25500000000E-02 0.  1.
          2   -1    0    0  501    0  0.00000000000E+00 -0.00000000000E+00 -0.46326713162E+00  0.46327414966E+00  0.25500000000E-02 0. -1.
         31    1    1    2    0    0 -0.86161642907E-01  0.53325358040E+00  0.59087011437E+02  0.59556910848E+02  0.74470750000E+01 0.  1.
        -31    1    1    2    0    0  0.86161642907E-01 -0.53325358040E+00  0.60815912688E+02  0.61272554585E+02  0.74470750000E+01 0. -1.
<mgrwt>
<rscale>  0 0.14934808E+02</rscale>
<asrwt>0</asrwt>
<pdfrwt beam="2">  1        2 0.98399666E+00 0.14934808E+02</pdfrwt>
<pdfrwt beam="1">  1       -2 0.99910256E+00 0.14934808E+02</pdfrwt>
<totfact>-0.12047017E-13</totfact>
</mgrwt>
</event>
<event>
 4    1 -0.5021037E-019  0.1490659E+02  0.7818608E-02  0.1870932E+00
         -2   -1    0    0    0  501 -0.00000000000E+00  0.00000000000E+00  0.12013731307E+03  0.12013731309E+03  0.25500000000E-02 0. -1.
          2   -1    0    0  501    0  0.00000000000E+00 -0.00000000000E+00 -0.46239757106E+00  0.46240460230E+00  0.25500000000E-02 0.  1.
         31    1    1    2    0    0 -0.90217498270E-01 -0.13261165809E+00  0.61931224829E+02  0.62377570167E+02  0.74470750000E+01 0. -1.
        -31    1    1    2    0    0  0.90217498270E-01  0.13261165809E+00  0.57743690666E+02  0.58222147529E+02  0.74470750000E+01 0.  1.
<mgrwt>
<rscale>  0 0.14906593E+02</rscale>
<asrwt>0</asrwt>
<pdfrwt beam="2">  1        2 0.98214962E+00 0.14906593E+02</pdfrwt>
<pdfrwt beam="1">  1       -2 0.99720285E+00 0.14906593E+02</pdfrwt>
<totfact>-0.42738951E-13</totfact>
</mgrwt>
</event>
<event>
 4    1 -0.5021037E-019  0.1499863E+02  0.7818608E-02  0.1868110E+00
          2   -1    0    0  501    0  0.00000000000E+00  0.00000000000E+00  0.12012815754E+03  0.12012815756E+03  0.25500000000E-02 0.  1.
         -2   -1    0    0    0  501 -0.00000000000E+00 -0.00000000000E+00 -0.46816063809E+00  0.46816758277E+00  0.25500000000E-02 0. -1.
         31    1    1    2    0    0 -0.73175634271E+00  0.45110906064E+00  0.58186067252E+02  0.58666995108E+02  0.74470750000E+01 0.  1.
        -31    1    1    2    0    0  0.73175634271E+00 -0.45110906064E+00  0.61473929647E+02  0.61929330038E+02  0.74470750000E+01 0.  1.
<mgrwt>
<rscale>  0 0.14998626E+02</rscale>
<asrwt>0</asrwt>
<pdfrwt beam="1">  1        2 0.99717479E+00 0.14998626E+02</pdfrwt>
<pdfrwt beam="2">  1       -2 0.99434259E+00 0.14998626E+02</pdfrwt>
<totfact>-0.84134448E-14</totfact>
</mgrwt>
</event>
<event>
 4    1 -0.5021037E-019  0.1497682E+02  0.7818608E-02  0.1868777E+00
         -2   -1    0    0    0  501 -0.00000000000E+00  0.00000000000E+00  0.12000797905E+03  0.12000797908E+03  0.25500000000E-02 0. -1.
          2   -1    0    0  501    0  0.00000000000E+00 -0.00000000000E+00 -0.46726802789E+00  0.46727498584E+00  0.25500000000E-02 0.  1.
         31    1    1    2    0    0  0.10296101706E+00  0.56806191952E+00  0.64057883229E+02  0.64491895810E+02  0.74470750000E+01 0. -1.
        -31    1    1    2    0    0 -0.10296101706E+00 -0.56806191952E+00  0.55482827793E+02  0.55983358253E+02  0.74470750000E+01 0.  1.
<mgrwt>
<rscale>  0 0.14976824E+02</rscale>
<asrwt>0</asrwt>
<pdfrwt beam="2">  1        2 0.99245027E+00 0.14976824E+02</pdfrwt>
<pdfrwt beam="1">  1       -2 0.99617369E+00 0.14976824E+02</pdfrwt>
<totfact>-0.13477742E-13</totfact>
</mgrwt>
</event>
<event>
 4    1  0.5021037E-019  0.1491681E+02  0.7818608E-02  0.1870618E+00
         -2   -1    0    0    0  501 -0.00000000000E+00  0.00000000000E+00  0.11840738653E+03  0.11840738656E+03  0.25500000000E-02 0. -1.
          2   -1    0    0  501    0  0.00000000000E+00 -0.00000000000E+00 -0.46979665949E+00  0.46980357998E+00  0.25500000000E-02 0.  1.
         31    1    1    2    0    0 -0.30775235392E+00  0.16186031002E+00  0.57223321202E+02  0.57706917486E+02  0.74470750000E+01 0.  1.
        -31    1    1    2    0    0  0.30775235392E+00 -0.16186031002E+00  0.60714268673E+02  0.61170272656E+02  0.74470750000E+01 0.  1.
<mgrwt>
<rscale>  0 0.14916810E+02</rscale>
<asrwt>0</asrwt>
<pdfrwt beam="2">  1        2 0.99774732E+00 0.14916810E+02</pdfrwt>
<pdfrwt beam="1">  1       -2 0.98295978E+00 0.14916810E+02</pdfrwt>
<totfact> 0.48333904E-13</totfact>
</mgrwt>
</event>
<event>
 4    1  0.5021037E-019  0.1491557E+02  0.7818608E-02  0.1870656E+00
         -2   -1    0    0    0  501 -0.00000000000E+00  0.00000000000E+00  0.11821488087E+03  0.11821488090E+03  0.25500000000E-02 0. -1.
          2   -1    0    0  501    0  0.00000000000E+00 -0.00000000000E+00 -0.47048330799E+00  0.47049021839E+00  0.25500000000E-02 0.  1.
         31    1    1    2    0    0 -0.74143259722E-01  0.27535563043E+00  0.56645676894E+02  0.57133816211E+02  0.74470750000E+01 0.  1.
        -31    1    1    2    0    0  0.74143259722E-01 -0.27535563043E+00  0.61098720672E+02  0.61551554910E+02  0.74470750000E+01 0. -1.
<mgrwt>
<rscale>  0 0.14915568E+02</rscale>
<asrwt>0</asrwt>
<pdfrwt beam="2">  1        2 0.99919338E+00 0.14915568E+02</pdfrwt>
<pdfrwt beam="1">  1       -2 0.98137369E+00 0.14915568E+02</pdfrwt>
<totfact> 0.28009660E-13</totfact>
</mgrwt>
</event>
<event>
 4    1  0.5021037E-019  0.1491699E+02  0.7818608E-02  0.1870612E+00
          2   -1    0    0  501    0  0.00000000000E+00  0.00000000000E+00  0.11983278923E+03  0.11983278925E+03  0.25500000000E-02 0.  1.
         -2   -1    0    0    0  501 -0.00000000000E+00 -0.00000000000E+00 -0.46421960752E+00  0.46422661115E+00  0.25500000000E-02 0. -1.
         31    1    1    2    0    0 -0.79956401266E-01  0.18240185565E+00  0.62598253943E+02  0.63039987201E+02  0.74470750000E+01 0.  1.
        -31    1    1    2    0    0  0.79956401266E-01 -0.18240185565E+00  0.56770315675E+02  0.57257028663E+02  0.74470750000E+01 0. -1.
<mgrwt>
<rscale>  0 0.14916991E+02</rscale>
<asrwt>0</asrwt>
<pdfrwt beam="1">  1        2 0.99469989E+00 0.14916991E+02</pdfrwt>
<pdfrwt beam="2">  1       -2 0.98599509E+00 0.14916991E+02</pdfrwt>
<totfact> 0.36798110E-13</totfact>
</mgrwt>
</event>
<event>
 4    1 -0.5021037E-019  0.1498381E+02  0.7818608E-02  0.1868563E+00
          2   -1    0    0  501    0  0.00000000000E+00  0.00000000000E+00  0.11944124835E+03  0.11944124837E+03  0.25500000000E-02 0. -1.
         -2   -1    0    0    0  501 -0.00000000000E+00 -0.00000000000E+00 -0.46992318715E+00  0.46993010579E+00  0.25500000000E-02 0.  1.
         31    1    1    2    0    0  0.81570008082E+00 -0.49259439782E-01  0.59135972835E+02  0.59608640333E+02  0.74470750000E+01 0. -1.
        -31    1    1    2    0    0 -0.81570008082E+00  0.49259439782E-01  0.59835352324E+02  0.60302538147E+02  0.74470750000E+01 0. -1.
<mgrwt>
<rscale>  0 0.14983808E+02</rscale>
<asrwt>0</asrwt>
<pdfrwt beam="1">  1        2 0.99150952E+00 0.14983808E+02</pdfrwt>
<pdfrwt beam="2">  1       -2 0.99804912E+00 0.14983808E+02</pdfrwt>
<totfact>-0.91488904E-14</totfact>
</mgrwt>
</event>
<event>
 4    1  0.5021037E-019  0.1491999E+02  0.7818608E-02  0.1870520E+00
          2   -1    0    0  501    0  0.00000000000E+00  0.00000000000E+00  0.12044855988E+03  0.12044855991E+03  0.25500000000E-02 0. -1.
         -2   -1    0    0    0  501 -0.00000000000E+00 -0.00000000000E+00 -0.46203230383E+00  0.46203934062E+00  0.25500000000E-02 0.  1.
         31    1    1    2    0    0  0.37132363698E+00  0.22536387662E+00  0.59483521812E+02  0.59949453404E+02  0.74470750000E+01 0.  1.
        -31    1    1    2    0    0 -0.37132363698E+00 -0.22536387662E+00  0.60503005768E+02  0.60961145848E+02  0.74470750000E+01 0.  1.
<mgrwt>
<rscale>  0 0.14919994E+02</rscale>
<asrwt>0</asrwt>
<pdfrwt beam="1">  1        2 0.99977343E+00 0.14919994E+02</pdfrwt>
<pdfrwt beam="2">  1       -2 0.98138648E+00 0.14919994E+02</pdfrwt>
<totfact> 0.83679249E-14</totfact>
</mgrwt>
</event>
<event>
 4    1 -0.5021037E-019  0.1493866E+02  0.7818608E-02  0.1869946E+00
         -2   -1    0    0    0  501 -0.00000000000E+00  0.00000000000E+00  0.11995825616E+03  0.11995825618E+03  0.25500000000E-02 0.  1.
          2   -1    0    0  501    0  0.00000000000E+00 -0.00000000000E+00 -0.46508216591E+00  0.46508915655E+00  0.25500000000E-02 0. -1.
         31    1    1    2    0    0 -0.33729305811E+00 -0.42429350347E+00  0.61321110909E+02  0.61774034681E+02  0.74470750000E+01 0.  1.
        -31    1    1    2    0    0  0.33729305811E+00  0.42429350347E+00  0.58172063081E+02  0.58649310658E+02  0.74470750000E+01 0.  1.
<mgrwt>
<rscale>  0 0.14938657E+02</rscale>
<asrwt>0</asrwt>
<pdfrwt beam="2">  1        2 0.98782404E+00 0.14938657E+02</pdfrwt>
<pdfrwt beam="1">  1       -2 0.99574448E+00 0.14938657E+02</pdfrwt>
<totfact>-0.21957259E-13</totfact>
</mgrwt>
</event>
<event>
 4    1 -0.5021037E-019  0.1491152E+02  0.7818608E-02  0.1870780E+00
          2   -1    0    0  501    0  0.00000000000E+00  0.00000000000E+00  0.11866935384E+03  0.11866935386E+03  0.25500000000E-02 0.  1.
         -2   -1    0    0    0  501 -0.00000000000E+00 -0.00000000000E+00 -0.46842726149E+00  0.46843420222E+00  0.25500000000E-02 0. -1.
         31    1    1    2    0    0 -0.92709664833E-01 -0.30541159595E+00  0.57773649247E+02  0.58252513634E+02  0.74470750000E+01 0. -1.
        -31    1    1    2    0    0  0.92709664833E-01  0.30541159595E+00  0.60427277329E+02  0.60885274433E+02  0.74470750000E+01 0.  1.
<mgrwt>
<rscale>  0 0.14911522E+02</rscale>
<asrwt>0</asrwt>
<pdfrwt beam="1">  1        2 0.98511459E+00 0.14911522E+02</pdfrwt>
<pdfrwt beam="2">  1       -2 0.99485917E+00 0.14911522E+02</pdfrwt>
<totfact>-0.34150326E-13</totfact>
</mgrwt>
</event>
<event>
 4    1 -0.5021037E-019  0.1491197E+02  0.7818608E-02  0.1870767E+00
          2   -1    0    0  501    0  0.00000000000E+00  0.00000000000E+00  0.11835028888E+03  0.11835028891E+03  0.25500000000E-02 0.  1.
         -2   -1    0    0    0  501 -0.00000000000E+00 -0.00000000000E+00 -0.46971803366E+00  0.46972495531E+00  0.25500000000E-02 0. -1.
         31    1    1    2    0    0  0.31636465784E+00  0.96429983600E-01  0.60158295567E+02  0.60618386954E+02  0.74470750000E+01 0.  1.
        -31    1    1    2    0    0 -0.31636465784E+00 -0.96429983600E-01  0.57722275283E+02  0.58201626912E+02  0.74470750000E+01 0. -1.
<mgrwt>
<rscale>  0 0.14911965E+02</rscale>
<asrwt>0</asrwt>
<pdfrwt beam="1">  1        2 0.98248701E+00 0.14911965E+02</pdfrwt>
<pdfrwt beam="2">  1       -2 0.99757910E+00 0.14911965E+02</pdfrwt>
<totfact>-0.36400832E-13</totfact>
</mgrwt>
</event>
<event>
 4    1 -0.5021037E-019  0.1500265E+02  0.7818608E-02  0.1867988E+00
         -2   -1    0    0    0  501 -0.00000000000E+00  0.00000000000E+00  0.12005068680E+03  0.12005068683E+03  0.25500000000E-02 0. -1.
          2   -1    0    0  501    0  0.00000000000E+00 -0.00000000000E+00 -0.46871400598E+00  0.46872094246E+00  0.25500000000E-02 0.  1.
         31    1    1    2    0    0  0.38798941568E+00 -0.24535120433E+00  0.66014514860E+02  0.66434823935E+02  0.74470750000E+01 0. -1.
        -31    1    1    2    0    0 -0.38798941568E+00  0.24535120433E+00  0.53567457933E+02  0.54084583833E+02  0.74470750000E+01 0.  1.
<mgrwt>
<rscale>  0 0.15002647E+02</rscale>
<asrwt>0</asrwt>
<pdfrwt beam="2">  1        2 0.99551083E+00 0.15002647E+02</pdfrwt>
<pdfrwt beam="1">  1       -2 0.99653879E+00 0.15002647E+02</pdfrwt>
<totfact>-0.98408444E-14</totfact>
</mgrwt>
</event>
<event>
 4    1  0.5021037E-019  0.1490423E+02  0.7818608E-02  0.1871005E+00
          2   -1    0    0  501    0  0.00000000000E+00  0.00000000000E+00  0.11987381308E+03  0.11987381310E+03  0.25500000000E-02 0.  1.
         -2   -1    0    0    0  501 -0.00000000000E+00 -0.00000000000E+00 -0.46326705142E+00  0.46327406946E+00  0.25500000000E-02 0. -1.
         31    1    1    2    0    0 -0.61214485116E-01 -0.50878102076E-02  0.57549151071E+02  0.58029022809E+02  0.74470750000E+01 0. -1.
        -31    1    1    2    0    0  0.61214485116E-01  0.50878102076E-02  0.61861394953E+02  0.62308064363E+02  0.74470750000E+01 0.  1.
<mgrwt>
<rscale>  0 0.14904229E+02</rscale>
<asrwt>0</asrwt>
<pdfrwt beam="1">  1        2 0.99503123E+00 0.14904229E+02</pdfrwt>
<pdfrwt beam="2">  1       -2 0.98398100E+00 0.14904229E+02</pdfrwt>
<totfact> 0.63199941E-13</totfact>
</mgrwt>
</event>
<event>
 4    1 -0.5021037E-019  0.1492494E+02  0.7818608E-02  0.1870368E+00
          2   -1    0    0  501    0  0.00000000000E+00  0.00000000000E+00  0.11899078577E+03  0.11899078580E+03  0.25500000000E-02 0. -1.
         -2   -1    0    0    0  501 -0.00000000000E+00 -0.00000000000E+00 -0.46800286902E+00  0.46800981604E+00  0.25500000000E-02 0.  1.
         31    1    1    2    0    0  0.60601278718E-01  0.13188224400E-01  0.55459098423E+02  0.55956897434E+02  0.74470750000E+01 0.  1.
        -31    1    1    2    0    0 -0.60601278718E-01 -0.13188224400E-01  0.63063684481E+02  0.63501898183E+02  0.74470750000E+01 0. -1.
<mgrwt>
<rscale>  0 0.14924938E+02</rscale>
<asrwt>0</asrwt>
<pdfrwt beam="1">  1        2 0.98776890E+00 0.14924938E+02</pdfrwt>
<pdfrwt beam="2">  1       -2 0.99397193E+00 0.14924938E+02</pdfrwt>
<totfact>-0.22466100E-13</totfact>
</mgrwt>
</event>
<event>
 4    1 -0.5021037E-019  0.1492234E+02  0.7818608E-02  0.1870448E+00
         -2   -1    0    0    0  501 -0.00000000000E+00  0.00000000000E+00  0.11957811974E+03  0.11957811977E+03  0.25500000000E-02 0.  1.
          2   -1    0    0  501    0  0.00000000000E+00 -0.00000000000E+00 -0.46554210669E+00  0.46554909043E+00  0.25500000000E-02 0. -1.
         31    1    1    2    0    0  0.35971472796E+00 -0.12933120684E+00  0.57520788137E+02  0.58002121644E+02  0.74470750000E+01 0. -1.
        -31    1    1    2    0    0 -0.35971472796E+00  0.12933120684E+00  0.61591789496E+02  0.62041547213E+02  0.74470750000E+01 0. -1.
<mgrwt>
<rscale>  0 0.14922342E+02</rscale>
<asrwt>0</asrwt>
<pdfrwt beam="2">  1        2 0.98878500E+00 0.14922342E+02</pdfrwt>
<pdfrwt beam="1">  1       -2 0.99260504E+00 0.14922342E+02</pdfrwt>
<totfact>-0.16191694E-13</totfact>
</mgrwt>
</event>
<event>
 4    1 -0.5021037E-019  0.1491956E+02  0.7818608E-02  0.1870533E+00
         -2   -1    0    0    0  501 -0.00000000000E+00  0.00000000000E+00  0.12012500204E+03  0.12012500207E+03  0.25500000000E-02 0.  1.
          2   -1    0    0  501    0  0.00000000000E+00 -0.00000000000E+00 -0.46324957233E+00  0.46325659063E+00  0.25500000000E-02 0. -1.
         31    1    1    2    0    0  0.12732854840E+00 -0.38307594537E+00  0.58517743821E+02  0.58991086002E+02  0.74470750000E+01 0. -1.
        -31    1    1    2    0    0 -0.12732854840E+00  0.38307594537E+00  0.61144008650E+02  0.61597172659E+02  0.74470750000E+01 0.  1.
<mgrwt>
<rscale>  0 0.14919555E+02</rscale>
<asrwt>0</asrwt>
<pdfrwt beam="2">  1        2 0.98395193E+00 0.14919555E+02</pdfrwt>
<pdfrwt beam="1">  1       -2 0.99710809E+00 0.14919555E+02</pdfrwt>
<totfact>-0.32256587E-13</totfact>
</mgrwt>
</event>
<event>
 4    1  0.5021037E-019  0.1490663E+02  0.7818608E-02  0.1870931E+00
          2   -1    0    0  501    0  0.00000000000E+00  0.00000000000E+00  0.12004478289E+03  0.12004478292E+03  0.25500000000E-02 0.  1.
         -2   -1    0    0    0  501 -0.00000000000E+00 -0.00000000000E+00 -0.46275649653E+00  0.46276352231E+00  0.25500000000E-02 0. -1.
         31    1    1    2    0    0 -0.28193624442E+00 -0.15958782092E-01  0.60721897134E+02  0.61177507798E+02  0.74470750000E+01 0. -1.
        -31    1    1    2    0    0  0.28193624442E+00  0.15958782092E-01  0.58860129258E+02  0.59330038640E+02  0.74470750000E+01 0.  1.
<mgrwt>
<rscale>  0 0.14906633E+02</rscale>
<asrwt>0</asrwt>
<pdfrwt beam="1">  1        2 0.99644071E+00 0.14906633E+02</pdfrwt>
<pdfrwt beam="2">  1       -2 0.98290615E+00 0.14906633E+02</pdfrwt>
<totfact> 0.67039511E-13</totfact>
</mgrwt>
</event>
<event>
 4    1 -0.5021037E-019  0.1493684E+02  0.7818608E-02  0.1870002E+00
         -2   -1    0    0    0  501 -0.00000000000E+00  0.00000000000E+00  0.11992799554E+03  0.11992799557E+03  0.25500000000E-02 0.  1.
          2   -1    0    0  501    0  0.00000000000E+00 -0.00000000000E+00 -0.46508666393E+00  0.46509365451E+00  0.25500000000E-02 0. -1.
         31    1    1    2    0    0  0.13367382035E+00 -0.37861652237E+00  0.56535848746E+02  0.57025628788E+02  0.74470750000E+01 0.  1.
        -31    1    1    2    0    0 -0.13367382035E+00  0.37861652237E+00  0.62927060134E+02  0.63367460438E+02  0.74470750000E+01 0.  1.
<mgrwt>
<rscale>  0 0.14936845E+02</rscale>
<asrwt>0</asrwt>
<pdfrwt beam="2">  1        2 0.98783259E+00 0.14936845E+02</pdfrwt>
<pdfrwt beam="1">  1       -2 0.99549430E+00 0.14936845E+02</pdfrwt>
<totfact>-0.22338892E-13</totfact>
</mgrwt>
</event>
<event>
 4    1 -0.5021037E-019  0.1498818E+02  0.7818608E-02  0.1868429E+00
         -2   -1    0    0    0  501 -0.00000000000E+00  0.00000000000E+00  0.11960554402E+03  0.11960554405E+03  0.25500000000E-02 0. -1.
          2   -1    0    0  501    0  0.00000000000E+00 -0.00000000000E+00 -0.46955183412E+00  0.46955875822E+00  0.25500000000E-02 0.  1.
         31    1    1    2    0    0 -0.74110265276E+00 -0.28331493546E+00  0.57403555878E+02  0.57890039333E+02  0.74470750000E+01 0.  1.
        -31    1    1    2    0    0  0.74110265276E+00  0.28331493546E+00  0.61732436312E+02  0.62185063476E+02  0.74470750000E+01 0. -1.
<mgrwt>
<rscale>  0 0.14988185E+02</rscale>
<asrwt>0</asrwt>
<pdfrwt beam="2">  1        2 0.99726889E+00 0.14988185E+02</pdfrwt>
<pdfrwt beam="1">  1       -2 0.99286496E+00 0.14988185E+02</pdfrwt>
<totfact>-0.69774057E-14</totfact>
</mgrwt>
</event>
<event>
 4    1  0.5021037E-019  0.1491830E+02  0.7818608E-02  0.1870572E+00
          2   -1    0    0  501    0  0.00000000000E+00  0.00000000000E+00  0.12018522890E+03  0.12018522893E+03  0.25500000000E-02 0.  1.
         -2   -1    0    0    0  501 -0.00000000000E+00 -0.00000000000E+00 -0.46293940904E+00  0.46294643204E+00  0.25500000000E-02 0. -1.
         31    1    1    2    0    0 -0.36427935201E+00  0.71178845411E-01  0.61522721788E+02  0.61972913342E+02  0.74470750000E+01 0.  1.
        -31    1    1    2    0    0  0.36427935201E+00 -0.71178845411E-01  0.58199567707E+02  0.58675262020E+02  0.74470750000E+01 0. -1.
<mgrwt>
<rscale>  0 0.14918298E+02</rscale>
<asrwt>0</asrwt>
<pdfrwt beam="1">  1        2 0.99760353E+00 0.14918298E+02</pdfrwt>
<pdfrwt beam="2">  1       -2 0.98329757E+00 0.14918298E+02</pdfrwt>
<totfact> 0.46940942E-13</totfact>
</mgrwt>
</event>
<event>
 4    1 -0.5021037E-019  0.1494133E+02  0.7818608E-02  0.1869864E+00
          2   -1    0    0  501    0  0.00000000000E+00  0.00000000000E+00  0.11895942696E+03  0.11895942699E+03  0.25500000000E-02 0. -1.
         -2   -1    0    0    0  501 -0.00000000000E+00 -0.00000000000E+00 -0.46915481324E+00  0.46916174320E+00  0.25500000000E-02 0.  1.
         31    1    1    2    0    0  0.56981048753E+00 -0.64801760043E-01  0.58033072911E+02  0.58511754040E+02  0.74470750000E+01 0.  1.
        -31    1    1    2    0    0 -0.56981048753E+00  0.64801760043E-01  0.60457199240E+02  0.60916834695E+02  0.74470750000E+01 0. -1.
<mgrwt>
<rscale>  0 0.14941326E+02</rscale>
<asrwt>0</asrwt>
<pdfrwt beam="1">  1        2 0.98751913E+00 0.14941326E+02</pdfrwt>
<pdfrwt beam="2">  1       -2 0.99640783E+00 0.14941326E+02</pdfrwt>
<totfact>-0.21188774E-13</totfact>
</mgrwt>
</event>
<event>
 4    1  0.5021037E-019  0.1491557E+02  0.7818608E-02  0.1870656E+00
          2   -1    0    0  501    0  0.00000000000E+00  0.00000000000E+00  0.11978015133E+03  0.11978015136E+03  0.25500000000E-02 0. -1.
         -2   -1    0    0    0  501 -0.00000000000E+00 -0.00000000000E+00 -0.46433506287E+00  0.46434206477E+00  0.25500000000E-02 0.  1.
         31    1    1    2    0    0 -0.27983701966E+00  0.12770309288E+00  0.57602515553E+02  0.58082728422E+02  0.74470750000E+01 0.  1.
        -31    1    1    2    0    0  0.27983701966E+00 -0.12770309288E+00  0.61713300718E+02  0.62161765004E+02  0.74470750000E+01 0. -1.
<mgrwt>
<rscale>  0 0.14915569E+02</rscale>
<asrwt>0</asrwt>
<pdfrwt beam="1">  1        2 0.99426560E+00 0.14915569E+02</pdfrwt>
<pdfrwt beam="2">  1       -2 0.98623769E+00 0.14915569E+02</pdfrwt>
<totfact> 0.35211016E-13</totfact>
</mgrwt>
</event>
<event>
 4    1  0.5021037E-019  0.1490279E+02  0.7818608E-02  0.1871050E+00
         -2   -1    0    0    0  501 -0.00000000000E+00  0.00000000000E+00  0.11861309578E+03  0.11861309581E+03  0.25500000000E-02 0.  1.
          2   -1    0    0  501    0  0.00000000000E+00 -0.00000000000E+00 -0.46810041644E+00  0.46810736202E+00  0.25500000000E-02 0. -1.
         31    1    1    2    0    0  0.46500625068E-01  0.15541689242E+00  0.60630383918E+02  0.61086239832E+02  0.74470750000E+01 0.  1.
        -31    1    1    2    0    0 -0.46500625068E-01 -0.15541689242E+00  0.57514611449E+02  0.57994963341E+02  0.74470750000E+01 0. -1.
<mgrwt>
<rscale>  0 0.14902786E+02</rscale>
<asrwt>0</asrwt>
<pdfrwt beam="2">  1        2 0.99416589E+00 0.14902786E+02</pdfrwt>
<pdfrwt beam="1">  1       -2 0.98464670E+00 0.14902786E+02</pdfrwt>
<totfact> 0.57719066E-13</totfact>
</mgrwt>
</event>
<event>
 4    1 -0.5021037E-019  0.1493788E+02  0.7818608E-02  0.1869970E+00
          2   -1    0    0  501    0  0.00000000000E+00  0.00000000000E+00  0.11861668719E+03  0.11861668722E+03  0.25500000000E-02 0.  1.
         -2   -1    0    0    0  501 -0.00000000000E+00 -0.00000000000E+00 -0.47029321034E+00  0.47030012353E+00  0.25500000000E-02 0. -1.
         31    1    1    2    0    0  0.50326008819E+00 -0.91783178488E-01  0.57049857170E+02  0.57536134942E+02  0.74470750000E+01 0. -1.
        -31    1    1    2    0    0 -0.50326008819E+00  0.91783178488E-01  0.61096536808E+02  0.61550852397E+02  0.74470750000E+01 0. -1.
<mgrwt>
<rscale>  0 0.14937876E+02</rscale>
<asrwt>0</asrwt>
<pdfrwt beam="1">  1        2 0.98469453E+00 0.14937876E+02</pdfrwt>
<pdfrwt beam="2">  1       -2 0.99880467E+00 0.14937876E+02</pdfrwt>
<totfact>-0.13946066E-13</totfact>
</mgrwt>
</event>
<event>
 4    1 -0.5021037E-019  0.1493643E+02  0.7818608E-02  0.1870015E+00
         -2   -1    0    0    0  501 -0.00000000000E+00  0.00000000000E+00  0.12023654593E+03  0.12023654596E+03  0.25500000000E-02 0. -1.
          2   -1    0    0  501    0  0.00000000000E+00 -0.00000000000E+00 -0.46386726817E+00  0.46387427713E+00  0.25500000000E-02 0.  1.
         31    1    1    2    0    0  0.25668650296E-01  0.14559418659E+00  0.64263795111E+02  0.64694019389E+02  0.74470750000E+01 0. -1.
        -31    1    1    2    0    0 -0.25668650296E-01 -0.14559418659E+00  0.55508883554E+02  0.56006400849E+02  0.74470750000E+01 0.  1.
<mgrwt>
<rscale>  0 0.14936428E+02</rscale>
<asrwt>0</asrwt>
<pdfrwt beam="2">  1        2 0.98526238E+00 0.14936428E+02</pdfrwt>
<pdfrwt beam="1">  1       -2 0.99803552E+00 0.14936428E+02</pdfrwt>
<totfact>-0.19491523E-13</totfact>
</mgrwt>
</event>
<event>
 4    1 -0.5021037E-019  0.1495622E+02  0.7818608E-02  0.1869407E+00
         -2   -1    0    0    0  501 -0.00000000000E+00  0.00000000000E+00  0.11987080983E+03  0.11987080986E+03  0.25500000000E-02 0. -1.
          2   -1    0    0  501    0  0.00000000000E+00 -0.00000000000E+00 -0.46651641832E+00  0.46652338748E+00  0.25500000000E-02 0.  1.
         31    1    1    2    0    0  0.21844398883E+00  0.60962935263E+00  0.58017671961E+02  0.58497252513E+02  0.74470750000E+01 0.  1.
        -31    1    1    2    0    0 -0.21844398883E+00 -0.60962935263E+00  0.61386621451E+02  0.61840080732E+02  0.74470750000E+01 0.  1.
<mgrwt>
<rscale>  0 0.14956219E+02</rscale>
<asrwt>0</asrwt>
<pdfrwt beam="2">  1        2 0.99085571E+00 0.14956219E+02</pdfrwt>
<pdfrwt beam="1">  1       -2 0.99503327E+00 0.14956219E+02</pdfrwt>
<totfact>-0.16529359E-13</totfact>
</mgrwt>
</event>
<event>
 4    1 -0.5021037E-019  0.1499941E+02  0.7818608E-02  0.1868087E+00
          2   -1    0    0  501    0  0.00000000000E+00  0.00000000000E+00  0.11953462180E+03  0.11953462182E+03  0.25500000000E-02 0.  1.
         -2   -1    0    0    0  501 -0.00000000000E+00 -0.00000000000E+00 -0.47053438393E+00  0.47054129358E+00  0.25500000000E-02 0. -1.
         31    1    1    2    0    0  0.20736565329E+00 -0.21981723221E+00  0.66203460107E+02  0.66621680978E+02  0.74470750000E+01 0.  1.
        -31    1    1    2    0    0 -0.20736565329E+00  0.21981723221E+00  0.52860627307E+02  0.53383482141E+02  0.74470750000E+01 0. -1.
<mgrwt>
<rscale>  0 0.14999409E+02</rscale>
<asrwt>0</asrwt>
<pdfrwt beam="1">  1        2 0.99228665E+00 0.14999409E+02</pdfrwt>
<pdfrwt beam="2">  1       -2 0.99934517E+00 0.14999409E+02</pdfrwt>
<totfact>-0.32462591E-14</totfact>
</mgrwt>
</event>
<event>
 4    1 -0.5021037E-019  0.1493530E+02  0.7818608E-02  0.1870049E+00
         -2   -1    0    0    0  501 -0.00000000000E+00  0.00000000000E+00  0.12014943909E+03  0.12014943912E+03  0.25500000000E-02 0.  1.
          2   -1    0    0  501    0  0.00000000000E+00 -0.00000000000E+00 -0.46413314228E+00  0.46414014722E+00  0.25500000000E-02 0. -1.
         31    1    1    2    0    0  0.48432364616E+00  0.77351590836E-01  0.57763528832E+02  0.58243666968E+02  0.74470750000E+01 0. -1.
        -31    1    1    2    0    0 -0.48432364616E+00 -0.77351590836E-01  0.61921777120E+02  0.62369912301E+02  0.74470750000E+01 0.  1.
<mgrwt>
<rscale>  0 0.14935295E+02</rscale>
<asrwt>0</asrwt>
<pdfrwt beam="2">  1        2 0.98582218E+00 0.14935295E+02</pdfrwt>
<pdfrwt beam="1">  1       -2 0.99731746E+00 0.14935295E+02</pdfrwt>
<totfact>-0.22618424E-13</totfact>
</mgrwt>
</event>
<event>
 4    1 -0.5021037E-019  0.1494000E+02  0.7818608E-02  0.1869905E+00
         -2   -1    0    0    0  501 -0.00000000000E+00  0.00000000000E+00  0.12019277729E+03  0.12019277732E+03  0.25500000000E-02 0.  1.
          2   -1    0    0  501    0  0.00000000000E+00 -0.00000000000E+00 -0.46425820214E+00  0.46426520520E+00  0.25500000000E-02 0. -1.
         31    1    1    2    0    0 -0.24025230297E+00 -0.32936294713E+00  0.63250254709E+02  0.63688459300E+02  0.74470750000E+01 0.  1.
        -31    1    1    2    0    0  0.24025230297E+00  0.32936294713E+00  0.56478264382E+02  0.56968583226E+02  0.74470750000E+01 0. -1.
<mgrwt>
<rscale>  0 0.14940001E+02</rscale>
<asrwt>0</asrwt>
<pdfrwt beam="2">  1        2 0.98608815E+00 0.14940001E+02</pdfrwt>
<pdfrwt beam="1">  1       -2 0.99767685E+00 0.14940001E+02</pdfrwt>
<totfact>-0.19537329E-13</totfact>
</mgrwt>
</event>
<event>
 4    1  0.5021037E-019  0.1492480E+02  0.7818608E-02  0.1870372E+00
         -2   -1    0    0    0  501 -0.00000000000E+00  0.00000000000E+00  0.11849513089E+03  0.11849513092E+03  0.25500000000E-02 0.  1.
          2   -1    0    0  501    0  0.00000000000E+00 -0.00000000000E+00 -0.46995182627E+00  0.46995874448E+00  0.25500000000E-02 0. -1.
         31    1    1    2    0    0 -0.18557954542E+00  0.27371563012E+00  0.61763788631E+02  0.62212007459E+02  0.74470750000E+01 0.  1.
        -31    1    1    2    0    0  0.18557954542E+00 -0.27371563012E+00  0.56261390437E+02  0.56753082207E+02  0.74470750000E+01 0. -1.
<mgrwt>
<rscale>  0 0.14924800E+02</rscale>
<asrwt>0</asrwt>
<pdfrwt beam="2">  1        2 0.99807848E+00 0.14924800E+02</pdfrwt>
<pdfrwt beam="1">  1       -2 0.98368660E+00 0.14924800E+02</pdfrwt>
<totfact> 0.36238920E-13</totfact>
</mgrwt>
</event>
<event>
 4    1 -0.5021037E-019  0.1490237E+02  0.7818608E-02  0.1871062E+00
         -2   -1    0    0    0  501 -0.00000000000E+00  0.00000000000E+00  0.11978029895E+03  0.11978029898E+03  0.25500000000E-02 0.  1.
          2   -1    0    0  501    0  0.00000000000E+00 -0.00000000000E+00 -0.46351297260E+00  0.46351998692E+00  0.25500000000E-02 0. -1.
         31    1    1    2    0    0  0.65826490409E-01 -0.15984507591E+00  0.61086728430E+02  0.61539233014E+02  0.74470750000E+01 0.  1.
        -31    1    1    2    0    0 -0.65826490409E-01  0.15984507591E+00  0.58230057545E+02  0.58704585948E+02  0.74470750000E+01 0. -1.
<mgrwt>
<rscale>  0 0.14902368E+02</rscale>
<asrwt>0</asrwt>
<pdfrwt beam="2">  1        2 0.98449835E+00 0.14902368E+02</pdfrwt>
<pdfrwt beam="1">  1       -2 0.99426003E+00 0.14902368E+02</pdfrwt>
<totfact>-0.37404506E-13</totfact>
</mgrwt>
</event>
<event>
 4    1 -0.5021037E-019  0.1493514E+02  0.7818608E-02  0.1870054E+00
         -2   -1    0    0    0  501 -0.00000000000E+00  0.00000000000E+00  0.11993452980E+03  0.11993452982E+03  0.25500000000E-02 0.  1.
          2   -1    0    0  501    0  0.00000000000E+00 -0.00000000000E+00 -0.46495510876E+00  0.46496210132E+00  0.25500000000E-02 0. -1.
         31    1    1    2    0    0  0.15410864382E+00  0.51286276774E+00  0.60842800510E+02  0.61299201281E+02  0.74470750000E+01 0.  1.
        -31    1    1    2    0    0 -0.15410864382E+00 -0.51286276774E+00  0.58626774177E+02  0.59100290643E+02  0.74470750000E+01 0.  1.
<mgrwt>
<rscale>  0 0.14935139E+02</rscale>
<asrwt>0</asrwt>
<pdfrwt beam="2">  1        2 0.98755446E+00 0.14935139E+02</pdfrwt>
<pdfrwt beam="1">  1       -2 0.99554724E+00 0.14935139E+02</pdfrwt>
<totfact>-0.23097624E-13</totfact>
</mgrwt>
</event>
<event>
 4    1 -0.5021037E-019  0.1500206E+02  0.7818608E-02  0.1868006E+00
         -2   -1    0    0    0  501 -0.00000000000E+00  0.00000000000E+00  0.11972482938E+03  0.11972482941E+03  0.25500000000E-02 0.  1.
          2   -1    0    0  501    0  0.00000000000E+00 -0.00000000000E+00 -0.46995295789E+00  0.46995987608E+00  0.25500000000E-02 0. -1.
         31    1    1    2    0    0  0.66645962509E+00 -0.53417511818E+00  0.61850899566E+02  0.62303468721E+02  0.74470750000E+01 0. -1.
        -31    1    1    2    0    0 -0.66645962509E+00  0.53417511818E+00  0.57403976857E+02  0.57891320563E+02  0.74470750000E+01 0.  1.
<mgrwt>
<rscale>  0 0.15002061E+02</rscale>
<asrwt>0</asrwt>
<pdfrwt beam="2">  1        2 0.99812137E+00 0.15002061E+02</pdfrwt>
<pdfrwt beam="1">  1       -2 0.99385461E+00 0.15002061E+02</pdfrwt>
<totfact>-0.60365306E-14</totfact>
</mgrwt>
</event>
<event>
 4    1  0.5021037E-019  0.1493558E+02  0.7818608E-02  0.1870041E+00
         -2   -1    0    0    0  501 -0.00000000000E+00  0.00000000000E+00  0.11858361963E+03  0.11858361966E+03  0.25500000000E-02 0.  1.
          2   -1    0    0  501    0  0.00000000000E+00 -0.00000000000E+00 -0.47027958780E+00  0.47028650119E+00  0.25500000000E-02 0. -1.
         31    1    1    2    0    0 -0.59148855900E-01  0.14299456996E+00  0.54801257691E+02  0.55305159945E+02  0.74470750000E+01 0. -1.
        -31    1    1    2    0    0  0.59148855900E-01 -0.14299456996E+00  0.63312082352E+02  0.63748746214E+02  0.74470750000E+01 0.  1.
<mgrwt>
<rscale>  0 0.14935578E+02</rscale>
<asrwt>0</asrwt>
<pdfrwt beam="2">  1        2 0.99877476E+00 0.14935578E+02</pdfrwt>
<pdfrwt beam="1">  1       -2 0.98442099E+00 0.14935578E+02</pdfrwt>
<totfact> 0.20797719E-13</totfact>
</mgrwt>
</event>
<event>
 4    1 -0.5021037E-019  0.1490305E+02  0.7818608E-02  0.1871041E+00
         -2   -1    0    0    0  501 -0.00000000000E+00  0.00000000000E+00  0.12024683908E+03  0.12024683911E+03  0.25500000000E-02 0. -1.
          2   -1    0    0  501    0  0.00000000000E+00 -0.00000000000E+00 -0.46175696633E+00  0.46176400732E+00  0.25500000000E-02 0.  1.
         31    1    1    2    0    0  0.63825741281E-01 -0.10739694372E-02  0.57871839206E+02  0.58349059753E+02  0.74470750000E+01 0.  1.
        -31    1    1    2    0    0 -0.63825741281E-01  0.10739694372E-02  0.61913242907E+02  0.62359543361E+02  0.74470750000E+01 0. -1.
<mgrwt>
<rscale>  0 0.14903052E+02</rscale>
<asrwt>0</asrwt>
<pdfrwt beam="2">  1        2 0.98079760E+00 0.14903052E+02</pdfrwt>
<pdfrwt beam="1">  1       -2 0.99810319E+00 0.14903052E+02</pdfrwt>
<totfact>-0.39938752E-13</totfact>
</mgrwt>
</event>
<event>
 4    1 -0.5021037E-019  0.1492442E+02  0.7818608E-02  0.1870384E+00
         -2   -1    0    0    0  501 -0.00000000000E+00  0.00000000000E+00  0.11990904882E+03  0.11990904884E+03  0.25500000000E-02 0. -1.
          2   -1    0    0  501    0  0.00000000000E+00 -0.00000000000E+00 -0.46438668208E+00  0.46439368320E+00  0.25500000000E-02 0.  1.
         31    1    1    2    0    0  0.22662717932E+00  0.38595618613E+00  0.58438409728E+02  0.58912706436E+02  0.74470750000E+01 0. -1.
        -31    1    1    2    0    0 -0.22662717932E+00 -0.38595618613E+00  0.61006252406E+02  0.61460736090E+02  0.74470750000E+01 0. -1.
<mgrwt>
<rscale>  0 0.14924421E+02</rscale>
<asrwt>0</asrwt>
<pdfrwt beam="2">  1        2 0.98635100E+00 0.14924421E+02</pdfrwt>
<pdfrwt beam="1">  1       -2 0.99533184E+00 0.14924421E+02</pdfrwt>
<totfact>-0.27769105E-13</totfact>
</mgrwt>
</event>
<event>
 4    1 -0.5021037E-019  0.1492997E+02  0.7818608E-02  0.1870213E+00
         -2   -1    0    0    0  501 -0.00000000000E+00  0.00000000000E+00  0.11989879058E+03  0.11989879061E+03  0.25500000000E-02 0. -1.
          2   -1    0    0  501    0  0.00000000000E+00 -0.00000000000E+00 -0.46477187822E+00  0.46477887353E+00  0.25500000000E-02 0.  1.
         31    1    1    2    0    0 -0.48105567267E+00  0.15612313710E+00  0.58860260348E+02  0.59331652289E+02  0.74470750000E+01 0.  1.
        -31    1    1    2    0    0  0.48105567267E+00 -0.15612313710E+00  0.60573758357E+02  0.61031917195E+02  0.74470750000E+01 0. -1.
<mgrwt>
<rscale>  0 0.14929971E+02</rscale>
<asrwt>0</asrwt>
<pdfrwt beam="2">  1        2 0.98716566E+00 0.14929971E+02</pdfrwt>
<pdfrwt beam="1">  1       -2 0.99525021E+00 0.14929971E+02</pdfrwt>
<totfact>-0.24762177E-13</totfact>
</mgrwt>
</event>
<event>
 4    1 -0.5021037E-019  0.1498282E+02  0.7818608E-02  0.1868593E+00
          2   -1    0    0  501    0  0.00000000000E+00  0.00000000000E+00  0.12011363163E+03  0.12011363166E+03  0.25500000000E-02 0. -1.
         -2   -1    0    0    0  501 -0.00000000000E+00 -0.00000000000E+00 -0.46723073280E+00  0.46723769130E+00  0.25500000000E-02 0.  1.
         31    1    1    2    0    0 -0.43250907731E+00 -0.22158584285E+00  0.54569730774E+02  0.55077677939E+02  0.74470750000E+01 0.  1.
        -31    1    1    2    0    0  0.43250907731E+00  0.22158584285E+00  0.65076670125E+02  0.65503191410E+02  0.74470750000E+01 0. -1.
<mgrwt>
<rscale>  0 0.14982817E+02</rscale>
<asrwt>0</asrwt>
<pdfrwt beam="1">  1        2 0.99704699E+00 0.14982817E+02</pdfrwt>
<pdfrwt beam="2">  1       -2 0.99237475E+00 0.14982817E+02</pdfrwt>
<totfact>-0.65310198E-14</totfact>
</mgrwt>
</event>
<event>
 4    1  0.5021037E-019  0.1492269E+02  0.7818608E-02  0.1870437E+00
          2   -1    0    0  501    0  0.00000000000E+00  0.00000000000E+00  0.12032767283E+03  0.12032767286E+03  0.25500000000E-02 0.  1.
         -2   -1    0    0    0  501 -0.00000000000E+00 -0.00000000000E+00 -0.46266356437E+00  0.46267059156E+00  0.25500000000E-02 0. -1.
         31    1    1    2    0    0 -0.14952308160E+00 -0.24176617350E+00  0.62872479989E+02  0.63312624918E+02  0.74470750000E+01 0.  1.
        -31    1    1    2    0    0  0.14952308160E+00  0.24176617350E+00  0.56992529280E+02  0.57477718533E+02  0.74470750000E+01 0. -1.
<mgrwt>
<rscale>  0 0.14922688E+02</rscale>
<asrwt>0</asrwt>
<pdfrwt beam="1">  1        2 0.99877907E+00 0.14922688E+02</pdfrwt>
<pdfrwt beam="2">  1       -2 0.98271839E+00 0.14922688E+02</pdfrwt>
<totfact> 0.30939157E-13</totfact>
</mgrwt>
</event>
<event>
 4    1  0.5021037E-019  0.1490523E+02  0.7818608E-02  0.1870974E+00
          2   -1    0    0  501    0  0.00000000000E+00  0.00000000000E+00  0.12028358354E+03  0.12028358357E+03  0.25500000000E-02 0. -1.
         -2   -1    0    0    0  501 -0.00000000000E+00 -0.00000000000E+00 -0.46175070442E+00  0.46175774550E+00  0.25500000000E-02 0.  1.
         31    1    1    2    0    0 -0.23808372617E+00  0.15768901433E+00  0.59657266190E+02  0.60120960447E+02  0.74470750000E+01 0.  1.
        -31    1    1    2    0    0  0.23808372617E+00 -0.15768901433E+00  0.60164566644E+02  0.60624380865E+02  0.74470750000E+01 0.  1.
<mgrwt>
<rscale>  0 0.14905228E+02</rscale>
<asrwt>0</asrwt>
<pdfrwt beam="1">  1        2 0.99840696E+00 0.14905228E+02</pdfrwt>
<pdfrwt beam="2">  1       -2 0.98078550E+00 0.14905228E+02</pdfrwt>
<totfact> 0.56478401E-13</totfact>
</mgrwt>
</event>
<event>
 4    1  0.5021037E-019  0.1490151E+02  0.7818608E-02  0.1871089E+00
          2   -1    0    0  501    0  0.00000000000E+00  0.00000000000E+00  0.12010098457E+03  0.12010098460E+03  0.25500000000E-02 0.  1.
         -2   -1    0    0    0  501 -0.00000000000E+00 -0.00000000000E+00 -0.46222190029E+00  0.46222893420E+00  0.25500000000E-02 0. -1.
         31    1    1    2    0    0 -0.61676465399E-01  0.12896049957E+00  0.61319325421E+02  0.61770049627E+02  0.74470750000E+01 0.  1.
        -31    1    1    2    0    0  0.61676465399E-01 -0.12896049957E+00  0.58319437249E+02  0.58793163904E+02  0.74470750000E+01 0. -1.
<mgrwt>
<rscale>  0 0.14901507E+02</rscale>
<asrwt>0</asrwt>
<pdfrwt beam="1">  1        2 0.99690100E+00 0.14901507E+02</pdfrwt>
<pdfrwt beam="2">  1       -2 0.98177678E+00 0.14901507E+02</pdfrwt>
<totfact> 0.77372121E-13</totfact>
</mgrwt>
</event>
<event>
 4    1  0.5021037E-019  0.1489880E+02  0.7818608E-02  0.1871172E+00
         -2   -1    0    0    0  501 -0.00000000000E+00  0.00000000000E+00  0.11899241008E+03  0.11899241011E+03  0.25500000000E-02 0. -1.
          2   -1    0    0  501    0  0.00000000000E+00 -0.00000000000E+00 -0.46635872197E+00  0.46636569348E+00  0.25500000000E-02 0.  1.
         31    1    1    2    0    0 -0.72978576489E-01  0.13654349118E+00  0.60091262425E+02  0.60551157841E+02  0.74470750000E+01 0. -1.
        -31    1    1    2    0    0  0.72978576489E-01 -0.13654349118E+00  0.58434788934E+02  0.58907617961E+02  0.74470750000E+01 0.  1.
<mgrwt>
<rscale>  0 0.14898801E+02</rscale>
<asrwt>0</asrwt>
<pdfrwt beam="2">  1        2 0.99049374E+00 0.14898801E+02</pdfrwt>
<pdfrwt beam="1">  1       -2 0.98776874E+00 0.14898801E+02</pdfrwt>
<totfact> 0.24572166E-13</totfact>
</mgrwt>
</event>
<event>
 4    1 -0.5021037E-019  0.1498226E+02  0.7818608E-02  0.1868610E+00
         -2   -1    0    0    0  501 -0.00000000000E+00  0.00000000000E+00  0.11943594510E+03  0.11943594512E+03  0.25500000000E-02 0. -1.
          2   -1    0    0  501    0  0.00000000000E+00 -0.00000000000E+00 -0.46984713829E+00  0.46985405805E+00  0.25500000000E-02 0.  1.
         31    1    1    2    0    0 -0.69098324193E+00  0.29886844343E+00  0.61901907844E+02  0.62352801869E+02  0.74470750000E+01 0. -1.
        -31    1    1    2    0    0  0.69098324193E+00 -0.29886844343E+00  0.57064190114E+02  0.57552997313E+02  0.74470750000E+01 0.  1.
<mgrwt>
<rscale>  0 0.14982263E+02</rscale>
<asrwt>0</asrwt>
<pdfrwt beam="2">  1        2 0.99788807E+00 0.14982263E+02</pdfrwt>
<pdfrwt beam="1">  1       -2 0.99146504E+00 0.14982263E+02</pdfrwt>
<totfact>-0.34674825E-14</totfact>
</mgrwt>
</event>
<event>
 4    1  0.5021037E-019  0.1492839E+02  0.7818608E-02  0.1870261E+00
         -2   -1    0    0    0  501 -0.00000000000E+00  0.00000000000E+00  0.11859497619E+03  0.11859497621E+03  0.25500000000E-02 0.  1.
          2   -1    0    0  501    0  0.00000000000E+00 -0.00000000000E+00 -0.46978227693E+00  0.46978919764E+00  0.25500000000E-02 0. -1.
         31    1    1    2    0    0 -0.13853831240E+00  0.86477878356E-01  0.55248946992E+02  0.55748827262E+02  0.74470750000E+01 0. -1.
        -31    1    1    2    0    0  0.13853831240E+00 -0.86477878356E-01  0.62876246918E+02  0.63315938151E+02  0.74470750000E+01 0.  1.
<mgrwt>
<rscale>  0 0.14928393E+02</rscale>
<asrwt>0</asrwt>
<pdfrwt beam="2">  1        2 0.99772313E+00 0.14928393E+02</pdfrwt>
<pdfrwt beam="1">  1       -2 0.98451079E+00 0.14928393E+02</pdfrwt>
<totfact> 0.33601282E-13</totfact>
</mgrwt>
</event>
<event>
 4    1 -0.5021037E-019  0.1496830E+02  0.7818608E-02  0.1869037E+00
          2   -1    0    0  501    0  0.00000000000E+00  0.00000000000E+00  0.11919285295E+03  0.11919285298E+03  0.25500000000E-02 0.  1.
         -2   -1    0    0    0  501 -0.00000000000E+00 -0.00000000000E+00 -0.46992816159E+00  0.46993508015E+00  0.25500000000E-02 0. -1.
         31    1    1    2    0    0 -0.57619409869E+00 -0.33721094677E+00  0.61986954299E+02  0.62436264623E+02  0.74470750000E+01 0.  1.
        -31    1    1    2    0    0  0.57619409869E+00  0.33721094677E+00  0.56735970494E+02  0.57226523438E+02  0.74470750000E+01 0.  1.
<mgrwt>
<rscale>  0 0.14968299E+02</rscale>
<asrwt>0</asrwt>
<pdfrwt beam="1">  1        2 0.98945566E+00 0.14968299E+02</pdfrwt>
<pdfrwt beam="2">  1       -2 0.99805149E+00 0.14968299E+02</pdfrwt>
<totfact>-0.10972677E-13</totfact>
</mgrwt>
</event>
<event>
 4    1  0.5021037E-019  0.1494320E+02  0.7818608E-02  0.1869807E+00
          2   -1    0    0  501    0  0.00000000000E+00  0.00000000000E+00  0.11997404152E+03  0.11997404155E+03  0.25500000000E-02 0. -1.
         -2   -1    0    0    0  501 -0.00000000000E+00 -0.00000000000E+00 -0.46530404478E+00  0.46531103209E+00  0.25500000000E-02 0.  1.
         31    1    1    2    0    0  0.24793756295E+00  0.42779793982E+00  0.56945909755E+02  0.57432917808E+02  0.74470750000E+01 0.  1.
        -31    1    1    2    0    0 -0.24793756295E+00 -0.42779793982E+00  0.62562827719E+02  0.63006434770E+02  0.74470750000E+01 0.  1.
<mgrwt>
<rscale>  0 0.14943203E+02</rscale>
<asrwt>0</asrwt>
<pdfrwt beam="1">  1        2 0.99587683E+00 0.14943203E+02</pdfrwt>
<pdfrwt beam="2">  1       -2 0.98829398E+00 0.14943203E+02</pdfrwt>
<totfact> 0.11395295E-13</totfact>
</mgrwt>
</event>
<event>
 4    1  0.5021037E-019  0.1490772E+02  0.7818608E-02  0.1870898E+00
         -2   -1    0    0    0  501 -0.00000000000E+00  0.00000000000E+00  0.11873638163E+03  0.11873638166E+03  0.25500000000E-02 0. -1.
          2   -1    0    0  501    0  0.00000000000E+00 -0.00000000000E+00 -0.46792411953E+00  0.46793106772E+00  0.25500000000E-02 0.  1.
         31    1    1    2    0    0 -0.29571586406E+00 -0.66998761481E-01  0.59899933459E+02  0.60361849633E+02  0.74470750000E+01 0. -1.
        -31    1    1    2    0    0  0.29571586406E+00  0.66998761481E-01  0.58368524051E+02  0.58842463091E+02  0.74470750000E+01 0. -1.
<mgrwt>
<rscale>  0 0.14907720E+02</rscale>
<asrwt>0</asrwt>
<pdfrwt beam="2">  1        2 0.99379700E+00 0.14907720E+02</pdfrwt>
<pdfrwt beam="1">  1       -2 0.98566466E+00 0.14907720E+02</pdfrwt>
<totfact> 0.44248557E-13</totfact>
</mgrwt>
</event>
<event>
 4    1 -0.5021037E-019  0.1494078E+02  0.7818608E-02  0.1869881E+00
          2   -1    0    0  501    0  0.00000000000E+00  0.00000000000E+00  0.11856740448E+03  0.11856740451E+03  0.25500000000E-02 0. -1.
         -2   -1    0    0    0  501 -0.00000000000E+00 -0.00000000000E+00 -0.47067163478E+00  0.47067854242E+00  0.25500000000E-02 0.  1.
         31    1    1    2    0    0  0.57199591304E+00  0.81374739475E-01  0.59991061082E+02  0.60454281378E+02  0.74470750000E+01 0.  1.
        -31    1    1    2    0    0 -0.57199591304E+00 -0.81374739475E-01  0.58105671762E+02  0.58583801670E+02  0.74470750000E+01 0. -1.
<mgrwt>
<rscale>  0 0.14940780E+02</rscale>
<asrwt>0</asrwt>
<pdfrwt beam="1">  1        2 0.98429016E+00 0.14940780E+02</pdfrwt>
<pdfrwt beam="2">  1       -2 0.99960354E+00 0.14940780E+02</pdfrwt>
<totfact>-0.52701959E-14</totfact>
</mgrwt>
</event>
<event>
 4    1 -0.5021037E-019  0.1495461E+02  0.7818608E-02  0.1869457E+00
         -2   -1    0    0    0  501 -0.00000000000E+00  0.00000000000E+00  0.12013018993E+03  0.12013018995E+03  0.25500000000E-02 0.  1.
          2   -1    0    0  501    0  0.00000000000E+00 -0.00000000000E+00 -0.46540902231E+00  0.46541600805E+00  0.25500000000E-02 0. -1.
         31    1    1    2    0    0 -0.51458125812E+00  0.40723852692E+00  0.58676829998E+02  0.59151161795E+02  0.74470750000E+01 0. -1.
        -31    1    1    2    0    0  0.51458125812E+00 -0.40723852692E+00  0.60987950905E+02  0.61444444165E+02  0.74470750000E+01 0.  1.
<mgrwt>
<rscale>  0 0.14954611E+02</rscale>
<asrwt>0</asrwt>
<pdfrwt beam="2">  1        2 0.98852105E+00 0.14954611E+02</pdfrwt>
<pdfrwt beam="1">  1       -2 0.99716885E+00 0.14954611E+02</pdfrwt>
<totfact>-0.16131390E-13</totfact>
</mgrwt>
</event>
<event>
 4    1 -0.5021037E-019  0.1493759E+02  0.7818608E-02  0.1869979E+00
          2   -1    0    0  501    0  0.00000000000E+00  0.00000000000E+00  0.11938709371E+03  0.11938709373E+03  0.25500000000E-02 0. -1.
         -2   -1    0    0    0  501 -0.00000000000E+00 -0.00000000000E+00 -0.46724043212E+00  0.46724739048E+00  0.25500000000E-02 0.  1.
         31    1    1    2    0    0  0.20124458809E+00  0.90306209985E-01  0.55249865889E+02  0.55749935080E+02  0.74470750000E+01 0.  1.
        -31    1    1    2    0    0 -0.20124458809E+00 -0.90306209985E-01  0.63669987386E+02  0.64104406045E+02  0.74470750000E+01 0. -1.
<mgrwt>
<rscale>  0 0.14937590E+02</rscale>
<asrwt>0</asrwt>
<pdfrwt beam="1">  1        2 0.99103955E+00 0.14937590E+02</pdfrwt>
<pdfrwt beam="2">  1       -2 0.99237187E+00 0.14937590E+02</pdfrwt>
<totfact>-0.12209938E-13</totfact>
</mgrwt>
</event>
<event>
 4    1 -0.5021037E-019  0.1495591E+02  0.7818608E-02  0.1869417E+00
         -2   -1    0    0    0  501 -0.00000000000E+00  0.00000000000E+00  0.11978013435E+03  0.11978013437E+03  0.25500000000E-02 0. -1.
          2   -1    0    0  501    0  0.00000000000E+00 -0.00000000000E+00 -0.46685028530E+00  0.46685724947E+00  0.25500000000E-02 0.  1.
         31    1    1    2    0    0 -0.41591919057E+00 -0.16741375431E+00  0.63755263559E+02  0.64190291895E+02  0.74470750000E+01 0. -1.
        -31    1    1    2    0    0  0.41591919057E+00  0.16741375431E+00  0.55558020503E+02  0.56056699729E+02  0.74470750000E+01 0.  1.
<mgrwt>
<rscale>  0 0.14955910E+02</rscale>
<asrwt>0</asrwt>
<pdfrwt beam="2">  1        2 0.99155915E+00 0.14955910E+02</pdfrwt>
<pdfrwt beam="1">  1       -2 0.99428626E+00 0.14955910E+02</pdfrwt>
<totfact>-0.15540136E-13</totfact>
</mgrwt>
</event>
<event>
 4    1  0.5021037E-019  0.1490377E+02  0.7818608E-02  0.1871019E+00
         -2   -1    0    0    0  501 -0.00000000000E+00  0.00000000000E+00  0.11873830208E+03  0.11873830211E+03  0.25500000000E-02 0.  1.
          2   -1    0    0  501    0  0.00000000000E+00 -0.00000000000E+00 -0.46766876339E+00  0.46767571538E+00  0.25500000000E-02 0. -1.
         31    1    1    2    0    0  0.16855171913E-01  0.26181621343E+00  0.59562538508E+02  0.60026858584E+02  0.74470750000E+01 0.  1.
        -31    1    1    2    0    0 -0.16855171913E-01 -0.26181621343E+00  0.58708094808E+02  0.59179119239E+02  0.74470750000E+01 0. -1.
<mgrwt>
<rscale>  0 0.14903773E+02</rscale>
<asrwt>0</asrwt>
<pdfrwt beam="2">  1        2 0.99325686E+00 0.14903773E+02</pdfrwt>
<pdfrwt beam="1">  1       -2 0.98567843E+00 0.14903773E+02</pdfrwt>
<totfact> 0.45889282E-13</totfact>
</mgrwt>
</event>
<event>
 4    1 -0.5021037E-019  0.1500472E+02  0.7818608E-02  0.1867925E+00
          2   -1    0    0  501    0  0.00000000000E+00  0.00000000000E+00  0.11994530388E+03  0.11994530391E+03  0.25500000000E-02 0.  1.
         -2   -1    0    0    0  501 -0.00000000000E+00 -0.00000000000E+00 -0.46925530371E+00  0.46926223219E+00  0.25500000000E-02 0. -1.
         31    1    1    2    0    0 -0.32216584672E+00 -0.26218140991E+00  0.53248426892E+02  0.53768265942E+02  0.74470750000E+01 0. -1.
        -31    1    1    2    0    0  0.32216584672E+00  0.26218140991E+00  0.66227621688E+02  0.66646300201E+02  0.74470750000E+01 0.  1.
<mgrwt>
<rscale>  0 0.15004718E+02</rscale>
<asrwt>0</asrwt>
<pdfrwt beam="1">  1        2 0.99567188E+00 0.15004718E+02</pdfrwt>
<pdfrwt beam="2">  1       -2 0.99665260E+00 0.15004718E+02</pdfrwt>
<totfact>-0.94625990E-14</totfact>
</mgrwt>
</event>
<event>
 4    1 -0.5021037E-019  0.1492810E+02  0.7818608E-02  0.1870271E+00
         -2   -1    0    0    0  501 -0.00000000000E+00  0.00000000000E+00  0.12040363042E+03  0.12040363045E+03  0.25500000000E-02 0.  1.
          2   -1    0    0  501    0  0.00000000000E+00 -0.00000000000E+00 -0.46270683958E+00  0.46271386612E+00  0.25500000000E-02 0. -1.
         31    1    1    2    0    0  0.32118732075E+00  0.37776891491E+00  0.60658092143E+02  0.61115537624E+02  0.74470750000E+01 0.  1.
        -31    1    1    2    0    0 -0.32118732075E+00 -0.37776891491E+00  0.59282831439E+02  0.59750806690E+02  0.74470750000E+01 0. -1.
<mgrwt>
<rscale>  0 0.14928096E+02</rscale>
<asrwt>0</asrwt>
<pdfrwt beam="2">  1        2 0.98281233E+00 0.14928096E+02</pdfrwt>
<pdfrwt beam="1">  1       -2 0.99940750E+00 0.14928096E+02</pdfrwt>
<totfact>-0.99450739E-14</totfact>
</mgrwt>
</event>
<event>
 4    1  0.5021037E-019  0.1492307E+02  0.7818608E-02  0.1870425E+00
          2   -1    0    0  501    0  0.00000000000E+00  0.00000000000E+00  0.11984155944E+03  0.11984155946E+03  0.25500000000E-02 0. -1.
         -2   -1    0    0    0  501 -0.00000000000E+00 -0.00000000000E+00 -0.46456403150E+00  0.46457102994E+00  0.25500000000E-02 0.  1.
         31    1    1    2    0    0 -0.44096013568E+00 -0.88511325271E-01  0.58758964702E+02  0.59230711114E+02  0.74470750000E+01 0. -1.
        -31    1    1    2    0    0  0.44096013568E+00  0.88511325271E-01  0.60618030704E+02  0.61075419381E+02  0.74470750000E+01 0.  1.
<mgrwt>
<rscale>  0 0.14923069E+02</rscale>
<asrwt>0</asrwt>
<pdfrwt beam="1">  1        2 0.99477526E+00 0.14923069E+02</pdfrwt>
<pdfrwt beam="2">  1       -2 0.98672408E+00 0.14923069E+02</pdfrwt>
<totfact> 0.28090534E-13</totfact>
</mgrwt>
</event>
<event>
 4    1  0.5021037E-019  0.1494797E+02  0.7818608E-02  0.1869660E+00
         -2   -1    0    0    0  501 -0.00000000000E+00  0.00000000000E+00  0.11881632238E+03  0.11881632241E+03  0.25500000000E-02 0. -1.
          2   -1    0    0  501    0  0.00000000000E+00 -0.00000000000E+00 -0.47013760635E+00  0.47014452182E+00  0.25500000000E-02 0.  1.
         31    1    1    2    0    0  0.34273269282E+00 -0.53128029780E+00  0.59510244612E+02  0.59977728069E+02  0.74470750000E+01 0. -1.
        -31    1    1    2    0    0 -0.34273269282E+00  0.53128029780E+00  0.58835940161E+02  0.59308738860E+02  0.74470750000E+01 0. -1.
<mgrwt>
<rscale>  0 0.14947968E+02</rscale>
<asrwt>0</asrwt>
<pdfrwt beam="2">  1        2 0.99848213E+00 0.14947968E+02</pdfrwt>
<pdfrwt beam="1">  1       -2 0.98634397E+00 0.14947968E+02</pdfrwt>
<totfact> 0.13921194E-13</totfact>
</mgrwt>
</event>
<event>
 4    1 -0.5021037E-019  0.1493630E+02  0.7818608E-02  0.1870018E+00
          2   -1    0    0  501    0  0.00000000000E+00  0.00000000000E+00  0.11856974918E+03  0.11856974921E+03  0.25500000000E-02 0.  1.
         -2   -1    0    0    0  501 -0.00000000000E+00 -0.00000000000E+00 -0.47038035009E+00  0.47038726200E+00  0.25500000000E-02 0. -1.
         31    1    1    2    0    0 -0.46873031785E+00  0.30139632565E+00  0.58557147019E+02  0.59031423334E+02  0.74470750000E+01 0.  1.
        -31    1    1    2    0    0  0.46873031785E+00 -0.30139632565E+00  0.59542221814E+02  0.60008713138E+02  0.74470750000E+01 0. -1.
<mgrwt>
<rscale>  0 0.14936304E+02</rscale>
<asrwt>0</asrwt>
<pdfrwt beam="1">  1        2 0.98430714E+00 0.14936304E+02</pdfrwt>
<pdfrwt beam="2">  1       -2 0.99898744E+00 0.14936304E+02</pdfrwt>
<totfact>-0.12787096E-13</totfact>
</mgrwt>
</event>
<event>
 4    1  0.5021037E-019  0.1492283E+02  0.7818608E-02  0.1870433E+00
         -2   -1    0    0    0  501 -0.00000000000E+00  0.00000000000E+00  0.11871733555E+03  0.11871733558E+03  0.25500000000E-02 0. -1.
          2   -1    0    0  501    0  0.00000000000E+00 -0.00000000000E+00 -0.46894822605E+00  0.46895515906E+00  0.25500000000E-02 0.  1.
         31    1    1    2    0    0  0.42486461108E+00 -0.47866876950E-02  0.57668049636E+02  0.58148460063E+02  0.74470750000E+01 0.  1.
        -31    1    1    2    0    0 -0.42486461108E+00  0.47866876950E-02  0.60580337689E+02  0.61037830674E+02  0.74470750000E+01 0.  1.
<mgrwt>
<rscale>  0 0.14922828E+02</rscale>
<asrwt>0</asrwt>
<pdfrwt beam="2">  1        2 0.99596282E+00 0.14922828E+02</pdfrwt>
<pdfrwt beam="1">  1       -2 0.98551564E+00 0.14922828E+02</pdfrwt>
<totfact> 0.37052298E-13</totfact>
</mgrwt>
</event>
<event>
 4    1 -0.5021037E-019  0.1495478E+02  0.7818608E-02  0.1869451E+00
         -2   -1    0    0    0  501 -0.00000000000E+00  0.00000000000E+00  0.11959496746E+03  0.11959496749E+03  0.25500000000E-02 0. -1.
          2   -1    0    0  501    0  0.00000000000E+00 -0.00000000000E+00 -0.46750274214E+00  0.46750969660E+00  0.25500000000E-02 0.  1.
         31    1    1    2    0    0  0.43669780842E+00  0.16600403881E+00  0.63449046419E+02  0.63886294930E+02  0.74470750000E+01 0. -1.
        -31    1    1    2    0    0 -0.43669780842E+00 -0.16600403881E+00  0.55678418297E+02  0.56176182252E+02  0.74470750000E+01 0.  1.
<mgrwt>
<rscale>  0 0.14954784E+02</rscale>
<asrwt>0</asrwt>
<pdfrwt beam="2">  1        2 0.99293354E+00 0.14954784E+02</pdfrwt>
<pdfrwt beam="1">  1       -2 0.99276056E+00 0.14954784E+02</pdfrwt>
<totfact>-0.11705224E-13</totfact>
</mgrwt>
</event>
<event>
 4    1  0.5021037E-019  0.1491419E+02  0.7818608E-02  0.1870698E+00
         -2   -1    0    0    0  501 -0.00000000000E+00  0.00000000000E+00  0.11820067370E+03  0.11820067373E+03  0.25500000000E-02 0.  1.
          2   -1    0    0  501    0  0.00000000000E+00 -0.00000000000E+00 -0.47045314339E+00  0.47046005423E+00  0.25500000000E-02 0. -1.
         31    1    1    2    0    0  0.19273715623E+00  0.16941900952E+00  0.61164561675E+02  0.61616786523E+02  0.74470750000E+01 0.  1.
        -31    1    1    2    0    0 -0.19273715623E+00 -0.16941900952E+00  0.56565658885E+02  0.57054347262E+02  0.74470750000E+01 0. -1.
<mgrwt>
<rscale>  0 0.14914193E+02</rscale>
<asrwt>0</asrwt>
<pdfrwt beam="2">  1        2 0.99912910E+00 0.14914193E+02</pdfrwt>
<pdfrwt beam="1">  1       -2 0.98125596E+00 0.14914193E+02</pdfrwt>
<totfact> 0.30696350E-13</totfact>
</mgrwt>
</event>
<event>
 4    1  0.5021037E-019  0.1491630E+02  0.7818608E-02  0.1870634E+00
          2   -1    0    0  501    0  0.00000000000E+00  0.00000000000E+00  0.12000879772E+03  0.12000879774E+03  0.25500000000E-02 0. -1.
         -2   -1    0    0    0  501 -0.00000000000E+00 -0.00000000000E+00 -0.46349559396E+00  0.46350260854E+00  0.25500000000E-02 0.  1.
         31    1    1    2    0    0  0.27417871203E+00 -0.19771352130E+00  0.61592700440E+02  0.62042194820E+02  0.74470750000E+01 0. -1.
        -31    1    1    2    0    0 -0.27417871203E+00  0.19771352130E+00  0.57952601683E+02  0.58430105532E+02  0.74470750000E+01 0.  1.
<mgrwt>
<rscale>  0 0.14916296E+02</rscale>
<asrwt>0</asrwt>
<pdfrwt beam="1">  1        2 0.99614927E+00 0.14916296E+02</pdfrwt>
<pdfrwt beam="2">  1       -2 0.98446881E+00 0.14916296E+02</pdfrwt>
<totfact> 0.48468345E-13</totfact>
</mgrwt>
</event>
<event>
 4    1 -0.5021037E-019  0.1497985E+02  0.7818608E-02  0.1868684E+00
          2   -1    0    0  501    0  0.00000000000E+00  0.00000000000E+00  0.11970172784E+03  0.11970172787E+03  0.25500000000E-02 0. -1.
         -2   -1    0    0    0  501 -0.00000000000E+00 -0.00000000000E+00 -0.46865256326E+00  0.46865950065E+00  0.25500000000E-02 0.  1.
         31    1    1    2    0    0  0.69322381771E+00  0.16820179909E+00  0.62521868625E+02  0.62967863498E+02  0.74470750000E+01 0.  1.
        -31    1    1    2    0    0 -0.69322381771E+00 -0.16820179909E+00  0.56711206654E+02  0.57202523872E+02  0.74470750000E+01 0.  1.
<mgrwt>
<rscale>  0 0.14979845E+02</rscale>
<asrwt>0</asrwt>
<pdfrwt beam="1">  1        2 0.99365284E+00 0.14979845E+02</pdfrwt>
<pdfrwt beam="2">  1       -2 0.99536955E+00 0.14979845E+02</pdfrwt>
<totfact>-0.13240759E-13</totfact>
</mgrwt>
</event>
<event>
 4    1 -0.5021037E-019  0.1493947E+02  0.7818608E-02  0.1869921E+00
         -2   -1    0    0    0  501 -0.00000000000E+00  0.00000000000E+00  0.12035663397E+03  0.12035663400E+03  0.25500000000E-02 0.  1.
          2   -1    0    0  501    0  0.00000000000E+00 -0.00000000000E+00 -0.46359296869E+00  0.46359998180E+00  0.25500000000E-02 0. -1.
         31    1    1    2    0    0  0.11427754125E+00  0.13225582121E+00  0.64430700348E+02  0.64859884554E+02  0.74470750000E+01 0. -1.
        -31    1    1    2    0    0 -0.11427754125E+00 -0.13225582121E+00  0.55462340656E+02  0.55960349427E+02  0.74470750000E+01 0. -1.
<mgrwt>
<rscale>  0 0.14939466E+02</rscale>
<asrwt>0</asrwt>
<pdfrwt beam="2">  1        2 0.98468579E+00 0.14939466E+02</pdfrwt>
<pdfrwt beam="1">  1       -2 0.99902623E+00 0.14939466E+02</pdfrwt>
<totfact>-0.11590376E-13</totfact>
</mgrwt>
</event>
<event>
 4    1 -0.5021037E-019  0.1501028E+02  0.7818608E-02  0.1867755E+00
          2   -1    0    0  501    0  0.00000000000E+00  0.00000000000E+00  0.12029288531E+03  0.12029288534E+03  0.25500000000E-02 0.  1.
         -2   -1    0    0    0  501 -0.00000000000E+00 -0.00000000000E+00 -0.46824643256E+00  0.46825337597E+00  0.25500000000E-02 0. -1.
         31    1    1    2    0    0 -0.37077633582E+00  0.58214048388E+00  0.64948443424E+02  0.65377638317E+02  0.74470750000E+01 0.  1.
        -31    1    1    2    0    0  0.37077633582E+00 -0.58214048388E+00  0.54876195458E+02  0.55383500401E+02  0.74470750000E+01 0. -1.
<mgrwt>
<rscale>  0 0.15010281E+02</rscale>
<asrwt>0</asrwt>
<pdfrwt beam="1">  1        2 0.99853759E+00 0.15010281E+02</pdfrwt>
<pdfrwt beam="2">  1       -2 0.99452939E+00 0.15010281E+02</pdfrwt>
<totfact>-0.50856193E-14</totfact>
</mgrwt>
</event>
<event>
 4    1 -0.5021037E-019  0.1498983E+02  0.7818608E-02  0.1868379E+00
         -2   -1    0    0    0  501 -0.00000000000E+00  0.00000000000E+00  0.11953737746E+03  0.11953737748E+03  0.25500000000E-02 0. -1.
          2   -1    0    0  501    0  0.00000000000E+00 -0.00000000000E+00 -0.46992305339E+00  0.46992997203E+00  0.25500000000E-02 0.  1.
         31    1    1    2    0    0 -0.66061629143E-01  0.74659802164E+00  0.56401303166E+02  0.56895761684E+02  0.74470750000E+01 0.  1.
        -31    1    1    2    0    0  0.66061629143E-01 -0.74659802164E+00  0.62666151237E+02  0.63111545771E+02  0.74470750000E+01 0. -1.
<mgrwt>
<rscale>  0 0.14989835E+02</rscale>
<asrwt>0</asrwt>
<pdfrwt beam="2">  1        2 0.99805198E+00 0.14989835E+02</pdfrwt>
<pdfrwt beam="1">  1       -2 0.99230438E+00 0.14989835E+02</pdfrwt>
<totfact>-0.47097737E-14</totfact>
</mgrwt>
</event>
<event>
 4    1 -0.5021037E-019  0.1492235E+02  0.7818608E-02  0.1870447E+00
         -2   -1    0    0    0  501 -0.00000000000E+00  0.00000000000E+00  0.11978327360E+03  0.11978327363E+03  0.25500000000E-02 0.  1.
          2   -1    0    0  501    0  0.00000000000E+00 -0.00000000000E+00 -0.46474500754E+00  0.46475200326E+00  0.25500000000E-02 0. -1.
         31    1    1    2    0    0  0.88356341576E-02 -0.18906483765E+00  0.63024016407E+02  0.63462755957E+02  0.74470750000E+01 0.  1.
        -31    1    1    2    0    0 -0.88356341576E-02  0.18906483765E+00  0.56294512185E+02  0.56785269672E+02  0.74470750000E+01 0. -1.
<mgrwt>
<rscale>  0 0.14922346E+02</rscale>
<asrwt>0</asrwt>
<pdfrwt beam="2">  1        2 0.98710513E+00 0.14922346E+02</pdfrwt>
<pdfrwt beam="1">  1       -2 0.99429481E+00 0.14922346E+02</pdfrwt>
<totfact>-0.25022523E-13</totfact>
</mgrwt>
</event>
<event>
 4    1 -0.5021037E-019  0.1496236E+02  0.7818608E-02  0.1869219E+00
          2   -1    0    0  501    0  0.00000000000E+00  0.00000000000E+00  0.11938066357E+03  0.11938066360E+03  0.25500000000E-02 0.  1.
         -2   -1    0    0    0  501 -0.00000000000E+00 -0.00000000000E+00 -0.46881673520E+00  0.46882367016E+00  0.25500000000E-02 0. -1.
         31    1    1    2    0    0 -0.64326508744E+00  0.45103584786E-01  0.57008985870E+02  0.57496949661E+02  0.74470750000E+01 0. -1.
        -31    1    1    2    0    0  0.64326508744E+00 -0.45103584786E-01  0.61902860963E+02  0.62352537605E+02  0.74470750000E+01 0.  1.
<mgrwt>
<rscale>  0 0.14962362E+02</rscale>
<asrwt>0</asrwt>
<pdfrwt beam="1">  1        2 0.99099942E+00 0.14962362E+02</pdfrwt>
<pdfrwt beam="2">  1       -2 0.99570642E+00 0.14962362E+02</pdfrwt>
<totfact>-0.15771043E-13</totfact>
</mgrwt>
</event>
<event>
 4    1 -0.5021037E-019  0.1497747E+02  0.7818608E-02  0.1868757E+00
         -2   -1    0    0    0  501 -0.00000000000E+00  0.00000000000E+00  0.12025704482E+03  0.12025704485E+03  0.25500000000E-02 0.  1.
          2   -1    0    0  501    0  0.00000000000E+00 -0.00000000000E+00 -0.46634060733E+00  0.46634757911E+00  0.25500000000E-02 0. -1.
         31    1    1    2    0    0 -0.61324517057E+00 -0.39691680519E+00  0.62294937850E+02  0.62742743169E+02  0.74470750000E+01 0.  1.
        -31    1    1    2    0    0  0.61324517057E+00  0.39691680519E+00  0.57495766366E+02  0.57980649261E+02  0.74470750000E+01 0. -1.
<mgrwt>
<rscale>  0 0.14977472E+02</rscale>
<asrwt>0</asrwt>
<pdfrwt beam="2">  1        2 0.99049608E+00 0.14977472E+02</pdfrwt>
<pdfrwt beam="1">  1       -2 0.99822547E+00 0.14977472E+02</pdfrwt>
<totfact>-0.91962019E-14</totfact>
</mgrwt>
</event>
<event>
 4    1  0.5021037E-019  0.1489490E+02  0.7818608E-02  0.1871293E+00
         -2   -1    0    0    0  501 -0.00000000000E+00  0.00000000000E+00  0.11817363821E+03  0.11817363824E+03  0.25500000000E-02 0.  1.
          2   -1    0    0  501    0  0.00000000000E+00 -0.00000000000E+00 -0.46934434277E+00  0.46935126993E+00  0.25500000000E-02 0. -1.
         31    1    1    2    0    0 -0.55234976946E-01  0.27357495190E-01  0.58512732777E+02  0.58984766020E+02  0.74470750000E+01 0. -1.
        -31    1    1    2    0    0  0.55234976946E-01 -0.27357495190E-01  0.59191561092E+02  0.59658223489E+02  0.74470750000E+01 0.  1.
<mgrwt>
<rscale>  0 0.14894904E+02</rscale>
<asrwt>0</asrwt>
<pdfrwt beam="2">  1        2 0.99678272E+00 0.14894904E+02</pdfrwt>
<pdfrwt beam="1">  1       -2 0.98102325E+00 0.14894904E+02</pdfrwt>
<totfact> 0.91417155E-13</totfact>
</mgrwt>
</event>
<event>
 4    1 -0.5021037E-019  0.1490308E+02  0.7818608E-02  0.1871041E+00
         -2   -1    0    0    0  501 -0.00000000000E+00  0.00000000000E+00  0.12002490436E+03  0.12002490438E+03  0.25500000000E-02 0.  1.
          2   -1    0    0  501    0  0.00000000000E+00 -0.00000000000E+00 -0.46261238835E+00  0.46261941632E+00  0.25500000000E-02 0. -1.
         31    1    1    2    0    0  0.57967626015E-01 -0.20026158509E+00  0.58553923701E+02  0.59025963540E+02  0.74470750000E+01 0. -1.
        -31    1    1    2    0    0 -0.57967626015E-01  0.20026158509E+00  0.61008368268E+02  0.61461560261E+02  0.74470750000E+01 0.  1.
<mgrwt>
<rscale>  0 0.14903078E+02</rscale>
<asrwt>0</asrwt>
<pdfrwt beam="2">  1        2 0.98260061E+00 0.14903078E+02</pdfrwt>
<pdfrwt beam="1">  1       -2 0.99627515E+00 0.14903078E+02</pdfrwt>
<totfact>-0.47035201E-13</totfact>
</mgrwt>
</event>
<event>
 4    1 -0.5021037E-019  0.1496949E+02  0.7818608E-02  0.1869001E+00
          2   -1    0    0  501    0  0.00000000000E+00  0.00000000000E+00  0.11951658028E+03  0.11951658030E+03  0.25500000000E-02 0. -1.
         -2   -1    0    0    0  501 -0.00000000000E+00 -0.00000000000E+00 -0.46872974011E+00  0.46873667636E+00  0.25500000000E-02 0.  1.
         31    1    1    2    0    0  0.27753744443E+00  0.69512574153E+00  0.59144530024E+02  0.59616227528E+02  0.74470750000E+01 0.  1.
        -31    1    1    2    0    0 -0.27753744443E+00 -0.69512574153E+00  0.59903320512E+02  0.60369089451E+02  0.74470750000E+01 0. -1.
<mgrwt>
<rscale>  0 0.14969488E+02</rscale>
<asrwt>0</asrwt>
<pdfrwt beam="1">  1        2 0.99212255E+00 0.14969488E+02</pdfrwt>
<pdfrwt beam="2">  1       -2 0.99552681E+00 0.14969488E+02</pdfrwt>
<totfact>-0.14662461E-13</totfact>
</mgrwt>
</event>
<event>
 4    1  0.5021037E-019  0.1492379E+02  0.7818608E-02  0.1870403E+00
          2   -1    0    0  501    0  0.00000000000E+00  0.00000000000E+00  0.11996196819E+03  0.11996196822E+03  0.25500000000E-02 0. -1.
         -2   -1    0    0    0  501 -0.00000000000E+00 -0.00000000000E+00 -0.46414278465E+00  0.46414978945E+00  0.25500000000E-02 0.  1.
         31    1    1    2    0    0 -0.43328940941E-01 -0.45671882680E+00  0.58921657469E+02  0.59392180583E+02  0.74470750000E+01 0. -1.
        -31    1    1    2    0    0  0.43328940941E-01  0.45671882680E+00  0.60576167937E+02  0.61033937424E+02  0.74470750000E+01 0. -1.
<mgrwt>
<rscale>  0 0.14923794E+02</rscale>
<asrwt>0</asrwt>
<pdfrwt beam="1">  1        2 0.99576740E+00 0.14923794E+02</pdfrwt>
<pdfrwt beam="2">  1       -2 0.98583665E+00 0.14923794E+02</pdfrwt>
<totfact> 0.34400679E-13</totfact>
</mgrwt>
</event>
<event>
 4    1  0.5021037E-019  0.1492030E+02  0.7818608E-02  0.1870510E+00
          2   -1    0    0  501    0  0.00000000000E+00  0.00000000000E+00  0.11987699957E+03  0.11987699960E+03  0.25500000000E-02 0. -1.
         -2   -1    0    0    0  501 -0.00000000000E+00 -0.00000000000E+00 -0.46425421649E+00  0.46426121961E+00  0.25500000000E-02 0.  1.
         31    1    1    2    0    0  0.15568324343E-01 -0.27167290333E+00  0.56902475700E+02  0.57388367422E+02  0.74470750000E+01 0.  1.
        -31    1    1    2    0    0 -0.15568324343E-01  0.27167290333E+00  0.62510269658E+02  0.62952893399E+02  0.74470750000E+01 0. -1.
<mgrwt>
<rscale>  0 0.14920298E+02</rscale>
<asrwt>0</asrwt>
<pdfrwt beam="1">  1        2 0.99506574E+00 0.14920298E+02</pdfrwt>
<pdfrwt beam="2">  1       -2 0.98606972E+00 0.14920298E+02</pdfrwt>
<totfact> 0.34597947E-13</totfact>
</mgrwt>
</event>
<event>
 4    1 -0.5021037E-019  0.1489576E+02  0.7818608E-02  0.1871266E+00
          2   -1    0    0  501    0  0.00000000000E+00  0.00000000000E+00  0.11834105175E+03  0.11834105178E+03  0.25500000000E-02 0.  1.
         -2   -1    0    0    0  501 -0.00000000000E+00 -0.00000000000E+00 -0.46873434893E+00  0.46874128511E+00  0.25500000000E-02 0. -1.
         31    1    1    2    0    0  0.68182233232E-01 -0.47971794575E-01  0.58369163467E+02  0.58842375207E+02  0.74470750000E+01 0.  1.
        -31    1    1    2    0    0 -0.68182233232E-01  0.47971794575E-01  0.59503153938E+02  0.59967417859E+02  0.74470750000E+01 0. -1.
<mgrwt>
<rscale>  0 0.14895762E+02</rscale>
<asrwt>0</asrwt>
<pdfrwt beam="1">  1        2 0.98240250E+00 0.14895762E+02</pdfrwt>
<pdfrwt beam="2">  1       -2 0.99549793E+00 0.14895762E+02</pdfrwt>
<totfact>-0.52461756E-13</totfact>
</mgrwt>
</event>
<event>
 4    1 -0.5021037E-019  0.1497504E+02  0.7818608E-02  0.1868831E+00
          2   -1    0    0  501    0  0.00000000000E+00  0.00000000000E+00  0.11958095712E+03  0.11958095715E+03  0.25500000000E-02 0. -1.
         -2   -1    0    0    0  501 -0.00000000000E+00 -0.00000000000E+00 -0.46882527477E+00  0.46883220960E+00  0.25500000000E-02 0.  1.
         31    1    1    2    0    0  0.22987093828E+00 -0.35286492066E+00  0.64792805887E+02  0.65220732709E+02  0.74470750000E+01 0. -1.
        -31    1    1    2    0    0 -0.22987093828E+00  0.35286492066E+00  0.54319325957E+02  0.54829056647E+02  0.74470750000E+01 0.  1.
<mgrwt>
<rscale>  0 0.14975045E+02</rscale>
<asrwt>0</asrwt>
<pdfrwt beam="1">  1        2 0.99265565E+00 0.14975045E+02</pdfrwt>
<pdfrwt beam="2">  1       -2 0.99573101E+00 0.14975045E+02</pdfrwt>
<totfact>-0.13899839E-13</totfact>
</mgrwt>
</event>
<event>
 4    1 -0.5021037E-019  0.1493430E+02  0.7818608E-02  0.1870080E+00
         -2   -1    0    0    0  501 -0.00000000000E+00  0.00000000000E+00  0.12000658106E+03  0.12000658109E+03  0.25500000000E-02 0.  1.
          2   -1    0    0  501    0  0.00000000000E+00 -0.00000000000E+00 -0.46462365831E+00  0.46463065586E+00  0.25500000000E-02 0. -1.
         31    1    1    2    0    0 -0.12802041577E+00 -0.33994793694E-01  0.55488387390E+02  0.55986048317E+02  0.74470750000E+01 0. -1.
        -31    1    1    2    0    0  0.12802041577E+00  0.33994793694E-01  0.64053570016E+02  0.64485163431E+02  0.74470750000E+01 0.  1.
<mgrwt>
<rscale>  0 0.14934299E+02</rscale>
<asrwt>0</asrwt>
<pdfrwt beam="2">  1        2 0.98685548E+00 0.14934299E+02</pdfrwt>
<pdfrwt beam="1">  1       -2 0.99614027E+00 0.14934299E+02</pdfrwt>
<totfact>-0.24091816E-13</totfact>
</mgrwt>
</event>
<event>
 4    1  0.5021037E-019  0.1493209E+02  0.7818608E-02  0.1870148E+00
         -2   -1    0    0    0  501 -0.00000000000E+00  0.00000000000E+00  0.11898205489E+03  0.11898205492E+03  0.25500000000E-02 0.  1.
          2   -1    0    0  501    0  0.00000000000E+00 -0.00000000000E+00 -0.46848594388E+00  0.46849288374E+00  0.25500000000E-02 0. -1.
         31    1    1    2    0    0 -0.48422629035E+00  0.48645072579E-01  0.57539779822E+02  0.58021737560E+02  0.74470750000E+01 0. -1.
        -31    1    1    2    0    0  0.48422629035E+00 -0.48645072579E-01  0.60973789124E+02  0.61428810241E+02  0.74470750000E+01 0.  1.
<mgrwt>
<rscale>  0 0.14932091E+02</rscale>
<asrwt>0</asrwt>
<pdfrwt beam="2">  1        2 0.99499359E+00 0.14932091E+02</pdfrwt>
<pdfrwt beam="1">  1       -2 0.98770070E+00 0.14932091E+02</pdfrwt>
<totfact> 0.17801516E-13</totfact>
</mgrwt>
</event>
<event>
 4    1 -0.5021037E-019  0.1492941E+02  0.7818608E-02  0.1870230E+00
         -2   -1    0    0    0  501 -0.00000000000E+00  0.00000000000E+00  0.12024827182E+03  0.12024827184E+03  0.25500000000E-02 0.  1.
          2   -1    0    0  501    0  0.00000000000E+00 -0.00000000000E+00 -0.46338620358E+00  0.46339321981E+00  0.25500000000E-02 0. -1.
         31    1    1    2    0    0  0.48553406913E+00 -0.38303967444E-01  0.58596776983E+02  0.59070114350E+02  0.74470750000E+01 0.  1.
        -31    1    1    2    0    0 -0.48553406913E+00  0.38303967444E-01  0.61188108629E+02  0.61641550712E+02  0.74470750000E+01 0. -1.
<mgrwt>
<rscale>  0 0.14929409E+02</rscale>
<asrwt>0</asrwt>
<pdfrwt beam="2">  1        2 0.98424490E+00 0.14929409E+02</pdfrwt>
<pdfrwt beam="1">  1       -2 0.99812850E+00 0.14929409E+02</pdfrwt>
<totfact>-0.22123287E-13</totfact>
</mgrwt>
</event>
<event>
 4    1 -0.5021037E-019  0.1499297E+02  0.7818608E-02  0.1868283E+00
          2   -1    0    0  501    0  0.00000000000E+00  0.00000000000E+00  0.11992860111E+03  0.11992860114E+03  0.25500000000E-02 0. -1.
         -2   -1    0    0    0  501 -0.00000000000E+00 -0.00000000000E+00 -0.46858630147E+00  0.46859323984E+00  0.25500000000E-02 0.  1.
         31    1    1    2    0    0  0.73451200038E+00  0.24916363915E+00  0.56759876572E+02  0.57251586047E+02  0.74470750000E+01 0. -1.
        -31    1    1    2    0    0 -0.73451200038E+00 -0.24916363915E+00  0.62700138239E+02  0.63145608332E+02  0.74470750000E+01 0. -1.
<mgrwt>
<rscale>  0 0.14992974E+02</rscale>
<asrwt>0</asrwt>
<pdfrwt beam="1">  1        2 0.99552824E+00 0.14992974E+02</pdfrwt>
<pdfrwt beam="2">  1       -2 0.99523671E+00 0.14992974E+02</pdfrwt>
<totfact>-0.11157665E-13</totfact>
</mgrwt>
</event>
<event>
 4    1  0.5021037E-019  0.1491726E+02  0.7818608E-02  0.1870604E+00
          2   -1    0    0  501    0  0.00000000000E+00  0.00000000000E+00  0.12008759919E+03  0.12008759922E+03  0.25500000000E-02 0. -1.
         -2   -1    0    0    0  501 -0.00000000000E+00 -0.00000000000E+00 -0.46325139541E+00  0.46325841368E+00  0.25500000000E-02 0.  1.
         31    1    1    2    0    0 -0.10887314728E+00 -0.40049094702E+00  0.59809122852E+02  0.60272401219E+02  0.74470750000E+01 0. -1.
        -31    1    1    2    0    0  0.10887314728E+00  0.40049094702E+00  0.59815224947E+02  0.60278456416E+02  0.74470750000E+01 0.  1.
<mgrwt>
<rscale>  0 0.14917261E+02</rscale>
<asrwt>0</asrwt>
<pdfrwt beam="1">  1        2 0.99679884E+00 0.14917261E+02</pdfrwt>
<pdfrwt beam="2">  1       -2 0.98395461E+00 0.14917261E+02</pdfrwt>
<totfact> 0.49189596E-13</totfact>
</mgrwt>
</event>
<event>
 4    1  0.5021037E-019  0.1495469E+02  0.7818608E-02  0.1869454E+00
         -2   -1    0    0    0  501 -0.00000000000E+00  0.00000000000E+00  0.11890058983E+03  0.11890058986E+03  0.25500000000E-02 0. -1.
          2   -1    0    0  501    0  0.00000000000E+00 -0.00000000000E+00 -0.47022734028E+00  0.47023425444E+00  0.25500000000E-02 0.  1.
         31    1    1    2    0    0 -0.16958760998E+00  0.22245118771E-01  0.64403843017E+02  0.64833195018E+02  0.74470750000E+01 0. -1.
        -31    1    1    2    0    0  0.16958760998E+00 -0.22245118771E-01  0.54026519475E+02  0.54537629096E+02  0.74470750000E+01 0.  1.
<mgrwt>
<rscale>  0 0.14954695E+02</rscale>
<asrwt>0</asrwt>
<pdfrwt beam="2">  1        2 0.99867475E+00 0.14954695E+02</pdfrwt>
<pdfrwt beam="1">  1       -2 0.98704149E+00 0.14954695E+02</pdfrwt>
<totfact> 0.94725732E-14</totfact>
</mgrwt>
</event>
<event>
 4    1  0.5021037E-019  0.1494276E+02  0.7818608E-02  0.1869820E+00
         -2   -1    0    0    0  501 -0.00000000000E+00  0.00000000000E+00  0.11881338372E+03  0.11881338375E+03  0.25500000000E-02 0.  1.
          2   -1    0    0  501    0  0.00000000000E+00 -0.00000000000E+00 -0.46982140792E+00  0.46982832805E+00  0.25500000000E-02 0. -1.
         31    1    1    2    0    0  0.40245582449E-01  0.22056599187E+00  0.63632737713E+02  0.64067421549E+02  0.74470750000E+01 0.  1.
        -31    1    1    2    0    0 -0.40245582449E-01 -0.22056599187E+00  0.54710824602E+02  0.55215790529E+02  0.74470750000E+01 0. -1.
<mgrwt>
<rscale>  0 0.14942756E+02</rscale>
<asrwt>0</asrwt>
<pdfrwt beam="2">  1        2 0.99781315E+00 0.14942756E+02</pdfrwt>
<pdfrwt beam="1">  1       -2 0.98631706E+00 0.14942756E+02</pdfrwt>
<totfact> 0.18805567E-13</totfact>
</mgrwt>
</event>
<event>
 4    1 -0.5021037E-019  0.1493438E+02  0.7818608E-02  0.1870077E+00
          2   -1    0    0  501    0  0.00000000000E+00  0.00000000000E+00  0.11869601438E+03  0.11869601441E+03  0.25500000000E-02 0. -1.
         -2   -1    0    0    0  501 -0.00000000000E+00 -0.00000000000E+00 -0.46975904854E+00  0.46976596959E+00  0.25500000000E-02 0.  1.
         31    1    1    2    0    0 -0.28067406216E+00  0.17321891960E+00  0.55623777108E+02  0.56121050316E+02  0.74470750000E+01 0. -1.
        -31    1    1    2    0    0  0.28067406216E+00 -0.17321891960E+00  0.62602478223E+02  0.63044730060E+02  0.74470750000E+01 0. -1.
<mgrwt>
<rscale>  0 0.14934382E+02</rscale>
<asrwt>0</asrwt>
<pdfrwt beam="1">  1        2 0.98534605E+00 0.14934382E+02</pdfrwt>
<pdfrwt beam="2">  1       -2 0.99767735E+00 0.14934382E+02</pdfrwt>
<totfact>-0.21937288E-13</totfact>
</mgrwt>
</event>
<event>
 4    1  0.5021037E-019  0.1492234E+02  0.7818608E-02  0.1870448E+00
         -2   -1    0    0    0  501 -0.00000000000E+00  0.00000000000E+00  0.11850242951E+03  0.11850242954E+03  0.25500000000E-02 0.  1.
          2   -1    0    0  501    0  0.00000000000E+00 -0.00000000000E+00 -0.46976795758E+00  0.46977487850E+00  0.25500000000E-02 0. -1.
         31    1    1    2    0    0 -0.45221597884E+00 -0.74978582272E-01  0.59042136932E+02  0.59511704569E+02  0.74470750000E+01 0.  1.
        -31    1    1    2    0    0  0.45221597884E+00  0.74978582272E-01  0.58990524624E+02  0.59460499851E+02  0.74470750000E+01 0. -1.
<mgrwt>
<rscale>  0 0.14922340E+02</rscale>
<asrwt>0</asrwt>
<pdfrwt beam="2">  1        2 0.99768977E+00 0.14922340E+02</pdfrwt>
<pdfrwt beam="1">  1       -2 0.98374543E+00 0.14922340E+02</pdfrwt>
<totfact> 0.41158244E-13</totfact>
</mgrwt>
</event>
<event>
 4    1 -0.5021037E-019  0.1502812E+02  0.7818608E-02  0.1867211E+00
         -2   -1    0    0    0  501 -0.00000000000E+00  0.00000000000E+00  0.12020938316E+03  0.12020938318E+03  0.25500000000E-02 0. -1.
          2   -1    0    0  501    0  0.00000000000E+00 -0.00000000000E+00 -0.46968640571E+00  0.46969332783E+00  0.25500000000E-02 0.  1.
         31    1    1    2    0    0  0.65590533996E+00  0.70693200412E+00  0.62028194699E+02  0.62481083764E+02  0.74470750000E+01 0.  1.
        -31    1    1    2    0    0 -0.65590533996E+00 -0.70693200412E+00  0.57711502051E+02  0.58197992746E+02  0.74470750000E+01 0.  1.
<mgrwt>
<rscale>  0 0.15028125E+02</rscale>
<asrwt>0</asrwt>
<pdfrwt beam="2">  1        2 0.99757318E+00 0.15028125E+02</pdfrwt>
<pdfrwt beam="1">  1       -2 0.99785904E+00 0.15028125E+02</pdfrwt>
<totfact>-0.47594543E-14</totfact>
</mgrwt>
</event>
<event>
 4    1 -0.5021037E-019  0.1494596E+02  0.7818608E-02  0.1869722E+00
          2   -1    0    0  501    0  0.00000000000E+00  0.00000000000E+00  0.11942780341E+03  0.11942780344E+03  0.25500000000E-02 0. -1.
         -2   -1    0    0    0  501 -0.00000000000E+00 -0.00000000000E+00 -0.46760495662E+00  0.46761190955E+00  0.25500000000E-02 0.  1.
         31    1    1    2    0    0  0.36396915314E-01 -0.59832373072E+00  0.58156865504E+02  0.58634795534E+02  0.74470750000E+01 0.  1.
        -31    1    1    2    0    0 -0.36396915314E-01  0.59832373072E+00  0.60803332949E+02  0.61260619813E+02  0.74470750000E+01 0.  1.
<mgrwt>
<rscale>  0 0.14945963E+02</rscale>
<asrwt>0</asrwt>
<pdfrwt beam="1">  1        2 0.99137918E+00 0.14945963E+02</pdfrwt>
<pdfrwt beam="2">  1       -2 0.99314437E+00 0.14945963E+02</pdfrwt>
<totfact>-0.14107791E-13</totfact>
</mgrwt>
</event>
<event>
 4    1 -0.5021037E-019  0.1493043E+02  0.7818608E-02  0.1870199E+00
         -2   -1    0    0    0  501 -0.00000000000E+00  0.00000000000E+00  0.11975954382E+03  0.11975954385E+03  0.25500000000E-02 0.  1.
          2   -1    0    0  501    0  0.00000000000E+00 -0.00000000000E+00 -0.46534077022E+00  0.46534775699E+00  0.25500000000E-02 0. -1.
         31    1    1    2    0    0  0.27645837983E+00  0.43817657607E+00  0.60013105152E+02  0.60475616111E+02  0.74470750000E+01 0.  1.
        -31    1    1    2    0    0 -0.27645837983E+00 -0.43817657607E+00  0.59281097895E+02  0.59749275491E+02  0.74470750000E+01 0. -1.
<mgrwt>
<rscale>  0 0.14930428E+02</rscale>
<asrwt>0</asrwt>
<pdfrwt beam="2">  1        2 0.98836484E+00 0.14930428E+02</pdfrwt>
<pdfrwt beam="1">  1       -2 0.99410352E+00 0.14930428E+02</pdfrwt>
<totfact>-0.21004471E-13</totfact>
</mgrwt>
</event>
<event>
 4    1  0.5021037E-019  0.1492102E+02  0.7818608E-02  0.1870488E+00
          2   -1    0    0  501    0  0.00000000000E+00  0.00000000000E+00  0.12005246922E+03  0.12005246924E+03  0.25500000000E-02 0. -1.
         -2   -1    0    0    0  501 -0.00000000000E+00 -0.00000000000E+00 -0.46362065308E+00  0.46362766577E+00  0.25500000000E-02 0.  1.
         31    1    1    2    0    0  0.36504103815E+00 -0.25833718625E+00  0.59936465265E+02  0.60398996577E+02  0.74470750000E+01 0. -1.
        -31    1    1    2    0    0 -0.36504103815E+00  0.25833718625E+00  0.59652383297E+02  0.60117100331E+02  0.74470750000E+01 0. -1.
<mgrwt>
<rscale>  0 0.14921023E+02</rscale>
<asrwt>0</asrwt>
<pdfrwt beam="1">  1        2 0.99651141E+00 0.14921023E+02</pdfrwt>
<pdfrwt beam="2">  1       -2 0.98473479E+00 0.14921023E+02</pdfrwt>
<totfact> 0.42499652E-13</totfact>
</mgrwt>
</event>
<event>
 4    1 -0.5021037E-019  0.1493001E+02  0.7818608E-02  0.1870212E+00
          2   -1    0    0  501    0  0.00000000000E+00  0.00000000000E+00  0.11868128764E+03  0.11868128766E+03  0.25500000000E-02 0.  1.
         -2   -1    0    0    0  501 -0.00000000000E+00 -0.00000000000E+00 -0.46954229160E+00  0.46954921584E+00  0.25500000000E-02 0. -1.
         31    1    1    2    0    0 -0.32703463755E+00  0.36268690566E+00  0.57749672908E+02  0.58229907612E+02  0.74470750000E+01 0.  1.
        -31    1    1    2    0    0  0.32703463755E+00 -0.36268690566E+00  0.60462072438E+02  0.60920929269E+02  0.74470750000E+01 0.  1.
<mgrwt>
<rscale>  0 0.14930010E+02</rscale>
<asrwt>0</asrwt>
<pdfrwt beam="1">  1        2 0.98522248E+00 0.14930010E+02</pdfrwt>
<pdfrwt beam="2">  1       -2 0.99721833E+00 0.14930010E+02</pdfrwt>
<totfact>-0.25502950E-13</totfact>
</mgrwt>
</event>
<event>
 4    1  0.5021037E-019  0.1489818E+02  0.7818608E-02  0.1871191E+00
          2   -1    0    0  501    0  0.00000000000E+00  0.00000000000E+00  0.11948554109E+03  0.11948554111E+03  0.25500000000E-02 0. -1.
         -2   -1    0    0    0  501 -0.00000000000E+00 -0.00000000000E+00 -0.46439552888E+00  0.46440252986E+00  0.25500000000E-02 0.  1.
         31    1    1    2    0    0 -0.67706310784E-02 -0.16789178210E+00  0.59853393631E+02  0.60315138139E+02  0.74470750000E+01 0.  1.
        -31    1    1    2    0    0  0.67706310784E-02  0.16789178210E+00  0.59167751925E+02  0.59634805503E+02  0.74470750000E+01 0. -1.
<mgrwt>
<rscale>  0 0.14898184E+02</rscale>
<asrwt>0</asrwt>
<pdfrwt beam="1">  1        2 0.99183006E+00 0.14898184E+02</pdfrwt>
<pdfrwt beam="2">  1       -2 0.98635623E+00 0.14898184E+02</pdfrwt>
<totfact> 0.40504137E-13</totfact>
</mgrwt>
</event>
<event>
 4    1 -0.5021037E-019  0.1494569E+02  0.7818608E-02  0.1869730E+00
          2   -1    0    0  501    0  0.00000000000E+00  0.00000000000E+00  0.11962291366E+03  0.11962291368E+03  0.25500000000E-02 0. -1.
         -2   -1    0    0    0  501 -0.00000000000E+00 -0.00000000000E+00 -0.46682503735E+00  0.46683200190E+00  0.25500000000E-02 0.  1.
         31    1    1    2    0    0 -0.27554933275E+00 -0.25181663985E+00  0.63556225766E+02  0.63992125287E+02  0.74470750000E+01 0. -1.
        -31    1    1    2    0    0  0.27554933275E+00  0.25181663985E+00  0.55599862854E+02  0.56097620400E+02  0.74470750000E+01 0.  1.
<mgrwt>
<rscale>  0 0.14945687E+02</rscale>
<asrwt>0</asrwt>
<pdfrwt beam="1">  1        2 0.99298604E+00 0.14945687E+02</pdfrwt>
<pdfrwt beam="2">  1       -2 0.99150067E+00 0.14945687E+02</pdfrwt>
<totfact>-0.73156611E-14</totfact>
</mgrwt>
</event>
<event>
 4    1 -0.5021037E-019  0.1493829E+02  0.7818608E-02  0.1869958E+00
         -2   -1    0    0    0  501 -0.00000000000E+00  0.00000000000E+00  0.12029910668E+03  0.12029910671E+03  0.25500000000E-02 0. -1.
          2   -1    0    0  501    0  0.00000000000E+00 -0.00000000000E+00 -0.46374149595E+00  0.46374850681E+00  0.25500000000E-02 0.  1.
         31    1    1    2    0    0  0.11971514159E-01  0.40168233097E+00  0.56607194284E+02  0.57096364707E+02  0.74470750000E+01 0.  1.
        -31    1    1    2    0    0 -0.11971514159E-01 -0.40168233097E+00  0.63228170899E+02  0.63666490506E+02  0.74470750000E+01 0. -1.
<mgrwt>
<rscale>  0 0.14938288E+02</rscale>
<asrwt>0</asrwt>
<pdfrwt beam="2">  1        2 0.98499824E+00 0.14938288E+02</pdfrwt>
<pdfrwt beam="1">  1       -2 0.99855178E+00 0.14938288E+02</pdfrwt>
<totfact>-0.15730787E-13</totfact>
</mgrwt>
</event>
<event>
 4    1 -0.5021037E-019  0.1490972E+02  0.7818608E-02  0.1870836E+00
          2   -1    0    0  501    0  0.00000000000E+00  0.00000000000E+00  0.11843485750E+03  0.11843485752E+03  0.25500000000E-02 0.  1.
         -2   -1    0    0    0  501 -0.00000000000E+00 -0.00000000000E+00 -0.46924113672E+00  0.46924806541E+00  0.25500000000E-02 0. -1.
         31    1    1    2    0    0 -0.12393945832E+00  0.10390145441E+00  0.61373138114E+02  0.61823516275E+02  0.74470750000E+01 0.  1.
        -31    1    1    2    0    0  0.12393945832E+00 -0.10390145441E+00  0.56592478245E+02  0.57080589314E+02  0.74470750000E+01 0. -1.
<mgrwt>
<rscale>  0 0.14909718E+02</rscale>
<asrwt>0</asrwt>
<pdfrwt beam="1">  1        2 0.98318234E+00 0.14909718E+02</pdfrwt>
<pdfrwt beam="2">  1       -2 0.99657310E+00 0.14909718E+02</pdfrwt>
<totfact>-0.40780247E-13</totfact>
</mgrwt>
</event>
<event>
 4    1 -0.5021037E-019  0.1499401E+02  0.7818608E-02  0.1868251E+00
         -2   -1    0    0    0  501 -0.00000000000E+00  0.00000000000E+00  0.11969667847E+03  0.11969667849E+03  0.25500000000E-02 0.  1.
          2   -1    0    0  501    0  0.00000000000E+00 -0.00000000000E+00 -0.46955928564E+00  0.46956620963E+00  0.25500000000E-02 0. -1.
         31    1    1    2    0    0  0.43392893798E+00 -0.48026024159E+00  0.55029038673E+02  0.55534430470E+02  0.74470750000E+01 0. -1.
        -31    1    1    2    0    0 -0.43392893798E+00  0.48026024159E+00  0.64198080507E+02  0.64631814233E+02  0.74470750000E+01 0. -1.
<mgrwt>
<rscale>  0 0.14994013E+02</rscale>
<asrwt>0</asrwt>
<pdfrwt beam="2">  1        2 0.99728762E+00 0.14994013E+02</pdfrwt>
<pdfrwt beam="1">  1       -2 0.99361859E+00 0.14994013E+02</pdfrwt>
<totfact>-0.77794994E-14</totfact>
</mgrwt>
</event>
<event>
 4    1 -0.5021037E-019  0.1499633E+02  0.7818608E-02  0.1868180E+00
          2   -1    0    0  501    0  0.00000000000E+00  0.00000000000E+00  0.11959627135E+03  0.11959627137E+03  0.25500000000E-02 0. -1.
         -2   -1    0    0    0  501 -0.00000000000E+00 -0.00000000000E+00 -0.47009906934E+00  0.47010598539E+00  0.25500000000E-02 0.  1.
         31    1    1    2    0    0 -0.41344539279E+00 -0.60047686815E+00  0.63420110628E+02  0.63860009925E+02  0.74470750000E+01 0.  1.
        -31    1    1    2    0    0  0.41344539279E+00  0.60047686815E+00  0.55706061650E+02  0.56206367434E+02  0.74470750000E+01 0.  1.
<mgrwt>
<rscale>  0 0.14996335E+02</rscale>
<asrwt>0</asrwt>
<pdfrwt beam="1">  1        2 0.99279281E+00 0.14996335E+02</pdfrwt>
<pdfrwt beam="2">  1       -2 0.99842627E+00 0.14996335E+02</pdfrwt>
<totfact>-0.69628060E-14</totfact>
</mgrwt>
</event>
<event>
 4    1 -0.5021037E-019  0.1493833E+02  0.7818608E-02  0.1869956E+00
          2   -1    0    0  501    0  0.00000000000E+00  0.00000000000E+00  0.11858925574E+03  0.11858925577E+03  0.25500000000E-02 0. -1.
         -2   -1    0    0    0  501 -0.00000000000E+00 -0.00000000000E+00 -0.47043050405E+00  0.47043741522E+00  0.25500000000E-02 0.  1.
         31    1    1    2    0    0  0.46700550187E+00  0.14234363995E+00  0.61465459902E+02  0.61916880112E+02  0.74470750000E+01 0. -1.
        -31    1    1    2    0    0 -0.46700550187E+00 -0.14234363995E+00  0.56653365339E+02  0.57142813075E+02  0.74470750000E+01 0.  1.
<mgrwt>
<rscale>  0 0.14938329E+02</rscale>
<asrwt>0</asrwt>
<pdfrwt beam="1">  1        2 0.98446885E+00 0.14938329E+02</pdfrwt>
<pdfrwt beam="2">  1       -2 0.99909419E+00 0.14938329E+02</pdfrwt>
<totfact>-0.11235192E-13</totfact>
</mgrwt>
</event>
<event>
 4    1 -0.5021037E-019  0.1492040E+02  0.7818608E-02  0.1870507E+00
         -2   -1    0    0    0  501 -0.00000000000E+00  0.00000000000E+00  0.11978257720E+03  0.11978257723E+03  0.25500000000E-02 0. -1.
          2   -1    0    0  501    0  0.00000000000E+00 -0.00000000000E+00 -0.46462633037E+00  0.46463332787E+00  0.25500000000E-02 0.  1.
         31    1    1    2    0    0  0.36892528209E+00 -0.23188946389E+00  0.59047481082E+02  0.59516836498E+02  0.74470750000E+01 0.  1.
        -31    1    1    2    0    0 -0.36892528209E+00  0.23188946389E+00  0.60270469791E+02  0.60730374060E+02  0.74470750000E+01 0.  1.
<mgrwt>
<rscale>  0 0.14920397E+02</rscale>
<asrwt>0</asrwt>
<pdfrwt beam="2">  1        2 0.98685402E+00 0.14920397E+02</pdfrwt>
<pdfrwt beam="1">  1       -2 0.99428807E+00 0.14920397E+02</pdfrwt>
<totfact>-0.25927441E-13</totfact>
</mgrwt>
</event>
<event>
 4    1 -0.5021037E-019  0.1498730E+02  0.7818608E-02  0.1868456E+00
         -2   -1    0    0    0  501 -0.00000000000E+00  0.00000000000E+00  0.12013302470E+03  0.12013302473E+03  0.25500000000E-02 0.  1.
          2   -1    0    0  501    0  0.00000000000E+00 -0.00000000000E+00 -0.46743502164E+00  0.46744197710E+00  0.25500000000E-02 0. -1.
         31    1    1    2    0    0 -0.47405499453E+00  0.26666780255E-01  0.54313582877E+02  0.54823805507E+02  0.74470750000E+01 0. -1.
        -31    1    1    2    0    0  0.47405499453E+00 -0.26666780255E-01  0.65352006804E+02  0.65776661200E+02  0.74470750000E+01 0.  1.
<mgrwt>
<rscale>  0 0.14987302E+02</rscale>
<asrwt>0</asrwt>
<pdfrwt beam="2">  1        2 0.99280758E+00 0.14987302E+02</pdfrwt>
<pdfrwt beam="1">  1       -2 0.99720904E+00 0.14987302E+02</pdfrwt>
<totfact>-0.10903636E-13</totfact>
</mgrwt>
</event>
<event>
 4    1 -0.5021037E-019  0.1495345E+02  0.7818608E-02  0.1869492E+00
          2   -1    0    0  501    0  0.00000000000E+00  0.00000000000E+00  0.11905859017E+03  0.11905859019E+03  0.25500000000E-02 0. -1.
         -2   -1    0    0    0  501 -0.00000000000E+00 -0.00000000000E+00 -0.46952526759E+00  0.46953219209E+00  0.25500000000E-02 0.  1.
         31    1    1    2    0    0 -0.63314360591E-01 -0.22201329495E+00  0.54307765493E+02  0.54816472137E+02  0.74470750000E+01 0.  1.
        -31    1    1    2    0    0  0.63314360591E-01  0.22201329495E+00  0.64281299405E+02  0.64711650248E+02  0.74470750000E+01 0. -1.
<mgrwt>
<rscale>  0 0.14953452E+02</rscale>
<asrwt>0</asrwt>
<pdfrwt beam="1">  1        2 0.98834215E+00 0.14953452E+02</pdfrwt>
<pdfrwt beam="2">  1       -2 0.99719477E+00 0.14953452E+02</pdfrwt>
<totfact>-0.16380933E-13</totfact>
</mgrwt>
</event>
<event>
 4    1 -0.5021037E-019  0.1499615E+02  0.7818608E-02  0.1868186E+00
          2   -1    0    0  501    0  0.00000000000E+00  0.00000000000E+00  0.11991095270E+03  0.11991095272E+03  0.25500000000E-02 0. -1.
         -2   -1    0    0    0  501 -0.00000000000E+00 -0.00000000000E+00 -0.46885387251E+00  0.46886080692E+00  0.25500000000E-02 0.  1.
         31    1    1    2    0    0 -0.26366680921E+00 -0.65505779066E+00  0.55599737087E+02  0.56100697955E+02  0.74470750000E+01 0.  1.
        -31    1    1    2    0    0  0.26366680921E+00  0.65505779066E+00  0.63842361737E+02  0.64279115575E+02  0.74470750000E+01 0. -1.
<mgrwt>
<rscale>  0 0.14996151E+02</rscale>
<asrwt>0</asrwt>
<pdfrwt beam="1">  1        2 0.99538452E+00 0.14996151E+02</pdfrwt>
<pdfrwt beam="2">  1       -2 0.99580222E+00 0.14996151E+02</pdfrwt>
<totfact>-0.10943260E-13</totfact>
</mgrwt>
</event>
<event>
 4    1 -0.5021037E-019  0.1491676E+02  0.7818608E-02  0.1870619E+00
          2   -1    0    0  501    0  0.00000000000E+00  0.00000000000E+00  0.11887582405E+03  0.11887582408E+03  0.25500000000E-02 0.  1.
         -2   -1    0    0    0  501 -0.00000000000E+00 -0.00000000000E+00 -0.46794195236E+00  0.46794890029E+00  0.25500000000E-02 0. -1.
         31    1    1    2    0    0  0.47751084784E-01 -0.35561921395E+00  0.60798665433E+02  0.61254105084E+02  0.74470750000E+01 0. -1.
        -31    1    1    2    0    0 -0.47751084784E-01  0.35561921395E+00  0.57609216670E+02  0.58089667899E+02  0.74470750000E+01 0. -1.
<mgrwt>
<rscale>  0 0.14916756E+02</rscale>
<asrwt>0</asrwt>
<pdfrwt beam="1">  1        2 0.98681782E+00 0.14916756E+02</pdfrwt>
<pdfrwt beam="2">  1       -2 0.99383930E+00 0.14916756E+02</pdfrwt>
<totfact>-0.25366764E-13</totfact>
</mgrwt>
</event>
<event>
 4    1 -0.5021037E-019  0.1499179E+02  0.7818608E-02  0.1868319E+00
         -2   -1    0    0    0  501 -0.00000000000E+00  0.00000000000E+00  0.12002728617E+03  0.12002728620E+03  0.25500000000E-02 0.  1.
          2   -1    0    0  501    0  0.00000000000E+00 -0.00000000000E+00 -0.46812713226E+00  0.46813407744E+00  0.25500000000E-02 0. -1.
         31    1    1    2    0    0 -0.29388651912E+00 -0.66554677596E+00  0.56183322995E+02  0.56679396879E+02  0.74470750000E+01 0. -1.
        -31    1    1    2    0    0  0.29388651912E+00  0.66554677596E+00  0.63375836046E+02  0.63816023398E+02  0.74470750000E+01 0.  1.
<mgrwt>
<rscale>  0 0.14991791E+02</rscale>
<asrwt>0</asrwt>
<pdfrwt beam="2">  1        2 0.99426846E+00 0.14991791E+02</pdfrwt>
<pdfrwt beam="1">  1       -2 0.99634044E+00 0.14991791E+02</pdfrwt>
<totfact>-0.11495767E-13</totfact>
</mgrwt>
</event>
<event>
 4    1  0.5021037E-019  0.1497707E+02  0.7818608E-02  0.1868769E+00
          2   -1    0    0  501    0  0.00000000000E+00  0.00000000000E+00  0.12036327628E+03  0.12036327630E+03  0.25500000000E-02 0. -1.
         -2   -1    0    0    0  501 -0.00000000000E+00 -0.00000000000E+00 -0.46590405837E+00  0.46591103668E+00  0.25500000000E-02 0.  1.
         31    1    1    2    0    0  0.20987282487E+00  0.68967813581E+00  0.57403440607E+02  0.57888976689E+02  0.74470750000E+01 0.  1.
        -31    1    1    2    0    0 -0.20987282487E+00 -0.68967813581E+00  0.62493931612E+02  0.62940210652E+02  0.74470750000E+01 0. -1.
<mgrwt>
<rscale>  0 0.14977071E+02</rscale>
<asrwt>0</asrwt>
<pdfrwt beam="1">  1        2 0.99910026E+00 0.14977071E+02</pdfrwt>
<pdfrwt beam="2">  1       -2 0.98957582E+00 0.14977071E+02</pdfrwt>
<totfact> 0.94441790E-15</totfact>
</mgrwt>
</event>
<event>
 4    1 -0.5021037E-019  0.1498665E+02  0.7818608E-02  0.1868476E+00
         -2   -1    0    0    0  501 -0.00000000000E+00  0.00000000000E+00  0.12015415048E+03  0.12015415051E+03  0.25500000000E-02 0. -1.
          2   -1    0    0  501    0  0.00000000000E+00 -0.00000000000E+00 -0.46731215294E+00  0.46731911023E+00  0.25500000000E-02 0.  1.
         31    1    1    2    0    0  0.64668874682E+00  0.52170102937E+00  0.59644369202E+02  0.60113227179E+02  0.74470750000E+01 0.  1.
        -31    1    1    2    0    0 -0.64668874682E+00 -0.52170102937E+00  0.60042469128E+02  0.60508242442E+02  0.74470750000E+01 0.  1.
<mgrwt>
<rscale>  0 0.14986650E+02</rscale>
<asrwt>0</asrwt>
<pdfrwt beam="2">  1        2 0.99254831E+00 0.14986650E+02</pdfrwt>
<pdfrwt beam="1">  1       -2 0.99738271E+00 0.14986650E+02</pdfrwt>
<totfact>-0.10619121E-13</totfact>
</mgrwt>
</event>
<event>
 4    1  0.5021037E-019  0.1489878E+02  0.7818608E-02  0.1871173E+00
          2   -1    0    0  501    0  0.00000000000E+00  0.00000000000E+00  0.12011215897E+03  0.12011215899E+03  0.25500000000E-02 0. -1.
         -2   -1    0    0    0  501 -0.00000000000E+00 -0.00000000000E+00 -0.46200970335E+00  0.46201674048E+00  0.25500000000E-02 0.  1.
         31    1    1    2    0    0 -0.76111030899E-02 -0.71935939091E-01  0.61209172836E+02  0.61660578962E+02  0.74470750000E+01 0. -1.
        -31    1    1    2    0    0  0.76111030899E-02  0.71935939091E-01  0.58440976428E+02  0.58913596772E+02  0.74470750000E+01 0.  1.
<mgrwt>
<rscale>  0 0.14898780E+02</rscale>
<asrwt>0</asrwt>
<pdfrwt beam="1">  1        2 0.99699165E+00 0.14898780E+02</pdfrwt>
<pdfrwt beam="2">  1       -2 0.98132815E+00 0.14898780E+02</pdfrwt>
<totfact> 0.82640155E-13</totfact>
</mgrwt>
</event>
<event>
 4    1  0.5021037E-019  0.1490896E+02  0.7818608E-02  0.1870859E+00
         -2   -1    0    0    0  501 -0.00000000000E+00  0.00000000000E+00  0.11864905706E+03  0.11864905708E+03  0.25500000000E-02 0.  1.
          2   -1    0    0  501    0  0.00000000000E+00 -0.00000000000E+00 -0.46834669629E+00  0.46835363821E+00  0.25500000000E-02 0. -1.
         31    1    1    2    0    0  0.41632661402E-01  0.12537458200E+00  0.56654745368E+02  0.57142248388E+02  0.74470750000E+01 0. -1.
        -31    1    1    2    0    0 -0.41632661402E-01 -0.12537458200E+00  0.61525964991E+02  0.61975162333E+02  0.74470750000E+01 0. -1.
<mgrwt>
<rscale>  0 0.14908965E+02</rscale>
<asrwt>0</asrwt>
<pdfrwt beam="2">  1        2 0.99468807E+00 0.14908965E+02</pdfrwt>
<pdfrwt beam="1">  1       -2 0.98494609E+00 0.14908965E+02</pdfrwt>
<totfact> 0.50760856E-13</totfact>
</mgrwt>
</event>
<event>
 4    1 -0.5021037E-019  0.1495070E+02  0.7818608E-02  0.1869577E+00
         -2   -1    0    0    0  501 -0.00000000000E+00  0.00000000000E+00  0.11960060287E+03  0.11960060289E+03  0.25500000000E-02 0. -1.
          2   -1    0    0  501    0  0.00000000000E+00 -0.00000000000E+00 -0.46722520261E+00  0.46723216119E+00  0.25500000000E-02 0.  1.
         31    1    1    2    0    0  0.32849413141E+00 -0.48384486562E+00  0.57296693316E+02  0.57781588809E+02  0.74470750000E+01 0. -1.
        -31    1    1    2    0    0 -0.32849413141E+00  0.48384486562E+00  0.61836684347E+02  0.62286246245E+02  0.74470750000E+01 0. -1.
<mgrwt>
<rscale>  0 0.14950697E+02</rscale>
<asrwt>0</asrwt>
<pdfrwt beam="2">  1        2 0.99234656E+00 0.14950697E+02</pdfrwt>
<pdfrwt beam="1">  1       -2 0.99280487E+00 0.14950697E+02</pdfrwt>
<totfact>-0.12325062E-13</totfact>
</mgrwt>
</event>
<event>
 4    1  0.5021037E-019  0.1489751E+02  0.7818608E-02  0.1871212E+00
          2   -1    0    0  501    0  0.00000000000E+00  0.00000000000E+00  0.11938297548E+03  0.11938297551E+03  0.25500000000E-02 0.  1.
         -2   -1    0    0    0  501 -0.00000000000E+00 -0.00000000000E+00 -0.46475231726E+00  0.46475931287E+00  0.25500000000E-02 0. -1.
         31    1    1    2    0    0  0.85883667716E-01  0.22487275249E-01  0.60511956493E+02  0.60968546697E+02  0.74470750000E+01 0. -1.
        -31    1    1    2    0    0 -0.85883667716E-01 -0.22487275249E-01  0.58406266672E+02  0.58879188125E+02  0.74470750000E+01 0. -1.
<mgrwt>
<rscale>  0 0.14897508E+02</rscale>
<asrwt>0</asrwt>
<pdfrwt beam="1">  1        2 0.99098492E+00 0.14897508E+02</pdfrwt>
<pdfrwt beam="2">  1       -2 0.98710780E+00 0.14897508E+02</pdfrwt>
<totfact> 0.32222832E-13</totfact>
</mgrwt>
</event>
<event>
 4    1  0.5021037E-019  0.1494440E+02  0.7818608E-02  0.1869770E+00
          2   -1    0    0  501    0  0.00000000000E+00  0.00000000000E+00  0.11999712181E+03  0.11999712184E+03  0.25500000000E-02 0.  1.
         -2   -1    0    0    0  501 -0.00000000000E+00 -0.00000000000E+00 -0.46528896997E+00  0.46529595751E+00  0.25500000000E-02 0. -1.
         31    1    1    2    0    0 -0.55700512124E+00  0.14696318660E+00  0.58094786483E+02  0.58572988616E+02  0.74470750000E+01 0.  1.
        -31    1    1    2    0    0  0.55700512124E+00 -0.14696318660E+00  0.61437046355E+02  0.61889429176E+02  0.74470750000E+01 0. -1.
<mgrwt>
<rscale>  0 0.14944398E+02</rscale>
<asrwt>0</asrwt>
<pdfrwt beam="1">  1        2 0.99606755E+00 0.14944398E+02</pdfrwt>
<pdfrwt beam="2">  1       -2 0.98826282E+00 0.14944398E+02</pdfrwt>
<totfact> 0.11310434E-13</totfact>
</mgrwt>
</event>
<event>
 4    1  0.5021037E-019  0.1490024E+02  0.7818608E-02  0.1871128E+00
         -2   -1    0    0    0  501 -0.00000000000E+00  0.00000000000E+00  0.11863893558E+03  0.11863893561E+03  0.25500000000E-02 0. -1.
          2   -1    0    0  501    0  0.00000000000E+00 -0.00000000000E+00 -0.46783873931E+00  0.46784568877E+00  0.25500000000E-02 0.  1.
         31    1    1    2    0    0 -0.13555839865E+00 -0.11927532682E+00  0.58181993756E+02  0.58656934169E+02  0.74470750000E+01 0.  1.
        -31    1    1    2    0    0  0.13555839865E+00  0.11927532682E+00  0.59989103088E+02  0.60449847130E+02  0.74470750000E+01 0. -1.
<mgrwt>
<rscale>  0 0.14900242E+02</rscale>
<asrwt>0</asrwt>
<pdfrwt beam="2">  1        2 0.99361318E+00 0.14900242E+02</pdfrwt>
<pdfrwt beam="1">  1       -2 0.98485820E+00 0.14900242E+02</pdfrwt>
<totfact> 0.56931787E-13</totfact>
</mgrwt>
</event>
<event>
 4    1  0.5021037E-019  0.1491611E+02  0.7818608E-02  0.1870639E+00
         -2   -1    0    0    0  501 -0.00000000000E+00  0.00000000000E+00  0.11872346764E+03  0.11872346767E+03  0.25500000000E-02 0.  1.
          2   -1    0    0  501    0  0.00000000000E+00 -0.00000000000E+00 -0.46850176768E+00  0.46850870731E+00  0.25500000000E-02 0. -1.
         31    1    1    2    0    0 -0.37841096333E+00  0.45895681586E-01  0.60209711038E+02  0.60669708509E+02  0.74470750000E+01 0.  1.
        -31    1    1    2    0    0  0.37841096333E+00 -0.45895681586E-01  0.58045254835E+02  0.58522267867E+02  0.74470750000E+01 0.  1.
<mgrwt>
<rscale>  0 0.14916108E+02</rscale>
<asrwt>0</asrwt>
<pdfrwt beam="2">  1        2 0.99501857E+00 0.14916108E+02</pdfrwt>
<pdfrwt beam="1">  1       -2 0.98556266E+00 0.14916108E+02</pdfrwt>
<totfact> 0.40972806E-13</totfact>
</mgrwt>
</event>
<event>
 4    1 -0.5021037E-019  0.1497573E+02  0.7818608E-02  0.1868810E+00
          2   -1    0    0  501    0  0.00000000000E+00  0.00000000000E+00  0.11924969503E+03  0.11924969505E+03  0.25500000000E-02 0. -1.
         -2   -1    0    0    0  501 -0.00000000000E+00 -0.00000000000E+00 -0.47017060075E+00  0.47017751575E+00  0.25500000000E-02 0.  1.
         31    1    1    2    0    0  0.64550793081E+00 -0.14084177111E-01  0.55884013462E+02  0.56381723683E+02  0.74470750000E+01 0.  1.
        -31    1    1    2    0    0 -0.64550793081E+00  0.14084177111E-01  0.62895510964E+02  0.63338148887E+02  0.74470750000E+01 0. -1.
<mgrwt>
<rscale>  0 0.14975729E+02</rscale>
<asrwt>0</asrwt>
<pdfrwt beam="1">  1        2 0.98992767E+00 0.14975729E+02</pdfrwt>
<pdfrwt beam="2">  1       -2 0.99856624E+00 0.14975729E+02</pdfrwt>
<totfact>-0.80779360E-14</totfact>
</mgrwt>
</event>
<event>
 4    1 -0.5021037E-019  0.1497520E+02  0.7818608E-02  0.1868826E+00
         -2   -1    0    0    0  501 -0.00000000000E+00  0.00000000000E+00  0.11976749437E+03  0.11976749440E+03  0.25500000000E-02 0. -1.
          2   -1    0    0  501    0  0.00000000000E+00 -0.00000000000E+00 -0.46810502000E+00  0.46811196550E+00  0.25500000000E-02 0.  1.
         31    1    1    2    0    0 -0.27718671501E+00  0.32153599894E+00  0.64884198910E+02  0.65311548841E+02  0.74470750000E+01 0.  1.
        -31    1    1    2    0    0  0.27718671501E+00 -0.32153599894E+00  0.54415190443E+02  0.54924057524E+02  0.74470750000E+01 0.  1.
<mgrwt>
<rscale>  0 0.14975204E+02</rscale>
<asrwt>0</asrwt>
<pdfrwt beam="2">  1        2 0.99421330E+00 0.14975204E+02</pdfrwt>
<pdfrwt beam="1">  1       -2 0.99419212E+00 0.14975204E+02</pdfrwt>
<totfact>-0.12696176E-13</totfact>
</mgrwt>
</event>
<event>
 4    1 -0.5021037E-019  0.1500622E+02  0.7818608E-02  0.1867879E+00
         -2   -1    0    0    0  501 -0.00000000000E+00  0.00000000000E+00  0.12009346750E+03  0.12009346753E+03  0.25500000000E-02 0.  1.
          2   -1    0    0  501    0  0.00000000000E+00 -0.00000000000E+00 -0.46877031715E+00  0.46877725280E+00  0.25500000000E-02 0. -1.
         31    1    1    2    0    0 -0.22449553559E+00  0.87517311322E+00  0.60988200486E+02  0.61447830318E+02  0.74470750000E+01 0.  1.
        -31    1    1    2    0    0  0.22449553559E+00 -0.87517311322E+00  0.58636496696E+02  0.59114414461E+02  0.74470750000E+01 0. -1.
<mgrwt>
<rscale>  0 0.15006222E+02</rscale>
<asrwt>0</asrwt>
<pdfrwt beam="2">  1        2 0.99563134E+00 0.15006222E+02</pdfrwt>
<pdfrwt beam="1">  1       -2 0.99689299E+00 0.15006222E+02</pdfrwt>
<totfact>-0.90925826E-14</totfact>
</mgrwt>
</event>
<event>
 4    1  0.5021037E-019  0.1492123E+02  0.7818608E-02  0.1870482E+00
          2   -1    0    0  501    0  0.00000000000E+00  0.00000000000E+00  0.11969482405E+03  0.11969482408E+03  0.25500000000E-02 0. -1.
         -2   -1    0    0    0  501 -0.00000000000E+00 -0.00000000000E+00 -0.46501875849E+00  0.46502575009E+00  0.25500000000E-02 0.  1.
         31    1    1    2    0    0 -0.61902508404E-01  0.36144068630E+00  0.57524812865E+02  0.58006012555E+02  0.74470750000E+01 0. -1.
        -31    1    1    2    0    0  0.61902508404E-01 -0.36144068630E+00  0.61704992428E+02  0.62153837274E+02  0.74470750000E+01 0. -1.
<mgrwt>
<rscale>  0 0.14921228E+02</rscale>
<asrwt>0</asrwt>
<pdfrwt beam="1">  1        2 0.99356571E+00 0.14921228E+02</pdfrwt>
<pdfrwt beam="2">  1       -2 0.98768149E+00 0.14921228E+02</pdfrwt>
<totfact> 0.20348219E-13</totfact>
</mgrwt>
</event>
<event>
 4    1 -0.5021037E-019  0.1494660E+02  0.7818608E-02  0.1869702E+00
          2   -1    0    0  501    0  0.00000000000E+00  0.00000000000E+00  0.11944495760E+03  0.11944495763E+03  0.25500000000E-02 0.  1.
         -2   -1    0    0    0  501 -0.00000000000E+00 -0.00000000000E+00 -0.46757783591E+00  0.46758478924E+00  0.25500000000E-02 0. -1.
         31    1    1    2    0    0  0.53769322632E+00 -0.31763340541E+00  0.59778206113E+02  0.60243529587E+02  0.74470750000E+01 0.  1.
        -31    1    1    2    0    0 -0.53769322632E+00  0.31763340541E+00  0.59199173652E+02  0.59669012830E+02  0.74470750000E+01 0. -1.
<mgrwt>
<rscale>  0 0.14946603E+02</rscale>
<asrwt>0</asrwt>
<pdfrwt beam="1">  1        2 0.99152080E+00 0.14946603E+02</pdfrwt>
<pdfrwt beam="2">  1       -2 0.99308755E+00 0.14946603E+02</pdfrwt>
<totfact>-0.13823460E-13</totfact>
</mgrwt>
</event>
<event>
 4    1 -0.5021037E-019  0.1492933E+02  0.7818608E-02  0.1870233E+00
         -2   -1    0    0    0  501 -0.00000000000E+00  0.00000000000E+00  0.12012255570E+03  0.12012255573E+03  0.25500000000E-02 0. -1.
          2   -1    0    0  501    0  0.00000000000E+00 -0.00000000000E+00 -0.46386650919E+00  0.46387351816E+00  0.25500000000E-02 0.  1.
         31    1    1    2    0    0  0.41268581657E+00 -0.68239442452E-01  0.57441969512E+02  0.57924206975E+02  0.74470750000E+01 0.  1.
        -31    1    1    2    0    0 -0.41268581657E+00  0.68239442452E-01  0.62216719682E+02  0.62662222273E+02  0.74470750000E+01 0. -1.
<mgrwt>
<rscale>  0 0.14929334E+02</rscale>
<asrwt>0</asrwt>
<pdfrwt beam="2">  1        2 0.98525718E+00 0.14929334E+02</pdfrwt>
<pdfrwt beam="1">  1       -2 0.99709297E+00 0.14929334E+02</pdfrwt>
<totfact>-0.26129233E-13</totfact>
</mgrwt>
</event>
<event>
 4    1 -0.5021037E-019  0.1497975E+02  0.7818608E-02  0.1868687E+00
         -2   -1    0    0    0  501 -0.00000000000E+00  0.00000000000E+00  0.12036094349E+03  0.12036094351E+03  0.25500000000E-02 0. -1.
          2   -1    0    0  501    0  0.00000000000E+00 -0.00000000000E+00 -0.46607978904E+00  0.46608676472E+00  0.25500000000E-02 0.  1.
         31    1    1    2    0    0 -0.24568092870E+00  0.33853538017E+00  0.65443791859E+02  0.65867471367E+02  0.74470750000E+01 0. -1.
        -31    1    1    2    0    0  0.24568092870E+00 -0.33853538017E+00  0.54451071840E+02  0.54959558913E+02  0.74470750000E+01 0.  1.
<mgrwt>
<rscale>  0 0.14979750E+02</rscale>
<asrwt>0</asrwt>
<pdfrwt beam="2">  1        2 0.98994755E+00 0.14979750E+02</pdfrwt>
<pdfrwt beam="1">  1       -2 0.99908242E+00 0.14979750E+02</pdfrwt>
<totfact>-0.53915256E-14</totfact>
</mgrwt>
</event>
<event>
 4    1 -0.5021037E-019  0.1495235E+02  0.7818608E-02  0.1869526E+00
          2   -1    0    0  501    0  0.00000000000E+00  0.00000000000E+00  0.11885012559E+03  0.11885012562E+03  0.25500000000E-02 0. -1.
         -2   -1    0    0    0  501 -0.00000000000E+00 -0.00000000000E+00 -0.47027970067E+00  0.47028661406E+00  0.25500000000E-02 0.  1.
         31    1    1    2    0    0 -0.43743122367E+00 -0.29259016937E+00  0.62355239129E+02  0.62800571080E+02  0.74470750000E+01 0. -1.
        -31    1    1    2    0    0  0.43743122367E+00  0.29259016937E+00  0.56024606765E+02  0.56519841156E+02  0.74470750000E+01 0.  1.
<mgrwt>
<rscale>  0 0.14952353E+02</rscale>
<asrwt>0</asrwt>
<pdfrwt beam="1">  1        2 0.98662465E+00 0.14952353E+02</pdfrwt>
<pdfrwt beam="2">  1       -2 0.99878384E+00 0.14952353E+02</pdfrwt>
<totfact>-0.10473485E-13</totfact>
</mgrwt>
</event>
<event>
 4    1 -0.5021037E-019  0.1498264E+02  0.7818608E-02  0.1868599E+00
         -2   -1    0    0    0  501 -0.00000000000E+00  0.00000000000E+00  0.12035806718E+03  0.12035806720E+03  0.25500000000E-02 0. -1.
          2   -1    0    0  501    0  0.00000000000E+00 -0.00000000000E+00 -0.46627108898E+00  0.46627806180E+00  0.25500000000E-02 0.  1.
         31    1    1    2    0    0 -0.13556522003E+00  0.41017193871E+00  0.54391688571E+02  0.54900831784E+02  0.74470750000E+01 0.  1.
        -31    1    1    2    0    0  0.13556522003E+00 -0.41017193871E+00  0.65500107516E+02  0.65923513480E+02  0.74470750000E+01 0. -1.
<mgrwt>
<rscale>  0 0.14982645E+02</rscale>
<asrwt>0</asrwt>
<pdfrwt beam="2">  1        2 0.99035220E+00 0.14982645E+02</pdfrwt>
<pdfrwt beam="1">  1       -2 0.99906022E+00 0.14982645E+02</pdfrwt>
<totfact>-0.53081961E-14</totfact>
</mgrwt>
</event>
<event>
 4    1  0.5021037E-019  0.1490391E+02  0.7818608E-02  0.1871015E+00
          2   -1    0    0  501    0  0.00000000000E+00  0.00000000000E+00  0.11953285853E+03  0.11953285855E+03  0.25500000000E-02 0.  1.
         -2   -1    0    0    0  501 -0.00000000000E+00 -0.00000000000E+00 -0.46456833618E+00  0.46457533456E+00  0.25500000000E-02 0. -1.
         31    1    1    2    0    0 -0.15631929528E+00 -0.35419952694E-01  0.57788894285E+02  0.58266979663E+02  0.74470750000E+01 0. -1.
        -31    1    1    2    0    0  0.15631929528E+00  0.35419952694E-01  0.61279395905E+02  0.61730454225E+02  0.74470750000E+01 0. -1.
<mgrwt>
<rscale>  0 0.14903906E+02</rscale>
<asrwt>0</asrwt>
<pdfrwt beam="1">  1        2 0.99222274E+00 0.14903906E+02</pdfrwt>
<pdfrwt beam="2">  1       -2 0.98672335E+00 0.14903906E+02</pdfrwt>
<totfact> 0.34303995E-13</totfact>
</mgrwt>
</event>
<event>
 4    1 -0.5021037E-019  0.1498503E+02  0.7818608E-02  0.1868526E+00
          2   -1    0    0  501    0  0.00000000000E+00  0.00000000000E+00  0.11941133389E+03  0.11941133392E+03  0.25500000000E-02 0.  1.
         -2   -1    0    0    0  501 -0.00000000000E+00 -0.00000000000E+00 -0.47011780617E+00  0.47012472193E+00  0.25500000000E-02 0. -1.
         31    1    1    2    0    0 -0.17324373469E+00  0.57411351942E+00  0.63990933920E+02  0.64425601819E+02  0.74470750000E+01 0.  1.
        -31    1    1    2    0    0  0.17324373469E+00 -0.57411351942E+00  0.54950282166E+02  0.55455856822E+02  0.74470750000E+01 0. -1.
<mgrwt>
<rscale>  0 0.14985034E+02</rscale>
<asrwt>0</asrwt>
<pdfrwt beam="1">  1        2 0.99126378E+00 0.14985034E+02</pdfrwt>
<pdfrwt beam="2">  1       -2 0.99845986E+00 0.14985034E+02</pdfrwt>
<totfact>-0.76508477E-14</totfact>
</mgrwt>
</event>
<event>
 4    1  0.5021037E-019  0.1489979E+02  0.7818608E-02  0.1871142E+00
         -2   -1    0    0    0  501 -0.00000000000E+00  0.00000000000E+00  0.11817267901E+03  0.11817267904E+03  0.25500000000E-02 0.  1.
          2   -1    0    0  501    0  0.00000000000E+00 -0.00000000000E+00 -0.46965619267E+00  0.46966311523E+00  0.25500000000E-02 0. -1.
         31    1    1    2    0    0 -0.19897581387E+00 -0.73473958984E-02  0.59239268416E+02  0.59705858121E+02  0.74470750000E+01 0.  1.
        -31    1    1    2    0    0  0.19897581387E+00  0.73473958984E-02  0.58463754404E+02  0.58936484035E+02  0.74470750000E+01 0.  1.
<mgrwt>
<rscale>  0 0.14899791E+02</rscale>
<asrwt>0</asrwt>
<pdfrwt beam="2">  1        2 0.99744236E+00 0.14899791E+02</pdfrwt>
<pdfrwt beam="1">  1       -2 0.98101789E+00 0.14899791E+02</pdfrwt>
<totfact> 0.78160498E-13</totfact>
</mgrwt>
</event>
<event>
 4    1  0.5021037E-019  0.1492192E+02  0.7818608E-02  0.1870461E+00
          2   -1    0    0  501    0  0.00000000000E+00  0.00000000000E+00  0.12000246214E+03  0.12000246217E+03  0.25500000000E-02 0. -1.
         -2   -1    0    0    0  501 -0.00000000000E+00 -0.00000000000E+00 -0.46386967767E+00  0.46387668659E+00  0.25500000000E-02 0.  1.
         31    1    1    2    0    0 -0.35183350807E+00  0.12647120626E+00  0.61862388097E+02  0.62310141782E+02  0.74470750000E+01 0. -1.
        -31    1    1    2    0    0  0.35183350807E+00 -0.12647120626E+00  0.57676204364E+02  0.58156197070E+02  0.74470750000E+01 0.  1.
<mgrwt>
<rscale>  0 0.14921920E+02</rscale>
<asrwt>0</asrwt>
<pdfrwt beam="1">  1        2 0.99609998E+00 0.14921920E+02</pdfrwt>
<pdfrwt beam="2">  1       -2 0.98526009E+00 0.14921920E+02</pdfrwt>
<totfact> 0.39208280E-13</totfact>
</mgrwt>
</event>
<event>
 4    1  0.5021037E-019  0.1490790E+02  0.7818608E-02  0.1870892E+00
          2   -1    0    0  501    0  0.00000000000E+00  0.00000000000E+00  0.11931583554E+03  0.11931583556E+03  0.25500000000E-02 0. -1.
         -2   -1    0    0    0  501 -0.00000000000E+00 -0.00000000000E+00 -0.46566256067E+00  0.46566954260E+00  0.25500000000E-02 0.  1.
         31    1    1    2    0    0 -0.87545068155E-01 -0.34270658496E-01  0.56967279292E+02  0.57452055443E+02  0.74470750000E+01 0.  1.
        -31    1    1    2    0    0  0.87545068155E-01  0.34270658496E-01  0.61882893682E+02  0.62329449662E+02  0.74470750000E+01 0. -1.
<mgrwt>
<rscale>  0 0.14907896E+02</rscale>
<asrwt>0</asrwt>
<pdfrwt beam="1">  1        2 0.99043729E+00 0.14907896E+02</pdfrwt>
<pdfrwt beam="2">  1       -2 0.98903140E+00 0.14907896E+02</pdfrwt>
<totfact> 0.10094436E-13</totfact>
</mgrwt>
</event>
<event>
 4    1 -0.5021037E-019  0.1493399E+02  0.7818608E-02  0.1870090E+00
         -2   -1    0    0    0  501 -0.00000000000E+00  0.00000000000E+00  0.11963732462E+03  0.11963732464E+03  0.25500000000E-02 0. -1.
          2   -1    0    0  501    0  0.00000000000E+00 -0.00000000000E+00 -0.46603838116E+00  0.46604535746E+00  0.25500000000E-02 0.  1.
         31    1    1    2    0    0  0.51416177840E+00  0.16736030019E+00  0.59033834559E+02  0.59504158852E+02  0.74470750000E+01 0.  1.
        -31    1    1    2    0    0 -0.51416177840E+00 -0.16736030019E+00  0.60137451676E+02  0.60599211150E+02  0.74470750000E+01 0.  1.
<mgrwt>
<rscale>  0 0.14933989E+02</rscale>
<asrwt>0</asrwt>
<pdfrwt beam="2">  1        2 0.98983685E+00 0.14933989E+02</pdfrwt>
<pdfrwt beam="1">  1       -2 0.99309870E+00 0.14933989E+02</pdfrwt>
<totfact>-0.16017244E-13</totfact>
</mgrwt>
</event>
<event>
 4    1  0.5021037E-019  0.1489638E+02  0.7818608E-02  0.1871247E+00
          2   -1    0    0  501    0  0.00000000000E+00  0.00000000000E+00  0.12042527643E+03  0.12042527645E+03  0.25500000000E-02 0.  1.
         -2   -1    0    0    0  501 -0.00000000000E+00 -0.00000000000E+00 -0.46065977112E+00  0.46066682887E+00  0.25500000000E-02 0. -1.
         31    1    1    2    0    0 -0.68648739195E-06 -0.12875615805E+00  0.59965488935E+02  0.60426280437E+02  0.74470750000E+01 0.  1.
        -31    1    1    2    0    0  0.68648739195E-06  0.12875615805E+00  0.59999127722E+02  0.60459662847E+02  0.74470750000E+01 0. -1.
<mgrwt>
<rscale>  0 0.14896377E+02</rscale>
<asrwt>0</asrwt>
<pdfrwt beam="1">  1        2 0.99956956E+00 0.14896377E+02</pdfrwt>
<pdfrwt beam="2">  1       -2 0.97848156E+00 0.14896377E+02</pdfrwt>
<totfact> 0.25356616E-13</totfact>
</mgrwt>
</event>
<event>
 4    1 -0.5021037E-019  0.1495006E+02  0.7818608E-02  0.1869596E+00
          2   -1    0    0  501    0  0.00000000000E+00  0.00000000000E+00  0.11885176593E+03  0.11885176595E+03  0.25500000000E-02 0. -1.
         -2   -1    0    0    0  501 -0.00000000000E+00 -0.00000000000E+00 -0.47012894126E+00  0.47013585687E+00  0.25500000000E-02 0.  1.
         31    1    1    2    0    0 -0.44632688276E+00 -0.44032265746E+00  0.57953029209E+02  0.58432915487E+02  0.74470750000E+01 0. -1.
        -31    1    1    2    0    0  0.44632688276E+00  0.44032265746E+00  0.60428607776E+02  0.60888986324E+02  0.74470750000E+01 0. -1.
<mgrwt>
<rscale>  0 0.14950059E+02</rscale>
<asrwt>0</asrwt>
<pdfrwt beam="1">  1        2 0.98663697E+00 0.14950059E+02</pdfrwt>
<pdfrwt beam="2">  1       -2 0.99846498E+00 0.14950059E+02</pdfrwt>
<totfact>-0.12830977E-13</totfact>
</mgrwt>
</event>
<event>
 4    1  0.5021037E-019  0.1491371E+02  0.7818608E-02  0.1870713E+00
         -2   -1    0    0    0  501 -0.00000000000E+00  0.00000000000E+00  0.11897111815E+03  0.11897111818E+03  0.25500000000E-02 0.  1.
          2   -1    0    0  501    0  0.00000000000E+00 -0.00000000000E+00 -0.46737625522E+00  0.46738321155E+00  0.25500000000E-02 0. -1.
         31    1    1    2    0    0  0.29917790829E+00 -0.21894616542E+00  0.59982451868E+02  0.60444113882E+02  0.74470750000E+01 0.  1.
        -31    1    1    2    0    0 -0.29917790829E+00  0.21894616542E+00  0.58521290030E+02  0.58994387510E+02  0.74470750000E+01 0. -1.
<mgrwt>
<rscale>  0 0.14913711E+02</rscale>
<asrwt>0</asrwt>
<pdfrwt beam="2">  1        2 0.99264568E+00 0.14913711E+02</pdfrwt>
<pdfrwt beam="1">  1       -2 0.98760110E+00 0.14913711E+02</pdfrwt>
<totfact> 0.22655903E-13</totfact>
</mgrwt>
</event>
<event>
 4    1 -0.5021037E-019  0.1490479E+02  0.7818608E-02  0.1870988E+00
         -2   -1    0    0    0  501 -0.00000000000E+00  0.00000000000E+00  0.11995081146E+03  0.11995081149E+03  0.25500000000E-02 0.  1.
          2   -1    0    0  501    0  0.00000000000E+00 -0.00000000000E+00 -0.46300460437E+00  0.46301162639E+00  0.25500000000E-02 0. -1.
         31    1    1    2    0    0  0.14556502536E+00  0.13469138230E+00  0.58129233047E+02  0.58604658446E+02  0.74470750000E+01 0. -1.
        -31    1    1    2    0    0 -0.14556502536E+00 -0.13469138230E+00  0.61358573809E+02  0.61809164667E+02  0.74470750000E+01 0.  1.
<mgrwt>
<rscale>  0 0.14904791E+02</rscale>
<asrwt>0</asrwt>
<pdfrwt beam="2">  1        2 0.98342814E+00 0.14904791E+02</pdfrwt>
<pdfrwt beam="1">  1       -2 0.99566574E+00 0.14904791E+02</pdfrwt>
<totfact>-0.43598162E-13</totfact>
</mgrwt>
</event>
<event>
 4    1  0.5021037E-019  0.1492614E+02  0.7818608E-02  0.1870331E+00
         -2   -1    0    0    0  501 -0.00000000000E+00  0.00000000000E+00  0.11859688379E+03  0.11859688382E+03  0.25500000000E-02 0. -1.
          2   -1    0    0  501    0  0.00000000000E+00 -0.00000000000E+00 -0.46963275508E+00  0.46963967799E+00  0.25500000000E-02 0.  1.
         31    1    1    2    0    0  0.41829512165E+00  0.84142653215E-01  0.57168875743E+02  0.57653458964E+02  0.74470750000E+01 0.  1.
        -31    1    1    2    0    0 -0.41829512165E+00 -0.84142653215E-01  0.60958375294E+02  0.61413064533E+02  0.74470750000E+01 0. -1.
<mgrwt>
<rscale>  0 0.14926137E+02</rscale>
<asrwt>0</asrwt>
<pdfrwt beam="2">  1        2 0.99740690E+00 0.14926137E+02</pdfrwt>
<pdfrwt beam="1">  1       -2 0.98452532E+00 0.14926137E+02</pdfrwt>
<totfact> 0.36819095E-13</totfact>
</mgrwt>
</event>
<event>
 4    1 -0.5021037E-019  0.1495004E+02  0.7818608E-02  0.1869597E+00
          2   -1    0    0  501    0  0.00000000000E+00  0.00000000000E+00  0.11924311480E+03  0.11924311483E+03  0.25500000000E-02 0.  1.
         -2   -1    0    0    0  501 -0.00000000000E+00 -0.00000000000E+00 -0.46858473080E+00  0.46859166919E+00  0.25500000000E-02 0. -1.
         31    1    1    2    0    0 -0.10965400487E+00 -0.25141024080E+00  0.64068458199E+02  0.64500399171E+02  0.74470750000E+01 0.  1.
        -31    1    1    2    0    0  0.10965400487E+00  0.25141024080E+00  0.54706071869E+02  0.55211307325E+02  0.74470750000E+01 0. -1.
<mgrwt>
<rscale>  0 0.14950039E+02</rscale>
<asrwt>0</asrwt>
<pdfrwt beam="1">  1        2 0.98986015E+00 0.14950039E+02</pdfrwt>
<pdfrwt beam="2">  1       -2 0.99521112E+00 0.14950039E+02</pdfrwt>
<totfact>-0.17983678E-13</totfact>
</mgrwt>
</event>
<event>
 4    1 -0.5021037E-019  0.1501658E+02  0.7818608E-02  0.1867563E+00
         -2   -1    0    0    0  501 -0.00000000000E+00  0.00000000000E+00  0.12046769567E+03  0.12046769570E+03  0.25500000000E-02 0. -1.
          2   -1    0    0  501    0  0.00000000000E+00 -0.00000000000E+00 -0.46795972977E+00  0.46796667743E+00  0.25500000000E-02 0.  1.
         31    1    1    2    0    0  0.36313195047E+00 -0.22875015490E+00  0.66887045392E+02  0.67301708439E+02  0.74470750000E+01 0. -1.
        -31    1    1    2    0    0 -0.36313195047E+00  0.22875015490E+00  0.53112690549E+02  0.53633953937E+02  0.74470750000E+01 0.  1.
<mgrwt>
<rscale>  0 0.15016584E+02</rscale>
<asrwt>0</asrwt>
<pdfrwt beam="2">  1        2 0.99392841E+00 0.15016584E+02</pdfrwt>
<pdfrwt beam="1">  1       -2 0.99998067E+00 0.15016584E+02</pdfrwt>
<totfact>-0.89028328E-16</totfact>
</mgrwt>
</event>
<event>
 4    1  0.5021037E-019  0.1493271E+02  0.7818608E-02  0.1870129E+00
         -2   -1    0    0    0  501 -0.00000000000E+00  0.00000000000E+00  0.11887600610E+03  0.11887600612E+03  0.25500000000E-02 0. -1.
          2   -1    0    0  501    0  0.00000000000E+00 -0.00000000000E+00 -0.46894261128E+00  0.46894954438E+00  0.25500000000E-02 0.  1.
         31    1    1    2    0    0  0.92227897588E-01 -0.40262441458E+00  0.56470933792E+02  0.56961354459E+02  0.74470750000E+01 0.  1.
        -31    1    1    2    0    0 -0.92227897588E-01  0.40262441458E+00  0.61936129692E+02  0.62383601208E+02  0.74470750000E+01 0. -1.
<mgrwt>
<rscale>  0 0.14932708E+02</rscale>
<asrwt>0</asrwt>
<pdfrwt beam="2">  1        2 0.99595618E+00 0.14932708E+02</pdfrwt>
<pdfrwt beam="1">  1       -2 0.98682759E+00 0.14932708E+02</pdfrwt>
<totfact> 0.23479053E-13</totfact>
</mgrwt>
</event>
<event>
 4    1 -0.5021037E-019  0.1492583E+02  0.7818608E-02  0.1870340E+00
         -2   -1    0    0    0  501 -0.00000000000E+00  0.00000000000E+00  0.12021733963E+03  0.12021733966E+03  0.25500000000E-02 0. -1.
          2   -1    0    0  501    0  0.00000000000E+00 -0.00000000000E+00 -0.46328319007E+00  0.46329020786E+00  0.25500000000E-02 0.  1.
         31    1    1    2    0    0  0.39846293846E+00  0.15685434119E+00  0.58019231823E+02  0.58496782505E+02  0.74470750000E+01 0.  1.
        -31    1    1    2    0    0 -0.39846293846E+00 -0.15685434119E+00  0.61734824617E+02  0.62183847361E+02  0.74470750000E+01 0. -1.
<mgrwt>
<rscale>  0 0.14925830E+02</rscale>
<asrwt>0</asrwt>
<pdfrwt beam="2">  1        2 0.98402597E+00 0.14925830E+02</pdfrwt>
<pdfrwt beam="1">  1       -2 0.99787188E+00 0.14925830E+02</pdfrwt>
<totfact>-0.25443976E-13</totfact>
</mgrwt>
</event>
<event>
 4    1  0.5021037E-019  0.1491211E+02  0.7818608E-02  0.1870763E+00
         -2   -1    0    0    0  501 -0.00000000000E+00  0.00000000000E+00  0.11905487575E+03  0.11905487578E+03  0.25500000000E-02 0.  1.
          2   -1    0    0  501    0  0.00000000000E+00 -0.00000000000E+00 -0.46694696362E+00  0.46695392635E+00  0.25500000000E-02 0. -1.
         31    1    1    2    0    0 -0.27637531774E+00  0.63599871543E-01  0.57442216494E+02  0.57923635850E+02  0.74470750000E+01 0. -1.
        -31    1    1    2    0    0  0.27637531774E+00 -0.63599871543E-01  0.61145712292E+02  0.61598193853E+02  0.74470750000E+01 0.  1.
<mgrwt>
<rscale>  0 0.14912107E+02</rscale>
<asrwt>0</asrwt>
<pdfrwt beam="2">  1        2 0.99174023E+00 0.14912107E+02</pdfrwt>
<pdfrwt beam="1">  1       -2 0.98829011E+00 0.14912107E+02</pdfrwt>
<totfact> 0.16407975E-13</totfact>
</mgrwt>
</event>
<event>
 4    1 -0.5021037E-019  0.1491295E+02  0.7818608E-02  0.1870737E+00
          2   -1    0    0  501    0  0.00000000000E+00  0.00000000000E+00  0.11872734761E+03  0.11872734764E+03  0.25500000000E-02 0. -1.
         -2   -1    0    0    0  501 -0.00000000000E+00 -0.00000000000E+00 -0.46828797292E+00  0.46829491571E+00  0.25500000000E-02 0.  1.
         31    1    1    2    0    0  0.20952869877E+00 -0.72382844378E-01  0.56719254944E+02  0.57206485201E+02  0.74470750000E+01 0.  1.
        -31    1    1    2    0    0 -0.20952869877E+00  0.72382844378E-01  0.61539804693E+02  0.61989157353E+02  0.74470750000E+01 0. -1.
<mgrwt>
<rscale>  0 0.14912948E+02</rscale>
<asrwt>0</asrwt>
<pdfrwt beam="1">  1        2 0.98559297E+00 0.14912948E+02</pdfrwt>
<pdfrwt beam="2">  1       -2 0.99456642E+00 0.14912948E+02</pdfrwt>
<totfact>-0.31616860E-13</totfact>
</mgrwt>
</event>
<event>
 4    1  0.5021037E-019  0.1491766E+02  0.7818608E-02  0.1870592E+00
          2   -1    0    0  501    0  0.00000000000E+00  0.00000000000E+00  0.12017057671E+03  0.12017057673E+03  0.25500000000E-02 0. -1.
         -2   -1    0    0    0  501 -0.00000000000E+00 -0.00000000000E+00 -0.46295603455E+00  0.46296305731E+00  0.25500000000E-02 0.  1.
         31    1    1    2    0    0 -0.14545574604E+00  0.37834670520E+00  0.60697661690E+02  0.61154144294E+02  0.74470750000E+01 0. -1.
        -31    1    1    2    0    0  0.14545574604E+00 -0.37834670520E+00  0.59009958982E+02  0.59479395497E+02  0.74470750000E+01 0. -1.
<mgrwt>
<rscale>  0 0.14917657E+02</rscale>
<asrwt>0</asrwt>
<pdfrwt beam="1">  1        2 0.99748251E+00 0.14917657E+02</pdfrwt>
<pdfrwt beam="2">  1       -2 0.98333229E+00 0.14917657E+02</pdfrwt>
<totfact> 0.48277113E-13</totfact>
</mgrwt>
</event>
<event>
 4    1 -0.5021037E-019  0.1499443E+02  0.7818608E-02  0.1868239E+00
          2   -1    0    0  501    0  0.00000000000E+00  0.00000000000E+00  0.11989682105E+03  0.11989682108E+03  0.25500000000E-02 0.  1.
         -2   -1    0    0    0  501 -0.00000000000E+00 -0.00000000000E+00 -0.46880145565E+00  0.46880839083E+00  0.25500000000E-02 0. -1.
         31    1    1    2    0    0 -0.32305525812E+00  0.64174987881E+00  0.55838453935E+02  0.56337448216E+02  0.74470750000E+01 0. -1.
        -31    1    1    2    0    0  0.32305525812E+00 -0.64174987881E+00  0.63589565660E+02  0.64028181253E+02  0.74470750000E+01 0.  1.
<mgrwt>
<rscale>  0 0.14994429E+02</rscale>
<asrwt>0</asrwt>
<pdfrwt beam="1">  1        2 0.99526724E+00 0.14994429E+02</pdfrwt>
<pdfrwt beam="2">  1       -2 0.99569087E+00 0.14994429E+02</pdfrwt>
<totfact>-0.11195592E-13</totfact>
</mgrwt>
</event>
<event>
 4    1  0.5021037E-019  0.1492523E+02  0.7818608E-02  0.1870359E+00
         -2   -1    0    0    0  501 -0.00000000000E+00  0.00000000000E+00  0.11893579171E+03  0.11893579174E+03  0.25500000000E-02 0.  1.
          2   -1    0    0  501    0  0.00000000000E+00 -0.00000000000E+00 -0.46823752658E+00  0.46824447012E+00  0.25500000000E-02 0. -1.
         31    1    1    2    0    0  0.14376111404E+00 -0.45891453986E+00  0.59069580919E+02  0.59539109716E+02  0.74470750000E+01 0. -1.
        -31    1    1    2    0    0 -0.14376111404E+00  0.45891453986E+00  0.59397973267E+02  0.59864926494E+02  0.74470750000E+01 0.  1.
<mgrwt>
<rscale>  0 0.14925229E+02</rscale>
<asrwt>0</asrwt>
<pdfrwt beam="2">  1        2 0.99446655E+00 0.14925229E+02</pdfrwt>
<pdfrwt beam="1">  1       -2 0.98731611E+00 0.14925229E+02</pdfrwt>
<totfact> 0.22538897E-13</totfact>
</mgrwt>
</event>
<event>
 4    1  0.5021037E-019  0.1494608E+02  0.7818608E-02  0.1869718E+00
         -2   -1    0    0    0  501 -0.00000000000E+00  0.00000000000E+00  0.11903107891E+03  0.11903107893E+03  0.25500000000E-02 0. -1.
          2   -1    0    0  501    0  0.00000000000E+00 -0.00000000000E+00 -0.46917086670E+00  0.46917779643E+00  0.25500000000E-02 0.  1.
         31    1    1    2    0    0  0.39314611760E+00  0.43178572387E+00  0.61003245322E+02  0.61458895765E+02  0.74470750000E+01 0.  1.
        -31    1    1    2    0    0 -0.39314611760E+00 -0.43178572387E+00  0.57558662718E+02  0.58041360966E+02  0.74470750000E+01 0.  1.
<mgrwt>
<rscale>  0 0.14946080E+02</rscale>
<asrwt>0</asrwt>
<pdfrwt beam="2">  1        2 0.99644414E+00 0.14946080E+02</pdfrwt>
<pdfrwt beam="1">  1       -2 0.98811173E+00 0.14946080E+02</pdfrwt>
<totfact> 0.11683272E-13</totfact>
</mgrwt>
</event>
<event>
 4    1  0.5021037E-019  0.1491837E+02  0.7818608E-02  0.1870570E+00
          2   -1    0    0  501    0  0.00000000000E+00  0.00000000000E+00  0.11979407028E+03  0.11979407030E+03  0.25500000000E-02 0.  1.
         -2   -1    0    0    0  501 -0.00000000000E+00 -0.00000000000E+00 -0.46445577896E+00  0.46446277904E+00  0.25500000000E-02 0. -1.
         31    1    1    2    0    0  0.39859413747E+00  0.12097935187E+00  0.60340759427E+02  0.60799997430E+02  0.74470750000E+01 0.  1.
        -31    1    1    2    0    0 -0.39859413747E+00 -0.12097935187E+00  0.58988855071E+02  0.59458535653E+02  0.74470750000E+01 0.  1.
<mgrwt>
<rscale>  0 0.14918374E+02</rscale>
<asrwt>0</asrwt>
<pdfrwt beam="1">  1        2 0.99438169E+00 0.14918374E+02</pdfrwt>
<pdfrwt beam="2">  1       -2 0.98649354E+00 0.14918374E+02</pdfrwt>
<totfact> 0.31790528E-13</totfact>
</mgrwt>
</event>
<event>
 4    1  0.5021037E-019  0.1492876E+02  0.7818608E-02  0.1870250E+00
         -2   -1    0    0    0  501 -0.00000000000E+00  0.00000000000E+00  0.11885392355E+03  0.11885392357E+03  0.25500000000E-02 0.  1.
          2   -1    0    0  501    0  0.00000000000E+00 -0.00000000000E+00 -0.46878172172E+00  0.46878865720E+00  0.25500000000E-02 0. -1.
         31    1    1    2    0    0 -0.33749634645E+00 -0.37963470215E+00  0.59167321602E+02  0.59636305200E+02  0.74470750000E+01 0. -1.
        -31    1    1    2    0    0  0.33749634645E+00  0.37963470215E+00  0.59217820224E+02  0.59686407032E+02  0.74470750000E+01 0.  1.
<mgrwt>
<rscale>  0 0.14928759E+02</rscale>
<asrwt>0</asrwt>
<pdfrwt beam="2">  1        2 0.99561509E+00 0.14928759E+02</pdfrwt>
<pdfrwt beam="1">  1       -2 0.98664367E+00 0.14928759E+02</pdfrwt>
<totfact> 0.26414568E-13</totfact>
</mgrwt>
</event>
<event>
 4    1  0.5021037E-019  0.1493069E+02  0.7818608E-02  0.1870191E+00
          2   -1    0    0  501    0  0.00000000000E+00  0.00000000000E+00  0.12020164898E+03  0.12020164901E+03  0.25500000000E-02 0. -1.
         -2   -1    0    0    0  501 -0.00000000000E+00 -0.00000000000E+00 -0.46364553886E+00  0.46365255117E+00  0.25500000000E-02 0.  1.
         31    1    1    2    0    0  0.16308678299E+00  0.23911522713E+00  0.63379506256E+02  0.63816177515E+02  0.74470750000E+01 0. -1.
        -31    1    1    2    0    0 -0.16308678299E+00 -0.23911522713E+00  0.56358497185E+02  0.56849124043E+02  0.74470750000E+01 0.  1.
<mgrwt>
<rscale>  0 0.14930691E+02</rscale>
<asrwt>0</asrwt>
<pdfrwt beam="1">  1        2 0.99774514E+00 0.14930691E+02</pdfrwt>
<pdfrwt beam="2">  1       -2 0.98479214E+00 0.14930691E+02</pdfrwt>
<totfact> 0.30927399E-13</totfact>
</mgrwt>
</event>
<event>
 4    1  0.5021037E-019  0.1489526E+02  0.7818608E-02  0.1871281E+00
          2   -1    0    0  501    0  0.00000000000E+00  0.00000000000E+00  0.12002765588E+03  0.12002765591E+03  0.25500000000E-02 0.  1.
         -2   -1    0    0    0  501 -0.00000000000E+00 -0.00000000000E+00 -0.46211686560E+00  0.46212390111E+00  0.25500000000E-02 0. -1.
         31    1    1    2    0    0 -0.73184856402E-01 -0.44537681600E-01  0.60033913862E+02  0.60494107806E+02  0.74470750000E+01 0.  1.
        -31    1    1    2    0    0  0.73184856402E-01  0.44537681600E-01  0.59531625157E+02  0.59995672006E+02  0.74470750000E+01 0. -1.
<mgrwt>
<rscale>  0 0.14895265E+02</rscale>
<asrwt>0</asrwt>
<pdfrwt beam="1">  1        2 0.99629380E+00 0.14895265E+02</pdfrwt>
<pdfrwt beam="2">  1       -2 0.98155225E+00 0.14895265E+02</pdfrwt>
<totfact> 0.90547064E-13</totfact>
</mgrwt>
</event>
<event>
 4    1 -0.5021037E-019  0.1490188E+02  0.7818608E-02  0.1871077E+00
          2   -1    0    0  501    0  0.00000000000E+00  0.00000000000E+00  0.11840808306E+03  0.11840808309E+03  0.25500000000E-02 0. -1.
         -2   -1    0    0    0  501 -0.00000000000E+00 -0.00000000000E+00 -0.46885409731E+00  0.46886103172E+00  0.25500000000E-02 0.  1.
         31    1    1    2    0    0 -0.12332958260E+00  0.18894609713E+00  0.59622187292E+02  0.60085897300E+02  0.74470750000E+01 0. -1.
        -31    1    1    2    0    0  0.12332958260E+00 -0.18894609713E+00  0.58317041671E+02  0.58791046819E+02  0.74470750000E+01 0.  1.
<mgrwt>
<rscale>  0 0.14901883E+02</rscale>
<asrwt>0</asrwt>
<pdfrwt beam="1">  1        2 0.98295775E+00 0.14901883E+02</pdfrwt>
<pdfrwt beam="2">  1       -2 0.99575347E+00 0.14901883E+02</pdfrwt>
<totfact>-0.46865186E-13</totfact>
</mgrwt>
</event>
<event>
 4    1 -0.5021037E-019  0.1502464E+02  0.7818608E-02  0.1867318E+00
          2   -1    0    0  501    0  0.00000000000E+00  0.00000000000E+00  0.11995804399E+03  0.11995804402E+03  0.25500000000E-02 0.  1.
         -2   -1    0    0    0  501 -0.00000000000E+00 -0.00000000000E+00 -0.47045221948E+00  0.47045913033E+00  0.25500000000E-02 0. -1.
         31    1    1    2    0    0 -0.48390307899E+00 -0.59253017234E+00  0.54733269267E+02  0.55242872345E+02  0.74470750000E+01 0.  1.
        -31    1    1    2    0    0  0.48390307899E+00  0.59253017234E+00  0.64754322508E+02  0.65185630807E+02  0.74470750000E+01 0.  1.
<mgrwt>
<rscale>  0 0.15024639E+02</rscale>
<asrwt>0</asrwt>
<pdfrwt beam="1">  1        2 0.99578712E+00 0.15024639E+02</pdfrwt>
<pdfrwt beam="2">  1       -2 0.99918517E+00 0.15024639E+02</pdfrwt>
<totfact>-0.29260164E-14</totfact>
</mgrwt>
</event>
<event>
 4    1  0.5021037E-019  0.1490286E+02  0.7818608E-02  0.1871047E+00
          2   -1    0    0  501    0  0.00000000000E+00  0.00000000000E+00  0.11993791694E+03  0.11993791697E+03  0.25500000000E-02 0.  1.
         -2   -1    0    0    0  501 -0.00000000000E+00 -0.00000000000E+00 -0.46293437887E+00  0.46294140195E+00  0.25500000000E-02 0. -1.
         31    1    1    2    0    0 -0.12534625921E+00  0.22118804397E+00  0.59610361515E+02  0.60074277040E+02  0.74470750000E+01 0.  1.
        -31    1    1    2    0    0  0.12534625921E+00 -0.22118804397E+00  0.59864621044E+02  0.60326581328E+02  0.74470750000E+01 0.  1.
<mgrwt>
<rscale>  0 0.14902860E+02</rscale>
<asrwt>0</asrwt>
<pdfrwt beam="1">  1        2 0.99555854E+00 0.14902860E+02</pdfrwt>
<pdfrwt beam="2">  1       -2 0.98327915E+00 0.14902860E+02</pdfrwt>
<totfact> 0.70251356E-13</totfact>
</mgrwt>
</event>
<event>
 4    1 -0.5021037E-019  0.1494068E+02  0.7818608E-02  0.1869884E+00
          2   -1    0    0  501    0  0.00000000000E+00  0.00000000000E+00  0.11872209359E+03  0.11872209362E+03  0.25500000000E-02 0.  1.
         -2   -1    0    0    0  501 -0.00000000000E+00 -0.00000000000E+00 -0.47005193341E+00  0.47005885015E+00  0.25500000000E-02 0. -1.
         31    1    1    2    0    0 -0.27282212591E+00  0.52160309041E+00  0.58941371899E+02  0.59412883696E+02  0.74470750000E+01 0. -1.
        -31    1    1    2    0    0  0.27282212591E+00 -0.52160309041E+00  0.59310669758E+02  0.59779268772E+02  0.74470750000E+01 0.  1.
<mgrwt>
<rscale>  0 0.14940678E+02</rscale>
<asrwt>0</asrwt>
<pdfrwt beam="1">  1        2 0.98556411E+00 0.14940678E+02</pdfrwt>
<pdfrwt beam="2">  1       -2 0.99829778E+00 0.14940678E+02</pdfrwt>
<totfact>-0.16504450E-13</totfact>
</mgrwt>
</event>
<event>
 4    1 -0.5021037E-019  0.1491005E+02  0.7818608E-02  0.1870826E+00
         -2   -1    0    0    0  501 -0.00000000000E+00  0.00000000000E+00  0.12001425452E+03  0.12001425455E+03  0.25500000000E-02 0.  1.
          2   -1    0    0  501    0  0.00000000000E+00 -0.00000000000E+00 -0.46308634840E+00  0.46309336917E+00  0.25500000000E-02 0. -1.
         31    1    1    2    0    0 -0.84890474024E-01  0.23173004353E+00  0.61714113050E+02  0.62162300318E+02  0.74470750000E+01 0.  1.
        -31    1    1    2    0    0  0.84890474024E-01 -0.23173004353E+00  0.57837055120E+02  0.58315047596E+02  0.74470750000E+01 0. -1.
<mgrwt>
<rscale>  0 0.14910049E+02</rscale>
<asrwt>0</asrwt>
<pdfrwt beam="2">  1        2 0.98360309E+00 0.14910049E+02</pdfrwt>
<pdfrwt beam="1">  1       -2 0.99619101E+00 0.14910049E+02</pdfrwt>
<totfact>-0.40148056E-13</totfact>
</mgrwt>
</event>
<event>
 4    1 -0.5021037E-019  0.1497688E+02  0.7818608E-02  0.1868775E+00
          2   -1    0    0  501    0  0.00000000000E+00  0.00000000000E+00  0.11946895063E+03  0.11946895066E+03  0.25500000000E-02 0.  1.
         -2   -1    0    0    0  501 -0.00000000000E+00 -0.00000000000E+00 -0.46937987560E+00  0.46938680224E+00  0.25500000000E-02 0. -1.
         31    1    1    2    0    0  0.59802430011E+00 -0.32735872346E+00  0.56367191071E+02  0.56861093483E+02  0.74470750000E+01 0.  1.
        -31    1    1    2    0    0 -0.59802430011E+00  0.32735872346E+00  0.62632379681E+02  0.63077243974E+02  0.74470750000E+01 0.  1.
<mgrwt>
<rscale>  0 0.14976881E+02</rscale>
<asrwt>0</asrwt>
<pdfrwt beam="1">  1        2 0.99173409E+00 0.14976881E+02</pdfrwt>
<pdfrwt beam="2">  1       -2 0.99690065E+00 0.14976881E+02</pdfrwt>
<totfact>-0.12627157E-13</totfact>
</mgrwt>
</event>
<event>
 4    1  0.5021037E-019  0.1491268E+02  0.7818608E-02  0.1870745E+00
         -2   -1    0    0    0  501 -0.00000000000E+00  0.00000000000E+00  0.11819646951E+03  0.11819646953E+03  0.25500000000E-02 0. -1.
          2   -1    0    0  501    0  0.00000000000E+00 -0.00000000000E+00 -0.47037432482E+00  0.47038123682E+00  0.25500000000E-02 0.  1.
         31    1    1    2    0    0 -0.29931586407E+00  0.20926452622E+00  0.59407920694E+02  0.59873978897E+02  0.74470750000E+01 0. -1.
        -31    1    1    2    0    0  0.29931586407E+00 -0.20926452622E+00  0.58318174486E+02  0.58792871873E+02  0.74470750000E+01 0.  1.
<mgrwt>
<rscale>  0 0.14912679E+02</rscale>
<asrwt>0</asrwt>
<pdfrwt beam="2">  1        2 0.99896223E+00 0.14912679E+02</pdfrwt>
<pdfrwt beam="1">  1       -2 0.98122055E+00 0.14912679E+02</pdfrwt>
<totfact> 0.36144980E-13</totfact>
</mgrwt>
</event>
<event>
 4    1 -0.5021037E-019  0.1503039E+02  0.7818608E-02  0.1867143E+00
         -2   -1    0    0    0  501 -0.00000000000E+00  0.00000000000E+00  0.12018256594E+03  0.12018256597E+03  0.25500000000E-02 0.  1.
          2   -1    0    0  501    0  0.00000000000E+00 -0.00000000000E+00 -0.46993263690E+00  0.46993955539E+00  0.25500000000E-02 0. -1.
         31    1    1    2    0    0 -0.73886842884E+00 -0.67070372747E+00  0.58627519094E+02  0.59107027427E+02  0.74470750000E+01 0.  1.
        -31    1    1    2    0    0  0.73886842884E+00  0.67070372747E+00  0.61085114212E+02  0.61545478099E+02  0.74470750000E+01 0. -1.
<mgrwt>
<rscale>  0 0.15030386E+02</rscale>
<asrwt>0</asrwt>
<pdfrwt beam="2">  1        2 0.99809324E+00 0.15030386E+02</pdfrwt>
<pdfrwt beam="1">  1       -2 0.99763933E+00 0.15030386E+02</pdfrwt>
<totfact>-0.42694208E-14</totfact>
</mgrwt>
</event>
<event>
 4    1  0.5021037E-019  0.1491367E+02  0.7818608E-02  0.1870714E+00
          2   -1    0    0  501    0  0.00000000000E+00  0.00000000000E+00  0.12002154007E+03  0.12002154009E+03  0.25500000000E-02 0. -1.
         -2   -1    0    0    0  501 -0.00000000000E+00 -0.00000000000E+00 -0.46328332963E+00  0.46329034742E+00  0.25500000000E-02 0.  1.
         31    1    1    2    0    0 -0.32557250483E+00 -0.19676895649E+00  0.60002076737E+02  0.60463649032E+02  0.74470750000E+01 0. -1.
        -31    1    1    2    0    0  0.32557250483E+00  0.19676895649E+00  0.59556180000E+02  0.60021181409E+02  0.74470750000E+01 0.  1.
<mgrwt>
<rscale>  0 0.14913672E+02</rscale>
<asrwt>0</asrwt>
<pdfrwt beam="1">  1        2 0.99625288E+00 0.14913672E+02</pdfrwt>
<pdfrwt beam="2">  1       -2 0.98402010E+00 0.14913672E+02</pdfrwt>
<totfact> 0.53449276E-13</totfact>
</mgrwt>
</event>
<event>
 4    1 -0.5021037E-019  0.1492184E+02  0.7818608E-02  0.1870463E+00
          2   -1    0    0  501    0  0.00000000000E+00  0.00000000000E+00  0.11828702923E+03  0.11828702926E+03  0.25500000000E-02 0. -1.
         -2   -1    0    0    0  501 -0.00000000000E+00 -0.00000000000E+00 -0.47059159380E+00  0.47059850261E+00  0.25500000000E-02 0.  1.
         31    1    1    2    0    0 -0.73633033398E-01 -0.15584764445E+00  0.55563151754E+02  0.56060257484E+02  0.74470750000E+01 0.  1.
        -31    1    1    2    0    0  0.73633033398E-01  0.15584764445E+00  0.62253285881E+02  0.62697370274E+02  0.74470750000E+01 0.  1.
<mgrwt>
<rscale>  0 0.14921835E+02</rscale>
<asrwt>0</asrwt>
<pdfrwt beam="1">  1        2 0.98197116E+00 0.14921835E+02</pdfrwt>
<pdfrwt beam="2">  1       -2 0.99942486E+00 0.14921835E+02</pdfrwt>
<totfact>-0.11143902E-13</totfact>
</mgrwt>
</event>
<event>
 4    1 -0.5021037E-019  0.1490353E+02  0.7818608E-02  0.1871027E+00
          2   -1    0    0  501    0  0.00000000000E+00  0.00000000000E+00  0.11845217182E+03  0.11845217185E+03  0.25500000000E-02 0.  1.
         -2   -1    0    0    0  501 -0.00000000000E+00 -0.00000000000E+00 -0.46878344143E+00  0.46879037688E+00  0.25500000000E-02 0. -1.
         31    1    1    2    0    0 -0.97256589094E-01 -0.22995566508E+00  0.59685774593E+02  0.60149089380E+02  0.74470750000E+01 0.  1.
        -31    1    1    2    0    0  0.97256589094E-01  0.22995566508E+00  0.58297613785E+02  0.58771872843E+02  0.74470750000E+01 0. -1.
<mgrwt>
<rscale>  0 0.14903534E+02</rscale>
<asrwt>0</asrwt>
<pdfrwt beam="1">  1        2 0.98332172E+00 0.14903534E+02</pdfrwt>
<pdfrwt beam="2">  1       -2 0.99560546E+00 0.14903534E+02</pdfrwt>
<totfact>-0.44587570E-13</totfact>
</mgrwt>
</event>
<event>
 4    1  0.5021037E-019  0.1495079E+02  0.7818608E-02  0.1869574E+00
          2   -1    0    0  501    0  0.00000000000E+00  0.00000000000E+00  0.12039228313E+03  0.12039228315E+03  0.25500000000E-02 0. -1.
         -2   -1    0    0    0  501 -0.00000000000E+00 -0.00000000000E+00 -0.46415846020E+00  0.46416546476E+00  0.25500000000E-02 0.  1.
         31    1    1    2    0    0 -0.16926654722E+00  0.12511838433E+00  0.64935912760E+02  0.65361884901E+02  0.74470750000E+01 0. -1.
        -31    1    1    2    0    0  0.16926654722E+00 -0.12511838433E+00  0.54992211907E+02  0.55494563718E+02  0.74470750000E+01 0.  1.
<mgrwt>
<rscale>  0 0.14950789E+02</rscale>
<asrwt>0</asrwt>
<pdfrwt beam="1">  1        2 0.99932568E+00 0.14950789E+02</pdfrwt>
<pdfrwt beam="2">  1       -2 0.98588340E+00 0.14950789E+02</pdfrwt>
<totfact> 0.79506087E-14</totfact>
</mgrwt>
</event>
<event>
 4    1 -0.5021037E-019  0.1491342E+02  0.7818608E-02  0.1870722E+00
          2   -1    0    0  501    0  0.00000000000E+00  0.00000000000E+00  0.11844089305E+03  0.11844089308E+03  0.25500000000E-02 0. -1.
         -2   -1    0    0    0  501 -0.00000000000E+00 -0.00000000000E+00 -0.46945043044E+00  0.46945735604E+00  0.25500000000E-02 0.  1.
         31    1    1    2    0    0 -0.27186903363E+00 -0.20157166534E+00  0.57626227507E+02  0.58106415882E+02  0.74470750000E+01 0.  1.
        -31    1    1    2    0    0  0.27186903363E+00  0.20157166534E+00  0.60345215115E+02  0.60803934554E+02  0.74470750000E+01 0. -1.
<mgrwt>
<rscale>  0 0.14913422E+02</rscale>
<asrwt>0</asrwt>
<pdfrwt beam="1">  1        2 0.98323397E+00 0.14913422E+02</pdfrwt>
<pdfrwt beam="2">  1       -2 0.99701603E+00 0.14913422E+02</pdfrwt>
<totfact>-0.37152331E-13</totfact>
</mgrwt>
</event>
<event>
 4    1  0.5021037E-019  0.1489582E+02  0.7818608E-02  0.1871264E+00
         -2   -1    0    0    0  501 -0.00000000000E+00  0.00000000000E+00  0.11812078549E+03  0.11812078551E+03  0.25500000000E-02 0. -1.
          2   -1    0    0  501    0  0.00000000000E+00 -0.00000000000E+00 -0.46961180374E+00  0.46961872696E+00  0.25500000000E-02 0.  1.
         31    1    1    2    0    0 -0.10164130764E+00  0.43024988924E-01  0.58707738624E+02  0.59178287256E+02  0.74470750000E+01 0. -1.
        -31    1    1    2    0    0  0.10164130764E+00 -0.43024988924E-01  0.58943435059E+02  0.59412116986E+02  0.74470750000E+01 0.  1.
<mgrwt>
<rscale>  0 0.14895815E+02</rscale>
<asrwt>0</asrwt>
<pdfrwt beam="2">  1        2 0.99734672E+00 0.14895815E+02</pdfrwt>
<pdfrwt beam="1">  1       -2 0.98058844E+00 0.14895815E+02</pdfrwt>
<totfact> 0.86662718E-13</totfact>
</mgrwt>
</event>
<event>
 4    1 -0.5021037E-019  0.1490356E+02  0.7818608E-02  0.1871026E+00
          2   -1    0    0  501    0  0.00000000000E+00  0.00000000000E+00  0.11867274264E+03  0.11867274266E+03  0.25500000000E-02 0.  1.
         -2   -1    0    0    0  501 -0.00000000000E+00 -0.00000000000E+00 -0.46791370442E+00  0.46792065277E+00  0.25500000000E-02 0. -1.
         31    1    1    2    0    0  0.96924063422E-01 -0.63858224038E-01  0.57200220398E+02  0.57683079077E+02  0.74470750000E+01 0. -1.
        -31    1    1    2    0    0 -0.96924063422E-01  0.63858224038E-01  0.61004608535E+02  0.61457584241E+02  0.74470750000E+01 0.  1.
<mgrwt>
<rscale>  0 0.14903559E+02</rscale>
<asrwt>0</asrwt>
<pdfrwt beam="1">  1        2 0.98513836E+00 0.14903559E+02</pdfrwt>
<pdfrwt beam="2">  1       -2 0.99377287E+00 0.14903559E+02</pdfrwt>
<totfact>-0.32649395E-13</totfact>
</mgrwt>
</event>
<event>
 4    1 -0.5021037E-019  0.1496596E+02  0.7818608E-02  0.1869109E+00
          2   -1    0    0  501    0  0.00000000000E+00  0.00000000000E+00  0.11955018216E+03  0.11955018219E+03  0.25500000000E-02 0. -1.
         -2   -1    0    0    0  501 -0.00000000000E+00 -0.00000000000E+00 -0.46837683684E+00  0.46838377832E+00  0.25500000000E-02 0.  1.
         31    1    1    2    0    0 -0.30816565182E+00 -0.65654506116E+00  0.58738525490E+02  0.59213168470E+02  0.74470750000E+01 0.  1.
        -31    1    1    2    0    0  0.30816565182E+00  0.65654506116E+00  0.60343279836E+02  0.60805397498E+02  0.74470750000E+01 0. -1.
<mgrwt>
<rscale>  0 0.14965955E+02</rscale>
<asrwt>0</asrwt>
<pdfrwt beam="1">  1        2 0.99239748E+00 0.14965955E+02</pdfrwt>
<pdfrwt beam="2">  1       -2 0.99478131E+00 0.14965955E+02</pdfrwt>
<totfact>-0.14743281E-13</totfact>
</mgrwt>
</event>
<event>
 4    1 -0.5021037E-019  0.1497137E+02  0.7818608E-02  0.1868943E+00
          2   -1    0    0  501    0  0.00000000000E+00  0.00000000000E+00  0.11924953721E+03  0.11924953724E+03  0.25500000000E-02 0.  1.
         -2   -1    0    0    0  501 -0.00000000000E+00 -0.00000000000E+00 -0.46989755087E+00  0.46990446988E+00  0.25500000000E-02 0. -1.
         31    1    1    2    0    0  0.73570936072E+00  0.10133010131E+00  0.60654671541E+02  0.61114643433E+02  0.74470750000E+01 0.  1.
        -31    1    1    2    0    0 -0.73570936072E+00 -0.10133010131E+00  0.58124968122E+02  0.58604798279E+02  0.74470750000E+01 0.  1.
<mgrwt>
<rscale>  0 0.14971370E+02</rscale>
<asrwt>0</asrwt>
<pdfrwt beam="1">  1        2 0.98992411E+00 0.14971370E+02</pdfrwt>
<pdfrwt beam="2">  1       -2 0.99798860E+00 0.14971370E+02</pdfrwt>
<totfact>-0.10741330E-13</totfact>
</mgrwt>
</event>
<event>
 4    1 -0.5021037E-019  0.1494019E+02  0.7818608E-02  0.1869899E+00
          2   -1    0    0  501    0  0.00000000000E+00  0.00000000000E+00  0.11914184568E+03  0.11914184571E+03  0.25500000000E-02 0.  1.
         -2   -1    0    0    0  501 -0.00000000000E+00 -0.00000000000E+00 -0.46836551852E+00  0.46837246016E+00  0.25500000000E-02 0. -1.
         31    1    1    2    0    0  0.55604311480E+00 -0.59369249123E-01  0.60739822105E+02  0.61197202747E+02  0.74470750000E+01 0.  1.
        -31    1    1    2    0    0 -0.55604311480E+00  0.59369249123E-01  0.57933658060E+02  0.58413015424E+02  0.74470750000E+01 0. -1.
<mgrwt>
<rscale>  0 0.14940194E+02</rscale>
<asrwt>0</asrwt>
<pdfrwt beam="1">  1        2 0.98902097E+00 0.14940194E+02</pdfrwt>
<pdfrwt beam="2">  1       -2 0.99474406E+00 0.14940194E+02</pdfrwt>
<totfact>-0.19807279E-13</totfact>
</mgrwt>
</event>
<event>
 4    1  0.5021037E-019  0.1491685E+02  0.7818608E-02  0.1870616E+00
         -2   -1    0    0    0  501 -0.00000000000E+00  0.00000000000E+00  0.11848233683E+03  0.11848233685E+03  0.25500000000E-02 0. -1.
          2   -1    0    0  501    0  0.00000000000E+00 -0.00000000000E+00 -0.46950196559E+00  0.46950889043E+00  0.25500000000E-02 0.  1.
         31    1    1    2    0    0 -0.26896912488E+00  0.29412715679E+00  0.58196236344E+02  0.58672137389E+02  0.74470750000E+01 0. -1.
        -31    1    1    2    0    0  0.26896912488E+00 -0.29412715679E+00  0.59816598517E+02  0.60279708355E+02  0.74470750000E+01 0. -1.
<mgrwt>
<rscale>  0 0.14916850E+02</rscale>
<asrwt>0</asrwt>
<pdfrwt beam="2">  1        2 0.99712643E+00 0.14916850E+02</pdfrwt>
<pdfrwt beam="1">  1       -2 0.98357709E+00 0.14916850E+02</pdfrwt>
<totfact> 0.50085527E-13</totfact>
</mgrwt>
</event>
<event>
 4    1  0.5021037E-019  0.1491736E+02  0.7818608E-02  0.1870601E+00
          2   -1    0    0  501    0  0.00000000000E+00  0.00000000000E+00  0.12036998982E+03  0.12036998984E+03  0.25500000000E-02 0.  1.
         -2   -1    0    0    0  501 -0.00000000000E+00 -0.00000000000E+00 -0.46217085355E+00  0.46217788823E+00  0.25500000000E-02 0. -1.
         31    1    1    2    0    0 -0.24802419320E+00  0.32596025603E+00  0.59367816275E+02  0.59834474189E+02  0.74470750000E+01 0.  1.
        -31    1    1    2    0    0  0.24802419320E+00 -0.32596025603E+00  0.60540002687E+02  0.60997693542E+02  0.74470750000E+01 0.  1.
<mgrwt>
<rscale>  0 0.14917363E+02</rscale>
<asrwt>0</asrwt>
<pdfrwt beam="1">  1        2 0.99912490E+00 0.14917363E+02</pdfrwt>
<pdfrwt beam="2">  1       -2 0.98167719E+00 0.14917363E+02</pdfrwt>
<totfact> 0.28462651E-13</totfact>
</mgrwt>
</event>
<event>
 4    1  0.5021037E-019  0.1490557E+02  0.7818608E-02  0.1870964E+00
         -2   -1    0    0    0  501 -0.00000000000E+00  0.00000000000E+00  0.11827976439E+03  0.11827976441E+03  0.25500000000E-02 0.  1.
          2   -1    0    0  501    0  0.00000000000E+00 -0.00000000000E+00 -0.46959532654E+00  0.46960225001E+00  0.25500000000E-02 0. -1.
         31    1    1    2    0    0 -0.20791246427E+00 -0.72143491910E-01  0.57379307461E+02  0.57860973747E+02  0.74470750000E+01 0.  1.
        -31    1    1    2    0    0  0.20791246427E+00  0.72143491910E-01  0.60430861598E+02  0.60888392915E+02  0.74470750000E+01 0. -1.
<mgrwt>
<rscale>  0 0.14905574E+02</rscale>
<asrwt>0</asrwt>
<pdfrwt beam="2">  1        2 0.99731718E+00 0.14905574E+02</pdfrwt>
<pdfrwt beam="1">  1       -2 0.98190285E+00 0.14905574E+02</pdfrwt>
<totfact> 0.68375208E-13</totfact>
</mgrwt>
</event>
<event>
 4    1 -0.5021037E-019  0.1490549E+02  0.7818608E-02  0.1870966E+00
          2   -1    0    0  501    0  0.00000000000E+00  0.00000000000E+00  0.11848552084E+03  0.11848552087E+03  0.25500000000E-02 0. -1.
         -2   -1    0    0    0  501 -0.00000000000E+00 -0.00000000000E+00 -0.46877481302E+00  0.46878174861E+00  0.25500000000E-02 0.  1.
         31    1    1    2    0    0  0.25541810050E+00 -0.58820278692E-01  0.58004668532E+02  0.58481357678E+02  0.74470750000E+01 0. -1.
        -31    1    1    2    0    0 -0.25541810050E+00  0.58820278692E-01  0.60012077494E+02  0.60472944938E+02  0.74470750000E+01 0. -1.
<mgrwt>
<rscale>  0 0.14905495E+02</rscale>
<asrwt>0</asrwt>
<pdfrwt beam="1">  1        2 0.98359740E+00 0.14905495E+02</pdfrwt>
<pdfrwt beam="2">  1       -2 0.99558832E+00 0.14905495E+02</pdfrwt>
<totfact>-0.42617741E-13</totfact>
</mgrwt>
</event>
<event>
 4    1 -0.5021037E-019  0.1495839E+02  0.7818608E-02  0.1869341E+00
          2   -1    0    0  501    0  0.00000000000E+00  0.00000000000E+00  0.11910359328E+03  0.11910359330E+03  0.25500000000E-02 0.  1.
         -2   -1    0    0    0  501 -0.00000000000E+00 -0.00000000000E+00 -0.46965816743E+00  0.46966508996E+00  0.25500000000E-02 0. -1.
         31    1    1    2    0    0 -0.31322957961E-01  0.37365246655E+00  0.63970299669E+02  0.64403406456E+02  0.74470750000E+01 0. -1.
        -31    1    1    2    0    0  0.31322957961E-01 -0.37365246655E+00  0.54663635440E+02  0.55169851938E+02  0.74470750000E+01 0. -1.
<mgrwt>
<rscale>  0 0.14958394E+02</rscale>
<asrwt>0</asrwt>
<pdfrwt beam="1">  1        2 0.98871536E+00 0.14958394E+02</pdfrwt>
<pdfrwt beam="2">  1       -2 0.99747740E+00 0.14958394E+02</pdfrwt>
<totfact>-0.14534801E-13</totfact>
</mgrwt>
</event>
<event>
 4    1  0.5021037E-019  0.1493660E+02  0.7818608E-02  0.1870009E+00
         -2   -1    0    0    0  501 -0.00000000000E+00  0.00000000000E+00  0.11888939988E+03  0.11888939991E+03  0.25500000000E-02 0. -1.
          2   -1    0    0  501    0  0.00000000000E+00 -0.00000000000E+00 -0.46913414024E+00  0.46914107051E+00  0.25500000000E-02 0.  1.
         31    1    1    2    0    0 -0.72738800172E-01 -0.44590507496E+00  0.61889724357E+02  0.62337797757E+02  0.74470750000E+01 0. -1.
        -31    1    1    2    0    0  0.72738800172E-01  0.44590507496E+00  0.56530541385E+02  0.57020743222E+02  0.74470750000E+01 0.  1.
<mgrwt>
<rscale>  0 0.14936598E+02</rscale>
<asrwt>0</asrwt>
<pdfrwt beam="2">  1        2 0.99636179E+00 0.14936598E+02</pdfrwt>
<pdfrwt beam="1">  1       -2 0.98693993E+00 0.14936598E+02</pdfrwt>
<totfact> 0.21062792E-13</totfact>
</mgrwt>
</event>
<event>
 4    1 -0.5021037E-019  0.1490557E+02  0.7818608E-02  0.1870964E+00
          2   -1    0    0  501    0  0.00000000000E+00  0.00000000000E+00  0.11880749947E+03  0.11880749949E+03  0.25500000000E-02 0.  1.
         -2   -1    0    0    0  501 -0.00000000000E+00 -0.00000000000E+00 -0.46750891615E+00  0.46751587051E+00  0.25500000000E-02 0. -1.
         31    1    1    2    0    0  0.15974933206E+00  0.67773290645E-01  0.57294329702E+02  0.57776545891E+02  0.74470750000E+01 0. -1.
        -31    1    1    2    0    0 -0.15974933206E+00 -0.67773290645E-01  0.61045660848E+02  0.61498469473E+02  0.74470750000E+01 0.  1.
<mgrwt>
<rscale>  0 0.14905567E+02</rscale>
<asrwt>0</asrwt>
<pdfrwt beam="1">  1        2 0.98624928E+00 0.14905567E+02</pdfrwt>
<pdfrwt beam="2">  1       -2 0.99292098E+00 0.14905567E+02</pdfrwt>
<totfact>-0.24402197E-13</totfact>
</mgrwt>
</event>
<event>
 4    1  0.5021037E-019  0.1490759E+02  0.7818608E-02  0.1870902E+00
         -2   -1    0    0    0  501 -0.00000000000E+00  0.00000000000E+00  0.11844930519E+03  0.11844930522E+03  0.25500000000E-02 0. -1.
          2   -1    0    0  501    0  0.00000000000E+00 -0.00000000000E+00 -0.46905016556E+00  0.46905709707E+00  0.25500000000E-02 0.  1.
         31    1    1    2    0    0  0.15612848224E+00  0.60275742381E-01  0.61132739336E+02  0.61584890631E+02  0.74470750000E+01 0. -1.
        -31    1    1    2    0    0 -0.15612848224E+00 -0.60275742381E-01  0.56847515688E+02  0.57333471683E+02  0.74470750000E+01 0.  1.
<mgrwt>
<rscale>  0 0.14907593E+02</rscale>
<asrwt>0</asrwt>
<pdfrwt beam="2">  1        2 0.99616960E+00 0.14907593E+02</pdfrwt>
<pdfrwt beam="1">  1       -2 0.98330022E+00 0.14907593E+02</pdfrwt>
<totfact> 0.64226663E-13</totfact>
</mgrwt>
</event>
<event>
 4    1 -0.5021037E-019  0.1494852E+02  0.7818608E-02  0.1869644E+00
         -2   -1    0    0    0  501 -0.00000000000E+00  0.00000000000E+00  0.12010839071E+03  0.12010839074E+03  0.25500000000E-02 0. -1.
          2   -1    0    0  501    0  0.00000000000E+00 -0.00000000000E+00 -0.46511409714E+00  0.46512108730E+00  0.25500000000E-02 0.  1.
         31    1    1    2    0    0  0.19363793238E+00 -0.15023024633E+00  0.64562984875E+02  0.64991522577E+02  0.74470750000E+01 0. -1.
        -31    1    1    2    0    0 -0.19363793238E+00  0.15023024633E+00  0.55080291737E+02  0.55581989247E+02  0.74470750000E+01 0.  1.
<mgrwt>
<rscale>  0 0.14948515E+02</rscale>
<asrwt>0</asrwt>
<pdfrwt beam="2">  1        2 0.98789636E+00 0.14948515E+02</pdfrwt>
<pdfrwt beam="1">  1       -2 0.99698616E+00 0.14948515E+02</pdfrwt>
<totfact>-0.18172420E-13</totfact>
</mgrwt>
</event>
<event>
 4    1  0.5021037E-019  0.1489691E+02  0.7818608E-02  0.1871231E+00
         -2   -1    0    0    0  501 -0.00000000000E+00  0.00000000000E+00  0.11840962557E+03  0.11840962559E+03  0.25500000000E-02 0.  1.
          2   -1    0    0  501    0  0.00000000000E+00 -0.00000000000E+00 -0.46853507512E+00  0.46854201425E+00  0.25500000000E-02 0. -1.
         31    1    1    2    0    0 -0.58107523961E-01 -0.13092661541E+00  0.59016093464E+02  0.59484272980E+02  0.74470750000E+01 0.  1.
        -31    1    1    2    0    0  0.58107523961E-01  0.13092661541E+00  0.58924997028E+02  0.59393894628E+02  0.74470750000E+01 0.  1.
<mgrwt>
<rscale>  0 0.14896909E+02</rscale>
<asrwt>0</asrwt>
<pdfrwt beam="2">  1        2 0.99507866E+00 0.14896909E+02</pdfrwt>
<pdfrwt beam="1">  1       -2 0.98296786E+00 0.14896909E+02</pdfrwt>
<totfact> 0.79541552E-13</totfact>
</mgrwt>
</event>
<event>
 4    1 -0.5021037E-019  0.1492640E+02  0.7818608E-02  0.1870323E+00
         -2   -1    0    0    0  501 -0.00000000000E+00  0.00000000000E+00  0.12013047294E+03  0.12013047296E+03  0.25500000000E-02 0. -1.
          2   -1    0    0  501    0  0.00000000000E+00 -0.00000000000E+00 -0.46365345298E+00  0.46366046517E+00  0.25500000000E-02 0.  1.
         31    1    1    2    0    0 -0.34633335072E+00 -0.24253232400E+00  0.57827569381E+02  0.58306650352E+02  0.74470750000E+01 0.  1.
        -31    1    1    2    0    0  0.34633335072E+00  0.24253232400E+00  0.61839250104E+02  0.62287483078E+02  0.74470750000E+01 0. -1.
<mgrwt>
<rscale>  0 0.14926397E+02</rscale>
<asrwt>0</asrwt>
<pdfrwt beam="2">  1        2 0.98480665E+00 0.14926397E+02</pdfrwt>
<pdfrwt beam="1">  1       -2 0.99715667E+00 0.14926397E+02</pdfrwt>
<totfact>-0.27689396E-13</totfact>
</mgrwt>
</event>
<event>
 4    1 -0.5021037E-019  0.1494165E+02  0.7818608E-02  0.1869854E+00
          2   -1    0    0  501    0  0.00000000000E+00  0.00000000000E+00  0.11903409709E+03  0.11903409712E+03  0.25500000000E-02 0.  1.
         -2   -1    0    0    0  501 -0.00000000000E+00 -0.00000000000E+00 -0.46888067564E+00  0.46888760966E+00  0.25500000000E-02 0. -1.
         31    1    1    2    0    0  0.50929081776E+00 -0.25884014593E+00  0.60618591755E+02  0.61076992131E+02  0.74470750000E+01 0.  1.
        -31    1    1    2    0    0 -0.50929081776E+00  0.25884014593E+00  0.57946624664E+02  0.58425992601E+02  0.74470750000E+01 0.  1.
<mgrwt>
<rscale>  0 0.14941647E+02</rscale>
<asrwt>0</asrwt>
<pdfrwt beam="1">  1        2 0.98813429E+00 0.14941647E+02</pdfrwt>
<pdfrwt beam="2">  1       -2 0.99583035E+00 0.14941647E+02</pdfrwt>
<totfact>-0.20943156E-13</totfact>
</mgrwt>
</event>
<event>
 4    1  0.5021037E-019  0.1493330E+02  0.7818608E-02  0.1870111E+00
         -2   -1    0    0    0  501 -0.00000000000E+00  0.00000000000E+00  0.11869059570E+03  0.11869059573E+03  0.25500000000E-02 0. -1.
          2   -1    0    0  501    0  0.00000000000E+00 -0.00000000000E+00 -0.46971240366E+00  0.46971932540E+00  0.25500000000E-02 0.  1.
         31    1    1    2    0    0  0.17664520733E+00 -0.35340112449E+00  0.62051374102E+02  0.62497904364E+02  0.74470750000E+01 0. -1.
        -31    1    1    2    0    0 -0.17664520733E+00  0.35340112449E+00  0.56169509197E+02  0.56662410691E+02  0.74470750000E+01 0.  1.
<mgrwt>
<rscale>  0 0.14933300E+02</rscale>
<asrwt>0</asrwt>
<pdfrwt beam="2">  1        2 0.99757849E+00 0.14933300E+02</pdfrwt>
<pdfrwt beam="1">  1       -2 0.98530086E+00 0.14933300E+02</pdfrwt>
<totfact> 0.28209348E-13</totfact>
</mgrwt>
</event>
<event>
 4    1  0.5021037E-019  0.1492720E+02  0.7818608E-02  0.1870298E+00
         -2   -1    0    0    0  501 -0.00000000000E+00  0.00000000000E+00  0.11913723328E+03  0.11913723330E+03  0.25500000000E-02 0. -1.
          2   -1    0    0  501    0  0.00000000000E+00 -0.00000000000E+00 -0.46756936950E+00  0.46757632296E+00  0.25500000000E-02 0.  1.
         31    1    1    2    0    0 -0.85929895178E-01  0.48239925095E+00  0.59971789712E+02  0.60434382435E+02  0.74470750000E+01 0.  1.
        -31    1    1    2    0    0  0.85929895178E-01 -0.48239925095E+00  0.58697874194E+02  0.59170427190E+02  0.74470750000E+01 0.  1.
<mgrwt>
<rscale>  0 0.14927202E+02</rscale>
<asrwt>0</asrwt>
<pdfrwt beam="2">  1        2 0.99305964E+00 0.14927202E+02</pdfrwt>
<pdfrwt beam="1">  1       -2 0.98897625E+00 0.14927202E+02</pdfrwt>
<totfact> 0.87168558E-14</totfact>
</mgrwt>
</event>
<event>
 4    1 -0.5021037E-019  0.1490213E+02  0.7818608E-02  0.1871070E+00
         -2   -1    0    0    0  501 -0.00000000000E+00  0.00000000000E+00  0.11973736619E+03  0.11973736622E+03  0.25500000000E-02 0.  1.
          2   -1    0    0  501    0  0.00000000000E+00 -0.00000000000E+00 -0.46366435497E+00  0.46367136699E+00  0.25500000000E-02 0. -1.
         31    1    1    2    0    0  0.12635629487E+00 -0.20183600237E+00  0.60059219791E+02  0.60519629144E+02  0.74470750000E+01 0.  1.
        -31    1    1    2    0    0 -0.12635629487E+00  0.20183600237E+00  0.59214482047E+02  0.59681408444E+02  0.74470750000E+01 0. -1.
<mgrwt>
<rscale>  0 0.14902130E+02</rscale>
<asrwt>0</asrwt>
<pdfrwt beam="2">  1        2 0.98481728E+00 0.14902130E+02</pdfrwt>
<pdfrwt beam="1">  1       -2 0.99390628E+00 0.14902130E+02</pdfrwt>
<totfact>-0.34772159E-13</totfact>
</mgrwt>
</event>
<event>
 4    1 -0.5021037E-019  0.1493032E+02  0.7818608E-02  0.1870202E+00
         -2   -1    0    0    0  501 -0.00000000000E+00  0.00000000000E+00  0.11979733990E+03  0.11979733992E+03  0.25500000000E-02 0. -1.
          2   -1    0    0  501    0  0.00000000000E+00 -0.00000000000E+00 -0.46518708375E+00  0.46519407283E+00  0.25500000000E-02 0.  1.
         31    1    1    2    0    0 -0.16835580769E+00  0.24737608312E+00  0.56247405915E+02  0.56739044201E+02  0.74470750000E+01 0.  1.
        -31    1    1    2    0    0  0.16835580769E+00 -0.24737608312E+00  0.63084746898E+02  0.63523489796E+02  0.74470750000E+01 0. -1.
<mgrwt>
<rscale>  0 0.14930318E+02</rscale>
<asrwt>0</asrwt>
<pdfrwt beam="2">  1        2 0.98804089E+00 0.14930318E+02</pdfrwt>
<pdfrwt beam="1">  1       -2 0.99441477E+00 0.14930318E+02</pdfrwt>
<totfact>-0.22159169E-13</totfact>
</mgrwt>
</event>
<event>
 4    1 -0.5021037E-019  0.1489997E+02  0.7818608E-02  0.1871136E+00
         -2   -1    0    0    0  501 -0.00000000000E+00  0.00000000000E+00  0.11956282542E+03  0.11956282545E+03  0.25500000000E-02 0. -1.
          2   -1    0    0  501    0  0.00000000000E+00 -0.00000000000E+00 -0.46420688252E+00  0.46421388634E+00  0.25500000000E-02 0.  1.
         31    1    1    2    0    0  0.32328463986E-01  0.40965193729E-01  0.57924986474E+02  0.58401761166E+02  0.74470750000E+01 0.  1.
        -31    1    1    2    0    0 -0.32328463986E-01 -0.40965193729E-01  0.61173632066E+02  0.61625278170E+02  0.74470750000E+01 0. -1.
<mgrwt>
<rscale>  0 0.14899974E+02</rscale>
<asrwt>0</asrwt>
<pdfrwt beam="2">  1        2 0.98595958E+00 0.14899974E+02</pdfrwt>
<pdfrwt beam="1">  1       -2 0.99246754E+00 0.14899974E+02</pdfrwt>
<totfact>-0.22970594E-13</totfact>
</mgrwt>
</event>
<event>
 4    1  0.5021037E-019  0.1492166E+02  0.7818608E-02  0.1870469E+00
         -2   -1    0    0    0  501 -0.00000000000E+00  0.00000000000E+00  0.11862646213E+03  0.11862646216E+03  0.25500000000E-02 0. -1.
          2   -1    0    0  501    0  0.00000000000E+00 -0.00000000000E+00 -0.46923399590E+00  0.46924092469E+00  0.25500000000E-02 0.  1.
         31    1    1    2    0    0 -0.13207824030E+00 -0.31969620129E+00  0.56746096559E+02  0.57233714287E+02  0.74470750000E+01 0. -1.
        -31    1    1    2    0    0  0.13207824030E+00  0.31969620129E+00  0.61411131576E+02  0.61861988796E+02  0.74470750000E+01 0. -1.
<mgrwt>
<rscale>  0 0.14921660E+02</rscale>
<asrwt>0</asrwt>
<pdfrwt beam="2">  1        2 0.99656434E+00 0.14921660E+02</pdfrwt>
<pdfrwt beam="1">  1       -2 0.98476660E+00 0.14921660E+02</pdfrwt>
<totfact> 0.41728807E-13</totfact>
</mgrwt>
</event>
<event>
 4    1 -0.5021037E-019  0.1497157E+02  0.7818608E-02  0.1868937E+00
          2   -1    0    0  501    0  0.00000000000E+00  0.00000000000E+00  0.11936851053E+03  0.11936851056E+03  0.25500000000E-02 0. -1.
         -2   -1    0    0    0  501 -0.00000000000E+00 -0.00000000000E+00 -0.46944190788E+00  0.46944883361E+00  0.25500000000E-02 0.  1.
         31    1    1    2    0    0 -0.39147502926E+00  0.33093897596E+00  0.54954966001E+02  0.55459624841E+02  0.74470750000E+01 0.  1.
        -31    1    1    2    0    0  0.39147502926E+00 -0.33093897596E+00  0.63944102620E+02  0.64378334549E+02  0.74470750000E+01 0. -1.
<mgrwt>
<rscale>  0 0.14971573E+02</rscale>
<asrwt>0</asrwt>
<pdfrwt beam="1">  1        2 0.99090409E+00 0.14971573E+02</pdfrwt>
<pdfrwt beam="2">  1       -2 0.99702859E+00 0.14971573E+02</pdfrwt>
<totfact>-0.13118113E-13</totfact>
</mgrwt>
</event>
<event>
 4    1 -0.5021037E-019  0.1498944E+02  0.7818608E-02  0.1868391E+00
          2   -1    0    0  501    0  0.00000000000E+00  0.00000000000E+00  0.12008972647E+03  0.12008972650E+03  0.25500000000E-02 0.  1.
         -2   -1    0    0    0  501 -0.00000000000E+00 -0.00000000000E+00 -0.46773675780E+00  0.46774370877E+00  0.25500000000E-02 0. -1.
         31    1    1    2    0    0  0.30930009747E+00  0.34416509507E+00  0.65485367152E+02  0.65909076411E+02  0.74470750000E+01 0.  1.
        -31    1    1    2    0    0 -0.30930009747E+00 -0.34416509507E+00  0.54136622565E+02  0.54648393800E+02  0.74470750000E+01 0. -1.
<mgrwt>
<rscale>  0 0.14989436E+02</rscale>
<asrwt>0</asrwt>
<pdfrwt beam="1">  1        2 0.99685351E+00 0.14989436E+02</pdfrwt>
<pdfrwt beam="2">  1       -2 0.99344457E+00 0.14989436E+02</pdfrwt>
<totfact>-0.84384592E-14</totfact>
</mgrwt>
</event>
<event>
 4    1  0.5021037E-019  0.1490897E+02  0.7818608E-02  0.1870859E+00
         -2   -1    0    0    0  501 -0.00000000000E+00  0.00000000000E+00  0.11819176497E+03  0.11819176500E+03  0.25500000000E-02 0.  1.
          2   -1    0    0  501    0  0.00000000000E+00 -0.00000000000E+00 -0.47015940414E+00  0.47016631930E+00  0.25500000000E-02 0. -1.
         31    1    1    2    0    0  0.82120750172E-01 -0.29243511624E+00  0.59934352683E+02  0.60396008310E+02  0.74470750000E+01 0.  1.
        -31    1    1    2    0    0 -0.82120750172E-01  0.29243511624E+00  0.57787252887E+02  0.58265923011E+02  0.74470750000E+01 0. -1.
<mgrwt>
<rscale>  0 0.14908975E+02</rscale>
<asrwt>0</asrwt>
<pdfrwt beam="2">  1        2 0.99850745E+00 0.14908975E+02</pdfrwt>
<pdfrwt beam="1">  1       -2 0.98117987E+00 0.14908975E+02</pdfrwt>
<totfact> 0.49802178E-13</totfact>
</mgrwt>
</event>
<event>
 4    1 -0.5021037E-019  0.1500386E+02  0.7818608E-02  0.1867951E+00
          2   -1    0    0  501    0  0.00000000000E+00  0.00000000000E+00  0.12034955007E+03  0.12034955009E+03  0.25500000000E-02 0. -1.
         -2   -1    0    0    0  501 -0.00000000000E+00 -0.00000000000E+00 -0.46762572363E+00  0.46763267626E+00  0.25500000000E-02 0.  1.
         31    1    1    2    0    0  0.37090102601E+00  0.52836288712E+00  0.65054754021E+02  0.65482796838E+02  0.74470750000E+01 0.  1.
        -31    1    1    2    0    0 -0.37090102601E+00 -0.52836288712E+00  0.54827170323E+02  0.55334385933E+02  0.74470750000E+01 0.  1.
<mgrwt>
<rscale>  0 0.15003862E+02</rscale>
<asrwt>0</asrwt>
<pdfrwt beam="1">  1        2 0.99900100E+00 0.15003862E+02</pdfrwt>
<pdfrwt beam="2">  1       -2 0.99321797E+00 0.15003862E+02</pdfrwt>
<totfact>-0.32884698E-14</totfact>
</mgrwt>
</event>
<event>
 4    1 -0.5021037E-019  0.1490984E+02  0.7818608E-02  0.1870832E+00
          2   -1    0    0  501    0  0.00000000000E+00  0.00000000000E+00  0.11866317618E+03  0.11866317620E+03  0.25500000000E-02 0.  1.
         -2   -1    0    0    0  501 -0.00000000000E+00 -0.00000000000E+00 -0.46834585078E+00  0.46835279272E+00  0.25500000000E-02 0. -1.
         31    1    1    2    0    0 -0.40370796551E-01 -0.33934530415E+00  0.59181309140E+02  0.59648998840E+02  0.74470750000E+01 0.  1.
        -31    1    1    2    0    0  0.40370796551E-01  0.33934530415E+00  0.59013521185E+02  0.59482530156E+02  0.74470750000E+01 0.  1.
<mgrwt>
<rscale>  0 0.14909839E+02</rscale>
<asrwt>0</asrwt>
<pdfrwt beam="1">  1        2 0.98506283E+00 0.14909839E+02</pdfrwt>
<pdfrwt beam="2">  1       -2 0.99468675E+00 0.14909839E+02</pdfrwt>
<totfact>-0.34450845E-13</totfact>
</mgrwt>
</event>
<event>
 4    1 -0.5021037E-019  0.1495491E+02  0.7818608E-02  0.1869448E+00
         -2   -1    0    0    0  501 -0.00000000000E+00  0.00000000000E+00  0.11961803166E+03  0.11961803168E+03  0.25500000000E-02 0. -1.
          2   -1    0    0  501    0  0.00000000000E+00 -0.00000000000E+00 -0.46742056286E+00  0.46742751854E+00  0.25500000000E-02 0.  1.
         31    1    1    2    0    0  0.40743956133E-01 -0.41452676070E+00  0.55326860135E+02  0.55827357728E+02  0.74470750000E+01 0.  1.
        -31    1    1    2    0    0 -0.40743956133E-01  0.41452676070E+00  0.63823750958E+02  0.64258101473E+02  0.74470750000E+01 0. -1.
<mgrwt>
<rscale>  0 0.14954912E+02</rscale>
<asrwt>0</asrwt>
<pdfrwt beam="2">  1        2 0.99276043E+00 0.14954912E+02</pdfrwt>
<pdfrwt beam="1">  1       -2 0.99295060E+00 0.14954912E+02</pdfrwt>
<totfact>-0.12319439E-13</totfact>
</mgrwt>
</event>
<event>
 4    1 -0.5021037E-019  0.1499747E+02  0.7818608E-02  0.1868146E+00
         -2   -1    0    0    0  501 -0.00000000000E+00  0.00000000000E+00  0.12038287922E+03  0.12038287925E+03  0.25500000000E-02 0.  1.
          2   -1    0    0  501    0  0.00000000000E+00 -0.00000000000E+00 -0.46709821620E+00  0.46710517667E+00  0.25500000000E-02 0. -1.
         31    1    1    2    0    0  0.27046958657E+00 -0.72059032384E+00  0.63373961022E+02  0.63814655573E+02  0.74470750000E+01 0. -1.
        -31    1    1    2    0    0 -0.27046958657E+00  0.72059032384E+00  0.56541819986E+02  0.57035328855E+02  0.74470750000E+01 0. -1.
<mgrwt>
<rscale>  0 0.14997473E+02</rscale>
<asrwt>0</asrwt>
<pdfrwt beam="2">  1        2 0.99210298E+00 0.14997473E+02</pdfrwt>
<pdfrwt beam="1">  1       -2 0.99927223E+00 0.14997473E+02</pdfrwt>
<totfact>-0.36351554E-14</totfact>
</mgrwt>
</event>
<event>
 4    1 -0.5021037E-019  0.1495358E+02  0.7818608E-02  0.1869488E+00
          2   -1    0    0  501    0  0.00000000000E+00  0.00000000000E+00  0.11927903296E+03  0.11927903299E+03  0.25500000000E-02 0.  1.
         -2   -1    0    0    0  501 -0.00000000000E+00 -0.00000000000E+00 -0.46866538073E+00  0.46867231793E+00  0.25500000000E-02 0. -1.
         31    1    1    2    0    0  0.54119296782E+00  0.86100119494E-01  0.62434917976E+02  0.62879871277E+02  0.74470750000E+01 0.  1.
        -31    1    1    2    0    0 -0.54119296782E+00 -0.86100119494E-01  0.56375449606E+02  0.56867834031E+02  0.74470750000E+01 0. -1.
<mgrwt>
<rscale>  0 0.14953578E+02</rscale>
<asrwt>0</asrwt>
<pdfrwt beam="1">  1        2 0.99015781E+00 0.14953578E+02</pdfrwt>
<pdfrwt beam="2">  1       -2 0.99538291E+00 0.14953578E+02</pdfrwt>
<totfact>-0.17343261E-13</totfact>
</mgrwt>
</event>
<event>
 4    1 -0.5021037E-019  0.1498050E+02  0.7818608E-02  0.1868664E+00
          2   -1    0    0  501    0  0.00000000000E+00  0.00000000000E+00  0.12004106927E+03  0.12004106930E+03  0.25500000000E-02 0. -1.
         -2   -1    0    0    0  501 -0.00000000000E+00 -0.00000000000E+00 -0.46736842044E+00  0.46737537689E+00  0.25500000000E-02 0.  1.
         31    1    1    2    0    0  0.70925754164E+00 -0.37000270863E+00  0.59220799748E+02  0.59692562326E+02  0.74470750000E+01 0.  1.
        -31    1    1    2    0    0 -0.70925754164E+00  0.37000270863E+00  0.60352901106E+02  0.60815882351E+02  0.74470750000E+01 0. -1.
<mgrwt>
<rscale>  0 0.14980497E+02</rscale>
<asrwt>0</asrwt>
<pdfrwt beam="1">  1        2 0.99644814E+00 0.14980497E+02</pdfrwt>
<pdfrwt beam="2">  1       -2 0.99266373E+00 0.14980497E+02</pdfrwt>
<totfact>-0.79475819E-14</totfact>
</mgrwt>
</event>
<event>
 4    1  0.5021037E-019  0.1492654E+02  0.7818608E-02  0.1870318E+00
          2   -1    0    0  501    0  0.00000000000E+00  0.00000000000E+00  0.12005323430E+03  0.12005323432E+03  0.25500000000E-02 0. -1.
         -2   -1    0    0    0  501 -0.00000000000E+00 -0.00000000000E+00 -0.46396058104E+00  0.46396758858E+00  0.25500000000E-02 0.  1.
         31    1    1    2    0    0  0.46797219990E+00  0.24023340221E-01  0.58600034101E+02  0.59073196102E+02  0.74470750000E+01 0.  1.
        -31    1    1    2    0    0 -0.46797219990E+00 -0.24023340221E-01  0.60989239615E+02  0.61444005810E+02  0.74470750000E+01 0.  1.
<mgrwt>
<rscale>  0 0.14926539E+02</rscale>
<asrwt>0</asrwt>
<pdfrwt beam="1">  1        2 0.99652055E+00 0.14926539E+02</pdfrwt>
<pdfrwt beam="2">  1       -2 0.98545403E+00 0.14926539E+02</pdfrwt>
<totfact> 0.34511432E-13</totfact>
</mgrwt>
</event>
<event>
 4    1 -0.5021037E-019  0.1493613E+02  0.7818608E-02  0.1870024E+00
          2   -1    0    0  501    0  0.00000000000E+00  0.00000000000E+00  0.11874042783E+03  0.11874042786E+03  0.25500000000E-02 0. -1.
         -2   -1    0    0    0  501 -0.00000000000E+00 -0.00000000000E+00 -0.46969359069E+00  0.46970051271E+00  0.25500000000E-02 0.  1.
         31    1    1    2    0    0  0.47762121744E+00  0.18867013975E+00  0.60909082724E+02  0.61364802638E+02  0.74470750000E+01 0. -1.
        -31    1    1    2    0    0 -0.47762121744E+00 -0.18867013975E+00  0.57361651516E+02  0.57845325732E+02  0.74470750000E+01 0. -1.
<mgrwt>
<rscale>  0 0.14936135E+02</rscale>
<asrwt>0</asrwt>
<pdfrwt beam="1">  1        2 0.98571275E+00 0.14936135E+02</pdfrwt>
<pdfrwt beam="2">  1       -2 0.99754035E+00 0.14936135E+02</pdfrwt>
<totfact>-0.21611005E-13</totfact>
</mgrwt>
</event>
<event>
 4    1 -0.5021037E-019  0.1496144E+02  0.7818608E-02  0.1869247E+00
          2   -1    0    0  501    0  0.00000000000E+00  0.00000000000E+00  0.11937235683E+03  0.11937235685E+03  0.25500000000E-02 0.  1.
         -2   -1    0    0    0  501 -0.00000000000E+00 -0.00000000000E+00 -0.46879172303E+00  0.46879865836E+00  0.25500000000E-02 0. -1.
         31    1    1    2    0    0 -0.63098158738E+00  0.12099208066E+00  0.61847926066E+02  0.62297974779E+02  0.74470750000E+01 0.  1.
        -31    1    1    2    0    0  0.63098158738E+00 -0.12099208066E+00  0.57055639037E+02  0.57543180732E+02  0.74470750000E+01 0. -1.
<mgrwt>
<rscale>  0 0.14961442E+02</rscale>
<asrwt>0</asrwt>
<pdfrwt beam="1">  1        2 0.99093052E+00 0.14961442E+02</pdfrwt>
<pdfrwt beam="2">  1       -2 0.99565324E+00 0.14961442E+02</pdfrwt>
<totfact>-0.15926958E-13</totfact>
</mgrwt>
</event>
<event>
 4    1  0.5021037E-019  0.1490539E+02  0.7818608E-02  0.1870969E+00
         -2   -1    0    0    0  501 -0.00000000000E+00  0.00000000000E+00  0.11870544153E+03  0.11870544156E+03  0.25500000000E-02 0. -1.
          2   -1    0    0  501    0  0.00000000000E+00 -0.00000000000E+00 -0.46789985376E+00  0.46790680231E+00  0.25500000000E-02 0.  1.
         31    1    1    2    0    0  0.13886735718E+00  0.15501450678E+00  0.60726500121E+02  0.61181778796E+02  0.74470750000E+01 0. -1.
        -31    1    1    2    0    0 -0.13886735718E+00 -0.15501450678E+00  0.57511041558E+02  0.57991569567E+02  0.74470750000E+01 0.  1.
<mgrwt>
<rscale>  0 0.14905392E+02</rscale>
<asrwt>0</asrwt>
<pdfrwt beam="2">  1        2 0.99374465E+00 0.14905392E+02</pdfrwt>
<pdfrwt beam="1">  1       -2 0.98540863E+00 0.14905392E+02</pdfrwt>
<totfact> 0.48076295E-13</totfact>
</mgrwt>
</event>
<event>
 4    1 -0.5021037E-019  0.1490909E+02  0.7818608E-02  0.1870856E+00
          2   -1    0    0  501    0  0.00000000000E+00  0.00000000000E+00  0.11828268101E+03  0.11828268104E+03  0.25500000000E-02 0. -1.
         -2   -1    0    0    0  501 -0.00000000000E+00 -0.00000000000E+00 -0.46980501474E+00  0.46981193511E+00  0.25500000000E-02 0.  1.
         31    1    1    2    0    0 -0.20949949781E+00 -0.85175906166E-01  0.56953146992E+02  0.57438410696E+02  0.74470750000E+01 0. -1.
        -31    1    1    2    0    0  0.20949949781E+00  0.85175906166E-01  0.60859729006E+02  0.61314082279E+02  0.74470750000E+01 0. -1.
<mgrwt>
<rscale>  0 0.14909086E+02</rscale>
<asrwt>0</asrwt>
<pdfrwt beam="1">  1        2 0.98192870E+00 0.14909086E+02</pdfrwt>
<pdfrwt beam="2">  1       -2 0.99776084E+00 0.14909086E+02</pdfrwt>
<totfact>-0.37702294E-13</totfact>
</mgrwt>
</event>
<event>
 4    1 -0.5021037E-019  0.1502779E+02  0.7818608E-02  0.1867222E+00
          2   -1    0    0  501    0  0.00000000000E+00  0.00000000000E+00  0.12002130105E+03  0.12002130107E+03  0.25500000000E-02 0.  1.
         -2   -1    0    0    0  501 -0.00000000000E+00 -0.00000000000E+00 -0.47040142408E+00  0.47040833568E+00  0.25500000000E-02 0. -1.
         31    1    1    2    0    0 -0.85707116504E+00 -0.35700539720E+00  0.62750295872E+02  0.63197472907E+02  0.74470750000E+01 0.  1.
        -31    1    1    2    0    0  0.85707116504E+00  0.35700539720E+00  0.56800603751E+02  0.57294236503E+02  0.74470750000E+01 0.  1.
<mgrwt>
<rscale>  0 0.15027789E+02</rscale>
<asrwt>0</asrwt>
<pdfrwt beam="1">  1        2 0.99630976E+00 0.15027789E+02</pdfrwt>
<pdfrwt beam="2">  1       -2 0.99907977E+00 0.15027789E+02</pdfrwt>
<totfact>-0.30308501E-14</totfact>
</mgrwt>
</event>
<event>
 4    1 -0.5021037E-019  0.1493586E+02  0.7818608E-02  0.1870032E+00
         -2   -1    0    0    0  501 -0.00000000000E+00  0.00000000000E+00  0.12025536596E+03  0.12025536598E+03  0.25500000000E-02 0. -1.
          2   -1    0    0  501    0  0.00000000000E+00 -0.00000000000E+00 -0.46375968011E+00  0.46376669069E+00  0.25500000000E-02 0.  1.
         31    1    1    2    0    0 -0.33626426428E+00  0.39140235138E+00  0.61606914907E+02  0.62057531048E+02  0.74470750000E+01 0.  1.
        -31    1    1    2    0    0  0.33626426428E+00 -0.39140235138E+00  0.58184691370E+02  0.58661601626E+02  0.74470750000E+01 0.  1.
<mgrwt>
<rscale>  0 0.14935865E+02</rscale>
<asrwt>0</asrwt>
<pdfrwt beam="2">  1        2 0.98503534E+00 0.14935865E+02</pdfrwt>
<pdfrwt beam="1">  1       -2 0.99819025E+00 0.14935865E+02</pdfrwt>
<totfact>-0.18902850E-13</totfact>
</mgrwt>
</event>
<event>
 4    1 -0.5021037E-019  0.1498471E+02  0.7818608E-02  0.1868535E+00
          2   -1    0    0  501    0  0.00000000000E+00  0.00000000000E+00  0.11986683291E+03  0.11986683294E+03  0.25500000000E-02 0.  1.
         -2   -1    0    0    0  501 -0.00000000000E+00 -0.00000000000E+00 -0.46831101942E+00  0.46831796187E+00  0.25500000000E-02 0. -1.
         31    1    1    2    0    0  0.36311739024E+00 -0.27077221940E+00  0.54186314579E+02  0.54697539118E+02  0.74470750000E+01 0. -1.
        -31    1    1    2    0    0 -0.36311739024E+00  0.27077221940E+00  0.65212207310E+02  0.65637611780E+02  0.74470750000E+01 0.  1.
<mgrwt>
<rscale>  0 0.14984709E+02</rscale>
<asrwt>0</asrwt>
<pdfrwt beam="1">  1        2 0.99501522E+00 0.14984709E+02</pdfrwt>
<pdfrwt beam="2">  1       -2 0.99465233E+00 0.14984709E+02</pdfrwt>
<totfact>-0.11935460E-13</totfact>
</mgrwt>
</event>
<event>
 4    1  0.5021037E-019  0.1493439E+02  0.7818608E-02  0.1870077E+00
         -2   -1    0    0    0  501 -0.00000000000E+00  0.00000000000E+00  0.11857901515E+03  0.11857901518E+03  0.25500000000E-02 0. -1.
          2   -1    0    0  501    0  0.00000000000E+00 -0.00000000000E+00 -0.47022282848E+00  0.47022974270E+00  0.25500000000E-02 0.  1.
         31    1    1    2    0    0 -0.41872310833E+00 -0.21081125737E+00  0.61312967425E+02  0.61765351703E+02  0.74470750000E+01 0. -1.
        -31    1    1    2    0    0  0.41872310833E+00  0.21081125737E+00  0.56795824897E+02  0.57283893218E+02  0.74470750000E+01 0.  1.
<mgrwt>
<rscale>  0 0.14934386E+02</rscale>
<asrwt>0</asrwt>
<pdfrwt beam="2">  1        2 0.99865454E+00 0.14934386E+02</pdfrwt>
<pdfrwt beam="1">  1       -2 0.98438245E+00 0.14934386E+02</pdfrwt>
<totfact> 0.22762666E-13</totfact>
</mgrwt>
</event>
<event>
 4    1  0.5021037E-019  0.1490817E+02  0.7818608E-02  0.1870884E+00
          2   -1    0    0  501    0  0.00000000000E+00  0.00000000000E+00  0.11989871833E+03  0.11989871836E+03  0.25500000000E-02 0.  1.
         -2   -1    0    0    0  501 -0.00000000000E+00 -0.00000000000E+00 -0.46341566901E+00  0.46342268479E+00  0.25500000000E-02 0. -1.
         31    1    1    2    0    0 -0.26019652018E+00  0.18239908675E+00  0.60193300890E+02  0.60653057382E+02  0.74470750000E+01 0.  1.
        -31    1    1    2    0    0  0.26019652018E+00 -0.18239908675E+00  0.59242001773E+02  0.59709083662E+02  0.74470750000E+01 0. -1.
<mgrwt>
<rscale>  0 0.14908168E+02</rscale>
<asrwt>0</asrwt>
<pdfrwt beam="1">  1        2 0.99523840E+00 0.14908168E+02</pdfrwt>
<pdfrwt beam="2">  1       -2 0.98429623E+00 0.14908168E+02</pdfrwt>
<totfact> 0.57105043E-13</totfact>
</mgrwt>
</event>
<event>
 4    1 -0.5021037E-019  0.1489614E+02  0.7818608E-02  0.1871254E+00
         -2   -1    0    0    0  501 -0.00000000000E+00  0.00000000000E+00  0.11994365038E+03  0.11994365041E+03  0.25500000000E-02 0.  1.
          2   -1    0    0  501    0  0.00000000000E+00 -0.00000000000E+00 -0.46249513846E+00  0.46250216821E+00  0.25500000000E-02 0. -1.
         31    1    1    2    0    0  0.12009636642E+00 -0.13376947329E-01  0.59612288740E+02  0.60075772961E+02  0.74470750000E+01 0. -1.
        -31    1    1    2    0    0 -0.12009636642E+00  0.13376947329E-01  0.59868866505E+02  0.60330379617E+02  0.74470750000E+01 0.  1.
<mgrwt>
<rscale>  0 0.14896144E+02</rscale>
<asrwt>0</asrwt>
<pdfrwt beam="2">  1        2 0.98234997E+00 0.14896144E+02</pdfrwt>
<pdfrwt beam="1">  1       -2 0.99560231E+00 0.14896144E+02</pdfrwt>
<totfact>-0.52558446E-13</totfact>
</mgrwt>
</event>
<event>
 4    1  0.5021037E-019  0.1493956E+02  0.7818608E-02  0.1869919E+00
         -2   -1    0    0    0  501 -0.00000000000E+00  0.00000000000E+00  0.11865689099E+03  0.11865689102E+03  0.25500000000E-02 0. -1.
          2   -1    0    0  501    0  0.00000000000E+00 -0.00000000000E+00 -0.47023963790E+00  0.47024655188E+00  0.25500000000E-02 0.  1.
         31    1    1    2    0    0  0.12376832815E+00 -0.52070175750E+00  0.57271285753E+02  0.57755913522E+02  0.74470750000E+01 0. -1.
        -31    1    1    2    0    0 -0.12376832815E+00  0.52070175750E+00  0.60915365602E+02  0.61371224050E+02  0.74470750000E+01 0.  1.
<mgrwt>
<rscale>  0 0.14939556E+02</rscale>
<asrwt>0</asrwt>
<pdfrwt beam="2">  1        2 0.99869268E+00 0.14939556E+02</pdfrwt>
<pdfrwt beam="1">  1       -2 0.98502652E+00 0.14939556E+02</pdfrwt>
<totfact> 0.18653416E-13</totfact>
</mgrwt>
</event>
<event>
 4    1  0.5021037E-019  0.1492053E+02  0.7818608E-02  0.1870503E+00
         -2   -1    0    0    0  501 -0.00000000000E+00  0.00000000000E+00  0.11863169238E+03  0.11863169240E+03  0.25500000000E-02 0. -1.
          2   -1    0    0  501    0  0.00000000000E+00 -0.00000000000E+00 -0.46914231472E+00  0.46914924486E+00  0.25500000000E-02 0.  1.
         31    1    1    2    0    0  0.38544003927E+00 -0.15472826211E+00  0.60321243801E+02  0.60780620963E+02  0.74470750000E+01 0. -1.
        -31    1    1    2    0    0 -0.38544003927E+00  0.15472826211E+00  0.57841306260E+02  0.58320220685E+02  0.74470750000E+01 0.  1.
<mgrwt>
<rscale>  0 0.14920531E+02</rscale>
<asrwt>0</asrwt>
<pdfrwt beam="2">  1        2 0.99637057E+00 0.14920531E+02</pdfrwt>
<pdfrwt beam="1">  1       -2 0.98480909E+00 0.14920531E+02</pdfrwt>
<totfact> 0.42681520E-13</totfact>
</mgrwt>
</event>
<event>
 4    1 -0.5021037E-019  0.1496100E+02  0.7818608E-02  0.1869261E+00
         -2   -1    0    0    0  501 -0.00000000000E+00  0.00000000000E+00  0.11968138068E+03  0.11968138071E+03  0.25500000000E-02 0. -1.
          2   -1    0    0  501    0  0.00000000000E+00 -0.00000000000E+00 -0.46755391582E+00  0.46756086952E+00  0.25500000000E-02 0.  1.
         31    1    1    2    0    0 -0.63238296807E+00  0.63144242885E-01  0.62083425843E+02  0.62531708643E+02  0.74470750000E+01 0.  1.
        -31    1    1    2    0    0  0.63238296807E+00 -0.63144242885E-01  0.57130400926E+02  0.57617232938E+02  0.74470750000E+01 0. -1.
<mgrwt>
<rscale>  0 0.14961005E+02</rscale>
<asrwt>0</asrwt>
<pdfrwt beam="2">  1        2 0.99304460E+00 0.14961005E+02</pdfrwt>
<pdfrwt beam="1">  1       -2 0.99347551E+00 0.14961005E+02</pdfrwt>
<totfact>-0.13084524E-13</totfact>
</mgrwt>
</event>
<event>
 4    1 -0.5021037E-019  0.1498593E+02  0.7818608E-02  0.1868498E+00
         -2   -1    0    0    0  501 -0.00000000000E+00  0.00000000000E+00  0.11989547464E+03  0.11989547466E+03  0.25500000000E-02 0.  1.
          2   -1    0    0  501    0  0.00000000000E+00 -0.00000000000E+00 -0.46827542806E+00  0.46828237104E+00  0.25500000000E-02 0. -1.
         31    1    1    2    0    0 -0.32739298084E+00  0.28356854299E+00  0.65381563511E+02  0.65805739647E+02  0.74470750000E+01 0.  1.
        -31    1    1    2    0    0  0.32739298084E+00 -0.28356854299E+00  0.54045635697E+02  0.54558017388E+02  0.74470750000E+01 0. -1.
<mgrwt>
<rscale>  0 0.14985930E+02</rscale>
<asrwt>0</asrwt>
<pdfrwt beam="2">  1        2 0.99457795E+00 0.14985930E+02</pdfrwt>
<pdfrwt beam="1">  1       -2 0.99525176E+00 0.14985930E+02</pdfrwt>
<totfact>-0.12328442E-13</totfact>
</mgrwt>
</event>
<event>
 4    1  0.5021037E-019  0.1489929E+02  0.7818608E-02  0.1871157E+00
         -2   -1    0    0    0  501 -0.00000000000E+00  0.00000000000E+00  0.11837831289E+03  0.11837831292E+03  0.25500000000E-02 0. -1.
          2   -1    0    0  501    0  0.00000000000E+00 -0.00000000000E+00 -0.46880853986E+00  0.46881547494E+00  0.25500000000E-02 0.  1.
         31    1    1    2    0    0 -0.11717605737E+00  0.33696213451E-01  0.57734915830E+02  0.58213351541E+02  0.74470750000E+01 0.  1.
        -31    1    1    2    0    0  0.11717605737E+00 -0.33696213451E-01  0.60174588520E+02  0.60633776852E+02  0.74470750000E+01 0. -1.
<mgrwt>
<rscale>  0 0.14899286E+02</rscale>
<asrwt>0</asrwt>
<pdfrwt beam="2">  1        2 0.99565611E+00 0.14899286E+02</pdfrwt>
<pdfrwt beam="1">  1       -2 0.98271121E+00 0.14899286E+02</pdfrwt>
<totfact> 0.78617048E-13</totfact>
</mgrwt>
</event>
<event>
 4    1 -0.5021037E-019  0.1492604E+02  0.7818608E-02  0.1870334E+00
          2   -1    0    0  501    0  0.00000000000E+00  0.00000000000E+00  0.11851732788E+03  0.11851732791E+03  0.25500000000E-02 0.  1.
         -2   -1    0    0    0  501 -0.00000000000E+00 -0.00000000000E+00 -0.46994182937E+00  0.46994874773E+00  0.25500000000E-02 0. -1.
         31    1    1    2    0    0  0.34535943981E+00 -0.29317612661E+00  0.57586299868E+02  0.58067599261E+02  0.74470750000E+01 0. -1.
        -31    1    1    2    0    0 -0.34535943981E+00  0.29317612661E+00  0.60461086186E+02  0.60919677398E+02  0.74470750000E+01 0.  1.
<mgrwt>
<rscale>  0 0.14926039E+02</rscale>
<asrwt>0</asrwt>
<pdfrwt beam="1">  1        2 0.98387005E+00 0.14926039E+02</pdfrwt>
<pdfrwt beam="2">  1       -2 0.99805807E+00 0.14926039E+02</pdfrwt>
<totfact>-0.24270944E-13</totfact>
</mgrwt>
</event>
<event>
 4    1  0.5021037E-019  0.1491855E+02  0.7818608E-02  0.1870564E+00
         -2   -1    0    0    0  501 -0.00000000000E+00  0.00000000000E+00  0.11895621919E+03  0.11895621922E+03  0.25500000000E-02 0.  1.
          2   -1    0    0  501    0  0.00000000000E+00 -0.00000000000E+00 -0.46773806080E+00  0.46774501176E+00  0.25500000000E-02 0. -1.
         31    1    1    2    0    0 -0.27742790078E+00 -0.32193677828E+00  0.58963219668E+02  0.59433162538E+02  0.74470750000E+01 0. -1.
        -31    1    1    2    0    0  0.27742790078E+00  0.32193677828E+00  0.59525261463E+02  0.59990801693E+02  0.74470750000E+01 0. -1.
<mgrwt>
<rscale>  0 0.14918548E+02</rscale>
<asrwt>0</asrwt>
<pdfrwt beam="2">  1        2 0.99341060E+00 0.14918548E+02</pdfrwt>
<pdfrwt beam="1">  1       -2 0.98748089E+00 0.14918548E+02</pdfrwt>
<totfact> 0.22726687E-13</totfact>
</mgrwt>
</event>
<event>
 4    1  0.5021037E-019  0.1490043E+02  0.7818608E-02  0.1871122E+00
         -2   -1    0    0    0  501 -0.00000000000E+00  0.00000000000E+00  0.11890885446E+03  0.11890885448E+03  0.25500000000E-02 0.  1.
          2   -1    0    0  501    0  0.00000000000E+00 -0.00000000000E+00 -0.46678877436E+00  0.46679573945E+00  0.25500000000E-02 0. -1.
         31    1    1    2    0    0  0.68378050228E-01  0.16771451930E+00  0.60169176681E+02  0.60628553934E+02  0.74470750000E+01 0.  1.
        -31    1    1    2    0    0 -0.68378050228E-01 -0.16771451930E+00  0.58272889002E+02  0.58747096289E+02  0.74470750000E+01 0.  1.
<mgrwt>
<rscale>  0 0.14900434E+02</rscale>
<asrwt>0</asrwt>
<pdfrwt beam="2">  1        2 0.99140081E+00 0.14900434E+02</pdfrwt>
<pdfrwt beam="1">  1       -2 0.98708140E+00 0.14900434E+02</pdfrwt>
<totfact> 0.31523894E-13</totfact>
</mgrwt>
</event>
<event>
 4    1 -0.5021037E-019  0.1492320E+02  0.7818608E-02  0.1870421E+00
          2   -1    0    0  501    0  0.00000000000E+00  0.00000000000E+00  0.11896777992E+03  0.11896777995E+03  0.25500000000E-02 0.  1.
         -2   -1    0    0    0  501 -0.00000000000E+00 -0.00000000000E+00 -0.46798452899E+00  0.46799147628E+00  0.25500000000E-02 0. -1.
         31    1    1    2    0    0 -0.17529682035E+00 -0.36613149935E+00  0.57428545714E+02  0.57910807023E+02  0.74470750000E+01 0. -1.
        -31    1    1    2    0    0  0.17529682035E+00  0.36613149935E+00  0.61071249678E+02  0.61524964401E+02  0.74470750000E+01 0. -1.
<mgrwt>
<rscale>  0 0.14923203E+02</rscale>
<asrwt>0</asrwt>
<pdfrwt beam="1">  1        2 0.98757852E+00 0.14923203E+02</pdfrwt>
<pdfrwt beam="2">  1       -2 0.99393238E+00 0.14923203E+02</pdfrwt>
<totfact>-0.22976790E-13</totfact>
</mgrwt>
</event>
<event>
 4    1  0.5021037E-019  0.1491339E+02  0.7818608E-02  0.1870723E+00
          2   -1    0    0  501    0  0.00000000000E+00  0.00000000000E+00  0.12003860193E+03  0.12003860196E+03  0.25500000000E-02 0. -1.
         -2   -1    0    0    0  501 -0.00000000000E+00 -0.00000000000E+00 -0.46320016815E+00  0.46320718720E+00  0.25500000000E-02 0.  1.
         31    1    1    2    0    0  0.14557210066E+00 -0.34913113141E+00  0.59931176050E+02  0.60393276717E+02  0.74470750000E+01 0. -1.
        -31    1    1    2    0    0 -0.14557210066E+00  0.34913113141E+00  0.59644225715E+02  0.60108532431E+02  0.74470750000E+01 0.  1.
<mgrwt>
<rscale>  0 0.14913393E+02</rscale>
<asrwt>0</asrwt>
<pdfrwt beam="1">  1        2 0.99639327E+00 0.14913393E+02</pdfrwt>
<pdfrwt beam="2">  1       -2 0.98384468E+00 0.14913393E+02</pdfrwt>
<totfact> 0.54505997E-13</totfact>
</mgrwt>
</event>
<event>
 4    1  0.5021037E-019  0.1493417E+02  0.7818608E-02  0.1870084E+00
         -2   -1    0    0    0  501 -0.00000000000E+00  0.00000000000E+00  0.11906533293E+03  0.11906533296E+03  0.25500000000E-02 0.  1.
          2   -1    0    0  501    0  0.00000000000E+00 -0.00000000000E+00 -0.46828879297E+00  0.46829573575E+00  0.25500000000E-02 0. -1.
         31    1    1    2    0    0 -0.36951921422E+00 -0.17755334116E+00  0.56408390333E+02  0.56899327726E+02  0.74470750000E+01 0. -1.
        -31    1    1    2    0    0  0.36951921422E+00  0.17755334116E+00  0.62188653806E+02  0.62634300969E+02  0.74470750000E+01 0.  1.
<mgrwt>
<rscale>  0 0.14934173E+02</rscale>
<asrwt>0</asrwt>
<pdfrwt beam="2">  1        2 0.99457925E+00 0.14934173E+02</pdfrwt>
<pdfrwt beam="1">  1       -2 0.98838768E+00 0.14934173E+02</pdfrwt>
<totfact> 0.12389377E-13</totfact>
</mgrwt>
</event>
<event>
 4    1 -0.5021037E-019  0.1491140E+02  0.7818608E-02  0.1870784E+00
         -2   -1    0    0    0  501 -0.00000000000E+00  0.00000000000E+00  0.12004746727E+03  0.12004746730E+03  0.25500000000E-02 0. -1.
          2   -1    0    0  501    0  0.00000000000E+00 -0.00000000000E+00 -0.46304195511E+00  0.46304897656E+00  0.25500000000E-02 0.  1.
         31    1    1    2    0    0  0.18731997906E+00 -0.97518269516E-01  0.62133333768E+02  0.62578388360E+02  0.74470750000E+01 0. -1.
        -31    1    1    2    0    0 -0.18731997906E+00  0.97518269516E-01  0.57451091548E+02  0.57932127915E+02  0.74470750000E+01 0.  1.
<mgrwt>
<rscale>  0 0.14911397E+02</rscale>
<asrwt>0</asrwt>
<pdfrwt beam="2">  1        2 0.98351021E+00 0.14911397E+02</pdfrwt>
<pdfrwt beam="1">  1       -2 0.99646527E+00 0.14911397E+02</pdfrwt>
<totfact>-0.39254562E-13</totfact>
</mgrwt>
</event>
<event>
 4    1 -0.5021037E-019  0.1496072E+02  0.7818608E-02  0.1869269E+00
         -2   -1    0    0    0  501 -0.00000000000E+00  0.00000000000E+00  0.11982302081E+03  0.11982302083E+03  0.25500000000E-02 0. -1.
          2   -1    0    0  501    0  0.00000000000E+00 -0.00000000000E+00 -0.46698355092E+00  0.46699051310E+00  0.25500000000E-02 0.  1.
         31    1    1    2    0    0 -0.13106143843E+00 -0.68516586041E+00  0.58864201940E+02  0.59337507745E+02  0.74470750000E+01 0.  1.
        -31    1    1    2    0    0  0.13106143843E+00  0.68516586041E+00  0.60491835316E+02  0.60952503602E+02  0.74470750000E+01 0. -1.
<mgrwt>
<rscale>  0 0.14960722E+02</rscale>
<asrwt>0</asrwt>
<pdfrwt beam="2">  1        2 0.99184247E+00 0.14960722E+02</pdfrwt>
<pdfrwt beam="1">  1       -2 0.99464198E+00 0.14960722E+02</pdfrwt>
<totfact>-0.15344401E-13</totfact>
</mgrwt>
</event>
<event>
 4    1 -0.5021037E-019  0.1490336E+02  0.7818608E-02  0.1871032E+00
         -2   -1    0    0    0  501 -0.00000000000E+00  0.00000000000E+00  0.11951551577E+03  0.11951551580E+03  0.25500000000E-02 0. -1.
          2   -1    0    0  501    0  0.00000000000E+00 -0.00000000000E+00 -0.46460140710E+00  0.46460840499E+00  0.25500000000E-02 0.  1.
         31    1    1    2    0    0 -0.79461166091E-01 -0.15335709403E+00  0.61109997863E+02  0.61562330993E+02  0.74470750000E+01 0. -1.
        -31    1    1    2    0    0  0.79461166091E-01  0.15335709403E+00  0.57940916499E+02  0.58417793208E+02  0.74470750000E+01 0.  1.
<mgrwt>
<rscale>  0 0.14903355E+02</rscale>
<asrwt>0</asrwt>
<pdfrwt beam="2">  1        2 0.98679277E+00 0.14903355E+02</pdfrwt>
<pdfrwt beam="1">  1       -2 0.99207961E+00 0.14903355E+02</pdfrwt>
<totfact>-0.17930521E-13</totfact>
</mgrwt>
</event>
<event>
 4    1  0.5021037E-019  0.1490150E+02  0.7818608E-02  0.1871089E+00
          2   -1    0    0  501    0  0.00000000000E+00  0.00000000000E+00  0.11998168119E+03  0.11998168122E+03  0.25500000000E-02 0.  1.
         -2   -1    0    0    0  501 -0.00000000000E+00 -0.00000000000E+00 -0.46268104286E+00  0.46268806979E+00  0.25500000000E-02 0. -1.
         31    1    1    2    0    0 -0.12468010312E+00 -0.18799973949E+00  0.59257389345E+02  0.59723931611E+02  0.74470750000E+01 0. -1.
        -31    1    1    2    0    0  0.12468010312E+00  0.18799973949E+00  0.60261610801E+02  0.60720437674E+02  0.74470750000E+01 0.  1.
<mgrwt>
<rscale>  0 0.14901500E+02</rscale>
<asrwt>0</asrwt>
<pdfrwt beam="1">  1        2 0.99591832E+00 0.14901500E+02</pdfrwt>
<pdfrwt beam="2">  1       -2 0.98274451E+00 0.14901500E+02</pdfrwt>
<totfact> 0.75353211E-13</totfact>
</mgrwt>
</event>
<event>
 4    1  0.5021037E-019  0.1490450E+02  0.7818608E-02  0.1870997E+00
          2   -1    0    0  501    0  0.00000000000E+00  0.00000000000E+00  0.11980291054E+03  0.11980291057E+03  0.25500000000E-02 0.  1.
         -2   -1    0    0    0  501 -0.00000000000E+00 -0.00000000000E+00 -0.46355805282E+00  0.46356506645E+00  0.25500000000E-02 0. -1.
         31    1    1    2    0    0 -0.27013080735E+00 -0.29275830700E-03  0.59151079710E+02  0.59618639096E+02  0.74470750000E+01 0.  1.
        -31    1    1    2    0    0  0.27013080735E+00  0.29275830700E-03  0.60188272776E+02  0.60647836536E+02  0.74470750000E+01 0.  1.
<mgrwt>
<rscale>  0 0.14904500E+02</rscale>
<asrwt>0</asrwt>
<pdfrwt beam="1">  1        2 0.99444737E+00 0.14904500E+02</pdfrwt>
<pdfrwt beam="2">  1       -2 0.98459445E+00 0.14904500E+02</pdfrwt>
<totfact> 0.57130134E-13</totfact>
</mgrwt>
</event>
<event>
 4    1 -0.5021037E-019  0.1496623E+02  0.7818608E-02  0.1869101E+00
         -2   -1    0    0    0  501 -0.00000000000E+00  0.00000000000E+00  0.11970573961E+03  0.11970573964E+03  0.25500000000E-02 0. -1.
          2   -1    0    0  501    0  0.00000000000E+00 -0.00000000000E+00 -0.46778540480E+00  0.46779235505E+00  0.25500000000E-02 0.  1.
         31    1    1    2    0    0 -0.50555417797E+00  0.38176066009E+00  0.56649475289E+02  0.57140382418E+02  0.74470750000E+01 0. -1.
        -31    1    1    2    0    0  0.50555417797E+00 -0.38176066009E+00  0.62588478918E+02  0.63033149577E+02  0.74470750000E+01 0. -1.
<mgrwt>
<rscale>  0 0.14966231E+02</rscale>
<asrwt>0</asrwt>
<pdfrwt beam="2">  1        2 0.99353512E+00 0.14966231E+02</pdfrwt>
<pdfrwt beam="1">  1       -2 0.99367884E+00 0.14966231E+02</pdfrwt>
<totfact>-0.12905553E-13</totfact>
</mgrwt>
</event>
<event>
 4    1  0.5021037E-019  0.1496173E+02  0.7818608E-02  0.1869239E+00
          2   -1    0    0  501    0  0.00000000000E+00  0.00000000000E+00  0.12037773723E+03  0.12037773726E+03  0.25500000000E-02 0. -1.
         -2   -1    0    0    0  501 -0.00000000000E+00 -0.00000000000E+00 -0.46489410960E+00  0.46490110308E+00  0.25500000000E-02 0.  1.
         31    1    1    2    0    0  0.43582646489E+00 -0.54799269132E+00  0.58995372527E+02  0.59467664712E+02  0.74470750000E+01 0.  1.
        -31    1    1    2    0    0 -0.43582646489E+00  0.54799269132E+00  0.60917470597E+02  0.61374973651E+02  0.74470750000E+01 0. -1.
<mgrwt>
<rscale>  0 0.14961728E+02</rscale>
<asrwt>0</asrwt>
<pdfrwt beam="1">  1        2 0.99921148E+00 0.14961728E+02</pdfrwt>
<pdfrwt beam="2">  1       -2 0.98743944E+00 0.14961728E+02</pdfrwt>
<totfact> 0.50097900E-14</totfact>
</mgrwt>
</event>
<event>
 4    1 -0.5021037E-019  0.1494078E+02  0.7818608E-02  0.1869881E+00
          2   -1    0    0  501    0  0.00000000000E+00  0.00000000000E+00  0.11890899742E+03  0.11890899745E+03  0.25500000000E-02 0. -1.
         -2   -1    0    0    0  501 -0.00000000000E+00 -0.00000000000E+00 -0.46931943885E+00  0.46932636638E+00  0.25500000000E-02 0.  1.
         31    1    1    2    0    0 -0.54981024037E+00  0.95078020040E-02  0.57517154007E+02  0.57999864766E+02  0.74470750000E+01 0. -1.
        -31    1    1    2    0    0  0.54981024037E+00 -0.95078020040E-02  0.60922523979E+02  0.61378459053E+02  0.74470750000E+01 0. -1.
<mgrwt>
<rscale>  0 0.14940779E+02</rscale>
<asrwt>0</asrwt>
<pdfrwt beam="1">  1        2 0.98710351E+00 0.14940779E+02</pdfrwt>
<pdfrwt beam="2">  1       -2 0.99675442E+00 0.14940779E+02</pdfrwt>
<totfact>-0.21186294E-13</totfact>
</mgrwt>
</event>
<event>
 4    1 -0.5021037E-019  0.1502438E+02  0.7818608E-02  0.1867326E+00
          2   -1    0    0  501    0  0.00000000000E+00  0.00000000000E+00  0.11989697021E+03  0.11989697024E+03  0.25500000000E-02 0. -1.
         -2   -1    0    0    0  501 -0.00000000000E+00 -0.00000000000E+00 -0.47067543692E+00  0.47068234450E+00  0.25500000000E-02 0.  1.
         31    1    1    2    0    0  0.86819425798E+00 -0.41704170616E+00  0.57988068893E+02  0.58472239098E+02  0.74470750000E+01 0. -1.
        -31    1    1    2    0    0 -0.86819425798E+00  0.41704170616E+00  0.61438225885E+02  0.61895413489E+02  0.74470750000E+01 0.  1.
<mgrwt>
<rscale>  0 0.15024377E+02</rscale>
<asrwt>0</asrwt>
<pdfrwt beam="1">  1        2 0.99528397E+00 0.15024377E+02</pdfrwt>
<pdfrwt beam="2">  1       -2 0.99965541E+00 0.15024377E+02</pdfrwt>
<totfact>-0.13652090E-14</totfact>
</mgrwt>
</event>
<event>
 4    1 -0.5021037E-019  0.1491292E+02  0.7818608E-02  0.1870737E+00
          2   -1    0    0  501    0  0.00000000000E+00  0.00000000000E+00  0.11853869714E+03  0.11853869716E+03  0.25500000000E-02 0.  1.
         -2   -1    0    0    0  501 -0.00000000000E+00 -0.00000000000E+00 -0.46903160356E+00  0.46903853535E+00  0.25500000000E-02 0. -1.
         31    1    1    2    0    0 -0.88423423611E-01  0.20135590544E+00  0.61449021798E+02  0.61899027205E+02  0.74470750000E+01 0.  1.
        -31    1    1    2    0    0  0.88423423611E-01 -0.20135590544E+00  0.56620643734E+02  0.57108708494E+02  0.74470750000E+01 0. -1.
<mgrwt>
<rscale>  0 0.14912922E+02</rscale>
<asrwt>0</asrwt>
<pdfrwt beam="1">  1        2 0.98403922E+00 0.14912922E+02</pdfrwt>
<pdfrwt beam="2">  1       -2 0.99613329E+00 0.14912922E+02</pdfrwt>
<totfact>-0.37585456E-13</totfact>
</mgrwt>
</event>
<event>
 4    1  0.5021037E-019  0.1493892E+02  0.7818608E-02  0.1869938E+00
         -2   -1    0    0    0  501 -0.00000000000E+00  0.00000000000E+00  0.11874292420E+03  0.11874292423E+03  0.25500000000E-02 0. -1.
          2   -1    0    0  501    0  0.00000000000E+00 -0.00000000000E+00 -0.46985910348E+00  0.46986602306E+00  0.25500000000E-02 0.  1.
         31    1    1    2    0    0  0.14225169142E+00 -0.14849300485E+00  0.63446080613E+02  0.63881972080E+02  0.74470750000E+01 0. -1.
        -31    1    1    2    0    0 -0.14225169142E+00  0.14849300485E+00  0.54826984482E+02  0.55330818168E+02  0.74470750000E+01 0.  1.
<mgrwt>
<rscale>  0 0.14938923E+02</rscale>
<asrwt>0</asrwt>
<pdfrwt beam="2">  1        2 0.99789056E+00 0.14938923E+02</pdfrwt>
<pdfrwt beam="1">  1       -2 0.98573476E+00 0.14938923E+02</pdfrwt>
<totfact> 0.22259732E-13</totfact>
</mgrwt>
</event>
<event>
 4    1 -0.5021037E-019  0.1501874E+02  0.7818608E-02  0.1867497E+00
         -2   -1    0    0    0  501 -0.00000000000E+00  0.00000000000E+00  0.11998613383E+03  0.11998613386E+03  0.25500000000E-02 0. -1.
          2   -1    0    0  501    0  0.00000000000E+00 -0.00000000000E+00 -0.46997268756E+00  0.46997960547E+00  0.25500000000E-02 0.  1.
         31    1    1    2    0    0 -0.56619085829E+00 -0.30682946931E+00  0.65524854758E+02  0.65949831187E+02  0.74470750000E+01 0. -1.
        -31    1    1    2    0    0  0.56619085829E+00  0.30682946931E+00  0.53991306388E+02  0.54506282279E+02  0.74470750000E+01 0.  1.
<mgrwt>
<rscale>  0 0.15018738E+02</rscale>
<asrwt>0</asrwt>
<pdfrwt beam="2">  1        2 0.99817161E+00 0.15018738E+02</pdfrwt>
<pdfrwt beam="1">  1       -2 0.99601542E+00 0.15018738E+02</pdfrwt>
<totfact>-0.57182298E-14</totfact>
</mgrwt>
</event>
<event>
 4    1  0.5021037E-019  0.1492626E+02  0.7818608E-02  0.1870327E+00
         -2   -1    0    0    0  501 -0.00000000000E+00  0.00000000000E+00  0.11890446391E+03  0.11890446394E+03  0.25500000000E-02 0.  1.
          2   -1    0    0  501    0  0.00000000000E+00 -0.00000000000E+00 -0.46842574854E+00  0.46843268929E+00  0.25500000000E-02 0. -1.
         31    1    1    2    0    0 -0.12937765221E+00  0.26069285780E+00  0.62363623062E+02  0.62807365068E+02  0.74470750000E+01 0.  1.
        -31    1    1    2    0    0  0.12937765221E+00 -0.26069285780E+00  0.56072415104E+02  0.56565531563E+02  0.74470750000E+01 0. -1.
<mgrwt>
<rscale>  0 0.14926263E+02</rscale>
<asrwt>0</asrwt>
<pdfrwt beam="2">  1        2 0.99486370E+00 0.14926263E+02</pdfrwt>
<pdfrwt beam="1">  1       -2 0.98705863E+00 0.14926263E+02</pdfrwt>
<totfact> 0.24309755E-13</totfact>
</mgrwt>
</event>
<event>
 4    1  0.5021037E-019  0.1493031E+02  0.7818608E-02  0.1870203E+00
          2   -1    0    0  501    0  0.00000000000E+00  0.00000000000E+00  0.11988325965E+03  0.11988325967E+03  0.25500000000E-02 0.  1.
         -2   -1    0    0    0  501 -0.00000000000E+00 -0.00000000000E+00 -0.46485309570E+00  0.46486008979E+00  0.25500000000E-02 0. -1.
         31    1    1    2    0    0 -0.10797921283E+00  0.23400380108E+00  0.63342616325E+02  0.63779404091E+02  0.74470750000E+01 0.  1.
        -31    1    1    2    0    0  0.10797921283E+00 -0.23400380108E+00  0.56075790227E+02  0.56568715673E+02  0.74470750000E+01 0. -1.
<mgrwt>
<rscale>  0 0.14930308E+02</rscale>
<asrwt>0</asrwt>
<pdfrwt beam="1">  1        2 0.99512246E+00 0.14930308E+02</pdfrwt>
<pdfrwt beam="2">  1       -2 0.98733700E+00 0.14930308E+02</pdfrwt>
<totfact> 0.20941597E-13</totfact>
</mgrwt>
</event>
<event>
 4    1  0.5021037E-019  0.1492067E+02  0.7818608E-02  0.1870499E+00
         -2   -1    0    0    0  501 -0.00000000000E+00  0.00000000000E+00  0.11844156595E+03  0.11844156598E+03  0.25500000000E-02 0. -1.
          2   -1    0    0  501    0  0.00000000000E+00 -0.00000000000E+00 -0.46990434749E+00  0.46991126640E+00  0.25500000000E-02 0.  1.
         31    1    1    2    0    0  0.51220147208E-01 -0.31721980477E+00  0.61434992721E+02  0.61885543616E+02  0.74470750000E+01 0. -1.
        -31    1    1    2    0    0 -0.51220147208E-01  0.31721980477E+00  0.56536668883E+02  0.57025933630E+02  0.74470750000E+01 0.  1.
<mgrwt>
<rscale>  0 0.14920673E+02</rscale>
<asrwt>0</asrwt>
<pdfrwt beam="2">  1        2 0.99797626E+00 0.14920673E+02</pdfrwt>
<pdfrwt beam="1">  1       -2 0.98324329E+00 0.14920673E+02</pdfrwt>
<totfact> 0.41814371E-13</totfact>
</mgrwt>
</event>
<event>
 4    1 -0.5021037E-019  0.1497746E+02  0.7818608E-02  0.1868757E+00
          2   -1    0    0  501    0  0.00000000000E+00  0.00000000000E+00  0.11966424607E+03  0.11966424610E+03  0.25500000000E-02 0.  1.
         -2   -1    0    0    0  501 -0.00000000000E+00 -0.00000000000E+00 -0.46865035039E+00  0.46865728781E+00  0.25500000000E-02 0. -1.
         31    1    1    2    0    0 -0.70465423414E+00  0.21169459639E+00  0.61878205558E+02  0.62329067066E+02  0.74470750000E+01 0. -1.
        -31    1    1    2    0    0  0.70465423414E+00 -0.21169459639E+00  0.57317390163E+02  0.57803836320E+02  0.74470750000E+01 0. -1.
<mgrwt>
<rscale>  0 0.14977464E+02</rscale>
<asrwt>0</asrwt>
<pdfrwt beam="1">  1        2 0.99334290E+00 0.14977464E+02</pdfrwt>
<pdfrwt beam="2">  1       -2 0.99536365E+00 0.14977464E+02</pdfrwt>
<totfact>-0.13556455E-13</totfact>
</mgrwt>
</event>
<event>
 4    1  0.5021037E-019  0.1491069E+02  0.7818608E-02  0.1870806E+00
          2   -1    0    0  501    0  0.00000000000E+00  0.00000000000E+00  0.11966468740E+03  0.11966468742E+03  0.25500000000E-02 0.  1.
         -2   -1    0    0    0  501 -0.00000000000E+00 -0.00000000000E+00 -0.46447926732E+00  0.46448626704E+00  0.25500000000E-02 0. -1.
         31    1    1    2    0    0  0.17036173588E+00 -0.12458438122E+00  0.61860515808E+02  0.62307518699E+02  0.74470750000E+01 0.  1.
        -31    1    1    2    0    0 -0.17036173588E+00  0.12458438122E+00  0.57339692320E+02  0.57821654990E+02  0.74470750000E+01 0.  1.
<mgrwt>
<rscale>  0 0.14910693E+02</rscale>
<asrwt>0</asrwt>
<pdfrwt beam="1">  1        2 0.99331206E+00 0.14910693E+02</pdfrwt>
<pdfrwt beam="2">  1       -2 0.98653912E+00 0.14910693E+02</pdfrwt>
<totfact> 0.34025131E-13</totfact>
</mgrwt>
</event>
<event>
 4    1 -0.5021037E-019  0.1494800E+02  0.7818608E-02  0.1869659E+00
          2   -1    0    0  501    0  0.00000000000E+00  0.00000000000E+00  0.11907676021E+03  0.11907676024E+03  0.25500000000E-02 0. -1.
         -2   -1    0    0    0  501 -0.00000000000E+00 -0.00000000000E+00 -0.46911128570E+00  0.46911821631E+00  0.25500000000E-02 0.  1.
         31    1    1    2    0    0 -0.21403281127E+00 -0.49822918505E+00  0.56679252409E+02  0.57168965550E+02  0.74470750000E+01 0. -1.
        -31    1    1    2    0    0  0.21403281127E+00  0.49822918505E+00  0.61928396515E+02  0.62376912903E+02  0.74470750000E+01 0.  1.
<mgrwt>
<rscale>  0 0.14947999E+02</rscale>
<asrwt>0</asrwt>
<pdfrwt beam="1">  1        2 0.98848897E+00 0.14947999E+02</pdfrwt>
<pdfrwt beam="2">  1       -2 0.99631960E+00 0.14947999E+02</pdfrwt>
<totfact>-0.18959330E-13</totfact>
</mgrwt>
</event>
<event>
 4    1  0.5021037E-019  0.1491219E+02  0.7818608E-02  0.1870760E+00
          2   -1    0    0  501    0  0.00000000000E+00  0.00000000000E+00  0.12016604747E+03  0.12016604749E+03  0.25500000000E-02 0. -1.
         -2   -1    0    0    0  501 -0.00000000000E+00 -0.00000000000E+00 -0.46263413080E+00  0.46264115844E+00  0.25500000000E-02 0.  1.
         31    1    1    2    0    0  0.29695831831E+00 -0.20983696737E+00  0.60231003637E+02  0.60690731920E+02  0.74470750000E+01 0. -1.
        -31    1    1    2    0    0 -0.29695831831E+00  0.20983696737E+00  0.59472409700E+02  0.59937956733E+02  0.74470750000E+01 0. -1.
<mgrwt>
<rscale>  0 0.14912188E+02</rscale>
<asrwt>0</asrwt>
<pdfrwt beam="1">  1        2 0.99744240E+00 0.14912188E+02</pdfrwt>
<pdfrwt beam="2">  1       -2 0.98265105E+00 0.14912188E+02</pdfrwt>
<totfact> 0.56714523E-13</totfact>
</mgrwt>
</event>
<event>
 4    1  0.5021037E-019  0.1489954E+02  0.7818608E-02  0.1871150E+00
          2   -1    0    0  501    0  0.00000000000E+00  0.00000000000E+00  0.11946558160E+03  0.11946558162E+03  0.25500000000E-02 0.  1.
         -2   -1    0    0    0  501 -0.00000000000E+00 -0.00000000000E+00 -0.46455778901E+00  0.46456478755E+00  0.25500000000E-02 0. -1.
         31    1    1    2    0    0 -0.67714493741E-01 -0.13639270478E+00  0.60549186560E+02  0.61005623571E+02  0.74470750000E+01 0.  1.
        -31    1    1    2    0    0  0.67714493741E-01  0.13639270478E+00  0.58451837248E+02  0.58924522840E+02  0.74470750000E+01 0. -1.
<mgrwt>
<rscale>  0 0.14899542E+02</rscale>
<asrwt>0</asrwt>
<pdfrwt beam="1">  1        2 0.99166636E+00 0.14899542E+02</pdfrwt>
<pdfrwt beam="2">  1       -2 0.98669889E+00 0.14899542E+02</pdfrwt>
<totfact> 0.36082262E-13</totfact>
</mgrwt>
</event>
<event>
 4    1 -0.5021037E-019  0.1494939E+02  0.7818608E-02  0.1869617E+00
         -2   -1    0    0    0  501 -0.00000000000E+00  0.00000000000E+00  0.11940891351E+03  0.11940891353E+03  0.25500000000E-02 0.  1.
          2   -1    0    0  501    0  0.00000000000E+00 -0.00000000000E+00 -0.46789339444E+00  0.46790034309E+00  0.25500000000E-02 0. -1.
         31    1    1    2    0    0  0.22088640076E+00  0.44155526751E+00  0.62760895510E+02  0.63203106673E+02  0.74470750000E+01 0. -1.
        -31    1    1    2    0    0 -0.22088640076E+00 -0.44155526751E+00  0.56180124602E+02  0.56673707203E+02  0.74470750000E+01 0. -1.
<mgrwt>
<rscale>  0 0.14949389E+02</rscale>
<asrwt>0</asrwt>
<pdfrwt beam="2">  1        2 0.99375397E+00 0.14949389E+02</pdfrwt>
<pdfrwt beam="1">  1       -2 0.99122537E+00 0.14949389E+02</pdfrwt>
<totfact>-0.57190891E-14</totfact>
</mgrwt>
</event>
<event>
 4    1  0.5021037E-019  0.1492271E+02  0.7818608E-02  0.1870436E+00
         -2   -1    0    0    0  501 -0.00000000000E+00  0.00000000000E+00  0.11837119581E+03  0.11837119583E+03  0.25500000000E-02 0. -1.
          2   -1    0    0  501    0  0.00000000000E+00 -0.00000000000E+00 -0.47031198150E+00  0.47031889441E+00  0.25500000000E-02 0.  1.
         31    1    1    2    0    0  0.30309423491E+00  0.32621407939E+00  0.59912588635E+02  0.60375288692E+02  0.74470750000E+01 0. -1.
        -31    1    1    2    0    0 -0.30309423491E+00 -0.32621407939E+00  0.57988295191E+02  0.58466226036E+02  0.74470750000E+01 0.  1.
<mgrwt>
<rscale>  0 0.14922708E+02</rscale>
<asrwt>0</asrwt>
<pdfrwt beam="2">  1        2 0.99883620E+00 0.14922708E+02</pdfrwt>
<pdfrwt beam="1">  1       -2 0.98266479E+00 0.14922708E+02</pdfrwt>
<totfact> 0.30019387E-13</totfact>
</mgrwt>
</event>
<event>
 4    1  0.5021037E-019  0.1491178E+02  0.7818608E-02  0.1870773E+00
         -2   -1    0    0    0  501 -0.00000000000E+00  0.00000000000E+00  0.11829393793E+03  0.11829393796E+03  0.25500000000E-02 0. -1.
          2   -1    0    0  501    0  0.00000000000E+00 -0.00000000000E+00 -0.46993004563E+00  0.46993696416E+00  0.25500000000E-02 0.  1.
         31    1    1    2    0    0 -0.28096660684E+00 -0.11692945268E+00  0.60479750318E+02  0.60937277091E+02  0.74470750000E+01 0. -1.
        -31    1    1    2    0    0  0.28096660684E+00  0.11692945268E+00  0.57344257570E+02  0.57826597834E+02  0.74470750000E+01 0.  1.
<mgrwt>
<rscale>  0 0.14911779E+02</rscale>
<asrwt>0</asrwt>
<pdfrwt beam="2">  1        2 0.99802570E+00 0.14911779E+02</pdfrwt>
<pdfrwt beam="1">  1       -2 0.98202281E+00 0.14911779E+02</pdfrwt>
<totfact> 0.53121162E-13</totfact>
</mgrwt>
</event>
<event>
 4    1 -0.5021037E-019  0.1491008E+02  0.7818608E-02  0.1870825E+00
          2   -1    0    0  501    0  0.00000000000E+00  0.00000000000E+00  0.11842262056E+03  0.11842262059E+03  0.25500000000E-02 0. -1.
         -2   -1    0    0    0  501 -0.00000000000E+00 -0.00000000000E+00 -0.46931226634E+00  0.46931919398E+00  0.25500000000E-02 0.  1.
         31    1    1    2    0    0  0.17281792232E+00 -0.27017148511E+00  0.59979506382E+02  0.60440904780E+02  0.74470750000E+01 0. -1.
        -31    1    1    2    0    0 -0.17281792232E+00  0.27017148511E+00  0.57973801913E+02  0.58451035003E+02  0.74470750000E+01 0.  1.
<mgrwt>
<rscale>  0 0.14910077E+02</rscale>
<asrwt>0</asrwt>
<pdfrwt beam="1">  1        2 0.98308174E+00 0.14910077E+02</pdfrwt>
<pdfrwt beam="2">  1       -2 0.99672316E+00 0.14910077E+02</pdfrwt>
<totfact>-0.40415005E-13</totfact>
</mgrwt>
</event>
<event>
 4    1  0.5021037E-019  0.1490247E+02  0.7818608E-02  0.1871059E+00
          2   -1    0    0  501    0  0.00000000000E+00  0.00000000000E+00  0.12037709951E+03  0.12037709954E+03  0.25500000000E-02 0. -1.
         -2   -1    0    0    0  501 -0.00000000000E+00 -0.00000000000E+00 -0.46122149754E+00  0.46122854670E+00  0.25500000000E-02 0.  1.
         31    1    1    2    0    0  0.11212154992E+00  0.22171253406E+00  0.59822281059E+02  0.60284541674E+02  0.74470750000E+01 0.  1.
        -31    1    1    2    0    0 -0.11212154992E+00 -0.22171253406E+00  0.60093596954E+02  0.60553786410E+02  0.74470750000E+01 0. -1.
<mgrwt>
<rscale>  0 0.14902474E+02</rscale>
<asrwt>0</asrwt>
<pdfrwt beam="1">  1        2 0.99917584E+00 0.14902474E+02</pdfrwt>
<pdfrwt beam="2">  1       -2 0.97966865E+00 0.14902474E+02</pdfrwt>
<totfact> 0.38538409E-13</totfact>
</mgrwt>
</event>
<event>
 4    1  0.5021037E-019  0.1491593E+02  0.7818608E-02  0.1870645E+00
          2   -1    0    0  501    0  0.00000000000E+00  0.00000000000E+00  0.11965722427E+03  0.11965722430E+03  0.25500000000E-02 0.  1.
         -2   -1    0    0    0  501 -0.00000000000E+00 -0.00000000000E+00 -0.46483488354E+00  0.46484187791E+00  0.25500000000E-02 0. -1.
         31    1    1    2    0    0 -0.54445809276E-01 -0.35517650502E-01  0.56393849784E+02  0.56883472515E+02  0.74470750000E+01 0. -1.
        -31    1    1    2    0    0  0.54445809276E-01  0.35517650502E-01  0.62798539605E+02  0.63238593663E+02  0.74470750000E+01 0.  1.
<mgrwt>
<rscale>  0 0.14915934E+02</rscale>
<asrwt>0</asrwt>
<pdfrwt beam="1">  1        2 0.99325329E+00 0.14915934E+02</pdfrwt>
<pdfrwt beam="2">  1       -2 0.98729126E+00 0.14915934E+02</pdfrwt>
<totfact> 0.25107906E-13</totfact>
</mgrwt>
</event>
<event>
 4    1 -0.5021037E-019  0.1501712E+02  0.7818608E-02  0.1867547E+00
          2   -1    0    0  501    0  0.00000000000E+00  0.00000000000E+00  0.12016211795E+03  0.12016211798E+03  0.25500000000E-02 0.  1.
         -2   -1    0    0    0  501 -0.00000000000E+00 -0.00000000000E+00 -0.46918308239E+00  0.46919001193E+00  0.25500000000E-02 0. -1.
         31    1    1    2    0    0 -0.82142575971E+00 -0.24380587077E-01  0.63815996089E+02  0.64254304273E+02  0.74470750000E+01 0.  1.
        -31    1    1    2    0    0  0.82142575971E+00  0.24380587077E-01  0.55876938777E+02  0.56377003714E+02  0.74470750000E+01 0. -1.
<mgrwt>
<rscale>  0 0.15017117E+02</rscale>
<asrwt>0</asrwt>
<pdfrwt beam="1">  1        2 0.99746406E+00 0.15017117E+02</pdfrwt>
<pdfrwt beam="2">  1       -2 0.99650681E+00 0.15017117E+02</pdfrwt>
<totfact>-0.68745925E-14</totfact>
</mgrwt>
</event>
<event>
 4    1 -0.5021037E-019  0.1498942E+02  0.7818608E-02  0.1868392E+00
         -2   -1    0    0    0  501 -0.00000000000E+00  0.00000000000E+00  0.11993541887E+03  0.11993541890E+03  0.25500000000E-02 0. -1.
          2   -1    0    0  501    0  0.00000000000E+00 -0.00000000000E+00 -0.46833724609E+00  0.46834418815E+00  0.25500000000E-02 0.  1.
         31    1    1    2    0    0 -0.22683718999E+00  0.81190296660E+00  0.59470083473E+02  0.59940473771E+02  0.74470750000E+01 0. -1.
        -31    1    1    2    0    0  0.22683718999E+00 -0.81190296660E+00  0.59996998152E+02  0.60463289315E+02  0.74470750000E+01 0.  1.
<mgrwt>
<rscale>  0 0.14989415E+02</rscale>
<asrwt>0</asrwt>
<pdfrwt beam="2">  1        2 0.99471002E+00 0.14989415E+02</pdfrwt>
<pdfrwt beam="1">  1       -2 0.99558256E+00 0.14989415E+02</pdfrwt>
<totfact>-0.11954026E-13</totfact>
</mgrwt>
</event>
<event>
 4    1 -0.5021037E-019  0.1493541E+02  0.7818608E-02  0.1870046E+00
          2   -1    0    0  501    0  0.00000000000E+00  0.00000000000E+00  0.11885497092E+03  0.11885497095E+03  0.25500000000E-02 0.  1.
         -2   -1    0    0    0  501 -0.00000000000E+00 -0.00000000000E+00 -0.46919525338E+00  0.46920218275E+00  0.25500000000E-02 0. -1.
         31    1    1    2    0    0  0.17341220321E+00 -0.52686880571E+00  0.59223481480E+02  0.59692439615E+02  0.74470750000E+01 0. -1.
        -31    1    1    2    0    0 -0.17341220321E+00  0.52686880571E+00  0.59162294188E+02  0.59631733517E+02  0.74470750000E+01 0. -1.
<mgrwt>
<rscale>  0 0.14935408E+02</rscale>
<asrwt>0</asrwt>
<pdfrwt beam="1">  1        2 0.98665575E+00 0.14935408E+02</pdfrwt>
<pdfrwt beam="2">  1       -2 0.99648993E+00 0.14935408E+02</pdfrwt>
<totfact>-0.23635462E-13</totfact>
</mgrwt>
</event>
<event>
 4    1 -0.5021037E-019  0.1494598E+02  0.7818608E-02  0.1869721E+00
          2   -1    0    0  501    0  0.00000000000E+00  0.00000000000E+00  0.11901119068E+03  0.11901119071E+03  0.25500000000E-02 0. -1.
         -2   -1    0    0    0  501 -0.00000000000E+00 -0.00000000000E+00 -0.46924318281E+00  0.46925011147E+00  0.25500000000E-02 0.  1.
         31    1    1    2    0    0 -0.42424795155E+00  0.59330324786E-01  0.62874314280E+02  0.63315257471E+02  0.74470750000E+01 0. -1.
        -31    1    1    2    0    0  0.42424795155E+00 -0.59330324786E-01  0.55667633222E+02  0.56165183353E+02  0.74470750000E+01 0.  1.
<mgrwt>
<rscale>  0 0.14945983E+02</rscale>
<asrwt>0</asrwt>
<pdfrwt beam="1">  1        2 0.98794788E+00 0.14945983E+02</pdfrwt>
<pdfrwt beam="2">  1       -2 0.99659647E+00 0.14945983E+02</pdfrwt>
<totfact>-0.19440246E-13</totfact>
</mgrwt>
</event>
<event>
 4    1 -0.5021037E-019  0.1492952E+02  0.7818608E-02  0.1870227E+00
         -2   -1    0    0    0  501 -0.00000000000E+00  0.00000000000E+00  0.11987306045E+03  0.11987306047E+03  0.25500000000E-02 0. -1.
          2   -1    0    0  501    0  0.00000000000E+00 -0.00000000000E+00 -0.46484376059E+00  0.46485075482E+00  0.25500000000E-02 0.  1.
         31    1    1    2    0    0  0.94923706130E-01  0.45551354697E+00  0.61455971087E+02  0.61907283994E+02  0.74470750000E+01 0. -1.
        -31    1    1    2    0    0 -0.94923706130E-01 -0.45551354697E+00  0.57952245598E+02  0.58430627234E+02  0.74470750000E+01 0.  1.
<mgrwt>
<rscale>  0 0.14929523E+02</rscale>
<asrwt>0</asrwt>
<pdfrwt beam="2">  1        2 0.98731692E+00 0.14929523E+02</pdfrwt>
<pdfrwt beam="1">  1       -2 0.99503805E+00 0.14929523E+02</pdfrwt>
<totfact>-0.24418759E-13</totfact>
</mgrwt>
</event>
<event>
 4    1 -0.5021037E-019  0.1490967E+02  0.7818608E-02  0.1870837E+00
          2   -1    0    0  501    0  0.00000000000E+00  0.00000000000E+00  0.11848509987E+03  0.11848509990E+03  0.25500000000E-02 0. -1.
         -2   -1    0    0    0  501 -0.00000000000E+00 -0.00000000000E+00 -0.46903932114E+00  0.46904625281E+00  0.25500000000E-02 0.  1.
         31    1    1    2    0    0 -0.89352473269E-01 -0.22981364268E+00  0.57139322917E+02  0.57623102552E+02  0.74470750000E+01 0. -1.
        -31    1    1    2    0    0  0.89352473269E-01  0.22981364268E+00  0.60876737629E+02  0.61331043597E+02  0.74470750000E+01 0.  1.
<mgrwt>
<rscale>  0 0.14909673E+02</rscale>
<asrwt>0</asrwt>
<pdfrwt beam="1">  1        2 0.98359611E+00 0.14909673E+02</pdfrwt>
<pdfrwt beam="2">  1       -2 0.99614784E+00 0.14909673E+02</pdfrwt>
<totfact>-0.40409607E-13</totfact>
</mgrwt>
</event>
<event>
 4    1  0.5021037E-019  0.1493594E+02  0.7818608E-02  0.1870030E+00
         -2   -1    0    0    0  501 -0.00000000000E+00  0.00000000000E+00  0.11863700246E+03  0.11863700249E+03  0.25500000000E-02 0. -1.
          2   -1    0    0  501    0  0.00000000000E+00 -0.00000000000E+00 -0.47009101454E+00  0.47009793070E+00  0.25500000000E-02 0.  1.
         31    1    1    2    0    0 -0.59420288605E-01 -0.32167759837E+00  0.55475750163E+02  0.55974322590E+02  0.74470750000E+01 0.  1.
        -31    1    1    2    0    0  0.59420288605E-01  0.32167759837E+00  0.62691161284E+02  0.63132777830E+02  0.74470750000E+01 0. -1.
<mgrwt>
<rscale>  0 0.14935944E+02</rscale>
<asrwt>0</asrwt>
<pdfrwt beam="2">  1        2 0.99837763E+00 0.14935944E+02</pdfrwt>
<pdfrwt beam="1">  1       -2 0.98486084E+00 0.14935944E+02</pdfrwt>
<totfact> 0.23417072E-13</totfact>
</mgrwt>
</event>
<event>
 4    1 -0.5021037E-019  0.1490357E+02  0.7818608E-02  0.1871025E+00
         -2   -1    0    0    0  501 -0.00000000000E+00  0.00000000000E+00  0.11960640100E+03  0.11960640102E+03  0.25500000000E-02 0. -1.
          2   -1    0    0  501    0  0.00000000000E+00 -0.00000000000E+00 -0.46426170508E+00  0.46426870808E+00  0.25500000000E-02 0.  1.
         31    1    1    2    0    0 -0.12520023253E+00 -0.86223180204E-01  0.61318757992E+02  0.61769507990E+02  0.74470750000E+01 0. -1.
        -31    1    1    2    0    0  0.12520023253E+00  0.86223180204E-01  0.57823381298E+02  0.58301161741E+02  0.74470750000E+01 0.  1.
<mgrwt>
<rscale>  0 0.14903569E+02</rscale>
<asrwt>0</asrwt>
<pdfrwt beam="2">  1        2 0.98607696E+00 0.14903569E+02</pdfrwt>
<pdfrwt beam="1">  1       -2 0.99282831E+00 0.14903569E+02</pdfrwt>
<totfact>-0.24589692E-13</totfact>
</mgrwt>
</event>
<event>
 4    1  0.5021037E-019  0.1491078E+02  0.7818608E-02  0.1870803E+00
          2   -1    0    0  501    0  0.00000000000E+00  0.00000000000E+00  0.11999618838E+03  0.11999618841E+03  0.25500000000E-02 0. -1.
         -2   -1    0    0    0  501 -0.00000000000E+00 -0.00000000000E+00 -0.46320167684E+00  0.46320869586E+00  0.25500000000E-02 0.  1.
         31    1    1    2    0    0 -0.17128404824E+00 -0.16999808651E+00  0.57695822254E+02  0.58174952249E+02  0.74470750000E+01 0.  1.
        -31    1    1    2    0    0  0.17128404824E+00  0.16999808651E+00  0.61837164450E+02  0.62284444855E+02  0.74470750000E+01 0. -1.
<mgrwt>
<rscale>  0 0.14910783E+02</rscale>
<asrwt>0</asrwt>
<pdfrwt beam="1">  1        2 0.99604258E+00 0.14910783E+02</pdfrwt>
<pdfrwt beam="2">  1       -2 0.98384654E+00 0.14910783E+02</pdfrwt>
<totfact> 0.57610581E-13</totfact>
</mgrwt>
</event>
<event>
 4    1 -0.5021037E-019  0.1494220E+02  0.7818608E-02  0.1869837E+00
          2   -1    0    0  501    0  0.00000000000E+00  0.00000000000E+00  0.11871697487E+03  0.11871697490E+03  0.25500000000E-02 0.  1.
         -2   -1    0    0    0  501 -0.00000000000E+00 -0.00000000000E+00 -0.47016807920E+00  0.47017499423E+00  0.25500000000E-02 0. -1.
         31    1    1    2    0    0 -0.51673199022E+00 -0.30161517924E+00  0.58956839414E+02  0.59428325093E+02  0.74470750000E+01 0. -1.
        -31    1    1    2    0    0  0.51673199022E+00  0.30161517924E+00  0.59289967379E+02  0.59758824801E+02  0.74470750000E+01 0. -1.
<mgrwt>
<rscale>  0 0.14942201E+02</rscale>
<asrwt>0</asrwt>
<pdfrwt beam="1">  1        2 0.98552275E+00 0.14942201E+02</pdfrwt>
<pdfrwt beam="2">  1       -2 0.99854330E+00 0.14942201E+02</pdfrwt>
<totfact>-0.14537433E-13</totfact>
</mgrwt>
</event>
<event>
 4    1 -0.5021037E-019  0.1492520E+02  0.7818608E-02  0.1870360E+00
         -2   -1    0    0    0  501 -0.00000000000E+00  0.00000000000E+00  0.12028556599E+03  0.12028556602E+03  0.25500000000E-02 0.  1.
          2   -1    0    0  501    0  0.00000000000E+00 -0.00000000000E+00 -0.46298143916E+00  0.46298846153E+00  0.25500000000E-02 0. -1.
         31    1    1    2    0    0 -0.22627827643E+00  0.37590042498E+00  0.58313985678E+02  0.58789219715E+02  0.74470750000E+01 0. -1.
        -31    1    1    2    0    0  0.22627827643E+00 -0.37590042498E+00  0.61508598872E+02  0.61959334763E+02  0.74470750000E+01 0. -1.
<mgrwt>
<rscale>  0 0.14925202E+02</rscale>
<asrwt>0</asrwt>
<pdfrwt beam="2">  1        2 0.98338965E+00 0.14925202E+02</pdfrwt>
<pdfrwt beam="1">  1       -2 0.99843353E+00 0.14925202E+02</pdfrwt>
<totfact>-0.21983112E-13</totfact>
</mgrwt>
</event>
<event>
 4    1 -0.5021037E-019  0.1494662E+02  0.7818608E-02  0.1869702E+00
         -2   -1    0    0    0  501 -0.00000000000E+00  0.00000000000E+00  0.11948542881E+03  0.11948542884E+03  0.25500000000E-02 0. -1.
          2   -1    0    0  501    0  0.00000000000E+00 -0.00000000000E+00 -0.46742031064E+00  0.46742726632E+00  0.25500000000E-02 0.  1.
         31    1    1    2    0    0  0.14004345852E+00 -0.32485939810E+00  0.63650176395E+02  0.64085326144E+02  0.74470750000E+01 0. -1.
        -31    1    1    2    0    0 -0.14004345852E+00  0.32485939810E+00  0.55367832104E+02  0.55867529959E+02  0.74470750000E+01 0.  1.
<mgrwt>
<rscale>  0 0.14946616E+02</rscale>
<asrwt>0</asrwt>
<pdfrwt beam="2">  1        2 0.99275560E+00 0.14946616E+02</pdfrwt>
<pdfrwt beam="1">  1       -2 0.99185414E+00 0.14946616E+02</pdfrwt>
<totfact>-0.89134073E-14</totfact>
</mgrwt>
</event>
<event>
 4    1  0.5021037E-019  0.1491460E+02  0.7818608E-02  0.1870686E+00
          2   -1    0    0  501    0  0.00000000000E+00  0.00000000000E+00  0.12005905435E+03  0.12005905437E+03  0.25500000000E-02 0. -1.
         -2   -1    0    0    0  501 -0.00000000000E+00 -0.00000000000E+00 -0.46319622837E+00  0.46320324748E+00  0.25500000000E-02 0.  1.
         31    1    1    2    0    0 -0.18142561712E+00  0.47648856372E-01  0.62564523242E+02  0.63006457448E+02  0.74470750000E+01 0. -1.
        -31    1    1    2    0    0  0.18142561712E+00 -0.47648856372E-01  0.57031334875E+02  0.57515800172E+02  0.74470750000E+01 0.  1.
<mgrwt>
<rscale>  0 0.14914600E+02</rscale>
<asrwt>0</asrwt>
<pdfrwt beam="1">  1        2 0.99656235E+00 0.14914600E+02</pdfrwt>
<pdfrwt beam="2">  1       -2 0.98383699E+00 0.14914600E+02</pdfrwt>
<totfact> 0.52994153E-13</totfact>
</mgrwt>
</event>
<event>
 4    1 -0.5021037E-019  0.1498217E+02  0.7818608E-02  0.1868613E+00
         -2   -1    0    0    0  501 -0.00000000000E+00  0.00000000000E+00  0.12028836908E+03  0.12028836911E+03  0.25500000000E-02 0. -1.
          2   -1    0    0  501    0  0.00000000000E+00 -0.00000000000E+00 -0.46651164789E+00  0.46651861712E+00  0.25500000000E-02 0.  1.
         31    1    1    2    0    0  0.37427418012E+00 -0.63419769124E+00  0.57176092084E+02  0.57663738345E+02  0.74470750000E+01 0.  1.
        -31    1    1    2    0    0 -0.37427418012E+00  0.63419769124E+00  0.62645765353E+02  0.63091149384E+02  0.74470750000E+01 0. -1.
<mgrwt>
<rscale>  0 0.14982169E+02</rscale>
<asrwt>0</asrwt>
<pdfrwt beam="2">  1        2 0.99085895E+00 0.14982169E+02</pdfrwt>
<pdfrwt beam="1">  1       -2 0.99848590E+00 0.14982169E+02</pdfrwt>
<totfact>-0.77907959E-14</totfact>
</mgrwt>
</event>
<event>
 4    1 -0.5021037E-019  0.1493670E+02  0.7818608E-02  0.1870006E+00
          2   -1    0    0  501    0  0.00000000000E+00  0.00000000000E+00  0.11863713279E+03  0.11863713281E+03  0.25500000000E-02 0.  1.
         -2   -1    0    0    0  501 -0.00000000000E+00 -0.00000000000E+00 -0.47013836251E+00  0.47014527797E+00  0.25500000000E-02 0. -1.
         31    1    1    2    0    0  0.21439223858E+00 -0.50896644150E+00  0.58197546599E+02  0.58674682505E+02  0.74470750000E+01 0. -1.
        -31    1    1    2    0    0 -0.21439223858E+00  0.50896644150E+00  0.59969447825E+02  0.60432595587E+02  0.74470750000E+01 0. -1.
<mgrwt>
<rscale>  0 0.14936704E+02</rscale>
<asrwt>0</asrwt>
<pdfrwt beam="1">  1        2 0.98486231E+00 0.14936704E+02</pdfrwt>
<pdfrwt beam="2">  1       -2 0.99847779E+00 0.14936704E+02</pdfrwt>
<totfact>-0.16791971E-13</totfact>
</mgrwt>
</event>
<event>
 4    1  0.5021037E-019  0.1491757E+02  0.7818608E-02  0.1870594E+00
         -2   -1    0    0    0  501 -0.00000000000E+00  0.00000000000E+00  0.11839804114E+03  0.11839804117E+03  0.25500000000E-02 0. -1.
          2   -1    0    0  501    0  0.00000000000E+00 -0.00000000000E+00 -0.46988172304E+00  0.46988864228E+00  0.25500000000E-02 0.  1.
         31    1    1    2    0    0  0.41123373933E-01  0.38260930485E+00  0.60260771789E+02  0.60720405332E+02  0.74470750000E+01 0. -1.
        -31    1    1    2    0    0 -0.41123373933E-01 -0.38260930485E+00  0.57667387631E+02  0.58147524481E+02  0.74470750000E+01 0.  1.
<mgrwt>
<rscale>  0 0.14917572E+02</rscale>
<asrwt>0</asrwt>
<pdfrwt beam="2">  1        2 0.99792695E+00 0.14917572E+02</pdfrwt>
<pdfrwt beam="1">  1       -2 0.98288321E+00 0.14917572E+02</pdfrwt>
<totfact> 0.46134035E-13</totfact>
</mgrwt>
</event>
<event>
 4    1 -0.5021037E-019  0.1491954E+02  0.7818608E-02  0.1870534E+00
         -2   -1    0    0    0  501 -0.00000000000E+00  0.00000000000E+00  0.12013052785E+03  0.12013052788E+03  0.25500000000E-02 0.  1.
          2   -1    0    0  501    0  0.00000000000E+00 -0.00000000000E+00 -0.46322709265E+00  0.46323411129E+00  0.25500000000E-02 0. -1.
         31    1    1    2    0    0 -0.29913866521E-01 -0.41967797462E+00  0.60726056105E+02  0.61182430816E+02  0.74470750000E+01 0.  1.
        -31    1    1    2    0    0  0.29913866521E-01  0.41967797462E+00  0.58941244657E+02  0.59411331177E+02  0.74470750000E+01 0. -1.
<mgrwt>
<rscale>  0 0.14919536E+02</rscale>
<asrwt>0</asrwt>
<pdfrwt beam="2">  1        2 0.98390454E+00 0.14919536E+02</pdfrwt>
<pdfrwt beam="1">  1       -2 0.99715360E+00 0.14919536E+02</pdfrwt>
<totfact>-0.32168280E-13</totfact>
</mgrwt>
</event>
<event>
 4    1 -0.5021037E-019  0.1498273E+02  0.7818608E-02  0.1868596E+00
         -2   -1    0    0    0  501 -0.00000000000E+00  0.00000000000E+00  0.11996662151E+03  0.11996662153E+03  0.25500000000E-02 0. -1.
          2   -1    0    0  501    0  0.00000000000E+00 -0.00000000000E+00 -0.46779758572E+00  0.46780453579E+00  0.25500000000E-02 0.  1.
         31    1    1    2    0    0  0.77746247893E+00  0.37704883538E-01  0.61646847661E+02  0.62099908390E+02  0.74470750000E+01 0. -1.
        -31    1    1    2    0    0 -0.77746247893E+00 -0.37704883538E-01  0.57851976261E+02  0.58334517680E+02  0.74470750000E+01 0. -1.
<mgrwt>
<rscale>  0 0.14982726E+02</rscale>
<asrwt>0</asrwt>
<pdfrwt beam="2">  1        2 0.99356930E+00 0.14982726E+02</pdfrwt>
<pdfrwt beam="1">  1       -2 0.99583610E+00 0.14982726E+02</pdfrwt>
<totfact>-0.12886010E-13</totfact>
</mgrwt>
</event>
<event>
 4    1 -0.5021037E-019  0.1495294E+02  0.7818608E-02  0.1869508E+00
         -2   -1    0    0    0  501 -0.00000000000E+00  0.00000000000E+00  0.11962959150E+03  0.11962959153E+03  0.25500000000E-02 0. -1.
          2   -1    0    0  501    0  0.00000000000E+00 -0.00000000000E+00 -0.46725216879E+00  0.46725912697E+00  0.25500000000E-02 0.  1.
         31    1    1    2    0    0 -0.29450259394E+00  0.43461926645E+00  0.56337993912E+02  0.56830485743E+02  0.74470750000E+01 0.  1.
        -31    1    1    2    0    0  0.29450259394E+00 -0.43461926645E+00  0.62824345423E+02  0.63266364916E+02  0.74470750000E+01 0. -1.
<mgrwt>
<rscale>  0 0.14952940E+02</rscale>
<asrwt>0</asrwt>
<pdfrwt beam="2">  1        2 0.99240454E+00 0.14952940E+02</pdfrwt>
<pdfrwt beam="1">  1       -2 0.99304479E+00 0.14952940E+02</pdfrwt>
<totfact>-0.12856197E-13</totfact>
</mgrwt>
</event>
<event>
 4    1 -0.5021037E-019  0.1494734E+02  0.7818608E-02  0.1869680E+00
          2   -1    0    0  501    0  0.00000000000E+00  0.00000000000E+00  0.11938975601E+03  0.11938975604E+03  0.25500000000E-02 0.  1.
         -2   -1    0    0    0  501 -0.00000000000E+00 -0.00000000000E+00 -0.46784016704E+00  0.46784711647E+00  0.25500000000E-02 0. -1.
         31    1    1    2    0    0 -0.51699706136E+00  0.61619250643E-01  0.62304276650E+02  0.62749923489E+02  0.74470750000E+01 0.  1.
        -31    1    1    2    0    0  0.51699706136E+00 -0.61619250643E-01  0.56617639198E+02  0.57107679670E+02  0.74470750000E+01 0.  1.
<mgrwt>
<rscale>  0 0.14947340E+02</rscale>
<asrwt>0</asrwt>
<pdfrwt beam="1">  1        2 0.99106652E+00 0.14947340E+02</pdfrwt>
<pdfrwt beam="2">  1       -2 0.99364074E+00 0.14947340E+02</pdfrwt>
<totfact>-0.15436348E-13</totfact>
</mgrwt>
</event>
<event>
 4    1 -0.5021037E-019  0.1490823E+02  0.7818608E-02  0.1870882E+00
         -2   -1    0    0    0  501 -0.00000000000E+00  0.00000000000E+00  0.12001845811E+03  0.12001845814E+03  0.25500000000E-02 0.  1.
          2   -1    0    0  501    0  0.00000000000E+00 -0.00000000000E+00 -0.46295691184E+00  0.46296393457E+00  0.25500000000E-02 0. -1.
         31    1    1    2    0    0  0.88894459437E-01 -0.28547267407E+00  0.60783130833E+02  0.61238364746E+02  0.74470750000E+01 0.  1.
        -31    1    1    2    0    0 -0.88894459437E-01  0.28547267407E+00  0.58772370366E+02  0.59243057327E+02  0.74470750000E+01 0.  1.
<mgrwt>
<rscale>  0 0.14908226E+02</rscale>
<asrwt>0</asrwt>
<pdfrwt beam="2">  1        2 0.98332936E+00 0.14908226E+02</pdfrwt>
<pdfrwt beam="1">  1       -2 0.99622469E+00 0.14908226E+02</pdfrwt>
<totfact>-0.41861789E-13</totfact>
</mgrwt>
</event>
<event>
 4    1  0.5021037E-019  0.1490913E+02  0.7818608E-02  0.1870854E+00
          2   -1    0    0  501    0  0.00000000000E+00  0.00000000000E+00  0.11988237501E+03  0.11988237504E+03  0.25500000000E-02 0. -1.
         -2   -1    0    0    0  501 -0.00000000000E+00 -0.00000000000E+00 -0.46353886018E+00  0.46354587410E+00  0.25500000000E-02 0.  1.
         31    1    1    2    0    0  0.27119153203E+00  0.34212109172E-01  0.58158387768E+02  0.58633878510E+02  0.74470750000E+01 0.  1.
        -31    1    1    2    0    0 -0.27119153203E+00 -0.34212109172E-01  0.61260448384E+02  0.61712042403E+02  0.74470750000E+01 0. -1.
<mgrwt>
<rscale>  0 0.14909133E+02</rscale>
<asrwt>0</asrwt>
<pdfrwt beam="1">  1        2 0.99510428E+00 0.14909133E+02</pdfrwt>
<pdfrwt beam="2">  1       -2 0.98455636E+00 0.14909133E+02</pdfrwt>
<totfact> 0.54146251E-13</totfact>
</mgrwt>
</event>
<event>
 4    1 -0.5021037E-019  0.1496851E+02  0.7818608E-02  0.1869031E+00
          2   -1    0    0  501    0  0.00000000000E+00  0.00000000000E+00  0.11924048438E+03  0.11924048441E+03  0.25500000000E-02 0.  1.
         -2   -1    0    0    0  501 -0.00000000000E+00 -0.00000000000E+00 -0.46975341844E+00  0.46976033958E+00  0.25500000000E-02 0. -1.
         31    1    1    2    0    0  0.24965406445E+00 -0.11735261457E-01  0.53772014846E+02  0.54285826617E+02  0.74470750000E+01 0. -1.
        -31    1    1    2    0    0 -0.24965406445E+00  0.11735261457E-01  0.64998716120E+02  0.65424418134E+02  0.74470750000E+01 0.  1.
<mgrwt>
<rscale>  0 0.14968506E+02</rscale>
<asrwt>0</asrwt>
<pdfrwt beam="1">  1        2 0.98984806E+00 0.14968506E+02</pdfrwt>
<pdfrwt beam="2">  1       -2 0.99768339E+00 0.14968506E+02</pdfrwt>
<totfact>-0.12085675E-13</totfact>
</mgrwt>
</event>
<event>
 4    1  0.5021037E-019  0.1491979E+02  0.7818608E-02  0.1870526E+00
          2   -1    0    0  501    0  0.00000000000E+00  0.00000000000E+00  0.12026892778E+03  0.12026892781E+03  0.25500000000E-02 0.  1.
         -2   -1    0    0    0  501 -0.00000000000E+00 -0.00000000000E+00 -0.46270957330E+00  0.46271659979E+00  0.25500000000E-02 0. -1.
         31    1    1    2    0    0  0.14978957545E+00  0.33876396616E+00  0.61781546260E+02  0.62229860857E+02  0.74470750000E+01 0.  1.
        -31    1    1    2    0    0 -0.14978957545E+00 -0.33876396616E+00  0.58024671948E+02  0.58501783552E+02  0.74470750000E+01 0. -1.
<mgrwt>
<rscale>  0 0.14919787E+02</rscale>
<asrwt>0</asrwt>
<pdfrwt beam="1">  1        2 0.99829371E+00 0.14919787E+02</pdfrwt>
<pdfrwt beam="2">  1       -2 0.98281390E+00 0.14919787E+02</pdfrwt>
<totfact> 0.40142451E-13</totfact>
</mgrwt>
</event>
<event>
 4    1  0.5021037E-019  0.1490378E+02  0.7818608E-02  0.1871019E+00
         -2   -1    0    0    0  501 -0.00000000000E+00  0.00000000000E+00  0.11864880638E+03  0.11864880641E+03  0.25500000000E-02 0.  1.
          2   -1    0    0  501    0  0.00000000000E+00 -0.00000000000E+00 -0.46802174881E+00  0.46802869555E+00  0.25500000000E-02 0. -1.
         31    1    1    2    0    0 -0.20547430476E+00 -0.11442086275E+00  0.58066887019E+02  0.58542955220E+02  0.74470750000E+01 0. -1.
        -31    1    1    2    0    0  0.20547430476E+00  0.11442086275E+00  0.60113897616E+02  0.60573879886E+02  0.74470750000E+01 0.  1.
<mgrwt>
<rscale>  0 0.14903776E+02</rscale>
<asrwt>0</asrwt>
<pdfrwt beam="2">  1        2 0.99400065E+00 0.14903776E+02</pdfrwt>
<pdfrwt beam="1">  1       -2 0.98494133E+00 0.14903776E+02</pdfrwt>
<totfact> 0.53964829E-13</totfact>
</mgrwt>
</event>
<event>
 4    1  0.5021037E-019  0.1489893E+02  0.7818608E-02  0.1871168E+00
          2   -1    0    0  501    0  0.00000000000E+00  0.00000000000E+00  0.11981086334E+03  0.11981086337E+03  0.25500000000E-02 0. -1.
         -2   -1    0    0    0  501 -0.00000000000E+00 -0.00000000000E+00 -0.46318121286E+00  0.46318823220E+00  0.25500000000E-02 0.  1.
         31    1    1    2    0    0  0.70844612342E-01 -0.11619231905E+00  0.58617614840E+02  0.59088934795E+02  0.74470750000E+01 0.  1.
        -31    1    1    2    0    0 -0.70844612342E-01  0.11619231905E+00  0.60730067290E+02  0.61185116807E+02  0.74470750000E+01 0. -1.
<mgrwt>
<rscale>  0 0.14898935E+02</rscale>
<asrwt>0</asrwt>
<pdfrwt beam="1">  1        2 0.99451001E+00 0.14898935E+02</pdfrwt>
<pdfrwt beam="2">  1       -2 0.98379739E+00 0.14898935E+02</pdfrwt>
<totfact> 0.69507763E-13</totfact>
</mgrwt>
</event>
<event>
 4    1 -0.5021037E-019  0.1491410E+02  0.7818608E-02  0.1870701E+00
          2   -1    0    0  501    0  0.00000000000E+00  0.00000000000E+00  0.11832958515E+03  0.11832958517E+03  0.25500000000E-02 0.  1.
         -2   -1    0    0    0  501 -0.00000000000E+00 -0.00000000000E+00 -0.46993497755E+00  0.46994189601E+00  0.25500000000E-02 0. -1.
         31    1    1    2    0    0 -0.30028720601E+00  0.16977898418E+00  0.60302592480E+02  0.60761670345E+02  0.74470750000E+01 0. -1.
        -31    1    1    2    0    0  0.30028720601E+00 -0.16977898418E+00  0.57557057689E+02  0.58037856725E+02  0.74470750000E+01 0. -1.
<mgrwt>
<rscale>  0 0.14914104E+02</rscale>
<asrwt>0</asrwt>
<pdfrwt beam="1">  1        2 0.98231761E+00 0.14914104E+02</pdfrwt>
<pdfrwt beam="2">  1       -2 0.99803732E+00 0.14914104E+02</pdfrwt>
<totfact>-0.31808565E-13</totfact>
</mgrwt>
</event>
<event>
 4    1 -0.5021037E-019  0.1494565E+02  0.7818608E-02  0.1869732E+00
         -2   -1    0    0    0  501 -0.00000000000E+00  0.00000000000E+00  0.12005703459E+03  0.12005703462E+03  0.25500000000E-02 0.  1.
          2   -1    0    0  501    0  0.00000000000E+00 -0.00000000000E+00 -0.46513471368E+00  0.46514170354E+00  0.25500000000E-02 0. -1.
         31    1    1    2    0    0 -0.15794409218E+00  0.51423181240E+00  0.57312928995E+02  0.57797232950E+02  0.74470750000E+01 0. -1.
        -31    1    1    2    0    0  0.15794409218E+00 -0.51423181240E+00  0.62278970883E+02  0.62724943372E+02  0.74470750000E+01 0. -1.
<mgrwt>
<rscale>  0 0.14945651E+02</rscale>
<asrwt>0</asrwt>
<pdfrwt beam="2">  1        2 0.98793835E+00 0.14945651E+02</pdfrwt>
<pdfrwt beam="1">  1       -2 0.99656168E+00 0.14945651E+02</pdfrwt>
<totfact>-0.19576351E-13</totfact>
</mgrwt>
</event>
<event>
 4    1 -0.5021037E-019  0.1492255E+02  0.7818608E-02  0.1870441E+00
          2   -1    0    0  501    0  0.00000000000E+00  0.00000000000E+00  0.11899825461E+03  0.11899825464E+03  0.25500000000E-02 0. -1.
         -2   -1    0    0    0  501 -0.00000000000E+00 -0.00000000000E+00 -0.46782350869E+00  0.46783045837E+00  0.25500000000E-02 0.  1.
         31    1    1    2    0    0 -0.92359996926E-01  0.44449667719E+00  0.58668047247E+02  0.59140551244E+02  0.74470750000E+01 0. -1.
        -31    1    1    2    0    0  0.92359996926E-01 -0.44449667719E+00  0.59862383858E+02  0.60325533855E+02  0.74470750000E+01 0.  1.
<mgrwt>
<rscale>  0 0.14922546E+02</rscale>
<asrwt>0</asrwt>
<pdfrwt beam="1">  1        2 0.98782918E+00 0.14922546E+02</pdfrwt>
<pdfrwt beam="2">  1       -2 0.99359274E+00 0.14922546E+02</pdfrwt>
<totfact>-0.21558238E-13</totfact>
</mgrwt>
</event>
<event>
 4    1  0.5021037E-019  0.1492754E+02  0.7818608E-02  0.1870288E+00
          2   -1    0    0  501    0  0.00000000000E+00  0.00000000000E+00  0.11957286281E+03  0.11957286283E+03  0.25500000000E-02 0.  1.
         -2   -1    0    0    0  501 -0.00000000000E+00 -0.00000000000E+00 -0.46588678360E+00  0.46589376217E+00  0.25500000000E-02 0. -1.
         31    1    1    2    0    0  0.29113972578E+00 -0.20412376080E+00  0.62367782502E+02  0.62811827303E+02  0.74470750000E+01 0.  1.
        -31    1    1    2    0    0 -0.29113972578E+00  0.20412376080E+00  0.56739193521E+02  0.57226929293E+02  0.74470750000E+01 0. -1.
<mgrwt>
<rscale>  0 0.14927537E+02</rscale>
<asrwt>0</asrwt>
<pdfrwt beam="1">  1        2 0.99256443E+00 0.14927537E+02</pdfrwt>
<pdfrwt beam="2">  1       -2 0.98951405E+00 0.14927537E+02</pdfrwt>
<totfact> 0.45933908E-14</totfact>
</mgrwt>
</event>
<event>
 4    1  0.5021037E-019  0.1495779E+02  0.7818608E-02  0.1869359E+00
          2   -1    0    0  501    0  0.00000000000E+00  0.00000000000E+00  0.12030103636E+03  0.12030103638E+03  0.25500000000E-02 0.  1.
         -2   -1    0    0    0  501 -0.00000000000E+00 -0.00000000000E+00 -0.46494543996E+00  0.46495243266E+00  0.25500000000E-02 0. -1.
         31    1    1    2    0    0 -0.25060435896E+00  0.35401674223E+00  0.55594340395E+02  0.56092581866E+02  0.74470750000E+01 0. -1.
        -31    1    1    2    0    0  0.25060435896E+00 -0.35401674223E+00  0.64241750521E+02  0.64673406949E+02  0.74470750000E+01 0.  1.
<mgrwt>
<rscale>  0 0.14957786E+02</rscale>
<asrwt>0</asrwt>
<pdfrwt beam="1">  1        2 0.99857769E+00 0.14957786E+02</pdfrwt>
<pdfrwt beam="2">  1       -2 0.98754562E+00 0.14957786E+02</pdfrwt>
<totfact> 0.80055710E-14</totfact>
</mgrwt>
</event>
<event>
 4    1 -0.5021037E-019  0.1493244E+02  0.7818608E-02  0.1870137E+00
          2   -1    0    0  501    0  0.00000000000E+00  0.00000000000E+00  0.11870706165E+03  0.11870706168E+03  0.25500000000E-02 0.  1.
         -2   -1    0    0    0  501 -0.00000000000E+00 -0.00000000000E+00 -0.46959342897E+00  0.46960035246E+00  0.25500000000E-02 0. -1.
         31    1    1    2    0    0  0.47677401051E+00 -0.59345784830E-01  0.57251970866E+02  0.57736279145E+02  0.74470750000E+01 0.  1.
        -31    1    1    2    0    0 -0.47677401051E+00  0.59345784830E-01  0.60985497359E+02  0.61440382889E+02  0.74470750000E+01 0.  1.
<mgrwt>
<rscale>  0 0.14932444E+02</rscale>
<asrwt>0</asrwt>
<pdfrwt beam="1">  1        2 0.98543603E+00 0.14932444E+02</pdfrwt>
<pdfrwt beam="2">  1       -2 0.99732736E+00 0.14932444E+02</pdfrwt>
<totfact>-0.23971274E-13</totfact>
</mgrwt>
</event>
<event>
 4    1  0.5021037E-019  0.1492128E+02  0.7818608E-02  0.1870480E+00
         -2   -1    0    0    0  501 -0.00000000000E+00  0.00000000000E+00  0.11880835632E+03  0.11880835634E+03  0.25500000000E-02 0. -1.
          2   -1    0    0  501    0  0.00000000000E+00 -0.00000000000E+00 -0.46849176607E+00  0.46849870584E+00  0.25500000000E-02 0.  1.
         31    1    1    2    0    0 -0.78031597557E-01 -0.32143955261E-01  0.55639050838E+02  0.56135283257E+02  0.74470750000E+01 0.  1.
        -31    1    1    2    0    0  0.78031597557E-01  0.32143955261E-01  0.62700813714E+02  0.63141571794E+02  0.74470750000E+01 0. -1.
<mgrwt>
<rscale>  0 0.14921280E+02</rscale>
<asrwt>0</asrwt>
<pdfrwt beam="2">  1        2 0.99500020E+00 0.14921280E+02</pdfrwt>
<pdfrwt beam="1">  1       -2 0.98626449E+00 0.14921280E+02</pdfrwt>
<totfact> 0.32565819E-13</totfact>
</mgrwt>
</event>
<event>
 4    1 -0.5021037E-019  0.1498531E+02  0.7818608E-02  0.1868517E+00
          2   -1    0    0  501    0  0.00000000000E+00  0.00000000000E+00  0.11940415165E+03  0.11940415168E+03  0.25500000000E-02 0.  1.
         -2   -1    0    0    0  501 -0.00000000000E+00 -0.00000000000E+00 -0.47016363362E+00  0.47017054872E+00  0.25500000000E-02 0. -1.
         31    1    1    2    0    0  0.76654584506E-02  0.41178846920E+00  0.53746677836E+02  0.54261717011E+02  0.74470750000E+01 0. -1.
        -31    1    1    2    0    0 -0.76654584506E-02 -0.41178846920E+00  0.65187310178E+02  0.65612605213E+02  0.74470750000E+01 0.  1.
<mgrwt>
<rscale>  0 0.14985314E+02</rscale>
<asrwt>0</asrwt>
<pdfrwt beam="1">  1        2 0.99120477E+00 0.14985314E+02</pdfrwt>
<pdfrwt beam="2">  1       -2 0.99855657E+00 0.14985314E+02</pdfrwt>
<totfact>-0.72667956E-14</totfact>
</mgrwt>
</event>
<event>
 4    1  0.5021037E-019  0.1490729E+02  0.7818608E-02  0.1870911E+00
         -2   -1    0    0    0  501 -0.00000000000E+00  0.00000000000E+00  0.11803099445E+03  0.11803099448E+03  0.25500000000E-02 0. -1.
          2   -1    0    0  501    0  0.00000000000E+00 -0.00000000000E+00 -0.47069332085E+00  0.47070022816E+00  0.25500000000E-02 0.  1.
         31    1    1    2    0    0  0.24470150290E+00 -0.50145793808E-01  0.60277737677E+02  0.60736537430E+02  0.74470750000E+01 0. -1.
        -31    1    1    2    0    0 -0.24470150290E+00  0.50145793808E-01  0.57282563452E+02  0.57765157276E+02  0.74470750000E+01 0.  1.
<mgrwt>
<rscale>  0 0.14907288E+02</rscale>
<asrwt>0</asrwt>
<pdfrwt beam="2">  1        2 0.99963145E+00 0.14907288E+02</pdfrwt>
<pdfrwt beam="1">  1       -2 0.97985492E+00 0.14907288E+02</pdfrwt>
<totfact> 0.17573600E-13</totfact>
</mgrwt>
</event>
<event>
 4    1  0.5021037E-019  0.1495381E+02  0.7818608E-02  0.1869481E+00
          2   -1    0    0  501    0  0.00000000000E+00  0.00000000000E+00  0.12030068116E+03  0.12030068118E+03  0.25500000000E-02 0. -1.
         -2   -1    0    0    0  501 -0.00000000000E+00 -0.00000000000E+00 -0.46469960046E+00  0.46470659687E+00  0.25500000000E-02 0.  1.
         31    1    1    2    0    0 -0.57504494604E+00 -0.23881936018E+00  0.61853935010E+02  0.62303739163E+02  0.74470750000E+01 0.  1.
        -31    1    1    2    0    0  0.57504494604E+00  0.23881936018E+00  0.57982046547E+02  0.58461648618E+02  0.74470750000E+01 0.  1.
<mgrwt>
<rscale>  0 0.14953809E+02</rscale>
<asrwt>0</asrwt>
<pdfrwt beam="1">  1        2 0.99857272E+00 0.14953809E+02</pdfrwt>
<pdfrwt beam="2">  1       -2 0.98702546E+00 0.14953809E+02</pdfrwt>
<totfact> 0.10155329E-13</totfact>
</mgrwt>
</event>
<event>
 4    1  0.5021037E-019  0.1491337E+02  0.7818608E-02  0.1870724E+00
         -2   -1    0    0    0  501 -0.00000000000E+00  0.00000000000E+00  0.11882452233E+03  0.11882452236E+03  0.25500000000E-02 0.  1.
          2   -1    0    0  501    0  0.00000000000E+00 -0.00000000000E+00 -0.46793142717E+00  0.46793837525E+00  0.25500000000E-02 0. -1.
         31    1    1    2    0    0 -0.35888742098E+00 -0.56590471646E-01  0.58331166401E+02  0.58805747188E+02  0.74470750000E+01 0. -1.
        -31    1    1    2    0    0  0.35888742098E+00  0.56590471646E-01  0.60025424500E+02  0.60486713542E+02  0.74470750000E+01 0. -1.
<mgrwt>
<rscale>  0 0.14913369E+02</rscale>
<asrwt>0</asrwt>
<pdfrwt beam="2">  1        2 0.99381535E+00 0.14913369E+02</pdfrwt>
<pdfrwt beam="1">  1       -2 0.98639353E+00 0.14913369E+02</pdfrwt>
<totfact> 0.34554945E-13</totfact>
</mgrwt>
</event>
<event>
 4    1 -0.5021037E-019  0.1493729E+02  0.7818608E-02  0.1869988E+00
         -2   -1    0    0    0  501 -0.00000000000E+00  0.00000000000E+00  0.12015161179E+03  0.12015161182E+03  0.25500000000E-02 0.  1.
          2   -1    0    0  501    0  0.00000000000E+00 -0.00000000000E+00 -0.46424853641E+00  0.46425553961E+00  0.25500000000E-02 0. -1.
         31    1    1    2    0    0 -0.34569502840E+00 -0.44914848693E+00  0.60018446614E+02  0.60481353320E+02  0.74470750000E+01 0. -1.
        -31    1    1    2    0    0  0.34569502840E+00  0.44914848693E+00  0.59668916638E+02  0.60134514035E+02  0.74470750000E+01 0.  1.
<mgrwt>
<rscale>  0 0.14937287E+02</rscale>
<asrwt>0</asrwt>
<pdfrwt beam="2">  1        2 0.98606640E+00 0.14937287E+02</pdfrwt>
<pdfrwt beam="1">  1       -2 0.99733638E+00 0.14937287E+02</pdfrwt>
<totfact>-0.21673458E-13</totfact>
</mgrwt>
</event>
<event>
 4    1  0.5021037E-019  0.1492027E+02  0.7818608E-02  0.1870511E+00
         -2   -1    0    0    0  501 -0.00000000000E+00  0.00000000000E+00  0.11882390073E+03  0.11882390076E+03  0.25500000000E-02 0. -1.
          2   -1    0    0  501    0  0.00000000000E+00 -0.00000000000E+00 -0.46836675639E+00  0.46837369801E+00  0.25500000000E-02 0.  1.
         31    1    1    2    0    0 -0.16733075624E+00 -0.55143796391E-01  0.62411813178E+02  0.62854788128E+02  0.74470750000E+01 0. -1.
        -31    1    1    2    0    0  0.16733075624E+00  0.55143796391E-01  0.55943720799E+02  0.56437486331E+02  0.74470750000E+01 0.  1.
<mgrwt>
<rscale>  0 0.14920265E+02</rscale>
<asrwt>0</asrwt>
<pdfrwt beam="2">  1        2 0.99473626E+00 0.14920265E+02</pdfrwt>
<pdfrwt beam="1">  1       -2 0.98639199E+00 0.14920265E+02</pdfrwt>
<totfact> 0.31942048E-13</totfact>
</mgrwt>
</event>
<event>
 4    1 -0.5021037E-019  0.1497862E+02  0.7818608E-02  0.1868722E+00
         -2   -1    0    0    0  501 -0.00000000000E+00  0.00000000000E+00  0.11995451354E+03  0.11995451357E+03  0.25500000000E-02 0.  1.
          2   -1    0    0  501    0  0.00000000000E+00 -0.00000000000E+00 -0.46758833700E+00  0.46759529018E+00  0.25500000000E-02 0. -1.
         31    1    1    2    0    0 -0.27652769422E+00 -0.47627133085E+00  0.55142423762E+02  0.55645746705E+02  0.74470750000E+01 0. -1.
        -31    1    1    2    0    0  0.27652769422E+00  0.47627133085E+00  0.64344501443E+02  0.64776362154E+02  0.74470750000E+01 0. -1.
<mgrwt>
<rscale>  0 0.14978618E+02</rscale>
<asrwt>0</asrwt>
<pdfrwt beam="2">  1        2 0.99312622E+00 0.14978618E+02</pdfrwt>
<pdfrwt beam="1">  1       -2 0.99573425E+00 0.14978618E+02</pdfrwt>
<totfact>-0.13434346E-13</totfact>
</mgrwt>
</event>
<event>
 4    1 -0.5021037E-019  0.1490755E+02  0.7818608E-02  0.1870903E+00
         -2   -1    0    0    0  501 -0.00000000000E+00  0.00000000000E+00  0.12020748099E+03  0.12020748102E+03  0.25500000000E-02 0.  1.
          2   -1    0    0  501    0  0.00000000000E+00 -0.00000000000E+00 -0.46218698084E+00  0.46219401528E+00  0.25500000000E-02 0. -1.
         31    1    1    2    0    0  0.31378425905E+00  0.21464387305E-01  0.60117020463E+02  0.60577338970E+02  0.74470750000E+01 0.  1.
        -31    1    1    2    0    0 -0.31378425905E+00 -0.21464387305E-01  0.59628273551E+02  0.60092336067E+02  0.74470750000E+01 0.  1.
<mgrwt>
<rscale>  0 0.14907550E+02</rscale>
<asrwt>0</asrwt>
<pdfrwt beam="2">  1        2 0.98170623E+00 0.14907550E+02</pdfrwt>
<pdfrwt beam="1">  1       -2 0.99778130E+00 0.14907550E+02</pdfrwt>
<totfact>-0.38866158E-13</totfact>
</mgrwt>
</event>
<event>
 4    1 -0.5021037E-019  0.1490902E+02  0.7818608E-02  0.1870858E+00
          2   -1    0    0  501    0  0.00000000000E+00  0.00000000000E+00  0.11857383145E+03  0.11857383148E+03  0.25500000000E-02 0. -1.
         -2   -1    0    0    0  501 -0.00000000000E+00 -0.00000000000E+00 -0.46864706268E+00  0.46865400015E+00  0.25500000000E-02 0.  1.
         31    1    1    2    0    0  0.30401661614E+00 -0.11211355620E+00  0.59659146809E+02  0.60123021544E+02  0.74470750000E+01 0. -1.
        -31    1    1    2    0    0 -0.30401661614E+00  0.11211355620E+00  0.58446037578E+02  0.58919463933E+02  0.74470750000E+01 0.  1.
<mgrwt>
<rscale>  0 0.14909016E+02</rscale>
<asrwt>0</asrwt>
<pdfrwt beam="1">  1        2 0.98432656E+00 0.14909016E+02</pdfrwt>
<pdfrwt beam="2">  1       -2 0.99532099E+00 0.14909016E+02</pdfrwt>
<totfact>-0.38335746E-13</totfact>
</mgrwt>
</event>
<event>
 4    1 -0.5021037E-019  0.1494369E+02  0.7818608E-02  0.1869792E+00
          2   -1    0    0  501    0  0.00000000000E+00  0.00000000000E+00  0.11890770012E+03  0.11890770015E+03  0.25500000000E-02 0.  1.
         -2   -1    0    0    0  501 -0.00000000000E+00 -0.00000000000E+00 -0.46950716647E+00  0.46951409123E+00  0.25500000000E-02 0. -1.
         31    1    1    2    0    0  0.10531473902E+00 -0.47097864107E+00  0.62171527998E+02  0.62617814812E+02  0.74470750000E+01 0.  1.
        -31    1    1    2    0    0 -0.10531473902E+00  0.47097864107E+00  0.56266664954E+02  0.56759399426E+02  0.74470750000E+01 0. -1.
<mgrwt>
<rscale>  0 0.14943685E+02</rscale>
<asrwt>0</asrwt>
<pdfrwt beam="1">  1        2 0.98709433E+00 0.14943685E+02</pdfrwt>
<pdfrwt beam="2">  1       -2 0.99715151E+00 0.14943685E+02</pdfrwt>
<totfact>-0.19513052E-13</totfact>
</mgrwt>
</event>
<event>
 4    1 -0.5021037E-019  0.1494312E+02  0.7818608E-02  0.1869809E+00
         -2   -1    0    0    0  501 -0.00000000000E+00  0.00000000000E+00  0.11954089831E+03  0.11954089834E+03  0.25500000000E-02 0. -1.
          2   -1    0    0  501    0  0.00000000000E+00 -0.00000000000E+00 -0.46698458154E+00  0.46699154371E+00  0.25500000000E-02 0.  1.
         31    1    1    2    0    0  0.40269381623E-01 -0.35963701200E+00  0.63424228381E+02  0.63860963288E+02  0.74470750000E+01 0. -1.
        -31    1    1    2    0    0 -0.40269381623E-01  0.35963701200E+00  0.55649685348E+02  0.56146926592E+02  0.74470750000E+01 0.  1.
<mgrwt>
<rscale>  0 0.14943116E+02</rscale>
<asrwt>0</asrwt>
<pdfrwt beam="2">  1        2 0.99183557E+00 0.14943116E+02</pdfrwt>
<pdfrwt beam="1">  1       -2 0.99230920E+00 0.14943116E+02</pdfrwt>
<totfact>-0.11264823E-13</totfact>
</mgrwt>
</event>
<event>
 4    1 -0.5021037E-019  0.1492681E+02  0.7818608E-02  0.1870310E+00
         -2   -1    0    0    0  501 -0.00000000000E+00  0.00000000000E+00  0.11960103290E+03  0.11960103292E+03  0.25500000000E-02 0.  1.
          2   -1    0    0  501    0  0.00000000000E+00 -0.00000000000E+00 -0.46573184022E+00  0.46573882112E+00  0.25500000000E-02 0. -1.
         31    1    1    2    0    0  0.34930317979E+00  0.15143306017E+00  0.62092899397E+02  0.62539044015E+02  0.74470750000E+01 0.  1.
        -31    1    1    2    0    0 -0.34930317979E+00 -0.15143306017E+00  0.57042401660E+02  0.57527727731E+02  0.74470750000E+01 0.  1.
<mgrwt>
<rscale>  0 0.14926812E+02</rscale>
<asrwt>0</asrwt>
<pdfrwt beam="2">  1        2 0.98918715E+00 0.14926812E+02</pdfrwt>
<pdfrwt beam="1">  1       -2 0.99279608E+00 0.14926812E+02</pdfrwt>
<totfact>-0.16172203E-13</totfact>
</mgrwt>
</event>
<event>
 4    1 -0.5021037E-019  0.1496049E+02  0.7818608E-02  0.1869277E+00
         -2   -1    0    0    0  501 -0.00000000000E+00  0.00000000000E+00  0.11942437206E+03  0.11942437209E+03  0.25500000000E-02 0. -1.
          2   -1    0    0  501    0  0.00000000000E+00 -0.00000000000E+00 -0.46852784929E+00  0.46853478852E+00  0.25500000000E-02 0.  1.
         31    1    1    2    0    0  0.87583436779E-01 -0.37653505039E+00  0.64189742626E+02  0.64621447167E+02  0.74470750000E+01 0. -1.
        -31    1    1    2    0    0 -0.87583436779E-01  0.37653505039E+00  0.54766101588E+02  0.55271459712E+02  0.74470750000E+01 0.  1.
<mgrwt>
<rscale>  0 0.14960490E+02</rscale>
<asrwt>0</asrwt>
<pdfrwt beam="2">  1        2 0.99509670E+00 0.14960490E+02</pdfrwt>
<pdfrwt beam="1">  1       -2 0.99135844E+00 0.14960490E+02</pdfrwt>
<totfact>-0.55922046E-14</totfact>
</mgrwt>
</event>
<event>
 4    1 -0.5021037E-019  0.1497128E+02  0.7818608E-02  0.1868946E+00
         -2   -1    0    0    0  501 -0.00000000000E+00  0.00000000000E+00  0.11969209596E+03  0.11969209598E+03  0.25500000000E-02 0. -1.
          2   -1    0    0  501    0  0.00000000000E+00 -0.00000000000E+00 -0.46815437357E+00  0.46816131834E+00  0.25500000000E-02 0.  1.
         31    1    1    2    0    0  0.31937055791E+00 -0.14031918569E+00  0.54202959781E+02  0.54713265869E+02  0.74470750000E+01 0.  1.
        -31    1    1    2    0    0 -0.31937055791E+00  0.14031918569E+00  0.65020981801E+02  0.65446991432E+02  0.74470750000E+01 0. -1.
<mgrwt>
<rscale>  0 0.14971279E+02</rscale>
<asrwt>0</asrwt>
<pdfrwt beam="2">  1        2 0.99431527E+00 0.14971279E+02</pdfrwt>
<pdfrwt beam="1">  1       -2 0.99356908E+00 0.14971279E+02</pdfrwt>
<totfact>-0.11984979E-13</totfact>
</mgrwt>
</event>
<event>
 4    1  0.5021037E-019  0.1491367E+02  0.7818608E-02  0.1870714E+00
          2   -1    0    0  501    0  0.00000000000E+00  0.00000000000E+00  0.12006527275E+03  0.12006527278E+03  0.25500000000E-02 0. -1.
         -2   -1    0    0    0  501 -0.00000000000E+00 -0.00000000000E+00 -0.46311437949E+00  0.46312139984E+00  0.25500000000E-02 0.  1.
         31    1    1    2    0    0 -0.18403689955E-01 -0.12845160257E+00  0.62699421823E+02  0.63140266562E+02  0.74470750000E+01 0. -1.
        -31    1    1    2    0    0  0.18403689955E-01  0.12845160257E+00  0.56902736548E+02  0.57388127615E+02  0.74470750000E+01 0.  1.
<mgrwt>
<rscale>  0 0.14913669E+02</rscale>
<asrwt>0</asrwt>
<pdfrwt beam="1">  1        2 0.99661309E+00 0.14913669E+02</pdfrwt>
<pdfrwt beam="2">  1       -2 0.98366401E+00 0.14913669E+02</pdfrwt>
<totfact> 0.54714156E-13</totfact>
</mgrwt>
</event>
<event>
 4    1 -0.5021037E-019  0.1495182E+02  0.7818608E-02  0.1869542E+00
          2   -1    0    0  501    0  0.00000000000E+00  0.00000000000E+00  0.11943640541E+03  0.11943640543E+03  0.25500000000E-02 0. -1.
         -2   -1    0    0    0  501 -0.00000000000E+00 -0.00000000000E+00 -0.46793796430E+00  0.46794491228E+00  0.25500000000E-02 0.  1.
         31    1    1    2    0    0  0.23562915914E+00  0.33622578515E+00  0.55381384720E+02  0.55881349916E+02  0.74470750000E+01 0.  1.
        -31    1    1    2    0    0 -0.23562915914E+00 -0.33622578515E+00  0.63587082723E+02  0.64023000430E+02  0.74470750000E+01 0. -1.
<mgrwt>
<rscale>  0 0.14951822E+02</rscale>
<asrwt>0</asrwt>
<pdfrwt beam="1">  1        2 0.99145306E+00 0.14951822E+02</pdfrwt>
<pdfrwt beam="2">  1       -2 0.99384915E+00 0.14951822E+02</pdfrwt>
<totfact>-0.15260720E-13</totfact>
</mgrwt>
</event>
<event>
 4    1  0.5021037E-019  0.1493889E+02  0.7818608E-02  0.1869939E+00
          2   -1    0    0  501    0  0.00000000000E+00  0.00000000000E+00  0.12003754392E+03  0.12003754395E+03  0.25500000000E-02 0.  1.
         -2   -1    0    0    0  501 -0.00000000000E+00 -0.00000000000E+00 -0.46478932085E+00  0.46479631590E+00  0.25500000000E-02 0. -1.
         31    1    1    2    0    0 -0.31414926183E+00 -0.32481071996E+00  0.62688850035E+02  0.63131252455E+02  0.74470750000E+01 0.  1.
        -31    1    1    2    0    0  0.31414926183E+00  0.32481071996E+00  0.56883904566E+02  0.57371087810E+02  0.74470750000E+01 0. -1.
<mgrwt>
<rscale>  0 0.14938888E+02</rscale>
<asrwt>0</asrwt>
<pdfrwt beam="1">  1        2 0.99639766E+00 0.14938888E+02</pdfrwt>
<pdfrwt beam="2">  1       -2 0.98720697E+00 0.14938888E+02</pdfrwt>
<totfact> 0.18686466E-13</totfact>
</mgrwt>
</event>
<event>
 4    1  0.5021037E-019  0.1490535E+02  0.7818608E-02  0.1870970E+00
          2   -1    0    0  501    0  0.00000000000E+00  0.00000000000E+00  0.12024286108E+03  0.12024286111E+03  0.25500000000E-02 0.  1.
         -2   -1    0    0    0  501 -0.00000000000E+00 -0.00000000000E+00 -0.46191482138E+00  0.46192185996E+00  0.25500000000E-02 0. -1.
         31    1    1    2    0    0  0.22553645520E+00  0.16388887081E+00  0.59277270405E+02  0.59743882021E+02  0.74470750000E+01 0. -1.
        -31    1    1    2    0    0 -0.22553645520E+00 -0.16388887081E+00  0.60503675856E+02  0.60960900949E+02  0.74470750000E+01 0.  1.
<mgrwt>
<rscale>  0 0.14905353E+02</rscale>
<asrwt>0</asrwt>
<pdfrwt beam="1">  1        2 0.99807160E+00 0.14905353E+02</pdfrwt>
<pdfrwt beam="2">  1       -2 0.98113148E+00 0.14905353E+02</pdfrwt>
<totfact> 0.61862073E-13</totfact>
</mgrwt>
</event>
<event>
 4    1 -0.5021037E-019  0.1497061E+02  0.7818608E-02  0.1868967E+00
         -2   -1    0    0    0  501 -0.00000000000E+00  0.00000000000E+00  0.11971598107E+03  0.11971598110E+03  0.25500000000E-02 0. -1.
          2   -1    0    0  501    0  0.00000000000E+00 -0.00000000000E+00 -0.46801937396E+00  0.46802632074E+00  0.25500000000E-02 0.  1.
         31    1    1    2    0    0 -0.18386747310E+00  0.18745186038E+00  0.65311666929E+02  0.65735391598E+02  0.74470750000E+01 0. -1.
        -31    1    1    2    0    0  0.18386747310E+00 -0.18745186038E+00  0.53936294769E+02  0.54448615822E+02  0.74470750000E+01 0.  1.
<mgrwt>
<rscale>  0 0.14970614E+02</rscale>
<asrwt>0</asrwt>
<pdfrwt beam="2">  1        2 0.99403044E+00 0.14970614E+02</pdfrwt>
<pdfrwt beam="1">  1       -2 0.99376546E+00 0.14970614E+02</pdfrwt>
<totfact>-0.12517631E-13</totfact>
</mgrwt>
</event>
<event>
 4    1 -0.5021037E-019  0.1496133E+02  0.7818608E-02  0.1869251E+00
          2   -1    0    0  501    0  0.00000000000E+00  0.00000000000E+00  0.11949017088E+03  0.11949017091E+03  0.25500000000E-02 0. -1.
         -2   -1    0    0    0  501 -0.00000000000E+00 -0.00000000000E+00 -0.46832219330E+00  0.46832913558E+00  0.25500000000E-02 0.  1.
         31    1    1    2    0    0 -0.49719320137E+00  0.46718678964E+00  0.61030656973E+02  0.61487116383E+02  0.74470750000E+01 0. -1.
        -31    1    1    2    0    0  0.49719320137E+00 -0.46718678964E+00  0.57991191717E+02  0.58471383662E+02  0.74470750000E+01 0.  1.
<mgrwt>
<rscale>  0 0.14961326E+02</rscale>
<asrwt>0</asrwt>
<pdfrwt beam="1">  1        2 0.99190081E+00 0.14961326E+02</pdfrwt>
<pdfrwt beam="2">  1       -2 0.99466376E+00 0.14961326E+02</pdfrwt>
<totfact>-0.15280968E-13</totfact>
</mgrwt>
</event>
<event>
 4    1 -0.5021037E-019  0.1491613E+02  0.7818608E-02  0.1870639E+00
          2   -1    0    0  501    0  0.00000000000E+00  0.00000000000E+00  0.11847738670E+03  0.11847738673E+03  0.25500000000E-02 0. -1.
         -2   -1    0    0    0  501 -0.00000000000E+00 -0.00000000000E+00 -0.46947603913E+00  0.46948296436E+00  0.25500000000E-02 0.  1.
         31    1    1    2    0    0  0.16598656761E+00  0.36503393226E+00  0.58568612052E+02  0.59041528140E+02  0.74470750000E+01 0.  1.
        -31    1    1    2    0    0 -0.16598656761E+00 -0.36503393226E+00  0.59439298612E+02  0.59905341555E+02  0.74470750000E+01 0.  1.
<mgrwt>
<rscale>  0 0.14916127E+02</rscale>
<asrwt>0</asrwt>
<pdfrwt beam="1">  1        2 0.98353594E+00 0.14916127E+02</pdfrwt>
<pdfrwt beam="2">  1       -2 0.99707142E+00 0.14916127E+02</pdfrwt>
<totfact>-0.34877735E-13</totfact>
</mgrwt>
</event>
<event>
 4    1 -0.5021037E-019  0.1491210E+02  0.7818608E-02  0.1870763E+00
          2   -1    0    0  501    0  0.00000000000E+00  0.00000000000E+00  0.11904911627E+03  0.11904911630E+03  0.25500000000E-02 0.  1.
         -2   -1    0    0    0  501 -0.00000000000E+00 -0.00000000000E+00 -0.46696910289E+00  0.46697606529E+00  0.25500000000E-02 0. -1.
         31    1    1    2    0    0 -0.25756313894E+00  0.25937903776E+00  0.59198156911E+02  0.59665855595E+02  0.74470750000E+01 0.  1.
        -31    1    1    2    0    0  0.25756313894E+00 -0.25937903776E+00  0.59383990256E+02  0.59850236767E+02  0.74470750000E+01 0. -1.
<mgrwt>
<rscale>  0 0.14912099E+02</rscale>
<asrwt>0</asrwt>
<pdfrwt beam="1">  1        2 0.98824267E+00 0.14912099E+02</pdfrwt>
<pdfrwt beam="2">  1       -2 0.99178688E+00 0.14912099E+02</pdfrwt>
<totfact>-0.13067912E-13</totfact>
</mgrwt>
</event>
<event>
 4    1 -0.5021037E-019  0.1498593E+02  0.7818608E-02  0.1868498E+00
          2   -1    0    0  501    0  0.00000000000E+00  0.00000000000E+00  0.11996159125E+03  0.11996159128E+03  0.25500000000E-02 0.  1.
         -2   -1    0    0    0  501 -0.00000000000E+00 -0.00000000000E+00 -0.46801704292E+00  0.46802398973E+00  0.25500000000E-02 0. -1.
         31    1    1    2    0    0  0.44366381562E+00  0.21144167821E+00  0.65101670048E+02  0.65528069667E+02  0.74470750000E+01 0.  1.
        -31    1    1    2    0    0 -0.44366381562E+00 -0.21144167821E+00  0.54391904160E+02  0.54901545600E+02  0.74470750000E+01 0. -1.
<mgrwt>
<rscale>  0 0.14985925E+02</rscale>
<asrwt>0</asrwt>
<pdfrwt beam="1">  1        2 0.99579632E+00 0.14985925E+02</pdfrwt>
<pdfrwt beam="2">  1       -2 0.99403344E+00 0.14985925E+02</pdfrwt>
<totfact>-0.10649268E-13</totfact>
</mgrwt>
</event>
<event>
 4    1 -0.5021037E-019  0.1496150E+02  0.7818608E-02  0.1869245E+00
          2   -1    0    0  501    0  0.00000000000E+00  0.00000000000E+00  0.11934321873E+03  0.11934321875E+03  0.25500000000E-02 0. -1.
         -2   -1    0    0    0  501 -0.00000000000E+00 -0.00000000000E+00 -0.46891008052E+00  0.46891701410E+00  0.25500000000E-02 0.  1.
         31    1    1    2    0    0  0.11308548381E+00  0.23161286841E+00  0.64726675378E+02  0.65154185317E+02  0.74470750000E+01 0. -1.
        -31    1    1    2    0    0 -0.11308548381E+00 -0.23161286841E+00  0.54147633268E+02  0.54657950450E+02  0.74470750000E+01 0.  1.
<mgrwt>
<rscale>  0 0.14961505E+02</rscale>
<asrwt>0</asrwt>
<pdfrwt beam="1">  1        2 0.99069057E+00 0.14961505E+02</pdfrwt>
<pdfrwt beam="2">  1       -2 0.99590268E+00 0.14961505E+02</pdfrwt>
<totfact>-0.15902436E-13</totfact>
</mgrwt>
</event>
<event>
 4    1  0.5021037E-019  0.1491313E+02  0.7818608E-02  0.1870731E+00
          2   -1    0    0  501    0  0.00000000000E+00  0.00000000000E+00  0.12018466074E+03  0.12018466077E+03  0.25500000000E-02 0. -1.
         -2   -1    0    0    0  501 -0.00000000000E+00 -0.00000000000E+00 -0.46262103446E+00  0.46262806229E+00  0.25500000000E-02 0.  1.
         31    1    1    2    0    0  0.22959472681E+00  0.29435732480E+00  0.59491029221E+02  0.59956491256E+02  0.74470750000E+01 0.  1.
        -31    1    1    2    0    0 -0.22959472681E+00 -0.29435732480E+00  0.60231010487E+02  0.60690797575E+02  0.74470750000E+01 0.  1.
<mgrwt>
<rscale>  0 0.14913132E+02</rscale>
<asrwt>0</asrwt>
<pdfrwt beam="1">  1        2 0.99759620E+00 0.14913132E+02</pdfrwt>
<pdfrwt beam="2">  1       -2 0.98262392E+00 0.14913132E+02</pdfrwt>
<totfact> 0.54524502E-13</totfact>
</mgrwt>
</event>
<event>
 4    1  0.5021037E-019  0.1492062E+02  0.7818608E-02  0.1870501E+00
         -2   -1    0    0    0  501 -0.00000000000E+00  0.00000000000E+00  0.11839716566E+03  0.11839716569E+03  0.25500000000E-02 0.  1.
          2   -1    0    0  501    0  0.00000000000E+00 -0.00000000000E+00 -0.47007694927E+00  0.47008386564E+00  0.25500000000E-02 0. -1.
         31    1    1    2    0    0 -0.65938018678E-01 -0.24444142167E+00  0.56056366663E+02  0.56549440926E+02  0.74470750000E+01 0. -1.
        -31    1    1    2    0    0  0.65938018678E-01  0.24444142167E+00  0.61870722048E+02  0.62317808628E+02  0.74470750000E+01 0.  1.
<mgrwt>
<rscale>  0 0.14920615E+02</rscale>
<asrwt>0</asrwt>
<pdfrwt beam="2">  1        2 0.99833989E+00 0.14920615E+02</pdfrwt>
<pdfrwt beam="1">  1       -2 0.98287759E+00 0.14920615E+02</pdfrwt>
<totfact> 0.38719363E-13</totfact>
</mgrwt>
</event>
<event>
 4    1 -0.5021037E-019  0.1492641E+02  0.7818608E-02  0.1870323E+00
         -2   -1    0    0    0  501 -0.00000000000E+00  0.00000000000E+00  0.12008104504E+03  0.12008104507E+03  0.25500000000E-02 0.  1.
          2   -1    0    0  501    0  0.00000000000E+00 -0.00000000000E+00 -0.46384479498E+00  0.46385180428E+00  0.25500000000E-02 0. -1.
         31    1    1    2    0    0  0.24107532551E+00  0.47072370919E-01  0.56381002637E+02  0.56871229260E+02  0.74470750000E+01 0. -1.
        -31    1    1    2    0    0 -0.24107532551E+00 -0.47072370919E-01  0.63236197608E+02  0.63673667612E+02  0.74470750000E+01 0.  1.
<mgrwt>
<rscale>  0 0.14926405E+02</rscale>
<asrwt>0</asrwt>
<pdfrwt beam="2">  1        2 0.98520993E+00 0.14926405E+02</pdfrwt>
<pdfrwt beam="1">  1       -2 0.99674955E+00 0.14926405E+02</pdfrwt>
<totfact>-0.28260591E-13</totfact>
</mgrwt>
</event>
<event>
 4    1  0.5021037E-019  0.1492500E+02  0.7818608E-02  0.1870366E+00
          2   -1    0    0  501    0  0.00000000000E+00  0.00000000000E+00  0.12007205764E+03  0.12007205766E+03  0.25500000000E-02 0. -1.
         -2   -1    0    0    0  501 -0.00000000000E+00 -0.00000000000E+00 -0.46379217657E+00  0.46379918666E+00  0.25500000000E-02 0.  1.
         31    1    1    2    0    0 -0.15933375181E+00  0.42998400179E+00  0.60937827087E+02  0.61392898365E+02  0.74470750000E+01 0. -1.
        -31    1    1    2    0    0  0.15933375181E+00 -0.42998400179E+00  0.58670438373E+02  0.59142958486E+02  0.74470750000E+01 0.  1.
<mgrwt>
<rscale>  0 0.14925000E+02</rscale>
<asrwt>0</asrwt>
<pdfrwt beam="1">  1        2 0.99667480E+00 0.14925000E+02</pdfrwt>
<pdfrwt beam="2">  1       -2 0.98509832E+00 0.14925000E+02</pdfrwt>
<totfact> 0.37243676E-13</totfact>
</mgrwt>
</event>
<event>
 4    1  0.5021037E-019  0.1491317E+02  0.7818608E-02  0.1870730E+00
         -2   -1    0    0    0  501 -0.00000000000E+00  0.00000000000E+00  0.11819302981E+03  0.11819302983E+03  0.25500000000E-02 0.  1.
          2   -1    0    0  501    0  0.00000000000E+00 -0.00000000000E+00 -0.47041919929E+00  0.47042611063E+00  0.25500000000E-02 0. -1.
         31    1    1    2    0    0 -0.36683065535E+00  0.80872964699E-01  0.59064311458E+02  0.59533124554E+02  0.74470750000E+01 0.  1.
        -31    1    1    2    0    0  0.36683065535E+00 -0.80872964699E-01  0.58658299150E+02  0.59130331391E+02  0.74470750000E+01 0. -1.
<mgrwt>
<rscale>  0 0.14913173E+02</rscale>
<asrwt>0</asrwt>
<pdfrwt beam="2">  1        2 0.99905704E+00 0.14913173E+02</pdfrwt>
<pdfrwt beam="1">  1       -2 0.98119248E+00 0.14913173E+02</pdfrwt>
<totfact> 0.33362981E-13</totfact>
</mgrwt>
</event>
<event>
 4    1  0.5021037E-019  0.1492806E+02  0.7818608E-02  0.1870272E+00
         -2   -1    0    0    0  501 -0.00000000000E+00  0.00000000000E+00  0.11862989644E+03  0.11862989647E+03  0.25500000000E-02 0. -1.
          2   -1    0    0  501    0  0.00000000000E+00 -0.00000000000E+00 -0.46962321191E+00  0.46963013496E+00  0.25500000000E-02 0.  1.
         31    1    1    2    0    0  0.38344198275E+00  0.19490781101E+00  0.61157910907E+02  0.61611151664E+02  0.74470750000E+01 0.  1.
        -31    1    1    2    0    0 -0.38344198275E+00 -0.19490781101E+00  0.57002362325E+02  0.57488374942E+02  0.74470750000E+01 0.  1.
<mgrwt>
<rscale>  0 0.14928063E+02</rscale>
<asrwt>0</asrwt>
<pdfrwt beam="2">  1        2 0.99738781E+00 0.14928063E+02</pdfrwt>
<pdfrwt beam="1">  1       -2 0.98479822E+00 0.14928063E+02</pdfrwt>
<totfact> 0.34390979E-13</totfact>
</mgrwt>
</event>
<event>
 4    1  0.5021037E-019  0.1493216E+02  0.7818608E-02  0.1870146E+00
          2   -1    0    0  501    0  0.00000000000E+00  0.00000000000E+00  0.12001621613E+03  0.12001621616E+03  0.25500000000E-02 0. -1.
         -2   -1    0    0    0  501 -0.00000000000E+00 -0.00000000000E+00 -0.46445325706E+00  0.46446025717E+00  0.25500000000E-02 0.  1.
         31    1    1    2    0    0 -0.48377831685E-02 -0.51024682976E+00  0.58551043627E+02  0.59024943973E+02  0.74470750000E+01 0.  1.
        -31    1    1    2    0    0  0.48377831685E-02  0.51024682976E+00  0.61000719249E+02  0.61455732444E+02  0.74470750000E+01 0. -1.
<mgrwt>
<rscale>  0 0.14932159E+02</rscale>
<asrwt>0</asrwt>
<pdfrwt beam="1">  1        2 0.99621853E+00 0.14932159E+02</pdfrwt>
<pdfrwt beam="2">  1       -2 0.98649526E+00 0.14932159E+02</pdfrwt>
<totfact> 0.25643092E-13</totfact>
</mgrwt>
</event>
<event>
 4    1 -0.5021037E-019  0.1492293E+02  0.7818608E-02  0.1870429E+00
         -2   -1    0    0    0  501 -0.00000000000E+00  0.00000000000E+00  0.12032801745E+03  0.12032801748E+03  0.25500000000E-02 0.  1.
          2   -1    0    0  501    0  0.00000000000E+00 -0.00000000000E+00 -0.46267737575E+00  0.46268440273E+00  0.25500000000E-02 0. -1.
         31    1    1    2    0    0  0.37127759394E-01  0.33566391816E+00  0.62498736758E+02  0.62941759358E+02  0.74470750000E+01 0.  1.
        -31    1    1    2    0    0 -0.37127759394E-01 -0.33566391816E+00  0.57366603320E+02  0.57848942525E+02  0.74470750000E+01 0. -1.
<mgrwt>
<rscale>  0 0.14922932E+02</rscale>
<asrwt>0</asrwt>
<pdfrwt beam="2">  1        2 0.98274762E+00 0.14922932E+02</pdfrwt>
<pdfrwt beam="1">  1       -2 0.99878204E+00 0.14922932E+02</pdfrwt>
<totfact>-0.19643800E-13</totfact>
</mgrwt>
</event>
<event>
 4    1  0.5021037E-019  0.1492347E+02  0.7818608E-02  0.1870413E+00
          2   -1    0    0  501    0  0.00000000000E+00  0.00000000000E+00  0.12026597837E+03  0.12026597839E+03  0.25500000000E-02 0.  1.
         -2   -1    0    0    0  501 -0.00000000000E+00 -0.00000000000E+00 -0.46294960517E+00  0.46295662801E+00  0.25500000000E-02 0. -1.
         31    1    1    2    0    0  0.33605630139E+00  0.32498475553E+00  0.59951237424E+02  0.60413809213E+02  0.74470750000E+01 0. -1.
        -31    1    1    2    0    0 -0.33605630139E+00 -0.32498475553E+00  0.59851791338E+02  0.60315125809E+02  0.74470750000E+01 0.  1.
<mgrwt>
<rscale>  0 0.14923473E+02</rscale>
<asrwt>0</asrwt>
<pdfrwt beam="1">  1        2 0.99827130E+00 0.14923473E+02</pdfrwt>
<pdfrwt beam="2">  1       -2 0.98332168E+00 0.14923473E+02</pdfrwt>
<totfact> 0.36254003E-13</totfact>
</mgrwt>
</event>
<event>
 4    1 -0.5021037E-019  0.1501050E+02  0.7818608E-02  0.1867748E+00
         -2   -1    0    0    0  501 -0.00000000000E+00  0.00000000000E+00  0.11970447920E+03  0.11970447923E+03  0.25500000000E-02 0. -1.
          2   -1    0    0  501    0  0.00000000000E+00 -0.00000000000E+00 -0.47056212873E+00  0.47056903797E+00  0.25500000000E-02 0.  1.
         31    1    1    2    0    0 -0.91568134726E+00  0.40761163137E-01  0.58236023203E+02  0.58717403369E+02  0.74470750000E+01 0.  1.
        -31    1    1    2    0    0  0.91568134726E+00 -0.40761163137E-01  0.60997893870E+02  0.61457644898E+02  0.74470750000E+01 0.  1.
<mgrwt>
<rscale>  0 0.15010505E+02</rscale>
<asrwt>0</asrwt>
<pdfrwt beam="2">  1        2 0.99940942E+00 0.15010505E+02</pdfrwt>
<pdfrwt beam="1">  1       -2 0.99369138E+00 0.15010505E+02</pdfrwt>
<totfact>-0.21567994E-14</totfact>
</mgrwt>
</event>
<event>
 4    1 -0.5021037E-019  0.1491340E+02  0.7818608E-02  0.1870723E+00
          2   -1    0    0  501    0  0.00000000000E+00  0.00000000000E+00  0.11812064857E+03  0.11812064860E+03  0.25500000000E-02 0.  1.
         -2   -1    0    0    0  501 -0.00000000000E+00 -0.00000000000E+00 -0.47072198739E+00  0.47072889428E+00  0.25500000000E-02 0. -1.
         31    1    1    2    0    0  0.20973923362E+00  0.30307445240E+00  0.58130498068E+02  0.58606736612E+02  0.74470750000E+01 0. -1.
        -31    1    1    2    0    0 -0.20973923362E+00 -0.30307445240E+00  0.59519428519E+02  0.59984640884E+02  0.74470750000E+01 0.  1.
<mgrwt>
<rscale>  0 0.14913403E+02</rscale>
<asrwt>0</asrwt>
<pdfrwt beam="1">  1        2 0.98059648E+00 0.14913403E+02</pdfrwt>
<pdfrwt beam="2">  1       -2 0.99969510E+00 0.14913403E+02</pdfrwt>
<totfact>-0.75904730E-14</totfact>
</mgrwt>
</event>
<event>
 4    1  0.5021037E-019  0.1492940E+02  0.7818608E-02  0.1870231E+00
         -2   -1    0    0    0  501 -0.00000000000E+00  0.00000000000E+00  0.11883799345E+03  0.11883799348E+03  0.25500000000E-02 0.  1.
          2   -1    0    0  501    0  0.00000000000E+00 -0.00000000000E+00 -0.46888475789E+00  0.46889169184E+00  0.25500000000E-02 0. -1.
         31    1    1    2    0    0 -0.45963183027E+00  0.17342134266E+00  0.58013421604E+02  0.58491515185E+02  0.74470750000E+01 0.  1.
        -31    1    1    2    0    0  0.45963183027E+00 -0.17342134266E+00  0.60355687092E+02  0.60815369988E+02  0.74470750000E+01 0. -1.
<mgrwt>
<rscale>  0 0.14929399E+02</rscale>
<asrwt>0</asrwt>
<pdfrwt beam="2">  1        2 0.99583254E+00 0.14929399E+02</pdfrwt>
<pdfrwt beam="1">  1       -2 0.98651280E+00 0.14929399E+02</pdfrwt>
<totfact> 0.26969114E-13</totfact>
</mgrwt>
</event>
<event>
 4    1 -0.5021037E-019  0.1495420E+02  0.7818608E-02  0.1869469E+00
         -2   -1    0    0    0  501 -0.00000000000E+00  0.00000000000E+00  0.11996523137E+03  0.11996523140E+03  0.25500000000E-02 0. -1.
          2   -1    0    0  501    0  0.00000000000E+00 -0.00000000000E+00 -0.46602336853E+00  0.46603034506E+00  0.25500000000E-02 0.  1.
         31    1    1    2    0    0  0.56533690395E-01  0.42401629866E+00  0.63896183070E+02  0.64330118319E+02  0.74470750000E+01 0. -1.
        -31    1    1    2    0    0 -0.56533690395E-01 -0.42401629866E+00  0.55603024935E+02  0.56101143427E+02  0.74470750000E+01 0. -1.
<mgrwt>
<rscale>  0 0.14954200E+02</rscale>
<asrwt>0</asrwt>
<pdfrwt beam="2">  1        2 0.98981558E+00 0.14954200E+02</pdfrwt>
<pdfrwt beam="1">  1       -2 0.99580993E+00 0.14954200E+02</pdfrwt>
<totfact>-0.17382617E-13</totfact>
</mgrwt>
</event>
<event>
 4    1  0.5021037E-019  0.1491879E+02  0.7818608E-02  0.1870557E+00
          2   -1    0    0  501    0  0.00000000000E+00  0.00000000000E+00  0.11964417992E+03  0.11964417994E+03  0.25500000000E-02 0. -1.
         -2   -1    0    0    0  501 -0.00000000000E+00 -0.00000000000E+00 -0.46506361641E+00  0.46507060733E+00  0.25500000000E-02 0.  1.
         31    1    1    2    0    0  0.38319153543E+00  0.13631913220E+00  0.60676626916E+02  0.61133275706E+02  0.74470750000E+01 0.  1.
        -31    1    1    2    0    0 -0.38319153543E+00 -0.13631913220E+00  0.58502489385E+02  0.58975974845E+02  0.74470750000E+01 0. -1.
<mgrwt>
<rscale>  0 0.14918790E+02</rscale>
<asrwt>0</asrwt>
<pdfrwt beam="1">  1        2 0.99314732E+00 0.14918790E+02</pdfrwt>
<pdfrwt beam="2">  1       -2 0.98777478E+00 0.14918790E+02</pdfrwt>
<totfact> 0.19998373E-13</totfact>
</mgrwt>
</event>
<event>
 4    1 -0.5021037E-019  0.1503214E+02  0.7818608E-02  0.1867089E+00
         -2   -1    0    0    0  501 -0.00000000000E+00  0.00000000000E+00  0.12007301847E+03  0.12007301850E+03  0.25500000000E-02 0. -1.
          2   -1    0    0  501    0  0.00000000000E+00 -0.00000000000E+00 -0.47047090874E+00  0.47047781932E+00  0.25500000000E-02 0.  1.
         31    1    1    2    0    0 -0.89347060896E+00  0.24672090463E+00  0.63138522598E+02  0.63582946793E+02  0.74470750000E+01 0. -1.
        -31    1    1    2    0    0  0.89347060896E+00 -0.24672090463E+00  0.56464024967E+02  0.56960549527E+02  0.74470750000E+01 0. -1.
<mgrwt>
<rscale>  0 0.15032136E+02</rscale>
<asrwt>0</asrwt>
<pdfrwt beam="2">  1        2 0.99922845E+00 0.15032136E+02</pdfrwt>
<pdfrwt beam="1">  1       -2 0.99673797E+00 0.15032136E+02</pdfrwt>
<totfact>-0.24437013E-14</totfact>
</mgrwt>
</event>
<event>
 4    1 -0.5021037E-019  0.1491398E+02  0.7818608E-02  0.1870705E+00
          2   -1    0    0  501    0  0.00000000000E+00  0.00000000000E+00  0.11842715076E+03  0.11842715079E+03  0.25500000000E-02 0. -1.
         -2   -1    0    0    0  501 -0.00000000000E+00 -0.00000000000E+00 -0.46953972015E+00  0.46954664443E+00  0.25500000000E-02 0.  1.
         31    1    1    2    0    0  0.37052625165E+00 -0.55355971944E-01  0.59663876544E+02  0.60128008817E+02  0.74470750000E+01 0.  1.
        -31    1    1    2    0    0 -0.37052625165E+00  0.55355971944E-01  0.58293734500E+02  0.58768688619E+02  0.74470750000E+01 0.  1.
<mgrwt>
<rscale>  0 0.14913975E+02</rscale>
<asrwt>0</asrwt>
<pdfrwt beam="1">  1        2 0.98312108E+00 0.14913975E+02</pdfrwt>
<pdfrwt beam="2">  1       -2 0.99720446E+00 0.14913975E+02</pdfrwt>
<totfact>-0.36250946E-13</totfact>
</mgrwt>
</event>
<event>
 4    1 -0.5021037E-019  0.1491265E+02  0.7818608E-02  0.1870746E+00
         -2   -1    0    0    0  501 -0.00000000000E+00  0.00000000000E+00  0.12000970342E+03  0.12000970345E+03  0.25500000000E-02 0.  1.
          2   -1    0    0  501    0  0.00000000000E+00 -0.00000000000E+00 -0.46326567925E+00  0.46327269730E+00  0.25500000000E-02 0. -1.
         31    1    1    2    0    0 -0.18999091206E+00  0.29234329507E+00  0.58741374537E+02  0.59212579489E+02  0.74470750000E+01 0. -1.
        -31    1    1    2    0    0  0.18999091206E+00 -0.29234329507E+00  0.60805063202E+02  0.61260396654E+02  0.74470750000E+01 0.  1.
<mgrwt>
<rscale>  0 0.14912652E+02</rscale>
<asrwt>0</asrwt>
<pdfrwt beam="2">  1        2 0.98398238E+00 0.14912652E+02</pdfrwt>
<pdfrwt beam="1">  1       -2 0.99615486E+00 0.14912652E+02</pdfrwt>
<totfact>-0.37844941E-13</totfact>
</mgrwt>
</event>
<event>
 4    1 -0.5021037E-019  0.1492230E+02  0.7818608E-02  0.1870449E+00
          2   -1    0    0  501    0  0.00000000000E+00  0.00000000000E+00  0.11875959802E+03  0.11875959805E+03  0.25500000000E-02 0.  1.
         -2   -1    0    0    0  501 -0.00000000000E+00 -0.00000000000E+00 -0.46874808362E+00  0.46875501959E+00  0.25500000000E-02 0. -1.
         31    1    1    2    0    0  0.12179209417E+00 -0.91483366892E-01  0.55693800668E+02  0.56189692662E+02  0.74470750000E+01 0. -1.
        -31    1    1    2    0    0 -0.12179209417E+00  0.91483366892E-01  0.62597049270E+02  0.63038660407E+02  0.74470750000E+01 0.  1.
<mgrwt>
<rscale>  0 0.14922299E+02</rscale>
<asrwt>0</asrwt>
<pdfrwt beam="1">  1        2 0.98586344E+00 0.14922299E+02</pdfrwt>
<pdfrwt beam="2">  1       -2 0.99554083E+00 0.14922299E+02</pdfrwt>
<totfact>-0.29556328E-13</totfact>
</mgrwt>
</event>
<event>
 4    1 -0.5021037E-019  0.1494334E+02  0.7818608E-02  0.1869803E+00
         -2   -1    0    0    0  501 -0.00000000000E+00  0.00000000000E+00  0.11939263550E+03  0.11939263553E+03  0.25500000000E-02 0. -1.
          2   -1    0    0  501    0  0.00000000000E+00 -0.00000000000E+00 -0.46757832120E+00  0.46758527453E+00  0.25500000000E-02 0.  1.
         31    1    1    2    0    0 -0.41755764867E-01 -0.43987937570E+00  0.56139257376E+02  0.56632767743E+02  0.74470750000E+01 0. -1.
        -31    1    1    2    0    0  0.41755764867E-01  0.43987937570E+00  0.62785799803E+02  0.63227453059E+02  0.74470750000E+01 0. -1.
<mgrwt>
<rscale>  0 0.14943336E+02</rscale>
<asrwt>0</asrwt>
<pdfrwt beam="2">  1        2 0.99308688E+00 0.14943336E+02</pdfrwt>
<pdfrwt beam="1">  1       -2 0.99108817E+00 0.14943336E+02</pdfrwt>
<totfact>-0.53449815E-14</totfact>
</mgrwt>
</event>
<event>
 4    1  0.5021037E-019  0.1494635E+02  0.7818608E-02  0.1869710E+00
          2   -1    0    0  501    0  0.00000000000E+00  0.00000000000E+00  0.12008101343E+03  0.12008101346E+03  0.25500000000E-02 0.  1.
         -2   -1    0    0    0  501 -0.00000000000E+00 -0.00000000000E+00 -0.46508520160E+00  0.46509219220E+00  0.25500000000E-02 0. -1.
         31    1    1    2    0    0  0.48283392221E+00  0.31742554258E+00  0.61708212304E+02  0.62158638011E+02  0.74470750000E+01 0. -1.
        -31    1    1    2    0    0 -0.48283392221E+00 -0.31742554258E+00  0.57907715923E+02  0.58387467637E+02  0.74470750000E+01 0. -1.
<mgrwt>
<rscale>  0 0.14946347E+02</rscale>
<asrwt>0</asrwt>
<pdfrwt beam="1">  1        2 0.99675954E+00 0.14946347E+02</pdfrwt>
<pdfrwt beam="2">  1       -2 0.98783436E+00 0.14946347E+02</pdfrwt>
<totfact> 0.12886417E-13</totfact>
</mgrwt>
</event>
<event>
 4    1 -0.5021037E-019  0.1498923E+02  0.7818608E-02  0.1868397E+00
          2   -1    0    0  501    0  0.00000000000E+00  0.00000000000E+00  0.11997405058E+03  0.11997405061E+03  0.25500000000E-02 0.  1.
         -2   -1    0    0    0  501 -0.00000000000E+00 -0.00000000000E+00 -0.46817501083E+00  0.46818195530E+00  0.25500000000E-02 0. -1.
         31    1    1    2    0    0 -0.27433724423E+00 -0.62650083347E+00  0.55795367082E+02  0.56294313017E+02  0.74470750000E+01 0. -1.
        -31    1    1    2    0    0  0.27433724423E+00  0.62650083347E+00  0.63710508490E+02  0.64147919548E+02  0.74470750000E+01 0. -1.
<mgrwt>
<rscale>  0 0.14989232E+02</rscale>
<asrwt>0</asrwt>
<pdfrwt beam="1">  1        2 0.99590065E+00 0.14989232E+02</pdfrwt>
<pdfrwt beam="2">  1       -2 0.99436804E+00 0.14989232E+02</pdfrwt>
<totfact>-0.10666582E-13</totfact>
</mgrwt>
</event>
<event>
 4    1 -0.5021037E-019  0.1491765E+02  0.7818608E-02  0.1870592E+00
         -2   -1    0    0    0  501 -0.00000000000E+00  0.00000000000E+00  0.12025856821E+03  0.12025856824E+03  0.25500000000E-02 0. -1.
          2   -1    0    0  501    0  0.00000000000E+00 -0.00000000000E+00 -0.46261711585E+00  0.46262414374E+00  0.25500000000E-02 0.  1.
         31    1    1    2    0    0 -0.16260277175E-01 -0.30596935000E+00  0.57590687103E+02  0.58070991456E+02  0.74470750000E+01 0. -1.
        -31    1    1    2    0    0  0.16260277175E-01  0.30596935000E+00  0.62205263989E+02  0.62650200923E+02  0.74470750000E+01 0. -1.
<mgrwt>
<rscale>  0 0.14917654E+02</rscale>
<asrwt>0</asrwt>
<pdfrwt beam="2">  1        2 0.98261794E+00 0.14917654E+02</pdfrwt>
<pdfrwt beam="1">  1       -2 0.99820728E+00 0.14917654E+02</pdfrwt>
<totfact>-0.28067758E-13</totfact>
</mgrwt>
</event>
<event>
 4    1 -0.5021037E-019  0.1500025E+02  0.7818608E-02  0.1868061E+00
          2   -1    0    0  501    0  0.00000000000E+00  0.00000000000E+00  0.11992877847E+03  0.11992877850E+03  0.25500000000E-02 0. -1.
         -2   -1    0    0    0  501 -0.00000000000E+00 -0.00000000000E+00 -0.46904067677E+00  0.46904760842E+00  0.25500000000E-02 0.  1.
         31    1    1    2    0    0 -0.83134696324E+00 -0.31886347725E+00  0.59629432483E+02  0.60099259197E+02  0.74470750000E+01 0. -1.
        -31    1    1    2    0    0  0.83134696324E+00  0.31886347725E+00  0.59830305312E+02  0.60298566911E+02  0.74470750000E+01 0. -1.
<mgrwt>
<rscale>  0 0.15000253E+02</rscale>
<asrwt>0</asrwt>
<pdfrwt beam="1">  1        2 0.99553346E+00 0.15000253E+02</pdfrwt>
<pdfrwt beam="2">  1       -2 0.99619800E+00 0.15000253E+02</pdfrwt>
<totfact>-0.10303497E-13</totfact>
</mgrwt>
</event>
<event>
 4    1 -0.5021037E-019  0.1491415E+02  0.7818608E-02  0.1870700E+00
          2   -1    0    0  501    0  0.00000000000E+00  0.00000000000E+00  0.11870617564E+03  0.11870617567E+03  0.25500000000E-02 0.  1.
         -2   -1    0    0    0  501 -0.00000000000E+00 -0.00000000000E+00 -0.46844681891E+00  0.46845375935E+00  0.25500000000E-02 0. -1.
         31    1    1    2    0    0 -0.22383812130E+00  0.30754948495E+00  0.58593095597E+02  0.59065679272E+02  0.74470750000E+01 0.  1.
        -31    1    1    2    0    0  0.22383812130E+00 -0.30754948495E+00  0.59644633224E+02  0.60108950155E+02  0.74470750000E+01 0. -1.
<mgrwt>
<rscale>  0 0.14914147E+02</rscale>
<asrwt>0</asrwt>
<pdfrwt beam="1">  1        2 0.98541922E+00 0.14914147E+02</pdfrwt>
<pdfrwt beam="2">  1       -2 0.99490176E+00 0.14914147E+02</pdfrwt>
<totfact>-0.32508667E-13</totfact>
</mgrwt>
</event>
<event>
 4    1  0.5021037E-019  0.1489749E+02  0.7818608E-02  0.1871213E+00
          2   -1    0    0  501    0  0.00000000000E+00  0.00000000000E+00  0.11988873476E+03  0.11988873479E+03  0.25500000000E-02 0.  1.
         -2   -1    0    0    0  501 -0.00000000000E+00 -0.00000000000E+00 -0.46279037814E+00  0.46279740341E+00  0.25500000000E-02 0. -1.
         31    1    1    2    0    0  0.68043829745E-01  0.88636046691E-01  0.60611298456E+02  0.61067183600E+02  0.74470750000E+01 0.  1.
        -31    1    1    2    0    0 -0.68043829745E-01 -0.88636046691E-01  0.58814645926E+02  0.59284348590E+02  0.74470750000E+01 0. -1.
<mgrwt>
<rscale>  0 0.14897487E+02</rscale>
<asrwt>0</asrwt>
<pdfrwt beam="1">  1        2 0.99515067E+00 0.14897487E+02</pdfrwt>
<pdfrwt beam="2">  1       -2 0.98297292E+00 0.14897487E+02</pdfrwt>
<totfact> 0.78844215E-13</totfact>
</mgrwt>
</event>
<event>
 4    1 -0.5021037E-019  0.1494637E+02  0.7818608E-02  0.1869709E+00
          2   -1    0    0  501    0  0.00000000000E+00  0.00000000000E+00  0.11962501136E+03  0.11962501139E+03  0.25500000000E-02 0.  1.
         -2   -1    0    0    0  501 -0.00000000000E+00 -0.00000000000E+00 -0.46685947270E+00  0.46686643674E+00  0.25500000000E-02 0. -1.
         31    1    1    2    0    0 -0.22477298979E+00  0.45473094385E+00  0.62501160220E+02  0.62945303701E+02  0.74470750000E+01 0. -1.
        -31    1    1    2    0    0  0.22477298979E+00 -0.45473094385E+00  0.56656991671E+02  0.57146574126E+02  0.74470750000E+01 0. -1.
<mgrwt>
<rscale>  0 0.14946369E+02</rscale>
<asrwt>0</asrwt>
<pdfrwt beam="1">  1        2 0.99300367E+00 0.14946369E+02</pdfrwt>
<pdfrwt beam="2">  1       -2 0.99157359E+00 0.14946369E+02</pdfrwt>
<totfact>-0.76206235E-14</totfact>
</mgrwt>
</event>
<event>
 4    1 -0.5021037E-019  0.1492323E+02  0.7818608E-02  0.1870420E+00
         -2   -1    0    0    0  501 -0.00000000000E+00  0.00000000000E+00  0.12012670580E+03  0.12012670583E+03  0.25500000000E-02 0.  1.
          2   -1    0    0  501    0  0.00000000000E+00 -0.00000000000E+00 -0.46347121722E+00  0.46347823216E+00  0.25500000000E-02 0. -1.
         31    1    1    2    0    0 -0.32972765385E+00  0.32588460287E+00  0.59484240806E+02  0.59950385749E+02  0.74470750000E+01 0.  1.
        -31    1    1    2    0    0  0.32972765385E+00 -0.32588460287E+00  0.60178993780E+02  0.60639798314E+02  0.74470750000E+01 0. -1.
<mgrwt>
<rscale>  0 0.14923230E+02</rscale>
<asrwt>0</asrwt>
<pdfrwt beam="2">  1        2 0.98442095E+00 0.14923230E+02</pdfrwt>
<pdfrwt beam="1">  1       -2 0.99712401E+00 0.14923230E+02</pdfrwt>
<totfact>-0.29727841E-13</totfact>
</mgrwt>
</event>
<event>
 4    1 -0.5021037E-019  0.1495127E+02  0.7818608E-02  0.1869559E+00
          2   -1    0    0  501    0  0.00000000000E+00  0.00000000000E+00  0.11965280565E+03  0.11965280568E+03  0.25500000000E-02 0. -1.
         -2   -1    0    0    0  501 -0.00000000000E+00 -0.00000000000E+00 -0.46705746368E+00  0.46706442477E+00  0.25500000000E-02 0.  1.
         31    1    1    2    0    0  0.58989541249E+00  0.13391900140E+00  0.61566035400E+02  0.62017751909E+02  0.74470750000E+01 0.  1.
        -31    1    1    2    0    0 -0.58989541249E+00 -0.13391900140E+00  0.57619712791E+02  0.58102118198E+02  0.74470750000E+01 0. -1.
<mgrwt>
<rscale>  0 0.14951275E+02</rscale>
<asrwt>0</asrwt>
<pdfrwt beam="1">  1        2 0.99323513E+00 0.14951275E+02</pdfrwt>
<pdfrwt beam="2">  1       -2 0.99199337E+00 0.14951275E+02</pdfrwt>
<totfact>-0.91218004E-14</totfact>
</mgrwt>
</event>
<event>
 4    1 -0.5021037E-019  0.1500567E+02  0.7818608E-02  0.1867895E+00
         -2   -1    0    0    0  501 -0.00000000000E+00  0.00000000000E+00  0.11996713545E+03  0.11996713548E+03  0.25500000000E-02 0.  1.
          2   -1    0    0  501    0  0.00000000000E+00 -0.00000000000E+00 -0.46922965979E+00  0.46923658865E+00  0.25500000000E-02 0. -1.
         31    1    1    2    0    0 -0.30408380692E+00  0.49935644858E+00  0.65377542700E+02  0.65802916648E+02  0.74470750000E+01 0.  1.
        -31    1    1    2    0    0  0.30408380692E+00 -0.49935644858E+00  0.54120363091E+02  0.54633455419E+02  0.74470750000E+01 0. -1.
<mgrwt>
<rscale>  0 0.15005673E+02</rscale>
<asrwt>0</asrwt>
<pdfrwt beam="2">  1        2 0.99659905E+00 0.15005673E+02</pdfrwt>
<pdfrwt beam="1">  1       -2 0.99585219E+00 0.15005673E+02</pdfrwt>
<totfact>-0.91063229E-14</totfact>
</mgrwt>
</event>
<event>
 4    1 -0.5021037E-019  0.1501692E+02  0.7818608E-02  0.1867553E+00
         -2   -1    0    0    0  501 -0.00000000000E+00  0.00000000000E+00  0.12027314081E+03  0.12027314083E+03  0.25500000000E-02 0. -1.
          2   -1    0    0  501    0  0.00000000000E+00 -0.00000000000E+00 -0.46873771212E+00  0.46874464825E+00  0.25500000000E-02 0.  1.
         31    1    1    2    0    0  0.31889336506E+00 -0.35672723054E+00  0.66576711879E+02  0.66993629831E+02  0.74470750000E+01 0. -1.
        -31    1    1    2    0    0 -0.31889336506E+00  0.35672723054E+00  0.53227691215E+02  0.53748255650E+02  0.74470750000E+01 0.  1.
<mgrwt>
<rscale>  0 0.15016921E+02</rscale>
<asrwt>0</asrwt>
<pdfrwt beam="2">  1        2 0.99556814E+00 0.15016921E+02</pdfrwt>
<pdfrwt beam="1">  1       -2 0.99837839E+00 0.15016921E+02</pdfrwt>
<totfact>-0.55895872E-14</totfact>
</mgrwt>
</event>
<event>
 4    1 -0.5021037E-019  0.1492435E+02  0.7818608E-02  0.1870386E+00
          2   -1    0    0  501    0  0.00000000000E+00  0.00000000000E+00  0.11862652292E+03  0.11862652295E+03  0.25500000000E-02 0.  1.
         -2   -1    0    0    0  501 -0.00000000000E+00 -0.00000000000E+00 -0.46940308395E+00  0.46941001025E+00  0.25500000000E-02 0. -1.
         31    1    1    2    0    0  0.26474245705E+00  0.35464491597E+00  0.60444094854E+02  0.60902737134E+02  0.74470750000E+01 0.  1.
        -31    1    1    2    0    0 -0.26474245705E+00 -0.35464491597E+00  0.57713024980E+02  0.58193195822E+02  0.74470750000E+01 0.  1.
<mgrwt>
<rscale>  0 0.14924352E+02</rscale>
<asrwt>0</asrwt>
<pdfrwt beam="1">  1        2 0.98476850E+00 0.14924352E+02</pdfrwt>
<pdfrwt beam="2">  1       -2 0.99692204E+00 0.14924352E+02</pdfrwt>
<totfact>-0.29350148E-13</totfact>
</mgrwt>
</event>
<event>
 4    1  0.5021037E-019  0.1491341E+02  0.7818608E-02  0.1870722E+00
         -2   -1    0    0    0  501 -0.00000000000E+00  0.00000000000E+00  0.11835001384E+03  0.11835001386E+03  0.25500000000E-02 0.  1.
          2   -1    0    0  501    0  0.00000000000E+00 -0.00000000000E+00 -0.46981041020E+00  0.46981733049E+00  0.25500000000E-02 0. -1.
         31    1    1    2    0    0  0.10473161915E+00 -0.18970081777E+00  0.61416387350E+02  0.61866618755E+02  0.74470750000E+01 0.  1.
        -31    1    1    2    0    0 -0.10473161915E+00  0.18970081777E+00  0.56463816076E+02  0.56953212438E+02  0.74470750000E+01 0. -1.
<mgrwt>
<rscale>  0 0.14913414E+02</rscale>
<asrwt>0</asrwt>
<pdfrwt beam="2">  1        2 0.99777450E+00 0.14913414E+02</pdfrwt>
<pdfrwt beam="1">  1       -2 0.98248550E+00 0.14913414E+02</pdfrwt>
<totfact> 0.52999254E-13</totfact>
</mgrwt>
</event>
<event>
 4    1 -0.5021037E-019  0.1493556E+02  0.7818608E-02  0.1870041E+00
         -2   -1    0    0    0  501 -0.00000000000E+00  0.00000000000E+00  0.12004091440E+03  0.12004091443E+03  0.25500000000E-02 0.  1.
          2   -1    0    0  501    0  0.00000000000E+00 -0.00000000000E+00 -0.46456912479E+00  0.46457612316E+00  0.25500000000E-02 0. -1.
         31    1    1    2    0    0 -0.10731092532E+00 -0.51736216330E-01  0.64167498735E+02  0.64598305026E+02  0.74470750000E+01 0.  1.
        -31    1    1    2    0    0  0.10731092532E+00  0.51736216330E-01  0.55408846541E+02  0.55907185525E+02  0.74470750000E+01 0. -1.
<mgrwt>
<rscale>  0 0.14935558E+02</rscale>
<asrwt>0</asrwt>
<pdfrwt beam="2">  1        2 0.98674119E+00 0.14935558E+02</pdfrwt>
<pdfrwt beam="1">  1       -2 0.99642371E+00 0.14935558E+02</pdfrwt>
<totfact>-0.23578784E-13</totfact>
</mgrwt>
</event>
<event>
 4    1  0.5021037E-019  0.1490988E+02  0.7818608E-02  0.1870831E+00
          2   -1    0    0  501    0  0.00000000000E+00  0.00000000000E+00  0.12024488094E+03  0.12024488097E+03  0.25500000000E-02 0.  1.
         -2   -1    0    0    0  501 -0.00000000000E+00 -0.00000000000E+00 -0.46218751190E+00  0.46219454633E+00  0.25500000000E-02 0. -1.
         31    1    1    2    0    0  0.42820210010E-01 -0.67828366591E-01  0.62585529315E+02  0.63027088144E+02  0.74470750000E+01 0.  1.
        -31    1    1    2    0    0 -0.42820210010E-01  0.67828366591E-01  0.57197164115E+02  0.57679987371E+02  0.74470750000E+01 0. -1.
<mgrwt>
<rscale>  0 0.14909877E+02</rscale>
<asrwt>0</asrwt>
<pdfrwt beam="1">  1        2 0.99809055E+00 0.14909877E+02</pdfrwt>
<pdfrwt beam="2">  1       -2 0.98170853E+00 0.14909877E+02</pdfrwt>
<totfact> 0.55043032E-13</totfact>
</mgrwt>
</event>
<event>
 4    1 -0.5021037E-019  0.1496781E+02  0.7818608E-02  0.1869052E+00
          2   -1    0    0  501    0  0.00000000000E+00  0.00000000000E+00  0.11957269540E+03  0.11957269542E+03  0.25500000000E-02 0.  1.
         -2   -1    0    0    0  501 -0.00000000000E+00 -0.00000000000E+00 -0.46840450704E+00  0.46841144811E+00  0.25500000000E-02 0. -1.
         31    1    1    2    0    0  0.32231479270E+00 -0.39179426813E+00  0.63889539367E+02  0.64324097788E+02  0.74470750000E+01 0.  1.
        -31    1    1    2    0    0 -0.32231479270E+00  0.39179426813E+00  0.55214751523E+02  0.55717009085E+02  0.74470750000E+01 0. -1.
<mgrwt>
<rscale>  0 0.14967806E+02</rscale>
<asrwt>0</asrwt>
<pdfrwt beam="1">  1        2 0.99258386E+00 0.14967806E+02</pdfrwt>
<pdfrwt beam="2">  1       -2 0.99484058E+00 0.14967806E+02</pdfrwt>
<totfact>-0.14543254E-13</totfact>
</mgrwt>
</event>
<event>
 4    1  0.5021037E-019  0.1490977E+02  0.7818608E-02  0.1870835E+00
          2   -1    0    0  501    0  0.00000000000E+00  0.00000000000E+00  0.11963892447E+03  0.11963892450E+03  0.25500000000E-02 0. -1.
         -2   -1    0    0    0  501 -0.00000000000E+00 -0.00000000000E+00 -0.46452156892E+00  0.46452856801E+00  0.25500000000E-02 0.  1.
         31    1    1    2    0    0  0.21951424438E+00  0.20471610282E+00  0.60892606285E+02  0.61347033518E+02  0.74470750000E+01 0. -1.
        -31    1    1    2    0    0 -0.21951424438E+00 -0.20471610282E+00  0.58281796616E+02  0.58756419548E+02  0.74470750000E+01 0. -1.
<mgrwt>
<rscale>  0 0.14909766E+02</rscale>
<asrwt>0</asrwt>
<pdfrwt beam="1">  1        2 0.99309938E+00 0.14909766E+02</pdfrwt>
<pdfrwt beam="2">  1       -2 0.98662779E+00 0.14909766E+02</pdfrwt>
<totfact> 0.33419643E-13</totfact>
</mgrwt>
</event>
<event>
 4    1  0.5021037E-019  0.1493340E+02  0.7818608E-02  0.1870108E+00
         -2   -1    0    0    0  501 -0.00000000000E+00  0.00000000000E+00  0.11852381461E+03  0.11852381464E+03  0.25500000000E-02 0. -1.
          2   -1    0    0  501    0  0.00000000000E+00 -0.00000000000E+00 -0.47037955616E+00  0.47038646808E+00  0.25500000000E-02 0.  1.
         31    1    1    2    0    0  0.80304301041E-01 -0.31292017276E+00  0.55568993116E+02  0.56066712850E+02  0.74470750000E+01 0. -1.
        -31    1    1    2    0    0 -0.80304301041E-01  0.31292017276E+00  0.62484441937E+02  0.62927488254E+02  0.74470750000E+01 0. -1.
<mgrwt>
<rscale>  0 0.14933398E+02</rscale>
<asrwt>0</asrwt>
<pdfrwt beam="2">  1        2 0.99898423E+00 0.14933398E+02</pdfrwt>
<pdfrwt beam="1">  1       -2 0.98392731E+00 0.14933398E+02</pdfrwt>
<totfact> 0.19986839E-13</totfact>
</mgrwt>
</event>
<event>
 4    1  0.5021037E-019  0.1490926E+02  0.7818608E-02  0.1870850E+00
          2   -1    0    0  501    0  0.00000000000E+00  0.00000000000E+00  0.12029407651E+03  0.12029407654E+03  0.25500000000E-02 0. -1.
         -2   -1    0    0    0  501 -0.00000000000E+00 -0.00000000000E+00 -0.46196014771E+00  0.46196718560E+00  0.25500000000E-02 0.  1.
         31    1    1    2    0    0 -0.96990717060E-01  0.30102872825E+00  0.59008912026E+02  0.59477816453E+02  0.74470750000E+01 0.  1.
        -31    1    1    2    0    0  0.96990717060E-01 -0.30102872825E+00  0.60823204339E+02  0.61278227272E+02  0.74470750000E+01 0. -1.
<mgrwt>
<rscale>  0 0.14909258E+02</rscale>
<asrwt>0</asrwt>
<pdfrwt beam="1">  1        2 0.99849546E+00 0.14909258E+02</pdfrwt>
<pdfrwt beam="2">  1       -2 0.98122899E+00 0.14909258E+02</pdfrwt>
<totfact> 0.49681105E-13</totfact>
</mgrwt>
</event>
<event>
 4    1  0.5021037E-019  0.1496277E+02  0.7818608E-02  0.1869207E+00
         -2   -1    0    0    0  501 -0.00000000000E+00  0.00000000000E+00  0.11900329594E+03  0.11900329597E+03  0.25500000000E-02 0.  1.
          2   -1    0    0  501    0  0.00000000000E+00 -0.00000000000E+00 -0.47032888953E+00  0.47033580219E+00  0.25500000000E-02 0. -1.
         31    1    1    2    0    0 -0.15622185778E+00  0.10365794289E+00  0.64781303044E+02  0.65208214976E+02  0.74470750000E+01 0.  1.
        -31    1    1    2    0    0  0.15622185778E+00 -0.10365794289E+00  0.53751664005E+02  0.54265416792E+02  0.74470750000E+01 0. -1.
<mgrwt>
<rscale>  0 0.14962767E+02</rscale>
<asrwt>0</asrwt>
<pdfrwt beam="2">  1        2 0.99889296E+00 0.14962767E+02</pdfrwt>
<pdfrwt beam="1">  1       -2 0.98789158E+00 0.14962767E+02</pdfrwt>
<totfact> 0.53968415E-14</totfact>
</mgrwt>
</event>
<event>
 4    1  0.5021037E-019  0.1493093E+02  0.7818608E-02  0.1870183E+00
          2   -1    0    0  501    0  0.00000000000E+00  0.00000000000E+00  0.12017777316E+03  0.12017777319E+03  0.25500000000E-02 0.  1.
         -2   -1    0    0    0  501 -0.00000000000E+00 -0.00000000000E+00 -0.46375279647E+00  0.46375980715E+00  0.25500000000E-02 0. -1.
         31    1    1    2    0    0  0.13511313456E+00 -0.23252065499E+00  0.63488105240E+02  0.63923945079E+02  0.74470750000E+01 0.  1.
        -31    1    1    2    0    0 -0.13511313456E+00  0.23252065499E+00  0.56225915128E+02  0.56717587920E+02  0.74470750000E+01 0. -1.
<mgrwt>
<rscale>  0 0.14930935E+02</rscale>
<asrwt>0</asrwt>
<pdfrwt beam="1">  1        2 0.99754860E+00 0.14930935E+02</pdfrwt>
<pdfrwt beam="2">  1       -2 0.98501833E+00 0.14930935E+02</pdfrwt>
<totfact> 0.30892453E-13</totfact>
</mgrwt>
</event>
<event>
 4    1  0.5021037E-019  0.1493643E+02  0.7818608E-02  0.1870015E+00
         -2   -1    0    0    0  501 -0.00000000000E+00  0.00000000000E+00  0.11917290062E+03  0.11917290065E+03  0.25500000000E-02 0. -1.
          2   -1    0    0  501    0  0.00000000000E+00 -0.00000000000E+00 -0.46800769861E+00  0.46801464556E+00  0.25500000000E-02 0.  1.
         31    1    1    2    0    0  0.40225084551E+00 -0.27898458909E+00  0.61556114897E+02  0.62006885468E+02  0.74470750000E+01 0. -1.
        -31    1    1    2    0    0 -0.40225084551E+00  0.27898458909E+00  0.57148778026E+02  0.57634029826E+02  0.74470750000E+01 0.  1.
<mgrwt>
<rscale>  0 0.14936432E+02</rscale>
<asrwt>0</asrwt>
<pdfrwt beam="2">  1        2 0.99398810E+00 0.14936432E+02</pdfrwt>
<pdfrwt beam="1">  1       -2 0.98927480E+00 0.14936432E+02</pdfrwt>
<totfact> 0.58528129E-14</totfact>
</mgrwt>
</event>
<event>
 4    1  0.5021037E-019  0.1490706E+02  0.7818608E-02  0.1870918E+00
          2   -1    0    0  501    0  0.00000000000E+00  0.00000000000E+00  0.11974062420E+03  0.11974062423E+03  0.25500000000E-02 0.  1.
         -2   -1    0    0    0  501 -0.00000000000E+00 -0.00000000000E+00 -0.46395849056E+00  0.46396549813E+00  0.25500000000E-02 0. -1.
         31    1    1    2    0    0  0.38123840617E-01 -0.29576490851E+00  0.60324720270E+02  0.60783383684E+02  0.74470750000E+01 0.  1.
        -31    1    1    2    0    0 -0.38123840617E-01  0.29576490851E+00  0.58951945440E+02  0.59421206042E+02  0.74470750000E+01 0. -1.
<mgrwt>
<rscale>  0 0.14907059E+02</rscale>
<asrwt>0</asrwt>
<pdfrwt beam="1">  1        2 0.99393565E+00 0.14907059E+02</pdfrwt>
<pdfrwt beam="2">  1       -2 0.98543970E+00 0.14907059E+02</pdfrwt>
<totfact> 0.46916067E-13</totfact>
</mgrwt>
</event>
<event>
 4    1  0.5021037E-019  0.1491562E+02  0.7818608E-02  0.1870654E+00
          2   -1    0    0  501    0  0.00000000000E+00  0.00000000000E+00  0.11983431470E+03  0.11983431473E+03  0.25500000000E-02 0.  1.
         -2   -1    0    0    0  501 -0.00000000000E+00 -0.00000000000E+00 -0.46412854958E+00  0.46413555459E+00  0.25500000000E-02 0. -1.
         31    1    1    2    0    0 -0.25287430331E+00 -0.24387084185E+00  0.58142007569E+02  0.58618046612E+02  0.74470750000E+01 0.  1.
        -31    1    1    2    0    0  0.25287430331E+00  0.24387084185E+00  0.61228178580E+02  0.61680403669E+02  0.74470750000E+01 0. -1.
<mgrwt>
<rscale>  0 0.14915623E+02</rscale>
<asrwt>0</asrwt>
<pdfrwt beam="1">  1        2 0.99471176E+00 0.14915623E+02</pdfrwt>
<pdfrwt beam="2">  1       -2 0.98580248E+00 0.14915623E+02</pdfrwt>
<totfact> 0.39157517E-13</totfact>
</mgrwt>
</event>
<event>
 4    1 -0.5021037E-019  0.1496393E+02  0.7818608E-02  0.1869171E+00
          2   -1    0    0  501    0  0.00000000000E+00  0.00000000000E+00  0.11955209334E+03  0.11955209337E+03  0.25500000000E-02 0.  1.
         -2   -1    0    0    0  501 -0.00000000000E+00 -0.00000000000E+00 -0.46824253811E+00  0.46824948158E+00  0.25500000000E-02 0. -1.
         31    1    1    2    0    0  0.15767193163E+00 -0.60320783198E+00  0.62457600379E+02  0.62903096039E+02  0.74470750000E+01 0. -1.
        -31    1    1    2    0    0 -0.15767193163E+00  0.60320783198E+00  0.56626250426E+02  0.57117246813E+02  0.74470750000E+01 0.  1.
<mgrwt>
<rscale>  0 0.14963929E+02</rscale>
<asrwt>0</asrwt>
<pdfrwt beam="1">  1        2 0.99241217E+00 0.14963929E+02</pdfrwt>
<pdfrwt beam="2">  1       -2 0.99449726E+00 0.14963929E+02</pdfrwt>
<totfact>-0.14689451E-13</totfact>
</mgrwt>
</event>
<event>
 4    1  0.5021037E-019  0.1492159E+02  0.7818608E-02  0.1870471E+00
          2   -1    0    0  501    0  0.00000000000E+00  0.00000000000E+00  0.12029031494E+03  0.12029031497E+03  0.25500000000E-02 0.  1.
         -2   -1    0    0    0  501 -0.00000000000E+00 -0.00000000000E+00 -0.46273884068E+00  0.46274586673E+00  0.25500000000E-02 0. -1.
         31    1    1    2    0    0  0.20048039786E+00  0.33892354248E+00  0.58114426251E+02  0.58590959423E+02  0.74470750000E+01 0. -1.
        -31    1    1    2    0    0 -0.20048039786E+00 -0.33892354248E+00  0.61713149850E+02  0.62162101413E+02  0.74470750000E+01 0.  1.
<mgrwt>
<rscale>  0 0.14921585E+02</rscale>
<asrwt>0</asrwt>
<pdfrwt beam="1">  1        2 0.99847079E+00 0.14921585E+02</pdfrwt>
<pdfrwt beam="2">  1       -2 0.98287649E+00 0.14921585E+02</pdfrwt>
<totfact> 0.36196230E-13</totfact>
</mgrwt>
</event>
<event>
 4    1 -0.5021037E-019  0.1493932E+02  0.7818608E-02  0.1869926E+00
          2   -1    0    0  501    0  0.00000000000E+00  0.00000000000E+00  0.11875817142E+03  0.11875817144E+03  0.25500000000E-02 0. -1.
         -2   -1    0    0    0  501 -0.00000000000E+00 -0.00000000000E+00 -0.46982347307E+00  0.46983039317E+00  0.25500000000E-02 0.  1.
         31    1    1    2    0    0  0.54985472315E+00  0.81690927775E-01  0.60476063588E+02  0.60935393711E+02  0.74470750000E+01 0. -1.
        -31    1    1    2    0    0 -0.54985472315E+00 -0.81690927775E-01  0.57812284354E+02  0.58292608124E+02  0.74470750000E+01 0.  1.
<mgrwt>
<rscale>  0 0.14939316E+02</rscale>
<asrwt>0</asrwt>
<pdfrwt beam="1">  1        2 0.98586054E+00 0.14939316E+02</pdfrwt>
<pdfrwt beam="2">  1       -2 0.99781569E+00 0.14939316E+02</pdfrwt>
<totfact>-0.19296891E-13</totfact>
</mgrwt>
</event>
<event>
 4    1 -0.5021037E-019  0.1491177E+02  0.7818608E-02  0.1870773E+00
         -2   -1    0    0    0  501 -0.00000000000E+00  0.00000000000E+00  0.11942979435E+03  0.11942979438E+03  0.25500000000E-02 0.  1.
          2   -1    0    0  501    0  0.00000000000E+00 -0.00000000000E+00 -0.46546004095E+00  0.46546702592E+00  0.25500000000E-02 0. -1.
         31    1    1    2    0    0 -0.34929633374E+00  0.53626832309E-01  0.60125769440E+02  0.60586235736E+02  0.74470750000E+01 0.  1.
        -31    1    1    2    0    0  0.34929633374E+00 -0.53626832309E-01  0.58838564872E+02  0.59309025671E+02  0.74470750000E+01 0. -1.
<mgrwt>
<rscale>  0 0.14911769E+02</rscale>
<asrwt>0</asrwt>
<pdfrwt beam="2">  1        2 0.98860661E+00 0.14911769E+02</pdfrwt>
<pdfrwt beam="1">  1       -2 0.99137791E+00 0.14911769E+02</pdfrwt>
<totfact>-0.99517623E-14</totfact>
</mgrwt>
</event>
<event>
 4    1 -0.5021037E-019  0.1491801E+02  0.7818608E-02  0.1870581E+00
         -2   -1    0    0    0  501 -0.00000000000E+00  0.00000000000E+00  0.12021220458E+03  0.12021220461E+03  0.25500000000E-02 0. -1.
          2   -1    0    0  501    0  0.00000000000E+00 -0.00000000000E+00 -0.46281789995E+00  0.46282492480E+00  0.25500000000E-02 0.  1.
         31    1    1    2    0    0  0.29317559603E+00  0.28072153476E+00  0.58948734253E+02  0.59418658286E+02  0.74470750000E+01 0.  1.
        -31    1    1    2    0    0 -0.29317559603E+00 -0.28072153476E+00  0.60800652432E+02  0.61256371250E+02  0.74470750000E+01 0. -1.
<mgrwt>
<rscale>  0 0.14918014E+02</rscale>
<asrwt>0</asrwt>
<pdfrwt beam="2">  1        2 0.98304132E+00 0.14918014E+02</pdfrwt>
<pdfrwt beam="1">  1       -2 0.99782558E+00 0.14918014E+02</pdfrwt>
<totfact>-0.30534655E-13</totfact>
</mgrwt>
</event>
<event>
 4    1 -0.5021037E-019  0.1495914E+02  0.7818608E-02  0.1869318E+00
          2   -1    0    0  501    0  0.00000000000E+00  0.00000000000E+00  0.11973522061E+03  0.11973522063E+03  0.25500000000E-02 0. -1.
         -2   -1    0    0    0  501 -0.00000000000E+00 -0.00000000000E+00 -0.46722708972E+00  0.46723404828E+00  0.25500000000E-02 0.  1.
         31    1    1    2    0    0 -0.41434200637E+00  0.52693058636E+00  0.58115812383E+02  0.58594845423E+02  0.74470750000E+01 0.  1.
        -31    1    1    2    0    0  0.41434200637E+00 -0.52693058636E+00  0.61152181135E+02  0.61607609260E+02  0.74470750000E+01 0. -1.
<mgrwt>
<rscale>  0 0.14959139E+02</rscale>
<asrwt>0</asrwt>
<pdfrwt beam="1">  1        2 0.99391800E+00 0.14959139E+02</pdfrwt>
<pdfrwt beam="2">  1       -2 0.99235489E+00 0.14959139E+02</pdfrwt>
<totfact>-0.98000353E-14</totfact>
</mgrwt>
</event>
<event>
 4    1 -0.5021037E-019  0.1500308E+02  0.7818608E-02  0.1867974E+00
          2   -1    0    0  501    0  0.00000000000E+00  0.00000000000E+00  0.12034341976E+03  0.12034341979E+03  0.25500000000E-02 0. -1.
         -2   -1    0    0    0  501 -0.00000000000E+00 -0.00000000000E+00 -0.46760092858E+00  0.46760788157E+00  0.25500000000E-02 0.  1.
         31    1    1    2    0    0  0.21272384328E+00 -0.67255702107E+00  0.64468822032E+02  0.64901352255E+02  0.74470750000E+01 0. -1.
        -31    1    1    2    0    0 -0.21272384328E+00  0.67255702107E+00  0.55406996802E+02  0.55909675415E+02  0.74470750000E+01 0.  1.
<mgrwt>
<rscale>  0 0.15003082E+02</rscale>
<asrwt>0</asrwt>
<pdfrwt beam="1">  1        2 0.99895010E+00 0.15003082E+02</pdfrwt>
<pdfrwt beam="2">  1       -2 0.99316532E+00 0.15003082E+02</pdfrwt>
<totfact>-0.34085111E-14</totfact>
</mgrwt>
</event>
<event>
 4    1  0.5021037E-019  0.1492517E+02  0.7818608E-02  0.1870361E+00
         -2   -1    0    0    0  501 -0.00000000000E+00  0.00000000000E+00  0.11856911955E+03  0.11856911958E+03  0.25500000000E-02 0.  1.
          2   -1    0    0  501    0  0.00000000000E+00 -0.00000000000E+00 -0.46968163690E+00  0.46968855909E+00  0.25500000000E-02 0. -1.
         31    1    1    2    0    0  0.47837585508E-01 -0.44461968044E+00  0.60459653173E+02  0.60918212080E+02  0.74470750000E+01 0.  1.
        -31    1    1    2    0    0 -0.47837585508E-01  0.44461968044E+00  0.57639784742E+02  0.58120596059E+02  0.74470750000E+01 0. -1.
<mgrwt>
<rscale>  0 0.14925167E+02</rscale>
<asrwt>0</asrwt>
<pdfrwt beam="2">  1        2 0.99750938E+00 0.14925167E+02</pdfrwt>
<pdfrwt beam="1">  1       -2 0.98429615E+00 0.14925167E+02</pdfrwt>
<totfact> 0.37960253E-13</totfact>
</mgrwt>
</event>
<event>
 4    1 -0.5021037E-019  0.1492098E+02  0.7818608E-02  0.1870490E+00
          2   -1    0    0  501    0  0.00000000000E+00  0.00000000000E+00  0.11903458663E+03  0.11903458665E+03  0.25500000000E-02 0.  1.
         -2   -1    0    0    0  501 -0.00000000000E+00 -0.00000000000E+00 -0.46758234209E+00  0.46758929536E+00  0.25500000000E-02 0. -1.
         31    1    1    2    0    0  0.31633780859E+00  0.27231764927E+00  0.57998678650E+02  0.58476318948E+02  0.74470750000E+01 0.  1.
        -31    1    1    2    0    0 -0.31633780859E+00 -0.27231764927E+00  0.60568325635E+02  0.61025857001E+02  0.74470750000E+01 0.  1.
<mgrwt>
<rscale>  0 0.14920977E+02</rscale>
<asrwt>0</asrwt>
<pdfrwt beam="1">  1        2 0.98812760E+00 0.14920977E+02</pdfrwt>
<pdfrwt beam="2">  1       -2 0.99308373E+00 0.14920977E+02</pdfrwt>
<totfact>-0.19344847E-13</totfact>
</mgrwt>
</event>
<event>
 4    1  0.5021037E-019  0.1493188E+02  0.7818608E-02  0.1870154E+00
         -2   -1    0    0    0  501 -0.00000000000E+00  0.00000000000E+00  0.11843615775E+03  0.11843615778E+03  0.25500000000E-02 0.  1.
          2   -1    0    0  501    0  0.00000000000E+00 -0.00000000000E+00 -0.47063203661E+00  0.47063894483E+00  0.25500000000E-02 0. -1.
         31    1    1    2    0    0 -0.21788167341E-01  0.50642403066E+00  0.60226575809E+02  0.60687365240E+02  0.74470750000E+01 0.  1.
        -31    1    1    2    0    0  0.21788167341E-01 -0.50642403066E+00  0.57738949908E+02  0.58219431486E+02  0.74470750000E+01 0. -1.
<mgrwt>
<rscale>  0 0.14931880E+02</rscale>
<asrwt>0</asrwt>
<pdfrwt beam="2">  1        2 0.99951539E+00 0.14931880E+02</pdfrwt>
<pdfrwt beam="1">  1       -2 0.98320459E+00 0.14931880E+02</pdfrwt>
<totfact> 0.11977859E-13</totfact>
</mgrwt>
</event>
<event>
 4    1 -0.5021037E-019  0.1497883E+02  0.7818608E-02  0.1868715E+00
         -2   -1    0    0    0  501 -0.00000000000E+00  0.00000000000E+00  0.12019556019E+03  0.12019556022E+03  0.25500000000E-02 0.  1.
          2   -1    0    0  501    0  0.00000000000E+00 -0.00000000000E+00 -0.46666382598E+00  0.46667079293E+00  0.25500000000E-02 0. -1.
         31    1    1    2    0    0  0.34025924743E+00 -0.69856936246E+00  0.61227721052E+02  0.61683843321E+02  0.74470750000E+01 0.  1.
        -31    1    1    2    0    0 -0.34025924743E+00  0.69856936246E+00  0.58501175314E+02  0.58978387691E+02  0.74470750000E+01 0.  1.
<mgrwt>
<rscale>  0 0.14978831E+02</rscale>
<asrwt>0</asrwt>
<pdfrwt beam="2">  1        2 0.99117796E+00 0.14978831E+02</pdfrwt>
<pdfrwt beam="1">  1       -2 0.99771975E+00 0.14978831E+02</pdfrwt>
<totfact>-0.10619048E-13</totfact>
</mgrwt>
</event>
<event>
 4    1  0.5021037E-019  0.1491916E+02  0.7818608E-02  0.1870545E+00
          2   -1    0    0  501    0  0.00000000000E+00  0.00000000000E+00  0.12002728985E+03  0.12002728988E+03  0.25500000000E-02 0. -1.
         -2   -1    0    0    0  501 -0.00000000000E+00 -0.00000000000E+00 -0.46360201190E+00  0.46360902487E+00  0.25500000000E-02 0.  1.
         31    1    1    2    0    0 -0.12517674955E+00  0.16903502401E-01  0.56447650114E+02  0.56936913197E+02  0.74470750000E+01 0.  1.
        -31    1    1    2    0    0  0.12517674955E+00 -0.16903502401E-01  0.63116037722E+02  0.63553985703E+02  0.74470750000E+01 0. -1.
<mgrwt>
<rscale>  0 0.14919158E+02</rscale>
<asrwt>0</asrwt>
<pdfrwt beam="1">  1        2 0.99630306E+00 0.14919158E+02</pdfrwt>
<pdfrwt beam="2">  1       -2 0.98469455E+00 0.14919158E+02</pdfrwt>
<totfact> 0.44534815E-13</totfact>
</mgrwt>
</event>
<event>
 4    1 -0.5021037E-019  0.1504903E+02  0.7818608E-02  0.1866576E+00
          2   -1    0    0  501    0  0.00000000000E+00  0.00000000000E+00  0.12038541006E+03  0.12038541009E+03  0.25500000000E-02 0. -1.
         -2   -1    0    0    0  501 -0.00000000000E+00 -0.00000000000E+00 -0.47030558419E+00  0.47031249720E+00  0.25500000000E-02 0.  1.
         31    1    1    2    0    0  0.38274295627E+00 -0.83618440268E+00  0.64455711633E+02  0.64891011586E+02  0.74470750000E+01 0. -1.
        -31    1    1    2    0    0 -0.38274295627E+00  0.83618440268E+00  0.55459392843E+02  0.55964710998E+02  0.74470750000E+01 0.  1.
<mgrwt>
<rscale>  0 0.15049033E+02</rscale>
<asrwt>0</asrwt>
<pdfrwt beam="1">  1        2 0.99931967E+00 0.15049033E+02</pdfrwt>
<pdfrwt beam="2">  1       -2 0.99888881E+00 0.15049033E+02</pdfrwt>
<totfact>-0.92335060E-15</totfact>
</mgrwt>
</event>
<event>
 4    1 -0.5021037E-019  0.1496960E+02  0.7818608E-02  0.1868998E+00
          2   -1    0    0  501    0  0.00000000000E+00  0.00000000000E+00  0.11959011717E+03  0.11959011720E+03  0.25500000000E-02 0. -1.
         -2   -1    0    0    0  501 -0.00000000000E+00 -0.00000000000E+00 -0.46844831182E+00  0.46845525224E+00  0.25500000000E-02 0.  1.
         31    1    1    2    0    0 -0.12772998000E-01  0.26704489653E+00  0.65185275326E+02  0.65609835554E+02  0.74470750000E+01 0. -1.
        -31    1    1    2    0    0  0.12772998000E-01 -0.26704489653E+00  0.53936393536E+02  0.54448736899E+02  0.74470750000E+01 0.  1.
<mgrwt>
<rscale>  0 0.14969597E+02</rscale>
<asrwt>0</asrwt>
<pdfrwt beam="1">  1        2 0.99272828E+00 0.14969597E+02</pdfrwt>
<pdfrwt beam="2">  1       -2 0.99493382E+00 0.14969597E+02</pdfrwt>
<totfact>-0.14378182E-13</totfact>
</mgrwt>
</event>
<event>
 4    1  0.5021037E-019  0.1493520E+02  0.7818608E-02  0.1870052E+00
          2   -1    0    0  501    0  0.00000000000E+00  0.00000000000E+00  0.11988963412E+03  0.11988963414E+03  0.25500000000E-02 0.  1.
         -2   -1    0    0    0  501 -0.00000000000E+00 -0.00000000000E+00 -0.46513300412E+00  0.46513999400E+00  0.25500000000E-02 0. -1.
         31    1    1    2    0    0  0.10453317798E-01 -0.20587867192E+00  0.55574665904E+02  0.56071783561E+02  0.74470750000E+01 0. -1.
        -31    1    1    2    0    0 -0.10453317798E-01  0.20587867192E+00  0.63849835209E+02  0.64282990577E+02  0.74470750000E+01 0.  1.
<mgrwt>
<rscale>  0 0.14935200E+02</rscale>
<asrwt>0</asrwt>
<pdfrwt beam="1">  1        2 0.99517748E+00 0.14935200E+02</pdfrwt>
<pdfrwt beam="2">  1       -2 0.98792941E+00 0.14935200E+02</pdfrwt>
<totfact> 0.15451411E-13</totfact>
</mgrwt>
</event>
<event>
 4    1 -0.5021037E-019  0.1497844E+02  0.7818608E-02  0.1868727E+00
          2   -1    0    0  501    0  0.00000000000E+00  0.00000000000E+00  0.11992621280E+03  0.11992621283E+03  0.25500000000E-02 0. -1.
         -2   -1    0    0    0  501 -0.00000000000E+00 -0.00000000000E+00 -0.46768774759E+00  0.46769469930E+00  0.25500000000E-02 0.  1.
         31    1    1    2    0    0  0.15841514236E+00  0.69938456304E+00  0.57000188488E+02  0.57489082858E+02  0.74470750000E+01 0.  1.
        -31    1    1    2    0    0 -0.15841514236E+00 -0.69938456304E+00  0.62458336568E+02  0.62904824672E+02  0.74470750000E+01 0. -1.
<mgrwt>
<rscale>  0 0.14978443E+02</rscale>
<asrwt>0</asrwt>
<pdfrwt beam="1">  1        2 0.99550106E+00 0.14978443E+02</pdfrwt>
<pdfrwt beam="2">  1       -2 0.99333563E+00 0.14978443E+02</pdfrwt>
<totfact>-0.10321764E-13</totfact>
</mgrwt>
</event>
<event>
 4    1 -0.5021037E-019  0.1494529E+02  0.7818608E-02  0.1869743E+00
          2   -1    0    0  501    0  0.00000000000E+00  0.00000000000E+00  0.11897319270E+03  0.11897319273E+03  0.25500000000E-02 0.  1.
         -2   -1    0    0    0  501 -0.00000000000E+00 -0.00000000000E+00 -0.46934918814E+00  0.46935611523E+00  0.25500000000E-02 0. -1.
         31    1    1    2    0    0 -0.53065397836E+00 -0.29952325828E+00  0.60057205268E+02  0.60520229167E+02  0.74470750000E+01 0.  1.
        -31    1    1    2    0    0  0.53065397836E+00  0.29952325828E+00  0.58446638244E+02  0.58922319675E+02  0.74470750000E+01 0. -1.
<mgrwt>
<rscale>  0 0.14945285E+02</rscale>
<asrwt>0</asrwt>
<pdfrwt beam="1">  1        2 0.98763456E+00 0.14945285E+02</pdfrwt>
<pdfrwt beam="2">  1       -2 0.99681947E+00 0.14945285E+02</pdfrwt>
<totfact>-0.19457361E-13</totfact>
</mgrwt>
</event>
<event>
 4    1 -0.5021037E-019  0.1496085E+02  0.7818608E-02  0.1869266E+00
          2   -1    0    0  501    0  0.00000000000E+00  0.00000000000E+00  0.11946211895E+03  0.11946211897E+03  0.25500000000E-02 0.  1.
         -2   -1    0    0    0  501 -0.00000000000E+00 -0.00000000000E+00 -0.46840241593E+00  0.46840935703E+00  0.25500000000E-02 0. -1.
         31    1    1    2    0    0  0.70169385392E+00 -0.45707723124E-01  0.59962456869E+02  0.60427225845E+02  0.74470750000E+01 0. -1.
        -31    1    1    2    0    0 -0.70169385392E+00  0.45707723124E-01  0.59031259660E+02  0.59503302484E+02  0.74470750000E+01 0. -1.
<mgrwt>
<rscale>  0 0.14960851E+02</rscale>
<asrwt>0</asrwt>
<pdfrwt beam="1">  1        2 0.99166952E+00 0.14960851E+02</pdfrwt>
<pdfrwt beam="2">  1       -2 0.99483257E+00 0.14960851E+02</pdfrwt>
<totfact>-0.15546568E-13</totfact>
</mgrwt>
</event>
<event>
 4    1 -0.5021037E-019  0.1489824E+02  0.7818608E-02  0.1871190E+00
          2   -1    0    0  501    0  0.00000000000E+00  0.00000000000E+00  0.11808769660E+03  0.11808769663E+03  0.25500000000E-02 0.  1.
         -2   -1    0    0    0  501 -0.00000000000E+00 -0.00000000000E+00 -0.46989643772E+00  0.46990335674E+00  0.25500000000E-02 0. -1.
         31    1    1    2    0    0 -0.44511601619E-01  0.16713923688E+00  0.58996693425E+02  0.59465104708E+02  0.74470750000E+01 0. -1.
        -31    1    1    2    0    0  0.44511601619E-01 -0.16713923688E+00  0.58621106740E+02  0.59092495279E+02  0.74470750000E+01 0. -1.
<mgrwt>
<rscale>  0 0.14898241E+02</rscale>
<asrwt>0</asrwt>
<pdfrwt beam="1">  1        2 0.98031719E+00 0.14898241E+02</pdfrwt>
<pdfrwt beam="2">  1       -2 0.99794771E+00 0.14898241E+02</pdfrwt>
<totfact>-0.46089930E-13</totfact>
</mgrwt>
</event>
<event>
 4    1  0.5021037E-019  0.1493381E+02  0.7818608E-02  0.1870095E+00
          2   -1    0    0  501    0  0.00000000000E+00  0.00000000000E+00  0.11991792409E+03  0.11991792412E+03  0.25500000000E-02 0.  1.
         -2   -1    0    0    0  501 -0.00000000000E+00 -0.00000000000E+00 -0.46493665395E+00  0.46494364678E+00  0.25500000000E-02 0. -1.
         31    1    1    2    0    0 -0.11838222361E+00  0.43051255175E+00  0.57223923170E+02  0.57708194084E+02  0.74470750000E+01 0. -1.
        -31    1    1    2    0    0  0.11838222361E+00 -0.43051255175E+00  0.62229064269E+02  0.62674673683E+02  0.74470750000E+01 0.  1.
<mgrwt>
<rscale>  0 0.14933809E+02</rscale>
<asrwt>0</asrwt>
<pdfrwt beam="1">  1        2 0.99540978E+00 0.14933809E+02</pdfrwt>
<pdfrwt beam="2">  1       -2 0.98751489E+00 0.14933809E+02</pdfrwt>
<totfact> 0.18651603E-13</totfact>
</mgrwt>
</event>
<event>
 4    1  0.5021037E-019  0.1491606E+02  0.7818608E-02  0.1870641E+00
         -2   -1    0    0    0  501 -0.00000000000E+00  0.00000000000E+00  0.11859314273E+03  0.11859314276E+03  0.25500000000E-02 0. -1.
          2   -1    0    0  501    0  0.00000000000E+00 -0.00000000000E+00 -0.46901365540E+00  0.46902058745E+00  0.25500000000E-02 0.  1.
         31    1    1    2    0    0  0.31593200931E+00  0.11189894896E+00  0.60863930486E+02  0.61318751574E+02  0.74470750000E+01 0.  1.
        -31    1    1    2    0    0 -0.31593200931E+00 -0.11189894896E+00  0.57260198592E+02  0.57743411773E+02  0.74470750000E+01 0.  1.
<mgrwt>
<rscale>  0 0.14916061E+02</rscale>
<asrwt>0</asrwt>
<pdfrwt beam="2">  1        2 0.99609713E+00 0.14916061E+02</pdfrwt>
<pdfrwt beam="1">  1       -2 0.98448927E+00 0.14916061E+02</pdfrwt>
<totfact> 0.48595079E-13</totfact>
</mgrwt>
</event>
<event>
 4    1 -0.5021037E-019  0.1501189E+02  0.7818608E-02  0.1867706E+00
         -2   -1    0    0    0  501 -0.00000000000E+00  0.00000000000E+00  0.12018996397E+03  0.12018996400E+03  0.25500000000E-02 0.  1.
          2   -1    0    0  501    0  0.00000000000E+00 -0.00000000000E+00 -0.46874788609E+00  0.46875482207E+00  0.25500000000E-02 0. -1.
         31    1    1    2    0    0 -0.90299743498E+00  0.79695068999E-01  0.61805126996E+02  0.62258769701E+02  0.74470750000E+01 0.  1.
        -31    1    1    2    0    0  0.90299743498E+00 -0.79695068999E-01  0.57916089088E+02  0.58399949118E+02  0.74470750000E+01 0.  1.
<mgrwt>
<rscale>  0 0.15011890E+02</rscale>
<asrwt>0</asrwt>
<pdfrwt beam="2">  1        2 0.99558699E+00 0.15011890E+02</pdfrwt>
<pdfrwt beam="1">  1       -2 0.99769071E+00 0.15011890E+02</pdfrwt>
<totfact>-0.74266963E-14</totfact>
</mgrwt>
</event>
<event>
 4    1  0.5021037E-019  0.1491600E+02  0.7818608E-02  0.1870643E+00
         -2   -1    0    0    0  501 -0.00000000000E+00  0.00000000000E+00  0.11846258658E+03  0.11846258661E+03  0.25500000000E-02 0.  1.
          2   -1    0    0  501    0  0.00000000000E+00 -0.00000000000E+00 -0.46952650149E+00  0.46953342597E+00  0.25500000000E-02 0. -1.
         31    1    1    2    0    0  0.37822554646E+00 -0.91487061513E-01  0.59847367374E+02  0.60310179340E+02  0.74470750000E+01 0.  1.
        -31    1    1    2    0    0 -0.37822554646E+00  0.91487061513E-01  0.58145692707E+02  0.58621940695E+02  0.74470750000E+01 0. -1.
<mgrwt>
<rscale>  0 0.14915996E+02</rscale>
<asrwt>0</asrwt>
<pdfrwt beam="2">  1        2 0.99717767E+00 0.14915996E+02</pdfrwt>
<pdfrwt beam="1">  1       -2 0.98341398E+00 0.14915996E+02</pdfrwt>
<totfact> 0.51376994E-13</totfact>
</mgrwt>
</event>
<event>
 4    1  0.5021037E-019  0.1493309E+02  0.7818608E-02  0.1870117E+00
         -2   -1    0    0    0  501 -0.00000000000E+00  0.00000000000E+00  0.11858291619E+03  0.11858291621E+03  0.25500000000E-02 0.  1.
          2   -1    0    0  501    0  0.00000000000E+00 -0.00000000000E+00 -0.47012571265E+00  0.47013262830E+00  0.25500000000E-02 0. -1.
         31    1    1    2    0    0 -0.23702342664E+00  0.80736423369E-02  0.55198858719E+02  0.55699453994E+02  0.74470750000E+01 0. -1.
        -31    1    1    2    0    0  0.23702342664E+00 -0.80736423369E-02  0.62913931755E+02  0.63353594848E+02  0.74470750000E+01 0.  1.
<mgrwt>
<rscale>  0 0.14933090E+02</rscale>
<asrwt>0</asrwt>
<pdfrwt beam="2">  1        2 0.99844923E+00 0.14933090E+02</pdfrwt>
<pdfrwt beam="1">  1       -2 0.98441390E+00 0.14933090E+02</pdfrwt>
<totfact> 0.25436960E-13</totfact>
</mgrwt>
</event>
<event>
 4    1 -0.5021037E-019  0.1493743E+02  0.7818608E-02  0.1869984E+00
          2   -1    0    0  501    0  0.00000000000E+00  0.00000000000E+00  0.11919590514E+03  0.11919590516E+03  0.25500000000E-02 0.  1.
         -2   -1    0    0    0  501 -0.00000000000E+00 -0.00000000000E+00 -0.46798000379E+00  0.46798695115E+00  0.25500000000E-02 0. -1.
         31    1    1    2    0    0 -0.56304589361E+00 -0.33666159312E-01  0.58818431142E+02  0.59290681580E+02  0.74470750000E+01 0. -1.
        -31    1    1    2    0    0  0.56304589361E+00  0.33666159312E-01  0.59909493990E+02  0.60373210535E+02  0.74470750000E+01 0. -1.
<mgrwt>
<rscale>  0 0.14937432E+02</rscale>
<asrwt>0</asrwt>
<pdfrwt beam="1">  1        2 0.98946478E+00 0.14937432E+02</pdfrwt>
<pdfrwt beam="2">  1       -2 0.99393026E+00 0.14937432E+02</pdfrwt>
<totfact>-0.18343132E-13</totfact>
</mgrwt>
</event>
<event>
 4    1 -0.5021037E-019  0.1490259E+02  0.7818608E-02  0.1871056E+00
          2   -1    0    0  501    0  0.00000000000E+00  0.00000000000E+00  0.11848015207E+03  0.11848015210E+03  0.25500000000E-02 0. -1.
         -2   -1    0    0    0  501 -0.00000000000E+00 -0.00000000000E+00 -0.46861310526E+00  0.46862004323E+00  0.25500000000E-02 0.  1.
         31    1    1    2    0    0  0.44913036929E-01  0.24157213366E+00  0.58609412513E+02  0.59081152117E+02  0.74470750000E+01 0. -1.
        -31    1    1    2    0    0 -0.44913036929E-01 -0.24157213366E+00  0.59402126453E+02  0.59867620025E+02  0.74470750000E+01 0.  1.
<mgrwt>
<rscale>  0 0.14902586E+02</rscale>
<asrwt>0</asrwt>
<pdfrwt beam="1">  1        2 0.98355167E+00 0.14902586E+02</pdfrwt>
<pdfrwt beam="2">  1       -2 0.99524606E+00 0.14902586E+02</pdfrwt>
<totfact>-0.43780595E-13</totfact>
</mgrwt>
</event>
<event>
 4    1  0.5021037E-019  0.1491597E+02  0.7818608E-02  0.1870644E+00
         -2   -1    0    0    0  501 -0.00000000000E+00  0.00000000000E+00  0.11875464729E+03  0.11875464732E+03  0.25500000000E-02 0. -1.
          2   -1    0    0  501    0  0.00000000000E+00 -0.00000000000E+00 -0.46837007643E+00  0.46837701801E+00  0.25500000000E-02 0.  1.
         31    1    1    2    0    0 -0.23609827370E+00  0.20793153244E+00  0.57126836582E+02  0.57611052428E+02  0.74470750000E+01 0.  1.
        -31    1    1    2    0    0  0.23609827370E+00 -0.20793153244E+00  0.61159440629E+02  0.61611971905E+02  0.74470750000E+01 0.  1.
<mgrwt>
<rscale>  0 0.14915970E+02</rscale>
<asrwt>0</asrwt>
<pdfrwt beam="2">  1        2 0.99474101E+00 0.14915970E+02</pdfrwt>
<pdfrwt beam="1">  1       -2 0.98581938E+00 0.14915970E+02</pdfrwt>
<totfact> 0.38835647E-13</totfact>
</mgrwt>
</event>
<event>
 4    1  0.5021037E-019  0.1491284E+02  0.7818608E-02  0.1870740E+00
          2   -1    0    0  501    0  0.00000000000E+00  0.00000000000E+00  0.11977708024E+03  0.11977708027E+03  0.25500000000E-02 0. -1.
         -2   -1    0    0    0  501 -0.00000000000E+00 -0.00000000000E+00 -0.46417712586E+00  0.46418413014E+00  0.25500000000E-02 0.  1.
         31    1    1    2    0    0 -0.74115085342E-01  0.36358822733E+00  0.59335137371E+02  0.59801798822E+02  0.74470750000E+01 0.  1.
        -31    1    1    2    0    0  0.74115085342E-01 -0.36358822733E+00  0.59977765746E+02  0.60439465578E+02  0.74470750000E+01 0. -1.
<mgrwt>
<rscale>  0 0.14912841E+02</rscale>
<asrwt>0</asrwt>
<pdfrwt beam="1">  1        2 0.99423890E+00 0.14912841E+02</pdfrwt>
<pdfrwt beam="2">  1       -2 0.98590344E+00 0.14912841E+02</pdfrwt>
<totfact> 0.39531424E-13</totfact>
</mgrwt>
</event>
<event>
 4    1 -0.5021037E-019  0.1493231E+02  0.7818608E-02  0.1870141E+00
          2   -1    0    0  501    0  0.00000000000E+00  0.00000000000E+00  0.11934201168E+03  0.11934201170E+03  0.25500000000E-02 0. -1.
         -2   -1    0    0    0  501 -0.00000000000E+00 -0.00000000000E+00 -0.46708668127E+00  0.46709364192E+00  0.25500000000E-02 0.  1.
         31    1    1    2    0    0 -0.41109733072E+00  0.12462241188E+00  0.61975026321E+02  0.62422330502E+02  0.74470750000E+01 0. -1.
        -31    1    1    2    0    0  0.41109733072E+00 -0.12462241188E+00  0.56899898676E+02  0.57386774845E+02  0.74470750000E+01 0. -1.
<mgrwt>
<rscale>  0 0.14932312E+02</rscale>
<asrwt>0</asrwt>
<pdfrwt beam="1">  1        2 0.99066551E+00 0.14932312E+02</pdfrwt>
<pdfrwt beam="2">  1       -2 0.99204513E+00 0.14932312E+02</pdfrwt>
<totfact>-0.11300742E-13</totfact>
</mgrwt>
</event>
<event>
 4    1  0.5021037E-019  0.1492896E+02  0.7818608E-02  0.1870244E+00
         -2   -1    0    0    0  501 -0.00000000000E+00  0.00000000000E+00  0.11850104877E+03  0.11850104880E+03  0.25500000000E-02 0. -1.
          2   -1    0    0  501    0  0.00000000000E+00 -0.00000000000E+00 -0.47019047452E+00  0.47019738922E+00  0.25500000000E-02 0.  1.
         31    1    1    2    0    0  0.10856390244E-01 -0.23481657541E+00  0.55413453220E+02  0.55912118369E+02  0.74470750000E+01 0.  1.
        -31    1    1    2    0    0 -0.10856390244E-01  0.23481657541E+00  0.62617405075E+02  0.63059127817E+02  0.74470750000E+01 0. -1.
<mgrwt>
<rscale>  0 0.14928962E+02</rscale>
<asrwt>0</asrwt>
<pdfrwt beam="2">  1        2 0.99858350E+00 0.14928962E+02</pdfrwt>
<pdfrwt beam="1">  1       -2 0.98373750E+00 0.14928962E+02</pdfrwt>
<totfact> 0.27911590E-13</totfact>
</mgrwt>
</event>
<event>
 4    1 -0.5021037E-019  0.1495185E+02  0.7818608E-02  0.1869541E+00
         -2   -1    0    0    0  501 -0.00000000000E+00  0.00000000000E+00  0.11997635526E+03  0.11997635529E+03  0.25500000000E-02 0. -1.
          2   -1    0    0  501    0  0.00000000000E+00 -0.00000000000E+00 -0.46583356140E+00  0.46584054077E+00  0.25500000000E-02 0.  1.
         31    1    1    2    0    0 -0.55470070156E+00 -0.32859459183E+00  0.60736606847E+02  0.61194852763E+02  0.74470750000E+01 0. -1.
        -31    1    1    2    0    0  0.55470070156E+00  0.32859459183E+00  0.58773914852E+02  0.59247343065E+02  0.74470750000E+01 0.  1.
<mgrwt>
<rscale>  0 0.14951847E+02</rscale>
<asrwt>0</asrwt>
<pdfrwt beam="2">  1        2 0.98941436E+00 0.14951847E+02</pdfrwt>
<pdfrwt beam="1">  1       -2 0.99590034E+00 0.14951847E+02</pdfrwt>
<totfact>-0.17951747E-13</totfact>
</mgrwt>
</event>
<event>
 4    1 -0.5021037E-019  0.1496572E+02  0.7818608E-02  0.1869116E+00
          2   -1    0    0  501    0  0.00000000000E+00  0.00000000000E+00  0.11960351983E+03  0.11960351986E+03  0.25500000000E-02 0.  1.
         -2   -1    0    0    0  501 -0.00000000000E+00 -0.00000000000E+00 -0.46815329719E+00  0.46816024198E+00  0.25500000000E-02 0. -1.
         31    1    1    2    0    0  0.44039349703E+00 -0.51887509132E+00  0.61706966224E+02  0.62158440975E+02  0.74470750000E+01 0.  1.
        -31    1    1    2    0    0 -0.44039349703E+00  0.51887509132E+00  0.57428400310E+02  0.57913239126E+02  0.74470750000E+01 0. -1.
<mgrwt>
<rscale>  0 0.14965721E+02</rscale>
<asrwt>0</asrwt>
<pdfrwt beam="1">  1        2 0.99283666E+00 0.14965721E+02</pdfrwt>
<pdfrwt beam="2">  1       -2 0.99431013E+00 0.14965721E+02</pdfrwt>
<totfact>-0.14171556E-13</totfact>
</mgrwt>
</event>
<event>
 4    1  0.5021037E-019  0.1494725E+02  0.7818608E-02  0.1869682E+00
          2   -1    0    0  501    0  0.00000000000E+00  0.00000000000E+00  0.12031977520E+03  0.12031977523E+03  0.25500000000E-02 0. -1.
         -2   -1    0    0    0  501 -0.00000000000E+00 -0.00000000000E+00 -0.46421841062E+00  0.46422541427E+00  0.25500000000E-02 0.  1.
         31    1    1    2    0    0 -0.29216782035E+00  0.45102711212E+00  0.57280002756E+02  0.57764577634E+02  0.74470750000E+01 0.  1.
        -31    1    1    2    0    0  0.29216782035E+00 -0.45102711212E+00  0.62575554036E+02  0.63019423010E+02  0.74470750000E+01 0.  1.
<mgrwt>
<rscale>  0 0.14947251E+02</rscale>
<asrwt>0</asrwt>
<pdfrwt beam="1">  1        2 0.99872663E+00 0.14947251E+02</pdfrwt>
<pdfrwt beam="2">  1       -2 0.98600796E+00 0.14947251E+02</pdfrwt>
<totfact> 0.13481660E-13</totfact>
</mgrwt>
</event>
<event>
 4    1  0.5021037E-019  0.1490103E+02  0.7818608E-02  0.1871104E+00
          2   -1    0    0  501    0  0.00000000000E+00  0.00000000000E+00  0.12014163604E+03  0.12014163607E+03  0.25500000000E-02 0. -1.
         -2   -1    0    0    0  501 -0.00000000000E+00 -0.00000000000E+00 -0.46203590921E+00  0.46204294594E+00  0.25500000000E-02 0.  1.
         31    1    1    2    0    0  0.29605930136E-03 -0.18169901951E+00  0.58746848259E+02  0.59217262019E+02  0.74470750000E+01 0.  1.
        -31    1    1    2    0    0 -0.29605930136E-03  0.18169901951E+00  0.60932751873E+02  0.61386416996E+02  0.74470750000E+01 0. -1.
<mgrwt>
<rscale>  0 0.14901030E+02</rscale>
<asrwt>0</asrwt>
<pdfrwt beam="1">  1        2 0.99723560E+00 0.14901030E+02</pdfrwt>
<pdfrwt beam="2">  1       -2 0.98138452E+00 0.14901030E+02</pdfrwt>
<totfact> 0.77161675E-13</totfact>
</mgrwt>
</event>
<event>
 4    1 -0.5021037E-019  0.1494923E+02  0.7818608E-02  0.1869622E+00
         -2   -1    0    0    0  501 -0.00000000000E+00  0.00000000000E+00  0.11976056640E+03  0.11976056642E+03  0.25500000000E-02 0.  1.
          2   -1    0    0  501    0  0.00000000000E+00 -0.00000000000E+00 -0.46650952664E+00  0.46651649590E+00  0.25500000000E-02 0. -1.
         31    1    1    2    0    0  0.20883450568E-01 -0.47964963027E+00  0.63063278400E+02  0.63503279510E+02  0.74470750000E+01 0.  1.
        -31    1    1    2    0    0 -0.20883450568E-01  0.47964963027E+00  0.56230778469E+02  0.56723803409E+02  0.74470750000E+01 0. -1.
<mgrwt>
<rscale>  0 0.14949230E+02</rscale>
<asrwt>0</asrwt>
<pdfrwt beam="2">  1        2 0.99083759E+00 0.14949230E+02</pdfrwt>
<pdfrwt beam="1">  1       -2 0.99412164E+00 0.14949230E+02</pdfrwt>
<totfact>-0.16333542E-13</totfact>
</mgrwt>
</event>
<event>
 4    1 -0.5021037E-019  0.1490433E+02  0.7818608E-02  0.1871002E+00
         -2   -1    0    0    0  501 -0.00000000000E+00  0.00000000000E+00  0.12033195673E+03  0.12033195675E+03  0.25500000000E-02 0.  1.
          2   -1    0    0  501    0  0.00000000000E+00 -0.00000000000E+00 -0.46150974152E+00  0.46151678628E+00  0.25500000000E-02 0. -1.
         31    1    1    2    0    0 -0.14556192917E+00 -0.35961450861E-02  0.61830208561E+02  0.62277241573E+02  0.74470750000E+01 0.  1.
        -31    1    1    2    0    0  0.14556192917E+00  0.35961450861E-02  0.58040238425E+02  0.58516231968E+02  0.74470750000E+01 0. -1.
<mgrwt>
<rscale>  0 0.14904335E+02</rscale>
<asrwt>0</asrwt>
<pdfrwt beam="2">  1        2 0.98027715E+00 0.14904335E+02</pdfrwt>
<pdfrwt beam="1">  1       -2 0.99880495E+00 0.14904335E+02</pdfrwt>
<totfact>-0.29225558E-13</totfact>
</mgrwt>
</event>
<event>
 4    1 -0.5021037E-019  0.1489848E+02  0.7818608E-02  0.1871182E+00
         -2   -1    0    0    0  501 -0.00000000000E+00  0.00000000000E+00  0.12037821788E+03  0.12037821791E+03  0.25500000000E-02 0. -1.
          2   -1    0    0  501    0  0.00000000000E+00 -0.00000000000E+00 -0.46096971839E+00  0.46097677140E+00  0.25500000000E-02 0.  1.
         31    1    1    2    0    0 -0.17879425040E+00  0.13563169496E-01  0.59893956310E+02  0.60355422953E+02  0.74470750000E+01 0.  1.
        -31    1    1    2    0    0  0.17879425040E+00 -0.13563169496E-01  0.60023291850E+02  0.60483771724E+02  0.74470750000E+01 0. -1.
<mgrwt>
<rscale>  0 0.14898475E+02</rscale>
<asrwt>0</asrwt>
<pdfrwt beam="2">  1        2 0.97913593E+00 0.14898475E+02</pdfrwt>
<pdfrwt beam="1">  1       -2 0.99918301E+00 0.14898475E+02</pdfrwt>
<totfact>-0.24820961E-13</totfact>
</mgrwt>
</event>
<event>
 4    1 -0.5021037E-019  0.1491613E+02  0.7818608E-02  0.1870639E+00
          2   -1    0    0  501    0  0.00000000000E+00  0.00000000000E+00  0.11913648819E+03  0.11913648822E+03  0.25500000000E-02 0.  1.
         -2   -1    0    0    0  501 -0.00000000000E+00 -0.00000000000E+00 -0.46687863991E+00  0.46688560366E+00  0.25500000000E-02 0. -1.
         31    1    1    2    0    0 -0.14586696009E+00  0.16544233242E+00  0.62055454951E+02  0.62501096499E+02  0.74470750000E+01 0.  1.
        -31    1    1    2    0    0  0.14586696009E+00 -0.16544233242E+00  0.56614154597E+02  0.57102277320E+02  0.74470750000E+01 0. -1.
<mgrwt>
<rscale>  0 0.14916125E+02</rscale>
<asrwt>0</asrwt>
<pdfrwt beam="1">  1        2 0.98896438E+00 0.14916125E+02</pdfrwt>
<pdfrwt beam="2">  1       -2 0.99159834E+00 0.14916125E+02</pdfrwt>
<totfact>-0.10913847E-13</totfact>
</mgrwt>
</event>
<event>
 4    1  0.5021037E-019  0.1491271E+02  0.7818608E-02  0.1870744E+00
          2   -1    0    0  501    0  0.00000000000E+00  0.00000000000E+00  0.12021153014E+03  0.12021153017E+03  0.25500000000E-02 0. -1.
         -2   -1    0    0    0  501 -0.00000000000E+00 -0.00000000000E+00 -0.46249143536E+00  0.46249846517E+00  0.25500000000E-02 0.  1.
         31    1    1    2    0    0  0.35342073488E+00  0.11340183036E+00  0.60061979168E+02  0.60523037216E+02  0.74470750000E+01 0. -1.
        -31    1    1    2    0    0 -0.35342073488E+00 -0.11340183036E+00  0.59687059535E+02  0.60150991414E+02  0.74470750000E+01 0. -1.
<mgrwt>
<rscale>  0 0.14912710E+02</rscale>
<asrwt>0</asrwt>
<pdfrwt beam="1">  1        2 0.99781730E+00 0.14912710E+02</pdfrwt>
<pdfrwt beam="2">  1       -2 0.98235055E+00 0.14912710E+02</pdfrwt>
<totfact> 0.53706055E-13</totfact>
</mgrwt>
</event>
<event>
 4    1 -0.5021037E-019  0.1492445E+02  0.7818608E-02  0.1870383E+00
         -2   -1    0    0    0  501 -0.00000000000E+00  0.00000000000E+00  0.11998326467E+03  0.11998326470E+03  0.25500000000E-02 0. -1.
          2   -1    0    0  501    0  0.00000000000E+00 -0.00000000000E+00 -0.46410118155E+00  0.46410818698E+00  0.25500000000E-02 0.  1.
         31    1    1    2    0    0  0.27773090513E+00 -0.19985880038E+00  0.62421546062E+02  0.62865136736E+02  0.74470750000E+01 0. -1.
        -31    1    1    2    0    0 -0.27773090513E+00  0.19985880038E+00  0.57097617429E+02  0.57582236151E+02  0.74470750000E+01 0.  1.
<mgrwt>
<rscale>  0 0.14924450E+02</rscale>
<asrwt>0</asrwt>
<pdfrwt beam="2">  1        2 0.98574930E+00 0.14924450E+02</pdfrwt>
<pdfrwt beam="1">  1       -2 0.99594315E+00 0.14924450E+02</pdfrwt>
<totfact>-0.29084967E-13</totfact>
</mgrwt>
</event>
<event>
 4    1 -0.5021037E-019  0.1492949E+02  0.7818608E-02  0.1870228E+00
         -2   -1    0    0    0  501 -0.00000000000E+00  0.00000000000E+00  0.12039867345E+03  0.12039867348E+03  0.25500000000E-02 0.  1.
          2   -1    0    0  501    0  0.00000000000E+00 -0.00000000000E+00 -0.46281261891E+00  0.46281964383E+00  0.25500000000E-02 0. -1.
         31    1    1    2    0    0 -0.33485642683E+00 -0.34805554801E+00  0.61376032359E+02  0.61828064386E+02  0.74470750000E+01 0.  1.
        -31    1    1    2    0    0  0.33485642683E+00  0.34805554801E+00  0.58559828471E+02  0.59033428734E+02  0.74470750000E+01 0. -1.
<mgrwt>
<rscale>  0 0.14929495E+02</rscale>
<asrwt>0</asrwt>
<pdfrwt beam="2">  1        2 0.98303599E+00 0.14929495E+02</pdfrwt>
<pdfrwt beam="1">  1       -2 0.99936739E+00 0.14929495E+02</pdfrwt>
<totfact>-0.10192687E-13</totfact>
</mgrwt>
</event>
<event>
 4    1 -0.5021037E-019  0.1498057E+02  0.7818608E-02  0.1868662E+00
         -2   -1    0    0    0  501 -0.00000000000E+00  0.00000000000E+00  0.11987877223E+03  0.11987877226E+03  0.25500000000E-02 0.  1.
          2   -1    0    0  501    0  0.00000000000E+00 -0.00000000000E+00 -0.46800591801E+00  0.46801286499E+00  0.25500000000E-02 0. -1.
         31    1    1    2    0    0  0.62985747411E+00 -0.19753364902E+00  0.63384425186E+02  0.63823820179E+02  0.74470750000E+01 0.  1.
        -31    1    1    2    0    0 -0.62985747411E+00  0.19753364902E+00  0.56026341127E+02  0.56522964944E+02  0.74470750000E+01 0.  1.
<mgrwt>
<rscale>  0 0.14980573E+02</rscale>
<asrwt>0</asrwt>
<pdfrwt beam="2">  1        2 0.99400723E+00 0.14980573E+02</pdfrwt>
<pdfrwt beam="1">  1       -2 0.99511142E+00 0.14980573E+02</pdfrwt>
<totfact>-0.13014486E-13</totfact>
</mgrwt>
</event>
<event>
 4    1 -0.5021037E-019  0.1499091E+02  0.7818608E-02  0.1868346E+00
          2   -1    0    0  501    0  0.00000000000E+00  0.00000000000E+00  0.12002387049E+03  0.12002387052E+03  0.25500000000E-02 0.  1.
         -2   -1    0    0    0  501 -0.00000000000E+00 -0.00000000000E+00 -0.46808572799E+00  0.46809267378E+00  0.25500000000E-02 0. -1.
         31    1    1    2    0    0 -0.25472953237E+00  0.35374682447E+00  0.65645558436E+02  0.66068058034E+02  0.74470750000E+01 0.  1.
        -31    1    1    2    0    0  0.25472953237E+00 -0.35374682447E+00  0.53910226327E+02  0.54423905158E+02  0.74470750000E+01 0. -1.
<mgrwt>
<rscale>  0 0.14990915E+02</rscale>
<asrwt>0</asrwt>
<pdfrwt beam="1">  1        2 0.99631186E+00 0.14990915E+02</pdfrwt>
<pdfrwt beam="2">  1       -2 0.99418075E+00 0.14990915E+02</pdfrwt>
<totfact>-0.99420200E-14</totfact>
</mgrwt>
</event>
<event>
 4    1 -0.5021037E-019  0.1502368E+02  0.7818608E-02  0.1867347E+00
         -2   -1    0    0    0  501 -0.00000000000E+00  0.00000000000E+00  0.12008483711E+03  0.12008483714E+03  0.25500000000E-02 0.  1.
          2   -1    0    0  501    0  0.00000000000E+00 -0.00000000000E+00 -0.46989531334E+00  0.46990223238E+00  0.25500000000E-02 0. -1.
         31    1    1    2    0    0  0.59183836883E+00 -0.20943561597E+00  0.65890404760E+02  0.66312883374E+02  0.74470750000E+01 0.  1.
        -31    1    1    2    0    0 -0.59183836883E+00  0.20943561597E+00  0.53724537038E+02  0.54241855996E+02  0.74470750000E+01 0. -1.
<mgrwt>
<rscale>  0 0.15023677E+02</rscale>
<asrwt>0</asrwt>
<pdfrwt beam="2">  1        2 0.99801111E+00 0.15023677E+02</pdfrwt>
<pdfrwt beam="1">  1       -2 0.99683093E+00 0.15023677E+02</pdfrwt>
<totfact>-0.54096867E-14</totfact>
</mgrwt>
</event>
<event>
 4    1 -0.5021037E-019  0.1491143E+02  0.7818608E-02  0.1870783E+00
          2   -1    0    0  501    0  0.00000000000E+00  0.00000000000E+00  0.11870684694E+03  0.11870684697E+03  0.25500000000E-02 0. -1.
         -2   -1    0    0    0  501 -0.00000000000E+00 -0.00000000000E+00 -0.46827342358E+00  0.46828036658E+00  0.25500000000E-02 0.  1.
         31    1    1    2    0    0  0.15499034799E+00 -0.21765344024E+00  0.57205227614E+02  0.57688546414E+02  0.74470750000E+01 0.  1.
        -31    1    1    2    0    0 -0.15499034799E+00  0.21765344024E+00  0.61033345902E+02  0.61486580919E+02  0.74470750000E+01 0.  1.
<mgrwt>
<rscale>  0 0.14911429E+02</rscale>
<asrwt>0</asrwt>
<pdfrwt beam="1">  1        2 0.98542334E+00 0.14911429E+02</pdfrwt>
<pdfrwt beam="2">  1       -2 0.99453497E+00 0.14911429E+02</pdfrwt>
<totfact>-0.32460334E-13</totfact>
</mgrwt>
</event>
<event>
 4    1  0.5021037E-019  0.1492344E+02  0.7818608E-02  0.1870414E+00
         -2   -1    0    0    0  501 -0.00000000000E+00  0.00000000000E+00  0.11865937798E+03  0.11865937801E+03  0.25500000000E-02 0.  1.
          2   -1    0    0  501    0  0.00000000000E+00 -0.00000000000E+00 -0.46921545911E+00  0.46922238818E+00  0.25500000000E-02 0. -1.
         31    1    1    2    0    0 -0.32777870787E+00 -0.71000818267E-01  0.61691871719E+02  0.62140634389E+02  0.74470750000E+01 0.  1.
        -31    1    1    2    0    0  0.32777870787E+00  0.71000818267E-01  0.56498290804E+02  0.56987966009E+02  0.74470750000E+01 0. -1.
<mgrwt>
<rscale>  0 0.14923435E+02</rscale>
<asrwt>0</asrwt>
<pdfrwt beam="2">  1        2 0.99652622E+00 0.14923435E+02</pdfrwt>
<pdfrwt beam="1">  1       -2 0.98503862E+00 0.14923435E+02</pdfrwt>
<totfact> 0.38952173E-13</totfact>
</mgrwt>
</event>
<event>
 4    1 -0.5021037E-019  0.1492213E+02  0.7818608E-02  0.1870454E+00
          2   -1    0    0  501    0  0.00000000000E+00  0.00000000000E+00  0.11927461795E+03  0.11927461798E+03  0.25500000000E-02 0. -1.
         -2   -1    0    0    0  501 -0.00000000000E+00 -0.00000000000E+00 -0.46671372532E+00  0.46672069153E+00  0.25500000000E-02 0.  1.
         31    1    1    2    0    0 -0.44870230920E+00 -0.35856374489E-01  0.58783706820E+02  0.59255259117E+02  0.74470750000E+01 0. -1.
        -31    1    1    2    0    0  0.44870230920E+00  0.35856374489E-01  0.60024197408E+02  0.60486079555E+02  0.74470750000E+01 0.  1.
<mgrwt>
<rscale>  0 0.14922134E+02</rscale>
<asrwt>0</asrwt>
<pdfrwt beam="1">  1        2 0.99010517E+00 0.14922134E+02</pdfrwt>
<pdfrwt beam="2">  1       -2 0.99125393E+00 0.14922134E+02</pdfrwt>
<totfact>-0.77679257E-14</totfact>
</mgrwt>
</event>
<event>
 4    1 -0.5021037E-019  0.1500238E+02  0.7818608E-02  0.1867996E+00
         -2   -1    0    0    0  501 -0.00000000000E+00  0.00000000000E+00  0.11970103049E+03  0.11970103052E+03  0.25500000000E-02 0.  1.
          2   -1    0    0  501    0  0.00000000000E+00 -0.00000000000E+00 -0.47006670931E+00  0.47007362584E+00  0.25500000000E-02 0. -1.
         31    1    1    2    0    0 -0.34835193424E+00 -0.81441087283E+00  0.60865332867E+02  0.61325625029E+02  0.74470750000E+01 0. -1.
        -31    1    1    2    0    0  0.34835193424E+00  0.81441087283E+00  0.58365630914E+02  0.58845479114E+02  0.74470750000E+01 0.  1.
<mgrwt>
<rscale>  0 0.15002385E+02</rscale>
<asrwt>0</asrwt>
<pdfrwt beam="2">  1        2 0.99836124E+00 0.15002385E+02</pdfrwt>
<pdfrwt beam="1">  1       -2 0.99365877E+00 0.15002385E+02</pdfrwt>
<totfact>-0.53121751E-14</totfact>
</mgrwt>
</event>
<event>
 4    1 -0.5021037E-019  0.1496717E+02  0.7818608E-02  0.1869072E+00
         -2   -1    0    0    0  501 -0.00000000000E+00  0.00000000000E+00  0.12030525744E+03  0.12030525747E+03  0.25500000000E-02 0.  1.
          2   -1    0    0  501    0  0.00000000000E+00 -0.00000000000E+00 -0.46551240216E+00  0.46551938635E+00  0.25500000000E-02 0. -1.
         31    1    1    2    0    0  0.17705434106E+00 -0.61560383191E+00  0.62882107628E+02  0.63324787423E+02  0.74470750000E+01 0. -1.
        -31    1    1    2    0    0 -0.17705434106E+00  0.61560383191E+00  0.56957637409E+02  0.57445989430E+02  0.74470750000E+01 0. -1.
<mgrwt>
<rscale>  0 0.14967166E+02</rscale>
<asrwt>0</asrwt>
<pdfrwt beam="2">  1        2 0.98874533E+00 0.14967166E+02</pdfrwt>
<pdfrwt beam="1">  1       -2 0.99861728E+00 0.14967166E+02</pdfrwt>
<totfact>-0.88698605E-14</totfact>
</mgrwt>
</event>
<event>
 4    1 -0.5021037E-019  0.1489868E+02  0.7818608E-02  0.1871176E+00
         -2   -1    0    0    0  501 -0.00000000000E+00  0.00000000000E+00  0.11970850131E+03  0.11970850133E+03  0.25500000000E-02 0.  1.
          2   -1    0    0  501    0  0.00000000000E+00 -0.00000000000E+00 -0.46356111647E+00  0.46356813006E+00  0.25500000000E-02 0. -1.
         31    1    1    2    0    0  0.16766248920E+00 -0.67011809110E-01  0.59890257233E+02  0.60351755888E+02  0.74470750000E+01 0. -1.
        -31    1    1    2    0    0 -0.16766248920E+00  0.67011809110E-01  0.59354682956E+02  0.59820313575E+02  0.74470750000E+01 0.  1.
<mgrwt>
<rscale>  0 0.14898675E+02</rscale>
<asrwt>0</asrwt>
<pdfrwt beam="2">  1        2 0.98459794E+00 0.14898675E+02</pdfrwt>
<pdfrwt beam="1">  1       -2 0.99366675E+00 0.14898675E+02</pdfrwt>
<totfact>-0.35297738E-13</totfact>
</mgrwt>
</event>
<event>
 4    1  0.5021037E-019  0.1491300E+02  0.7818608E-02  0.1870735E+00
          2   -1    0    0  501    0  0.00000000000E+00  0.00000000000E+00  0.12021097633E+03  0.12021097635E+03  0.25500000000E-02 0. -1.
         -2   -1    0    0    0  501 -0.00000000000E+00 -0.00000000000E+00 -0.46251159252E+00  0.46251862202E+00  0.25500000000E-02 0.  1.
         31    1    1    2    0    0  0.28857067464E+00 -0.14413129960E+00  0.61418542073E+02  0.61869219191E+02  0.74470750000E+01 0. -1.
        -31    1    1    2    0    0 -0.28857067464E+00  0.14413129960E+00  0.58329922663E+02  0.58804275786E+02  0.74470750000E+01 0.  1.
<mgrwt>
<rscale>  0 0.14913000E+02</rscale>
<asrwt>0</asrwt>
<pdfrwt beam="1">  1        2 0.99781289E+00 0.14913000E+02</pdfrwt>
<pdfrwt beam="2">  1       -2 0.98239318E+00 0.14913000E+02</pdfrwt>
<totfact> 0.53317780E-13</totfact>
</mgrwt>
</event>
<event>
 4    1 -0.5021037E-019  0.1494985E+02  0.7818608E-02  0.1869603E+00
          2   -1    0    0  501    0  0.00000000000E+00  0.00000000000E+00  0.11910719296E+03  0.11910719299E+03  0.25500000000E-02 0. -1.
         -2   -1    0    0    0  501 -0.00000000000E+00 -0.00000000000E+00 -0.46910755564E+00  0.46911448630E+00  0.25500000000E-02 0.  1.
         31    1    1    2    0    0 -0.58102075260E+00 -0.78810307930E-01  0.61461951779E+02  0.61914249077E+02  0.74470750000E+01 0. -1.
        -31    1    1    2    0    0  0.58102075260E+00  0.78810307930E-01  0.57176133627E+02  0.57662058398E+02  0.74470750000E+01 0.  1.
<mgrwt>
<rscale>  0 0.14949850E+02</rscale>
<asrwt>0</asrwt>
<pdfrwt beam="1">  1        2 0.98874057E+00 0.14949850E+02</pdfrwt>
<pdfrwt beam="2">  1       -2 0.99631271E+00 0.14949850E+02</pdfrwt>
<totfact>-0.18422869E-13</totfact>
</mgrwt>
</event>
<event>
 4    1  0.5021037E-019  0.1494388E+02  0.7818608E-02  0.1869786E+00
         -2   -1    0    0    0  501 -0.00000000000E+00  0.00000000000E+00  0.11872878548E+03  0.11872878550E+03  0.25500000000E-02 0.  1.
          2   -1    0    0  501    0  0.00000000000E+00 -0.00000000000E+00 -0.47022672595E+00  0.47023364012E+00  0.25500000000E-02 0. -1.
         31    1    1    2    0    0 -0.19034317988E+00  0.50305445146E+00  0.61408386233E+02  0.61860634656E+02  0.74470750000E+01 0. -1.
        -31    1    1    2    0    0  0.19034317988E+00 -0.50305445146E+00  0.56850172518E+02  0.57338384488E+02  0.74470750000E+01 0. -1.
<mgrwt>
<rscale>  0 0.14943877E+02</rscale>
<asrwt>0</asrwt>
<pdfrwt beam="2">  1        2 0.99866776E+00 0.14943877E+02</pdfrwt>
<pdfrwt beam="1">  1       -2 0.98562089E+00 0.14943877E+02</pdfrwt>
<totfact> 0.15882794E-13</totfact>
</mgrwt>
</event>
<event>
 4    1  0.5021037E-019  0.1492756E+02  0.7818608E-02  0.1870287E+00
         -2   -1    0    0    0  501 -0.00000000000E+00  0.00000000000E+00  0.11877492270E+03  0.11877492273E+03  0.25500000000E-02 0.  1.
          2   -1    0    0  501    0  0.00000000000E+00 -0.00000000000E+00 -0.46901809788E+00  0.46902502986E+00  0.25500000000E-02 0. -1.
         31    1    1    2    0    0  0.38233047334E+00  0.31900050822E+00  0.59422578887E+02  0.59889479423E+02  0.74470750000E+01 0. -1.
        -31    1    1    2    0    0 -0.38233047334E+00 -0.31900050822E+00  0.58883325714E+02  0.59354468333E+02  0.74470750000E+01 0. -1.
<mgrwt>
<rscale>  0 0.14927559E+02</rscale>
<asrwt>0</asrwt>
<pdfrwt beam="2">  1        2 0.99611253E+00 0.14927559E+02</pdfrwt>
<pdfrwt beam="1">  1       -2 0.98599239E+00 0.14927559E+02</pdfrwt>
<totfact> 0.31110467E-13</totfact>
</mgrwt>
</event>
<event>
 4    1 -0.5021037E-019  0.1489732E+02  0.7818608E-02  0.1871218E+00
          2   -1    0    0  501    0  0.00000000000E+00  0.00000000000E+00  0.11839346282E+03  0.11839346284E+03  0.25500000000E-02 0. -1.
         -2   -1    0    0    0  501 -0.00000000000E+00 -0.00000000000E+00 -0.46862512797E+00  0.46863206577E+00  0.25500000000E-02 0.  1.
         31    1    1    2    0    0 -0.18182068884E-01 -0.25560660564E-01  0.57761473771E+02  0.58239572132E+02  0.74470750000E+01 0.  1.
        -31    1    1    2    0    0  0.18182068884E-01  0.25560660564E-01  0.60163363918E+02  0.60622522777E+02  0.74470750000E+01 0. -1.
<mgrwt>
<rscale>  0 0.14897324E+02</rscale>
<asrwt>0</asrwt>
<pdfrwt beam="1">  1        2 0.98283496E+00 0.14897324E+02</pdfrwt>
<pdfrwt beam="2">  1       -2 0.99526862E+00 0.14897324E+02</pdfrwt>
<totfact>-0.49361044E-13</totfact>
</mgrwt>
</event>
<event>
 4    1 -0.5021037E-019  0.1502101E+02  0.7818608E-02  0.1867428E+00
          2   -1    0    0  501    0  0.00000000000E+00  0.00000000000E+00  0.12015435608E+03  0.12015435610E+03  0.25500000000E-02 0. -1.
         -2   -1    0    0    0  501 -0.00000000000E+00 -0.00000000000E+00 -0.46945665810E+00  0.46946358361E+00  0.25500000000E-02 0.  1.
         31    1    1    2    0    0  0.90491883797E+00  0.22030437443E+00  0.57552132339E+02  0.58039420009E+02  0.74470750000E+01 0.  1.
        -31    1    1    2    0    0 -0.90491883797E+00 -0.22030437443E+00  0.62132767080E+02  0.62584399680E+02  0.74470750000E+01 0. -1.
<mgrwt>
<rscale>  0 0.15021010E+02</rscale>
<asrwt>0</asrwt>
<pdfrwt beam="1">  1        2 0.99740214E+00 0.15021010E+02</pdfrwt>
<pdfrwt beam="2">  1       -2 0.99708534E+00 0.15021010E+02</pdfrwt>
<totfact>-0.62632486E-14</totfact>
</mgrwt>
</event>
<event>
 4    1 -0.5021037E-019  0.1492094E+02  0.7818608E-02  0.1870491E+00
          2   -1    0    0  501    0  0.00000000000E+00  0.00000000000E+00  0.11890154172E+03  0.11890154174E+03  0.25500000000E-02 0.  1.
         -2   -1    0    0    0  501 -0.00000000000E+00 -0.00000000000E+00 -0.46810300736E+00  0.46810995290E+00  0.25500000000E-02 0. -1.
         31    1    1    2    0    0  0.23993834342E+00  0.27595105670E+00  0.57162379637E+02  0.57646598262E+02  0.74470750000E+01 0. -1.
        -31    1    1    2    0    0 -0.23993834342E+00 -0.27595105670E+00  0.61271059072E+02  0.61723053435E+02  0.74470750000E+01 0.  1.
<mgrwt>
<rscale>  0 0.14920936E+02</rscale>
<asrwt>0</asrwt>
<pdfrwt beam="1">  1        2 0.98703180E+00 0.14920936E+02</pdfrwt>
<pdfrwt beam="2">  1       -2 0.99418085E+00 0.14920936E+02</pdfrwt>
<totfact>-0.25156511E-13</totfact>
</mgrwt>
</event>
<event>
 4    1  0.5021037E-019  0.1491858E+02  0.7818608E-02  0.1870563E+00
         -2   -1    0    0    0  501 -0.00000000000E+00  0.00000000000E+00  0.11828139055E+03  0.11828139058E+03  0.25500000000E-02 0.  1.
          2   -1    0    0  501    0  0.00000000000E+00 -0.00000000000E+00 -0.47040841421E+00  0.47041532570E+00  0.25500000000E-02 0. -1.
         31    1    1    2    0    0  0.13849310975E-02  0.25624755959E+00  0.61621035201E+02  0.62069932898E+02  0.74470750000E+01 0.  1.
        -31    1    1    2    0    0 -0.13849310975E-02 -0.25624755959E+00  0.56189946939E+02  0.56681873009E+02  0.74470750000E+01 0. -1.
<mgrwt>
<rscale>  0 0.14918575E+02</rscale>
<asrwt>0</asrwt>
<pdfrwt beam="2">  1        2 0.99903718E+00 0.14918575E+02</pdfrwt>
<pdfrwt beam="1">  1       -2 0.98192302E+00 0.14918575E+02</pdfrwt>
<totfact> 0.29558697E-13</totfact>
</mgrwt>
</event>
<event>
 4    1 -0.5021037E-019  0.1492161E+02  0.7818608E-02  0.1870470E+00
          2   -1    0    0  501    0  0.00000000000E+00  0.00000000000E+00  0.11902655646E+03  0.11902655649E+03  0.25500000000E-02 0. -1.
         -2   -1    0    0    0  501 -0.00000000000E+00 -0.00000000000E+00 -0.46765372794E+00  0.46766068015E+00  0.25500000000E-02 0.  1.
         31    1    1    2    0    0  0.43925102363E-01 -0.37487427785E+00  0.57281528539E+02  0.57764824054E+02  0.74470750000E+01 0.  1.
        -31    1    1    2    0    0 -0.43925102363E-01  0.37487427785E+00  0.61277374195E+02  0.61729393116E+02  0.74470750000E+01 0. -1.
<mgrwt>
<rscale>  0 0.14921612E+02</rscale>
<asrwt>0</asrwt>
<pdfrwt beam="1">  1        2 0.98806179E+00 0.14921612E+02</pdfrwt>
<pdfrwt beam="2">  1       -2 0.99323449E+00 0.14921612E+02</pdfrwt>
<totfact>-0.19982193E-13</totfact>
</mgrwt>
</event>
<event>
 4    1 -0.5021037E-019  0.1493143E+02  0.7818608E-02  0.1870168E+00
         -2   -1    0    0    0  501 -0.00000000000E+00  0.00000000000E+00  0.12006858495E+03  0.12006858497E+03  0.25500000000E-02 0. -1.
          2   -1    0    0  501    0  0.00000000000E+00 -0.00000000000E+00 -0.46420503040E+00  0.46421203426E+00  0.25500000000E-02 0.  1.
         31    1    1    2    0    0 -0.26826350458E+00 -0.44889658582E+00  0.59262764365E+02  0.59731127895E+02  0.74470750000E+01 0. -1.
        -31    1    1    2    0    0  0.26826350458E+00  0.44889658582E+00  0.60341615552E+02  0.60801669113E+02  0.74470750000E+01 0.  1.
<mgrwt>
<rscale>  0 0.14931425E+02</rscale>
<asrwt>0</asrwt>
<pdfrwt beam="2">  1        2 0.98597172E+00 0.14931425E+02</pdfrwt>
<pdfrwt beam="1">  1       -2 0.99664950E+00 0.14931425E+02</pdfrwt>
<totfact>-0.25519068E-13</totfact>
</mgrwt>
</event>
<event>
 4    1  0.5021037E-019  0.1490625E+02  0.7818608E-02  0.1870943E+00
          2   -1    0    0  501    0  0.00000000000E+00  0.00000000000E+00  0.12036417739E+03  0.12036417742E+03  0.25500000000E-02 0.  1.
         -2   -1    0    0    0  501 -0.00000000000E+00 -0.00000000000E+00 -0.46150495639E+00  0.46151200122E+00  0.25500000000E-02 0. -1.
         31    1    1    2    0    0 -0.11608188146E+00 -0.20139180074E+00  0.58410570836E+02  0.58883849612E+02  0.74470750000E+01 0. -1.
        -31    1    1    2    0    0  0.11608188146E+00  0.20139180074E+00  0.61492101597E+02  0.61941839806E+02  0.74470750000E+01 0.  1.
<mgrwt>
<rscale>  0 0.14906253E+02</rscale>
<asrwt>0</asrwt>
<pdfrwt beam="1">  1        2 0.99907134E+00 0.14906253E+02</pdfrwt>
<pdfrwt beam="2">  1       -2 0.98026803E+00 0.14906253E+02</pdfrwt>
<totfact> 0.38809965E-13</totfact>
</mgrwt>
</event>
<event>
 4    1  0.5021037E-019  0.1490886E+02  0.7818608E-02  0.1870863E+00
         -2   -1    0    0    0  501 -0.00000000000E+00  0.00000000000E+00  0.11849570102E+03  0.11849570104E+03  0.25500000000E-02 0. -1.
          2   -1    0    0  501    0  0.00000000000E+00 -0.00000000000E+00 -0.46894609661E+00  0.46895302966E+00  0.25500000000E-02 0.  1.
         31    1    1    2    0    0  0.19789564633E+00  0.23132109071E+00  0.60051084632E+02  0.60511853084E+02  0.74470750000E+01 0.  1.
        -31    1    1    2    0    0 -0.19789564633E+00 -0.23132109071E+00  0.57975670287E+02  0.58452800989E+02  0.74470750000E+01 0.  1.
<mgrwt>
<rscale>  0 0.14908858E+02</rscale>
<asrwt>0</asrwt>
<pdfrwt beam="2">  1        2 0.99595099E+00 0.14908858E+02</pdfrwt>
<pdfrwt beam="1">  1       -2 0.98368300E+00 0.14908858E+02</pdfrwt>
<totfact> 0.60717587E-13</totfact>
</mgrwt>
</event>
<event>
 4    1 -0.5021037E-019  0.1489950E+02  0.7818608E-02  0.1871151E+00
          2   -1    0    0  501    0  0.00000000000E+00  0.00000000000E+00  0.11826544990E+03  0.11826544993E+03  0.25500000000E-02 0.  1.
         -2   -1    0    0    0  501 -0.00000000000E+00 -0.00000000000E+00 -0.46926954647E+00  0.46927647474E+00  0.25500000000E-02 0. -1.
         31    1    1    2    0    0  0.23800578556E-01  0.14800415312E-01  0.60473370237E+02  0.60930191361E+02  0.74470750000E+01 0.  1.
        -31    1    1    2    0    0 -0.23800578556E-01 -0.14800415312E-01  0.57322810119E+02  0.57804535043E+02  0.74470750000E+01 0. -1.
<mgrwt>
<rscale>  0 0.14899502E+02</rscale>
<asrwt>0</asrwt>
<pdfrwt beam="1">  1        2 0.98178179E+00 0.14899502E+02</pdfrwt>
<pdfrwt beam="2">  1       -2 0.99662756E+00 0.14899502E+02</pdfrwt>
<totfact>-0.51199524E-13</totfact>
</mgrwt>
</event>
<event>
 4    1 -0.5021037E-019  0.1496797E+02  0.7818608E-02  0.1869047E+00
         -2   -1    0    0    0  501 -0.00000000000E+00  0.00000000000E+00  0.11958420433E+03  0.11958420435E+03  0.25500000000E-02 0.  1.
          2   -1    0    0  501    0  0.00000000000E+00 -0.00000000000E+00 -0.46836967536E+00  0.46837661694E+00  0.25500000000E-02 0. -1.
         31    1    1    2    0    0 -0.65689144920E+00  0.31928431978E+00  0.58492097584E+02  0.58968787122E+02  0.74470750000E+01 0.  1.
        -31    1    1    2    0    0  0.65689144920E+00 -0.31928431978E+00  0.60623737066E+02  0.61083793847E+02  0.74470750000E+01 0.  1.
<mgrwt>
<rscale>  0 0.14967970E+02</rscale>
<asrwt>0</asrwt>
<pdfrwt beam="2">  1        2 0.99476727E+00 0.14967970E+02</pdfrwt>
<pdfrwt beam="1">  1       -2 0.99267874E+00 0.14967970E+02</pdfrwt>
<totfact>-0.99116130E-14</totfact>
</mgrwt>
</event>
<event>
 4    1  0.5021037E-019  0.1492043E+02  0.7818608E-02  0.1870506E+00
          2   -1    0    0  501    0  0.00000000000E+00  0.00000000000E+00  0.12010929499E+03  0.12010929502E+03  0.25500000000E-02 0. -1.
         -2   -1    0    0    0  501 -0.00000000000E+00 -0.00000000000E+00 -0.46336444723E+00  0.46337146380E+00  0.25500000000E-02 0.  1.
         31    1    1    2    0    0  0.74541831780E-01 -0.11450488825E+00  0.56421163718E+02  0.56910678340E+02  0.74470750000E+01 0.  1.
        -31    1    1    2    0    0 -0.74541831780E-01  0.11450488825E+00  0.63224766828E+02  0.63661988143E+02  0.74470750000E+01 0. -1.
<mgrwt>
<rscale>  0 0.14920429E+02</rscale>
<asrwt>0</asrwt>
<pdfrwt beam="1">  1        2 0.99697917E+00 0.14920429E+02</pdfrwt>
<pdfrwt beam="2">  1       -2 0.98419450E+00 0.14920429E+02</pdfrwt>
<totfact> 0.44589426E-13</totfact>
</mgrwt>
</event>
<event>
 4    1  0.5021037E-019  0.1493457E+02  0.7818608E-02  0.1870072E+00
          2   -1    0    0  501    0  0.00000000000E+00  0.00000000000E+00  0.11985487025E+03  0.11985487028E+03  0.25500000000E-02 0. -1.
         -2   -1    0    0    0  501 -0.00000000000E+00 -0.00000000000E+00 -0.46522887088E+00  0.46523585933E+00  0.25500000000E-02 0.  1.
         31    1    1    2    0    0 -0.38249896366E+00 -0.95207293983E-01  0.62773957540E+02  0.63215378201E+02  0.74470750000E+01 0. -1.
        -31    1    1    2    0    0  0.38249896366E+00  0.95207293983E-01  0.56615683842E+02  0.57104727938E+02  0.74470750000E+01 0.  1.
<mgrwt>
<rscale>  0 0.14934573E+02</rscale>
<asrwt>0</asrwt>
<pdfrwt beam="1">  1        2 0.99489082E+00 0.14934573E+02</pdfrwt>
<pdfrwt beam="2">  1       -2 0.98813113E+00 0.14934573E+02</pdfrwt>
<totfact> 0.14165380E-13</totfact>
</mgrwt>
</event>
<event>
 4    1  0.5021037E-019  0.1489964E+02  0.7818608E-02  0.1871146E+00
         -2   -1    0    0    0  501 -0.00000000000E+00  0.00000000000E+00  0.11882887721E+03  0.11882887723E+03  0.25500000000E-02 0. -1.
          2   -1    0    0  501    0  0.00000000000E+00 -0.00000000000E+00 -0.46705327357E+00  0.46706023471E+00  0.25500000000E-02 0.  1.
         31    1    1    2    0    0 -0.20864469101E-01  0.19186290585E+00  0.58696514933E+02  0.59167364637E+02  0.74470750000E+01 0.  1.
        -31    1    1    2    0    0  0.20864469101E-01 -0.19186290585E+00  0.59665308999E+02  0.60128572832E+02  0.74470750000E+01 0.  1.
<mgrwt>
<rscale>  0 0.14899642E+02</rscale>
<asrwt>0</asrwt>
<pdfrwt beam="2">  1        2 0.99195776E+00 0.14899642E+02</pdfrwt>
<pdfrwt beam="1">  1       -2 0.98642228E+00 0.14899642E+02</pdfrwt>
<totfact> 0.39175475E-13</totfact>
</mgrwt>
</event>
<event>
 4    1  0.5021037E-019  0.1491942E+02  0.7818608E-02  0.1870537E+00
         -2   -1    0    0    0  501 -0.00000000000E+00  0.00000000000E+00  0.11879333216E+03  0.11879333219E+03  0.25500000000E-02 0.  1.
          2   -1    0    0  501    0  0.00000000000E+00 -0.00000000000E+00 -0.46843447475E+00  0.46844141537E+00  0.25500000000E-02 0. -1.
         31    1    1    2    0    0  0.85522528372E-01  0.37548119513E+00  0.57562078476E+02  0.58043088346E+02  0.74470750000E+01 0. -1.
        -31    1    1    2    0    0 -0.85522528372E-01 -0.37548119513E+00  0.60762819210E+02  0.61218685258E+02  0.74470750000E+01 0.  1.
<mgrwt>
<rscale>  0 0.14919425E+02</rscale>
<asrwt>0</asrwt>
<pdfrwt beam="2">  1        2 0.99487851E+00 0.14919425E+02</pdfrwt>
<pdfrwt beam="1">  1       -2 0.98613979E+00 0.14919425E+02</pdfrwt>
<totfact> 0.34433377E-13</totfact>
</mgrwt>
</event>
<event>
 4    1  0.5021037E-019  0.1492931E+02  0.7818608E-02  0.1870233E+00
         -2   -1    0    0    0  501 -0.00000000000E+00  0.00000000000E+00  0.11902121627E+03  0.11902121629E+03  0.25500000000E-02 0. -1.
          2   -1    0    0  501    0  0.00000000000E+00 -0.00000000000E+00 -0.46815733851E+00  0.46816428324E+00  0.25500000000E-02 0.  1.
         31    1    1    2    0    0 -0.47945153415E+00 -0.93574656794E-02  0.60712403148E+02  0.61169312431E+02  0.74470750000E+01 0. -1.
        -31    1    1    2    0    0  0.47945153415E+00  0.93574656794E-02  0.57840655781E+02  0.58320068147E+02  0.74470750000E+01 0.  1.
<mgrwt>
<rscale>  0 0.14929310E+02</rscale>
<asrwt>0</asrwt>
<pdfrwt beam="2">  1        2 0.99429971E+00 0.14929310E+02</pdfrwt>
<pdfrwt beam="1">  1       -2 0.98802180E+00 0.14929310E+02</pdfrwt>
<totfact> 0.15956782E-13</totfact>
</mgrwt>
</event>
<event>
 4    1 -0.5021037E-019  0.1494219E+02  0.7818608E-02  0.1869838E+00
         -2   -1    0    0    0  501 -0.00000000000E+00  0.00000000000E+00  0.11983054093E+03  0.11983054095E+03  0.25500000000E-02 0.  1.
          2   -1    0    0  501    0  0.00000000000E+00 -0.00000000000E+00 -0.46579823098E+00  0.46580521089E+00  0.25500000000E-02 0. -1.
         31    1    1    2    0    0  0.19468445824E+00  0.40024848643E+00  0.62905184340E+02  0.63346027846E+02  0.74470750000E+01 0.  1.
        -31    1    1    2    0    0 -0.19468445824E+00 -0.40024848643E+00  0.56459558355E+02  0.56950318318E+02  0.74470750000E+01 0. -1.
<mgrwt>
<rscale>  0 0.14942192E+02</rscale>
<asrwt>0</asrwt>
<pdfrwt beam="2">  1        2 0.98933496E+00 0.14942192E+02</pdfrwt>
<pdfrwt beam="1">  1       -2 0.99469436E+00 0.14942192E+02</pdfrwt>
<totfact>-0.19141010E-13</totfact>
</mgrwt>
</event>
<event>
 4    1 -0.5021037E-019  0.1499027E+02  0.7818608E-02  0.1868366E+00
         -2   -1    0    0    0  501 -0.00000000000E+00  0.00000000000E+00  0.11978100758E+03  0.11978100760E+03  0.25500000000E-02 0.  1.
          2   -1    0    0  501    0  0.00000000000E+00 -0.00000000000E+00 -0.46899454204E+00  0.46900147437E+00  0.25500000000E-02 0. -1.
         31    1    1    2    0    0  0.65542269988E+00  0.15900854969E+00  0.63772004122E+02  0.64208895789E+02  0.74470750000E+01 0.  1.
        -31    1    1    2    0    0 -0.65542269988E+00 -0.15900854969E+00  0.55540008912E+02  0.56041113289E+02  0.74470750000E+01 0. -1.
<mgrwt>
<rscale>  0 0.14990271E+02</rscale>
<asrwt>0</asrwt>
<pdfrwt beam="2">  1        2 0.99609561E+00 0.14990271E+02</pdfrwt>
<pdfrwt beam="1">  1       -2 0.99431121E+00 0.14990271E+02</pdfrwt>
<totfact>-0.10346868E-13</totfact>
</mgrwt>
</event>
<event>
 4    1 -0.5021037E-019  0.1494832E+02  0.7818608E-02  0.1869650E+00
          2   -1    0    0  501    0  0.00000000000E+00  0.00000000000E+00  0.11886094264E+03  0.11886094267E+03  0.25500000000E-02 0.  1.
         -2   -1    0    0    0  501 -0.00000000000E+00 -0.00000000000E+00 -0.46998299336E+00  0.46998991112E+00  0.25500000000E-02 0. -1.
         31    1    1    2    0    0  0.12073159435E+00  0.15348723112E+00  0.64024808642E+02  0.64456754356E+02  0.74470750000E+01 0.  1.
        -31    1    1    2    0    0 -0.12073159435E+00 -0.15348723112E+00  0.54366151009E+02  0.54874178226E+02  0.74470750000E+01 0. -1.
<mgrwt>
<rscale>  0 0.14948316E+02</rscale>
<asrwt>0</asrwt>
<pdfrwt beam="1">  1        2 0.98671164E+00 0.14948316E+02</pdfrwt>
<pdfrwt beam="2">  1       -2 0.99815654E+00 0.14948316E+02</pdfrwt>
<totfact>-0.14812216E-13</totfact>
</mgrwt>
</event>
<event>
 4    1 -0.5021037E-019  0.1494707E+02  0.7818608E-02  0.1869688E+00
          2   -1    0    0  501    0  0.00000000000E+00  0.00000000000E+00  0.11943199405E+03  0.11943199408E+03  0.25500000000E-02 0.  1.
         -2   -1    0    0    0  501 -0.00000000000E+00 -0.00000000000E+00 -0.46765789789E+00  0.46766485004E+00  0.25500000000E-02 0. -1.
         31    1    1    2    0    0 -0.36905258991E+00  0.24048631958E+00  0.63076479848E+02  0.63516102443E+02  0.74470750000E+01 0.  1.
        -31    1    1    2    0    0  0.36905258991E+00 -0.24048631958E+00  0.55887856303E+02  0.56383556483E+02  0.74470750000E+01 0.  1.
<mgrwt>
<rscale>  0 0.14947071E+02</rscale>
<asrwt>0</asrwt>
<pdfrwt beam="1">  1        2 0.99141427E+00 0.14947071E+02</pdfrwt>
<pdfrwt beam="2">  1       -2 0.99325651E+00 0.14947071E+02</pdfrwt>
<totfact>-0.14315330E-13</totfact>
</mgrwt>
</event>
<event>
 4    1 -0.5021037E-019  0.1494993E+02  0.7818608E-02  0.1869600E+00
         -2   -1    0    0    0  501 -0.00000000000E+00  0.00000000000E+00  0.11980177256E+03  0.11980177259E+03  0.25500000000E-02 0. -1.
          2   -1    0    0  501    0  0.00000000000E+00 -0.00000000000E+00 -0.46639270710E+00  0.46639967810E+00  0.25500000000E-02 0.  1.
         31    1    1    2    0    0 -0.45414247492E+00 -0.13598621440E+00  0.63187479949E+02  0.63626576884E+02  0.74470750000E+01 0. -1.
        -31    1    1    2    0    0  0.45414247492E+00  0.13598621440E+00  0.56147899905E+02  0.56641595382E+02  0.74470750000E+01 0.  1.
<mgrwt>
<rscale>  0 0.14949929E+02</rscale>
<asrwt>0</asrwt>
<pdfrwt beam="2">  1        2 0.99059176E+00 0.14949929E+02</pdfrwt>
<pdfrwt beam="1">  1       -2 0.99446140E+00 0.14949929E+02</pdfrwt>
<totfact>-0.16905062E-13</totfact>
</mgrwt>
</event>
<event>
 4    1 -0.5021037E-019  0.1495334E+02  0.7818608E-02  0.1869496E+00
         -2   -1    0    0    0  501 -0.00000000000E+00  0.00000000000E+00  0.11959203046E+03  0.11959203049E+03  0.25500000000E-02 0.  1.
          2   -1    0    0  501    0  0.00000000000E+00 -0.00000000000E+00 -0.46742378797E+00  0.46743074360E+00  0.25500000000E-02 0. -1.
         31    1    1    2    0    0  0.28701033138E+00  0.14022794992E+00  0.64241283065E+02  0.64672277018E+02  0.74470750000E+01 0.  1.
        -31    1    1    2    0    0 -0.28701033138E+00 -0.14022794992E+00  0.54883323611E+02  0.55387184217E+02  0.74470750000E+01 0. -1.
<mgrwt>
<rscale>  0 0.14953338E+02</rscale>
<asrwt>0</asrwt>
<pdfrwt beam="2">  1        2 0.99276641E+00 0.14953338E+02</pdfrwt>
<pdfrwt beam="1">  1       -2 0.99273563E+00 0.14953338E+02</pdfrwt>
<totfact>-0.11781248E-13</totfact>
</mgrwt>
</event>
<event>
 4    1 -0.5021037E-019  0.1495370E+02  0.7818608E-02  0.1869485E+00
          2   -1    0    0  501    0  0.00000000000E+00  0.00000000000E+00  0.11881672192E+03  0.11881672194E+03  0.25500000000E-02 0. -1.
         -2   -1    0    0    0  501 -0.00000000000E+00 -0.00000000000E+00 -0.47049677320E+00  0.47050368340E+00  0.25500000000E-02 0.  1.
         31    1    1    2    0    0  0.19486529876E+00 -0.49310906781E+00  0.55950096681E+02  0.56446021771E+02  0.74470750000E+01 0. -1.
        -31    1    1    2    0    0 -0.19486529876E+00  0.49310906781E+00  0.62396128461E+02  0.62841203855E+02  0.74470750000E+01 0. -1.
<mgrwt>
<rscale>  0 0.14953702E+02</rscale>
<asrwt>0</asrwt>
<pdfrwt beam="1">  1        2 0.98635024E+00 0.14953702E+02</pdfrwt>
<pdfrwt beam="2">  1       -2 0.99924193E+00 0.14953702E+02</pdfrwt>
<totfact>-0.70615558E-14</totfact>
</mgrwt>
</event>
<event>
 4    1 -0.5021037E-019  0.1499674E+02  0.7818608E-02  0.1868168E+00
          2   -1    0    0  501    0  0.00000000000E+00  0.00000000000E+00  0.11986894876E+03  0.11986894879E+03  0.25500000000E-02 0.  1.
         -2   -1    0    0    0  501 -0.00000000000E+00 -0.00000000000E+00 -0.46905485638E+00  0.46906178782E+00  0.25500000000E-02 0. -1.
         31    1    1    2    0    0  0.14537116922E+00  0.86340348007E+00  0.59678969412E+02  0.60148191282E+02  0.74470750000E+01 0. -1.
        -31    1    1    2    0    0 -0.14537116922E+00 -0.86340348007E+00  0.59720924494E+02  0.60189819295E+02  0.74470750000E+01 0. -1.
<mgrwt>
<rscale>  0 0.14996737E+02</rscale>
<asrwt>0</asrwt>
<pdfrwt beam="1">  1        2 0.99503887E+00 0.14996737E+02</pdfrwt>
<pdfrwt beam="2">  1       -2 0.99622606E+00 0.14996737E+02</pdfrwt>
<totfact>-0.10857740E-13</totfact>
</mgrwt>
</event>
<event>
 4    1 -0.5021037E-019  0.1498285E+02  0.7818608E-02  0.1868592E+00
          2   -1    0    0  501    0  0.00000000000E+00  0.00000000000E+00  0.12005210313E+03  0.12005210315E+03  0.25500000000E-02 0. -1.
         -2   -1    0    0    0  501 -0.00000000000E+00 -0.00000000000E+00 -0.46747204770E+00  0.46747900261E+00  0.25500000000E-02 0.  1.
         31    1    1    2    0    0  0.23748409750E+00 -0.69886503599E+00  0.57032844055E+02  0.57521726661E+02  0.74470750000E+01 0.  1.
        -31    1    1    2    0    0 -0.23748409750E+00  0.69886503599E+00  0.62551787024E+02  0.62997855495E+02  0.74470750000E+01 0.  1.
<mgrwt>
<rscale>  0 0.14982847E+02</rscale>
<asrwt>0</asrwt>
<pdfrwt beam="1">  1        2 0.99654023E+00 0.14982847E+02</pdfrwt>
<pdfrwt beam="2">  1       -2 0.99288332E+00 0.14982847E+02</pdfrwt>
<totfact>-0.81997054E-14</totfact>
</mgrwt>
</event>
<event>
 4    1 -0.5021037E-019  0.1497505E+02  0.7818608E-02  0.1868831E+00
         -2   -1    0    0    0  501 -0.00000000000E+00  0.00000000000E+00  0.11964134619E+03  0.11964134622E+03  0.25500000000E-02 0.  1.
          2   -1    0    0  501    0  0.00000000000E+00 -0.00000000000E+00 -0.46858912133E+00  0.46859605966E+00  0.25500000000E-02 0. -1.
         31    1    1    2    0    0 -0.37393660767E+00  0.52406183340E+00  0.63079342167E+02  0.63520680126E+02  0.74470750000E+01 0.  1.
        -31    1    1    2    0    0  0.37393660767E+00 -0.52406183340E+00  0.56093414903E+02  0.56589262152E+02  0.74470750000E+01 0. -1.
<mgrwt>
<rscale>  0 0.14975053E+02</rscale>
<asrwt>0</asrwt>
<pdfrwt beam="2">  1        2 0.99523338E+00 0.14975053E+02</pdfrwt>
<pdfrwt beam="1">  1       -2 0.99315304E+00 0.14975053E+02</pdfrwt>
<totfact>-0.10361603E-13</totfact>
</mgrwt>
</event>
<event>
 4    1  0.5021037E-019  0.1489836E+02  0.7818608E-02  0.1871186E+00
          2   -1    0    0  501    0  0.00000000000E+00  0.00000000000E+00  0.11981272368E+03  0.11981272371E+03  0.25500000000E-02 0.  1.
         -2   -1    0    0    0  501 -0.00000000000E+00 -0.00000000000E+00 -0.46313840524E+00  0.46314542523E+00  0.25500000000E-02 0. -1.
         31    1    1    2    0    0  0.17254250700E+00 -0.40001592204E-01  0.59680339832E+02  0.60143439040E+02  0.74470750000E+01 0.  1.
        -31    1    1    2    0    0 -0.17254250700E+00  0.40001592204E-01  0.59669245442E+02  0.60132430092E+02  0.74470750000E+01 0. -1.
<mgrwt>
<rscale>  0 0.14898362E+02</rscale>
<asrwt>0</asrwt>
<pdfrwt beam="1">  1        2 0.99452504E+00 0.14898362E+02</pdfrwt>
<pdfrwt beam="2">  1       -2 0.98370688E+00 0.14898362E+02</pdfrwt>
<totfact> 0.70932942E-13</totfact>
</mgrwt>
</event>
<event>
 4    1 -0.5021037E-019  0.1493359E+02  0.7818608E-02  0.1870102E+00
         -2   -1    0    0    0  501 -0.00000000000E+00  0.00000000000E+00  0.11964081082E+03  0.11964081085E+03  0.25500000000E-02 0. -1.
          2   -1    0    0  501    0  0.00000000000E+00 -0.00000000000E+00 -0.46599968546E+00  0.46600666234E+00  0.25500000000E-02 0.  1.
         31    1    1    2    0    0 -0.23184509117E+00 -0.43939595375E+00  0.61335729932E+02  0.61788166450E+02  0.74470750000E+01 0. -1.
        -31    1    1    2    0    0  0.23184509117E+00  0.43939595375E+00  0.57839081204E+02  0.58318651060E+02  0.74470750000E+01 0.  1.
<mgrwt>
<rscale>  0 0.14933586E+02</rscale>
<asrwt>0</asrwt>
<pdfrwt beam="2">  1        2 0.98975509E+00 0.14933586E+02</pdfrwt>
<pdfrwt beam="1">  1       -2 0.99312720E+00 0.14933586E+02</pdfrwt>
<totfact>-0.16223609E-13</totfact>
</mgrwt>
</event>
<event>
 4    1 -0.5021037E-019  0.1497556E+02  0.7818608E-02  0.1868815E+00
          2   -1    0    0  501    0  0.00000000000E+00  0.00000000000E+00  0.11925917807E+03  0.11925917810E+03  0.25500000000E-02 0. -1.
         -2   -1    0    0    0  501 -0.00000000000E+00 -0.00000000000E+00 -0.47012279872E+00  0.47012971442E+00  0.25500000000E-02 0.  1.
         31    1    1    2    0    0 -0.49004361255E+00  0.37973681393E+00  0.55613947840E+02  0.56113763581E+02  0.74470750000E+01 0.  1.
        -31    1    1    2    0    0  0.49004361255E+00 -0.37973681393E+00  0.63175107433E+02  0.63615544233E+02  0.74470750000E+01 0. -1.
<mgrwt>
<rscale>  0 0.14975563E+02</rscale>
<asrwt>0</asrwt>
<pdfrwt beam="1">  1        2 0.99000569E+00 0.14975563E+02</pdfrwt>
<pdfrwt beam="2">  1       -2 0.99846542E+00 0.14975563E+02</pdfrwt>
<totfact>-0.85043536E-14</totfact>
</mgrwt>
</event>
<event>
 4    1 -0.5021037E-019  0.1491365E+02  0.7818608E-02  0.1870715E+00
         -2   -1    0    0    0  501 -0.00000000000E+00  0.00000000000E+00  0.11979848396E+03  0.11979848399E+03  0.25500000000E-02 0. -1.
          2   -1    0    0  501    0  0.00000000000E+00 -0.00000000000E+00 -0.46414469374E+00  0.46415169851E+00  0.25500000000E-02 0.  1.
         31    1    1    2    0    0  0.31740720555E+00  0.13815917417E+00  0.58379661834E+02  0.58853748201E+02  0.74470750000E+01 0.  1.
        -31    1    1    2    0    0 -0.31740720555E+00 -0.13815917417E+00  0.60954677437E+02  0.61408887490E+02  0.74470750000E+01 0. -1.
<mgrwt>
<rscale>  0 0.14913652E+02</rscale>
<asrwt>0</asrwt>
<pdfrwt beam="2">  1        2 0.98583550E+00 0.14913652E+02</pdfrwt>
<pdfrwt beam="1">  1       -2 0.99441562E+00 0.14913652E+02</pdfrwt>
<totfact>-0.30339992E-13</totfact>
</mgrwt>
</event>
<event>
 4    1 -0.5021037E-019  0.1499127E+02  0.7818608E-02  0.1868335E+00
          2   -1    0    0  501    0  0.00000000000E+00  0.00000000000E+00  0.11953229083E+03  0.11953229086E+03  0.25500000000E-02 0.  1.
         -2   -1    0    0    0  501 -0.00000000000E+00 -0.00000000000E+00 -0.47003317201E+00  0.47004008902E+00  0.25500000000E-02 0. -1.
         31    1    1    2    0    0  0.20896450463E-01  0.46364751172E+00  0.65248979523E+02  0.65674223715E+02  0.74470750000E+01 0.  1.
        -31    1    1    2    0    0 -0.20896450463E-01 -0.46364751172E+00  0.53813278138E+02  0.54328107235E+02  0.74470750000E+01 0. -1.
<mgrwt>
<rscale>  0 0.14991272E+02</rscale>
<asrwt>0</asrwt>
<pdfrwt beam="1">  1        2 0.99226323E+00 0.14991272E+02</pdfrwt>
<pdfrwt beam="2">  1       -2 0.99828478E+00 0.14991272E+02</pdfrwt>
<totfact>-0.77799429E-14</totfact>
</mgrwt>
</event>
<event>
 4    1 -0.5021037E-019  0.1495331E+02  0.7818608E-02  0.1869497E+00
         -2   -1    0    0    0  501 -0.00000000000E+00  0.00000000000E+00  0.11973506870E+03  0.11973506873E+03  0.25500000000E-02 0. -1.
          2   -1    0    0  501    0  0.00000000000E+00 -0.00000000000E+00 -0.46686366032E+00  0.46687062429E+00  0.25500000000E-02 0.  1.
         31    1    1    2    0    0 -0.30324732719E+00  0.54277026736E+00  0.61517374518E+02  0.61969612328E+02  0.74470750000E+01 0. -1.
        -31    1    1    2    0    0  0.30324732719E+00 -0.54277026736E+00  0.57750830523E+02  0.58232327024E+02  0.74470750000E+01 0. -1.
<mgrwt>
<rscale>  0 0.14953310E+02</rscale>
<asrwt>0</asrwt>
<pdfrwt beam="2">  1        2 0.99158600E+00 0.14953310E+02</pdfrwt>
<pdfrwt beam="1">  1       -2 0.99391374E+00 0.14953310E+02</pdfrwt>
<totfact>-0.15182270E-13</totfact>
</mgrwt>
</event>
<event>
 4    1  0.5021037E-019  0.1489741E+02  0.7818608E-02  0.1871215E+00
          2   -1    0    0  501    0  0.00000000000E+00  0.00000000000E+00  0.12039716214E+03  0.12039716217E+03  0.25500000000E-02 0.  1.
         -2   -1    0    0    0  501 -0.00000000000E+00 -0.00000000000E+00 -0.46083114456E+00  0.46083819969E+00  0.25500000000E-02 0. -1.
         31    1    1    2    0    0  0.41843495160E-01  0.12306554295E+00  0.59271799361E+02  0.59737944571E+02  0.74470750000E+01 0. -1.
        -31    1    1    2    0    0 -0.41843495160E-01 -0.12306554295E+00  0.60664531637E+02  0.61120055799E+02  0.74470750000E+01 0.  1.
<mgrwt>
<rscale>  0 0.14897408E+02</rscale>
<asrwt>0</asrwt>
<pdfrwt beam="1">  1        2 0.99933851E+00 0.14897408E+02</pdfrwt>
<pdfrwt beam="2">  1       -2 0.97884331E+00 0.14897408E+02</pdfrwt>
<totfact> 0.35933805E-13</totfact>
</mgrwt>
</event>
<event>
 4    1  0.5021037E-019  0.1492308E+02  0.7818608E-02  0.1870425E+00
          2   -1    0    0  501    0  0.00000000000E+00  0.00000000000E+00  0.11985410641E+03  0.11985410644E+03  0.25500000000E-02 0.  1.
         -2   -1    0    0    0  501 -0.00000000000E+00 -0.00000000000E+00 -0.46451612935E+00  0.46452312851E+00  0.25500000000E-02 0. -1.
         31    1    1    2    0    0 -0.20832930086E+00 -0.32087646786E+00  0.61817253685E+02  0.62265384782E+02  0.74470750000E+01 0.  1.
        -31    1    1    2    0    0  0.20832930086E+00  0.32087646786E+00  0.57572336599E+02  0.58053244787E+02  0.74470750000E+01 0. -1.
<mgrwt>
<rscale>  0 0.14923081E+02</rscale>
<asrwt>0</asrwt>
<pdfrwt beam="1">  1        2 0.99487861E+00 0.14923081E+02</pdfrwt>
<pdfrwt beam="2">  1       -2 0.98662313E+00 0.14923081E+02</pdfrwt>
<totfact> 0.28910216E-13</totfact>
</mgrwt>
</event>
<event>
 4    1  0.5021037E-019  0.1493290E+02  0.7818608E-02  0.1870123E+00
         -2   -1    0    0    0  501 -0.00000000000E+00  0.00000000000E+00  0.11922133033E+03  0.11922133036E+03  0.25500000000E-02 0. -1.
          2   -1    0    0  501    0  0.00000000000E+00 -0.00000000000E+00 -0.46759611837E+00  0.46760307144E+00  0.25500000000E-02 0.  1.
         31    1    1    2    0    0  0.15589104888E+00  0.51241530592E+00  0.59739900012E+02  0.60204663034E+02  0.74470750000E+01 0. -1.
        -31    1    1    2    0    0 -0.15589104888E+00 -0.51241530592E+00  0.59013834198E+02  0.59484270393E+02  0.74470750000E+01 0.  1.
<mgrwt>
<rscale>  0 0.14932896E+02</rscale>
<asrwt>0</asrwt>
<pdfrwt beam="2">  1        2 0.99311897E+00 0.14932896E+02</pdfrwt>
<pdfrwt beam="1">  1       -2 0.98967184E+00 0.14932896E+02</pdfrwt>
<totfact> 0.32560641E-14</totfact>
</mgrwt>
</event>
<event>
 4    1 -0.5021037E-019  0.1494888E+02  0.7818608E-02  0.1869632E+00
          2   -1    0    0  501    0  0.00000000000E+00  0.00000000000E+00  0.11908228291E+03  0.11908228293E+03  0.25500000000E-02 0. -1.
         -2   -1    0    0    0  501 -0.00000000000E+00 -0.00000000000E+00 -0.46914494553E+00  0.46915187564E+00  0.25500000000E-02 0.  1.
         31    1    1    2    0    0 -0.44163857952E+00  0.45740539976E+00  0.59817187215E+02  0.60282328063E+02  0.74470750000E+01 0. -1.
        -31    1    1    2    0    0  0.44163857952E+00 -0.45740539976E+00  0.58795950746E+02  0.59269106747E+02  0.74470750000E+01 0. -1.
<mgrwt>
<rscale>  0 0.14948882E+02</rscale>
<asrwt>0</asrwt>
<pdfrwt beam="1">  1        2 0.98853491E+00 0.14948882E+02</pdfrwt>
<pdfrwt beam="2">  1       -2 0.99639099E+00 0.14948882E+02</pdfrwt>
<totfact>-0.18665882E-13</totfact>
</mgrwt>
</event>
<event>
 4    1 -0.5021037E-019  0.1490927E+02  0.7818608E-02  0.1870850E+00
         -2   -1    0    0    0  501 -0.00000000000E+00  0.00000000000E+00  0.11979897117E+03  0.11979897120E+03  0.25500000000E-02 0.  1.
          2   -1    0    0  501    0  0.00000000000E+00 -0.00000000000E+00 -0.46387015640E+00  0.46387716532E+00  0.25500000000E-02 0. -1.
         31    1    1    2    0    0  0.61605964822E-01  0.88420831175E-01  0.57103389089E+02  0.57587043552E+02  0.74470750000E+01 0. -1.
        -31    1    1    2    0    0 -0.61605964822E-01 -0.88420831175E-01  0.62231711929E+02  0.62675804815E+02  0.74470750000E+01 0.  1.
<mgrwt>
<rscale>  0 0.14909271E+02</rscale>
<asrwt>0</asrwt>
<pdfrwt beam="2">  1        2 0.98525466E+00 0.14909271E+02</pdfrwt>
<pdfrwt beam="1">  1       -2 0.99441737E+00 0.14909271E+02</pdfrwt>
<totfact>-0.33256234E-13</totfact>
</mgrwt>
</event>
<event>
 4    1 -0.5021037E-019  0.1499962E+02  0.7818608E-02  0.1868080E+00
          2   -1    0    0  501    0  0.00000000000E+00  0.00000000000E+00  0.11980833719E+03  0.11980833722E+03  0.25500000000E-02 0. -1.
         -2   -1    0    0    0  501 -0.00000000000E+00 -0.00000000000E+00 -0.46947249293E+00  0.46947941821E+00  0.25500000000E-02 0.  1.
         31    1    1    2    0    0 -0.10309045107E+00  0.49490677375E-01  0.52609611614E+02  0.53134200260E+02  0.74470750000E+01 0.  1.
        -31    1    1    2    0    0  0.10309045107E+00 -0.49490677375E-01  0.66729253083E+02  0.67143616376E+02  0.74470750000E+01 0. -1.
<mgrwt>
<rscale>  0 0.14999618E+02</rscale>
<asrwt>0</asrwt>
<pdfrwt beam="1">  1        2 0.99454114E+00 0.14999618E+02</pdfrwt>
<pdfrwt beam="2">  1       -2 0.99710764E+00 0.14999618E+02</pdfrwt>
<totfact>-0.97540170E-14</totfact>
</mgrwt>
</event>
<event>
 4    1  0.5021037E-019  0.1495209E+02  0.7818608E-02  0.1869534E+00
          2   -1    0    0  501    0  0.00000000000E+00  0.00000000000E+00  0.12022347219E+03  0.12022347221E+03  0.25500000000E-02 0.  1.
         -2   -1    0    0    0  501 -0.00000000000E+00 -0.00000000000E+00 -0.46489110113E+00  0.46489809465E+00  0.25500000000E-02 0. -1.
         31    1    1    2    0    0 -0.40866374927E+00 -0.52235186478E-03  0.64036896352E+02  0.64469760561E+02  0.74470750000E+01 0.  1.
        -31    1    1    2    0    0  0.40866374927E+00  0.52235186478E-03  0.55721684733E+02  0.56218609747E+02  0.74470750000E+01 0.  1.
<mgrwt>
<rscale>  0 0.14952090E+02</rscale>
<asrwt>0</asrwt>
<pdfrwt beam="1">  1        2 0.99793589E+00 0.14952090E+02</pdfrwt>
<pdfrwt beam="2">  1       -2 0.98742820E+00 0.14952090E+02</pdfrwt>
<totfact> 0.11446185E-13</totfact>
</mgrwt>
</event>
<event>
 4    1 -0.5021037E-019  0.1496961E+02  0.7818608E-02  0.1868997E+00
          2   -1    0    0  501    0  0.00000000000E+00  0.00000000000E+00  0.11967818726E+03  0.11967818729E+03  0.25500000000E-02 0.  1.
         -2   -1    0    0    0  501 -0.00000000000E+00 -0.00000000000E+00 -0.46810443717E+00  0.46811138268E+00  0.25500000000E-02 0. -1.
         31    1    1    2    0    0 -0.42967300442E+00 -0.56221752402E+00  0.61614365934E+02  0.62066816601E+02  0.74470750000E+01 0.  1.
        -31    1    1    2    0    0  0.42967300442E+00  0.56221752402E+00  0.57595716893E+02  0.58079482073E+02  0.74470750000E+01 0. -1.
<mgrwt>
<rscale>  0 0.14969610E+02</rscale>
<asrwt>0</asrwt>
<pdfrwt beam="1">  1        2 0.99345366E+00 0.14969610E+02</pdfrwt>
<pdfrwt beam="2">  1       -2 0.99420918E+00 0.14969610E+02</pdfrwt>
<totfact>-0.13491200E-13</totfact>
</mgrwt>
</event>
<event>
 4    1  0.5021037E-019  0.1492535E+02  0.7818608E-02  0.1870355E+00
         -2   -1    0    0    0  501 -0.00000000000E+00  0.00000000000E+00  0.11843993636E+03  0.11843993639E+03  0.25500000000E-02 0.  1.
          2   -1    0    0  501    0  0.00000000000E+00 -0.00000000000E+00 -0.47020530434E+00  0.47021221882E+00  0.25500000000E-02 0. -1.
         31    1    1    2    0    0 -0.39696250450E+00  0.10885191156E+00  0.56982865555E+02  0.57468907428E+02  0.74470750000E+01 0. -1.
        -31    1    1    2    0    0  0.39696250450E+00 -0.10885191156E+00  0.60986865503E+02  0.61441241182E+02  0.74470750000E+01 0.  1.
<mgrwt>
<rscale>  0 0.14925347E+02</rscale>
<asrwt>0</asrwt>
<pdfrwt beam="2">  1        2 0.99861283E+00 0.14925347E+02</pdfrwt>
<pdfrwt beam="1">  1       -2 0.98323231E+00 0.14925347E+02</pdfrwt>
<totfact> 0.30831923E-13</totfact>
</mgrwt>
</event>
<event>
 4    1  0.5021037E-019  0.1489995E+02  0.7818608E-02  0.1871137E+00
         -2   -1    0    0    0  501 -0.00000000000E+00  0.00000000000E+00  0.11790609887E+03  0.11790609889E+03  0.25500000000E-02 0. -1.
          2   -1    0    0  501    0  0.00000000000E+00 -0.00000000000E+00 -0.47072805662E+00  0.47073496342E+00  0.25500000000E-02 0.  1.
         31    1    1    2    0    0  0.14042360981E+00  0.70871256274E-01  0.59796879079E+02  0.60259027666E+02  0.74470750000E+01 0. -1.
        -31    1    1    2    0    0 -0.14042360981E+00 -0.70871256274E-01  0.57638491731E+02  0.58117806192E+02  0.74470750000E+01 0.  1.
<mgrwt>
<rscale>  0 0.14899949E+02</rscale>
<asrwt>0</asrwt>
<pdfrwt beam="2">  1        2 0.99970072E+00 0.14899949E+02</pdfrwt>
<pdfrwt beam="1">  1       -2 0.97882249E+00 0.14899949E+02</pdfrwt>
<totfact> 0.16976072E-13</totfact>
</mgrwt>
</event>
<event>
 4    1 -0.5021037E-019  0.1491472E+02  0.7818608E-02  0.1870682E+00
          2   -1    0    0  501    0  0.00000000000E+00  0.00000000000E+00  0.11865385648E+03  0.11865385650E+03  0.25500000000E-02 0. -1.
         -2   -1    0    0    0  501 -0.00000000000E+00 -0.00000000000E+00 -0.46868967933E+00  0.46869661617E+00  0.25500000000E-02 0.  1.
         31    1    1    2    0    0 -0.87009664225E-01 -0.61715959919E-01  0.62101721260E+02  0.62546735238E+02  0.74470750000E+01 0. -1.
        -31    1    1    2    0    0  0.87009664225E-01  0.61715959919E-01  0.56083445537E+02  0.56575817881E+02  0.74470750000E+01 0.  1.
<mgrwt>
<rscale>  0 0.14914725E+02</rscale>
<asrwt>0</asrwt>
<pdfrwt beam="1">  1        2 0.98498861E+00 0.14914725E+02</pdfrwt>
<pdfrwt beam="2">  1       -2 0.99541379E+00 0.14914725E+02</pdfrwt>
<totfact>-0.34226659E-13</totfact>
</mgrwt>
</event>
<event>
 4    1  0.5021037E-019  0.1492992E+02  0.7818608E-02  0.1870214E+00
         -2   -1    0    0    0  501 -0.00000000000E+00  0.00000000000E+00  0.11858102084E+03  0.11858102086E+03  0.25500000000E-02 0. -1.
          2   -1    0    0  501    0  0.00000000000E+00 -0.00000000000E+00 -0.46993396658E+00  0.46994088506E+00  0.25500000000E-02 0.  1.
         31    1    1    2    0    0 -0.55335225125E-01  0.37236398843E+00  0.56236089752E+02  0.56728286009E+02  0.74470750000E+01 0.  1.
        -31    1    1    2    0    0  0.55335225125E-01 -0.37236398843E+00  0.61874997117E+02  0.62322675739E+02  0.74470750000E+01 0.  1.
<mgrwt>
<rscale>  0 0.14929925E+02</rscale>
<asrwt>0</asrwt>
<pdfrwt beam="2">  1        2 0.99804355E+00 0.14929925E+02</pdfrwt>
<pdfrwt beam="1">  1       -2 0.98439665E+00 0.14929925E+02</pdfrwt>
<totfact> 0.30819048E-13</totfact>
</mgrwt>
</event>
<event>
 4    1 -0.5021037E-019  0.1493057E+02  0.7818608E-02  0.1870195E+00
         -2   -1    0    0    0  501 -0.00000000000E+00  0.00000000000E+00  0.12006177996E+03  0.12006177999E+03  0.25500000000E-02 0.  1.
          2   -1    0    0  501    0  0.00000000000E+00 -0.00000000000E+00 -0.46417799937E+00  0.46418500364E+00  0.25500000000E-02 0. -1.
         31    1    1    2    0    0  0.34572883918E+00 -0.27049955691E-01  0.56659109479E+02  0.57147474775E+02  0.74470750000E+01 0. -1.
        -31    1    1    2    0    0 -0.34572883918E+00  0.27049955691E-01  0.62938492482E+02  0.63378490216E+02  0.74470750000E+01 0. -1.
<mgrwt>
<rscale>  0 0.14930567E+02</rscale>
<asrwt>0</asrwt>
<pdfrwt beam="2">  1        2 0.98591431E+00 0.14930567E+02</pdfrwt>
<pdfrwt beam="1">  1       -2 0.99659301E+00 0.14930567E+02</pdfrwt>
<totfact>-0.25994693E-13</totfact>
</mgrwt>
</event>
<event>
 4    1 -0.5021037E-019  0.1494954E+02  0.7818608E-02  0.1869612E+00
         -2   -1    0    0    0  501 -0.00000000000E+00  0.00000000000E+00  0.11946101798E+03  0.11946101801E+03  0.25500000000E-02 0. -1.
          2   -1    0    0  501    0  0.00000000000E+00 -0.00000000000E+00 -0.46769878411E+00  0.46770573565E+00  0.25500000000E-02 0.  1.
         31    1    1    2    0    0 -0.10168559350E+00  0.60418955383E+00  0.57935303048E+02  0.58415183388E+02  0.74470750000E+01 0.  1.
        -31    1    1    2    0    0  0.10168559350E+00 -0.60418955383E+00  0.61058016152E+02  0.61513540359E+02  0.74470750000E+01 0. -1.
<mgrwt>
<rscale>  0 0.14949541E+02</rscale>
<asrwt>0</asrwt>
<pdfrwt beam="2">  1        2 0.99334395E+00 0.14949541E+02</pdfrwt>
<pdfrwt beam="1">  1       -2 0.99165460E+00 0.14949541E+02</pdfrwt>
<totfact>-0.77652790E-14</totfact>
</mgrwt>
</event>
<event>
 4    1 -0.5021037E-019  0.1494803E+02  0.7818608E-02  0.1869659E+00
         -2   -1    0    0    0  501 -0.00000000000E+00  0.00000000000E+00  0.12018775302E+03  0.12018775304E+03  0.25500000000E-02 0.  1.
          2   -1    0    0  501    0  0.00000000000E+00 -0.00000000000E+00 -0.46477646821E+00  0.46478346345E+00  0.25500000000E-02 0. -1.
         31    1    1    2    0    0 -0.37211882612E+00  0.32069579301E+00  0.63096312855E+02  0.63536170330E+02  0.74470750000E+01 0.  1.
        -31    1    1    2    0    0  0.37211882612E+00 -0.32069579301E+00  0.56626663694E+02  0.57116366178E+02  0.74470750000E+01 0. -1.
<mgrwt>
<rscale>  0 0.14948025E+02</rscale>
<asrwt>0</asrwt>
<pdfrwt beam="2">  1        2 0.98718453E+00 0.14948025E+02</pdfrwt>
<pdfrwt beam="1">  1       -2 0.99763959E+00 0.14948025E+02</pdfrwt>
<totfact>-0.16837878E-13</totfact>
</mgrwt>
</event>
<event>
 4    1 -0.5021037E-019  0.1498464E+02  0.7818608E-02  0.1868538E+00
          2   -1    0    0  501    0  0.00000000000E+00  0.00000000000E+00  0.11928643347E+03  0.11928643350E+03  0.25500000000E-02 0.  1.
         -2   -1    0    0    0  501 -0.00000000000E+00 -0.00000000000E+00 -0.47058507986E+00  0.47059198877E+00  0.25500000000E-02 0. -1.
         31    1    1    2    0    0  0.45528570180E+00  0.16948047893E+00  0.64708584760E+02  0.65137515123E+02  0.74470750000E+01 0.  1.
        -31    1    1    2    0    0 -0.45528570180E+00 -0.16948047893E+00  0.54107263635E+02  0.54619510368E+02  0.74470750000E+01 0. -1.
<mgrwt>
<rscale>  0 0.14984636E+02</rscale>
<asrwt>0</asrwt>
<pdfrwt beam="1">  1        2 0.99023488E+00 0.14984636E+02</pdfrwt>
<pdfrwt beam="2">  1       -2 0.99944426E+00 0.14984636E+02</pdfrwt>
<totfact>-0.32708426E-14</totfact>
</mgrwt>
</event>
<event>
 4    1 -0.5021037E-019  0.1493291E+02  0.7818608E-02  0.1870123E+00
         -2   -1    0    0    0  501 -0.00000000000E+00  0.00000000000E+00  0.12005782545E+03  0.12005782548E+03  0.25500000000E-02 0. -1.
          2   -1    0    0  501    0  0.00000000000E+00 -0.00000000000E+00 -0.46433867092E+00  0.46434567276E+00  0.25500000000E-02 0.  1.
         31    1    1    2    0    0 -0.23345695325E+00 -0.78494500382E-02  0.63704472635E+02  0.64138703787E+02  0.74470750000E+01 0. -1.
        -31    1    1    2    0    0  0.23345695325E+00  0.78494500382E-02  0.55889014143E+02  0.56383467361E+02  0.74470750000E+01 0.  1.
<mgrwt>
<rscale>  0 0.14932905E+02</rscale>
<asrwt>0</asrwt>
<pdfrwt beam="2">  1        2 0.98625414E+00 0.14932905E+02</pdfrwt>
<pdfrwt beam="1">  1       -2 0.99656164E+00 0.14932905E+02</pdfrwt>
<totfact>-0.24806600E-13</totfact>
</mgrwt>
</event>
<event>
 4    1  0.5021037E-019  0.1496052E+02  0.7818608E-02  0.1869275E+00
         -2   -1    0    0    0  501 -0.00000000000E+00  0.00000000000E+00  0.11903353981E+03  0.11903353983E+03  0.25500000000E-02 0.  1.
          2   -1    0    0  501    0  0.00000000000E+00 -0.00000000000E+00 -0.47006844909E+00  0.47007536559E+00  0.25500000000E-02 0. -1.
         31    1    1    2    0    0 -0.27513752107E+00  0.61369634923E+00  0.57623851929E+02  0.58106966545E+02  0.74470750000E+01 0.  1.
        -31    1    1    2    0    0  0.27513752107E+00 -0.61369634923E+00  0.60939619430E+02  0.61396648656E+02  0.74470750000E+01 0.  1.
<mgrwt>
<rscale>  0 0.14960525E+02</rscale>
<asrwt>0</asrwt>
<pdfrwt beam="2">  1        2 0.99834302E+00 0.14960525E+02</pdfrwt>
<pdfrwt beam="1">  1       -2 0.98813950E+00 0.14960525E+02</pdfrwt>
<totfact> 0.65890672E-14</totfact>
</mgrwt>
</event>
<event>
 4    1  0.5021037E-019  0.1489823E+02  0.7818608E-02  0.1871190E+00
         -2   -1    0    0    0  501 -0.00000000000E+00  0.00000000000E+00  0.11813675072E+03  0.11813675075E+03  0.25500000000E-02 0. -1.
          2   -1    0    0  501    0  0.00000000000E+00 -0.00000000000E+00 -0.46970060254E+00  0.46970752445E+00  0.25500000000E-02 0.  1.
         31    1    1    2    0    0 -0.67211266037E-01  0.27544008324E-01  0.60095129726E+02  0.60554841415E+02  0.74470750000E+01 0. -1.
        -31    1    1    2    0    0  0.67211266037E-01 -0.27544008324E-01  0.57571920395E+02  0.58051616860E+02  0.74470750000E+01 0.  1.
<mgrwt>
<rscale>  0 0.14898230E+02</rscale>
<asrwt>0</asrwt>
<pdfrwt beam="2">  1        2 0.99753510E+00 0.14898230E+02</pdfrwt>
<pdfrwt beam="1">  1       -2 0.98072118E+00 0.14898230E+02</pdfrwt>
<totfact> 0.80279990E-13</totfact>
</mgrwt>
</event>
<event>
 4    1 -0.5021037E-019  0.1502331E+02  0.7818608E-02  0.1867358E+00
         -2   -1    0    0    0  501 -0.00000000000E+00  0.00000000000E+00  0.12023197690E+03  0.12023197693E+03  0.25500000000E-02 0.  1.
          2   -1    0    0  501    0  0.00000000000E+00 -0.00000000000E+00 -0.46929737014E+00  0.46930429800E+00  0.25500000000E-02 0. -1.
         31    1    1    2    0    0  0.92811007908E-01 -0.85930102005E-01  0.67712364901E+02  0.68120769846E+02  0.74470750000E+01 0.  1.
        -31    1    1    2    0    0 -0.92811007908E-01  0.85930102005E-01  0.52050314629E+02  0.52580511379E+02  0.74470750000E+01 0. -1.
<mgrwt>
<rscale>  0 0.15023311E+02</rscale>
<asrwt>0</asrwt>
<pdfrwt beam="2">  1        2 0.99675085E+00 0.15023311E+02</pdfrwt>
<pdfrwt beam="1">  1       -2 0.99804264E+00 0.15023311E+02</pdfrwt>
<totfact>-0.54244335E-14</totfact>
</mgrwt>
</event>
<event>
 4    1  0.5021037E-019  0.1491861E+02  0.7818608E-02  0.1870562E+00
         -2   -1    0    0    0  501 -0.00000000000E+00  0.00000000000E+00  0.11847465550E+03  0.11847465553E+03  0.25500000000E-02 0. -1.
          2   -1    0    0  501    0  0.00000000000E+00 -0.00000000000E+00 -0.46964300951E+00  0.46964993227E+00  0.25500000000E-02 0.  1.
         31    1    1    2    0    0 -0.32863793290E+00 -0.20311823873E+00  0.57553696339E+02  0.58034783951E+02  0.74470750000E+01 0. -1.
        -31    1    1    2    0    0  0.32863793290E+00  0.20311823873E+00  0.60451316152E+02  0.60909521509E+02  0.74470750000E+01 0. -1.
<mgrwt>
<rscale>  0 0.14918607E+02</rscale>
<asrwt>0</asrwt>
<pdfrwt beam="2">  1        2 0.99742453E+00 0.14918607E+02</pdfrwt>
<pdfrwt beam="1">  1       -2 0.98351474E+00 0.14918607E+02</pdfrwt>
<totfact> 0.47056687E-13</totfact>
</mgrwt>
</event>
<event>
 4    1 -0.5021037E-019  0.1490662E+02  0.7818608E-02  0.1870931E+00
          2   -1    0    0  501    0  0.00000000000E+00  0.00000000000E+00  0.11834123160E+03  0.11834123163E+03  0.25500000000E-02 0. -1.
         -2   -1    0    0    0  501 -0.00000000000E+00 -0.00000000000E+00 -0.46941727811E+00  0.46942420420E+00  0.25500000000E-02 0.  1.
         31    1    1    2    0    0 -0.21652756929E+00  0.19401930012E+00  0.59665450039E+02  0.60129105948E+02  0.74470750000E+01 0. -1.
        -31    1    1    2    0    0  0.21652756929E+00 -0.19401930012E+00  0.58206364282E+02  0.58681549883E+02  0.74470750000E+01 0. -1.
<mgrwt>
<rscale>  0 0.14906620E+02</rscale>
<asrwt>0</asrwt>
<pdfrwt beam="1">  1        2 0.98240963E+00 0.14906620E+02</pdfrwt>
<pdfrwt beam="2">  1       -2 0.99694259E+00 0.14906620E+02</pdfrwt>
<totfact>-0.43382717E-13</totfact>
</mgrwt>
</event>
<event>
 4    1  0.5021037E-019  0.1494461E+02  0.7818608E-02  0.1869763E+00
          2   -1    0    0  501    0  0.00000000000E+00  0.00000000000E+00  0.12018436520E+03  0.12018436523E+03  0.25500000000E-02 0.  1.
         -2   -1    0    0    0  501 -0.00000000000E+00 -0.00000000000E+00 -0.46457739741E+00  0.46458439565E+00  0.25500000000E-02 0. -1.
         31    1    1    2    0    0 -0.35372306914E+00 -0.38888365335E+00  0.57305855937E+02  0.57790106430E+02  0.74470750000E+01 0.  1.
        -31    1    1    2    0    0  0.35372306914E+00  0.38888365335E+00  0.62413931871E+02  0.62858843197E+02  0.74470750000E+01 0.  1.
<mgrwt>
<rscale>  0 0.14944613E+02</rscale>
<asrwt>0</asrwt>
<pdfrwt beam="1">  1        2 0.99760993E+00 0.14944613E+02</pdfrwt>
<pdfrwt beam="2">  1       -2 0.98676323E+00 0.14944613E+02</pdfrwt>
<totfact> 0.17007180E-13</totfact>
</mgrwt>
</event>
<event>
 4    1 -0.5021037E-019  0.1498991E+02  0.7818608E-02  0.1868376E+00
         -2   -1    0    0    0  501 -0.00000000000E+00  0.00000000000E+00  0.11999211097E+03  0.11999211099E+03  0.25500000000E-02 0.  1.
          2   -1    0    0  501    0  0.00000000000E+00 -0.00000000000E+00 -0.46814713348E+00  0.46815407836E+00  0.25500000000E-02 0. -1.
         31    1    1    2    0    0  0.23361358177E-01 -0.84548920225E+00  0.59823662926E+02  0.60291334118E+02  0.74470750000E+01 0. -1.
        -31    1    1    2    0    0 -0.23361358177E-01  0.84548920225E+00  0.59700300908E+02  0.60168930955E+02  0.74470750000E+01 0. -1.
<mgrwt>
<rscale>  0 0.14989914E+02</rscale>
<asrwt>0</asrwt>
<pdfrwt beam="2">  1        2 0.99430964E+00 0.14989914E+02</pdfrwt>
<pdfrwt beam="1">  1       -2 0.99604975E+00 0.14989914E+02</pdfrwt>
<totfact>-0.11881218E-13</totfact>
</mgrwt>
</event>
<event>
 4    1 -0.5021037E-019  0.1495402E+02  0.7818608E-02  0.1869475E+00
         -2   -1    0    0    0  501 -0.00000000000E+00  0.00000000000E+00  0.12018357767E+03  0.12018357769E+03  0.25500000000E-02 0.  1.
          2   -1    0    0  501    0  0.00000000000E+00 -0.00000000000E+00 -0.46516528379E+00  0.46517227319E+00  0.25500000000E-02 0. -1.
         31    1    1    2    0    0  0.49230533688E+00 -0.23278813477E+00  0.56732715887E+02  0.57221993436E+02  0.74470750000E+01 0. -1.
        -31    1    1    2    0    0 -0.49230533688E+00  0.23278813477E+00  0.62985696496E+02  0.63426756531E+02  0.74470750000E+01 0.  1.
<mgrwt>
<rscale>  0 0.14954016E+02</rscale>
<asrwt>0</asrwt>
<pdfrwt beam="2">  1        2 0.98800705E+00 0.14954016E+02</pdfrwt>
<pdfrwt beam="1">  1       -2 0.99760828E+00 0.14954016E+02</pdfrwt>
<totfact>-0.15233617E-13</totfact>
</mgrwt>
</event>
<event>
 4    1 -0.5021037E-019  0.1496996E+02  0.7818608E-02  0.1868987E+00
          2   -1    0    0  501    0  0.00000000000E+00  0.00000000000E+00  0.11926793484E+03  0.11926793487E+03  0.25500000000E-02 0. -1.
         -2   -1    0    0    0  501 -0.00000000000E+00 -0.00000000000E+00 -0.46973657220E+00  0.46974349358E+00  0.25500000000E-02 0.  1.
         31    1    1    2    0    0 -0.30744095590E+00  0.49808946616E+00  0.55618680512E+02  0.56118082300E+02  0.74470750000E+01 0.  1.
        -31    1    1    2    0    0  0.30744095590E+00 -0.49808946616E+00  0.63179517758E+02  0.63619596064E+02  0.74470750000E+01 0. -1.
<mgrwt>
<rscale>  0 0.14969960E+02</rscale>
<asrwt>0</asrwt>
<pdfrwt beam="1">  1        2 0.99007490E+00 0.14969960E+02</pdfrwt>
<pdfrwt beam="2">  1       -2 0.99764866E+00 0.14969960E+02</pdfrwt>
<totfact>-0.11959564E-13</totfact>
</mgrwt>
</event>
<event>
 4    1 -0.5021037E-019  0.1496030E+02  0.7818608E-02  0.1869282E+00
         -2   -1    0    0    0  501 -0.00000000000E+00  0.00000000000E+00  0.12029101545E+03  0.12029101548E+03  0.25500000000E-02 0.  1.
          2   -1    0    0  501    0  0.00000000000E+00 -0.00000000000E+00 -0.46514040060E+00  0.46514739037E+00  0.25500000000E-02 0. -1.
         31    1    1    2    0    0  0.56094280086E+00  0.28652811060E+00  0.62426275342E+02  0.62872056864E+02  0.74470750000E+01 0.  1.
        -31    1    1    2    0    0 -0.56094280086E+00 -0.28652811060E+00  0.57399599710E+02  0.57884106006E+02  0.74470750000E+01 0. -1.
<mgrwt>
<rscale>  0 0.14960299E+02</rscale>
<asrwt>0</asrwt>
<pdfrwt beam="2">  1        2 0.98795780E+00 0.14960299E+02</pdfrwt>
<pdfrwt beam="1">  1       -2 0.99849644E+00 0.14960299E+02</pdfrwt>
<totfact>-0.10504559E-13</totfact>
</mgrwt>
</event>
<event>
 4    1 -0.5021037E-019  0.1494388E+02  0.7818608E-02  0.1869786E+00
          2   -1    0    0  501    0  0.00000000000E+00  0.00000000000E+00  0.11945391189E+03  0.11945391192E+03  0.25500000000E-02 0. -1.
         -2   -1    0    0    0  501 -0.00000000000E+00 -0.00000000000E+00 -0.46737253719E+00  0.46737949358E+00  0.25500000000E-02 0.  1.
         31    1    1    2    0    0  0.25318453259E+00  0.53408855210E+00  0.60673145728E+02  0.61131324962E+02  0.74470750000E+01 0. -1.
        -31    1    1    2    0    0 -0.25318453259E+00 -0.53408855210E+00  0.58313393628E+02  0.58789966452E+02  0.74470750000E+01 0.  1.
<mgrwt>
<rscale>  0 0.14943881E+02</rscale>
<asrwt>0</asrwt>
<pdfrwt beam="1">  1        2 0.99159314E+00 0.14943881E+02</pdfrwt>
<pdfrwt beam="2">  1       -2 0.99265351E+00 0.14943881E+02</pdfrwt>
<totfact>-0.12593270E-13</totfact>
</mgrwt>
</event>
<event>
 4    1 -0.5021037E-019  0.1492507E+02  0.7818608E-02  0.1870364E+00
         -2   -1    0    0    0  501 -0.00000000000E+00  0.00000000000E+00  0.11941878266E+03  0.11941878269E+03  0.25500000000E-02 0. -1.
          2   -1    0    0  501    0  0.00000000000E+00 -0.00000000000E+00 -0.46633380531E+00  0.46634077720E+00  0.25500000000E-02 0.  1.
         31    1    1    2    0    0  0.40309649212E+00  0.16571925451E+00  0.57858541249E+02  0.58337463702E+02  0.74470750000E+01 0.  1.
        -31    1    1    2    0    0 -0.40309649212E+00 -0.16571925451E+00  0.61093907604E+02  0.61547659761E+02  0.74470750000E+01 0.  1.
<mgrwt>
<rscale>  0 0.14925071E+02</rscale>
<asrwt>0</asrwt>
<pdfrwt beam="2">  1        2 0.99045483E+00 0.14925071E+02</pdfrwt>
<pdfrwt beam="1">  1       -2 0.99129408E+00 0.14925071E+02</pdfrwt>
<totfact>-0.77531680E-14</totfact>
</mgrwt>
</event>
<event>
 4    1 -0.5021037E-019  0.1497581E+02  0.7818608E-02  0.1868808E+00
          2   -1    0    0  501    0  0.00000000000E+00  0.00000000000E+00  0.11965865608E+03  0.11965865610E+03  0.25500000000E-02 0. -1.
         -2   -1    0    0    0  501 -0.00000000000E+00 -0.00000000000E+00 -0.46856848605E+00  0.46857542469E+00  0.25500000000E-02 0.  1.
         31    1    1    2    0    0 -0.10672705075E+00 -0.74933361741E+00  0.61135409632E+02  0.61591964804E+02  0.74470750000E+01 0.  1.
        -31    1    1    2    0    0  0.10672705075E+00  0.74933361741E+00  0.58054677957E+02  0.58535266723E+02  0.74470750000E+01 0. -1.
<mgrwt>
<rscale>  0 0.14975806E+02</rscale>
<asrwt>0</asrwt>
<pdfrwt beam="1">  1        2 0.99329600E+00 0.14975806E+02</pdfrwt>
<pdfrwt beam="2">  1       -2 0.99519028E+00 0.14975806E+02</pdfrwt>
<totfact>-0.13707911E-13</totfact>
</mgrwt>
</event>
<event>
 4    1 -0.5021037E-019  0.1493618E+02  0.7818608E-02  0.1870022E+00
          2   -1    0    0  501    0  0.00000000000E+00  0.00000000000E+00  0.11924639720E+03  0.11924639723E+03  0.25500000000E-02 0.  1.
         -2   -1    0    0    0  501 -0.00000000000E+00 -0.00000000000E+00 -0.46770356519E+00  0.46771051665E+00  0.25500000000E-02 0. -1.
         31    1    1    2    0    0  0.93344523285E-01  0.11499006762E+00  0.55061812137E+02  0.55563333394E+02  0.74470750000E+01 0. -1.
        -31    1    1    2    0    0 -0.93344523285E-01 -0.11499006762E+00  0.63716881499E+02  0.64150774352E+02  0.74470750000E+01 0.  1.
<mgrwt>
<rscale>  0 0.14936182E+02</rscale>
<asrwt>0</asrwt>
<pdfrwt beam="1">  1        2 0.98988000E+00 0.14936182E+02</pdfrwt>
<pdfrwt beam="2">  1       -2 0.99334709E+00 0.14936182E+02</pdfrwt>
<totfact>-0.16562466E-13</totfact>
</mgrwt>
</event>
<event>
 4    1 -0.5021037E-019  0.1500613E+02  0.7818608E-02  0.1867881E+00
         -2   -1    0    0    0  501 -0.00000000000E+00  0.00000000000E+00  0.11996050929E+03  0.11996050931E+03  0.25500000000E-02 0. -1.
          2   -1    0    0  501    0  0.00000000000E+00 -0.00000000000E+00 -0.46928433157E+00  0.46929125962E+00  0.25500000000E-02 0.  1.
         31    1    1    2    0    0  0.83415804265E+00  0.27655064856E+00  0.57702997425E+02  0.58188204456E+02  0.74470750000E+01 0. -1.
        -31    1    1    2    0    0 -0.83415804265E+00 -0.27655064856E+00  0.61788227529E+02  0.62241596117E+02  0.74470750000E+01 0.  1.
<mgrwt>
<rscale>  0 0.15006133E+02</rscale>
<asrwt>0</asrwt>
<pdfrwt beam="2">  1        2 0.99671450E+00 0.15006133E+02</pdfrwt>
<pdfrwt beam="1">  1       -2 0.99579785E+00 0.15006133E+02</pdfrwt>
<totfact>-0.89510361E-14</totfact>
</mgrwt>
</event>
<event>
 4    1 -0.5021037E-019  0.1494095E+02  0.7818608E-02  0.1869876E+00
         -2   -1    0    0    0  501 -0.00000000000E+00  0.00000000000E+00  0.11984454813E+03  0.11984454815E+03  0.25500000000E-02 0. -1.
          2   -1    0    0  501    0  0.00000000000E+00 -0.00000000000E+00 -0.46566664978E+00  0.46567363166E+00  0.25500000000E-02 0.  1.
         31    1    1    2    0    0  0.22671391667E-01 -0.23389413688E-01  0.54938921369E+02  0.55441366039E+02  0.74470750000E+01 0.  1.
        -31    1    1    2    0    0 -0.22671391667E-01  0.23389413688E-01  0.64439960109E+02  0.64868855747E+02  0.74470750000E+01 0. -1.
<mgrwt>
<rscale>  0 0.14940955E+02</rscale>
<asrwt>0</asrwt>
<pdfrwt beam="2">  1        2 0.98905702E+00 0.14940955E+02</pdfrwt>
<pdfrwt beam="1">  1       -2 0.99480909E+00 0.14940955E+02</pdfrwt>
<totfact>-0.19724958E-13</totfact>
</mgrwt>
</event>
<event>
 4    1  0.5021037E-019  0.1489720E+02  0.7818608E-02  0.1871222E+00
          2   -1    0    0  501    0  0.00000000000E+00  0.00000000000E+00  0.12003947106E+03  0.12003947109E+03  0.25500000000E-02 0. -1.
         -2   -1    0    0    0  501 -0.00000000000E+00 -0.00000000000E+00 -0.46219125255E+00  0.46219828692E+00  0.25500000000E-02 0.  1.
         31    1    1    2    0    0  0.12959831577E+00 -0.68714666080E-01  0.60065967152E+02  0.60526034509E+02  0.74470750000E+01 0. -1.
        -31    1    1    2    0    0 -0.12959831577E+00  0.68714666080E-01  0.59511312659E+02  0.59975634869E+02  0.74470750000E+01 0. -1.
<mgrwt>
<rscale>  0 0.14897197E+02</rscale>
<asrwt>0</asrwt>
<pdfrwt beam="1">  1        2 0.99639211E+00 0.14897197E+02</pdfrwt>
<pdfrwt beam="2">  1       -2 0.98171001E+00 0.14897197E+02</pdfrwt>
<totfact> 0.86405471E-13</totfact>
</mgrwt>
</event>
<event>
 4    1 -0.5021037E-019  0.1502062E+02  0.7818608E-02  0.1867440E+00
         -2   -1    0    0    0  501 -0.00000000000E+00  0.00000000000E+00  0.12028097022E+03  0.12028097025E+03  0.25500000000E-02 0. -1.
          2   -1    0    0  501    0  0.00000000000E+00 -0.00000000000E+00 -0.46893796590E+00  0.46894489907E+00  0.25500000000E-02 0.  1.
         31    1    1    2    0    0  0.91236479318E+00  0.16409146145E+00  0.57542072047E+02  0.58029374605E+02  0.74470750000E+01 0.  1.
        -31    1    1    2    0    0 -0.91236479318E+00 -0.16409146145E+00  0.62269960206E+02  0.62720540540E+02  0.74470750000E+01 0. -1.
<mgrwt>
<rscale>  0 0.15020617E+02</rscale>
<asrwt>0</asrwt>
<pdfrwt beam="2">  1        2 0.99599206E+00 0.15020617E+02</pdfrwt>
<pdfrwt beam="1">  1       -2 0.99844478E+00 0.15020617E+02</pdfrwt>
<totfact>-0.50945836E-14</totfact>
</mgrwt>
</event>
<event>
 4    1 -0.5021037E-019  0.1491536E+02  0.7818608E-02  0.1870662E+00
         -2   -1    0    0    0  501 -0.00000000000E+00  0.00000000000E+00  0.12043917522E+03  0.12043917525E+03  0.25500000000E-02 0. -1.
          2   -1    0    0  501    0  0.00000000000E+00 -0.00000000000E+00 -0.46178107456E+00  0.46178811518E+00  0.25500000000E-02 0.  1.
         31    1    1    2    0    0 -0.11036598808E+00 -0.17906847343E+00  0.62722971030E+02  0.63163868367E+02  0.74470750000E+01 0. -1.
        -31    1    1    2    0    0  0.11036598808E+00  0.17906847343E+00  0.57254423115E+02  0.57737094995E+02  0.74470750000E+01 0.  1.
<mgrwt>
<rscale>  0 0.14915356E+02</rscale>
<asrwt>0</asrwt>
<pdfrwt beam="2">  1        2 0.98085460E+00 0.14915356E+02</pdfrwt>
<pdfrwt beam="1">  1       -2 0.99969376E+00 0.14915356E+02</pdfrwt>
<totfact>-0.73030623E-14</totfact>
</mgrwt>
</event>
<event>
 4    1 -0.5021037E-019  0.1492503E+02  0.7818608E-02  0.1870365E+00
          2   -1    0    0  501    0  0.00000000000E+00  0.00000000000E+00  0.11873324531E+03  0.11873324533E+03  0.25500000000E-02 0. -1.
         -2   -1    0    0    0  501 -0.00000000000E+00 -0.00000000000E+00 -0.46902392245E+00  0.46903085435E+00  0.25500000000E-02 0.  1.
         31    1    1    2    0    0 -0.45735602914E+00 -0.13722008000E-01  0.60285588047E+02  0.60745538231E+02  0.74470750000E+01 0. -1.
        -31    1    1    2    0    0  0.45735602914E+00  0.13722008000E-01  0.57978633337E+02  0.58456737956E+02  0.74470750000E+01 0.  1.
<mgrwt>
<rscale>  0 0.14925032E+02</rscale>
<asrwt>0</asrwt>
<pdfrwt beam="1">  1        2 0.98564782E+00 0.14925032E+02</pdfrwt>
<pdfrwt beam="2">  1       -2 0.99612348E+00 0.14925032E+02</pdfrwt>
<totfact>-0.28968669E-13</totfact>
</mgrwt>
</event>
<event>
 4    1 -0.5021037E-019  0.1497643E+02  0.7818608E-02  0.1868789E+00
         -2   -1    0    0    0  501 -0.00000000000E+00  0.00000000000E+00  0.11966883606E+03  0.11966883608E+03  0.25500000000E-02 0.  1.
          2   -1    0    0  501    0  0.00000000000E+00 -0.00000000000E+00 -0.46856780959E+00  0.46857474824E+00  0.25500000000E-02 0. -1.
         31    1    1    2    0    0  0.65940589555E-01 -0.20359946799E+00  0.53550979985E+02  0.54066738244E+02  0.74470750000E+01 0. -1.
        -31    1    1    2    0    0 -0.65940589555E-01  0.20359946799E+00  0.65649288260E+02  0.66070672587E+02  0.74470750000E+01 0.  1.
<mgrwt>
<rscale>  0 0.14976433E+02</rscale>
<asrwt>0</asrwt>
<pdfrwt beam="2">  1        2 0.99518918E+00 0.14976433E+02</pdfrwt>
<pdfrwt beam="1">  1       -2 0.99338017E+00 0.14976433E+02</pdfrwt>
<totfact>-0.10764038E-13</totfact>
</mgrwt>
</event>
<event>
 4    1  0.5021037E-019  0.1494545E+02  0.7818608E-02  0.1869738E+00
          2   -1    0    0  501    0  0.00000000000E+00  0.00000000000E+00  0.12013097961E+03  0.12013097964E+03  0.25500000000E-02 0. -1.
         -2   -1    0    0    0  501 -0.00000000000E+00 -0.00000000000E+00 -0.46483605362E+00  0.46484304797E+00  0.25500000000E-02 0.  1.
         31    1    1    2    0    0  0.45827709606E+00 -0.54458812632E-01  0.63157332064E+02  0.63596544742E+02  0.74470750000E+01 0. -1.
        -31    1    1    2    0    0 -0.45827709606E+00  0.54458812632E-01  0.56508811494E+02  0.56999277944E+02  0.74470750000E+01 0.  1.
<mgrwt>
<rscale>  0 0.14945452E+02</rscale>
<asrwt>0</asrwt>
<pdfrwt beam="1">  1        2 0.99717064E+00 0.14945452E+02</pdfrwt>
<pdfrwt beam="2">  1       -2 0.98730880E+00 0.14945452E+02</pdfrwt>
<totfact> 0.15241828E-13</totfact>
</mgrwt>
</event>
<event>
 4    1 -0.5021037E-019  0.1494026E+02  0.7818608E-02  0.1869897E+00
          2   -1    0    0  501    0  0.00000000000E+00  0.00000000000E+00  0.11876813349E+03  0.11876813352E+03  0.25500000000E-02 0.  1.
         -2   -1    0    0    0  501 -0.00000000000E+00 -0.00000000000E+00 -0.46984341016E+00  0.46985032997E+00  0.25500000000E-02 0. -1.
         31    1    1    2    0    0 -0.43552095229E+00  0.39075624044E+00  0.58835537398E+02  0.59307855769E+02  0.74470750000E+01 0.  1.
        -31    1    1    2    0    0  0.43552095229E+00 -0.39075624044E+00  0.59462752680E+02  0.59930128077E+02  0.74470750000E+01 0. -1.
<mgrwt>
<rscale>  0 0.14940260E+02</rscale>
<asrwt>0</asrwt>
<pdfrwt beam="1">  1        2 0.98594308E+00 0.14940260E+02</pdfrwt>
<pdfrwt beam="2">  1       -2 0.99785819E+00 0.14940260E+02</pdfrwt>
<totfact>-0.18761338E-13</totfact>
</mgrwt>
</event>
<event>
 4    1 -0.5021037E-019  0.1491925E+02  0.7818608E-02  0.1870543E+00
          2   -1    0    0  501    0  0.00000000000E+00  0.00000000000E+00  0.11879988538E+03  0.11879988541E+03  0.25500000000E-02 0. -1.
         -2   -1    0    0    0  501 -0.00000000000E+00 -0.00000000000E+00 -0.46839784698E+00  0.46840478815E+00  0.25500000000E-02 0.  1.
         31    1    1    2    0    0  0.28671005292E+00 -0.26431144615E+00  0.57669368829E+02  0.58149523561E+02  0.74470750000E+01 0.  1.
        -31    1    1    2    0    0 -0.28671005292E+00  0.26431144615E+00  0.60662118707E+02  0.61118766637E+02  0.74470750000E+01 0. -1.
<mgrwt>
<rscale>  0 0.14919253E+02</rscale>
<asrwt>0</asrwt>
<pdfrwt beam="1">  1        2 0.98619367E+00 0.14919253E+02</pdfrwt>
<pdfrwt beam="2">  1       -2 0.99480124E+00 0.14919253E+02</pdfrwt>
<totfact>-0.28844451E-13</totfact>
</mgrwt>
</event>
<event>
 4    1  0.5021037E-019  0.1493681E+02  0.7818608E-02  0.1870003E+00
          2   -1    0    0  501    0  0.00000000000E+00  0.00000000000E+00  0.12043897244E+03  0.12043897247E+03  0.25500000000E-02 0.  1.
         -2   -1    0    0    0  501 -0.00000000000E+00 -0.00000000000E+00 -0.46311103424E+00  0.46311805464E+00  0.25500000000E-02 0. -1.
         31    1    1    2    0    0 -0.25126830171E+00 -0.35223934953E+00  0.57059328453E+02  0.57544878989E+02  0.74470750000E+01 0.  1.
        -31    1    1    2    0    0  0.25126830171E+00  0.35223934953E+00  0.62916532957E+02  0.63357211537E+02  0.74470750000E+01 0.  1.
<mgrwt>
<rscale>  0 0.14936806E+02</rscale>
<asrwt>0</asrwt>
<pdfrwt beam="1">  1        2 0.99970308E+00 0.14936806E+02</pdfrwt>
<pdfrwt beam="2">  1       -2 0.98366866E+00 0.14936806E+02</pdfrwt>
<totfact> 0.67319076E-14</totfact>
</mgrwt>
</event>
<event>
 4    1 -0.5021037E-019  0.1490677E+02  0.7818608E-02  0.1870927E+00
         -2   -1    0    0    0  501 -0.00000000000E+00  0.00000000000E+00  0.12000973829E+03  0.12000973831E+03  0.25500000000E-02 0.  1.
          2   -1    0    0  501    0  0.00000000000E+00 -0.00000000000E+00 -0.46290007603E+00  0.46290709963E+00  0.25500000000E-02 0. -1.
         31    1    1    2    0    0 -0.16013608969E-01 -0.69925132432E-01  0.57364170023E+02  0.57845588202E+02  0.74470750000E+01 0. -1.
        -31    1    1    2    0    0  0.16013608969E-01  0.69925132432E-01  0.62182668188E+02  0.62627057212E+02  0.74470750000E+01 0.  1.
<mgrwt>
<rscale>  0 0.14906769E+02</rscale>
<asrwt>0</asrwt>
<pdfrwt beam="2">  1        2 0.98320883E+00 0.14906769E+02</pdfrwt>
<pdfrwt beam="1">  1       -2 0.99615212E+00 0.14906769E+02</pdfrwt>
<totfact>-0.43111150E-13</totfact>
</mgrwt>
</event>
<event>
 4    1 -0.5021037E-019  0.1497706E+02  0.7818608E-02  0.1868769E+00
         -2   -1    0    0    0  501 -0.00000000000E+00  0.00000000000E+00  0.12046162974E+03  0.12046162976E+03  0.25500000000E-02 0.  1.
          2   -1    0    0  501    0  0.00000000000E+00 -0.00000000000E+00 -0.46552271246E+00  0.46552969649E+00  0.25500000000E-02 0. -1.
         31    1    1    2    0    0  0.13316662301E+00 -0.60756958113E+00  0.56106941681E+02  0.56602426671E+02  0.74470750000E+01 0. -1.
        -31    1    1    2    0    0 -0.13316662301E+00  0.60756958113E+00  0.63889165343E+02  0.64324732789E+02  0.74470750000E+01 0.  1.
<mgrwt>
<rscale>  0 0.14977056E+02</rscale>
<asrwt>0</asrwt>
<pdfrwt beam="2">  1        2 0.98877209E+00 0.14977056E+02</pdfrwt>
<pdfrwt beam="1">  1       -2 0.99991036E+00 0.14977056E+02</pdfrwt>
<totfact>-0.63512639E-15</totfact>
</mgrwt>
</event>
<event>
 4    1 -0.5021037E-019  0.1493656E+02  0.7818608E-02  0.1870011E+00
         -2   -1    0    0    0  501 -0.00000000000E+00  0.00000000000E+00  0.11956834852E+03  0.11956834855E+03  0.25500000000E-02 0. -1.
          2   -1    0    0  501    0  0.00000000000E+00 -0.00000000000E+00 -0.46646777835E+00  0.46647474823E+00  0.25500000000E-02 0.  1.
         31    1    1    2    0    0  0.25565103772E+00  0.36892508431E+00  0.56827916246E+02  0.57315551590E+02  0.74470750000E+01 0.  1.
        -31    1    1    2    0    0 -0.25565103772E+00 -0.36892508431E+00  0.62273964495E+02  0.62719271704E+02  0.74470750000E+01 0. -1.
<mgrwt>
<rscale>  0 0.14936559E+02</rscale>
<asrwt>0</asrwt>
<pdfrwt beam="2">  1        2 0.99074309E+00 0.14936559E+02</pdfrwt>
<pdfrwt beam="1">  1       -2 0.99253190E+00 0.14936559E+02</pdfrwt>
<totfact>-0.13080714E-13</totfact>
</mgrwt>
</event>
<event>
 4    1 -0.5021037E-019  0.1499572E+02  0.7818608E-02  0.1868199E+00
          2   -1    0    0  501    0  0.00000000000E+00  0.00000000000E+00  0.11976078101E+03  0.11976078103E+03  0.25500000000E-02 0.  1.
         -2   -1    0    0    0  501 -0.00000000000E+00 -0.00000000000E+00 -0.46941484499E+00  0.46942177112E+00  0.25500000000E-02 0. -1.
         31    1    1    2    0    0 -0.13119777875E-01  0.34442851990E+00  0.53230687355E+02  0.53750198190E+02  0.74470750000E+01 0. -1.
        -31    1    1    2    0    0  0.13119777875E-01 -0.34442851990E+00  0.66060678806E+02  0.66480004614E+02  0.74470750000E+01 0.  1.
<mgrwt>
<rscale>  0 0.14995720E+02</rscale>
<asrwt>0</asrwt>
<pdfrwt beam="1">  1        2 0.99414744E+00 0.14995720E+02</pdfrwt>
<pdfrwt beam="2">  1       -2 0.99698413E+00 0.14995720E+02</pdfrwt>
<totfact>-0.10374288E-13</totfact>
</mgrwt>
</event>
<event>
 4    1 -0.5021037E-019  0.1490593E+02  0.7818608E-02  0.1870953E+00
          2   -1    0    0  501    0  0.00000000000E+00  0.00000000000E+00  0.11801457053E+03  0.11801457056E+03  0.25500000000E-02 0.  1.
         -2   -1    0    0    0  501 -0.00000000000E+00 -0.00000000000E+00 -0.47067301931E+00  0.47067992692E+00  0.25500000000E-02 0. -1.
         31    1    1    2    0    0 -0.84576077956E-01 -0.13332625745E-01  0.61026236243E+02  0.61479002651E+02  0.74470750000E+01 0.  1.
        -31    1    1    2    0    0  0.84576077956E-01  0.13332625745E-01  0.56517661269E+02  0.57006247835E+02  0.74470750000E+01 0. -1.
<mgrwt>
<rscale>  0 0.14905930E+02</rscale>
<asrwt>0</asrwt>
<pdfrwt beam="1">  1        2 0.97971895E+00 0.14905930E+02</pdfrwt>
<pdfrwt beam="2">  1       -2 0.99958795E+00 0.14905930E+02</pdfrwt>
<totfact>-0.11755552E-13</totfact>
</mgrwt>
</event>
<event>
 4    1  0.5021037E-019  0.1491320E+02  0.7818608E-02  0.1870729E+00
         -2   -1    0    0    0  501 -0.00000000000E+00  0.00000000000E+00  0.11859887786E+03  0.11859887789E+03  0.25500000000E-02 0. -1.
          2   -1    0    0  501    0  0.00000000000E+00 -0.00000000000E+00 -0.46881138889E+00  0.46881832393E+00  0.25500000000E-02 0.  1.
         31    1    1    2    0    0 -0.14026783601E+00  0.34477460406E+00  0.58596178580E+02  0.59068685569E+02  0.74470750000E+01 0.  1.
        -31    1    1    2    0    0  0.14026783601E+00 -0.34477460406E+00  0.59533887891E+02  0.59999010642E+02  0.74470750000E+01 0. -1.
<mgrwt>
<rscale>  0 0.14913205E+02</rscale>
<asrwt>0</asrwt>
<pdfrwt beam="2">  1        2 0.99566944E+00 0.14913205E+02</pdfrwt>
<pdfrwt beam="1">  1       -2 0.98453502E+00 0.14913205E+02</pdfrwt>
<totfact> 0.50967804E-13</totfact>
</mgrwt>
</event>
<event>
 4    1 -0.5021037E-019  0.1494338E+02  0.7818608E-02  0.1869801E+00
         -2   -1    0    0    0  501 -0.00000000000E+00  0.00000000000E+00  0.12022942389E+03  0.12022942392E+03  0.25500000000E-02 0. -1.
          2   -1    0    0  501    0  0.00000000000E+00 -0.00000000000E+00 -0.46432659712E+00  0.46433359914E+00  0.25500000000E-02 0.  1.
         31    1    1    2    0    0  0.16943574084E-01 -0.56458453689E+00  0.58109808363E+02  0.58587778561E+02  0.74470750000E+01 0.  1.
        -31    1    1    2    0    0 -0.16943574084E-01  0.56458453689E+00  0.61655288933E+02  0.62105978958E+02  0.74470750000E+01 0.  1.
<mgrwt>
<rscale>  0 0.14943379E+02</rscale>
<asrwt>0</asrwt>
<pdfrwt beam="2">  1        2 0.98623401E+00 0.14943379E+02</pdfrwt>
<pdfrwt beam="1">  1       -2 0.99798043E+00 0.14943379E+02</pdfrwt>
<totfact>-0.17127423E-13</totfact>
</mgrwt>
</event>
<event>
 4    1  0.5021037E-019  0.1489830E+02  0.7818608E-02  0.1871188E+00
          2   -1    0    0  501    0  0.00000000000E+00  0.00000000000E+00  0.12040679887E+03  0.12040679889E+03  0.25500000000E-02 0.  1.
         -2   -1    0    0    0  501 -0.00000000000E+00 -0.00000000000E+00 -0.46084974589E+00  0.46085680074E+00  0.25500000000E-02 0. -1.
         31    1    1    2    0    0 -0.24152660186E-01  0.16350532812E-01  0.58565591000E+02  0.59037176642E+02  0.74470750000E+01 0. -1.
        -31    1    1    2    0    0  0.24152660186E-01 -0.16350532812E-01  0.61380358122E+02  0.61830479053E+02  0.74470750000E+01 0.  1.
<mgrwt>
<rscale>  0 0.14898305E+02</rscale>
<asrwt>0</asrwt>
<pdfrwt beam="1">  1        2 0.99941834E+00 0.14898305E+02</pdfrwt>
<pdfrwt beam="2">  1       -2 0.97888297E+00 0.14898305E+02</pdfrwt>
<totfact> 0.31681070E-13</totfact>
</mgrwt>
</event>
<event>
 4    1  0.5021037E-019  0.1492568E+02  0.7818608E-02  0.1870345E+00
         -2   -1    0    0    0  501 -0.00000000000E+00  0.00000000000E+00  0.11836262324E+03  0.11836262326E+03  0.25500000000E-02 0. -1.
          2   -1    0    0  501    0  0.00000000000E+00 -0.00000000000E+00 -0.47053336469E+00  0.47054027435E+00  0.25500000000E-02 0.  1.
         31    1    1    2    0    0  0.36055424156E+00 -0.32116345974E+00  0.58598624562E+02  0.59071912716E+02  0.74470750000E+01 0.  1.
        -31    1    1    2    0    0 -0.36055424156E+00  0.32116345974E+00  0.59293465309E+02  0.59761250821E+02  0.74470750000E+01 0.  1.
<mgrwt>
<rscale>  0 0.14925679E+02</rscale>
<asrwt>0</asrwt>
<pdfrwt beam="2">  1        2 0.99930421E+00 0.14925679E+02</pdfrwt>
<pdfrwt beam="1">  1       -2 0.98259574E+00 0.14925679E+02</pdfrwt>
<totfact> 0.19180443E-13</totfact>
</mgrwt>
</event>
<event>
 4    1 -0.5021037E-019  0.1490846E+02  0.7818608E-02  0.1870875E+00
         -2   -1    0    0    0  501 -0.00000000000E+00  0.00000000000E+00  0.11990503132E+03  0.11990503135E+03  0.25500000000E-02 0. -1.
          2   -1    0    0  501    0  0.00000000000E+00 -0.00000000000E+00 -0.46340967764E+00  0.46341669352E+00  0.25500000000E-02 0.  1.
         31    1    1    2    0    0 -0.16151503641E+00  0.15332483555E+00  0.61649326934E+02  0.62097890729E+02  0.74470750000E+01 0. -1.
        -31    1    1    2    0    0  0.16151503641E+00 -0.15332483555E+00  0.57792294713E+02  0.58270557315E+02  0.74470750000E+01 0.  1.
<mgrwt>
<rscale>  0 0.14908464E+02</rscale>
<asrwt>0</asrwt>
<pdfrwt beam="2">  1        2 0.98428375E+00 0.14908464E+02</pdfrwt>
<pdfrwt beam="1">  1       -2 0.99529055E+00 0.14908464E+02</pdfrwt>
<totfact>-0.38663755E-13</totfact>
</mgrwt>
</event>
<event>
 4    1  0.5021037E-019  0.1490846E+02  0.7818608E-02  0.1870875E+00
          2   -1    0    0  501    0  0.00000000000E+00  0.00000000000E+00  0.12025966115E+03  0.12025966118E+03  0.25500000000E-02 0.  1.
         -2   -1    0    0    0  501 -0.00000000000E+00 -0.00000000000E+00 -0.46204259235E+00  0.46204962899E+00  0.25500000000E-02 0. -1.
         31    1    1    2    0    0  0.13441564237E+00 -0.10163747336E+00  0.62163053351E+02  0.62607767296E+02  0.74470750000E+01 0.  1.
        -31    1    1    2    0    0 -0.13441564237E+00  0.10163747336E+00  0.57634565207E+02  0.58113943511E+02  0.74470750000E+01 0. -1.
<mgrwt>
<rscale>  0 0.14908456E+02</rscale>
<asrwt>0</asrwt>
<pdfrwt beam="1">  1        2 0.99821157E+00 0.14908456E+02</pdfrwt>
<pdfrwt beam="2">  1       -2 0.98140236E+00 0.14908456E+02</pdfrwt>
<totfact> 0.55398793E-13</totfact>
</mgrwt>
</event>
<event>
 4    1 -0.5021037E-019  0.1492875E+02  0.7818608E-02  0.1870250E+00
         -2   -1    0    0    0  501 -0.00000000000E+00  0.00000000000E+00  0.12018763328E+03  0.12018763331E+03  0.25500000000E-02 0.  1.
          2   -1    0    0  501    0  0.00000000000E+00 -0.00000000000E+00 -0.46357920702E+00  0.46358622033E+00  0.25500000000E-02 0. -1.
         31    1    1    2    0    0  0.50433983114E-01  0.49976858003E+00  0.59253248463E+02  0.59721509456E+02  0.74470750000E+01 0. -1.
        -31    1    1    2    0    0 -0.50433983114E-01 -0.49976858003E+00  0.60470805614E+02  0.60929710076E+02  0.74470750000E+01 0. -1.
<mgrwt>
<rscale>  0 0.14928752E+02</rscale>
<asrwt>0</asrwt>
<pdfrwt beam="2">  1        2 0.98465136E+00 0.14928752E+02</pdfrwt>
<pdfrwt beam="1">  1       -2 0.99762870E+00 0.14928752E+02</pdfrwt>
<totfact>-0.24936571E-13</totfact>
</mgrwt>
</event>
<event>
 4    1  0.5021037E-019  0.1494494E+02  0.7818608E-02  0.1869753E+00
         -2   -1    0    0    0  501 -0.00000000000E+00  0.00000000000E+00  0.11879792103E+03  0.11879792106E+03  0.25500000000E-02 0.  1.
          2   -1    0    0  501    0  0.00000000000E+00 -0.00000000000E+00 -0.47001971447E+00  0.47002663168E+00  0.25500000000E-02 0. -1.
         31    1    1    2    0    0 -0.19044846996E+00  0.32246399195E+00  0.63062152431E+02  0.63501450762E+02  0.74470750000E+01 0.  1.
        -31    1    1    2    0    0  0.19044846996E+00 -0.32246399195E+00  0.55265748887E+02  0.55766496929E+02  0.74470750000E+01 0.  1.
<mgrwt>
<rscale>  0 0.14944936E+02</rscale>
<asrwt>0</asrwt>
<pdfrwt beam="2">  1        2 0.99823214E+00 0.14944936E+02</pdfrwt>
<pdfrwt beam="1">  1       -2 0.98619084E+00 0.14944936E+02</pdfrwt>
<totfact> 0.16646635E-13</totfact>
</mgrwt>
</event>
<event>
 4    1  0.5021037E-019  0.1491135E+02  0.7818608E-02  0.1870786E+00
          2   -1    0    0  501    0  0.00000000000E+00  0.00000000000E+00  0.12013529244E+03  0.12013529246E+03  0.25500000000E-02 0. -1.
         -2   -1    0    0    0  501 -0.00000000000E+00 -0.00000000000E+00 -0.46270044618E+00  0.46270747281E+00  0.25500000000E-02 0.  1.
         31    1    1    2    0    0  0.13316713966E+00 -0.96278587374E-01  0.62408499591E+02  0.62851465777E+02  0.74470750000E+01 0. -1.
        -31    1    1    2    0    0 -0.13316713966E+00  0.96278587374E-01  0.57264092398E+02  0.57746534158E+02  0.74470750000E+01 0.  1.
<mgrwt>
<rscale>  0 0.14911349E+02</rscale>
<asrwt>0</asrwt>
<pdfrwt beam="1">  1        2 0.99718864E+00 0.14911349E+02</pdfrwt>
<pdfrwt beam="2">  1       -2 0.98279039E+00 0.14911349E+02</pdfrwt>
<totfact> 0.58857362E-13</totfact>
</mgrwt>
</event>
<event>
 4    1  0.5021037E-019  0.1489794E+02  0.7818608E-02  0.1871199E+00
         -2   -1    0    0    0  501 -0.00000000000E+00  0.00000000000E+00  0.11801517179E+03  0.11801517181E+03  0.25500000000E-02 0.  1.
          2   -1    0    0  501    0  0.00000000000E+00 -0.00000000000E+00 -0.47016629364E+00  0.47017320870E+00  0.25500000000E-02 0. -1.
         31    1    1    2    0    0 -0.13352484724E+00  0.85310839904E-01  0.58327245727E+02  0.58800949201E+02  0.74470750000E+01 0.  1.
        -31    1    1    2    0    0  0.13352484724E+00 -0.85310839904E-01  0.59217759765E+02  0.59684395821E+02  0.74470750000E+01 0.  1.
<mgrwt>
<rscale>  0 0.14897942E+02</rscale>
<asrwt>0</asrwt>
<pdfrwt beam="2">  1        2 0.99851610E+00 0.14897942E+02</pdfrwt>
<pdfrwt beam="1">  1       -2 0.97971973E+00 0.14897942E+02</pdfrwt>
<totfact> 0.63953659E-13</totfact>
</mgrwt>
</event>
<event>
 4    1  0.5021037E-019  0.1492291E+02  0.7818608E-02  0.1870430E+00
         -2   -1    0    0    0  501 -0.00000000000E+00  0.00000000000E+00  0.11829832707E+03  0.11829832710E+03  0.25500000000E-02 0.  1.
          2   -1    0    0  501    0  0.00000000000E+00 -0.00000000000E+00 -0.47061435125E+00  0.47062125972E+00  0.25500000000E-02 0. -1.
         31    1    1    2    0    0  0.41375991163E+00 -0.59770438226E-02  0.60566982746E+02  0.61024499654E+02  0.74470750000E+01 0.  1.
        -31    1    1    2    0    0 -0.41375991163E+00  0.59770438226E-02  0.57260729973E+02  0.57744448703E+02  0.74470750000E+01 0. -1.
<mgrwt>
<rscale>  0 0.14922909E+02</rscale>
<asrwt>0</asrwt>
<pdfrwt beam="2">  1        2 0.99947337E+00 0.14922909E+02</pdfrwt>
<pdfrwt beam="1">  1       -2 0.98206476E+00 0.14922909E+02</pdfrwt>
<totfact> 0.16495474E-13</totfact>
</mgrwt>
</event>
<event>
 4    1 -0.5021037E-019  0.1490520E+02  0.7818608E-02  0.1870975E+00
          2   -1    0    0  501    0  0.00000000000E+00  0.00000000000E+00  0.11818577576E+03  0.11818577579E+03  0.25500000000E-02 0. -1.
         -2   -1    0    0    0  501 -0.00000000000E+00 -0.00000000000E+00 -0.46994501736E+00  0.46995193568E+00  0.25500000000E-02 0.  1.
         31    1    1    2    0    0  0.32996054674E-01  0.28120224824E+00  0.59226094289E+02  0.59693126356E+02  0.74470750000E+01 0. -1.
        -31    1    1    2    0    0 -0.32996054674E-01 -0.28120224824E+00  0.58489736459E+02  0.58962601372E+02  0.74470750000E+01 0. -1.
<mgrwt>
<rscale>  0 0.14905198E+02</rscale>
<asrwt>0</asrwt>
<pdfrwt beam="1">  1        2 0.98112858E+00 0.14905198E+02</pdfrwt>
<pdfrwt beam="2">  1       -2 0.99805375E+00 0.14905198E+02</pdfrwt>
<totfact>-0.38593818E-13</totfact>
</mgrwt>
</event>
<event>
 4    1 -0.5021037E-019  0.1489617E+02  0.7818608E-02  0.1871254E+00
          2   -1    0    0  501    0  0.00000000000E+00  0.00000000000E+00  0.11832603850E+03  0.11832603853E+03  0.25500000000E-02 0.  1.
         -2   -1    0    0    0  501 -0.00000000000E+00 -0.00000000000E+00 -0.46881950393E+00  0.46882643885E+00  0.25500000000E-02 0. -1.
         31    1    1    2    0    0 -0.27989581706E-01  0.17372525446E-01  0.59870755552E+02  0.60332142193E+02  0.74470750000E+01 0.  1.
        -31    1    1    2    0    0  0.27989581706E-01 -0.17372525446E-01  0.57986463448E+02  0.58462722776E+02  0.74470750000E+01 0. -1.
<mgrwt>
<rscale>  0 0.14896170E+02</rscale>
<asrwt>0</asrwt>
<pdfrwt beam="1">  1        2 0.98227906E+00 0.14896170E+02</pdfrwt>
<pdfrwt beam="2">  1       -2 0.99567757E+00 0.14896170E+02</pdfrwt>
<totfact>-0.52892379E-13</totfact>
</mgrwt>
</event>
<event>
 4    1 -0.5021037E-019  0.1495756E+02  0.7818608E-02  0.1869366E+00
          2   -1    0    0  501    0  0.00000000000E+00  0.00000000000E+00  0.11955331899E+03  0.11955331902E+03  0.25500000000E-02 0. -1.
         -2   -1    0    0    0  501 -0.00000000000E+00 -0.00000000000E+00 -0.46783906932E+00  0.46784601878E+00  0.25500000000E-02 0.  1.
         31    1    1    2    0    0 -0.76330130118E-02  0.49022397263E+00  0.63414558899E+02  0.63852216752E+02  0.74470750000E+01 0. -1.
        -31    1    1    2    0    0  0.76330130118E-02 -0.49022397263E+00  0.55670921022E+02  0.56168948284E+02  0.74470750000E+01 0.  1.
<mgrwt>
<rscale>  0 0.14957558E+02</rscale>
<asrwt>0</asrwt>
<pdfrwt beam="1">  1        2 0.99241897E+00 0.14957558E+02</pdfrwt>
<pdfrwt beam="2">  1       -2 0.99364373E+00 0.14957558E+02</pdfrwt>
<totfact>-0.13944178E-13</totfact>
</mgrwt>
</event>
<event>
 4    1 -0.5021037E-019  0.1495144E+02  0.7818608E-02  0.1869554E+00
         -2   -1    0    0    0  501 -0.00000000000E+00  0.00000000000E+00  0.12011365177E+03  0.12011365180E+03  0.25500000000E-02 0.  1.
          2   -1    0    0  501    0  0.00000000000E+00 -0.00000000000E+00 -0.46527582739E+00  0.46528281513E+00  0.25500000000E-02 0. -1.
         31    1    1    2    0    0 -0.62189777444E+00  0.14164067440E+00  0.60983281019E+02  0.61439615142E+02  0.74470750000E+01 0.  1.
        -31    1    1    2    0    0  0.62189777444E+00 -0.14164067440E+00  0.58665094922E+02  0.59139319468E+02  0.74470750000E+01 0. -1.
<mgrwt>
<rscale>  0 0.14951442E+02</rscale>
<asrwt>0</asrwt>
<pdfrwt beam="2">  1        2 0.98823871E+00 0.14951442E+02</pdfrwt>
<pdfrwt beam="1">  1       -2 0.99703100E+00 0.14951442E+02</pdfrwt>
<totfact>-0.17232627E-13</totfact>
</mgrwt>
</event>
<event>
 4    1  0.5021037E-019  0.1491578E+02  0.7818608E-02  0.1870650E+00
         -2   -1    0    0    0  501 -0.00000000000E+00  0.00000000000E+00  0.11836497050E+03  0.11836497053E+03  0.25500000000E-02 0. -1.
          2   -1    0    0  501    0  0.00000000000E+00 -0.00000000000E+00 -0.46989994076E+00  0.46990685974E+00  0.25500000000E-02 0.  1.
         31    1    1    2    0    0 -0.14770097618E+00 -0.36921496237E+00  0.59387100769E+02  0.59853527875E+02  0.74470750000E+01 0. -1.
        -31    1    1    2    0    0  0.14770097618E+00  0.36921496237E+00  0.58507969794E+02  0.58981349516E+02  0.74470750000E+01 0. -1.
<mgrwt>
<rscale>  0 0.14915778E+02</rscale>
<asrwt>0</asrwt>
<pdfrwt beam="2">  1        2 0.99796438E+00 0.14915778E+02</pdfrwt>
<pdfrwt beam="1">  1       -2 0.98260991E+00 0.14915778E+02</pdfrwt>
<totfact> 0.48229172E-13</totfact>
</mgrwt>
</event>
<event>
 4    1 -0.5021037E-019  0.1499977E+02  0.7818608E-02  0.1868076E+00
          2   -1    0    0  501    0  0.00000000000E+00  0.00000000000E+00  0.12042998891E+03  0.12042998894E+03  0.25500000000E-02 0. -1.
         -2   -1    0    0    0  501 -0.00000000000E+00 -0.00000000000E+00 -0.46705823110E+00  0.46706519217E+00  0.25500000000E-02 0.  1.
         31    1    1    2    0    0  0.42296225023E+00  0.67286762969E+00  0.63181836419E+02  0.63624170149E+02  0.74470750000E+01 0. -1.
        -31    1    1    2    0    0 -0.42296225023E+00 -0.67286762969E+00  0.56781094260E+02  0.57272883979E+02  0.74470750000E+01 0.  1.
<mgrwt>
<rscale>  0 0.14999765E+02</rscale>
<asrwt>0</asrwt>
<pdfrwt beam="1">  1        2 0.99966143E+00 0.14999765E+02</pdfrwt>
<pdfrwt beam="2">  1       -2 0.99201988E+00 0.14999765E+02</pdfrwt>
<totfact>-0.88661248E-15</totfact>
</mgrwt>
</event>
<event>
 4    1  0.5021037E-019  0.1491074E+02  0.7818608E-02  0.1870804E+00
          2   -1    0    0  501    0  0.00000000000E+00  0.00000000000E+00  0.12014048554E+03  0.12014048557E+03  0.25500000000E-02 0.  1.
         -2   -1    0    0    0  501 -0.00000000000E+00 -0.00000000000E+00 -0.46264296887E+00  0.46264999637E+00  0.25500000000E-02 0. -1.
         31    1    1    2    0    0  0.20256920264E+00  0.24488569213E+00  0.61056128047E+02  0.61509435873E+02  0.74470750000E+01 0.  1.
        -31    1    1    2    0    0 -0.20256920264E+00 -0.24488569213E+00  0.58621714526E+02  0.59093699692E+02  0.74470750000E+01 0. -1.
<mgrwt>
<rscale>  0 0.14910745E+02</rscale>
<asrwt>0</asrwt>
<pdfrwt beam="1">  1        2 0.99723111E+00 0.14910745E+02</pdfrwt>
<pdfrwt beam="2">  1       -2 0.98266894E+00 0.14910745E+02</pdfrwt>
<totfact> 0.59768654E-13</totfact>
</mgrwt>
</event>
<event>
 4    1  0.5021037E-019  0.1492801E+02  0.7818608E-02  0.1870273E+00
         -2   -1    0    0    0  501 -0.00000000000E+00  0.00000000000E+00  0.11921747875E+03  0.11921747878E+03  0.25500000000E-02 0. -1.
          2   -1    0    0  501    0  0.00000000000E+00 -0.00000000000E+00 -0.46730526519E+00  0.46731222258E+00  0.25500000000E-02 0.  1.
         31    1    1    2    0    0  0.30065351773E+00 -0.38956451001E+00  0.60188549341E+02  0.60649505776E+02  0.74470750000E+01 0. -1.
        -31    1    1    2    0    0 -0.30065351773E+00  0.38956451001E+00  0.58561624146E+02  0.59035285226E+02  0.74470750000E+01 0.  1.
<mgrwt>
<rscale>  0 0.14928010E+02</rscale>
<asrwt>0</asrwt>
<pdfrwt beam="2">  1        2 0.99250352E+00 0.14928010E+02</pdfrwt>
<pdfrwt beam="1">  1       -2 0.98963759E+00 0.14928010E+02</pdfrwt>
<totfact> 0.36616970E-14</totfact>
</mgrwt>
</event>
<event>
 4    1 -0.5021037E-019  0.1492889E+02  0.7818608E-02  0.1870246E+00
          2   -1    0    0  501    0  0.00000000000E+00  0.00000000000E+00  0.11883852716E+03  0.11883852718E+03  0.25500000000E-02 0. -1.
         -2   -1    0    0    0  501 -0.00000000000E+00 -0.00000000000E+00 -0.46885065705E+00  0.46885759151E+00  0.25500000000E-02 0.  1.
         31    1    1    2    0    0  0.16572498177E+00  0.42856830971E+00  0.57436219240E+02  0.57918816823E+02  0.74470750000E+01 0.  1.
        -31    1    1    2    0    0 -0.16572498177E+00 -0.42856830971E+00  0.60933457261E+02  0.61388567953E+02  0.74470750000E+01 0. -1.
<mgrwt>
<rscale>  0 0.14928890E+02</rscale>
<asrwt>0</asrwt>
<pdfrwt beam="1">  1        2 0.98651693E+00 0.14928890E+02</pdfrwt>
<pdfrwt beam="2">  1       -2 0.99576042E+00 0.14928890E+02</pdfrwt>
<totfact>-0.26321876E-13</totfact>
</mgrwt>
</event>
<event>
 4    1 -0.5021037E-019  0.1498708E+02  0.7818608E-02  0.1868463E+00
          2   -1    0    0  501    0  0.00000000000E+00  0.00000000000E+00  0.12007019922E+03  0.12007019925E+03  0.25500000000E-02 0. -1.
         -2   -1    0    0    0  501 -0.00000000000E+00 -0.00000000000E+00 -0.46766562158E+00  0.46767257361E+00  0.25500000000E-02 0.  1.
         31    1    1    2    0    0  0.74263278482E+00 -0.37340453737E+00  0.59341734507E+02  0.59812969453E+02  0.74470750000E+01 0. -1.
        -31    1    1    2    0    0 -0.74263278482E+00  0.37340453737E+00  0.60260799090E+02  0.60724902366E+02  0.74470750000E+01 0. -1.
<mgrwt>
<rscale>  0 0.14987078E+02</rscale>
<asrwt>0</asrwt>
<pdfrwt beam="1">  1        2 0.99669146E+00 0.14987078E+02</pdfrwt>
<pdfrwt beam="2">  1       -2 0.99329344E+00 0.14987078E+02</pdfrwt>
<totfact>-0.85451578E-14</totfact>
</mgrwt>
</event>
<event>
 4    1 -0.5021037E-019  0.1495531E+02  0.7818608E-02  0.1869435E+00
         -2   -1    0    0    0  501 -0.00000000000E+00  0.00000000000E+00  0.11987418053E+03  0.11987418056E+03  0.25500000000E-02 0.  1.
          2   -1    0    0  501    0  0.00000000000E+00 -0.00000000000E+00 -0.46644683677E+00  0.46645380697E+00  0.25500000000E-02 0. -1.
         31    1    1    2    0    0 -0.23118219806E+00 -0.25449773670E+00  0.64383501025E+02  0.64813674056E+02  0.74470750000E+01 0.  1.
        -31    1    1    2    0    0  0.23118219806E+00  0.25449773670E+00  0.55024232669E+02  0.55526960309E+02  0.74470750000E+01 0. -1.
<mgrwt>
<rscale>  0 0.14955314E+02</rscale>
<asrwt>0</asrwt>
<pdfrwt beam="2">  1        2 0.99070860E+00 0.14955314E+02</pdfrwt>
<pdfrwt beam="1">  1       -2 0.99506056E+00 0.14955314E+02</pdfrwt>
<totfact>-0.16724599E-13</totfact>
</mgrwt>
</event>
<event>
 4    1 -0.5021037E-019  0.1494667E+02  0.7818608E-02  0.1869700E+00
          2   -1    0    0  501    0  0.00000000000E+00  0.00000000000E+00  0.11962960907E+03  0.11962960910E+03  0.25500000000E-02 0. -1.
         -2   -1    0    0    0  501 -0.00000000000E+00 -0.00000000000E+00 -0.46686060368E+00  0.46686756770E+00  0.25500000000E-02 0.  1.
         31    1    1    2    0    0  0.29782624338E+00 -0.16638314847E+00  0.63798495514E+02  0.64232572264E+02  0.74470750000E+01 0. -1.
        -31    1    1    2    0    0 -0.29782624338E+00  0.16638314847E+00  0.55364252957E+02  0.55863904405E+02  0.74470750000E+01 0.  1.
<mgrwt>
<rscale>  0 0.14946675E+02</rscale>
<asrwt>0</asrwt>
<pdfrwt beam="1">  1        2 0.99304170E+00 0.14946675E+02</pdfrwt>
<pdfrwt beam="2">  1       -2 0.99157614E+00 0.14946675E+02</pdfrwt>
<totfact>-0.76104956E-14</totfact>
</mgrwt>
</event>
<event>
 4    1  0.5021037E-019  0.1493213E+02  0.7818608E-02  0.1870147E+00
          2   -1    0    0  501    0  0.00000000000E+00  0.00000000000E+00  0.12013560985E+03  0.12013560988E+03  0.25500000000E-02 0.  1.
         -2   -1    0    0    0  501 -0.00000000000E+00 -0.00000000000E+00 -0.46398977899E+00  0.46399678609E+00  0.25500000000E-02 0. -1.
         31    1    1    2    0    0  0.27576431203E+00  0.18645510502E+00  0.56482530630E+02  0.56972326650E+02  0.74470750000E+01 0. -1.
        -31    1    1    2    0    0 -0.27576431203E+00 -0.18645510502E+00  0.63189089439E+02  0.63627280011E+02  0.74470750000E+01 0.  1.
<mgrwt>
<rscale>  0 0.14932129E+02</rscale>
<asrwt>0</asrwt>
<pdfrwt beam="1">  1        2 0.99720193E+00 0.14932129E+02</pdfrwt>
<pdfrwt beam="2">  1       -2 0.98551841E+00 0.14932129E+02</pdfrwt>
<totfact> 0.29291985E-13</totfact>
</mgrwt>
</event>
<event>
 4    1  0.5021037E-019  0.1490809E+02  0.7818608E-02  0.1870886E+00
         -2   -1    0    0    0  501 -0.00000000000E+00  0.00000000000E+00  0.11896593282E+03  0.11896593285E+03  0.25500000000E-02 0.  1.
          2   -1    0    0  501    0  0.00000000000E+00 -0.00000000000E+00 -0.46704460078E+00  0.46705156205E+00  0.25500000000E-02 0. -1.
         31    1    1    2    0    0  0.11390594207E+00 -0.49847680089E-01  0.61631754584E+02  0.62080170413E+02  0.74470750000E+01 0.  1.
        -31    1    1    2    0    0 -0.11390594207E+00  0.49847680089E-01  0.56867133634E+02  0.57352813996E+02  0.74470750000E+01 0. -1.
<mgrwt>
<rscale>  0 0.14908094E+02</rscale>
<asrwt>0</asrwt>
<pdfrwt beam="2">  1        2 0.99194389E+00 0.14908094E+02</pdfrwt>
<pdfrwt beam="1">  1       -2 0.98755548E+00 0.14908094E+02</pdfrwt>
<totfact> 0.24375516E-13</totfact>
</mgrwt>
</event>
<event>
 4    1  0.5021037E-019  0.1491852E+02  0.7818608E-02  0.1870565E+00
         -2   -1    0    0    0  501 -0.00000000000E+00  0.00000000000E+00  0.11883894974E+03  0.11883894977E+03  0.25500000000E-02 0.  1.
          2   -1    0    0  501    0  0.00000000000E+00 -0.00000000000E+00 -0.46819756552E+00  0.46820450966E+00  0.25500000000E-02 0. -1.
         31    1    1    2    0    0 -0.19831796432E+00 -0.34780391453E+00  0.58018237274E+02  0.58495598809E+02  0.74470750000E+01 0. -1.
        -31    1    1    2    0    0  0.19831796432E+00  0.34780391453E+00  0.60352514898E+02  0.60811555466E+02  0.74470750000E+01 0. -1.
<mgrwt>
<rscale>  0 0.14918515E+02</rscale>
<asrwt>0</asrwt>
<pdfrwt beam="2">  1        2 0.99437884E+00 0.14918515E+02</pdfrwt>
<pdfrwt beam="1">  1       -2 0.98651503E+00 0.14918515E+02</pdfrwt>
<totfact> 0.31546006E-13</totfact>
</mgrwt>
</event>
<event>
 4    1 -0.5021037E-019  0.1494489E+02  0.7818608E-02  0.1869755E+00
          2   -1    0    0  501    0  0.00000000000E+00  0.00000000000E+00  0.11953125318E+03  0.11953125320E+03  0.25500000000E-02 0. -1.
         -2   -1    0    0    0  501 -0.00000000000E+00 -0.00000000000E+00 -0.46713320301E+00  0.46714016297E+00  0.25500000000E-02 0.  1.
         31    1    1    2    0    0 -0.18320725424E+00 -0.48606139628E+00  0.62179200444E+02  0.62625727257E+02  0.74470750000E+01 0. -1.
        -31    1    1    2    0    0  0.18320725424E+00  0.48606139628E+00  0.56884919529E+02  0.57372666109E+02  0.74470750000E+01 0.  1.
<mgrwt>
<rscale>  0 0.14944890E+02</rscale>
<asrwt>0</asrwt>
<pdfrwt beam="1">  1        2 0.99223067E+00 0.14944890E+02</pdfrwt>
<pdfrwt beam="2">  1       -2 0.99214968E+00 0.14944890E+02</pdfrwt>
<totfact>-0.10387880E-13</totfact>
</mgrwt>
</event>
<event>
 4    1 -0.5021037E-019  0.1493137E+02  0.7818608E-02  0.1870170E+00
          2   -1    0    0  501    0  0.00000000000E+00  0.00000000000E+00  0.11850021843E+03  0.11850021846E+03  0.25500000000E-02 0. -1.
         -2   -1    0    0    0  501 -0.00000000000E+00 -0.00000000000E+00 -0.47034520068E+00  0.47035211311E+00  0.25500000000E-02 0.  1.
         31    1    1    2    0    0  0.37638995060E-01 -0.31143322119E+00  0.62386829593E+02  0.62830516790E+02  0.74470750000E+01 0. -1.
        -31    1    1    2    0    0 -0.37638995060E-01  0.31143322119E+00  0.55643043640E+02  0.56140053785E+02  0.74470750000E+01 0.  1.
<mgrwt>
<rscale>  0 0.14931366E+02</rscale>
<asrwt>0</asrwt>
<pdfrwt beam="1">  1        2 0.98373192E+00 0.14931366E+02</pdfrwt>
<pdfrwt beam="2">  1       -2 0.99891077E+00 0.14931366E+02</pdfrwt>
<totfact>-0.15044003E-13</totfact>
</mgrwt>
</event>
<event>
 4    1 -0.5021037E-019  0.1494396E+02  0.7818608E-02  0.1869783E+00
          2   -1    0    0  501    0  0.00000000000E+00  0.00000000000E+00  0.11913322226E+03  0.11913322229E+03  0.25500000000E-02 0.  1.
         -2   -1    0    0    0  501 -0.00000000000E+00 -0.00000000000E+00 -0.46863544377E+00  0.46864238141E+00  0.25500000000E-02 0. -1.
         31    1    1    2    0    0 -0.21577890760E+00 -0.14717659565E+00  0.63740099214E+02  0.64174195712E+02  0.74470750000E+01 0.  1.
        -31    1    1    2    0    0  0.21577890760E+00  0.14717659565E+00  0.54924487601E+02  0.55427668955E+02  0.74470750000E+01 0. -1.
<mgrwt>
<rscale>  0 0.14943958E+02</rscale>
<asrwt>0</asrwt>
<pdfrwt beam="1">  1        2 0.98895190E+00 0.14943958E+02</pdfrwt>
<pdfrwt beam="2">  1       -2 0.99531481E+00 0.14943958E+02</pdfrwt>
<totfact>-0.19693008E-13</totfact>
</mgrwt>
</event>
<event>
 4    1 -0.5021037E-019  0.1491837E+02  0.7818608E-02  0.1870570E+00
          2   -1    0    0  501    0  0.00000000000E+00  0.00000000000E+00  0.11833073944E+03  0.11833073946E+03  0.25500000000E-02 0. -1.
         -2   -1    0    0    0  501 -0.00000000000E+00 -0.00000000000E+00 -0.47019923389E+00  0.47020614846E+00  0.25500000000E-02 0.  1.
         31    1    1    2    0    0  0.18114727487E+00  0.33553641536E+00  0.60422431816E+02  0.60880822856E+02  0.74470750000E+01 0. -1.
        -31    1    1    2    0    0 -0.18114727487E+00 -0.33553641536E+00  0.57438108387E+02  0.57920122757E+02  0.74470750000E+01 0.  1.
<mgrwt>
<rscale>  0 0.14918369E+02</rscale>
<asrwt>0</asrwt>
<pdfrwt beam="1">  1        2 0.98232934E+00 0.14918369E+02</pdfrwt>
<pdfrwt beam="2">  1       -2 0.99859635E+00 0.14918369E+02</pdfrwt>
<totfact>-0.23909361E-13</totfact>
</mgrwt>
</event>
<event>
 4    1 -0.5021037E-019  0.1493469E+02  0.7818608E-02  0.1870068E+00
         -2   -1    0    0    0  501 -0.00000000000E+00  0.00000000000E+00  0.12015320930E+03  0.12015320932E+03  0.25500000000E-02 0. -1.
          2   -1    0    0  501    0  0.00000000000E+00 -0.00000000000E+00 -0.46408079928E+00  0.46408780501E+00  0.25500000000E-02 0.  1.
         31    1    1    2    0    0  0.42430922525E+00 -0.32503558998E+00  0.60885408296E+02  0.61341483156E+02  0.74470750000E+01 0.  1.
        -31    1    1    2    0    0 -0.42430922525E+00  0.32503558998E+00  0.58803720203E+02  0.59275813973E+02  0.74470750000E+01 0. -1.
<mgrwt>
<rscale>  0 0.14934687E+02</rscale>
<asrwt>0</asrwt>
<pdfrwt beam="2">  1        2 0.98571155E+00 0.14934687E+02</pdfrwt>
<pdfrwt beam="1">  1       -2 0.99734820E+00 0.14934687E+02</pdfrwt>
<totfact>-0.22825507E-13</totfact>
</mgrwt>
</event>
<event>
 4    1 -0.5021037E-019  0.1495099E+02  0.7818608E-02  0.1869568E+00
         -2   -1    0    0    0  501 -0.00000000000E+00  0.00000000000E+00  0.11992722527E+03  0.11992722530E+03  0.25500000000E-02 0.  1.
          2   -1    0    0  501    0  0.00000000000E+00 -0.00000000000E+00 -0.46597099342E+00  0.46597797073E+00  0.25500000000E-02 0. -1.
         31    1    1    2    0    0 -0.16639076489E+00 -0.61885551642E+00  0.60664020096E+02  0.61122769311E+02  0.74470750000E+01 0. -1.
        -31    1    1    2    0    0  0.16639076489E+00  0.61885551642E+00  0.58797234180E+02  0.59270433956E+02  0.74470750000E+01 0.  1.
<mgrwt>
<rscale>  0 0.14950991E+02</rscale>
<asrwt>0</asrwt>
<pdfrwt beam="2">  1        2 0.98970356E+00 0.14950991E+02</pdfrwt>
<pdfrwt beam="1">  1       -2 0.99549524E+00 0.14950991E+02</pdfrwt>
<totfact>-0.18003176E-13</totfact>
</mgrwt>
</event>
<event>
 4    1 -0.5021037E-019  0.1492973E+02  0.7818608E-02  0.1870220E+00
         -2   -1    0    0    0  501 -0.00000000000E+00  0.00000000000E+00  0.12013740537E+03  0.12013740540E+03  0.25500000000E-02 0.  1.
          2   -1    0    0  501    0  0.00000000000E+00 -0.00000000000E+00 -0.46383377664E+00  0.46384078610E+00  0.25500000000E-02 0. -1.
         31    1    1    2    0    0 -0.30006635639E+00 -0.28203541847E+00  0.62335737487E+02  0.62780352642E+02  0.74470750000E+01 0. -1.
        -31    1    1    2    0    0  0.30006635639E+00  0.28203541847E+00  0.57337834110E+02  0.57820893544E+02  0.74470750000E+01 0. -1.
<mgrwt>
<rscale>  0 0.14929730E+02</rscale>
<asrwt>0</asrwt>
<pdfrwt beam="2">  1        2 0.98518840E+00 0.14929730E+02</pdfrwt>
<pdfrwt beam="1">  1       -2 0.99721548E+00 0.14929730E+02</pdfrwt>
<totfact>-0.25660938E-13</totfact>
</mgrwt>
</event>
<event>
 4    1  0.5021037E-019  0.1491079E+02  0.7818608E-02  0.1870803E+00
         -2   -1    0    0    0  501 -0.00000000000E+00  0.00000000000E+00  0.11892649004E+03  0.11892649007E+03  0.25500000000E-02 0.  1.
          2   -1    0    0  501    0  0.00000000000E+00 -0.00000000000E+00 -0.46736863963E+00  0.46737559608E+00  0.25500000000E-02 0. -1.
         31    1    1    2    0    0 -0.17714490971E+00 -0.27823911209E+00  0.58242190020E+02  0.58717292357E+02  0.74470750000E+01 0. -1.
        -31    1    1    2    0    0  0.17714490971E+00  0.27823911209E+00  0.60216931383E+02  0.60676573309E+02  0.74470750000E+01 0.  1.
<mgrwt>
<rscale>  0 0.14910792E+02</rscale>
<asrwt>0</asrwt>
<pdfrwt beam="2">  1        2 0.99262811E+00 0.14910792E+02</pdfrwt>
<pdfrwt beam="1">  1       -2 0.98723202E+00 0.14910792E+02</pdfrwt>
<totfact> 0.26970958E-13</totfact>
</mgrwt>
</event>
<event>
 4    1  0.5021037E-019  0.1493645E+02  0.7818608E-02  0.1870014E+00
          2   -1    0    0  501    0  0.00000000000E+00  0.00000000000E+00  0.12007087673E+03  0.12007087676E+03  0.25500000000E-02 0. -1.
         -2   -1    0    0    0  501 -0.00000000000E+00 -0.00000000000E+00 -0.46450868628E+00  0.46451568556E+00  0.25500000000E-02 0.  1.
         31    1    1    2    0    0  0.50820769141E+00  0.19207800959E+00  0.60952783918E+02  0.61408435597E+02  0.74470750000E+01 0.  1.
        -31    1    1    2    0    0 -0.50820769141E+00 -0.19207800959E+00  0.58653584128E+02  0.59126956848E+02  0.74470750000E+01 0.  1.
<mgrwt>
<rscale>  0 0.14936451E+02</rscale>
<asrwt>0</asrwt>
<pdfrwt beam="1">  1        2 0.99667096E+00 0.14936451E+02</pdfrwt>
<pdfrwt beam="2">  1       -2 0.98661426E+00 0.14936451E+02</pdfrwt>
<totfact> 0.22654567E-13</totfact>
</mgrwt>
</event>
<event>
 4    1 -0.5021037E-019  0.1492316E+02  0.7818608E-02  0.1870422E+00
         -2   -1    0    0    0  501 -0.00000000000E+00  0.00000000000E+00  0.11960098934E+03  0.11960098936E+03  0.25500000000E-02 0.  1.
          2   -1    0    0  501    0  0.00000000000E+00 -0.00000000000E+00 -0.46550414117E+00  0.46551112548E+00  0.25500000000E-02 0. -1.
         31    1    1    2    0    0 -0.42403667739E+00  0.70983149057E-01  0.58141936987E+02  0.58618500564E+02  0.74470750000E+01 0. -1.
        -31    1    1    2    0    0  0.42403667739E+00 -0.70983149057E-01  0.60993548209E+02  0.61447999926E+02  0.74470750000E+01 0. -1.
<mgrwt>
<rscale>  0 0.14923160E+02</rscale>
<asrwt>0</asrwt>
<pdfrwt beam="2">  1        2 0.98870541E+00 0.14923160E+02</pdfrwt>
<pdfrwt beam="1">  1       -2 0.99279383E+00 0.14923160E+02</pdfrwt>
<totfact>-0.17064794E-13</totfact>
</mgrwt>
</event>
<event>
 4    1 -0.5021037E-019  0.1494290E+02  0.7818608E-02  0.1869816E+00
          2   -1    0    0  501    0  0.00000000000E+00  0.00000000000E+00  0.11926874749E+03  0.11926874752E+03  0.25500000000E-02 0. -1.
         -2   -1    0    0    0  501 -0.00000000000E+00 -0.00000000000E+00 -0.46803669416E+00  0.46804364068E+00  0.25500000000E-02 0.  1.
         31    1    1    2    0    0 -0.20595424481E+00  0.16146724748E+00  0.55047078839E+02  0.55549152141E+02  0.74470750000E+01 0.  1.
        -31    1    1    2    0    0  0.20595424481E+00 -0.16146724748E+00  0.63753631955E+02  0.64187639016E+02  0.74470750000E+01 0. -1.
<mgrwt>
<rscale>  0 0.14942900E+02</rscale>
<asrwt>0</asrwt>
<pdfrwt beam="1">  1        2 0.99006756E+00 0.14942900E+02</pdfrwt>
<pdfrwt beam="2">  1       -2 0.99405257E+00 0.14942900E+02</pdfrwt>
<totfact>-0.17421527E-13</totfact>
</mgrwt>
</event>
<event>
 4    1 -0.5021037E-019  0.1501010E+02  0.7818608E-02  0.1867760E+00
          2   -1    0    0  501    0  0.00000000000E+00  0.00000000000E+00  0.12000151226E+03  0.12000151229E+03  0.25500000000E-02 0. -1.
         -2   -1    0    0    0  501 -0.00000000000E+00 -0.00000000000E+00 -0.46937232322E+00  0.46937924997E+00  0.25500000000E-02 0.  1.
         31    1    1    2    0    0 -0.56777185913E+00  0.33297851246E+00  0.65051301329E+02  0.65479492746E+02  0.74470750000E+01 0. -1.
        -31    1    1    2    0    0  0.56777185913E+00 -0.33297851246E+00  0.54480838606E+02  0.54991398790E+02  0.74470750000E+01 0. -1.
<mgrwt>
<rscale>  0 0.15010104E+02</rscale>
<asrwt>0</asrwt>
<pdfrwt beam="1">  1        2 0.99613762E+00 0.15010104E+02</pdfrwt>
<pdfrwt beam="2">  1       -2 0.99690198E+00 0.15010104E+02</pdfrwt>
<totfact>-0.84554746E-14</totfact>
</mgrwt>
</event>
<event>
 4    1  0.5021037E-019  0.1489732E+02  0.7818608E-02  0.1871218E+00
         -2   -1    0    0    0  501 -0.00000000000E+00  0.00000000000E+00  0.11856001904E+03  0.11856001907E+03  0.25500000000E-02 0. -1.
          2   -1    0    0  501    0  0.00000000000E+00 -0.00000000000E+00 -0.46796680390E+00  0.46797375146E+00  0.25500000000E-02 0.  1.
         31    1    1    2    0    0  0.69578849604E-01  0.12002440011E+00  0.58516328138E+02  0.58988463550E+02  0.74470750000E+01 0.  1.
        -31    1    1    2    0    0 -0.69578849604E-01 -0.12002440011E+00  0.59575724101E+02  0.60039529273E+02  0.74470750000E+01 0.  1.
<mgrwt>
<rscale>  0 0.14897324E+02</rscale>
<asrwt>0</asrwt>
<pdfrwt beam="2">  1        2 0.99388149E+00 0.14897324E+02</pdfrwt>
<pdfrwt beam="1">  1       -2 0.98420672E+00 0.14897324E+02</pdfrwt>
<totfact> 0.66248859E-13</totfact>
</mgrwt>
</event>
<event>
 4    1 -0.5021037E-019  0.1493237E+02  0.7818608E-02  0.1870139E+00
          2   -1    0    0  501    0  0.00000000000E+00  0.00000000000E+00  0.11934712707E+03  0.11934712710E+03  0.25500000000E-02 0.  1.
         -2   -1    0    0    0  501 -0.00000000000E+00 -0.00000000000E+00 -0.46707049149E+00  0.46707745238E+00  0.25500000000E-02 0. -1.
         31    1    1    2    0    0  0.74600777826E-01 -0.52481354364E+00  0.59948723129E+02  0.60411831006E+02  0.74470750000E+01 0.  1.
        -31    1    1    2    0    0 -0.74600777826E-01  0.52481354364E+00  0.58931333448E+02  0.59402373543E+02  0.74470750000E+01 0. -1.
<mgrwt>
<rscale>  0 0.14932373E+02</rscale>
<asrwt>0</asrwt>
<pdfrwt beam="1">  1        2 0.99070767E+00 0.14932373E+02</pdfrwt>
<pdfrwt beam="2">  1       -2 0.99201105E+00 0.14932373E+02</pdfrwt>
<totfact>-0.11114520E-13</totfact>
</mgrwt>
</event>
<event>
 4    1  0.5021037E-019  0.1490972E+02  0.7818608E-02  0.1870836E+00
          2   -1    0    0  501    0  0.00000000000E+00  0.00000000000E+00  0.11932594138E+03  0.11932594141E+03  0.25500000000E-02 0.  1.
         -2   -1    0    0    0  501 -0.00000000000E+00 -0.00000000000E+00 -0.46573683108E+00  0.46574381190E+00  0.25500000000E-02 0. -1.
         31    1    1    2    0    0  0.19359427738E+00 -0.19248586310E+00  0.57794343228E+02  0.58272802959E+02  0.74470750000E+01 0. -1.
        -31    1    1    2    0    0 -0.19359427738E+00  0.19248586310E+00  0.61065861326E+02  0.61518882264E+02  0.74470750000E+01 0.  1.
<mgrwt>
<rscale>  0 0.14909716E+02</rscale>
<asrwt>0</asrwt>
<pdfrwt beam="1">  1        2 0.99052147E+00 0.14909716E+02</pdfrwt>
<pdfrwt beam="2">  1       -2 0.98918886E+00 0.14909716E+02</pdfrwt>
<totfact> 0.84526964E-14</totfact>
</mgrwt>
</event>
<event>
 4    1 -0.5021037E-019  0.1493428E+02  0.7818608E-02  0.1870081E+00
          2   -1    0    0  501    0  0.00000000000E+00  0.00000000000E+00  0.11939116532E+03  0.11939116535E+03  0.25500000000E-02 0.  1.
         -2   -1    0    0    0  501 -0.00000000000E+00 -0.00000000000E+00 -0.46701767916E+00  0.46702464084E+00  0.25500000000E-02 0. -1.
         31    1    1    2    0    0 -0.35598409015E+00 -0.18696936372E+00  0.62439119223E+02  0.62882940593E+02  0.74470750000E+01 0.  1.
        -31    1    1    2    0    0  0.35598409015E+00  0.18696936372E+00  0.56485028415E+02  0.56975249393E+02  0.74470750000E+01 0. -1.
<mgrwt>
<rscale>  0 0.14934283E+02</rscale>
<asrwt>0</asrwt>
<pdfrwt beam="1">  1        2 0.99107138E+00 0.14934283E+02</pdfrwt>
<pdfrwt beam="2">  1       -2 0.99190075E+00 0.14934283E+02</pdfrwt>
<totfact>-0.10312944E-13</totfact>
</mgrwt>
</event>
<event>
 4    1  0.5021037E-019  0.1493863E+02  0.7818608E-02  0.1869947E+00
         -2   -1    0    0    0  501 -0.00000000000E+00  0.00000000000E+00  0.11851709646E+03  0.11851709648E+03  0.25500000000E-02 0.  1.
          2   -1    0    0  501    0  0.00000000000E+00 -0.00000000000E+00 -0.47073569256E+00  0.47074259925E+00  0.25500000000E-02 0. -1.
         31    1    1    2    0    0 -0.51537741238E+00  0.24550014089E+00  0.58415020869E+02  0.58890572024E+02  0.74470750000E+01 0. -1.
        -31    1    1    2    0    0  0.51537741238E+00 -0.24550014089E+00  0.59631339895E+02  0.60097267059E+02  0.74470750000E+01 0. -1.
<mgrwt>
<rscale>  0 0.14938626E+02</rscale>
<asrwt>0</asrwt>
<pdfrwt beam="2">  1        2 0.99973736E+00 0.14938626E+02</pdfrwt>
<pdfrwt beam="1">  1       -2 0.98387471E+00 0.14938626E+02</pdfrwt>
<totfact> 0.56888827E-14</totfact>
</mgrwt>
</event>
<event>
 4    1 -0.5021037E-019  0.1489721E+02  0.7818608E-02  0.1871221E+00
          2   -1    0    0  501    0  0.00000000000E+00  0.00000000000E+00  0.11852447904E+03  0.11852447907E+03  0.25500000000E-02 0.  1.
         -2   -1    0    0    0  501 -0.00000000000E+00 -0.00000000000E+00 -0.46810004698E+00  0.46810699256E+00  0.25500000000E-02 0. -1.
         31    1    1    2    0    0  0.27643542848E-01 -0.29531754665E-01  0.57866094045E+02  0.58343340686E+02  0.74470750000E+01 0. -1.
        -31    1    1    2    0    0 -0.27643542848E-01  0.29531754665E-01  0.60190284949E+02  0.60649245375E+02  0.74470750000E+01 0.  1.
<mgrwt>
<rscale>  0 0.14897212E+02</rscale>
<asrwt>0</asrwt>
<pdfrwt beam="1">  1        2 0.98391396E+00 0.14897212E+02</pdfrwt>
<pdfrwt beam="2">  1       -2 0.99416219E+00 0.14897212E+02</pdfrwt>
<totfact>-0.41030880E-13</totfact>
</mgrwt>
</event>
<event>
 4    1  0.5021037E-019  0.1492146E+02  0.7818608E-02  0.1870475E+00
          2   -1    0    0  501    0  0.00000000000E+00  0.00000000000E+00  0.11972397303E+03  0.11972397306E+03  0.25500000000E-02 0.  1.
         -2   -1    0    0    0  501 -0.00000000000E+00 -0.00000000000E+00 -0.46492009641E+00  0.46492708950E+00  0.25500000000E-02 0. -1.
         31    1    1    2    0    0 -0.18619439566E+00  0.97137516358E-01  0.56412931441E+02  0.56902740390E+02  0.74470750000E+01 0. -1.
        -31    1    1    2    0    0  0.18619439566E+00 -0.97137516358E-01  0.62846121494E+02  0.63286159758E+02  0.74470750000E+01 0.  1.
<mgrwt>
<rscale>  0 0.14921461E+02</rscale>
<asrwt>0</asrwt>
<pdfrwt beam="1">  1        2 0.99380592E+00 0.14921461E+02</pdfrwt>
<pdfrwt beam="2">  1       -2 0.98747368E+00 0.14921461E+02</pdfrwt>
<totfact> 0.22129194E-13</totfact>
</mgrwt>
</event>
<event>
 4    1  0.5021037E-019  0.1494144E+02  0.7818608E-02  0.1869861E+00
          2   -1    0    0  501    0  0.00000000000E+00  0.00000000000E+00  0.12016362874E+03  0.12016362876E+03  0.25500000000E-02 0.  1.
         -2   -1    0    0    0  501 -0.00000000000E+00 -0.00000000000E+00 -0.46446047530E+00  0.46446747531E+00  0.25500000000E-02 0. -1.
         31    1    1    2    0    0  0.54726251326E+00  0.21188747422E-01  0.57994308040E+02  0.58473059064E+02  0.74470750000E+01 0.  1.
        -31    1    1    2    0    0 -0.54726251326E+00 -0.21188747422E-01  0.61704860222E+02  0.62155037175E+02  0.74470750000E+01 0.  1.
<mgrwt>
<rscale>  0 0.14941443E+02</rscale>
<asrwt>0</asrwt>
<pdfrwt beam="1">  1        2 0.99743750E+00 0.14941443E+02</pdfrwt>
<pdfrwt beam="2">  1       -2 0.98651519E+00 0.14941443E+02</pdfrwt>
<totfact> 0.19672240E-13</totfact>
</mgrwt>
</event>
<event>
 4    1 -0.5021037E-019  0.1497696E+02  0.7818608E-02  0.1868773E+00
          2   -1    0    0  501    0  0.00000000000E+00  0.00000000000E+00  0.12003882515E+03  0.12003882518E+03  0.25500000000E-02 0.  1.
         -2   -1    0    0    0  501 -0.00000000000E+00 -0.00000000000E+00 -0.46715617624E+00  0.46716313585E+00  0.25500000000E-02 0. -1.
         31    1    1    2    0    0  0.12219260269E+00 -0.39460249989E+00  0.65169695235E+02  0.65595112206E+02  0.74470750000E+01 0. -1.
        -31    1    1    2    0    0 -0.12219260269E+00  0.39460249989E+00  0.54401973739E+02  0.54910876107E+02  0.74470750000E+01 0.  1.
<mgrwt>
<rscale>  0 0.14976956E+02</rscale>
<asrwt>0</asrwt>
<pdfrwt beam="1">  1        2 0.99642783E+00 0.14976956E+02</pdfrwt>
<pdfrwt beam="2">  1       -2 0.99221462E+00 0.14976956E+02</pdfrwt>
<totfact>-0.70323741E-14</totfact>
</mgrwt>
</event>
<event>
 4    1 -0.5021037E-019  0.1494403E+02  0.7818608E-02  0.1869781E+00
         -2   -1    0    0    0  501 -0.00000000000E+00  0.00000000000E+00  0.11991217855E+03  0.11991217858E+03  0.25500000000E-02 0.  1.
          2   -1    0    0  501    0  0.00000000000E+00 -0.00000000000E+00 -0.46559578317E+00  0.46560276611E+00  0.25500000000E-02 0. -1.
         31    1    1    2    0    0 -0.42963004162E-01  0.58458870756E+00  0.61083429677E+02  0.61538507432E+02  0.74470750000E+01 0. -1.
        -31    1    1    2    0    0  0.42963004162E-01 -0.58458870756E+00  0.58363153089E+02  0.58839273910E+02  0.74470750000E+01 0.  1.
<mgrwt>
<rscale>  0 0.14944032E+02</rscale>
<asrwt>0</asrwt>
<pdfrwt beam="2">  1        2 0.98890924E+00 0.14944032E+02</pdfrwt>
<pdfrwt beam="1">  1       -2 0.99536772E+00 0.14944032E+02</pdfrwt>
<totfact>-0.19735961E-13</totfact>
</mgrwt>
</event>
<event>
 4    1  0.5021037E-019  0.1491842E+02  0.7818608E-02  0.1870568E+00
          2   -1    0    0  501    0  0.00000000000E+00  0.00000000000E+00  0.12010725257E+03  0.12010725260E+03  0.25500000000E-02 0. -1.
         -2   -1    0    0    0  501 -0.00000000000E+00 -0.00000000000E+00 -0.46324749804E+00  0.46325451638E+00  0.25500000000E-02 0.  1.
         31    1    1    2    0    0 -0.38434502453E+00 -0.13478242644E+00  0.60811692501E+02  0.61267338430E+02  0.74470750000E+01 0.  1.
        -31    1    1    2    0    0  0.38434502453E+00  0.13478242644E+00  0.58832312572E+02  0.59303168685E+02  0.74470750000E+01 0.  1.
<mgrwt>
<rscale>  0 0.14918419E+02</rscale>
<asrwt>0</asrwt>
<pdfrwt beam="1">  1        2 0.99696131E+00 0.14918419E+02</pdfrwt>
<pdfrwt beam="2">  1       -2 0.98394699E+00 0.14918419E+02</pdfrwt>
<totfact> 0.47609759E-13</totfact>
</mgrwt>
</event>
<event>
 4    1 -0.5021037E-019  0.1494768E+02  0.7818608E-02  0.1869669E+00
          2   -1    0    0  501    0  0.00000000000E+00  0.00000000000E+00  0.11948280757E+03  0.11948280760E+03  0.25500000000E-02 0.  1.
         -2   -1    0    0    0  501 -0.00000000000E+00 -0.00000000000E+00 -0.46749706845E+00  0.46750402299E+00  0.25500000000E-02 0. -1.
         31    1    1    2    0    0 -0.29820355166E+00  0.42679570484E+00  0.56633576675E+02  0.57123480400E+02  0.74470750000E+01 0. -1.
        -31    1    1    2    0    0  0.29820355166E+00 -0.42679570484E+00  0.62381733828E+02  0.62826831222E+02  0.74470750000E+01 0.  1.
<mgrwt>
<rscale>  0 0.14947680E+02</rscale>
<asrwt>0</asrwt>
<pdfrwt beam="1">  1        2 0.99183310E+00 0.14947680E+02</pdfrwt>
<pdfrwt beam="2">  1       -2 0.99291791E+00 0.14947680E+02</pdfrwt>
<totfact>-0.13092048E-13</totfact>
</mgrwt>
</event>
<event>
 4    1 -0.5021037E-019  0.1490998E+02  0.7818608E-02  0.1870828E+00
         -2   -1    0    0    0  501 -0.00000000000E+00  0.00000000000E+00  0.12022993458E+03  0.12022993461E+03  0.25500000000E-02 0. -1.
          2   -1    0    0  501    0  0.00000000000E+00 -0.00000000000E+00 -0.46225126284E+00  0.46225829629E+00  0.25500000000E-02 0.  1.
         31    1    1    2    0    0 -0.35372742948E-01  0.17795428145E+00  0.57523563992E+02  0.58003898657E+02  0.74470750000E+01 0. -1.
        -31    1    1    2    0    0  0.35372742948E-01 -0.17795428145E+00  0.62244119326E+02  0.62688294248E+02  0.74470750000E+01 0. -1.
<mgrwt>
<rscale>  0 0.14909979E+02</rscale>
<asrwt>0</asrwt>
<pdfrwt beam="2">  1        2 0.98184295E+00 0.14909979E+02</pdfrwt>
<pdfrwt beam="1">  1       -2 0.99796749E+00 0.14909979E+02</pdfrwt>
<totfact>-0.35446814E-13</totfact>
</mgrwt>
</event>
<event>
 4    1 -0.5021037E-019  0.1492647E+02  0.7818608E-02  0.1870321E+00
         -2   -1    0    0    0  501 -0.00000000000E+00  0.00000000000E+00  0.11936441918E+03  0.11936441921E+03  0.25500000000E-02 0. -1.
          2   -1    0    0  501    0  0.00000000000E+00 -0.00000000000E+00 -0.46663388452E+00  0.46664085192E+00  0.25500000000E-02 0.  1.
         31    1    1    2    0    0  0.46867013214E-01  0.40731021690E+00  0.57281643094E+02  0.57765159566E+02  0.74470750000E+01 0.  1.
        -31    1    1    2    0    0 -0.46867013214E-01 -0.40731021690E+00  0.61616142205E+02  0.62065900496E+02  0.74470750000E+01 0.  1.
<mgrwt>
<rscale>  0 0.14926473E+02</rscale>
<asrwt>0</asrwt>
<pdfrwt beam="2">  1        2 0.99108792E+00 0.14926473E+02</pdfrwt>
<pdfrwt beam="1">  1       -2 0.99084705E+00 0.14926473E+02</pdfrwt>
<totfact>-0.47612069E-14</totfact>
</mgrwt>
</event>
<event>
 4    1 -0.5021037E-019  0.1498215E+02  0.7818608E-02  0.1868614E+00
         -2   -1    0    0    0  501 -0.00000000000E+00  0.00000000000E+00  0.11970705131E+03  0.11970705134E+03  0.25500000000E-02 0.  1.
          2   -1    0    0  501    0  0.00000000000E+00 -0.00000000000E+00 -0.46877589189E+00  0.46878282746E+00  0.25500000000E-02 0. -1.
         31    1    1    2    0    0 -0.10763954862E+00 -0.13382045349E+00  0.65974583713E+02  0.66393780705E+02  0.74470750000E+01 0.  1.
        -31    1    1    2    0    0  0.10763954862E+00  0.13382045349E+00  0.53263691705E+02  0.53782053459E+02  0.74470750000E+01 0. -1.
<mgrwt>
<rscale>  0 0.14982149E+02</rscale>
<asrwt>0</asrwt>
<pdfrwt beam="2">  1        2 0.99563064E+00 0.14982149E+02</pdfrwt>
<pdfrwt beam="1">  1       -2 0.99369788E+00 0.14982149E+02</pdfrwt>
<totfact>-0.10595604E-13</totfact>
</mgrwt>
</event>
<event>
 4    1 -0.5021037E-019  0.1500083E+02  0.7818608E-02  0.1868043E+00
          2   -1    0    0  501    0  0.00000000000E+00  0.00000000000E+00  0.11988392674E+03  0.11988392676E+03  0.25500000000E-02 0. -1.
         -2   -1    0    0    0  501 -0.00000000000E+00 -0.00000000000E+00 -0.46925208253E+00  0.46925901105E+00  0.25500000000E-02 0.  1.
         31    1    1    2    0    0  0.23303142941E+00  0.61231852821E+00  0.64574638671E+02  0.65005939138E+02  0.74470750000E+01 0. -1.
        -31    1    1    2    0    0 -0.23303142941E+00 -0.61231852821E+00  0.54840035984E+02  0.55347246638E+02  0.74470750000E+01 0.  1.
<mgrwt>
<rscale>  0 0.15000827E+02</rscale>
<asrwt>0</asrwt>
<pdfrwt beam="1">  1        2 0.99516435E+00 0.15000827E+02</pdfrwt>
<pdfrwt beam="2">  1       -2 0.99664379E+00 0.15000827E+02</pdfrwt>
<totfact>-0.10063227E-13</totfact>
</mgrwt>
</event>
<event>
 4    1  0.5021037E-019  0.1493632E+02  0.7818608E-02  0.1870018E+00
          2   -1    0    0  501    0  0.00000000000E+00  0.00000000000E+00  0.12029560983E+03  0.12029560985E+03  0.25500000000E-02 0.  1.
         -2   -1    0    0    0  501 -0.00000000000E+00 -0.00000000000E+00 -0.46363270549E+00  0.46363971799E+00  0.25500000000E-02 0. -1.
         31    1    1    2    0    0  0.85248376195E-01  0.55175424936E+00  0.59489858243E+02  0.59956766590E+02  0.74470750000E+01 0. -1.
        -31    1    1    2    0    0 -0.85248376195E-01 -0.55175424936E+00  0.60342118877E+02  0.60802482981E+02  0.74470750000E+01 0.  1.
<mgrwt>
<rscale>  0 0.14936319E+02</rscale>
<asrwt>0</asrwt>
<pdfrwt beam="1">  1        2 0.99852197E+00 0.14936319E+02</pdfrwt>
<pdfrwt beam="2">  1       -2 0.98476795E+00 0.14936319E+02</pdfrwt>
<totfact> 0.22238979E-13</totfact>
</mgrwt>
</event>
<event>
 4    1  0.5021037E-019  0.1494267E+02  0.7818608E-02  0.1869823E+00
         -2   -1    0    0    0  501 -0.00000000000E+00  0.00000000000E+00  0.11867460056E+03  0.11867460059E+03  0.25500000000E-02 0. -1.
          2   -1    0    0  501    0  0.00000000000E+00 -0.00000000000E+00 -0.47036556576E+00  0.47037247789E+00  0.25500000000E-02 0.  1.
         31    1    1    2    0    0  0.16115501038E+00 -0.52542712134E+00  0.61053393835E+02  0.61508356094E+02  0.74470750000E+01 0. -1.
        -31    1    1    2    0    0 -0.16115501038E+00  0.52542712134E+00  0.57150841162E+02  0.57636616973E+02  0.74470750000E+01 0. -1.
<mgrwt>
<rscale>  0 0.14942672E+02</rscale>
<asrwt>0</asrwt>
<pdfrwt beam="2">  1        2 0.99895966E+00 0.14942672E+02</pdfrwt>
<pdfrwt beam="1">  1       -2 0.98517400E+00 0.14942672E+02</pdfrwt>
<totfact> 0.14656145E-13</totfact>
</mgrwt>
</event>
<event>
 4    1 -0.5021037E-019  0.1492796E+02  0.7818608E-02  0.1870275E+00
         -2   -1    0    0    0  501 -0.00000000000E+00  0.00000000000E+00  0.11974159799E+03  0.11974159802E+03  0.25500000000E-02 0.  1.
          2   -1    0    0  501    0  0.00000000000E+00 -0.00000000000E+00 -0.46525666783E+00  0.46526365586E+00  0.25500000000E-02 0. -1.
         31    1    1    2    0    0 -0.10767807508E+00 -0.43699928695E+00  0.57846438266E+02  0.58325568227E+02  0.74470750000E+01 0. -1.
        -31    1    1    2    0    0  0.10767807508E+00  0.43699928695E+00  0.61429903060E+02  0.61881293450E+02  0.74470750000E+01 0.  1.
<mgrwt>
<rscale>  0 0.14927960E+02</rscale>
<asrwt>0</asrwt>
<pdfrwt beam="2">  1        2 0.98818633E+00 0.14927960E+02</pdfrwt>
<pdfrwt beam="1">  1       -2 0.99395444E+00 0.14927960E+02</pdfrwt>
<totfact>-0.21270032E-13</totfact>
</mgrwt>
</event>
<event>
 4    1 -0.5021037E-019  0.1499965E+02  0.7818608E-02  0.1868079E+00
          2   -1    0    0  501    0  0.00000000000E+00  0.00000000000E+00  0.11958067212E+03  0.11958067214E+03  0.25500000000E-02 0. -1.
         -2   -1    0    0    0  501 -0.00000000000E+00 -0.00000000000E+00 -0.47036833760E+00  0.47037524968E+00  0.25500000000E-02 0.  1.
         31    1    1    2    0    0  0.18492244653E+00  0.79517502423E+00  0.62350144740E+02  0.62798614434E+02  0.74470750000E+01 0. -1.
        -31    1    1    2    0    0 -0.18492244653E+00 -0.79517502423E+00  0.56760159038E+02  0.57252432958E+02  0.74470750000E+01 0. -1.
<mgrwt>
<rscale>  0 0.14999650E+02</rscale>
<asrwt>0</asrwt>
<pdfrwt beam="1">  1        2 0.99266606E+00 0.14999650E+02</pdfrwt>
<pdfrwt beam="2">  1       -2 0.99899540E+00 0.14999650E+02</pdfrwt>
<totfact>-0.47123049E-14</totfact>
</mgrwt>
</event>
<event>
 4    1  0.5021037E-019  0.1494270E+02  0.7818608E-02  0.1869822E+00
         -2   -1    0    0    0  501 -0.00000000000E+00  0.00000000000E+00  0.11881143307E+03  0.11881143310E+03  0.25500000000E-02 0. -1.
          2   -1    0    0  501    0  0.00000000000E+00 -0.00000000000E+00 -0.46982554368E+00  0.46983246375E+00  0.25500000000E-02 0.  1.
         31    1    1    2    0    0 -0.51553310462E+00  0.25918399075E+00  0.57807120748E+02  0.58287692406E+02  0.74470750000E+01 0.  1.
        -31    1    1    2    0    0  0.51553310462E+00 -0.25918399075E+00  0.60534486776E+02  0.60993573154E+02  0.74470750000E+01 0. -1.
<mgrwt>
<rscale>  0 0.14942699E+02</rscale>
<asrwt>0</asrwt>
<pdfrwt beam="2">  1        2 0.99782183E+00 0.14942699E+02</pdfrwt>
<pdfrwt beam="1">  1       -2 0.98630096E+00 0.14942699E+02</pdfrwt>
<totfact> 0.18856542E-13</totfact>
</mgrwt>
</event>
<event>
 4    1 -0.5021037E-019  0.1494067E+02  0.7818608E-02  0.1869884E+00
          2   -1    0    0  501    0  0.00000000000E+00  0.00000000000E+00  0.11936236387E+03  0.11936236389E+03  0.25500000000E-02 0.  1.
         -2   -1    0    0    0  501 -0.00000000000E+00 -0.00000000000E+00 -0.46753001967E+00  0.46753697371E+00  0.25500000000E-02 0. -1.
         31    1    1    2    0    0 -0.21046515603E+00  0.16941998388E+00  0.55249285696E+02  0.55749578426E+02  0.74470750000E+01 0.  1.
        -31    1    1    2    0    0  0.21046515603E+00 -0.16941998388E+00  0.63645548150E+02  0.64080322441E+02  0.74470750000E+01 0.  1.
<mgrwt>
<rscale>  0 0.14940670E+02</rscale>
<asrwt>0</asrwt>
<pdfrwt beam="1">  1        2 0.99083746E+00 0.14940670E+02</pdfrwt>
<pdfrwt beam="2">  1       -2 0.99298371E+00 0.14940670E+02</pdfrwt>
<totfact>-0.14334908E-13</totfact>
</mgrwt>
</event>
<event>
 4    1 -0.5021037E-019  0.1499819E+02  0.7818608E-02  0.1868124E+00
          2   -1    0    0  501    0  0.00000000000E+00  0.00000000000E+00  0.11986137177E+03  0.11986137179E+03  0.25500000000E-02 0. -1.
         -2   -1    0    0    0  501 -0.00000000000E+00 -0.00000000000E+00 -0.46917510888E+00  0.46918203855E+00  0.25500000000E-02 0.  1.
         31    1    1    2    0    0  0.21318399876E+00  0.82727029523E+00  0.61447267292E+02  0.61902789980E+02  0.74470750000E+01 0.  1.
        -31    1    1    2    0    0 -0.21318399876E+00 -0.82727029523E+00  0.57944929364E+02  0.58427763851E+02  0.74470750000E+01 0.  1.
<mgrwt>
<rscale>  0 0.14998185E+02</rscale>
<asrwt>0</asrwt>
<pdfrwt beam="1">  1        2 0.99497721E+00 0.14998185E+02</pdfrwt>
<pdfrwt beam="2">  1       -2 0.99648022E+00 0.14998185E+02</pdfrwt>
<totfact>-0.10541760E-13</totfact>
</mgrwt>
</event>
<event>
 4    1  0.5021037E-019  0.1490455E+02  0.7818608E-02  0.1870995E+00
          2   -1    0    0  501    0  0.00000000000E+00  0.00000000000E+00  0.12035755113E+03  0.12035755115E+03  0.25500000000E-02 0.  1.
         -2   -1    0    0    0  501 -0.00000000000E+00 -0.00000000000E+00 -0.46142513021E+00  0.46143217627E+00  0.25500000000E-02 0. -1.
         31    1    1    2    0    0 -0.53892046916E-01  0.25098143283E+00  0.59074854261E+02  0.59542952800E+02  0.74470750000E+01 0.  1.
        -31    1    1    2    0    0  0.53892046916E-01 -0.25098143283E+00  0.60821271734E+02  0.61276030529E+02  0.74470750000E+01 0. -1.
<mgrwt>
<rscale>  0 0.14904553E+02</rscale>
<asrwt>0</asrwt>
<pdfrwt beam="1">  1        2 0.99901589E+00 0.14904553E+02</pdfrwt>
<pdfrwt beam="2">  1       -2 0.98009891E+00 0.14904553E+02</pdfrwt>
<totfact> 0.42073673E-13</totfact>
</mgrwt>
</event>
<event>
 4    1 -0.5021037E-019  0.1497848E+02  0.7818608E-02  0.1868726E+00
          2   -1    0    0  501    0  0.00000000000E+00  0.00000000000E+00  0.11986209605E+03  0.11986209608E+03  0.25500000000E-02 0. -1.
         -2   -1    0    0    0  501 -0.00000000000E+00 -0.00000000000E+00 -0.46794000983E+00  0.46794695779E+00  0.25500000000E-02 0.  1.
         31    1    1    2    0    0 -0.58231615854E+00  0.53908505444E+00  0.59758890134E+02  0.60226352877E+02  0.74470750000E+01 0.  1.
        -31    1    1    2    0    0  0.58231615854E+00 -0.53908505444E+00  0.59635265910E+02  0.60103690162E+02  0.74470750000E+01 0.  1.
<mgrwt>
<rscale>  0 0.14978477E+02</rscale>
<asrwt>0</asrwt>
<pdfrwt beam="1">  1        2 0.99497299E+00 0.14978477E+02</pdfrwt>
<pdfrwt beam="2">  1       -2 0.99386726E+00 0.14978477E+02</pdfrwt>
<totfact>-0.11591458E-13</totfact>
</mgrwt>
</event>
<event>
 4    1  0.5021037E-019  0.1490146E+02  0.7818608E-02  0.1871090E+00
         -2   -1    0    0    0  501 -0.00000000000E+00  0.00000000000E+00  0.11829731307E+03  0.11829731310E+03  0.25500000000E-02 0. -1.
          2   -1    0    0  501    0  0.00000000000E+00 -0.00000000000E+00 -0.46926672355E+00  0.46927365187E+00  0.25500000000E-02 0.  1.
         31    1    1    2    0    0 -0.15882508314E+00  0.86324173687E-01  0.60090859102E+02  0.60550829482E+02  0.74470750000E+01 0. -1.
        -31    1    1    2    0    0  0.15882508314E+00 -0.86324173687E-01  0.57737187244E+02  0.58215757267E+02  0.74470750000E+01 0.  1.
<mgrwt>
<rscale>  0 0.14901464E+02</rscale>
<asrwt>0</asrwt>
<pdfrwt beam="2">  1        2 0.99662265E+00 0.14901464E+02</pdfrwt>
<pdfrwt beam="1">  1       -2 0.98204524E+00 0.14901464E+02</pdfrwt>
<totfact> 0.77608016E-13</totfact>
</mgrwt>
</event>
<event>
 4    1 -0.5021037E-019  0.1497457E+02  0.7818608E-02  0.1868846E+00
          2   -1    0    0  501    0  0.00000000000E+00  0.00000000000E+00  0.11986270730E+03  0.11986270733E+03  0.25500000000E-02 0. -1.
         -2   -1    0    0    0  501 -0.00000000000E+00 -0.00000000000E+00 -0.46769353972E+00  0.46770049133E+00  0.25500000000E-02 0.  1.
         31    1    1    2    0    0  0.13713817022E+00 -0.60489902973E+00  0.55964620992E+02  0.56461335785E+02  0.74470750000E+01 0.  1.
        -31    1    1    2    0    0 -0.13713817022E+00  0.60489902973E+00  0.63430392773E+02  0.63869072038E+02  0.74470750000E+01 0. -1.
<mgrwt>
<rscale>  0 0.14974570E+02</rscale>
<asrwt>0</asrwt>
<pdfrwt beam="1">  1        2 0.99497600E+00 0.14974570E+02</pdfrwt>
<pdfrwt beam="2">  1       -2 0.99334584E+00 0.14974570E+02</pdfrwt>
<totfact>-0.10959157E-13</totfact>
</mgrwt>
</event>
<event>
 4    1 -0.5021037E-019  0.1492595E+02  0.7818608E-02  0.1870337E+00
         -2   -1    0    0    0  501 -0.00000000000E+00  0.00000000000E+00  0.12014461551E+03  0.12014461554E+03  0.25500000000E-02 0. -1.
          2   -1    0    0  501    0  0.00000000000E+00 -0.00000000000E+00 -0.46357128214E+00  0.46357829558E+00  0.25500000000E-02 0.  1.
         31    1    1    2    0    0  0.86151152251E-01  0.25860542220E+00  0.63100786766E+02  0.63539298984E+02  0.74470750000E+01 0. -1.
        -31    1    1    2    0    0 -0.86151152251E-01 -0.25860542220E+00  0.56580257464E+02  0.57068894851E+02  0.74470750000E+01 0.  1.
<mgrwt>
<rscale>  0 0.14925953E+02</rscale>
<asrwt>0</asrwt>
<pdfrwt beam="2">  1        2 0.98463323E+00 0.14925953E+02</pdfrwt>
<pdfrwt beam="1">  1       -2 0.99727293E+00 0.14925953E+02</pdfrwt>
<totfact>-0.27681371E-13</totfact>
</mgrwt>
</event>
<event>
 4    1 -0.5021037E-019  0.1492563E+02  0.7818608E-02  0.1870346E+00
         -2   -1    0    0    0  501 -0.00000000000E+00  0.00000000000E+00  0.12017505723E+03  0.12017505726E+03  0.25500000000E-02 0. -1.
          2   -1    0    0  501    0  0.00000000000E+00 -0.00000000000E+00 -0.46343389832E+00  0.46344091383E+00  0.25500000000E-02 0.  1.
         31    1    1    2    0    0  0.25190903256E+00 -0.24929721053E-01  0.63194385455E+02  0.63632172356E+02  0.74470750000E+01 0. -1.
        -31    1    1    2    0    0 -0.25190903256E+00  0.24929721053E-01  0.56517237880E+02  0.57006325818E+02  0.74470750000E+01 0.  1.
<mgrwt>
<rscale>  0 0.14925632E+02</rscale>
<asrwt>0</asrwt>
<pdfrwt beam="2">  1        2 0.98434351E+00 0.14925632E+02</pdfrwt>
<pdfrwt beam="1">  1       -2 0.99752351E+00 0.14925632E+02</pdfrwt>
<totfact>-0.27096291E-13</totfact>
</mgrwt>
</event>
<event>
 4    1  0.5021037E-019  0.1492517E+02  0.7818608E-02  0.1870361E+00
         -2   -1    0    0    0  501 -0.00000000000E+00  0.00000000000E+00  0.11848427661E+03  0.11848427663E+03  0.25500000000E-02 0. -1.
          2   -1    0    0  501    0  0.00000000000E+00 -0.00000000000E+00 -0.47001809896E+00  0.47002501620E+00  0.25500000000E-02 0.  1.
         31    1    1    2    0    0 -0.16444139868E+00  0.88929949701E-01  0.62538246342E+02  0.62980363060E+02  0.74470750000E+01 0. -1.
        -31    1    1    2    0    0  0.16444139868E+00 -0.88929949701E-01  0.55476012166E+02  0.55973938591E+02  0.74470750000E+01 0.  1.
<mgrwt>
<rscale>  0 0.14925169E+02</rscale>
<asrwt>0</asrwt>
<pdfrwt beam="2">  1        2 0.99821831E+00 0.14925169E+02</pdfrwt>
<pdfrwt beam="1">  1       -2 0.98359739E+00 0.14925169E+02</pdfrwt>
<totfact> 0.34852482E-13</totfact>
</mgrwt>
</event>
<event>
 4    1  0.5021037E-019  0.1491707E+02  0.7818608E-02  0.1870610E+00
          2   -1    0    0  501    0  0.00000000000E+00  0.00000000000E+00  0.11970721363E+03  0.11970721366E+03  0.25500000000E-02 0.  1.
         -2   -1    0    0    0  501 -0.00000000000E+00 -0.00000000000E+00 -0.46471173803E+00  0.46471873425E+00  0.25500000000E-02 0. -1.
         31    1    1    2    0    0 -0.35203660257E-01  0.17160196872E-01  0.62936071776E+02  0.63375149628E+02  0.74470750000E+01 0.  1.
        -31    1    1    2    0    0  0.35203660257E-01 -0.17160196872E-01  0.56306430115E+02  0.56796782762E+02  0.74470750000E+01 0. -1.
<mgrwt>
<rscale>  0 0.14917073E+02</rscale>
<asrwt>0</asrwt>
<pdfrwt beam="1">  1        2 0.99366562E+00 0.14917073E+02</pdfrwt>
<pdfrwt beam="2">  1       -2 0.98703231E+00 0.14917073E+02</pdfrwt>
<totfact> 0.27253194E-13</totfact>
</mgrwt>
</event>
<event>
 4    1  0.5021037E-019  0.1495231E+02  0.7818608E-02  0.1869527E+00
          2   -1    0    0  501    0  0.00000000000E+00  0.00000000000E+00  0.12018349708E+03  0.12018349711E+03  0.25500000000E-02 0. -1.
         -2   -1    0    0    0  501 -0.00000000000E+00 -0.00000000000E+00 -0.46505933267E+00  0.46506632366E+00  0.25500000000E-02 0.  1.
         31    1    1    2    0    0  0.37667580880E-02 -0.53098235513E+00  0.56713408291E+02  0.57202723383E+02  0.74470750000E+01 0.  1.
        -31    1    1    2    0    0 -0.37667580880E-02  0.53098235513E+00  0.63005029456E+02  0.63445840047E+02  0.74470750000E+01 0. -1.
<mgrwt>
<rscale>  0 0.14952308E+02</rscale>
<asrwt>0</asrwt>
<pdfrwt beam="1">  1        2 0.99760674E+00 0.14952308E+02</pdfrwt>
<pdfrwt beam="2">  1       -2 0.98778288E+00 0.14952308E+02</pdfrwt>
<totfact> 0.10728440E-13</totfact>
</mgrwt>
</event>
<event>
 4    1 -0.5021037E-019  0.1497204E+02  0.7818608E-02  0.1868923E+00
          2   -1    0    0  501    0  0.00000000000E+00  0.00000000000E+00  0.11949363002E+03  0.11949363004E+03  0.25500000000E-02 0.  1.
         -2   -1    0    0    0  501 -0.00000000000E+00 -0.00000000000E+00 -0.46897935471E+00  0.46898628727E+00  0.25500000000E-02 0. -1.
         31    1    1    2    0    0 -0.73959823752E+00  0.14992434212E+00  0.58632631944E+02  0.59108492940E+02  0.74470750000E+01 0. -1.
        -31    1    1    2    0    0  0.73959823752E+00 -0.14992434212E+00  0.60392018718E+02  0.60854123392E+02  0.74470750000E+01 0.  1.
<mgrwt>
<rscale>  0 0.14972036E+02</rscale>
<asrwt>0</asrwt>
<pdfrwt beam="1">  1        2 0.99193485E+00 0.14972036E+02</pdfrwt>
<pdfrwt beam="2">  1       -2 0.99605413E+00 0.14972036E+02</pdfrwt>
<totfact>-0.14188652E-13</totfact>
</mgrwt>
</event>
<event>
 4    1 -0.5021037E-019  0.1500297E+02  0.7818608E-02  0.1867978E+00
         -2   -1    0    0    0  501 -0.00000000000E+00  0.00000000000E+00  0.11980709264E+03  0.11980709266E+03  0.25500000000E-02 0.  1.
          2   -1    0    0  501    0  0.00000000000E+00 -0.00000000000E+00 -0.46968736597E+00  0.46969428808E+00  0.25500000000E-02 0. -1.
         31    1    1    2    0    0  0.52794747727E+00  0.64326299789E+00  0.56881717405E+02  0.57373175063E+02  0.74470750000E+01 0. -1.
        -31    1    1    2    0    0 -0.52794747727E+00 -0.64326299789E+00  0.62455687867E+02  0.62903611890E+02  0.74470750000E+01 0.  1.
<mgrwt>
<rscale>  0 0.15002972E+02</rscale>
<asrwt>0</asrwt>
<pdfrwt beam="2">  1        2 0.99756217E+00 0.15002972E+02</pdfrwt>
<pdfrwt beam="1">  1       -2 0.99453263E+00 0.15002972E+02</pdfrwt>
<totfact>-0.76125036E-14</totfact>
</mgrwt>
</event>
<event>
 4    1 -0.5021037E-019  0.1494461E+02  0.7818608E-02  0.1869763E+00
          2   -1    0    0  501    0  0.00000000000E+00  0.00000000000E+00  0.11878779556E+03  0.11878779559E+03  0.25500000000E-02 0. -1.
         -2   -1    0    0    0  501 -0.00000000000E+00 -0.00000000000E+00 -0.47003929678E+00  0.47004621371E+00  0.25500000000E-02 0.  1.
         31    1    1    2    0    0  0.19449083796E+00 -0.53254752330E+00  0.61030119684E+02  0.61485411833E+02  0.74470750000E+01 0.  1.
        -31    1    1    2    0    0 -0.19449083796E+00  0.53254752330E+00  0.57287636578E+02  0.57772429968E+02  0.74470750000E+01 0.  1.
<mgrwt>
<rscale>  0 0.14944611E+02</rscale>
<asrwt>0</asrwt>
<pdfrwt beam="1">  1        2 0.98610728E+00 0.14944611E+02</pdfrwt>
<pdfrwt beam="2">  1       -2 0.99827323E+00 0.14944611E+02</pdfrwt>
<totfact>-0.15353133E-13</totfact>
</mgrwt>
</event>
<event>
 4    1 -0.5021037E-019  0.1492328E+02  0.7818608E-02  0.1870419E+00
          2   -1    0    0  501    0  0.00000000000E+00  0.00000000000E+00  0.11866138748E+03  0.11866138750E+03  0.25500000000E-02 0.  1.
         -2   -1    0    0    0  501 -0.00000000000E+00 -0.00000000000E+00 -0.46919761160E+00  0.46920454093E+00  0.25500000000E-02 0. -1.
         31    1    1    2    0    0 -0.78946747445E-01  0.45919451962E+00  0.59143806551E+02  0.59612631812E+02  0.74470750000E+01 0. -1.
        -31    1    1    2    0    0  0.78946747445E-01 -0.45919451962E+00  0.59048383314E+02  0.59517960233E+02  0.74470750000E+01 0. -1.
<mgrwt>
<rscale>  0 0.14923278E+02</rscale>
<asrwt>0</asrwt>
<pdfrwt beam="1">  1        2 0.98505509E+00 0.14923278E+02</pdfrwt>
<pdfrwt beam="2">  1       -2 0.99648853E+00 0.14923278E+02</pdfrwt>
<totfact>-0.30288461E-13</totfact>
</mgrwt>
</event>
<event>
 4    1  0.5021037E-019  0.1490554E+02  0.7818608E-02  0.1870965E+00
          2   -1    0    0  501    0  0.00000000000E+00  0.00000000000E+00  0.11989460862E+03  0.11989460865E+03  0.25500000000E-02 0.  1.
         -2   -1    0    0    0  501 -0.00000000000E+00 -0.00000000000E+00 -0.46326846757E+00  0.46327548559E+00  0.25500000000E-02 0. -1.
         31    1    1    2    0    0  0.22863788375E+00  0.17992983242E+00  0.59590709470E+02  0.60054943437E+02  0.74470750000E+01 0.  1.
        -31    1    1    2    0    0 -0.22863788375E+00 -0.17992983242E+00  0.59840630684E+02  0.60302940697E+02  0.74470750000E+01 0.  1.
<mgrwt>
<rscale>  0 0.14905545E+02</rscale>
<asrwt>0</asrwt>
<pdfrwt beam="1">  1        2 0.99520320E+00 0.14905545E+02</pdfrwt>
<pdfrwt beam="2">  1       -2 0.98398465E+00 0.14905545E+02</pdfrwt>
<totfact> 0.61991975E-13</totfact>
</mgrwt>
</event>
<event>
 4    1  0.5021037E-019  0.1490250E+02  0.7818608E-02  0.1871058E+00
         -2   -1    0    0    0  501 -0.00000000000E+00  0.00000000000E+00  0.11806789111E+03  0.11806789113E+03  0.25500000000E-02 0. -1.
          2   -1    0    0  501    0  0.00000000000E+00 -0.00000000000E+00 -0.47024388594E+00  0.47025079985E+00  0.25500000000E-02 0.  1.
         31    1    1    2    0    0  0.13713203823E+00 -0.26228951334E-01  0.57155234527E+02  0.57638522301E+02  0.74470750000E+01 0.  1.
        -31    1    1    2    0    0 -0.13713203823E+00  0.26228951334E-01  0.60442412694E+02  0.60899619633E+02  0.74470750000E+01 0. -1.
<mgrwt>
<rscale>  0 0.14902498E+02</rscale>
<asrwt>0</asrwt>
<pdfrwt beam="2">  1        2 0.99868200E+00 0.14902498E+02</pdfrwt>
<pdfrwt beam="1">  1       -2 0.98015629E+00 0.14902498E+02</pdfrwt>
<totfact> 0.53772639E-13</totfact>
</mgrwt>
</event>
<event>
 4    1 -0.5021037E-019  0.1496295E+02  0.7818608E-02  0.1869201E+00
         -2   -1    0    0    0  501 -0.00000000000E+00  0.00000000000E+00  0.12014813199E+03  0.12014813202E+03  0.25500000000E-02 0. -1.
          2   -1    0    0  501    0  0.00000000000E+00 -0.00000000000E+00 -0.46585845692E+00  0.46586543592E+00  0.25500000000E-02 0.  1.
         31    1    1    2    0    0  0.15459686914E+00 -0.54040211748E+00  0.63424227184E+02  0.63862410342E+02  0.74470750000E+01 0.  1.
        -31    1    1    2    0    0 -0.15459686914E+00  0.54040211748E+00  0.56258046350E+02  0.56751587113E+02  0.74470750000E+01 0. -1.
<mgrwt>
<rscale>  0 0.14962947E+02</rscale>
<asrwt>0</asrwt>
<pdfrwt beam="2">  1        2 0.98947251E+00 0.14962947E+02</pdfrwt>
<pdfrwt beam="1">  1       -2 0.99732092E+00 0.14962947E+02</pdfrwt>
<totfact>-0.13963796E-13</totfact>
</mgrwt>
</event>
<event>
 4    1  0.5021037E-019  0.1492501E+02  0.7818608E-02  0.1870366E+00
         -2   -1    0    0    0  501 -0.00000000000E+00  0.00000000000E+00  0.11881929408E+03  0.11881929410E+03  0.25500000000E-02 0.  1.
          2   -1    0    0  501    0  0.00000000000E+00 -0.00000000000E+00 -0.46868259366E+00  0.46868953060E+00  0.25500000000E-02 0. -1.
         31    1    1    2    0    0 -0.26981252445E+00 -0.35722609691E+00  0.57799877929E+02  0.58279372199E+02  0.74470750000E+01 0.  1.
        -31    1    1    2    0    0  0.26981252445E+00  0.35722609691E+00  0.60550733555E+02  0.61008611436E+02  0.74470750000E+01 0.  1.
<mgrwt>
<rscale>  0 0.14925006E+02</rscale>
<asrwt>0</asrwt>
<pdfrwt beam="2">  1        2 0.99540425E+00 0.14925006E+02</pdfrwt>
<pdfrwt beam="1">  1       -2 0.98635651E+00 0.14925006E+02</pdfrwt>
<totfact> 0.30146201E-13</totfact>
</mgrwt>
</event>
<event>
 4    1 -0.5021037E-019  0.1492644E+02  0.7818608E-02  0.1870322E+00
         -2   -1    0    0    0  501 -0.00000000000E+00  0.00000000000E+00  0.11979042041E+03  0.11979042044E+03  0.25500000000E-02 0.  1.
          2   -1    0    0  501    0  0.00000000000E+00 -0.00000000000E+00 -0.46497227143E+00  0.46497926373E+00  0.25500000000E-02 0. -1.
         31    1    1    2    0    0 -0.40704042459E+00 -0.69384817981E-01  0.61797686780E+02  0.62246152600E+02  0.74470750000E+01 0.  1.
        -31    1    1    2    0    0  0.40704042459E+00  0.69384817981E-01  0.57527761360E+02  0.58009247102E+02  0.74470750000E+01 0. -1.
<mgrwt>
<rscale>  0 0.14926439E+02</rscale>
<asrwt>0</asrwt>
<pdfrwt beam="2">  1        2 0.98758618E+00 0.14926439E+02</pdfrwt>
<pdfrwt beam="1">  1       -2 0.99435578E+00 0.14926439E+02</pdfrwt>
<totfact>-0.23472523E-13</totfact>
</mgrwt>
</event>
<event>
 4    1  0.5021037E-019  0.1495140E+02  0.7818608E-02  0.1869555E+00
         -2   -1    0    0    0  501 -0.00000000000E+00  0.00000000000E+00  0.11892217860E+03  0.11892217862E+03  0.25500000000E-02 0. -1.
          2   -1    0    0  501    0  0.00000000000E+00 -0.00000000000E+00 -0.46993454921E+00  0.46994146767E+00  0.25500000000E-02 0.  1.
         31    1    1    2    0    0  0.37514825697E+00 -0.33910530078E+00  0.55920145270E+02  0.56416108530E+02  0.74470750000E+01 0.  1.
        -31    1    1    2    0    0 -0.37514825697E+00  0.33910530078E+00  0.62532098778E+02  0.62976011562E+02  0.74470750000E+01 0. -1.
<mgrwt>
<rscale>  0 0.14951395E+02</rscale>
<asrwt>0</asrwt>
<pdfrwt beam="2">  1        2 0.99805609E+00 0.14951395E+02</pdfrwt>
<pdfrwt beam="1">  1       -2 0.98721758E+00 0.14951395E+02</pdfrwt>
<totfact> 0.12024271E-13</totfact>
</mgrwt>
</event>
<event>
 4    1  0.5021037E-019  0.1490302E+02  0.7818608E-02  0.1871042E+00
         -2   -1    0    0    0  501 -0.00000000000E+00  0.00000000000E+00  0.11833298268E+03  0.11833298271E+03  0.25500000000E-02 0. -1.
          2   -1    0    0  501    0  0.00000000000E+00 -0.00000000000E+00 -0.46922339645E+00  0.46923032540E+00  0.25500000000E-02 0.  1.
         31    1    1    2    0    0 -0.18111742229E+00 -0.94208300606E-01  0.57686343953E+02  0.58165409681E+02  0.74470750000E+01 0. -1.
        -31    1    1    2    0    0  0.18111742229E+00  0.94208300606E-01  0.60177415332E+02  0.60636803353E+02  0.74470750000E+01 0.  1.
<mgrwt>
<rscale>  0 0.14903022E+02</rscale>
<asrwt>0</asrwt>
<pdfrwt beam="2">  1        2 0.99653218E+00 0.14903022E+02</pdfrwt>
<pdfrwt beam="1">  1       -2 0.98233982E+00 0.14903022E+02</pdfrwt>
<totfact> 0.74346187E-13</totfact>
</mgrwt>
</event>
<event>
 4    1  0.5021037E-019  0.1491874E+02  0.7818608E-02  0.1870558E+00
          2   -1    0    0  501    0  0.00000000000E+00  0.00000000000E+00  0.12008570737E+03  0.12008570740E+03  0.25500000000E-02 0.  1.
         -2   -1    0    0    0  501 -0.00000000000E+00 -0.00000000000E+00 -0.46335039709E+00  0.46335741386E+00  0.25500000000E-02 0. -1.
         31    1    1    2    0    0  0.37821522894E+00 -0.18974222604E+00  0.59286897497E+02  0.59754281770E+02  0.74470750000E+01 0.  1.
        -31    1    1    2    0    0 -0.37821522894E+00  0.18974222604E+00  0.60335459475E+02  0.60794783040E+02  0.74470750000E+01 0.  1.
<mgrwt>
<rscale>  0 0.14918738E+02</rscale>
<asrwt>0</asrwt>
<pdfrwt beam="1">  1        2 0.99678401E+00 0.14918738E+02</pdfrwt>
<pdfrwt beam="2">  1       -2 0.98416402E+00 0.14918738E+02</pdfrwt>
<totfact> 0.46837063E-13</totfact>
</mgrwt>
</event>
<event>
 4    1 -0.5021037E-019  0.1493062E+02  0.7818608E-02  0.1870193E+00
         -2   -1    0    0    0  501 -0.00000000000E+00  0.00000000000E+00  0.11974815870E+03  0.11974815873E+03  0.25500000000E-02 0. -1.
          2   -1    0    0  501    0  0.00000000000E+00 -0.00000000000E+00 -0.46539686868E+00  0.46540385461E+00  0.25500000000E-02 0.  1.
         31    1    1    2    0    0  0.47880770375E+00  0.14748161301E+00  0.58477227113E+02  0.58951641407E+02  0.74470750000E+01 0. -1.
        -31    1    1    2    0    0 -0.47880770375E+00 -0.14748161301E+00  0.60805534718E+02  0.61261921175E+02  0.74470750000E+01 0.  1.
<mgrwt>
<rscale>  0 0.14930618E+02</rscale>
<asrwt>0</asrwt>
<pdfrwt beam="2">  1        2 0.98848316E+00 0.14930618E+02</pdfrwt>
<pdfrwt beam="1">  1       -2 0.99400984E+00 0.14930618E+02</pdfrwt>
<totfact>-0.20588039E-13</totfact>
</mgrwt>
</event>
<event>
 4    1  0.5021037E-019  0.1494308E+02  0.7818608E-02  0.1869811E+00
         -2   -1    0    0    0  501 -0.00000000000E+00  0.00000000000E+00  0.11869059099E+03  0.11869059102E+03  0.25500000000E-02 0.  1.
          2   -1    0    0  501    0  0.00000000000E+00 -0.00000000000E+00 -0.47032768931E+00  0.47033460200E+00  0.25500000000E-02 0. -1.
         31    1    1    2    0    0 -0.45641128835E+00 -0.25250567102E+00  0.61540514712E+02  0.61991660306E+02  0.74470750000E+01 0. -1.
        -31    1    1    2    0    0  0.45641128835E+00  0.25250567102E+00  0.56679748587E+02  0.57169265312E+02  0.74470750000E+01 0. -1.
<mgrwt>
<rscale>  0 0.14943077E+02</rscale>
<asrwt>0</asrwt>
<pdfrwt beam="2">  1        2 0.99888006E+00 0.14943077E+02</pdfrwt>
<pdfrwt beam="1">  1       -2 0.98530591E+00 0.14943077E+02</pdfrwt>
<totfact> 0.15045077E-13</totfact>
</mgrwt>
</event>
<event>
 4    1 -0.5021037E-019  0.1490389E+02  0.7818608E-02  0.1871015E+00
          2   -1    0    0  501    0  0.00000000000E+00  0.00000000000E+00  0.11873501560E+03  0.11873501563E+03  0.25500000000E-02 0. -1.
         -2   -1    0    0    0  501 -0.00000000000E+00 -0.00000000000E+00 -0.46768933309E+00  0.46769628477E+00  0.25500000000E-02 0.  1.
         31    1    1    2    0    0 -0.21669079110E+00 -0.13203879391E+00  0.59857966464E+02  0.60319975667E+02  0.74470750000E+01 0. -1.
        -31    1    1    2    0    0  0.21669079110E+00  0.13203879391E+00  0.58409359808E+02  0.58882736250E+02  0.74470750000E+01 0.  1.
<mgrwt>
<rscale>  0 0.14903894E+02</rscale>
<asrwt>0</asrwt>
<pdfrwt beam="1">  1        2 0.98565142E+00 0.14903894E+02</pdfrwt>
<pdfrwt beam="2">  1       -2 0.99330027E+00 0.14903894E+02</pdfrwt>
<totfact>-0.28506322E-13</totfact>
</mgrwt>
</event>
<event>
 4    1  0.5021037E-019  0.1492812E+02  0.7818608E-02  0.1870270E+00
         -2   -1    0    0    0  501 -0.00000000000E+00  0.00000000000E+00  0.11902016548E+03  0.11902016551E+03  0.25500000000E-02 0.  1.
          2   -1    0    0  501    0  0.00000000000E+00 -0.00000000000E+00 -0.46808706754E+00  0.46809401331E+00  0.25500000000E-02 0. -1.
         31    1    1    2    0    0 -0.40088224130E+00 -0.16419563753E-01  0.61707992570E+02  0.62157028961E+02  0.74470750000E+01 0.  1.
        -31    1    1    2    0    0  0.40088224130E+00  0.16419563753E-01  0.56844085847E+02  0.57331230564E+02  0.74470750000E+01 0.  1.
<mgrwt>
<rscale>  0 0.14928123E+02</rscale>
<asrwt>0</asrwt>
<pdfrwt beam="2">  1        2 0.99415102E+00 0.14928123E+02</pdfrwt>
<pdfrwt beam="1">  1       -2 0.98801253E+00 0.14928123E+02</pdfrwt>
<totfact> 0.16245035E-13</totfact>
</mgrwt>
</event>
<event>
 4    1  0.5021037E-019  0.1491521E+02  0.7818608E-02  0.1870667E+00
          2   -1    0    0  501    0  0.00000000000E+00  0.00000000000E+00  0.11994764281E+03  0.11994764283E+03  0.25500000000E-02 0.  1.
         -2   -1    0    0    0  501 -0.00000000000E+00 -0.00000000000E+00 -0.46366467235E+00  0.46367168437E+00  0.25500000000E-02 0. -1.
         31    1    1    2    0    0  0.11464203868E+00 -0.57014904944E-01  0.56714984613E+02  0.57201964994E+02  0.74470750000E+01 0. -1.
        -31    1    1    2    0    0 -0.11464203868E+00  0.57014904944E-01  0.62768993522E+02  0.63209349525E+02  0.74470750000E+01 0.  1.
<mgrwt>
<rscale>  0 0.14915215E+02</rscale>
<asrwt>0</asrwt>
<pdfrwt beam="1">  1        2 0.99564500E+00 0.14915215E+02</pdfrwt>
<pdfrwt beam="2">  1       -2 0.98482461E+00 0.14915215E+02</pdfrwt>
<totfact> 0.47283721E-13</totfact>
</mgrwt>
</event>
<event>
 4    1 -0.5021037E-019  0.1494922E+02  0.7818608E-02  0.1869622E+00
          2   -1    0    0  501    0  0.00000000000E+00  0.00000000000E+00  0.11896662149E+03  0.11896662152E+03  0.25500000000E-02 0.  1.
         -2   -1    0    0    0  501 -0.00000000000E+00 -0.00000000000E+00 -0.46962218172E+00  0.46962910479E+00  0.25500000000E-02 0. -1.
         31    1    1    2    0    0  0.45928837002E-01  0.56945102360E+00  0.56926471727E+02  0.57414357901E+02  0.74470750000E+01 0. -1.
        -31    1    1    2    0    0 -0.45928837002E-01 -0.56945102360E+00  0.61570527580E+02  0.62021892720E+02  0.74470750000E+01 0.  1.
<mgrwt>
<rscale>  0 0.14949218E+02</rscale>
<asrwt>0</asrwt>
<pdfrwt beam="1">  1        2 0.98758249E+00 0.14949218E+02</pdfrwt>
<pdfrwt beam="2">  1       -2 0.99739676E+00 0.14949218E+02</pdfrwt>
<totfact>-0.17136493E-13</totfact>
</mgrwt>
</event>
<event>
 4    1  0.5021037E-019  0.1490279E+02  0.7818608E-02  0.1871049E+00
         -2   -1    0    0    0  501 -0.00000000000E+00  0.00000000000E+00  0.11800130490E+03  0.11800130493E+03  0.25500000000E-02 0.  1.
          2   -1    0    0  501    0  0.00000000000E+00 -0.00000000000E+00 -0.47052760976E+00  0.47053451951E+00  0.25500000000E-02 0. -1.
         31    1    1    2    0    0 -0.21029450309E+00  0.11047739611E+00  0.59473210116E+02  0.59938118727E+02  0.74470750000E+01 0.  1.
        -31    1    1    2    0    0  0.21029450309E+00 -0.11047739611E+00  0.58057567178E+02  0.58533720723E+02  0.74470750000E+01 0. -1.
<mgrwt>
<rscale>  0 0.14902789E+02</rscale>
<asrwt>0</asrwt>
<pdfrwt beam="2">  1        2 0.99927992E+00 0.14902789E+02</pdfrwt>
<pdfrwt beam="1">  1       -2 0.97960806E+00 0.14902789E+02</pdfrwt>
<totfact> 0.34402083E-13</totfact>
</mgrwt>
</event>
<event>
 4    1  0.5021037E-019  0.1489534E+02  0.7818608E-02  0.1871279E+00
         -2   -1    0    0    0  501 -0.00000000000E+00  0.00000000000E+00  0.11836575054E+03  0.11836575057E+03  0.25500000000E-02 0.  1.
          2   -1    0    0  501    0  0.00000000000E+00 -0.00000000000E+00 -0.46861004681E+00  0.46861698483E+00  0.25500000000E-02 0. -1.
         31    1    1    2    0    0 -0.73138427374E-01  0.58556404141E-01  0.58873039152E+02  0.59342248383E+02  0.74470750000E+01 0. -1.
        -31    1    1    2    0    0  0.73138427374E-01 -0.58556404141E-01  0.59024101340E+02  0.59492119168E+02  0.74470750000E+01 0.  1.
<mgrwt>
<rscale>  0 0.14895341E+02</rscale>
<asrwt>0</asrwt>
<pdfrwt beam="2">  1        2 0.99523580E+00 0.14895341E+02</pdfrwt>
<pdfrwt beam="1">  1       -2 0.98260570E+00 0.14895341E+02</pdfrwt>
<totfact> 0.84529628E-13</totfact>
</mgrwt>
</event>
<event>
 4    1  0.5021037E-019  0.1490757E+02  0.7818608E-02  0.1870902E+00
         -2   -1    0    0    0  501 -0.00000000000E+00  0.00000000000E+00  0.11832962972E+03  0.11832962975E+03  0.25500000000E-02 0. -1.
          2   -1    0    0  501    0  0.00000000000E+00 -0.00000000000E+00 -0.46952332510E+00  0.46953024963E+00  0.25500000000E-02 0.  1.
         31    1    1    2    0    0 -0.18326835481E+00  0.65738480144E-02  0.56876919819E+02  0.57362675711E+02  0.74470750000E+01 0.  1.
        -31    1    1    2    0    0  0.18326835481E+00 -0.65738480144E-02  0.60983186579E+02  0.61436484290E+02  0.74470750000E+01 0. -1.
<mgrwt>
<rscale>  0 0.14907573E+02</rscale>
<asrwt>0</asrwt>
<pdfrwt beam="2">  1        2 0.99716653E+00 0.14907573E+02</pdfrwt>
<pdfrwt beam="1">  1       -2 0.98231457E+00 0.14907573E+02</pdfrwt>
<totfact> 0.65393050E-13</totfact>
</mgrwt>
</event>
<event>
 4    1 -0.5021037E-019  0.1493897E+02  0.7818608E-02  0.1869937E+00
         -2   -1    0    0    0  501 -0.00000000000E+00  0.00000000000E+00  0.12039995234E+03  0.12039995237E+03  0.25500000000E-02 0.  1.
          2   -1    0    0  501    0  0.00000000000E+00 -0.00000000000E+00 -0.46339511976E+00  0.46340213586E+00  0.25500000000E-02 0. -1.
         31    1    1    2    0    0 -0.49054449394E+00 -0.30415563039E+00  0.60237262008E+02  0.60698598046E+02  0.74470750000E+01 0.  1.
        -31    1    1    2    0    0  0.49054449394E+00  0.30415563039E+00  0.59699295215E+02  0.60164756459E+02  0.74470750000E+01 0.  1.
<mgrwt>
<rscale>  0 0.14938966E+02</rscale>
<asrwt>0</asrwt>
<pdfrwt beam="2">  1        2 0.98426852E+00 0.14938966E+02</pdfrwt>
<pdfrwt beam="1">  1       -2 0.99938278E+00 0.14938966E+02</pdfrwt>
<totfact>-0.80969517E-14</totfact>
</mgrwt>
</event>
<event>
 4    1 -0.5021037E-019  0.1499832E+02  0.7818608E-02  0.1868120E+00
          2   -1    0    0  501    0  0.00000000000E+00  0.00000000000E+00  0.11980025343E+03  0.11980025345E+03  0.25500000000E-02 0. -1.
         -2   -1    0    0    0  501 -0.00000000000E+00 -0.00000000000E+00 -0.46942303776E+00  0.46942996377E+00  0.25500000000E-02 0.  1.
         31    1    1    2    0    0 -0.18499723485E+00  0.51553352085E+00  0.65212322483E+02  0.65638448554E+02  0.74470750000E+01 0. -1.
        -31    1    1    2    0    0  0.18499723485E+00 -0.51553352085E+00  0.54118507904E+02  0.54631234863E+02  0.74470750000E+01 0.  1.
<mgrwt>
<rscale>  0 0.14998322E+02</rscale>
<asrwt>0</asrwt>
<pdfrwt beam="1">  1        2 0.99447389E+00 0.14998322E+02</pdfrwt>
<pdfrwt beam="2">  1       -2 0.99700275E+00 0.14998322E+02</pdfrwt>
<totfact>-0.10046162E-13</totfact>
</mgrwt>
</event>
<event>
 4    1 -0.5021037E-019  0.1491365E+02  0.7818608E-02  0.1870715E+00
          2   -1    0    0  501    0  0.00000000000E+00  0.00000000000E+00  0.11849754426E+03  0.11849754429E+03  0.25500000000E-02 0.  1.
         -2   -1    0    0    0  501 -0.00000000000E+00 -0.00000000000E+00 -0.46924024103E+00  0.46924716973E+00  0.25500000000E-02 0. -1.
         31    1    1    2    0    0 -0.54704485447E-01  0.25501618950E+00  0.56796619030E+02  0.57283356092E+02  0.74470750000E+01 0.  1.
        -31    1    1    2    0    0  0.54704485447E-01 -0.25501618950E+00  0.61231684989E+02  0.61683435366E+02  0.74470750000E+01 0.  1.
<mgrwt>
<rscale>  0 0.14913649E+02</rscale>
<asrwt>0</asrwt>
<pdfrwt beam="1">  1        2 0.98370067E+00 0.14913649E+02</pdfrwt>
<pdfrwt beam="2">  1       -2 0.99657328E+00 0.14913649E+02</pdfrwt>
<totfact>-0.37371344E-13</totfact>
</mgrwt>
</event>
<event>
 4    1  0.5021037E-019  0.1493709E+02  0.7818608E-02  0.1869994E+00
          2   -1    0    0  501    0  0.00000000000E+00  0.00000000000E+00  0.12017789500E+03  0.12017789503E+03  0.25500000000E-02 0. -1.
         -2   -1    0    0    0  501 -0.00000000000E+00 -0.00000000000E+00 -0.46413470595E+00  0.46414171087E+00  0.25500000000E-02 0.  1.
         31    1    1    2    0    0 -0.16047308444E+00 -0.49208350451E+00  0.58009239243E+02  0.58487594081E+02  0.74470750000E+01 0.  1.
        -31    1    1    2    0    0  0.16047308444E+00  0.49208350451E+00  0.61704521050E+02  0.62154442656E+02  0.74470750000E+01 0. -1.
<mgrwt>
<rscale>  0 0.14937089E+02</rscale>
<asrwt>0</asrwt>
<pdfrwt beam="1">  1        2 0.99755277E+00 0.14937089E+02</pdfrwt>
<pdfrwt beam="2">  1       -2 0.98582638E+00 0.14937089E+02</pdfrwt>
<totfact> 0.24158492E-13</totfact>
</mgrwt>
</event>
<event>
 4    1 -0.5021037E-019  0.1490870E+02  0.7818608E-02  0.1870868E+00
          2   -1    0    0  501    0  0.00000000000E+00  0.00000000000E+00  0.11802333139E+03  0.11802333142E+03  0.25500000000E-02 0. -1.
         -2   -1    0    0    0  501 -0.00000000000E+00 -0.00000000000E+00 -0.47081275309E+00  0.47081965865E+00  0.25500000000E-02 0.  1.
         31    1    1    2    0    0 -0.31729709877E+00  0.86846011693E-01  0.58875086911E+02  0.59345117782E+02  0.74470750000E+01 0.  1.
        -31    1    1    2    0    0  0.31729709877E+00 -0.86846011693E-01  0.58677431724E+02  0.59149033293E+02  0.74470750000E+01 0. -1.
<mgrwt>
<rscale>  0 0.14908695E+02</rscale>
<asrwt>0</asrwt>
<pdfrwt beam="1">  1        2 0.97979255E+00 0.14908695E+02</pdfrwt>
<pdfrwt beam="2">  1       -2 0.99988382E+00 0.14908695E+02</pdfrwt>
<totfact>-0.33467685E-14</totfact>
</mgrwt>
</event>
<event>
 4    1 -0.5021037E-019  0.1493840E+02  0.7818608E-02  0.1869954E+00
         -2   -1    0    0    0  501 -0.00000000000E+00  0.00000000000E+00  0.12037556658E+03  0.12037556660E+03  0.25500000000E-02 0.  1.
          2   -1    0    0  501    0  0.00000000000E+00 -0.00000000000E+00 -0.46345368495E+00  0.46346070016E+00  0.25500000000E-02 0. -1.
         31    1    1    2    0    0  0.26345872965E+00 -0.42125402030E+00  0.62288398660E+02  0.62733965275E+02  0.74470750000E+01 0. -1.
        -31    1    1    2    0    0 -0.26345872965E+00  0.42125402030E+00  0.57623714231E+02  0.58105062028E+02  0.74470750000E+01 0. -1.
<mgrwt>
<rscale>  0 0.14938397E+02</rscale>
<asrwt>0</asrwt>
<pdfrwt beam="2">  1        2 0.98439168E+00 0.14938397E+02</pdfrwt>
<pdfrwt beam="1">  1       -2 0.99918162E+00 0.14938397E+02</pdfrwt>
<totfact>-0.10353630E-13</totfact>
</mgrwt>
</event>
<event>
 4    1 -0.5021037E-019  0.1498808E+02  0.7818608E-02  0.1868432E+00
          2   -1    0    0  501    0  0.00000000000E+00  0.00000000000E+00  0.11950621688E+03  0.11950621690E+03  0.25500000000E-02 0. -1.
         -2   -1    0    0    0  501 -0.00000000000E+00 -0.00000000000E+00 -0.46993548248E+00  0.46994240093E+00  0.25500000000E-02 0.  1.
         31    1    1    2    0    0  0.80443609612E+00 -0.12988887723E+00  0.57963611958E+02  0.58445728893E+02  0.74470750000E+01 0.  1.
        -31    1    1    2    0    0 -0.80443609612E+00  0.12988887723E+00  0.61072669437E+02  0.61530430413E+02  0.74470750000E+01 0. -1.
<mgrwt>
<rscale>  0 0.14988079E+02</rscale>
<asrwt>0</asrwt>
<pdfrwt beam="1">  1        2 0.99204683E+00 0.14988079E+02</pdfrwt>
<pdfrwt beam="2">  1       -2 0.99807726E+00 0.14988079E+02</pdfrwt>
<totfact>-0.86862799E-14</totfact>
</mgrwt>
</event>
<event>
 4    1 -0.5021037E-019  0.1489559E+02  0.7818608E-02  0.1871271E+00
          2   -1    0    0  501    0  0.00000000000E+00  0.00000000000E+00  0.11803665627E+03  0.11803665630E+03  0.25500000000E-02 0. -1.
         -2   -1    0    0    0  501 -0.00000000000E+00 -0.00000000000E+00 -0.46993261714E+00  0.46993953563E+00  0.25500000000E-02 0.  1.
         31    1    1    2    0    0  0.10539749774E-01  0.26892945779E-01  0.59575994269E+02  0.60039644016E+02  0.74470750000E+01 0. -1.
        -31    1    1    2    0    0 -0.10539749774E-01 -0.26892945779E-01  0.57990729383E+02  0.58466951816E+02  0.74470750000E+01 0.  1.
<mgrwt>
<rscale>  0 0.14895595E+02</rscale>
<asrwt>0</asrwt>
<pdfrwt beam="1">  1        2 0.97989545E+00 0.14895595E+02</pdfrwt>
<pdfrwt beam="2">  1       -2 0.99802253E+00 0.14895595E+02</pdfrwt>
<totfact>-0.47944321E-13</totfact>
</mgrwt>
</event>
<event>
 4    1 -0.5021037E-019  0.1493891E+02  0.7818608E-02  0.1869939E+00
          2   -1    0    0  501    0  0.00000000000E+00  0.00000000000E+00  0.11904897323E+03  0.11904897326E+03  0.25500000000E-02 0.  1.
         -2   -1    0    0    0  501 -0.00000000000E+00 -0.00000000000E+00 -0.46865005963E+00  0.46865699706E+00  0.25500000000E-02 0. -1.
         31    1    1    2    0    0  0.10582533143E+00  0.56122163153E+00  0.58591332885E+02  0.59065466933E+02  0.74470750000E+01 0. -1.
        -31    1    1    2    0    0 -0.10582533143E+00 -0.56122163153E+00  0.59988990289E+02  0.60452163325E+02  0.74470750000E+01 0. -1.
<mgrwt>
<rscale>  0 0.14938906E+02</rscale>
<asrwt>0</asrwt>
<pdfrwt beam="1">  1        2 0.98825539E+00 0.14938906E+02</pdfrwt>
<pdfrwt beam="2">  1       -2 0.99534297E+00 0.14938906E+02</pdfrwt>
<totfact>-0.21351374E-13</totfact>
</mgrwt>
</event>
<event>
 4    1  0.5021037E-019  0.1493858E+02  0.7818608E-02  0.1869948E+00
          2   -1    0    0  501    0  0.00000000000E+00  0.00000000000E+00  0.12006952903E+03  0.12006952906E+03  0.25500000000E-02 0.  1.
         -2   -1    0    0    0  501 -0.00000000000E+00 -0.00000000000E+00 -0.46464651369E+00  0.46465351089E+00  0.25500000000E-02 0. -1.
         31    1    1    2    0    0  0.10637297855E+00 -0.32646637076E+00  0.63530557483E+02  0.63966464305E+02  0.74470750000E+01 0.  1.
        -31    1    1    2    0    0 -0.10637297855E+00  0.32646637076E+00  0.56074325033E+02  0.56567718262E+02  0.74470750000E+01 0. -1.
<mgrwt>
<rscale>  0 0.14938582E+02</rscale>
<asrwt>0</asrwt>
<pdfrwt beam="1">  1        2 0.99666095E+00 0.14938582E+02</pdfrwt>
<pdfrwt beam="2">  1       -2 0.98690583E+00 0.14938582E+02</pdfrwt>
<totfact> 0.20238516E-13</totfact>
</mgrwt>
</event>
<event>
 4    1 -0.5021037E-019  0.1497619E+02  0.7818608E-02  0.1868796E+00
         -2   -1    0    0    0  501 -0.00000000000E+00  0.00000000000E+00  0.11954826682E+03  0.11954826685E+03  0.25500000000E-02 0.  1.
          2   -1    0    0  501    0  0.00000000000E+00 -0.00000000000E+00 -0.46902515002E+00  0.46903208190E+00  0.25500000000E-02 0. -1.
         31    1    1    2    0    0  0.10753311589E+00 -0.65539579353E+00  0.62858645152E+02  0.63301732231E+02  0.74470750000E+01 0.  1.
        -31    1    1    2    0    0 -0.10753311589E+00  0.65539579353E+00  0.56220596518E+02  0.56715566698E+02  0.74470750000E+01 0. -1.
<mgrwt>
<rscale>  0 0.14976189E+02</rscale>
<asrwt>0</asrwt>
<pdfrwt beam="2">  1        2 0.99615280E+00 0.14976189E+02</pdfrwt>
<pdfrwt beam="1">  1       -2 0.99238700E+00 0.14976189E+02</pdfrwt>
<totfact>-0.77604468E-14</totfact>
</mgrwt>
</event>
<event>
 4    1  0.5021037E-019  0.1493722E+02  0.7818608E-02  0.1869990E+00
         -2   -1    0    0    0  501 -0.00000000000E+00  0.00000000000E+00  0.11875957048E+03  0.11875957051E+03  0.25500000000E-02 0.  1.
          2   -1    0    0  501    0  0.00000000000E+00 -0.00000000000E+00 -0.46968591800E+00  0.46969284013E+00  0.25500000000E-02 0. -1.
         31    1    1    2    0    0  0.93411798715E-01 -0.55804546249E+00  0.59403048971E+02  0.59870704803E+02  0.74470750000E+01 0.  1.
        -31    1    1    2    0    0 -0.93411798715E-01  0.55804546249E+00  0.58886835589E+02  0.59358558543E+02  0.74470750000E+01 0. -1.
<mgrwt>
<rscale>  0 0.14937217E+02</rscale>
<asrwt>0</asrwt>
<pdfrwt beam="2">  1        2 0.99752475E+00 0.14937217E+02</pdfrwt>
<pdfrwt beam="1">  1       -2 0.98587097E+00 0.14937217E+02</pdfrwt>
<totfact> 0.24009052E-13</totfact>
</mgrwt>
</event>
<event>
 4    1  0.5021037E-019  0.1492801E+02  0.7818608E-02  0.1870273E+00
         -2   -1    0    0    0  501 -0.00000000000E+00  0.00000000000E+00  0.11883218339E+03  0.11883218342E+03  0.25500000000E-02 0.  1.
          2   -1    0    0  501    0  0.00000000000E+00 -0.00000000000E+00 -0.46882070098E+00  0.46882763588E+00  0.25500000000E-02 0. -1.
         31    1    1    2    0    0 -0.19156713760E+00 -0.12989789010E+00  0.62745907869E+02  0.63186718951E+02  0.74470750000E+01 0.  1.
        -31    1    1    2    0    0  0.19156713760E+00  0.12989789010E+00  0.55617454825E+02  0.56114292107E+02  0.74470750000E+01 0. -1.
<mgrwt>
<rscale>  0 0.14928014E+02</rscale>
<asrwt>0</asrwt>
<pdfrwt beam="2">  1        2 0.99569684E+00 0.14928014E+02</pdfrwt>
<pdfrwt beam="1">  1       -2 0.98646423E+00 0.14928014E+02</pdfrwt>
<totfact> 0.27959265E-13</totfact>
</mgrwt>
</event>
<event>
 4    1  0.5021037E-019  0.1494778E+02  0.7818608E-02  0.1869666E+00
          2   -1    0    0  501    0  0.00000000000E+00  0.00000000000E+00  0.12003782695E+03  0.12003782698E+03  0.25500000000E-02 0. -1.
         -2   -1    0    0    0  501 -0.00000000000E+00 -0.00000000000E+00 -0.46534177102E+00  0.46534875777E+00  0.25500000000E-02 0.  1.
         31    1    1    2    0    0  0.65615794209E-01 -0.39383344583E+00  0.63741374721E+02  0.64176173052E+02  0.74470750000E+01 0. -1.
        -31    1    1    2    0    0 -0.65615794209E-01  0.39383344583E+00  0.55831110460E+02  0.56327002685E+02  0.74470750000E+01 0.  1.
<mgrwt>
<rscale>  0 0.14947781E+02</rscale>
<asrwt>0</asrwt>
<pdfrwt beam="1">  1        2 0.99640457E+00 0.14947781E+02</pdfrwt>
<pdfrwt beam="2">  1       -2 0.98837582E+00 0.14947781E+02</pdfrwt>
<totfact> 0.99503535E-14</totfact>
</mgrwt>
</event>
<event>
 4    1 -0.5021037E-019  0.1494973E+02  0.7818608E-02  0.1869606E+00
         -2   -1    0    0    0  501 -0.00000000000E+00  0.00000000000E+00  0.11964504088E+03  0.11964504091E+03  0.25500000000E-02 0. -1.
          2   -1    0    0  501    0  0.00000000000E+00 -0.00000000000E+00 -0.46699105108E+00  0.46699801315E+00  0.25500000000E-02 0.  1.
         31    1    1    2    0    0  0.35770824310E+00  0.10969594967E+00  0.63799759504E+02  0.64234011452E+02  0.74470750000E+01 0. -1.
        -31    1    1    2    0    0 -0.35770824310E+00 -0.10969594967E+00  0.55378290327E+02  0.55878027470E+02  0.74470750000E+01 0.  1.
<mgrwt>
<rscale>  0 0.14949727E+02</rscale>
<asrwt>0</asrwt>
<pdfrwt beam="2">  1        2 0.99185261E+00 0.14949727E+02</pdfrwt>
<pdfrwt beam="1">  1       -2 0.99317038E+00 0.14949727E+02</pdfrwt>
<totfact>-0.13666562E-13</totfact>
</mgrwt>
</event>
<event>
 4    1 -0.5021037E-019  0.1494477E+02  0.7818608E-02  0.1869759E+00
         -2   -1    0    0    0  501 -0.00000000000E+00  0.00000000000E+00  0.11988971603E+03  0.11988971605E+03  0.25500000000E-02 0. -1.
          2   -1    0    0  501    0  0.00000000000E+00 -0.00000000000E+00 -0.46572895676E+00  0.46573593770E+00  0.25500000000E-02 0.  1.
         31    1    1    2    0    0 -0.22461046058E+00 -0.50332790036E-01  0.55123528877E+02  0.55624772765E+02  0.74470750000E+01 0.  1.
        -31    1    1    2    0    0  0.22461046058E+00  0.50332790036E-01  0.64300458192E+02  0.64730679226E+02  0.74470750000E+01 0. -1.
<mgrwt>
<rscale>  0 0.14944770E+02</rscale>
<asrwt>0</asrwt>
<pdfrwt beam="2">  1        2 0.98919028E+00 0.14944770E+02</pdfrwt>
<pdfrwt beam="1">  1       -2 0.99518309E+00 0.14944770E+02</pdfrwt>
<totfact>-0.19287941E-13</totfact>
</mgrwt>
</event>
<event>
 4    1 -0.5021037E-019  0.1493515E+02  0.7818608E-02  0.1870054E+00
          2   -1    0    0  501    0  0.00000000000E+00  0.00000000000E+00  0.11913280090E+03  0.11913280092E+03  0.25500000000E-02 0. -1.
         -2   -1    0    0    0  501 -0.00000000000E+00 -0.00000000000E+00 -0.46808510615E+00  0.46809205195E+00  0.25500000000E-02 0.  1.
         31    1    1    2    0    0 -0.36001049013E+00 -0.35126390374E+00  0.57492486714E+02  0.57974976917E+02  0.74470750000E+01 0.  1.
        -31    1    1    2    0    0  0.36001049013E+00  0.35126390374E+00  0.61172229076E+02  0.61625916059E+02  0.74470750000E+01 0. -1.
<mgrwt>
<rscale>  0 0.14935154E+02</rscale>
<asrwt>0</asrwt>
<pdfrwt beam="1">  1        2 0.98894386E+00 0.14935154E+02</pdfrwt>
<pdfrwt beam="2">  1       -2 0.99415055E+00 0.14935154E+02</pdfrwt>
<totfact>-0.19675825E-13</totfact>
</mgrwt>
</event>
<event>
 4    1 -0.5021037E-019  0.1492198E+02  0.7818608E-02  0.1870459E+00
         -2   -1    0    0    0  501 -0.00000000000E+00  0.00000000000E+00  0.11991510097E+03  0.11991510100E+03  0.25500000000E-02 0.  1.
          2   -1    0    0  501    0  0.00000000000E+00 -0.00000000000E+00 -0.46421157446E+00  0.46421857822E+00  0.25500000000E-02 0. -1.
         31    1    1    2    0    0 -0.18593358795E+00 -0.38603866618E+00  0.60972031419E+02  0.61426632160E+02  0.74470750000E+01 0.  1.
        -31    1    1    2    0    0  0.18593358795E+00  0.38603866618E+00  0.58478857979E+02  0.58952687417E+02  0.74470750000E+01 0. -1.
<mgrwt>
<rscale>  0 0.14921984E+02</rscale>
<asrwt>0</asrwt>
<pdfrwt beam="2">  1        2 0.98598071E+00 0.14921984E+02</pdfrwt>
<pdfrwt beam="1">  1       -2 0.99538044E+00 0.14921984E+02</pdfrwt>
<totfact>-0.29305221E-13</totfact>
</mgrwt>
</event>
<event>
 4    1 -0.5021037E-019  0.1490260E+02  0.7818608E-02  0.1871055E+00
          2   -1    0    0  501    0  0.00000000000E+00  0.00000000000E+00  0.11803713251E+03  0.11803713253E+03  0.25500000000E-02 0. -1.
         -2   -1    0    0    0  501 -0.00000000000E+00 -0.00000000000E+00 -0.47037275082E+00  0.47037966284E+00  0.25500000000E-02 0.  1.
         31    1    1    2    0    0  0.13826235351E+00  0.14032387551E-01  0.57122497035E+02  0.57606057901E+02  0.74470750000E+01 0.  1.
        -31    1    1    2    0    0 -0.13826235351E+00 -0.14032387551E-01  0.60444262721E+02  0.60901454296E+02  0.74470750000E+01 0.  1.
<mgrwt>
<rscale>  0 0.14902599E+02</rscale>
<asrwt>0</asrwt>
<pdfrwt beam="1">  1        2 0.97990303E+00 0.14902599E+02</pdfrwt>
<pdfrwt beam="2">  1       -2 0.99895356E+00 0.14902599E+02</pdfrwt>
<totfact>-0.27554984E-13</totfact>
</mgrwt>
</event>
<event>
 4    1 -0.5021037E-019  0.1492852E+02  0.7818608E-02  0.1870258E+00
          2   -1    0    0  501    0  0.00000000000E+00  0.00000000000E+00  0.11893085913E+03  0.11893085915E+03  0.25500000000E-02 0.  1.
         -2   -1    0    0    0  501 -0.00000000000E+00 -0.00000000000E+00 -0.46846365429E+00  0.46847059448E+00  0.25500000000E-02 0. -1.
         31    1    1    2    0    0 -0.18630624582E+00 -0.33922307946E+00  0.56621173867E+02  0.57110122031E+02  0.74470750000E+01 0. -1.
        -31    1    1    2    0    0  0.18630624582E+00  0.33922307946E+00  0.61841221606E+02  0.62289207718E+02  0.74470750000E+01 0.  1.
<mgrwt>
<rscale>  0 0.14928523E+02</rscale>
<asrwt>0</asrwt>
<pdfrwt beam="1">  1        2 0.98727720E+00 0.14928523E+02</pdfrwt>
<pdfrwt beam="2">  1       -2 0.99494476E+00 0.14928523E+02</pdfrwt>
<totfact>-0.24600341E-13</totfact>
</mgrwt>
</event>
<event>
 4    1 -0.5021037E-019  0.1491302E+02  0.7818608E-02  0.1870734E+00
         -2   -1    0    0    0  501 -0.00000000000E+00  0.00000000000E+00  0.11990699208E+03  0.11990699211E+03  0.25500000000E-02 0.  1.
          2   -1    0    0  501    0  0.00000000000E+00 -0.00000000000E+00 -0.46368561563E+00  0.46369262734E+00  0.25500000000E-02 0. -1.
         31    1    1    2    0    0  0.36099694069E+00 -0.93716173741E-01  0.60038762709E+02  0.60500008721E+02  0.74470750000E+01 0. -1.
        -31    1    1    2    0    0 -0.36099694069E+00  0.93716173741E-01  0.59404543754E+02  0.59870676013E+02  0.74470750000E+01 0. -1.
<mgrwt>
<rscale>  0 0.14913024E+02</rscale>
<asrwt>0</asrwt>
<pdfrwt beam="2">  1        2 0.98486764E+00 0.14913024E+02</pdfrwt>
<pdfrwt beam="1">  1       -2 0.99530904E+00 0.14913024E+02</pdfrwt>
<totfact>-0.35094582E-13</totfact>
</mgrwt>
</event>
<event>
 4    1  0.5021037E-019  0.1490684E+02  0.7818608E-02  0.1870925E+00
          2   -1    0    0  501    0  0.00000000000E+00  0.00000000000E+00  0.11999700740E+03  0.11999700743E+03  0.25500000000E-02 0.  1.
         -2   -1    0    0    0  501 -0.00000000000E+00 -0.00000000000E+00 -0.46295346150E+00  0.46296048429E+00  0.25500000000E-02 0. -1.
         31    1    1    2    0    0  0.20475492724E+00  0.14818530273E+00  0.61181638861E+02  0.61633722452E+02  0.74470750000E+01 0.  1.
        -31    1    1    2    0    0 -0.20475492724E+00 -0.14818530273E+00  0.58352415076E+02  0.58826245458E+02  0.74470750000E+01 0. -1.
<mgrwt>
<rscale>  0 0.14906838E+02</rscale>
<asrwt>0</asrwt>
<pdfrwt beam="1">  1        2 0.99604730E+00 0.14906838E+02</pdfrwt>
<pdfrwt beam="2">  1       -2 0.98332139E+00 0.14906838E+02</pdfrwt>
<totfact> 0.65119326E-13</totfact>
</mgrwt>
</event>
<event>
 4    1  0.5021037E-019  0.1492119E+02  0.7818608E-02  0.1870483E+00
         -2   -1    0    0    0  501 -0.00000000000E+00  0.00000000000E+00  0.11832270728E+03  0.11832270731E+03  0.25500000000E-02 0. -1.
          2   -1    0    0  501    0  0.00000000000E+00 -0.00000000000E+00 -0.47040897314E+00  0.47041588463E+00  0.25500000000E-02 0.  1.
         31    1    1    2    0    0 -0.24989740554E+00 -0.31639387853E+00  0.57353994597E+02  0.57836858284E+02  0.74470750000E+01 0.  1.
        -31    1    1    2    0    0  0.24989740554E+00  0.31639387853E+00  0.60498303707E+02  0.60956264906E+02  0.74470750000E+01 0. -1.
<mgrwt>
<rscale>  0 0.14921190E+02</rscale>
<asrwt>0</asrwt>
<pdfrwt beam="2">  1        2 0.99903975E+00 0.14921190E+02</pdfrwt>
<pdfrwt beam="1">  1       -2 0.98226466E+00 0.14921190E+02</pdfrwt>
<totfact> 0.27533724E-13</totfact>
</mgrwt>
</event>
<event>
 4    1 -0.5021037E-019  0.1490876E+02  0.7818608E-02  0.1870865E+00
          2   -1    0    0  501    0  0.00000000000E+00  0.00000000000E+00  0.11852230324E+03  0.11852230326E+03  0.25500000000E-02 0. -1.
         -2   -1    0    0    0  501 -0.00000000000E+00 -0.00000000000E+00 -0.46883485448E+00  0.46884178917E+00  0.25500000000E-02 0.  1.
         31    1    1    2    0    0  0.14165859788E+00 -0.29747042477E+00  0.59169315499E+02  0.59637030262E+02  0.74470750000E+01 0. -1.
        -31    1    1    2    0    0 -0.14165859788E+00  0.29747042477E+00  0.58884152884E+02  0.59354114792E+02  0.74470750000E+01 0.  1.
<mgrwt>
<rscale>  0 0.14908763E+02</rscale>
<asrwt>0</asrwt>
<pdfrwt beam="1">  1        2 0.98390204E+00 0.14908763E+02</pdfrwt>
<pdfrwt beam="2">  1       -2 0.99571655E+00 0.14908763E+02</pdfrwt>
<totfact>-0.40101609E-13</totfact>
</mgrwt>
</event>
<event>
 4    1  0.5021037E-019  0.1492872E+02  0.7818608E-02  0.1870251E+00
         -2   -1    0    0    0  501 -0.00000000000E+00  0.00000000000E+00  0.11909603008E+03  0.11909603011E+03  0.25500000000E-02 0. -1.
          2   -1    0    0  501    0  0.00000000000E+00 -0.00000000000E+00 -0.46782626611E+00  0.46783321575E+00  0.25500000000E-02 0.  1.
         31    1    1    2    0    0  0.34668869079E+00 -0.20295489671E+00  0.61800221853E+02  0.62248596216E+02  0.74470750000E+01 0. -1.
        -31    1    1    2    0    0 -0.34668869079E+00  0.20295489671E+00  0.56827981961E+02  0.57315267107E+02  0.74470750000E+01 0.  1.
<mgrwt>
<rscale>  0 0.14928720E+02</rscale>
<asrwt>0</asrwt>
<pdfrwt beam="2">  1        2 0.99360177E+00 0.14928720E+02</pdfrwt>
<pdfrwt beam="1">  1       -2 0.98863768E+00 0.14928720E+02</pdfrwt>
<totfact> 0.11212757E-13</totfact>
</mgrwt>
</event>
<event>
 4    1 -0.5021037E-019  0.1493467E+02  0.7818608E-02  0.1870069E+00
          2   -1    0    0  501    0  0.00000000000E+00  0.00000000000E+00  0.11888387336E+03  0.11888387339E+03  0.25500000000E-02 0.  1.
         -2   -1    0    0    0  501 -0.00000000000E+00 -0.00000000000E+00 -0.46903479143E+00  0.46904172316E+00  0.25500000000E-02 0. -1.
         31    1    1    2    0    0  0.18936555610E+00  0.50810619841E+00  0.58486804759E+02  0.58961506834E+02  0.74470750000E+01 0.  1.
        -31    1    1    2    0    0 -0.18936555610E+00 -0.50810619841E+00  0.59928033810E+02  0.60391408277E+02  0.74470750000E+01 0.  1.
<mgrwt>
<rscale>  0 0.14934669E+02</rscale>
<asrwt>0</asrwt>
<pdfrwt beam="1">  1        2 0.98689341E+00 0.14934669E+02</pdfrwt>
<pdfrwt beam="2">  1       -2 0.99615144E+00 0.14934669E+02</pdfrwt>
<totfact>-0.23928392E-13</totfact>
</mgrwt>
</event>
<event>
 4    1 -0.5021037E-019  0.1493535E+02  0.7818608E-02  0.1870048E+00
         -2   -1    0    0    0  501 -0.00000000000E+00  0.00000000000E+00  0.11950215862E+03  0.11950215864E+03  0.25500000000E-02 0. -1.
          2   -1    0    0  501    0  0.00000000000E+00 -0.00000000000E+00 -0.46665062525E+00  0.46665759240E+00  0.25500000000E-02 0.  1.
         31    1    1    2    0    0 -0.18990410599E+00  0.18842315975E+00  0.55618175240E+02  0.56115166487E+02  0.74470750000E+01 0.  1.
        -31    1    1    2    0    0  0.18990410599E+00 -0.18842315975E+00  0.63417332752E+02  0.63853649749E+02  0.74470750000E+01 0. -1.
<mgrwt>
<rscale>  0 0.14935351E+02</rscale>
<asrwt>0</asrwt>
<pdfrwt beam="2">  1        2 0.99112779E+00 0.14935351E+02</pdfrwt>
<pdfrwt beam="1">  1       -2 0.99198611E+00 0.14935351E+02</pdfrwt>
<totfact>-0.10629800E-13</totfact>
</mgrwt>
</event>
<event>
 4    1 -0.5021037E-019  0.1491367E+02  0.7818608E-02  0.1870714E+00
         -2   -1    0    0    0  501 -0.00000000000E+00  0.00000000000E+00  0.11993862968E+03  0.11993862971E+03  0.25500000000E-02 0.  1.
          2   -1    0    0  501    0  0.00000000000E+00 -0.00000000000E+00 -0.46360365475E+00  0.46361066769E+00  0.25500000000E-02 0. -1.
         31    1    1    2    0    0  0.18630328186E+00  0.13823110910E+00  0.62181838354E+02  0.62626621846E+02  0.74470750000E+01 0.  1.
        -31    1    1    2    0    0 -0.18630328186E+00 -0.13823110910E+00  0.57293187672E+02  0.57775618529E+02  0.74470750000E+01 0.  1.
<mgrwt>
<rscale>  0 0.14913673E+02</rscale>
<asrwt>0</asrwt>
<pdfrwt beam="2">  1        2 0.98469523E+00 0.14913673E+02</pdfrwt>
<pdfrwt beam="1">  1       -2 0.99556996E+00 0.14913673E+02</pdfrwt>
<totfact>-0.35554260E-13</totfact>
</mgrwt>
</event>
<event>
 4    1  0.5021037E-019  0.1493057E+02  0.7818608E-02  0.1870195E+00
          2   -1    0    0  501    0  0.00000000000E+00  0.00000000000E+00  0.12011506715E+03  0.12011506717E+03  0.25500000000E-02 0. -1.
         -2   -1    0    0    0  501 -0.00000000000E+00 -0.00000000000E+00 -0.46397219053E+00  0.46397919790E+00  0.25500000000E-02 0.  1.
         31    1    1    2    0    0  0.22458729799E+00 -0.19119344726E+00  0.56356120348E+02  0.56846796050E+02  0.74470750000E+01 0.  1.
        -31    1    1    2    0    0 -0.22458729799E+00  0.19119344726E+00  0.63294974607E+02  0.63732250321E+02  0.74470750000E+01 0. -1.
<mgrwt>
<rscale>  0 0.14930569E+02</rscale>
<asrwt>0</asrwt>
<pdfrwt beam="1">  1        2 0.99703192E+00 0.14930569E+02</pdfrwt>
<pdfrwt beam="2">  1       -2 0.98548055E+00 0.14930569E+02</pdfrwt>
<totfact> 0.30857330E-13</totfact>
</mgrwt>
</event>
<event>
 4    1  0.5021037E-019  0.1489710E+02  0.7818608E-02  0.1871225E+00
         -2   -1    0    0    0  501 -0.00000000000E+00  0.00000000000E+00  0.11846746910E+03  0.11846746913E+03  0.25500000000E-02 0.  1.
          2   -1    0    0  501    0  0.00000000000E+00 -0.00000000000E+00 -0.46831858201E+00  0.46832552435E+00  0.25500000000E-02 0. -1.
         31    1    1    2    0    0  0.70104656900E-01  0.10099127760E+00  0.58336790132E+02  0.58810331769E+02  0.74470750000E+01 0.  1.
        -31    1    1    2    0    0 -0.70104656900E-01 -0.10099127760E+00  0.59662360385E+02  0.60125462881E+02  0.74470750000E+01 0.  1.
<mgrwt>
<rscale>  0 0.14897105E+02</rscale>
<asrwt>0</asrwt>
<pdfrwt beam="2">  1        2 0.99462260E+00 0.14897105E+02</pdfrwt>
<pdfrwt beam="1">  1       -2 0.98344437E+00 0.14897105E+02</pdfrwt>
<totfact> 0.74761481E-13</totfact>
</mgrwt>
</event>
<event>
 4    1  0.5021037E-019  0.1492710E+02  0.7818608E-02  0.1870301E+00
          2   -1    0    0  501    0  0.00000000000E+00  0.00000000000E+00  0.12003272783E+03  0.12003272786E+03  0.25500000000E-02 0. -1.
         -2   -1    0    0    0  501 -0.00000000000E+00 -0.00000000000E+00 -0.46407462413E+00  0.46408162995E+00  0.25500000000E-02 0.  1.
         31    1    1    2    0    0  0.49494087460E+00  0.21948183051E-01  0.59672319706E+02  0.60137260607E+02  0.74470750000E+01 0.  1.
        -31    1    1    2    0    0 -0.49494087460E+00 -0.21948183051E-01  0.59896333503E+02  0.60359548883E+02  0.74470750000E+01 0.  1.
<mgrwt>
<rscale>  0 0.14927098E+02</rscale>
<asrwt>0</asrwt>
<pdfrwt beam="1">  1        2 0.99635193E+00 0.14927098E+02</pdfrwt>
<pdfrwt beam="2">  1       -2 0.98569468E+00 0.14927098E+02</pdfrwt>
<totfact> 0.32984930E-13</totfact>
</mgrwt>
</event>
<event>
 4    1 -0.5021037E-019  0.1495270E+02  0.7818608E-02  0.1869515E+00
          2   -1    0    0  501    0  0.00000000000E+00  0.00000000000E+00  0.11910842229E+03  0.11910842231E+03  0.25500000000E-02 0. -1.
         -2   -1    0    0    0  501 -0.00000000000E+00 -0.00000000000E+00 -0.46928156895E+00  0.46928849705E+00  0.25500000000E-02 0.  1.
         31    1    1    2    0    0  0.62006111151E+00 -0.22819139494E+00  0.59174298496E+02  0.59644723787E+02  0.74470750000E+01 0.  1.
        -31    1    1    2    0    0 -0.62006111151E+00  0.22819139494E+00  0.59464842222E+02  0.59932987024E+02  0.74470750000E+01 0.  1.
<mgrwt>
<rscale>  0 0.14952699E+02</rscale>
<asrwt>0</asrwt>
<pdfrwt beam="1">  1        2 0.98875218E+00 0.14952699E+02</pdfrwt>
<pdfrwt beam="2">  1       -2 0.99668087E+00 0.14952699E+02</pdfrwt>
<totfact>-0.17367679E-13</totfact>
</mgrwt>
</event>
<event>
 4    1 -0.5021037E-019  0.1501092E+02  0.7818608E-02  0.1867736E+00
          2   -1    0    0  501    0  0.00000000000E+00  0.00000000000E+00  0.12034909248E+03  0.12034909251E+03  0.25500000000E-02 0.  1.
         -2   -1    0    0    0  501 -0.00000000000E+00 -0.00000000000E+00 -0.46806747868E+00  0.46807442474E+00  0.25500000000E-02 0. -1.
         31    1    1    2    0    0 -0.79917042041E+00 -0.46554039183E+00  0.58873038590E+02  0.59349380790E+02  0.74470750000E+01 0. -1.
        -31    1    1    2    0    0  0.79917042041E+00  0.46554039183E+00  0.61007986413E+02  0.61467786144E+02  0.74470750000E+01 0.  1.
<mgrwt>
<rscale>  0 0.15010918E+02</rscale>
<asrwt>0</asrwt>
<pdfrwt beam="1">  1        2 0.99900087E+00 0.15010918E+02</pdfrwt>
<pdfrwt beam="2">  1       -2 0.99415258E+00 0.15010918E+02</pdfrwt>
<totfact>-0.36092836E-14</totfact>
</mgrwt>
</event>
<event>
 4    1 -0.5021037E-019  0.1494576E+02  0.7818608E-02  0.1869728E+00
         -2   -1    0    0    0  501 -0.00000000000E+00  0.00000000000E+00  0.11999315870E+03  0.11999315872E+03  0.25500000000E-02 0. -1.
          2   -1    0    0  501    0  0.00000000000E+00 -0.00000000000E+00 -0.46538938951E+00  0.46539637554E+00  0.25500000000E-02 0.  1.
         31    1    1    2    0    0  0.30563778635E+00  0.31797071251E+00  0.56245939125E+02  0.56738515261E+02  0.74470750000E+01 0.  1.
        -31    1    1    2    0    0 -0.30563778635E+00 -0.31797071251E+00  0.63281830182E+02  0.63720039839E+02  0.74470750000E+01 0. -1.
<mgrwt>
<rscale>  0 0.14945764E+02</rscale>
<asrwt>0</asrwt>
<pdfrwt beam="2">  1        2 0.98847515E+00 0.14945764E+02</pdfrwt>
<pdfrwt beam="1">  1       -2 0.99603561E+00 0.14945764E+02</pdfrwt>
<totfact>-0.19671631E-13</totfact>
</mgrwt>
</event>
<event>
 4    1  0.5021037E-019  0.1490937E+02  0.7818608E-02  0.1870847E+00
          2   -1    0    0  501    0  0.00000000000E+00  0.00000000000E+00  0.12030897260E+03  0.12030897263E+03  0.25500000000E-02 0.  1.
         -2   -1    0    0    0  501 -0.00000000000E+00 -0.00000000000E+00 -0.46190980152E+00  0.46191684018E+00  0.25500000000E-02 0. -1.
         31    1    1    2    0    0 -0.13110885597E+00 -0.23337811402E+00  0.61578447747E+02  0.62027701939E+02  0.74470750000E+01 0.  1.
        -31    1    1    2    0    0  0.13110885597E+00  0.23337811402E+00  0.58268615054E+02  0.58743187531E+02  0.74470750000E+01 0. -1.
<mgrwt>
<rscale>  0 0.14909369E+02</rscale>
<asrwt>0</asrwt>
<pdfrwt beam="1">  1        2 0.99861821E+00 0.14909369E+02</pdfrwt>
<pdfrwt beam="2">  1       -2 0.98112292E+00 0.14909369E+02</pdfrwt>
<totfact> 0.47169418E-13</totfact>
</mgrwt>
</event>
