<event>
 4    1  0.5170493E-019  0.1489866E+02  0.7818608E-02  0.1871177E+00
         -2   -1    0    0    0  501 -0.00000000000E+00  0.00000000000E+00  0.11898244641E+03  0.11898244643E+03  0.25500000000E-02 0.  1.
          2   -1    0    0  501    0  0.00000000000E+00 -0.00000000000E+00 -0.46638875038E+00  0.46639572144E+00  0.25500000000E-02 0. -1.
         31    1    1    2    0    0  0.51689942302E-01 -0.31599909536E-01  0.60644278494E+02  0.61099845421E+02  0.74470750000E+01 0.  1.
        -31    1    1    2    0    0 -0.51689942302E-01  0.31599909536E-01  0.57871779162E+02  0.58348996734E+02  0.74470750000E+01 0. -1.
<mgrwt>
<rscale>  0 0.14898657E+02</rscale>
<asrwt>0</asrwt>
<pdfrwt beam="2">  1        2 0.99055694E+00 0.14898657E+02</pdfrwt>
<pdfrwt beam="1">  1       -2 0.98768660E+00 0.14898657E+02</pdfrwt>
<totfact> 0.25497467E-13</totfact>
</mgrwt>
</event>
<event>
 4    1 -0.5170493E-019  0.1494659E+02  0.7818608E-02  0.1869703E+00
         -2   -1    0    0    0  501 -0.00000000000E+00  0.00000000000E+00  0.11975660289E+03  0.11975660292E+03  0.25500000000E-02 0. -1.
          2   -1    0    0  501    0  0.00000000000E+00 -0.00000000000E+00 -0.46636039507E+00  0.46636736656E+00  0.25500000000E-02 0.  1.
         31    1    1    2    0    0 -0.37328703690E+00 -0.43549288745E+00  0.61651713608E+02  0.62102509725E+02  0.74470750000E+01 0. -1.
        -31    1    1    2    0    0  0.37328703690E+00  0.43549288745E+00  0.57638528885E+02  0.58120460557E+02  0.74470750000E+01 0.  1.
<mgrwt>
<rscale>  0 0.14946593E+02</rscale>
<asrwt>0</asrwt>
<pdfrwt beam="2">  1        2 0.99052195E+00 0.14946593E+02</pdfrwt>
<pdfrwt beam="1">  1       -2 0.99408763E+00 0.14946593E+02</pdfrwt>
<totfact>-0.16749886E-13</totfact>
</mgrwt>
</event>
<event>
 4    1 -0.5170493E-019  0.1498251E+02  0.7818608E-02  0.1868603E+00
         -2   -1    0    0    0  501 -0.00000000000E+00  0.00000000000E+00  0.12009926245E+03  0.12009926248E+03  0.25500000000E-02 0. -1.
          2   -1    0    0  501    0  0.00000000000E+00 -0.00000000000E+00 -0.46726740128E+00  0.46727435923E+00  0.25500000000E-02 0.  1.
         31    1    1    2    0    0 -0.10592593230E+00  0.38438916829E+00  0.54120170965E+02  0.54631591654E+02  0.74470750000E+01 0.  1.
        -31    1    1    2    0    0  0.10592593230E+00 -0.38438916829E+00  0.65511824087E+02  0.65934945185E+02  0.74470750000E+01 0. -1.
<mgrwt>
<rscale>  0 0.14982509E+02</rscale>
<asrwt>0</asrwt>
<pdfrwt beam="2">  1        2 0.99245187E+00 0.14982509E+02</pdfrwt>
<pdfrwt beam="1">  1       -2 0.99692848E+00 0.14982509E+02</pdfrwt>
<totfact>-0.11915280E-13</totfact>
</mgrwt>
</event>
<event>
 4    1 -0.5170493E-019  0.1489512E+02  0.7818608E-02  0.1871286E+00
          2   -1    0    0  501    0  0.00000000000E+00  0.00000000000E+00  0.11887945768E+03  0.11887945771E+03  0.25500000000E-02 0. -1.
         -2   -1    0    0    0  501 -0.00000000000E+00 -0.00000000000E+00 -0.46657094402E+00  0.46657791236E+00  0.25500000000E-02 0.  1.
         31    1    1    2    0    0  0.23845861910E-01 -0.77260764017E-01  0.59001484393E+02  0.59469661378E+02  0.74470750000E+01 0. -1.
        -31    1    1    2    0    0 -0.23845861910E-01  0.77260764017E-01  0.59411402346E+02  0.59876374244E+02  0.74470750000E+01 0. -1.
<mgrwt>
<rscale>  0 0.14895116E+02</rscale>
<asrwt>0</asrwt>
<pdfrwt beam="1">  1        2 0.98683652E+00 0.14895116E+02</pdfrwt>
<pdfrwt beam="2">  1       -2 0.99093903E+00 0.14895116E+02</pdfrwt>
<totfact>-0.85871304E-14</totfact>
</mgrwt>
</event>
<event>
 4    1 -0.5170493E-019  0.1496342E+02  0.7818608E-02  0.1869187E+00
          2   -1    0    0  501    0  0.00000000000E+00  0.00000000000E+00  0.11920592296E+03  0.11920592298E+03  0.25500000000E-02 0.  1.
         -2   -1    0    0    0  501 -0.00000000000E+00 -0.00000000000E+00 -0.46957029056E+00  0.46957721439E+00  0.25500000000E-02 0. -1.
         31    1    1    2    0    0  0.83688227931E-01 -0.32284010704E+00  0.64463142529E+02  0.64892733802E+02  0.74470750000E+01 0. -1.
        -31    1    1    2    0    0 -0.83688227931E-01  0.32284010704E+00  0.54273210137E+02  0.54782766396E+02  0.74470750000E+01 0. -1.
<mgrwt>
<rscale>  0 0.14963419E+02</rscale>
<asrwt>0</asrwt>
<pdfrwt beam="1">  1        2 0.98956077E+00 0.14963419E+02</pdfrwt>
<pdfrwt beam="2">  1       -2 0.99729486E+00 0.14963419E+02</pdfrwt>
<totfact>-0.13931799E-13</totfact>
</mgrwt>
</event>
<event>
 4    1 -0.5170493E-019  0.1491156E+02  0.7818608E-02  0.1870779E+00
         -2   -1    0    0    0  501 -0.00000000000E+00  0.00000000000E+00  0.12012501794E+03  0.12012501796E+03  0.25500000000E-02 0. -1.
          2   -1    0    0  501    0  0.00000000000E+00 -0.00000000000E+00 -0.46275332179E+00  0.46276034762E+00  0.25500000000E-02 0.  1.
         31    1    1    2    0    0 -0.78393692267E-01 -0.51245829662E-01  0.62643903107E+02  0.63085071881E+02  0.74470750000E+01 0. -1.
        -31    1    1    2    0    0  0.78393692267E-01  0.51245829662E-01  0.57018361507E+02  0.57502706429E+02  0.74470750000E+01 0.  1.
<mgrwt>
<rscale>  0 0.14911563E+02</rscale>
<asrwt>0</asrwt>
<pdfrwt beam="2">  1        2 0.98290195E+00 0.14911563E+02</pdfrwt>
<pdfrwt beam="1">  1       -2 0.99710412E+00 0.14911563E+02</pdfrwt>
<totfact>-0.38526356E-13</totfact>
</mgrwt>
</event>
<event>
 4    1 -0.5170493E-019  0.1495272E+02  0.7818608E-02  0.1869515E+00
          2   -1    0    0  501    0  0.00000000000E+00  0.00000000000E+00  0.11966847062E+03  0.11966847065E+03  0.25500000000E-02 0.  1.
         -2   -1    0    0    0  501 -0.00000000000E+00 -0.00000000000E+00 -0.46708653090E+00  0.46709349155E+00  0.25500000000E-02 0. -1.
         31    1    1    2    0    0 -0.45800116111E+00 -0.38150811665E+00  0.57304058850E+02  0.57789007607E+02  0.74470750000E+01 0. -1.
        -31    1    1    2    0    0  0.45800116111E+00  0.38150811665E+00  0.61897325242E+02  0.62346556534E+02  0.74470750000E+01 0.  1.
<mgrwt>
<rscale>  0 0.14952719E+02</rscale>
<asrwt>0</asrwt>
<pdfrwt beam="1">  1        2 0.99336490E+00 0.14952719E+02</pdfrwt>
<pdfrwt beam="2">  1       -2 0.99205537E+00 0.14952719E+02</pdfrwt>
<totfact>-0.92520060E-14</totfact>
</mgrwt>
</event>
<event>
 4    1 -0.5170493E-019  0.1493915E+02  0.7818608E-02  0.1869931E+00
          2   -1    0    0  501    0  0.00000000000E+00  0.00000000000E+00  0.11928577617E+03  0.11928577620E+03  0.25500000000E-02 0. -1.
         -2   -1    0    0    0  501 -0.00000000000E+00 -0.00000000000E+00 -0.46773498849E+00  0.46774193949E+00  0.25500000000E-02 0.  1.
         31    1    1    2    0    0  0.37892802562E+00 -0.37829283011E+00  0.61182207384E+02  0.61636094282E+02  0.74470750000E+01 0.  1.
        -31    1    1    2    0    0 -0.37892802562E+00  0.37829283011E+00  0.57635833797E+02  0.58117423854E+02  0.74470750000E+01 0. -1.
<mgrwt>
<rscale>  0 0.14939150E+02</rscale>
<asrwt>0</asrwt>
<pdfrwt beam="1">  1        2 0.99020588E+00 0.14939150E+02</pdfrwt>
<pdfrwt beam="2">  1       -2 0.99341485E+00 0.14939150E+02</pdfrwt>
<totfact>-0.16202612E-13</totfact>
</mgrwt>
</event>
<event>
 4    1  0.5170493E-019  0.1492136E+02  0.7818608E-02  0.1870478E+00
          2   -1    0    0  501    0  0.00000000000E+00  0.00000000000E+00  0.11998073334E+03  0.11998073337E+03  0.25500000000E-02 0.  1.
         -2   -1    0    0    0  501 -0.00000000000E+00 -0.00000000000E+00 -0.46391895833E+00  0.46392596651E+00  0.25500000000E-02 0. -1.
         31    1    1    2    0    0  0.27573499437E+00  0.25013066387E-01  0.62625704008E+02  0.63067538274E+02  0.74470750000E+01 0. -1.
        -31    1    1    2    0    0 -0.27573499437E+00 -0.25013066387E-01  0.56891110377E+02  0.57377121062E+02  0.74470750000E+01 0. -1.
<mgrwt>
<rscale>  0 0.14921362E+02</rscale>
<asrwt>0</asrwt>
<pdfrwt beam="1">  1        2 0.99592071E+00 0.14921362E+02</pdfrwt>
<pdfrwt beam="2">  1       -2 0.98536367E+00 0.14921362E+02</pdfrwt>
<totfact> 0.39032508E-13</totfact>
</mgrwt>
</event>
<event>
 4    1  0.5170493E-019  0.1492541E+02  0.7818608E-02  0.1870353E+00
          2   -1    0    0  501    0  0.00000000000E+00  0.00000000000E+00  0.11962662990E+03  0.11962662992E+03  0.25500000000E-02 0.  1.
         -2   -1    0    0    0  501 -0.00000000000E+00 -0.00000000000E+00 -0.46554483139E+00  0.46555181509E+00  0.25500000000E-02 0. -1.
         31    1    1    2    0    0 -0.12620330864E+00  0.71063997651E-02  0.55831721539E+02  0.56326335171E+02  0.74470750000E+01 0. -1.
        -31    1    1    2    0    0  0.12620330864E+00 -0.71063997651E-02  0.63329363528E+02  0.63765846569E+02  0.74470750000E+01 0.  1.
<mgrwt>
<rscale>  0 0.14925412E+02</rscale>
<asrwt>0</asrwt>
<pdfrwt beam="1">  1        2 0.99300618E+00 0.14925412E+02</pdfrwt>
<pdfrwt beam="2">  1       -2 0.98879232E+00 0.14925412E+02</pdfrwt>
<totfact> 0.10336247E-13</totfact>
</mgrwt>
</event>
<event>
 4    1 -0.5170493E-019  0.1492036E+02  0.7818608E-02  0.1870509E+00
          2   -1    0    0  501    0  0.00000000000E+00  0.00000000000E+00  0.11920727699E+03  0.11920727702E+03  0.25500000000E-02 0.  1.
         -2   -1    0    0    0  501 -0.00000000000E+00 -0.00000000000E+00 -0.46686627725E+00  0.46687324118E+00  0.25500000000E-02 0. -1.
         31    1    1    2    0    0  0.32873073726E+00  0.15773989921E+00  0.57366528123E+02  0.57849031286E+02  0.74470750000E+01 0. -1.
        -31    1    1    2    0    0 -0.32873073726E+00 -0.15773989921E+00  0.61373882587E+02  0.61825118970E+02  0.74470750000E+01 0.  1.
<mgrwt>
<rscale>  0 0.14920359E+02</rscale>
<asrwt>0</asrwt>
<pdfrwt beam="1">  1        2 0.98954961E+00 0.14920359E+02</pdfrwt>
<pdfrwt beam="2">  1       -2 0.99157448E+00 0.14920359E+02</pdfrwt>
<totfact>-0.10114549E-13</totfact>
</mgrwt>
</event>
<event>
 4    1 -0.5170493E-019  0.1495596E+02  0.7818608E-02  0.1869415E+00
          2   -1    0    0  501    0  0.00000000000E+00  0.00000000000E+00  0.11950538149E+03  0.11950538151E+03  0.25500000000E-02 0. -1.
         -2   -1    0    0    0  501 -0.00000000000E+00 -0.00000000000E+00 -0.46792653734E+00  0.46793348549E+00  0.25500000000E-02 0.  1.
         31    1    1    2    0    0  0.23930610091E+00 -0.60138517291E+00  0.61168566702E+02  0.61623627043E+02  0.74470750000E+01 0. -1.
        -31    1    1    2    0    0 -0.23930610091E+00  0.60138517291E+00  0.57868888248E+02  0.58349687957E+02  0.74470750000E+01 0. -1.
<mgrwt>
<rscale>  0 0.14955956E+02</rscale>
<asrwt>0</asrwt>
<pdfrwt beam="1">  1        2 0.99202331E+00 0.14955956E+02</pdfrwt>
<pdfrwt beam="2">  1       -2 0.99382722E+00 0.14955956E+02</pdfrwt>
<totfact>-0.14595473E-13</totfact>
</mgrwt>
</event>
<event>
 4    1  0.5170493E-019  0.1494008E+02  0.7818608E-02  0.1869902E+00
          2   -1    0    0  501    0  0.00000000000E+00  0.00000000000E+00  0.11993024799E+03  0.11993024802E+03  0.25500000000E-02 0.  1.
         -2   -1    0    0    0  501 -0.00000000000E+00 -0.00000000000E+00 -0.46527942989E+00  0.46528641758E+00  0.25500000000E-02 0. -1.
         31    1    1    2    0    0 -0.72945259109E-01  0.18328310463E+00  0.55291786803E+02  0.55791392953E+02  0.74470750000E+01 0. -1.
        -31    1    1    2    0    0  0.72945259109E-01 -0.18328310463E+00  0.64173181759E+02  0.64604141484E+02  0.74470750000E+01 0.  1.
<mgrwt>
<rscale>  0 0.14940080E+02</rscale>
<asrwt>0</asrwt>
<pdfrwt beam="1">  1        2 0.99551452E+00 0.14940080E+02</pdfrwt>
<pdfrwt beam="2">  1       -2 0.98824050E+00 0.14940080E+02</pdfrwt>
<totfact> 0.12361270E-13</totfact>
</mgrwt>
</event>
<event>
 4    1 -0.5170493E-019  0.1491193E+02  0.7818608E-02  0.1870768E+00
          2   -1    0    0  501    0  0.00000000000E+00  0.00000000000E+00  0.11903064561E+03  0.11903064564E+03  0.25500000000E-02 0.  1.
         -2   -1    0    0    0  501 -0.00000000000E+00 -0.00000000000E+00 -0.46703107932E+00  0.46703804079E+00  0.25500000000E-02 0. -1.
         31    1    1    2    0    0  0.34257556949E+00 -0.76631070220E-01  0.58510168857E+02  0.58983235043E+02  0.74470750000E+01 0. -1.
        -31    1    1    2    0    0 -0.34257556949E+00  0.76631070220E-01  0.60053445675E+02  0.60514448637E+02  0.74470750000E+01 0.  1.
<mgrwt>
<rscale>  0 0.14911932E+02</rscale>
<asrwt>0</asrwt>
<pdfrwt beam="1">  1        2 0.98809046E+00 0.14911932E+02</pdfrwt>
<pdfrwt beam="2">  1       -2 0.99191739E+00 0.14911932E+02</pdfrwt>
<totfact>-0.14105321E-13</totfact>
</mgrwt>
</event>
<event>
 4    1 -0.5170493E-019  0.1492890E+02  0.7818608E-02  0.1870246E+00
         -2   -1    0    0    0  501 -0.00000000000E+00  0.00000000000E+00  0.11980977297E+03  0.11980977300E+03  0.25500000000E-02 0. -1.
          2   -1    0    0  501    0  0.00000000000E+00 -0.00000000000E+00 -0.46505026760E+00  0.46505725873E+00  0.25500000000E-02 0.  1.
         31    1    1    2    0    0  0.26809215151E+00 -0.28389002543E+00  0.62302735752E+02  0.62747448356E+02  0.74470750000E+01 0. -1.
        -31    1    1    2    0    0 -0.26809215151E+00  0.28389002543E+00  0.57041986950E+02  0.57527381899E+02  0.74470750000E+01 0.  1.
<mgrwt>
<rscale>  0 0.14928897E+02</rscale>
<asrwt>0</asrwt>
<pdfrwt beam="2">  1        2 0.98775182E+00 0.14928897E+02</pdfrwt>
<pdfrwt beam="1">  1       -2 0.99451645E+00 0.14928897E+02</pdfrwt>
<totfact>-0.23059664E-13</totfact>
</mgrwt>
</event>
<event>
 4    1 -0.5170493E-019  0.1494002E+02  0.7818608E-02  0.1869904E+00
          2   -1    0    0  501    0  0.00000000000E+00  0.00000000000E+00  0.11882822149E+03  0.11882822151E+03  0.25500000000E-02 0. -1.
         -2   -1    0    0    0  501 -0.00000000000E+00 -0.00000000000E+00 -0.46959082933E+00  0.46959775286E+00  0.25500000000E-02 0.  1.
         31    1    1    2    0    0 -0.56072664065E+00  0.43917124170E-02  0.57850375400E+02  0.58330431968E+02  0.74470750000E+01 0.  1.
        -31    1    1    2    0    0  0.56072664065E+00 -0.43917124170E-02  0.60508255258E+02  0.60967387299E+02  0.74470750000E+01 0. -1.
<mgrwt>
<rscale>  0 0.14940021E+02</rscale>
<asrwt>0</asrwt>
<pdfrwt beam="1">  1        2 0.98643784E+00 0.14940021E+02</pdfrwt>
<pdfrwt beam="2">  1       -2 0.99732587E+00 0.14940021E+02</pdfrwt>
<totfact>-0.20547330E-13</totfact>
</mgrwt>
</event>
<event>
 4    1 -0.5170493E-019  0.1492027E+02  0.7818608E-02  0.1870511E+00
         -2   -1    0    0    0  501 -0.00000000000E+00  0.00000000000E+00  0.12026190244E+03  0.12026190247E+03  0.25500000000E-02 0.  1.
          2   -1    0    0  501    0  0.00000000000E+00 -0.00000000000E+00 -0.46276649964E+00  0.46277352527E+00  0.25500000000E-02 0. -1.
         31    1    1    2    0    0 -0.19214402389E+00 -0.33896945215E-01  0.63101635484E+02  0.63539856745E+02  0.74470750000E+01 0.  1.
        -31    1    1    2    0    0  0.19214402389E+00  0.33896945215E-01  0.56697500461E+02  0.57184819252E+02  0.74470750000E+01 0. -1.
<mgrwt>
<rscale>  0 0.14920269E+02</rscale>
<asrwt>0</asrwt>
<pdfrwt beam="2">  1        2 0.98293412E+00 0.14920269E+02</pdfrwt>
<pdfrwt beam="1">  1       -2 0.99823609E+00 0.14920269E+02</pdfrwt>
<totfact>-0.26249875E-13</totfact>
</mgrwt>
</event>
<event>
 4    1  0.5170493E-019  0.1491880E+02  0.7818608E-02  0.1870557E+00
         -2   -1    0    0    0  501 -0.00000000000E+00  0.00000000000E+00  0.11863175985E+03  0.11863175988E+03  0.25500000000E-02 0. -1.
          2   -1    0    0  501    0  0.00000000000E+00 -0.00000000000E+00 -0.46903300591E+00  0.46903993767E+00  0.25500000000E-02 0.  1.
         31    1    1    2    0    0 -0.88285225605E-01  0.14262536347E+00  0.62230083418E+02  0.62674319657E+02  0.74470750000E+01 0. -1.
        -31    1    1    2    0    0  0.88285225605E-01 -0.14262536347E+00  0.55932643425E+02  0.56426480157E+02  0.74470750000E+01 0.  1.
<mgrwt>
<rscale>  0 0.14918797E+02</rscale>
<asrwt>0</asrwt>
<pdfrwt beam="2">  1        2 0.99613934E+00 0.14918797E+02</pdfrwt>
<pdfrwt beam="1">  1       -2 0.98480874E+00 0.14918797E+02</pdfrwt>
<totfact> 0.44310283E-13</totfact>
</mgrwt>
</event>
<event>
 4    1 -0.5170493E-019  0.1489987E+02  0.7818608E-02  0.1871139E+00
         -2   -1    0    0    0  501 -0.00000000000E+00  0.00000000000E+00  0.11961056860E+03  0.11961056863E+03  0.25500000000E-02 0.  1.
          2   -1    0    0  501    0  0.00000000000E+00 -0.00000000000E+00 -0.46401504566E+00  0.46402205239E+00  0.25500000000E-02 0. -1.
         31    1    1    2    0    0 -0.15505850771E+00 -0.11468549390E+00  0.58980873022E+02  0.59449470177E+02  0.74470750000E+01 0. -1.
        -31    1    1    2    0    0  0.15505850771E+00  0.11468549390E+00  0.60165680532E+02  0.60625120501E+02  0.74470750000E+01 0.  1.
<mgrwt>
<rscale>  0 0.14899869E+02</rscale>
<asrwt>0</asrwt>
<pdfrwt beam="2">  1        2 0.98555522E+00 0.14899869E+02</pdfrwt>
<pdfrwt beam="1">  1       -2 0.99286073E+00 0.14899869E+02</pdfrwt>
<totfact>-0.26846940E-13</totfact>
</mgrwt>
</event>
<event>
 4    1 -0.5170493E-019  0.1497790E+02  0.7818608E-02  0.1868744E+00
         -2   -1    0    0    0  501 -0.00000000000E+00  0.00000000000E+00  0.11972646594E+03  0.11972646597E+03  0.25500000000E-02 0. -1.
          2   -1    0    0  501    0  0.00000000000E+00 -0.00000000000E+00 -0.46843411946E+00  0.46844106008E+00  0.25500000000E-02 0.  1.
         31    1    1    2    0    0 -0.54462146051E+00  0.53551537658E+00  0.57983144170E+02  0.58464410740E+02  0.74470750000E+01 0.  1.
        -31    1    1    2    0    0  0.54462146051E+00 -0.53551537658E+00  0.61274887649E+02  0.61730496286E+02  0.74470750000E+01 0. -1.
<mgrwt>
<rscale>  0 0.14977901E+02</rscale>
<asrwt>0</asrwt>
<pdfrwt beam="2">  1        2 0.99490822E+00 0.14977901E+02</pdfrwt>
<pdfrwt beam="1">  1       -2 0.99385559E+00 0.14977901E+02</pdfrwt>
<totfact>-0.11656979E-13</totfact>
</mgrwt>
</event>
<event>
 4    1 -0.5170493E-019  0.1495966E+02  0.7818608E-02  0.1869302E+00
          2   -1    0    0  501    0  0.00000000000E+00  0.00000000000E+00  0.11934178531E+03  0.11934178534E+03  0.25500000000E-02 0. -1.
         -2   -1    0    0    0  501 -0.00000000000E+00 -0.00000000000E+00 -0.46880027697E+00  0.46880721217E+00  0.25500000000E-02 0.  1.
         31    1    1    2    0    0  0.51949049857E+00 -0.46701557747E+00  0.59185887748E+02  0.59656652676E+02  0.74470750000E+01 0.  1.
        -31    1    1    2    0    0 -0.51949049857E+00  0.46701557747E+00  0.59687097284E+02  0.60153939872E+02  0.74470750000E+01 0. -1.
<mgrwt>
<rscale>  0 0.14959663E+02</rscale>
<asrwt>0</asrwt>
<pdfrwt beam="1">  1        2 0.99067781E+00 0.14959663E+02</pdfrwt>
<pdfrwt beam="2">  1       -2 0.99567034E+00 0.14959663E+02</pdfrwt>
<totfact>-0.16248082E-13</totfact>
</mgrwt>
</event>
<event>
 4    1 -0.5170493E-019  0.1497256E+02  0.7818608E-02  0.1868907E+00
          2   -1    0    0  501    0  0.00000000000E+00  0.00000000000E+00  0.11952283004E+03  0.11952283006E+03  0.25500000000E-02 0.  1.
         -2   -1    0    0    0  501 -0.00000000000E+00 -0.00000000000E+00 -0.46889753528E+00  0.46890446904E+00  0.25500000000E-02 0. -1.
         31    1    1    2    0    0  0.68009569288E+00  0.35057423885E+00  0.59562390981E+02  0.60031015133E+02  0.74470750000E+01 0. -1.
        -31    1    1    2    0    0 -0.68009569288E+00 -0.35057423885E+00  0.59491541521E+02  0.59960719401E+02  0.74470750000E+01 0. -1.
<mgrwt>
<rscale>  0 0.14972559E+02</rscale>
<asrwt>0</asrwt>
<pdfrwt beam="1">  1        2 0.99217562E+00 0.14972559E+02</pdfrwt>
<pdfrwt beam="2">  1       -2 0.99588199E+00 0.14972559E+02</pdfrwt>
<totfact>-0.14193815E-13</totfact>
</mgrwt>
</event>
<event>
 4    1 -0.5170493E-019  0.1492519E+02  0.7818608E-02  0.1870360E+00
          2   -1    0    0  501    0  0.00000000000E+00  0.00000000000E+00  0.11858019437E+03  0.11858019440E+03  0.25500000000E-02 0.  1.
         -2   -1    0    0    0  501 -0.00000000000E+00 -0.00000000000E+00 -0.46963946528E+00  0.46964638810E+00  0.25500000000E-02 0. -1.
         31    1    1    2    0    0 -0.17493032694E+00  0.41340952073E+00  0.57675592021E+02  0.58156120478E+02  0.74470750000E+01 0. -1.
        -31    1    1    2    0    0  0.17493032694E+00 -0.41340952073E+00  0.60434962886E+02  0.60893720310E+02  0.74470750000E+01 0. -1.
<mgrwt>
<rscale>  0 0.14925194E+02</rscale>
<asrwt>0</asrwt>
<pdfrwt beam="1">  1        2 0.98438738E+00 0.14925194E+02</pdfrwt>
<pdfrwt beam="2">  1       -2 0.99742054E+00 0.14925194E+02</pdfrwt>
<totfact>-0.27710906E-13</totfact>
</mgrwt>
</event>
<event>
 4    1 -0.5170493E-019  0.1495162E+02  0.7818608E-02  0.1869548E+00
          2   -1    0    0  501    0  0.00000000000E+00  0.00000000000E+00  0.11901289563E+03  0.11901289566E+03  0.25500000000E-02 0. -1.
         -2   -1    0    0    0  501 -0.00000000000E+00 -0.00000000000E+00 -0.46959036713E+00  0.46959729066E+00  0.25500000000E-02 0.  1.
         31    1    1    2    0    0 -0.15747789905E+00 -0.59306026101E+00  0.57444483220E+02  0.57928439460E+02  0.74470750000E+01 0. -1.
        -31    1    1    2    0    0  0.15747789905E+00  0.59306026101E+00  0.61098822043E+02  0.61554053488E+02  0.74470750000E+01 0. -1.
<mgrwt>
<rscale>  0 0.14951619E+02</rscale>
<asrwt>0</asrwt>
<pdfrwt beam="1">  1        2 0.98796485E+00 0.14951619E+02</pdfrwt>
<pdfrwt beam="2">  1       -2 0.99733098E+00 0.14951619E+02</pdfrwt>
<totfact>-0.16590087E-13</totfact>
</mgrwt>
</event>
<event>
 4    1 -0.5170493E-019  0.1496373E+02  0.7818608E-02  0.1869177E+00
          2   -1    0    0  501    0  0.00000000000E+00  0.00000000000E+00  0.11933786734E+03  0.11933786736E+03  0.25500000000E-02 0.  1.
         -2   -1    0    0    0  501 -0.00000000000E+00 -0.00000000000E+00 -0.46907070573E+00  0.46907763694E+00  0.25500000000E-02 0. -1.
         31    1    1    2    0    0  0.70502082042E+00 -0.11331355751E+00  0.60214532414E+02  0.60677497758E+02  0.74470750000E+01 0.  1.
        -31    1    1    2    0    0 -0.70502082042E+00  0.11331355751E+00  0.58654264216E+02  0.59129447242E+02  0.74470750000E+01 0. -1.
<mgrwt>
<rscale>  0 0.14963731E+02</rscale>
<asrwt>0</asrwt>
<pdfrwt beam="1">  1        2 0.99064765E+00 0.14963731E+02</pdfrwt>
<pdfrwt beam="2">  1       -2 0.99624231E+00 0.14963731E+02</pdfrwt>
<totfact>-0.15355161E-13</totfact>
</mgrwt>
</event>
<event>
 4    1 -0.5170493E-019  0.1497882E+02  0.7818608E-02  0.1868716E+00
          2   -1    0    0  501    0  0.00000000000E+00  0.00000000000E+00  0.11995039010E+03  0.11995039013E+03  0.25500000000E-02 0.  1.
         -2   -1    0    0    0  501 -0.00000000000E+00 -0.00000000000E+00 -0.46761699442E+00  0.46762394718E+00  0.25500000000E-02 0. -1.
         31    1    1    2    0    0  0.90207010973E-01 -0.78741057962E+00  0.60261292813E+02  0.60724875383E+02  0.74470750000E+01 0. -1.
        -31    1    1    2    0    0 -0.90207010973E-01  0.78741057962E+00  0.59221480296E+02  0.59693138695E+02  0.74470750000E+01 0.  1.
<mgrwt>
<rscale>  0 0.14978820E+02</rscale>
<asrwt>0</asrwt>
<pdfrwt beam="1">  1        2 0.99570039E+00 0.14978820E+02</pdfrwt>
<pdfrwt beam="2">  1       -2 0.99318671E+00 0.14978820E+02</pdfrwt>
<totfact>-0.98483303E-14</totfact>
</mgrwt>
</event>
<event>
 4    1 -0.5170493E-019  0.1493779E+02  0.7818608E-02  0.1869973E+00
         -2   -1    0    0    0  501 -0.00000000000E+00  0.00000000000E+00  0.11997190596E+03  0.11997190599E+03  0.25500000000E-02 0. -1.
          2   -1    0    0  501    0  0.00000000000E+00 -0.00000000000E+00 -0.46497539480E+00  0.46498238706E+00  0.25500000000E-02 0.  1.
         31    1    1    2    0    0 -0.18502174146E+00  0.41108044136E+00  0.56934324623E+02  0.57421071624E+02  0.74470750000E+01 0.  1.
        -31    1    1    2    0    0  0.18502174146E+00 -0.41108044136E+00  0.62572605944E+02  0.63015816752E+02  0.74470750000E+01 0.  1.
<mgrwt>
<rscale>  0 0.14937792E+02</rscale>
<asrwt>0</asrwt>
<pdfrwt beam="2">  1        2 0.98759857E+00 0.14937792E+02</pdfrwt>
<pdfrwt beam="1">  1       -2 0.99585646E+00 0.14937792E+02</pdfrwt>
<totfact>-0.22396706E-13</totfact>
</mgrwt>
</event>
<event>
 4    1 -0.5170493E-019  0.1496708E+02  0.7818608E-02  0.1869075E+00
         -2   -1    0    0    0  501 -0.00000000000E+00  0.00000000000E+00  0.11967271072E+03  0.11967271075E+03  0.25500000000E-02 0. -1.
          2   -1    0    0  501    0  0.00000000000E+00 -0.00000000000E+00 -0.46796779126E+00  0.46797473880E+00  0.25500000000E-02 0.  1.
         31    1    1    2    0    0  0.49811787544E-01 -0.29791321052E+00  0.54198388687E+02  0.54708459088E+02  0.74470750000E+01 0.  1.
        -31    1    1    2    0    0 -0.49811787544E-01  0.29791321052E+00  0.65006354242E+02  0.65432226398E+02  0.74470750000E+01 0. -1.
<mgrwt>
<rscale>  0 0.14967083E+02</rscale>
<asrwt>0</asrwt>
<pdfrwt beam="2">  1        2 0.99391991E+00 0.14967083E+02</pdfrwt>
<pdfrwt beam="1">  1       -2 0.99340725E+00 0.14967083E+02</pdfrwt>
<totfact>-0.12146201E-13</totfact>
</mgrwt>
</event>
<event>
 4    1 -0.5170493E-019  0.1498117E+02  0.7818608E-02  0.1868644E+00
         -2   -1    0    0    0  501 -0.00000000000E+00  0.00000000000E+00  0.11974863696E+03  0.11974863699E+03  0.25500000000E-02 0. -1.
          2   -1    0    0  501    0  0.00000000000E+00 -0.00000000000E+00 -0.46855181026E+00  0.46855874915E+00  0.25500000000E-02 0.  1.
         31    1    1    2    0    0  0.15160130229E+00  0.16830238672E+00  0.53431378368E+02  0.53948331105E+02  0.74470750000E+01 0.  1.
        -31    1    1    2    0    0 -0.15160130229E+00 -0.16830238672E+00  0.65848706784E+02  0.66268864633E+02  0.74470750000E+01 0. -1.
<mgrwt>
<rscale>  0 0.14981169E+02</rscale>
<asrwt>0</asrwt>
<pdfrwt beam="2">  1        2 0.99515792E+00 0.14981169E+02</pdfrwt>
<pdfrwt beam="1">  1       -2 0.99403989E+00 0.14981169E+02</pdfrwt>
<totfact>-0.11507969E-13</totfact>
</mgrwt>
</event>
<event>
 4    1 -0.5170493E-019  0.1496225E+02  0.7818608E-02  0.1869223E+00
         -2   -1    0    0    0  501 -0.00000000000E+00  0.00000000000E+00  0.11974292362E+03  0.11974292365E+03  0.25500000000E-02 0.  1.
          2   -1    0    0  501    0  0.00000000000E+00 -0.00000000000E+00 -0.46739107787E+00  0.46739803399E+00  0.25500000000E-02 0. -1.
         31    1    1    2    0    0  0.66645308319E+00 -0.11555970915E+00  0.57827758800E+02  0.58309228495E+02  0.74470750000E+01 0.  1.
        -31    1    1    2    0    0 -0.66645308319E+00  0.11555970915E+00  0.61447773741E+02  0.61901093186E+02  0.74470750000E+01 0. -1.
<mgrwt>
<rscale>  0 0.14962245E+02</rscale>
<asrwt>0</asrwt>
<pdfrwt beam="2">  1        2 0.99270208E+00 0.14962245E+02</pdfrwt>
<pdfrwt beam="1">  1       -2 0.99398305E+00 0.14962245E+02</pdfrwt>
<totfact>-0.14064092E-13</totfact>
</mgrwt>
</event>
<event>
 4    1 -0.5170493E-019  0.1495772E+02  0.7818608E-02  0.1869362E+00
         -2   -1    0    0    0  501 -0.00000000000E+00  0.00000000000E+00  0.11990381644E+03  0.11990381647E+03  0.25500000000E-02 0. -1.
          2   -1    0    0  501    0  0.00000000000E+00 -0.00000000000E+00 -0.46648138056E+00  0.46648835024E+00  0.25500000000E-02 0.  1.
         31    1    1    2    0    0  0.21629949472E-01  0.30857917527E+00  0.54766401501E+02  0.55271270552E+02  0.74470750000E+01 0.  1.
        -31    1    1    2    0    0 -0.21629949472E-01 -0.30857917527E+00  0.64670933560E+02  0.65099034267E+02  0.74470750000E+01 0. -1.
<mgrwt>
<rscale>  0 0.14957716E+02</rscale>
<asrwt>0</asrwt>
<pdfrwt beam="2">  1        2 0.99078264E+00 0.14957716E+02</pdfrwt>
<pdfrwt beam="1">  1       -2 0.99530590E+00 0.14957716E+02</pdfrwt>
<totfact>-0.16471969E-13</totfact>
</mgrwt>
</event>
<event>
 4    1 -0.5170493E-019  0.1494489E+02  0.7818608E-02  0.1869755E+00
         -2   -1    0    0    0  501 -0.00000000000E+00  0.00000000000E+00  0.12014725050E+03  0.12014725053E+03  0.25500000000E-02 0. -1.
          2   -1    0    0  501    0  0.00000000000E+00 -0.00000000000E+00 -0.46473823213E+00  0.46474522795E+00  0.25500000000E-02 0.  1.
         31    1    1    2    0    0  0.26368820221E+00  0.44121465732E+00  0.57112579658E+02  0.57598349656E+02  0.74470750000E+01 0. -1.
        -31    1    1    2    0    0 -0.26368820221E+00 -0.44121465732E+00  0.62569932614E+02  0.63013646103E+02  0.74470750000E+01 0.  1.
<mgrwt>
<rscale>  0 0.14944891E+02</rscale>
<asrwt>0</asrwt>
<pdfrwt beam="2">  1        2 0.98710235E+00 0.14944891E+02</pdfrwt>
<pdfrwt beam="1">  1       -2 0.99730437E+00 0.14944891E+02</pdfrwt>
<totfact>-0.18764308E-13</totfact>
</mgrwt>
</event>
<event>
 4    1  0.5170493E-019  0.1491097E+02  0.7818608E-02  0.1870797E+00
          2   -1    0    0  501    0  0.00000000000E+00  0.00000000000E+00  0.11969954706E+03  0.11969954709E+03  0.25500000000E-02 0. -1.
         -2   -1    0    0    0  501 -0.00000000000E+00 -0.00000000000E+00 -0.46436136309E+00  0.46436836459E+00  0.25500000000E-02 0.  1.
         31    1    1    2    0    0 -0.45483321380E-01 -0.16604999002E+00  0.62110599987E+02  0.62555696768E+02  0.74470750000E+01 0. -1.
        -31    1    1    2    0    0  0.45483321380E-01  0.16604999002E+00  0.57124585714E+02  0.57608218688E+02  0.74470750000E+01 0.  1.
<mgrwt>
<rscale>  0 0.14910971E+02</rscale>
<asrwt>0</asrwt>
<pdfrwt beam="1">  1        2 0.99359933E+00 0.14910971E+02</pdfrwt>
<pdfrwt beam="2">  1       -2 0.98629077E+00 0.14910971E+02</pdfrwt>
<totfact> 0.36453444E-13</totfact>
</mgrwt>
</event>
<event>
 4    1 -0.5170493E-019  0.1495355E+02  0.7818608E-02  0.1869489E+00
         -2   -1    0    0    0  501 -0.00000000000E+00  0.00000000000E+00  0.11995194256E+03  0.11995194259E+03  0.25500000000E-02 0. -1.
          2   -1    0    0  501    0  0.00000000000E+00 -0.00000000000E+00 -0.46603423734E+00  0.46604121370E+00  0.25500000000E-02 0.  1.
         31    1    1    2    0    0 -0.16791329646E+00 -0.62322490151E+00  0.61056414008E+02  0.61512285128E+02  0.74470750000E+01 0.  1.
        -31    1    1    2    0    0  0.16791329646E+00  0.62322490151E+00  0.58429494314E+02  0.58905698671E+02  0.74470750000E+01 0. -1.
<mgrwt>
<rscale>  0 0.14953546E+02</rscale>
<asrwt>0</asrwt>
<pdfrwt beam="2">  1        2 0.98983816E+00 0.14953546E+02</pdfrwt>
<pdfrwt beam="1">  1       -2 0.99570014E+00 0.14953546E+02</pdfrwt>
<totfact>-0.17506909E-13</totfact>
</mgrwt>
</event>
<event>
 4    1 -0.5170493E-019  0.1496907E+02  0.7818608E-02  0.1869014E+00
         -2   -1    0    0    0  501 -0.00000000000E+00  0.00000000000E+00  0.12011377764E+03  0.12011377767E+03  0.25500000000E-02 0.  1.
          2   -1    0    0  501    0  0.00000000000E+00 -0.00000000000E+00 -0.46637325979E+00  0.46638023108E+00  0.25500000000E-02 0. -1.
         31    1    1    2    0    0  0.42625899839E+00  0.61437522243E+00  0.59936548668E+02  0.60402052497E+02  0.74470750000E+01 0.  1.
        -31    1    1    2    0    0 -0.42625899839E+00 -0.61437522243E+00  0.59710855713E+02  0.60178105401E+02  0.74470750000E+01 0.  1.
<mgrwt>
<rscale>  0 0.14969072E+02</rscale>
<asrwt>0</asrwt>
<pdfrwt beam="2">  1        2 0.99056060E+00 0.14969072E+02</pdfrwt>
<pdfrwt beam="1">  1       -2 0.99704111E+00 0.14969072E+02</pdfrwt>
<totfact>-0.13469802E-13</totfact>
</mgrwt>
</event>
<event>
 4    1 -0.5170493E-019  0.1495384E+02  0.7818608E-02  0.1869480E+00
         -2   -1    0    0    0  501 -0.00000000000E+00  0.00000000000E+00  0.11990975447E+03  0.11990975449E+03  0.25500000000E-02 0.  1.
          2   -1    0    0  501    0  0.00000000000E+00 -0.00000000000E+00 -0.46621662133E+00  0.46622359497E+00  0.25500000000E-02 0. -1.
         31    1    1    2    0    0 -0.57562576220E+00 -0.33674005618E+00  0.59512316203E+02  0.59980158759E+02  0.74470750000E+01 0. -1.
        -31    1    1    2    0    0  0.57562576220E+00  0.33674005618E+00  0.59931221643E+02  0.60395819331E+02  0.74470750000E+01 0. -1.
<mgrwt>
<rscale>  0 0.14953841E+02</rscale>
<asrwt>0</asrwt>
<pdfrwt beam="2">  1        2 0.99022268E+00 0.14953841E+02</pdfrwt>
<pdfrwt beam="1">  1       -2 0.99535281E+00 0.14953841E+02</pdfrwt>
<totfact>-0.17266345E-13</totfact>
</mgrwt>
</event>
<event>
 4    1 -0.5170493E-019  0.1494791E+02  0.7818608E-02  0.1869662E+00
         -2   -1    0    0    0  501 -0.00000000000E+00  0.00000000000E+00  0.12008844841E+03  0.12008844844E+03  0.25500000000E-02 0.  1.
          2   -1    0    0  501    0  0.00000000000E+00 -0.00000000000E+00 -0.46515358434E+00  0.46516057391E+00  0.25500000000E-02 0. -1.
         31    1    1    2    0    0  0.58011069443E+00 -0.24185088930E+00  0.60438890014E+02  0.60899206665E+02  0.74470750000E+01 0. -1.
        -31    1    1    2    0    0 -0.58011069443E+00  0.24185088930E+00  0.59184404816E+02  0.59654402350E+02  0.74470750000E+01 0.  1.
<mgrwt>
<rscale>  0 0.14947909E+02</rscale>
<asrwt>0</asrwt>
<pdfrwt beam="2">  1        2 0.98797928E+00 0.14947909E+02</pdfrwt>
<pdfrwt beam="1">  1       -2 0.99682159E+00 0.14947909E+02</pdfrwt>
<totfact>-0.18592688E-13</totfact>
</mgrwt>
</event>
<event>
 4    1 -0.5170493E-019  0.1493551E+02  0.7818608E-02  0.1870043E+00
         -2   -1    0    0    0  501 -0.00000000000E+00  0.00000000000E+00  0.12005132971E+03  0.12005132974E+03  0.25500000000E-02 0.  1.
          2   -1    0    0  501    0  0.00000000000E+00 -0.00000000000E+00 -0.46452587708E+00  0.46453287610E+00  0.25500000000E-02 0. -1.
         31    1    1    2    0    0  0.92153325931E-01 -0.49308435701E+00  0.57869943112E+02  0.58349300478E+02  0.74470750000E+01 0.  1.
        -31    1    1    2    0    0 -0.92153325931E-01  0.49308435701E+00  0.61716860721E+02  0.62166562135E+02  0.74470750000E+01 0.  1.
<mgrwt>
<rscale>  0 0.14935511E+02</rscale>
<asrwt>0</asrwt>
<pdfrwt beam="2">  1        2 0.98665002E+00 0.14935511E+02</pdfrwt>
<pdfrwt beam="1">  1       -2 0.99650947E+00 0.14935511E+02</pdfrwt>
<totfact>-0.23583018E-13</totfact>
</mgrwt>
</event>
<event>
 4    1 -0.5170493E-019  0.1490545E+02  0.7818608E-02  0.1870968E+00
         -2   -1    0    0    0  501 -0.00000000000E+00  0.00000000000E+00  0.11943424777E+03  0.11943424780E+03  0.25500000000E-02 0. -1.
          2   -1    0    0  501    0  0.00000000000E+00 -0.00000000000E+00 -0.46504813281E+00  0.46505512397E+00  0.25500000000E-02 0.  1.
         31    1    1    2    0    0 -0.16467201739E+00 -0.57989169817E-01  0.57620735605E+02  0.58100245932E+02  0.74470750000E+01 0.  1.
        -31    1    1    2    0    0  0.16467201739E+00  0.57989169817E-01  0.61348464035E+02  0.61799056992E+02  0.74470750000E+01 0. -1.
<mgrwt>
<rscale>  0 0.14905448E+02</rscale>
<asrwt>0</asrwt>
<pdfrwt beam="2">  1        2 0.98773529E+00 0.14905448E+02</pdfrwt>
<pdfrwt beam="1">  1       -2 0.99141133E+00 0.14905448E+02</pdfrwt>
<totfact>-0.11346865E-13</totfact>
</mgrwt>
</event>
<event>
 4    1  0.5170493E-019  0.1490450E+02  0.7818608E-02  0.1870997E+00
         -2   -1    0    0    0  501 -0.00000000000E+00  0.00000000000E+00  0.11885503977E+03  0.11885503980E+03  0.25500000000E-02 0.  1.
          2   -1    0    0  501    0  0.00000000000E+00 -0.00000000000E+00 -0.46725529627E+00  0.46726225441E+00  0.25500000000E-02 0. -1.
         31    1    1    2    0    0 -0.10620622267E+00 -0.24650000870E+00  0.58622416262E+02  0.59094150780E+02  0.74470750000E+01 0. -1.
        -31    1    1    2    0    0  0.10620622267E+00  0.24650000870E+00  0.59765368212E+02  0.60228151271E+02  0.74470750000E+01 0.  1.
<mgrwt>
<rscale>  0 0.14904504E+02</rscale>
<asrwt>0</asrwt>
<pdfrwt beam="2">  1        2 0.99238600E+00 0.14904504E+02</pdfrwt>
<pdfrwt beam="1">  1       -2 0.98664028E+00 0.14904504E+02</pdfrwt>
<totfact> 0.35007963E-13</totfact>
</mgrwt>
</event>
<event>
 4    1  0.5170493E-019  0.1489981E+02  0.7818608E-02  0.1871141E+00
          2   -1    0    0  501    0  0.00000000000E+00  0.00000000000E+00  0.11974497000E+03  0.11974497002E+03  0.25500000000E-02 0.  1.
         -2   -1    0    0    0  501 -0.00000000000E+00 -0.00000000000E+00 -0.46349035386E+00  0.46349736851E+00  0.25500000000E-02 0. -1.
         31    1    1    2    0    0 -0.16032779746E+00  0.36128271843E-01  0.60632961112E+02  0.61088803471E+02  0.74470750000E+01 0. -1.
        -31    1    1    2    0    0  0.16032779746E+00 -0.36128271843E-01  0.58648518530E+02  0.59119663920E+02  0.74470750000E+01 0. -1.
<mgrwt>
<rscale>  0 0.14899807E+02</rscale>
<asrwt>0</asrwt>
<pdfrwt beam="1">  1        2 0.99396771E+00 0.14899807E+02</pdfrwt>
<pdfrwt beam="2">  1       -2 0.98444938E+00 0.14899807E+02</pdfrwt>
<totfact> 0.61813006E-13</totfact>
</mgrwt>
</event>
<event>
 4    1 -0.5170493E-019  0.1495539E+02  0.7818608E-02  0.1869433E+00
         -2   -1    0    0    0  501 -0.00000000000E+00  0.00000000000E+00  0.11952265761E+03  0.11952265764E+03  0.25500000000E-02 0.  1.
          2   -1    0    0  501    0  0.00000000000E+00 -0.00000000000E+00 -0.46782317061E+00  0.46783012030E+00  0.25500000000E-02 0. -1.
         31    1    1    2    0    0 -0.24671152649E+00  0.38411113178E+00  0.63527407352E+02  0.63964043171E+02  0.74470750000E+01 0.  1.
        -31    1    1    2    0    0  0.24671152649E+00 -0.38411113178E+00  0.55527427092E+02  0.56026444591E+02  0.74470750000E+01 0. -1.
<mgrwt>
<rscale>  0 0.14955385E+02</rscale>
<asrwt>0</asrwt>
<pdfrwt beam="2">  1        2 0.99360910E+00 0.14955385E+02</pdfrwt>
<pdfrwt beam="1">  1       -2 0.99216531E+00 0.14955385E+02</pdfrwt>
<totfact>-0.94486685E-14</totfact>
</mgrwt>
</event>
<event>
 4    1 -0.5170493E-019  0.1492245E+02  0.7818608E-02  0.1870444E+00
          2   -1    0    0  501    0  0.00000000000E+00  0.00000000000E+00  0.11873190121E+03  0.11873190124E+03  0.25500000000E-02 0. -1.
         -2   -1    0    0    0  501 -0.00000000000E+00 -0.00000000000E+00 -0.46886710271E+00  0.46887403693E+00  0.25500000000E-02 0.  1.
         31    1    1    2    0    0 -0.14846055276E+00 -0.14679603900E+00  0.62399599051E+02  0.62842759944E+02  0.74470750000E+01 0. -1.
        -31    1    1    2    0    0  0.14846055276E+00  0.14679603900E+00  0.55863435055E+02  0.56358015329E+02  0.74470750000E+01 0.  1.
<mgrwt>
<rscale>  0 0.14922453E+02</rscale>
<asrwt>0</asrwt>
<pdfrwt beam="1">  1        2 0.98563541E+00 0.14922453E+02</pdfrwt>
<pdfrwt beam="2">  1       -2 0.99579169E+00 0.14922453E+02</pdfrwt>
<totfact>-0.30038503E-13</totfact>
</mgrwt>
</event>
<event>
 4    1 -0.5170493E-019  0.1492242E+02  0.7818608E-02  0.1870445E+00
         -2   -1    0    0    0  501 -0.00000000000E+00  0.00000000000E+00  0.12007104670E+03  0.12007104673E+03  0.25500000000E-02 0. -1.
          2   -1    0    0  501    0  0.00000000000E+00 -0.00000000000E+00 -0.46363598184E+00  0.46364299429E+00  0.25500000000E-02 0.  1.
         31    1    1    2    0    0 -0.44383774069E+00  0.31409519628E-01  0.60716751466E+02  0.61173366862E+02  0.74470750000E+01 0. -1.
        -31    1    1    2    0    0  0.44383774069E+00 -0.31409519628E-01  0.58890659253E+02  0.59361322861E+02  0.74470750000E+01 0. -1.
<mgrwt>
<rscale>  0 0.14922424E+02</rscale>
<asrwt>0</asrwt>
<pdfrwt beam="2">  1        2 0.98476781E+00 0.14922424E+02</pdfrwt>
<pdfrwt beam="1">  1       -2 0.99666515E+00 0.14922424E+02</pdfrwt>
<totfact>-0.30823711E-13</totfact>
</mgrwt>
</event>
<event>
 4    1 -0.5170493E-019  0.1491547E+02  0.7818608E-02  0.1870659E+00
         -2   -1    0    0    0  501 -0.00000000000E+00  0.00000000000E+00  0.12036247624E+03  0.12036247627E+03  0.25500000000E-02 0. -1.
          2   -1    0    0  501    0  0.00000000000E+00 -0.00000000000E+00 -0.46208266068E+00  0.46208969671E+00  0.25500000000E-02 0.  1.
         31    1    1    2    0    0 -0.20003153770E+00  0.16323010569E+00  0.62410668502E+02  0.62853934846E+02  0.74470750000E+01 0. -1.
        -31    1    1    2    0    0  0.20003153770E+00 -0.16323010569E+00  0.57489725077E+02  0.57970631118E+02  0.74470750000E+01 0.  1.
<mgrwt>
<rscale>  0 0.14915474E+02</rscale>
<asrwt>0</asrwt>
<pdfrwt beam="2">  1        2 0.98149034E+00 0.14915474E+02</pdfrwt>
<pdfrwt beam="1">  1       -2 0.99906205E+00 0.14915474E+02</pdfrwt>
<totfact>-0.19147760E-13</totfact>
</mgrwt>
</event>
<event>
 4    1  0.5170493E-019  0.1489960E+02  0.7818608E-02  0.1871148E+00
         -2   -1    0    0    0  501 -0.00000000000E+00  0.00000000000E+00  0.11847775300E+03  0.11847775303E+03  0.25500000000E-02 0. -1.
          2   -1    0    0  501    0  0.00000000000E+00 -0.00000000000E+00 -0.46843468657E+00  0.46844162719E+00  0.25500000000E-02 0.  1.
         31    1    1    2    0    0  0.15656867302E+00 -0.12585228942E+00  0.58884938224E+02  0.59354319374E+02  0.74470750000E+01 0.  1.
        -31    1    1    2    0    0 -0.15656867302E+00  0.12585228942E+00  0.59124380087E+02  0.59591875279E+02  0.74470750000E+01 0. -1.
<mgrwt>
<rscale>  0 0.14899598E+02</rscale>
<asrwt>0</asrwt>
<pdfrwt beam="2">  1        2 0.99486855E+00 0.14899598E+02</pdfrwt>
<pdfrwt beam="1">  1       -2 0.98353036E+00 0.14899598E+02</pdfrwt>
<totfact> 0.71574667E-13</totfact>
</mgrwt>
</event>
<event>
 4    1 -0.5170493E-019  0.1499950E+02  0.7818608E-02  0.1868084E+00
          2   -1    0    0  501    0  0.00000000000E+00  0.00000000000E+00  0.12022584295E+03  0.12022584297E+03  0.25500000000E-02 0.  1.
         -2   -1    0    0    0  501 -0.00000000000E+00 -0.00000000000E+00 -0.46783448309E+00  0.46784143261E+00  0.25500000000E-02 0. -1.
         31    1    1    2    0    0  0.36095870176E+00 -0.55152957862E+00  0.55099522674E+02  0.55604413503E+02  0.74470750000E+01 0.  1.
        -31    1    1    2    0    0 -0.36095870176E+00  0.55152957862E+00  0.64658485789E+02  0.65089270902E+02  0.74470750000E+01 0.  1.
<mgrwt>
<rscale>  0 0.14999495E+02</rscale>
<asrwt>0</asrwt>
<pdfrwt beam="1">  1        2 0.99797983E+00 0.14999495E+02</pdfrwt>
<pdfrwt beam="2">  1       -2 0.99365569E+00 0.14999495E+02</pdfrwt>
<totfact>-0.62761442E-14</totfact>
</mgrwt>
</event>
<event>
 4    1 -0.5170493E-019  0.1502376E+02  0.7818608E-02  0.1867344E+00
          2   -1    0    0  501    0  0.00000000000E+00  0.00000000000E+00  0.12017244090E+03  0.12017244092E+03  0.25500000000E-02 0.  1.
         -2   -1    0    0    0  501 -0.00000000000E+00 -0.00000000000E+00 -0.46955763450E+00  0.46956455852E+00  0.25500000000E-02 0. -1.
         31    1    1    2    0    0  0.16349238268E+00  0.93329191888E+00  0.62000396828E+02  0.62453229672E+02  0.74470750000E+01 0. -1.
        -31    1    1    2    0    0 -0.16349238268E+00 -0.93329191888E+00  0.57702486434E+02  0.58188775810E+02  0.74470750000E+01 0.  1.
<mgrwt>
<rscale>  0 0.15023755E+02</rscale>
<asrwt>0</asrwt>
<pdfrwt beam="1">  1        2 0.99755251E+00 0.15023755E+02</pdfrwt>
<pdfrwt beam="2">  1       -2 0.99729955E+00 0.15023755E+02</pdfrwt>
<totfact>-0.56943031E-14</totfact>
</mgrwt>
</event>
<event>
 4    1  0.5170493E-019  0.1491155E+02  0.7818608E-02  0.1870780E+00
         -2   -1    0    0    0  501 -0.00000000000E+00  0.00000000000E+00  0.11838881352E+03  0.11838881354E+03  0.25500000000E-02 0. -1.
          2   -1    0    0  501    0  0.00000000000E+00 -0.00000000000E+00 -0.46953902630E+00  0.46954595060E+00  0.25500000000E-02 0.  1.
         31    1    1    2    0    0 -0.86740698952E-01 -0.32471765549E+00  0.57929885566E+02  0.58407564007E+02  0.74470750000E+01 0.  1.
        -31    1    1    2    0    0  0.86740698952E-01  0.32471765549E+00  0.59989388924E+02  0.60450795487E+02  0.74470750000E+01 0. -1.
<mgrwt>
<rscale>  0 0.14911550E+02</rscale>
<asrwt>0</asrwt>
<pdfrwt beam="2">  1        2 0.99720171E+00 0.14911550E+02</pdfrwt>
<pdfrwt beam="1">  1       -2 0.98280408E+00 0.14911550E+02</pdfrwt>
<totfact> 0.58494857E-13</totfact>
</mgrwt>
</event>
<event>
 4    1  0.5170493E-019  0.1490124E+02  0.7818608E-02  0.1871097E+00
          2   -1    0    0  501    0  0.00000000000E+00  0.00000000000E+00  0.11979409493E+03  0.11979409496E+03  0.25500000000E-02 0.  1.
         -2   -1    0    0    0  501 -0.00000000000E+00 -0.00000000000E+00 -0.46338939707E+00  0.46339641325E+00  0.25500000000E-02 0. -1.
         31    1    1    2    0    0 -0.12306362686E+00  0.66340732745E-02  0.58100001278E+02  0.58575457857E+02  0.74470750000E+01 0. -1.
        -31    1    1    2    0    0  0.12306362686E+00 -0.66340732745E-02  0.61230704260E+02  0.61682033518E+02  0.74470750000E+01 0.  1.
<mgrwt>
<rscale>  0 0.14901240E+02</rscale>
<asrwt>0</asrwt>
<pdfrwt beam="1">  1        2 0.99437308E+00 0.14901240E+02</pdfrwt>
<pdfrwt beam="2">  1       -2 0.98423733E+00 0.14901240E+02</pdfrwt>
<totfact> 0.63107357E-13</totfact>
</mgrwt>
</event>
<event>
 4    1  0.5170493E-019  0.1494447E+02  0.7818608E-02  0.1869768E+00
          2   -1    0    0  501    0  0.00000000000E+00  0.00000000000E+00  0.11992074628E+03  0.11992074631E+03  0.25500000000E-02 0.  1.
         -2   -1    0    0    0  501 -0.00000000000E+00 -0.00000000000E+00 -0.46559007467E+00  0.46559705769E+00  0.25500000000E-02 0. -1.
         31    1    1    2    0    0  0.45883336507E+00 -0.34742903826E+00  0.61420593464E+02  0.61873091586E+02  0.74470750000E+01 0.  1.
        -31    1    1    2    0    0 -0.45883336507E+00  0.34742903826E+00  0.58034562742E+02  0.58513251779E+02  0.74470750000E+01 0. -1.
<mgrwt>
<rscale>  0 0.14944475E+02</rscale>
<asrwt>0</asrwt>
<pdfrwt beam="1">  1        2 0.99543852E+00 0.14944475E+02</pdfrwt>
<pdfrwt beam="2">  1       -2 0.98889744E+00 0.14944475E+02</pdfrwt>
<totfact> 0.76069501E-14</totfact>
</mgrwt>
</event>
<event>
 4    1  0.5170493E-019  0.1493207E+02  0.7818608E-02  0.1870149E+00
          2   -1    0    0  501    0  0.00000000000E+00  0.00000000000E+00  0.12005675739E+03  0.12005675741E+03  0.25500000000E-02 0. -1.
         -2   -1    0    0    0  501 -0.00000000000E+00 -0.00000000000E+00 -0.46429064410E+00  0.46429764666E+00  0.25500000000E-02 0.  1.
         31    1    1    2    0    0 -0.22996701535E+00 -0.89481802536E-01  0.63597759606E+02  0.64032763839E+02  0.74470750000E+01 0. -1.
        -31    1    1    2    0    0  0.22996701535E+00  0.89481802536E-01  0.55994707136E+02  0.56488291222E+02  0.74470750000E+01 0.  1.
<mgrwt>
<rscale>  0 0.14932067E+02</rscale>
<asrwt>0</asrwt>
<pdfrwt beam="1">  1        2 0.99655241E+00 0.14932067E+02</pdfrwt>
<pdfrwt beam="2">  1       -2 0.98615249E+00 0.14932067E+02</pdfrwt>
<totfact> 0.27377198E-13</totfact>
</mgrwt>
</event>
<event>
 4    1 -0.5170493E-019  0.1500331E+02  0.7818608E-02  0.1867968E+00
          2   -1    0    0  501    0  0.00000000000E+00  0.00000000000E+00  0.12026384325E+03  0.12026384328E+03  0.25500000000E-02 0.  1.
         -2   -1    0    0    0  501 -0.00000000000E+00 -0.00000000000E+00 -0.46792436470E+00  0.46793131288E+00  0.25500000000E-02 0. -1.
         31    1    1    2    0    0  0.89922719298E+00  0.65063278741E-02  0.59213935880E+02  0.59687165960E+02  0.74470750000E+01 0.  1.
        -31    1    1    2    0    0 -0.89922719298E+00 -0.65063278741E-02  0.60581983009E+02  0.61044608634E+02  0.74470750000E+01 0. -1.
<mgrwt>
<rscale>  0 0.15003307E+02</rscale>
<asrwt>0</asrwt>
<pdfrwt beam="1">  1        2 0.99829478E+00 0.15003307E+02</pdfrwt>
<pdfrwt beam="2">  1       -2 0.99384707E+00 0.15003307E+02</pdfrwt>
<totfact>-0.55819988E-14</totfact>
</mgrwt>
</event>
<event>
 4    1 -0.5170493E-019  0.1497771E+02  0.7818608E-02  0.1868750E+00
         -2   -1    0    0    0  501 -0.00000000000E+00  0.00000000000E+00  0.11998916970E+03  0.11998916973E+03  0.25500000000E-02 0. -1.
          2   -1    0    0  501    0  0.00000000000E+00 -0.00000000000E+00 -0.46739634834E+00  0.46740330437E+00  0.25500000000E-02 0.  1.
         31    1    1    2    0    0  0.73648437618E+00 -0.89314798300E-01  0.57578923305E+02  0.58063256207E+02  0.74470750000E+01 0.  1.
        -31    1    1    2    0    0 -0.73648437618E+00  0.89314798300E-01  0.61942850048E+02  0.62393316825E+02  0.74470750000E+01 0. -1.
<mgrwt>
<rscale>  0 0.14977706E+02</rscale>
<asrwt>0</asrwt>
<pdfrwt beam="2">  1        2 0.99272115E+00 0.14977706E+02</pdfrwt>
<pdfrwt beam="1">  1       -2 0.99601922E+00 0.14977706E+02</pdfrwt>
<totfact>-0.13458459E-13</totfact>
</mgrwt>
</event>
<event>
 4    1 -0.5170493E-019  0.1502301E+02  0.7818608E-02  0.1867367E+00
          2   -1    0    0  501    0  0.00000000000E+00  0.00000000000E+00  0.11985561548E+03  0.11985561551E+03  0.25500000000E-02 0.  1.
         -2   -1    0    0    0  501 -0.00000000000E+00 -0.00000000000E+00 -0.47075228320E+00  0.47075918964E+00  0.25500000000E-02 0. -1.
         31    1    1    2    0    0  0.51942425784E+00 -0.78166179034E+00  0.57384939118E+02  0.57873750184E+02  0.74470750000E+01 0. -1.
        -31    1    1    2    0    0 -0.51942425784E+00  0.78166179034E+00  0.61999924078E+02  0.62452624512E+02  0.74470750000E+01 0.  1.
<mgrwt>
<rscale>  0 0.15023012E+02</rscale>
<asrwt>0</asrwt>
<pdfrwt beam="1">  1        2 0.99494265E+00 0.15023012E+02</pdfrwt>
<pdfrwt beam="2">  1       -2 0.99981663E+00 0.15023012E+02</pdfrwt>
<totfact>-0.76245120E-15</totfact>
</mgrwt>
</event>
<event>
 4    1 -0.5170493E-019  0.1491084E+02  0.7818608E-02  0.1870801E+00
         -2   -1    0    0    0  501 -0.00000000000E+00  0.00000000000E+00  0.11984421931E+03  0.11984421934E+03  0.25500000000E-02 0. -1.
          2   -1    0    0  501    0  0.00000000000E+00 -0.00000000000E+00 -0.46379266612E+00  0.46379967621E+00  0.25500000000E-02 0.  1.
         31    1    1    2    0    0 -0.18095301444E+00  0.21842648425E+00  0.57999423395E+02  0.58476255816E+02  0.74470750000E+01 0.  1.
        -31    1    1    2    0    0  0.18095301444E+00 -0.21842648425E+00  0.61381003252E+02  0.61831763199E+02  0.74470750000E+01 0. -1.
<mgrwt>
<rscale>  0 0.14910841E+02</rscale>
<asrwt>0</asrwt>
<pdfrwt beam="2">  1        2 0.98509215E+00 0.14910841E+02</pdfrwt>
<pdfrwt beam="1">  1       -2 0.99479088E+00 0.14910841E+02</pdfrwt>
<totfact>-0.34289952E-13</totfact>
</mgrwt>
</event>
<event>
 4    1 -0.5170493E-019  0.1490000E+02  0.7818608E-02  0.1871135E+00
          2   -1    0    0  501    0  0.00000000000E+00  0.00000000000E+00  0.11844750258E+03  0.11844750261E+03  0.25500000000E-02 0.  1.
         -2   -1    0    0    0  501 -0.00000000000E+00 -0.00000000000E+00 -0.46857976183E+00  0.46858670030E+00  0.25500000000E-02 0. -1.
         31    1    1    2    0    0  0.13233249312E+00  0.14661778853E+00  0.59529695888E+02  0.59994021596E+02  0.74470750000E+01 0.  1.
        -31    1    1    2    0    0 -0.13233249312E+00 -0.14661778853E+00  0.58449226934E+02  0.58922067716E+02  0.74470750000E+01 0. -1.
<mgrwt>
<rscale>  0 0.14900002E+02</rscale>
<asrwt>0</asrwt>
<pdfrwt beam="1">  1        2 0.98328143E+00 0.14900002E+02</pdfrwt>
<pdfrwt beam="2">  1       -2 0.99517444E+00 0.14900002E+02</pdfrwt>
<totfact>-0.45947024E-13</totfact>
</mgrwt>
</event>
<event>
 4    1 -0.5170493E-019  0.1490934E+02  0.7818608E-02  0.1870848E+00
         -2   -1    0    0    0  501 -0.00000000000E+00  0.00000000000E+00  0.12032317199E+03  0.12032317202E+03  0.25500000000E-02 0. -1.
          2   -1    0    0  501    0  0.00000000000E+00 -0.00000000000E+00 -0.46185354482E+00  0.46186058434E+00  0.25500000000E-02 0.  1.
         31    1    1    2    0    0 -0.21602682605E+00  0.25710096201E+00  0.60095839127E+02  0.60556432977E+02  0.74470750000E+01 0. -1.
        -31    1    1    2    0    0  0.21602682605E+00 -0.25710096201E+00  0.59765479318E+02  0.60228599624E+02  0.74470750000E+01 0.  1.
<mgrwt>
<rscale>  0 0.14909341E+02</rscale>
<asrwt>0</asrwt>
<pdfrwt beam="2">  1        2 0.98100433E+00 0.14909341E+02</pdfrwt>
<pdfrwt beam="1">  1       -2 0.99873516E+00 0.14909341E+02</pdfrwt>
<totfact>-0.27253125E-13</totfact>
</mgrwt>
</event>
<event>
 4    1  0.5170493E-019  0.1491794E+02  0.7818608E-02  0.1870583E+00
         -2   -1    0    0    0  501 -0.00000000000E+00  0.00000000000E+00  0.11826340921E+03  0.11826340924E+03  0.25500000000E-02 0. -1.
          2   -1    0    0  501    0  0.00000000000E+00 -0.00000000000E+00 -0.47043986368E+00  0.47044677471E+00  0.25500000000E-02 0.  1.
         31    1    1    2    0    0  0.33316364752E+00  0.87297516669E-02  0.56848128992E+02  0.57334804178E+02  0.74470750000E+01 0. -1.
        -31    1    1    2    0    0 -0.33316364752E+00 -0.87297516669E-02  0.60944840354E+02  0.61399051834E+02  0.74470750000E+01 0. -1.
<mgrwt>
<rscale>  0 0.14917940E+02</rscale>
<asrwt>0</asrwt>
<pdfrwt beam="2">  1        2 0.99910311E+00 0.14917940E+02</pdfrwt>
<pdfrwt beam="1">  1       -2 0.98177460E+00 0.14917940E+02</pdfrwt>
<totfact> 0.28556328E-13</totfact>
</mgrwt>
</event>
<event>
 4    1 -0.5170493E-019  0.1497693E+02  0.7818608E-02  0.1868773E+00
          2   -1    0    0  501    0  0.00000000000E+00  0.00000000000E+00  0.11994709605E+03  0.11994709608E+03  0.25500000000E-02 0. -1.
         -2   -1    0    0    0  501 -0.00000000000E+00 -0.00000000000E+00 -0.46751197639E+00  0.46751893070E+00  0.25500000000E-02 0.  1.
         31    1    1    2    0    0 -0.21084443443E+00  0.67018634956E+00  0.62577732807E+02  0.63023211395E+02  0.74470750000E+01 0. -1.
        -31    1    1    2    0    0  0.21084443443E+00 -0.67018634956E+00  0.56901851268E+02  0.57391403615E+02  0.74470750000E+01 0.  1.
<mgrwt>
<rscale>  0 0.14976932E+02</rscale>
<asrwt>0</asrwt>
<pdfrwt beam="1">  1        2 0.99567229E+00 0.14976932E+02</pdfrwt>
<pdfrwt beam="2">  1       -2 0.99296443E+00 0.14976932E+02</pdfrwt>
<totfact>-0.95145508E-14</totfact>
</mgrwt>
</event>
<event>
 4    1  0.5170493E-019  0.1489729E+02  0.7818608E-02  0.1871219E+00
          2   -1    0    0  501    0  0.00000000000E+00  0.00000000000E+00  0.11929190976E+03  0.11929190979E+03  0.25500000000E-02 0.  1.
         -2   -1    0    0    0  501 -0.00000000000E+00 -0.00000000000E+00 -0.46509376577E+00  0.46510075624E+00  0.25500000000E-02 0. -1.
         31    1    1    2    0    0  0.32536421706E-01  0.67380015284E-02  0.60614231274E+02  0.61070001335E+02  0.74470750000E+01 0.  1.
        -31    1    1    2    0    0 -0.32536421706E-01 -0.67380015284E-02  0.58212584725E+02  0.58687009214E+02  0.74470750000E+01 0. -1.
<mgrwt>
<rscale>  0 0.14897294E+02</rscale>
<asrwt>0</asrwt>
<pdfrwt beam="1">  1        2 0.99023475E+00 0.14897294E+02</pdfrwt>
<pdfrwt beam="2">  1       -2 0.98782727E+00 0.14897294E+02</pdfrwt>
<totfact> 0.24383876E-13</totfact>
</mgrwt>
</event>
<event>
 4    1  0.5170493E-019  0.1490269E+02  0.7818608E-02  0.1871053E+00
         -2   -1    0    0    0  501 -0.00000000000E+00  0.00000000000E+00  0.11861834953E+03  0.11861834956E+03  0.25500000000E-02 0. -1.
          2   -1    0    0  501    0  0.00000000000E+00 -0.00000000000E+00 -0.46807366413E+00  0.46808061010E+00  0.25500000000E-02 0.  1.
         31    1    1    2    0    0  0.32583669608E-01 -0.18136660897E+00  0.57698953250E+02  0.58177848772E+02  0.74470750000E+01 0.  1.
        -31    1    1    2    0    0 -0.32583669608E-01  0.18136660897E+00  0.60451322614E+02  0.60908581394E+02  0.74470750000E+01 0. -1.
<mgrwt>
<rscale>  0 0.14902690E+02</rscale>
<asrwt>0</asrwt>
<pdfrwt beam="2">  1        2 0.99410947E+00 0.14902690E+02</pdfrwt>
<pdfrwt beam="1">  1       -2 0.98468993E+00 0.14902690E+02</pdfrwt>
<totfact> 0.57318787E-13</totfact>
</mgrwt>
</event>
<event>
 4    1  0.5170493E-019  0.1491591E+02  0.7818608E-02  0.1870645E+00
          2   -1    0    0  501    0  0.00000000000E+00  0.00000000000E+00  0.12041666835E+03  0.12041666838E+03  0.25500000000E-02 0. -1.
         -2   -1    0    0    0  501 -0.00000000000E+00 -0.00000000000E+00 -0.46190163235E+00  0.46190867113E+00  0.25500000000E-02 0.  1.
         31    1    1    2    0    0  0.18843949632E+00  0.35038088999E+00  0.59472558143E+02  0.59938321418E+02  0.74470750000E+01 0. -1.
        -31    1    1    2    0    0 -0.18843949632E+00 -0.35038088999E+00  0.60482208576E+02  0.60940255632E+02  0.74470750000E+01 0.  1.
<mgrwt>
<rscale>  0 0.14915909E+02</rscale>
<asrwt>0</asrwt>
<pdfrwt beam="1">  1        2 0.99950865E+00 0.14915909E+02</pdfrwt>
<pdfrwt beam="2">  1       -2 0.98110899E+00 0.14915909E+02</pdfrwt>
<totfact> 0.18559028E-13</totfact>
</mgrwt>
</event>
<event>
 4    1  0.5170493E-019  0.1492817E+02  0.7818608E-02  0.1870268E+00
         -2   -1    0    0    0  501 -0.00000000000E+00  0.00000000000E+00  0.11901969808E+03  0.11901969811E+03  0.25500000000E-02 0.  1.
          2   -1    0    0  501    0  0.00000000000E+00 -0.00000000000E+00 -0.46809208583E+00  0.46809903153E+00  0.25500000000E-02 0. -1.
         31    1    1    2    0    0 -0.42181558276E+00 -0.26367759942E+00  0.59906815123E+02  0.60369966693E+02  0.74470750000E+01 0. -1.
        -31    1    1    2    0    0  0.42181558276E+00  0.26367759942E+00  0.58644790875E+02  0.59117830449E+02  0.74470750000E+01 0.  1.
<mgrwt>
<rscale>  0 0.14928174E+02</rscale>
<asrwt>0</asrwt>
<pdfrwt beam="2">  1        2 0.99416162E+00 0.14928174E+02</pdfrwt>
<pdfrwt beam="1">  1       -2 0.98800871E+00 0.14928174E+02</pdfrwt>
<totfact> 0.16266366E-13</totfact>
</mgrwt>
</event>
<event>
 4    1  0.5170493E-019  0.1489807E+02  0.7818608E-02  0.1871195E+00
         -2   -1    0    0    0  501 -0.00000000000E+00  0.00000000000E+00  0.11861909094E+03  0.11861909097E+03  0.25500000000E-02 0.  1.
          2   -1    0    0  501    0  0.00000000000E+00 -0.00000000000E+00 -0.46778055248E+00  0.46778750280E+00  0.25500000000E-02 0. -1.
         31    1    1    2    0    0  0.22308313642E-01  0.33866929705E-01  0.57748919651E+02  0.58227126767E+02  0.74470750000E+01 0. -1.
        -31    1    1    2    0    0 -0.22308313642E-01 -0.33866929705E-01  0.60402390735E+02  0.60859751702E+02  0.74470750000E+01 0.  1.
<mgrwt>
<rscale>  0 0.14898070E+02</rscale>
<asrwt>0</asrwt>
<pdfrwt beam="2">  1        2 0.99348943E+00 0.14898070E+02</pdfrwt>
<pdfrwt beam="1">  1       -2 0.98469363E+00 0.14898070E+02</pdfrwt>
<totfact> 0.60113398E-13</totfact>
</mgrwt>
</event>
<event>
 4    1 -0.5170493E-019  0.1491152E+02  0.7818608E-02  0.1870780E+00
          2   -1    0    0  501    0  0.00000000000E+00  0.00000000000E+00  0.11894946372E+03  0.11894946374E+03  0.25500000000E-02 0.  1.
         -2   -1    0    0    0  501 -0.00000000000E+00 -0.00000000000E+00 -0.46732426502E+00  0.46733122213E+00  0.25500000000E-02 0. -1.
         31    1    1    2    0    0 -0.10133516313E+00  0.34205248645E+00  0.59616093507E+02  0.60080486015E+02  0.74470750000E+01 0. -1.
        -31    1    1    2    0    0  0.10133516313E+00 -0.34205248645E+00  0.58866045944E+02  0.59336308950E+02  0.74470750000E+01 0. -1.
<mgrwt>
<rscale>  0 0.14911524E+02</rscale>
<asrwt>0</asrwt>
<pdfrwt beam="1">  1        2 0.98742161E+00 0.14911524E+02</pdfrwt>
<pdfrwt beam="2">  1       -2 0.99253499E+00 0.14911524E+02</pdfrwt>
<totfact>-0.18891975E-13</totfact>
</mgrwt>
</event>
<event>
 4    1 -0.5170493E-019  0.1496062E+02  0.7818608E-02  0.1869273E+00
          2   -1    0    0  501    0  0.00000000000E+00  0.00000000000E+00  0.11951408152E+03  0.11951408155E+03  0.25500000000E-02 0.  1.
         -2   -1    0    0    0  501 -0.00000000000E+00 -0.00000000000E+00 -0.46818439424E+00  0.46819133857E+00  0.25500000000E-02 0. -1.
         31    1    1    2    0    0 -0.25142919261E+00 -0.58027800763E+00  0.57035742776E+02  0.57523341517E+02  0.74470750000E+01 0. -1.
        -31    1    1    2    0    0  0.25142919261E+00  0.58027800763E+00  0.62010154351E+02  0.62458931370E+02  0.74470750000E+01 0.  1.
<mgrwt>
<rscale>  0 0.14960621E+02</rscale>
<asrwt>0</asrwt>
<pdfrwt beam="1">  1        2 0.99209738E+00 0.14960621E+02</pdfrwt>
<pdfrwt beam="2">  1       -2 0.99437302E+00 0.14960621E+02</pdfrwt>
<totfact>-0.14977211E-13</totfact>
</mgrwt>
</event>
<event>
 4    1  0.5170493E-019  0.1492626E+02  0.7818608E-02  0.1870327E+00
         -2   -1    0    0    0  501 -0.00000000000E+00  0.00000000000E+00  0.11846933117E+03  0.11846933120E+03  0.25500000000E-02 0. -1.
          2   -1    0    0  501    0  0.00000000000E+00 -0.00000000000E+00 -0.47014628094E+00  0.47015319629E+00  0.25500000000E-02 0.  1.
         31    1    1    2    0    0  0.46520618822E+00  0.13313800959E+00  0.58421685595E+02  0.58896404103E+02  0.74470750000E+01 0. -1.
        -31    1    1    2    0    0 -0.46520618822E+00 -0.13313800959E+00  0.59577499294E+02  0.60043080290E+02  0.74470750000E+01 0. -1.
<mgrwt>
<rscale>  0 0.14926263E+02</rscale>
<asrwt>0</asrwt>
<pdfrwt beam="2">  1        2 0.99848896E+00 0.14926263E+02</pdfrwt>
<pdfrwt beam="1">  1       -2 0.98347487E+00 0.14926263E+02</pdfrwt>
<totfact> 0.31341160E-13</totfact>
</mgrwt>
</event>
<event>
 4    1 -0.5170493E-019  0.1495690E+02  0.7818608E-02  0.1869387E+00
          2   -1    0    0  501    0  0.00000000000E+00  0.00000000000E+00  0.11971552356E+03  0.11971552359E+03  0.25500000000E-02 0. -1.
         -2   -1    0    0    0  501 -0.00000000000E+00 -0.00000000000E+00 -0.46716390410E+00  0.46717086360E+00  0.25500000000E-02 0.  1.
         31    1    1    2    0    0  0.21506830627E+00  0.54599355339E+00  0.56795789989E+02  0.57284946102E+02  0.74470750000E+01 0. -1.
        -31    1    1    2    0    0 -0.21506830627E+00 -0.54599355339E+00  0.62452569668E+02  0.62897748350E+02  0.74470750000E+01 0. -1.
<mgrwt>
<rscale>  0 0.14956897E+02</rscale>
<asrwt>0</asrwt>
<pdfrwt beam="1">  1        2 0.99375461E+00 0.14956897E+02</pdfrwt>
<pdfrwt beam="2">  1       -2 0.99222058E+00 0.14956897E+02</pdfrwt>
<totfact>-0.95186316E-14</totfact>
</mgrwt>
</event>
<event>
 4    1 -0.5170493E-019  0.1491017E+02  0.7818608E-02  0.1870822E+00
         -2   -1    0    0    0  501 -0.00000000000E+00  0.00000000000E+00  0.12001529800E+03  0.12001529803E+03  0.25500000000E-02 0.  1.
          2   -1    0    0  501    0  0.00000000000E+00 -0.00000000000E+00 -0.46308965699E+00  0.46309667771E+00  0.25500000000E-02 0. -1.
         31    1    1    2    0    0  0.22397924411E+00 -0.12451583032E+00  0.61648060314E+02  0.62096762697E+02  0.74470750000E+01 0.  1.
        -31    1    1    2    0    0 -0.22397924411E+00  0.12451583032E+00  0.57904148031E+02  0.58381632010E+02  0.74470750000E+01 0.  1.
<mgrwt>
<rscale>  0 0.14910167E+02</rscale>
<asrwt>0</asrwt>
<pdfrwt beam="2">  1        2 0.98361013E+00 0.14910167E+02</pdfrwt>
<pdfrwt beam="1">  1       -2 0.99619966E+00 0.14910167E+02</pdfrwt>
<totfact>-0.40057012E-13</totfact>
</mgrwt>
</event>
<event>
 4    1  0.5170493E-019  0.1490658E+02  0.7818608E-02  0.1870933E+00
         -2   -1    0    0    0  501 -0.00000000000E+00  0.00000000000E+00  0.11869302140E+03  0.11869302143E+03  0.25500000000E-02 0.  1.
          2   -1    0    0  501    0  0.00000000000E+00 -0.00000000000E+00 -0.46802353607E+00  0.46803048279E+00  0.25500000000E-02 0. -1.
         31    1    1    2    0    0 -0.21202432231E+00 -0.17431837746E+00  0.60163191939E+02  0.60622965381E+02  0.74470750000E+01 0.  1.
        -31    1    1    2    0    0  0.21202432231E+00  0.17431837746E+00  0.58061805927E+02  0.58538086531E+02  0.74470750000E+01 0. -1.
<mgrwt>
<rscale>  0 0.14906582E+02</rscale>
<asrwt>0</asrwt>
<pdfrwt beam="2">  1        2 0.99400589E+00 0.14906582E+02</pdfrwt>
<pdfrwt beam="1">  1       -2 0.98530695E+00 0.14906582E+02</pdfrwt>
<totfact> 0.48546038E-13</totfact>
</mgrwt>
</event>
<event>
 4    1  0.5170493E-019  0.1490308E+02  0.7818608E-02  0.1871041E+00
         -2   -1    0    0    0  501 -0.00000000000E+00  0.00000000000E+00  0.11856482565E+03  0.11856482568E+03  0.25500000000E-02 0.  1.
          2   -1    0    0  501    0  0.00000000000E+00 -0.00000000000E+00 -0.46830953353E+00  0.46831647600E+00  0.25500000000E-02 0. -1.
         31    1    1    2    0    0  0.24703633272E+00  0.10821098350E-01  0.58462253916E+02  0.58935177976E+02  0.74470750000E+01 0.  1.
        -31    1    1    2    0    0 -0.24703633272E+00 -0.10821098350E-01  0.59634262202E+02  0.60097964179E+02  0.74470750000E+01 0.  1.
<mgrwt>
<rscale>  0 0.14903081E+02</rscale>
<asrwt>0</asrwt>
<pdfrwt beam="2">  1        2 0.99460668E+00 0.14903081E+02</pdfrwt>
<pdfrwt beam="1">  1       -2 0.98424930E+00 0.14903081E+02</pdfrwt>
<totfact> 0.61608485E-13</totfact>
</mgrwt>
</event>
<event>
 4    1 -0.5170493E-019  0.1493011E+02  0.7818608E-02  0.1870209E+00
         -2   -1    0    0    0  501 -0.00000000000E+00  0.00000000000E+00  0.12026060361E+03  0.12026060363E+03  0.25500000000E-02 0. -1.
          2   -1    0    0  501    0  0.00000000000E+00 -0.00000000000E+00 -0.46338203410E+00  0.46338905040E+00  0.25500000000E-02 0.  1.
         31    1    1    2    0    0 -0.18324987679E+00  0.40804549585E+00  0.62007485550E+02  0.62454681745E+02  0.74470750000E+01 0. -1.
        -31    1    1    2    0    0  0.18324987679E+00 -0.40804549585E+00  0.57789736022E+02  0.58269310938E+02  0.74470750000E+01 0.  1.
<mgrwt>
<rscale>  0 0.14930108E+02</rscale>
<asrwt>0</asrwt>
<pdfrwt beam="2">  1        2 0.98423647E+00 0.14930108E+02</pdfrwt>
<pdfrwt beam="1">  1       -2 0.99823044E+00 0.14930108E+02</pdfrwt>
<totfact>-0.21150892E-13</totfact>
</mgrwt>
</event>
<event>
 4    1 -0.5170493E-019  0.1502324E+02  0.7818608E-02  0.1867360E+00
          2   -1    0    0  501    0  0.00000000000E+00  0.00000000000E+00  0.11987877444E+03  0.11987877446E+03  0.25500000000E-02 0.  1.
         -2   -1    0    0    0  501 -0.00000000000E+00 -0.00000000000E+00 -0.47067533227E+00  0.47068223985E+00  0.25500000000E-02 0. -1.
         31    1    1    2    0    0  0.96763878829E+00 -0.16526506102E+00  0.60047291811E+02  0.60515285814E+02  0.74470750000E+01 0.  1.
        -31    1    1    2    0    0 -0.96763878829E+00  0.16526506102E+00  0.59360807293E+02  0.59834170888E+02  0.74470750000E+01 0. -1.
<mgrwt>
<rscale>  0 0.15023235E+02</rscale>
<asrwt>0</asrwt>
<pdfrwt beam="1">  1        2 0.99513351E+00 0.15023235E+02</pdfrwt>
<pdfrwt beam="2">  1       -2 0.99965460E+00 0.15023235E+02</pdfrwt>
<totfact>-0.13912179E-14</totfact>
</mgrwt>
</event>
<event>
 4    1 -0.5170493E-019  0.1494916E+02  0.7818608E-02  0.1869624E+00
         -2   -1    0    0    0  501 -0.00000000000E+00  0.00000000000E+00  0.12041790094E+03  0.12041790096E+03  0.25500000000E-02 0. -1.
          2   -1    0    0  501    0  0.00000000000E+00 -0.00000000000E+00 -0.46395885291E+00  0.46396586048E+00  0.25500000000E-02 0.  1.
         31    1    1    2    0    0 -0.26598349035E+00 -0.26457317581E+00  0.55777563291E+02  0.56273761549E+02  0.74470750000E+01 0.  1.
        -31    1    1    2    0    0  0.26598349035E+00  0.26457317581E+00  0.64176378791E+02  0.64608105273E+02  0.74470750000E+01 0.  1.
<mgrwt>
<rscale>  0 0.14949164E+02</rscale>
<asrwt>0</asrwt>
<pdfrwt beam="2">  1        2 0.98546186E+00 0.14949164E+02</pdfrwt>
<pdfrwt beam="1">  1       -2 0.99953585E+00 0.14949164E+02</pdfrwt>
<totfact>-0.50741016E-14</totfact>
</mgrwt>
</event>
<event>
 4    1 -0.5170493E-019  0.1498288E+02  0.7818608E-02  0.1868591E+00
         -2   -1    0    0    0  501 -0.00000000000E+00  0.00000000000E+00  0.12009289932E+03  0.12009289935E+03  0.25500000000E-02 0. -1.
          2   -1    0    0  501    0  0.00000000000E+00 -0.00000000000E+00 -0.46731559091E+00  0.46732254814E+00  0.25500000000E-02 0.  1.
         31    1    1    2    0    0 -0.23207343193E+00  0.74632214195E+00  0.61646347755E+02  0.62099452272E+02  0.74470750000E+01 0. -1.
        -31    1    1    2    0    0  0.23207343193E+00 -0.74632214195E+00  0.57979235973E+02  0.58460769623E+02  0.74470750000E+01 0.  1.
<mgrwt>
<rscale>  0 0.14982884E+02</rscale>
<asrwt>0</asrwt>
<pdfrwt beam="2">  1        2 0.99255362E+00 0.14982884E+02</pdfrwt>
<pdfrwt beam="1">  1       -2 0.99687627E+00 0.14982884E+02</pdfrwt>
<totfact>-0.11955173E-13</totfact>
</mgrwt>
</event>
<event>
 4    1  0.5170493E-019  0.1492666E+02  0.7818608E-02  0.1870315E+00
          2   -1    0    0  501    0  0.00000000000E+00  0.00000000000E+00  0.11993551583E+03  0.11993551586E+03  0.25500000000E-02 0. -1.
         -2   -1    0    0    0  501 -0.00000000000E+00 -0.00000000000E+00 -0.46442357360E+00  0.46443057416E+00  0.25500000000E-02 0.  1.
         31    1    1    2    0    0  0.40826010397E+00  0.26188799778E+00  0.60415984590E+02  0.60875162272E+02  0.74470750000E+01 0.  1.
        -31    1    1    2    0    0 -0.40826010397E+00 -0.26188799778E+00  0.59055107668E+02  0.59524784161E+02  0.74470750000E+01 0.  1.
<mgrwt>
<rscale>  0 0.14926661E+02</rscale>
<asrwt>0</asrwt>
<pdfrwt beam="1">  1        2 0.99555100E+00 0.14926661E+02</pdfrwt>
<pdfrwt beam="2">  1       -2 0.98642989E+00 0.14926661E+02</pdfrwt>
<totfact> 0.28841388E-13</totfact>
</mgrwt>
</event>
<event>
 4    1 -0.5170493E-019  0.1494201E+02  0.7818608E-02  0.1869843E+00
          2   -1    0    0  501    0  0.00000000000E+00  0.00000000000E+00  0.11914749071E+03  0.11914749074E+03  0.25500000000E-02 0.  1.
         -2   -1    0    0    0  501 -0.00000000000E+00 -0.00000000000E+00 -0.46845718402E+00  0.46846412431E+00  0.25500000000E-02 0. -1.
         31    1    1    2    0    0  0.33073075392E+00  0.67704252886E-01  0.55393100975E+02  0.55892472914E+02  0.74470750000E+01 0. -1.
        -31    1    1    2    0    0 -0.33073075392E+00 -0.67704252886E-01  0.63285932554E+02  0.63723481951E+02  0.74470750000E+01 0. -1.
<mgrwt>
<rscale>  0 0.14942010E+02</rscale>
<asrwt>0</asrwt>
<pdfrwt beam="1">  1        2 0.98906841E+00 0.14942010E+02</pdfrwt>
<pdfrwt beam="2">  1       -2 0.99493817E+00 0.14942010E+02</pdfrwt>
<totfact>-0.19672977E-13</totfact>
</mgrwt>
</event>
<event>
 4    1 -0.5170493E-019  0.1495007E+02  0.7818608E-02  0.1869596E+00
         -2   -1    0    0    0  501 -0.00000000000E+00  0.00000000000E+00  0.11988281448E+03  0.11988281451E+03  0.25500000000E-02 0.  1.
          2   -1    0    0  501    0  0.00000000000E+00 -0.00000000000E+00 -0.46608594089E+00  0.46609291649E+00  0.25500000000E-02 0. -1.
         31    1    1    2    0    0 -0.24635658115E+00  0.25972313909E+00  0.55380440942E+02  0.55880052904E+02  0.74470750000E+01 0. -1.
        -31    1    1    2    0    0  0.24635658115E+00 -0.25972313909E+00  0.64036287599E+02  0.64468854521E+02  0.74470750000E+01 0.  1.
<mgrwt>
<rscale>  0 0.14950066E+02</rscale>
<asrwt>0</asrwt>
<pdfrwt beam="2">  1        2 0.98994534E+00 0.14950066E+02</pdfrwt>
<pdfrwt beam="1">  1       -2 0.99512897E+00 0.14950066E+02</pdfrwt>
<totfact>-0.17887625E-13</totfact>
</mgrwt>
</event>
<event>
 4    1 -0.5170493E-019  0.1495246E+02  0.7818608E-02  0.1869523E+00
          2   -1    0    0  501    0  0.00000000000E+00  0.00000000000E+00  0.11880717979E+03  0.11880717982E+03  0.25500000000E-02 0. -1.
         -2   -1    0    0    0  501 -0.00000000000E+00 -0.00000000000E+00 -0.47045612261E+00  0.47046303340E+00  0.25500000000E-02 0.  1.
         31    1    1    2    0    0  0.42323445711E+00  0.49340651384E+00  0.60059356580E+02  0.60522787578E+02  0.74470750000E+01 0.  1.
        -31    1    1    2    0    0 -0.42323445711E+00 -0.49340651384E+00  0.58277367092E+02  0.58754855277E+02  0.74470750000E+01 0. -1.
<mgrwt>
<rscale>  0 0.14952455E+02</rscale>
<asrwt>0</asrwt>
<pdfrwt beam="1">  1        2 0.98627101E+00 0.14952455E+02</pdfrwt>
<pdfrwt beam="2">  1       -2 0.99915562E+00 0.14952455E+02</pdfrwt>
<totfact>-0.79051814E-14</totfact>
</mgrwt>
</event>
<event>
 4    1 -0.5170493E-019  0.1493981E+02  0.7818608E-02  0.1869911E+00
          2   -1    0    0  501    0  0.00000000000E+00  0.00000000000E+00  0.11927954838E+03  0.11927954841E+03  0.25500000000E-02 0.  1.
         -2   -1    0    0    0  501 -0.00000000000E+00 -0.00000000000E+00 -0.46780080419E+00  0.46780775421E+00  0.25500000000E-02 0. -1.
         31    1    1    2    0    0 -0.24817394908E+00  0.35735638646E+00  0.62523271130E+02  0.62966718612E+02  0.74470750000E+01 0.  1.
        -31    1    1    2    0    0  0.24817394908E+00 -0.35735638646E+00  0.56288476449E+02  0.56780637553E+02  0.74470750000E+01 0. -1.
<mgrwt>
<rscale>  0 0.14939811E+02</rscale>
<asrwt>0</asrwt>
<pdfrwt beam="1">  1        2 0.99015492E+00 0.14939811E+02</pdfrwt>
<pdfrwt beam="2">  1       -2 0.99355388E+00 0.14939811E+02</pdfrwt>
<totfact>-0.16553361E-13</totfact>
</mgrwt>
</event>
<event>
 4    1  0.5170493E-019  0.1491469E+02  0.7818608E-02  0.1870683E+00
         -2   -1    0    0    0  501 -0.00000000000E+00  0.00000000000E+00  0.11900041986E+03  0.11900041989E+03  0.25500000000E-02 0. -1.
          2   -1    0    0  501    0  0.00000000000E+00 -0.00000000000E+00 -0.46732278150E+00  0.46732973863E+00  0.25500000000E-02 0.  1.
         31    1    1    2    0    0  0.33174746049E+00  0.20746015416E+00  0.59278612134E+02  0.59745844029E+02  0.74470750000E+01 0.  1.
        -31    1    1    2    0    0 -0.33174746049E+00 -0.20746015416E+00  0.59254484944E+02  0.59721905597E+02  0.74470750000E+01 0. -1.
<mgrwt>
<rscale>  0 0.14914694E+02</rscale>
<asrwt>0</asrwt>
<pdfrwt beam="2">  1        2 0.99253351E+00 0.14914694E+02</pdfrwt>
<pdfrwt beam="1">  1       -2 0.98784294E+00 0.14914694E+02</pdfrwt>
<totfact> 0.20154568E-13</totfact>
</mgrwt>
</event>
<event>
 4    1 -0.5170493E-019  0.1492504E+02  0.7818608E-02  0.1870365E+00
          2   -1    0    0  501    0  0.00000000000E+00  0.00000000000E+00  0.11873281116E+03  0.11873281118E+03  0.25500000000E-02 0. -1.
         -2   -1    0    0    0  501 -0.00000000000E+00 -0.00000000000E+00 -0.46902611508E+00  0.46903304694E+00  0.25500000000E-02 0.  1.
         31    1    1    2    0    0 -0.32441089225E+00 -0.28763347903E+00  0.57489223334E+02  0.57971179917E+02  0.74470750000E+01 0. -1.
        -31    1    1    2    0    0  0.32441089225E+00  0.28763347903E+00  0.60774561708E+02  0.61230664314E+02  0.74470750000E+01 0. -1.
<mgrwt>
<rscale>  0 0.14925040E+02</rscale>
<asrwt>0</asrwt>
<pdfrwt beam="1">  1        2 0.98564425E+00 0.14925040E+02</pdfrwt>
<pdfrwt beam="2">  1       -2 0.99612810E+00 0.14925040E+02</pdfrwt>
<totfact>-0.28968976E-13</totfact>
</mgrwt>
</event>
<event>
 4    1  0.5170493E-019  0.1494545E+02  0.7818608E-02  0.1869738E+00
         -2   -1    0    0    0  501 -0.00000000000E+00  0.00000000000E+00  0.11910148555E+03  0.11910148558E+03  0.25500000000E-02 0. -1.
          2   -1    0    0  501    0  0.00000000000E+00 -0.00000000000E+00 -0.46885374443E+00  0.46886067884E+00  0.25500000000E-02 0.  1.
         31    1    1    2    0    0  0.19672542985E+00 -0.44546714008E+00  0.62368315820E+02  0.62813238144E+02  0.74470750000E+01 0. -1.
        -31    1    1    2    0    0 -0.19672542985E+00  0.44546714008E+00  0.56264315990E+02  0.56757108116E+02  0.74470750000E+01 0.  1.
<mgrwt>
<rscale>  0 0.14945447E+02</rscale>
<asrwt>0</asrwt>
<pdfrwt beam="2">  1        2 0.99577559E+00 0.14945447E+02</pdfrwt>
<pdfrwt beam="1">  1       -2 0.98869128E+00 0.14945447E+02</pdfrwt>
<totfact> 0.86906472E-14</totfact>
</mgrwt>
</event>
<event>
 4    1  0.5170493E-019  0.1490966E+02  0.7818608E-02  0.1870838E+00
         -2   -1    0    0    0  501 -0.00000000000E+00  0.00000000000E+00  0.11881083678E+03  0.11881083681E+03  0.25500000000E-02 0.  1.
          2   -1    0    0  501    0  0.00000000000E+00 -0.00000000000E+00 -0.46775226338E+00  0.46775921413E+00  0.25500000000E-02 0. -1.
         31    1    1    2    0    0 -0.31581482819E+00 -0.56187782474E-01  0.60070684862E+02  0.60531388568E+02  0.74470750000E+01 0. -1.
        -31    1    1    2    0    0  0.31581482819E+00  0.56187782474E-01  0.58272399656E+02  0.58747207455E+02  0.74470750000E+01 0. -1.
<mgrwt>
<rscale>  0 0.14909655E+02</rscale>
<asrwt>0</asrwt>
<pdfrwt beam="2">  1        2 0.99343588E+00 0.14909655E+02</pdfrwt>
<pdfrwt beam="1">  1       -2 0.98627889E+00 0.14909655E+02</pdfrwt>
<totfact> 0.37060056E-13</totfact>
</mgrwt>
</event>
<event>
 4    1 -0.5170493E-019  0.1490679E+02  0.7818608E-02  0.1870926E+00
         -2   -1    0    0    0  501 -0.00000000000E+00  0.00000000000E+00  0.12011179725E+03  0.12011179728E+03  0.25500000000E-02 0.  1.
          2   -1    0    0  501    0  0.00000000000E+00 -0.00000000000E+00 -0.46250774142E+00  0.46251477098E+00  0.25500000000E-02 0. -1.
         31    1    1    2    0    0 -0.94758885307E-01 -0.28833401831E+00  0.59461138272E+02  0.59926438292E+02  0.74470750000E+01 0.  1.
        -31    1    1    2    0    0  0.94758885307E-01  0.28833401831E+00  0.60188151239E+02  0.60647873758E+02  0.74470750000E+01 0.  1.
<mgrwt>
<rscale>  0 0.14906785E+02</rscale>
<asrwt>0</asrwt>
<pdfrwt beam="2">  1        2 0.98238192E+00 0.14906785E+02</pdfrwt>
<pdfrwt beam="1">  1       -2 0.99699277E+00 0.14906785E+02</pdfrwt>
<totfact>-0.43125208E-13</totfact>
</mgrwt>
</event>
<event>
 4    1  0.5170493E-019  0.1493689E+02  0.7818608E-02  0.1870000E+00
          2   -1    0    0  501    0  0.00000000000E+00  0.00000000000E+00  0.11971278038E+03  0.11971278041E+03  0.25500000000E-02 0.  1.
         -2   -1    0    0    0  501 -0.00000000000E+00 -0.00000000000E+00 -0.46592578376E+00  0.46593276175E+00  0.25500000000E-02 0. -1.
         31    1    1    2    0    0  0.45809847768E+00  0.32374211009E+00  0.60138779415E+02  0.60600712691E+02  0.74470750000E+01 0.  1.
        -31    1    1    2    0    0 -0.45809847768E+00 -0.32374211009E+00  0.59108075184E+02  0.59578000480E+02  0.74470750000E+01 0.  1.
<mgrwt>
<rscale>  0 0.14936893E+02</rscale>
<asrwt>0</asrwt>
<pdfrwt beam="1">  1        2 0.99372169E+00 0.14936893E+02</pdfrwt>
<pdfrwt beam="2">  1       -2 0.98960105E+00 0.14936893E+02</pdfrwt>
<totfact> 0.36055108E-14</totfact>
</mgrwt>
</event>
<event>
 4    1 -0.5170493E-019  0.1496913E+02  0.7818608E-02  0.1869012E+00
         -2   -1    0    0    0  501 -0.00000000000E+00  0.00000000000E+00  0.11976477176E+03  0.11976477179E+03  0.25500000000E-02 0. -1.
          2   -1    0    0  501    0  0.00000000000E+00 -0.00000000000E+00 -0.46773602632E+00  0.46774297730E+00  0.25500000000E-02 0.  1.
         31    1    1    2    0    0 -0.55968377804E+00  0.21666084095E+00  0.63236993518E+02  0.63676812602E+02  0.74470750000E+01 0. -1.
        -31    1    1    2    0    0  0.55968377804E+00 -0.21666084095E+00  0.56060042217E+02  0.56555702164E+02  0.74470750000E+01 0.  1.
<mgrwt>
<rscale>  0 0.14969131E+02</rscale>
<asrwt>0</asrwt>
<pdfrwt beam="2">  1        2 0.99343256E+00 0.14969131E+02</pdfrwt>
<pdfrwt beam="1">  1       -2 0.99416655E+00 0.14969131E+02</pdfrwt>
<totfact>-0.13484335E-13</totfact>
</mgrwt>
</event>
<event>
 4    1 -0.5170493E-019  0.1501289E+02  0.7818608E-02  0.1867675E+00
          2   -1    0    0  501    0  0.00000000000E+00  0.00000000000E+00  0.11974269716E+03  0.11974269719E+03  0.25500000000E-02 0.  1.
         -2   -1    0    0    0  501 -0.00000000000E+00 -0.00000000000E+00 -0.47056128126E+00  0.47056819051E+00  0.25500000000E-02 0. -1.
         31    1    1    2    0    0 -0.63272365460E+00 -0.36697886206E+00  0.54880253891E+02  0.55388051111E+02  0.74470750000E+01 0. -1.
        -31    1    1    2    0    0  0.63272365460E+00  0.36697886206E+00  0.64391881992E+02  0.64825214270E+02  0.74470750000E+01 0. -1.
<mgrwt>
<rscale>  0 0.15012887E+02</rscale>
<asrwt>0</asrwt>
<pdfrwt beam="1">  1        2 0.99400739E+00 0.15012887E+02</pdfrwt>
<pdfrwt beam="2">  1       -2 0.99940888E+00 0.15012887E+02</pdfrwt>
<totfact>-0.25934711E-14</totfact>
</mgrwt>
</event>
<event>
 4    1  0.5170493E-019  0.1491009E+02  0.7818608E-02  0.1870825E+00
         -2   -1    0    0    0  501 -0.00000000000E+00  0.00000000000E+00  0.11852875524E+03  0.11852875527E+03  0.25500000000E-02 0. -1.
          2   -1    0    0  501    0  0.00000000000E+00 -0.00000000000E+00 -0.46889299609E+00  0.46889992993E+00  0.25500000000E-02 0.  1.
         31    1    1    2    0    0  0.24447501632E+00 -0.22522358662E+00  0.58302931178E+02  0.58777556973E+02  0.74470750000E+01 0.  1.
        -31    1    1    2    0    0 -0.24447501632E+00  0.22522358662E+00  0.59756931069E+02  0.60220098227E+02  0.74470750000E+01 0. -1.
<mgrwt>
<rscale>  0 0.14910093E+02</rscale>
<asrwt>0</asrwt>
<pdfrwt beam="2">  1        2 0.99583975E+00 0.14910093E+02</pdfrwt>
<pdfrwt beam="1">  1       -2 0.98395587E+00 0.14910093E+02</pdfrwt>
<totfact> 0.57742527E-13</totfact>
</mgrwt>
</event>
<event>
 4    1  0.5170493E-019  0.1492308E+02  0.7818608E-02  0.1870425E+00
         -2   -1    0    0    0  501 -0.00000000000E+00  0.00000000000E+00  0.11912091685E+03  0.11912091687E+03  0.25500000000E-02 0. -1.
          2   -1    0    0  501    0  0.00000000000E+00 -0.00000000000E+00 -0.46737502489E+00  0.46738198124E+00  0.25500000000E-02 0.  1.
         31    1    1    2    0    0 -0.17464912412E+00 -0.39427930593E-01  0.62760281533E+02  0.63200822155E+02  0.74470750000E+01 0. -1.
        -31    1    1    2    0    0  0.17464912412E+00  0.39427930593E-01  0.55893260287E+02  0.56387476699E+02  0.74470750000E+01 0.  1.
<mgrwt>
<rscale>  0 0.14923077E+02</rscale>
<asrwt>0</asrwt>
<pdfrwt beam="2">  1        2 0.99264796E+00 0.14923077E+02</pdfrwt>
<pdfrwt beam="1">  1       -2 0.98883973E+00 0.14923077E+02</pdfrwt>
<totfact> 0.10179692E-13</totfact>
</mgrwt>
</event>
<event>
 4    1 -0.5170493E-019  0.1497544E+02  0.7818608E-02  0.1868819E+00
          2   -1    0    0  501    0  0.00000000000E+00  0.00000000000E+00  0.11940870868E+03  0.11940870870E+03  0.25500000000E-02 0.  1.
         -2   -1    0    0    0  501 -0.00000000000E+00 -0.00000000000E+00 -0.46952622179E+00  0.46953314627E+00  0.25500000000E-02 0. -1.
         31    1    1    2    0    0  0.24574281594E+00  0.71010924197E+00  0.61117254599E+02  0.61573877420E+02  0.74470750000E+01 0.  1.
        -31    1    1    2    0    0 -0.24574281594E+00 -0.71010924197E+00  0.57821927856E+02  0.58304364431E+02  0.74470750000E+01 0. -1.
<mgrwt>
<rscale>  0 0.14975438E+02</rscale>
<asrwt>0</asrwt>
<pdfrwt beam="1">  1        2 0.99123718E+00 0.14975438E+02</pdfrwt>
<pdfrwt beam="2">  1       -2 0.99720827E+00 0.14975438E+02</pdfrwt>
<totfact>-0.12246479E-13</totfact>
</mgrwt>
</event>
<event>
 4    1  0.5170493E-019  0.1489734E+02  0.7818608E-02  0.1871217E+00
         -2   -1    0    0    0  501 -0.00000000000E+00  0.00000000000E+00  0.11814330959E+03  0.11814330961E+03  0.25500000000E-02 0.  1.
          2   -1    0    0  501    0  0.00000000000E+00 -0.00000000000E+00 -0.46961853072E+00  0.46962545385E+00  0.25500000000E-02 0. -1.
         31    1    1    2    0    0 -0.64959899461E-01 -0.13866377719E+00  0.58693044972E+02  0.59163805672E+02  0.74470750000E+01 0.  1.
        -31    1    1    2    0    0  0.64959899461E-01  0.13866377719E+00  0.58980646082E+02  0.59449129395E+02  0.74470750000E+01 0. -1.
<mgrwt>
<rscale>  0 0.14897342E+02</rscale>
<asrwt>0</asrwt>
<pdfrwt beam="2">  1        2 0.99736171E+00 0.14897342E+02</pdfrwt>
<pdfrwt beam="1">  1       -2 0.98077474E+00 0.14897342E+02</pdfrwt>
<totfact> 0.83505548E-13</totfact>
</mgrwt>
</event>
<event>
 4    1 -0.5170493E-019  0.1493006E+02  0.7818608E-02  0.1870210E+00
         -2   -1    0    0    0  501 -0.00000000000E+00  0.00000000000E+00  0.11966519667E+03  0.11966519670E+03  0.25500000000E-02 0. -1.
          2   -1    0    0  501    0  0.00000000000E+00 -0.00000000000E+00 -0.46568451866E+00  0.46569150027E+00  0.25500000000E-02 0.  1.
         31    1    1    2    0    0  0.28214204475E+00  0.22939147384E+00  0.56637908900E+02  0.57126560155E+02  0.74470750000E+01 0.  1.
        -31    1    1    2    0    0 -0.28214204475E+00 -0.22939147384E+00  0.62561603254E+02  0.63004328044E+02  0.74470750000E+01 0. -1.
<mgrwt>
<rscale>  0 0.14930057E+02</rscale>
<asrwt>0</asrwt>
<pdfrwt beam="2">  1        2 0.98908909E+00 0.14930057E+02</pdfrwt>
<pdfrwt beam="1">  1       -2 0.99332623E+00 0.14930057E+02</pdfrwt>
<totfact>-0.17926460E-13</totfact>
</mgrwt>
</event>
<event>
 4    1  0.5170493E-019  0.1492373E+02  0.7818608E-02  0.1870405E+00
          2   -1    0    0  501    0  0.00000000000E+00  0.00000000000E+00  0.12006334246E+03  0.12006334249E+03  0.25500000000E-02 0.  1.
         -2   -1    0    0    0  501 -0.00000000000E+00 -0.00000000000E+00 -0.46374683573E+00  0.46375384650E+00  0.25500000000E-02 0. -1.
         31    1    1    2    0    0  0.37365243644E+00  0.23700178780E+00  0.58530336655E+02  0.59003855984E+02  0.74470750000E+01 0.  1.
        -31    1    1    2    0    0 -0.37365243644E+00 -0.23700178780E+00  0.61069258974E+02  0.61523240354E+02  0.74470750000E+01 0.  1.
<mgrwt>
<rscale>  0 0.14923729E+02</rscale>
<asrwt>0</asrwt>
<pdfrwt beam="1">  1        2 0.99660236E+00 0.14923729E+02</pdfrwt>
<pdfrwt beam="2">  1       -2 0.98500211E+00 0.14923729E+02</pdfrwt>
<totfact> 0.38809778E-13</totfact>
</mgrwt>
</event>
<event>
 4    1 -0.5170493E-019  0.1498710E+02  0.7818608E-02  0.1868462E+00
         -2   -1    0    0    0  501 -0.00000000000E+00  0.00000000000E+00  0.11994665280E+03  0.11994665283E+03  0.25500000000E-02 0.  1.
          2   -1    0    0  501    0  0.00000000000E+00 -0.00000000000E+00 -0.46814859299E+00  0.46815553785E+00  0.25500000000E-02 0. -1.
         31    1    1    2    0    0  0.33482119855E+00 -0.75306316347E+00  0.60727898294E+02  0.61188363000E+02  0.74470750000E+01 0.  1.
        -31    1    1    2    0    0 -0.33482119855E+00  0.75306316347E+00  0.58750605915E+02  0.59226445367E+02  0.74470750000E+01 0.  1.
<mgrwt>
<rscale>  0 0.14987098E+02</rscale>
<asrwt>0</asrwt>
<pdfrwt beam="2">  1        2 0.99431127E+00 0.14987098E+02</pdfrwt>
<pdfrwt beam="1">  1       -2 0.99567389E+00 0.14987098E+02</pdfrwt>
<totfact>-0.12309326E-13</totfact>
</mgrwt>
</event>
<event>
 4    1 -0.5170493E-019  0.1500001E+02  0.7818608E-02  0.1868068E+00
          2   -1    0    0  501    0  0.00000000000E+00  0.00000000000E+00  0.11967815076E+03  0.11967815078E+03  0.25500000000E-02 0.  1.
         -2   -1    0    0    0  501 -0.00000000000E+00 -0.00000000000E+00 -0.47000772069E+00  0.47001463808E+00  0.25500000000E-02 0. -1.
         31    1    1    2    0    0 -0.36225421777E+00  0.27872733006E+00  0.53492224120E+02  0.54010053549E+02  0.74470750000E+01 0. -1.
        -31    1    1    2    0    0  0.36225421777E+00 -0.27872733006E+00  0.65715918916E+02  0.66138111872E+02  0.74470750000E+01 0.  1.
<mgrwt>
<rscale>  0 0.15000010E+02</rscale>
<asrwt>0</asrwt>
<pdfrwt beam="1">  1        2 0.99346910E+00 0.15000010E+02</pdfrwt>
<pdfrwt beam="2">  1       -2 0.99823570E+00 0.15000010E+02</pdfrwt>
<totfact>-0.73015475E-14</totfact>
</mgrwt>
</event>
<event>
 4    1 -0.5170493E-019  0.1500235E+02  0.7818608E-02  0.1867997E+00
          2   -1    0    0  501    0  0.00000000000E+00  0.00000000000E+00  0.12012406768E+03  0.12012406771E+03  0.25500000000E-02 0.  1.
         -2   -1    0    0    0  501 -0.00000000000E+00 -0.00000000000E+00 -0.46840880740E+00  0.46841574840E+00  0.25500000000E-02 0. -1.
         31    1    1    2    0    0 -0.58794150771E-01 -0.44083125895E+00  0.66110405606E+02  0.66530011607E+02  0.74470750000E+01 0.  1.
        -31    1    1    2    0    0  0.58794150771E-01  0.44083125895E+00  0.53545253266E+02  0.54062471849E+02  0.74470750000E+01 0. -1.
<mgrwt>
<rscale>  0 0.15002345E+02</rscale>
<asrwt>0</asrwt>
<pdfrwt beam="1">  1        2 0.99714303E+00 0.15002345E+02</pdfrwt>
<pdfrwt beam="2">  1       -2 0.99486750E+00 0.15002345E+02</pdfrwt>
<totfact>-0.85332066E-14</totfact>
</mgrwt>
</event>
<event>
 4    1  0.5170493E-019  0.1490982E+02  0.7818608E-02  0.1870833E+00
         -2   -1    0    0    0  501 -0.00000000000E+00  0.00000000000E+00  0.11847906323E+03  0.11847906325E+03  0.25500000000E-02 0.  1.
          2   -1    0    0  501    0  0.00000000000E+00 -0.00000000000E+00 -0.46907265752E+00  0.46907958870E+00  0.25500000000E-02 0. -1.
         31    1    1    2    0    0  0.17000644442E+00 -0.64642504572E-02  0.56640634596E+02  0.57128358610E+02  0.74470750000E+01 0. -1.
        -31    1    1    2    0    0 -0.17000644442E+00  0.64642504572E-02  0.61369355972E+02  0.61819784232E+02  0.74470750000E+01 0.  1.
<mgrwt>
<rscale>  0 0.14909823E+02</rscale>
<asrwt>0</asrwt>
<pdfrwt beam="2">  1        2 0.99621816E+00 0.14909823E+02</pdfrwt>
<pdfrwt beam="1">  1       -2 0.98354647E+00 0.14909823E+02</pdfrwt>
<totfact> 0.60223758E-13</totfact>
</mgrwt>
</event>
<event>
 4    1 -0.5170493E-019  0.1497721E+02  0.7818608E-02  0.1868765E+00
          2   -1    0    0  501    0  0.00000000000E+00  0.00000000000E+00  0.11957592692E+03  0.11957592695E+03  0.25500000000E-02 0.  1.
         -2   -1    0    0    0  501 -0.00000000000E+00 -0.00000000000E+00 -0.46898040714E+00  0.46898733968E+00  0.25500000000E-02 0. -1.
         31    1    1    2    0    0  0.43618312928E+00 -0.27605128877E+00  0.64320975894E+02  0.64752709025E+02  0.74470750000E+01 0.  1.
        -31    1    1    2    0    0 -0.43618312928E+00  0.27605128877E+00  0.54785970617E+02  0.55292205261E+02  0.74470750000E+01 0. -1.
<mgrwt>
<rscale>  0 0.14977207E+02</rscale>
<asrwt>0</asrwt>
<pdfrwt beam="1">  1        2 0.99261534E+00 0.14977207E+02</pdfrwt>
<pdfrwt beam="2">  1       -2 0.99605904E+00 0.14977207E+02</pdfrwt>
<totfact>-0.13500960E-13</totfact>
</mgrwt>
</event>
<event>
 4    1 -0.5170493E-019  0.1496579E+02  0.7818608E-02  0.1869114E+00
         -2   -1    0    0    0  501 -0.00000000000E+00  0.00000000000E+00  0.12030901527E+03  0.12030901530E+03  0.25500000000E-02 0.  1.
          2   -1    0    0  501    0  0.00000000000E+00 -0.00000000000E+00 -0.46541212723E+00  0.46541911293E+00  0.25500000000E-02 0. -1.
         31    1    1    2    0    0 -0.43409245148E+00 -0.43485481545E+00  0.63121824301E+02  0.63562576758E+02  0.74470750000E+01 0.  1.
        -31    1    1    2    0    0  0.43409245148E+00  0.43485481545E+00  0.56721778845E+02  0.57211857655E+02  0.74470750000E+01 0. -1.
<mgrwt>
<rscale>  0 0.14965787E+02</rscale>
<asrwt>0</asrwt>
<pdfrwt beam="2">  1        2 0.98853329E+00 0.14965787E+02</pdfrwt>
<pdfrwt beam="1">  1       -2 0.99864753E+00 0.14965787E+02</pdfrwt>
<totfact>-0.89181540E-14</totfact>
</mgrwt>
</event>
<event>
 4    1  0.5170493E-019  0.1493407E+02  0.7818608E-02  0.1870087E+00
         -2   -1    0    0    0  501 -0.00000000000E+00  0.00000000000E+00  0.11868335751E+03  0.11868335753E+03  0.25500000000E-02 0.  1.
          2   -1    0    0  501    0  0.00000000000E+00 -0.00000000000E+00 -0.46978943629E+00  0.46979635689E+00  0.25500000000E-02 0. -1.
         31    1    1    2    0    0  0.50802445773E+00  0.19801767532E+00  0.58952144414E+02  0.59423156740E+02  0.74470750000E+01 0. -1.
        -31    1    1    2    0    0 -0.50802445773E+00 -0.19801767532E+00  0.59261423657E+02  0.59729997152E+02  0.74470750000E+01 0. -1.
<mgrwt>
<rscale>  0 0.14934069E+02</rscale>
<asrwt>0</asrwt>
<pdfrwt beam="2">  1        2 0.99774121E+00 0.14934069E+02</pdfrwt>
<pdfrwt beam="1">  1       -2 0.98524164E+00 0.14934069E+02</pdfrwt>
<totfact> 0.27261394E-13</totfact>
</mgrwt>
</event>
<event>
 4    1 -0.5170493E-019  0.1497830E+02  0.7818608E-02  0.1868731E+00
         -2   -1    0    0    0  501 -0.00000000000E+00  0.00000000000E+00  0.11962691766E+03  0.11962691768E+03  0.25500000000E-02 0. -1.
          2   -1    0    0  501    0  0.00000000000E+00 -0.00000000000E+00 -0.46884882926E+00  0.46885576375E+00  0.25500000000E-02 0.  1.
         31    1    1    2    0    0  0.43951035026E+00  0.48482284871E+00  0.55991402975E+02  0.56488267416E+02  0.74470750000E+01 0.  1.
        -31    1    1    2    0    0 -0.43951035026E+00 -0.48482284871E+00  0.63166665852E+02  0.63607506030E+02  0.74470750000E+01 0. -1.
<mgrwt>
<rscale>  0 0.14978299E+02</rscale>
<asrwt>0</asrwt>
<pdfrwt beam="2">  1        2 0.99578234E+00 0.14978299E+02</pdfrwt>
<pdfrwt beam="1">  1       -2 0.99303588E+00 0.14978299E+02</pdfrwt>
<totfact>-0.95004726E-14</totfact>
</mgrwt>
</event>
<event>
 4    1  0.5170493E-019  0.1490290E+02  0.7818608E-02  0.1871046E+00
         -2   -1    0    0    0  501 -0.00000000000E+00  0.00000000000E+00  0.11813850766E+03  0.11813850768E+03  0.25500000000E-02 0.  1.
          2   -1    0    0  501    0  0.00000000000E+00 -0.00000000000E+00 -0.46998831093E+00  0.46999522860E+00  0.25500000000E-02 0. -1.
         31    1    1    2    0    0  0.16789075103E+00 -0.78469615569E-01  0.57436173892E+02  0.57917245637E+02  0.74470750000E+01 0. -1.
        -31    1    1    2    0    0 -0.16789075103E+00  0.78469615569E-01  0.60232345453E+02  0.60691257275E+02  0.74470750000E+01 0.  1.
<mgrwt>
<rscale>  0 0.14902903E+02</rscale>
<asrwt>0</asrwt>
<pdfrwt beam="2">  1        2 0.99814375E+00 0.14902903E+02</pdfrwt>
<pdfrwt beam="1">  1       -2 0.98073809E+00 0.14902903E+02</pdfrwt>
<totfact> 0.64462571E-13</totfact>
</mgrwt>
</event>
<event>
 4    1  0.5170493E-019  0.1490286E+02  0.7818608E-02  0.1871047E+00
          2   -1    0    0  501    0  0.00000000000E+00  0.00000000000E+00  0.12017071362E+03  0.12017071365E+03  0.25500000000E-02 0.  1.
         -2   -1    0    0    0  501 -0.00000000000E+00 -0.00000000000E+00 -0.46203728046E+00  0.46204431718E+00  0.25500000000E-02 0. -1.
         31    1    1    2    0    0 -0.20544109751E+00  0.14920165857E+00  0.59696018824E+02  0.60159272408E+02  0.74470750000E+01 0. -1.
        -31    1    1    2    0    0  0.20544109751E+00 -0.14920165857E+00  0.60012657519E+02  0.60473485560E+02  0.74470750000E+01 0. -1.
<mgrwt>
<rscale>  0 0.14902856E+02</rscale>
<asrwt>0</asrwt>
<pdfrwt beam="1">  1        2 0.99747605E+00 0.14902856E+02</pdfrwt>
<pdfrwt beam="2">  1       -2 0.98138834E+00 0.14902856E+02</pdfrwt>
<totfact> 0.72278050E-13</totfact>
</mgrwt>
</event>
<event>
 4    1  0.5170493E-019  0.1489923E+02  0.7818608E-02  0.1871159E+00
         -2   -1    0    0    0  501 -0.00000000000E+00  0.00000000000E+00  0.11822299554E+03  0.11822299556E+03  0.25500000000E-02 0.  1.
          2   -1    0    0  501    0  0.00000000000E+00 -0.00000000000E+00 -0.46942085176E+00  0.46942777780E+00  0.25500000000E-02 0. -1.
         31    1    1    2    0    0 -0.44989904246E-01 -0.23352248860E-01  0.60372604570E+02  0.60830197090E+02  0.74470750000E+01 0.  1.
        -31    1    1    2    0    0  0.44989904246E-01  0.23352248860E-01  0.57380970115E+02  0.57862226251E+02  0.74470750000E+01 0. -1.
<mgrwt>
<rscale>  0 0.14899228E+02</rscale>
<asrwt>0</asrwt>
<pdfrwt beam="2">  1        2 0.99694621E+00 0.14899228E+02</pdfrwt>
<pdfrwt beam="1">  1       -2 0.98143200E+00 0.14899228E+02</pdfrwt>
<totfact> 0.81860201E-13</totfact>
</mgrwt>
</event>
<event>
 4    1 -0.5170493E-019  0.1491635E+02  0.7818608E-02  0.1870632E+00
          2   -1    0    0  501    0  0.00000000000E+00  0.00000000000E+00  0.11866422673E+03  0.11866422675E+03  0.25500000000E-02 0. -1.
         -2   -1    0    0    0  501 -0.00000000000E+00 -0.00000000000E+00 -0.46875108264E+00  0.46875801857E+00  0.25500000000E-02 0.  1.
         31    1    1    2    0    0 -0.22811418661E+00 -0.30466439116E+00  0.60244523070E+02  0.60704253084E+02  0.74470750000E+01 0. -1.
        -31    1    1    2    0    0  0.22811418661E+00  0.30466439116E+00  0.57950952573E+02  0.58428731687E+02  0.74470750000E+01 0.  1.
<mgrwt>
<rscale>  0 0.14916353E+02</rscale>
<asrwt>0</asrwt>
<pdfrwt beam="1">  1        2 0.98507487E+00 0.14916353E+02</pdfrwt>
<pdfrwt beam="2">  1       -2 0.99554403E+00 0.14916353E+02</pdfrwt>
<totfact>-0.33483681E-13</totfact>
</mgrwt>
</event>
<event>
 4    1  0.5170493E-019  0.1493314E+02  0.7818608E-02  0.1870116E+00
         -2   -1    0    0    0  501 -0.00000000000E+00  0.00000000000E+00  0.11909242896E+03  0.11909242899E+03  0.25500000000E-02 0.  1.
          2   -1    0    0  501    0  0.00000000000E+00 -0.00000000000E+00 -0.46811743841E+00  0.46812438373E+00  0.25500000000E-02 0. -1.
         31    1    1    2    0    0  0.34634618439E+00 -0.27355587770E+00  0.56832176191E+02  0.57319717071E+02  0.74470750000E+01 0.  1.
        -31    1    1    2    0    0 -0.34634618439E+00  0.27355587770E+00  0.61792135335E+02  0.62240836304E+02  0.74470750000E+01 0.  1.
<mgrwt>
<rscale>  0 0.14933139E+02</rscale>
<asrwt>0</asrwt>
<pdfrwt beam="2">  1        2 0.99421763E+00 0.14933139E+02</pdfrwt>
<pdfrwt beam="1">  1       -2 0.98861031E+00 0.14933139E+02</pdfrwt>
<totfact> 0.10902054E-13</totfact>
</mgrwt>
</event>
<event>
 4    1  0.5170493E-019  0.1492163E+02  0.7818608E-02  0.1870469E+00
          2   -1    0    0  501    0  0.00000000000E+00  0.00000000000E+00  0.12003668746E+03  0.12003668748E+03  0.25500000000E-02 0.  1.
         -2   -1    0    0    0  501 -0.00000000000E+00 -0.00000000000E+00 -0.46371940233E+00  0.46372641353E+00  0.25500000000E-02 0. -1.
         31    1    1    2    0    0  0.35847771756E+00 -0.27628250111E+00  0.59779860279E+02  0.60243634181E+02  0.74470750000E+01 0.  1.
        -31    1    1    2    0    0 -0.35847771756E+00  0.27628250111E+00  0.59793107774E+02  0.60256779715E+02  0.74470750000E+01 0. -1.
<mgrwt>
<rscale>  0 0.14921631E+02</rscale>
<asrwt>0</asrwt>
<pdfrwt beam="1">  1        2 0.99638173E+00 0.14921631E+02</pdfrwt>
<pdfrwt beam="2">  1       -2 0.98494322E+00 0.14921631E+02</pdfrwt>
<totfact> 0.41043593E-13</totfact>
</mgrwt>
</event>
<event>
 4    1 -0.5170493E-019  0.1489861E+02  0.7818608E-02  0.1871178E+00
         -2   -1    0    0    0  501 -0.00000000000E+00  0.00000000000E+00  0.12017131401E+03  0.12017131404E+03  0.25500000000E-02 0. -1.
          2   -1    0    0  501    0  0.00000000000E+00 -0.00000000000E+00 -0.46177182404E+00  0.46177886480E+00  0.25500000000E-02 0.  1.
         31    1    1    2    0    0  0.17499933298E+00  0.50082667044E-01  0.59776234652E+02  0.60238611275E+02  0.74470750000E+01 0.  1.
        -31    1    1    2    0    0 -0.17499933298E+00 -0.50082667044E-01  0.59933307539E+02  0.60394481632E+02  0.74470750000E+01 0. -1.
<mgrwt>
<rscale>  0 0.14898611E+02</rscale>
<asrwt>0</asrwt>
<pdfrwt beam="2">  1        2 0.98082668E+00 0.14898611E+02</pdfrwt>
<pdfrwt beam="1">  1       -2 0.99747881E+00 0.14898611E+02</pdfrwt>
<totfact>-0.49586717E-13</totfact>
</mgrwt>
</event>
<event>
 4    1  0.5170493E-019  0.1490575E+02  0.7818608E-02  0.1870958E+00
         -2   -1    0    0    0  501 -0.00000000000E+00  0.00000000000E+00  0.11824385477E+03  0.11824385480E+03  0.25500000000E-02 0. -1.
          2   -1    0    0  501    0  0.00000000000E+00 -0.00000000000E+00 -0.46974923061E+00  0.46975615180E+00  0.25500000000E-02 0.  1.
         31    1    1    2    0    0  0.24994596815E+00  0.13993441007E+00  0.59414837268E+02  0.59880413060E+02  0.74470750000E+01 0.  1.
        -31    1    1    2    0    0 -0.24994596815E+00 -0.13993441007E+00  0.58359268272E+02  0.58833197889E+02  0.74470750000E+01 0.  1.
<mgrwt>
<rscale>  0 0.14905754E+02</rscale>
<asrwt>0</asrwt>
<pdfrwt beam="2">  1        2 0.99764154E+00 0.14905754E+02</pdfrwt>
<pdfrwt beam="1">  1       -2 0.98160720E+00 0.14905754E+02</pdfrwt>
<totfact> 0.65975248E-13</totfact>
</mgrwt>
</event>
<event>
 4    1  0.5170493E-019  0.1493493E+02  0.7818608E-02  0.1870061E+00
          2   -1    0    0  501    0  0.00000000000E+00  0.00000000000E+00  0.12019214356E+03  0.12019214359E+03  0.25500000000E-02 0.  1.
         -2   -1    0    0    0  501 -0.00000000000E+00 -0.00000000000E+00 -0.46394539177E+00  0.46395239955E+00  0.25500000000E-02 0. -1.
         31    1    1    2    0    0 -0.52325251946E+00  0.52587806630E-01  0.58523633915E+02  0.58997891584E+02  0.74470750000E+01 0. -1.
        -31    1    1    2    0    0  0.52325251946E+00 -0.52587806630E-01  0.61204564251E+02  0.61658204401E+02  0.74470750000E+01 0. -1.
<mgrwt>
<rscale>  0 0.14934928E+02</rscale>
<asrwt>0</asrwt>
<pdfrwt beam="1">  1        2 0.99766902E+00 0.14934928E+02</pdfrwt>
<pdfrwt beam="2">  1       -2 0.98542628E+00 0.14934928E+02</pdfrwt>
<totfact> 0.26416090E-13</totfact>
</mgrwt>
</event>
<event>
 4    1 -0.5170493E-019  0.1492675E+02  0.7818608E-02  0.1870312E+00
          2   -1    0    0  501    0  0.00000000000E+00  0.00000000000E+00  0.11897009964E+03  0.11897009967E+03  0.25500000000E-02 0. -1.
         -2   -1    0    0    0  501 -0.00000000000E+00 -0.00000000000E+00 -0.46819761575E+00  0.46820455988E+00  0.25500000000E-02 0.  1.
         31    1    1    2    0    0  0.47589926414E-02  0.35534583666E+00  0.61984582082E+02  0.62431351381E+02  0.74470750000E+01 0. -1.
        -31    1    1    2    0    0 -0.47589926414E-02 -0.35534583666E+00  0.56517319945E+02  0.57006952849E+02  0.74470750000E+01 0. -1.
<mgrwt>
<rscale>  0 0.14926746E+02</rscale>
<asrwt>0</asrwt>
<pdfrwt beam="1">  1        2 0.98759947E+00 0.14926746E+02</pdfrwt>
<pdfrwt beam="2">  1       -2 0.99438324E+00 0.14926746E+02</pdfrwt>
<totfact>-0.23451604E-13</totfact>
</mgrwt>
</event>
<event>
 4    1  0.5170493E-019  0.1490131E+02  0.7818608E-02  0.1871095E+00
         -2   -1    0    0    0  501 -0.00000000000E+00  0.00000000000E+00  0.11828597033E+03  0.11828597035E+03  0.25500000000E-02 0. -1.
          2   -1    0    0  501    0  0.00000000000E+00 -0.00000000000E+00 -0.46930207352E+00  0.46930900131E+00  0.25500000000E-02 0.  1.
         31    1    1    2    0    0  0.19076585086E+00  0.68246252971E-01  0.59791790704E+02  0.60254113642E+02  0.74470750000E+01 0.  1.
        -31    1    1    2    0    0 -0.19076585086E+00 -0.68246252971E-01  0.58024877548E+02  0.58501165712E+02  0.74470750000E+01 0.  1.
<mgrwt>
<rscale>  0 0.14901311E+02</rscale>
<asrwt>0</asrwt>
<pdfrwt beam="2">  1        2 0.99669705E+00 0.14901311E+02</pdfrwt>
<pdfrwt beam="1">  1       -2 0.98195174E+00 0.14901311E+02</pdfrwt>
<totfact> 0.77943444E-13</totfact>
</mgrwt>
</event>
<event>
 4    1  0.5170493E-019  0.1491644E+02  0.7818608E-02  0.1870629E+00
         -2   -1    0    0    0  501 -0.00000000000E+00  0.00000000000E+00  0.11850370968E+03  0.11850370970E+03  0.25500000000E-02 0. -1.
          2   -1    0    0  501    0  0.00000000000E+00 -0.00000000000E+00 -0.46939130274E+00  0.46939822921E+00  0.25500000000E-02 0.  1.
         31    1    1    2    0    0 -0.17441579262E+00 -0.17984688945E+00  0.56453252752E+02  0.56942878730E+02  0.74470750000E+01 0.  1.
        -31    1    1    2    0    0  0.17441579262E+00  0.17984688945E+00  0.61581065621E+02  0.62030229202E+02  0.74470750000E+01 0. -1.
<mgrwt>
<rscale>  0 0.14916437E+02</rscale>
<asrwt>0</asrwt>
<pdfrwt beam="2">  1        2 0.99689304E+00 0.14916437E+02</pdfrwt>
<pdfrwt beam="1">  1       -2 0.98375290E+00 0.14916437E+02</pdfrwt>
<totfact> 0.50645401E-13</totfact>
</mgrwt>
</event>
<event>
 4    1 -0.5170493E-019  0.1490375E+02  0.7818608E-02  0.1871020E+00
          2   -1    0    0  501    0  0.00000000000E+00  0.00000000000E+00  0.11804665138E+03  0.11804665141E+03  0.25500000000E-02 0.  1.
         -2   -1    0    0    0  501 -0.00000000000E+00 -0.00000000000E+00 -0.47040770115E+00  0.47041461265E+00  0.25500000000E-02 0. -1.
         31    1    1    2    0    0 -0.16296656063E+00  0.19072170215E+00  0.59525839877E+02  0.59990394831E+02  0.74470750000E+01 0. -1.
        -31    1    1    2    0    0  0.16296656063E+00 -0.19072170215E+00  0.58050403801E+02  0.58526671188E+02  0.74470750000E+01 0. -1.
<mgrwt>
<rscale>  0 0.14903753E+02</rscale>
<asrwt>0</asrwt>
<pdfrwt beam="1">  1        2 0.97998202E+00 0.14903753E+02</pdfrwt>
<pdfrwt beam="2">  1       -2 0.99902781E+00 0.14903753E+02</pdfrwt>
<totfact>-0.25426609E-13</totfact>
</mgrwt>
</event>
<event>
 4    1 -0.5170493E-019  0.1490175E+02  0.7818608E-02  0.1871081E+00
         -2   -1    0    0    0  501 -0.00000000000E+00  0.00000000000E+00  0.12021058438E+03  0.12021058441E+03  0.25500000000E-02 0.  1.
          2   -1    0    0  501    0  0.00000000000E+00 -0.00000000000E+00 -0.46181556313E+00  0.46182260323E+00  0.25500000000E-02 0. -1.
         31    1    1    2    0    0  0.14240311221E-01  0.23390980997E+00  0.60208511910E+02  0.60667773563E+02  0.74470750000E+01 0. -1.
        -31    1    1    2    0    0 -0.14240311221E-01 -0.23390980997E+00  0.59540256910E+02  0.60004633450E+02  0.74470750000E+01 0. -1.
<mgrwt>
<rscale>  0 0.14901751E+02</rscale>
<asrwt>0</asrwt>
<pdfrwt beam="2">  1        2 0.98092045E+00 0.14901751E+02</pdfrwt>
<pdfrwt beam="1">  1       -2 0.99780389E+00 0.14901751E+02</pdfrwt>
<totfact>-0.43987495E-13</totfact>
</mgrwt>
</event>
<event>
 4    1 -0.5170493E-019  0.1492687E+02  0.7818608E-02  0.1870308E+00
          2   -1    0    0  501    0  0.00000000000E+00  0.00000000000E+00  0.11925206138E+03  0.11925206140E+03  0.25500000000E-02 0. -1.
         -2   -1    0    0    0  501 -0.00000000000E+00 -0.00000000000E+00 -0.46709833797E+00  0.46710529844E+00  0.25500000000E-02 0.  1.
         31    1    1    2    0    0  0.19755424863E+00 -0.40776051912E+00  0.57816000909E+02  0.58295404480E+02  0.74470750000E+01 0. -1.
        -31    1    1    2    0    0 -0.19755424863E+00  0.40776051912E+00  0.60968962130E+02  0.61423762223E+02  0.74470750000E+01 0. -1.
<mgrwt>
<rscale>  0 0.14926869E+02</rscale>
<asrwt>0</asrwt>
<pdfrwt beam="1">  1        2 0.98992183E+00 0.14926869E+02</pdfrwt>
<pdfrwt beam="2">  1       -2 0.99206688E+00 0.14926869E+02</pdfrwt>
<totfact>-0.12193033E-13</totfact>
</mgrwt>
</event>
<event>
 4    1 -0.5170493E-019  0.1494393E+02  0.7818608E-02  0.1869784E+00
         -2   -1    0    0    0  501 -0.00000000000E+00  0.00000000000E+00  0.12029098826E+03  0.12029098828E+03  0.25500000000E-02 0. -1.
          2   -1    0    0  501    0  0.00000000000E+00 -0.00000000000E+00 -0.46412301587E+00  0.46413002096E+00  0.25500000000E-02 0.  1.
         31    1    1    2    0    0  0.44094573420E+00 -0.38487557106E+00  0.61283614115E+02  0.61737207965E+02  0.74470750000E+01 0. -1.
        -31    1    1    2    0    0 -0.44094573420E+00  0.38487557106E+00  0.58543251127E+02  0.59017910340E+02  0.74470750000E+01 0. -1.
<mgrwt>
<rscale>  0 0.14943927E+02</rscale>
<asrwt>0</asrwt>
<pdfrwt beam="2">  1        2 0.98580521E+00 0.14943927E+02</pdfrwt>
<pdfrwt beam="1">  1       -2 0.99848781E+00 0.14943927E+02</pdfrwt>
<totfact>-0.14365655E-13</totfact>
</mgrwt>
</event>
<event>
 4    1  0.5170493E-019  0.1494081E+02  0.7818608E-02  0.1869880E+00
         -2   -1    0    0    0  501 -0.00000000000E+00  0.00000000000E+00  0.11862243894E+03  0.11862243897E+03  0.25500000000E-02 0. -1.
          2   -1    0    0  501    0  0.00000000000E+00 -0.00000000000E+00 -0.47045495374E+00  0.47046186455E+00  0.25500000000E-02 0.  1.
         31    1    1    2    0    0  0.86993287993E-01  0.58343449979E+00  0.59027200392E+02  0.59498044302E+02  0.74470750000E+01 0. -1.
        -31    1    1    2    0    0 -0.86993287993E-01 -0.58343449979E+00  0.59124783599E+02  0.59594856534E+02  0.74470750000E+01 0.  1.
<mgrwt>
<rscale>  0 0.14940807E+02</rscale>
<asrwt>0</asrwt>
<pdfrwt beam="2">  1        2 0.99914701E+00 0.14940807E+02</pdfrwt>
<pdfrwt beam="1">  1       -2 0.98474343E+00 0.14940807E+02</pdfrwt>
<totfact> 0.13847419E-13</totfact>
</mgrwt>
</event>
<event>
 4    1 -0.5170493E-019  0.1496712E+02  0.7818608E-02  0.1869073E+00
         -2   -1    0    0    0  501 -0.00000000000E+00  0.00000000000E+00  0.11992282660E+03  0.11992282662E+03  0.25500000000E-02 0.  1.
          2   -1    0    0  501    0  0.00000000000E+00 -0.00000000000E+00 -0.46699420287E+00  0.46700116490E+00  0.25500000000E-02 0. -1.
         31    1    1    2    0    0  0.61266261249E+00 -0.24673785426E+00  0.62377729233E+02  0.62824169437E+02  0.74470750000E+01 0.  1.
        -31    1    1    2    0    0 -0.61266261249E+00  0.24673785426E+00  0.57078103159E+02  0.57565658351E+02  0.74470750000E+01 0. -1.
<mgrwt>
<rscale>  0 0.14967122E+02</rscale>
<asrwt>0</asrwt>
<pdfrwt beam="2">  1        2 0.99186821E+00 0.14967122E+02</pdfrwt>
<pdfrwt beam="1">  1       -2 0.99546733E+00 0.14967122E+02</pdfrwt>
<totfact>-0.14994084E-13</totfact>
</mgrwt>
</event>
<event>
 4    1  0.5170493E-019  0.1492331E+02  0.7818608E-02  0.1870418E+00
         -2   -1    0    0    0  501 -0.00000000000E+00  0.00000000000E+00  0.11881547085E+03  0.11881547088E+03  0.25500000000E-02 0. -1.
          2   -1    0    0  501    0  0.00000000000E+00 -0.00000000000E+00 -0.46859145962E+00  0.46859839791E+00  0.25500000000E-02 0.  1.
         31    1    1    2    0    0 -0.20659411828E+00  0.37615744738E+00  0.57716390753E+02  0.58196433423E+02  0.74470750000E+01 0.  1.
        -31    1    1    2    0    0  0.20659411828E+00 -0.37615744738E+00  0.60630488642E+02  0.61087635857E+02  0.74470750000E+01 0. -1.
<mgrwt>
<rscale>  0 0.14923315E+02</rscale>
<asrwt>0</asrwt>
<pdfrwt beam="2">  1        2 0.99521134E+00 0.14923315E+02</pdfrwt>
<pdfrwt beam="1">  1       -2 0.98632414E+00 0.14923315E+02</pdfrwt>
<totfact> 0.31174160E-13</totfact>
</mgrwt>
</event>
<event>
 4    1 -0.5170493E-019  0.1495869E+02  0.7818608E-02  0.1869332E+00
         -2   -1    0    0    0  501 -0.00000000000E+00  0.00000000000E+00  0.12021206081E+03  0.12021206084E+03  0.25500000000E-02 0. -1.
          2   -1    0    0  501    0  0.00000000000E+00 -0.00000000000E+00 -0.46534586171E+00  0.46535284840E+00  0.25500000000E-02 0.  1.
         31    1    1    2    0    0  0.33547388223E-01 -0.87556830508E-01  0.65421054322E+02  0.65843618266E+02  0.74470750000E+01 0. -1.
        -31    1    1    2    0    0 -0.33547388223E-01  0.87556830508E-01  0.54325660626E+02  0.54833795419E+02  0.74470750000E+01 0.  1.
<mgrwt>
<rscale>  0 0.14958691E+02</rscale>
<asrwt>0</asrwt>
<pdfrwt beam="2">  1        2 0.98839001E+00 0.14958691E+02</pdfrwt>
<pdfrwt beam="1">  1       -2 0.99784529E+00 0.14958691E+02</pdfrwt>
<totfact>-0.13406922E-13</totfact>
</mgrwt>
</event>
<event>
 4    1 -0.5170493E-019  0.1491220E+02  0.7818608E-02  0.1870760E+00
         -2   -1    0    0    0  501 -0.00000000000E+00  0.00000000000E+00  0.12027753355E+03  0.12027753357E+03  0.25500000000E-02 0.  1.
          2   -1    0    0  501    0  0.00000000000E+00 -0.00000000000E+00 -0.46220580012E+00  0.46221283427E+00  0.25500000000E-02 0. -1.
         31    1    1    2    0    0 -0.13708548052E+00  0.69608534795E-01  0.57212102514E+02  0.57694949847E+02  0.74470750000E+01 0. -1.
        -31    1    1    2    0    0  0.13708548052E+00 -0.69608534795E-01  0.62603225232E+02  0.63044796560E+02  0.74470750000E+01 0.  1.
<mgrwt>
<rscale>  0 0.14912196E+02</rscale>
<asrwt>0</asrwt>
<pdfrwt beam="2">  1        2 0.98174824E+00 0.14912196E+02</pdfrwt>
<pdfrwt beam="1">  1       -2 0.99836070E+00 0.14912196E+02</pdfrwt>
<totfact>-0.30155095E-13</totfact>
</mgrwt>
</event>
<event>
 4    1 -0.5170493E-019  0.1497352E+02  0.7818608E-02  0.1868878E+00
         -2   -1    0    0    0  501 -0.00000000000E+00  0.00000000000E+00  0.12002304586E+03  0.12002304589E+03  0.25500000000E-02 0. -1.
          2   -1    0    0  501    0  0.00000000000E+00 -0.00000000000E+00 -0.46700299460E+00  0.46700995650E+00  0.25500000000E-02 0.  1.
         31    1    1    2    0    0 -0.28638613243E+00  0.61404616137E+00  0.56837362188E+02  0.57327164035E+02  0.74470750000E+01 0. -1.
        -31    1    1    2    0    0  0.28638613243E+00 -0.61404616137E+00  0.62718680678E+02  0.63162891809E+02  0.74470750000E+01 0.  1.
<mgrwt>
<rscale>  0 0.14973516E+02</rscale>
<asrwt>0</asrwt>
<pdfrwt beam="2">  1        2 0.99189003E+00 0.14973516E+02</pdfrwt>
<pdfrwt beam="1">  1       -2 0.99629608E+00 0.14973516E+02</pdfrwt>
<totfact>-0.13815960E-13</totfact>
</mgrwt>
</event>
<event>
 4    1 -0.5170493E-019  0.1494378E+02  0.7818608E-02  0.1869789E+00
         -2   -1    0    0    0  501 -0.00000000000E+00  0.00000000000E+00  0.12011294786E+03  0.12011294789E+03  0.25500000000E-02 0.  1.
          2   -1    0    0  501    0  0.00000000000E+00 -0.00000000000E+00 -0.46480180190E+00  0.46480879676E+00  0.25500000000E-02 0. -1.
         31    1    1    2    0    0  0.17209060247E+00  0.54569350176E+00  0.58154496588E+02  0.58632173727E+02  0.74470750000E+01 0. -1.
        -31    1    1    2    0    0 -0.17209060247E+00 -0.54569350176E+00  0.61493649474E+02  0.61945582961E+02  0.74470750000E+01 0.  1.
<mgrwt>
<rscale>  0 0.14943780E+02</rscale>
<asrwt>0</asrwt>
<pdfrwt beam="2">  1        2 0.98723576E+00 0.14943780E+02</pdfrwt>
<pdfrwt beam="1">  1       -2 0.99702126E+00 0.14943780E+02</pdfrwt>
<totfact>-0.19707242E-13</totfact>
</mgrwt>
</event>
<event>
 4    1 -0.5170493E-019  0.1499431E+02  0.7818608E-02  0.1868242E+00
         -2   -1    0    0    0  501 -0.00000000000E+00  0.00000000000E+00  0.11985422990E+03  0.11985422993E+03  0.25500000000E-02 0.  1.
          2   -1    0    0  501    0  0.00000000000E+00 -0.00000000000E+00 -0.46896061735E+00  0.46896755018E+00  0.25500000000E-02 0. -1.
         31    1    1    2    0    0  0.22863223410E+00  0.83431496728E+00  0.59634685606E+02  0.60104101420E+02  0.74470750000E+01 0.  1.
        -31    1    1    2    0    0 -0.22863223410E+00 -0.83431496728E+00  0.59750583676E+02  0.60219096057E+02  0.74470750000E+01 0. -1.
<mgrwt>
<rscale>  0 0.14994310E+02</rscale>
<asrwt>0</asrwt>
<pdfrwt beam="2">  1        2 0.99602621E+00 0.14994310E+02</pdfrwt>
<pdfrwt beam="1">  1       -2 0.99491638E+00 0.14994310E+02</pdfrwt>
<totfact>-0.10527745E-13</totfact>
</mgrwt>
</event>
<event>
 4    1 -0.5170493E-019  0.1494801E+02  0.7818608E-02  0.1869659E+00
          2   -1    0    0  501    0  0.00000000000E+00  0.00000000000E+00  0.11899993509E+03  0.11899993512E+03  0.25500000000E-02 0.  1.
         -2   -1    0    0    0  501 -0.00000000000E+00 -0.00000000000E+00 -0.46941475488E+00  0.46942168101E+00  0.25500000000E-02 0. -1.
         31    1    1    2    0    0  0.22872300826E+00  0.36692439354E+00  0.62970002332E+02  0.63410307265E+02  0.74470750000E+01 0.  1.
        -31    1    1    2    0    0 -0.22872300826E+00 -0.36692439354E+00  0.55560518006E+02  0.56059049536E+02  0.74470750000E+01 0. -1.
<mgrwt>
<rscale>  0 0.14948009E+02</rscale>
<asrwt>0</asrwt>
<pdfrwt beam="1">  1        2 0.98785623E+00 0.14948009E+02</pdfrwt>
<pdfrwt beam="2">  1       -2 0.99695905E+00 0.14948009E+02</pdfrwt>
<totfact>-0.18372746E-13</totfact>
</mgrwt>
</event>
<event>
 4    1  0.5170493E-019  0.1491289E+02  0.7818608E-02  0.1870739E+00
          2   -1    0    0  501    0  0.00000000000E+00  0.00000000000E+00  0.11971947761E+03  0.11971947764E+03  0.25500000000E-02 0. -1.
         -2   -1    0    0    0  501 -0.00000000000E+00 -0.00000000000E+00 -0.46440325193E+00  0.46441025279E+00  0.25500000000E-02 0.  1.
         31    1    1    2    0    0 -0.26019414982E+00 -0.24040066205E+00  0.58669982134E+02  0.59141789143E+02  0.74470750000E+01 0. -1.
        -31    1    1    2    0    0  0.26019414982E+00  0.24040066205E+00  0.60585092223E+02  0.61042098745E+02  0.74470750000E+01 0. -1.
<mgrwt>
<rscale>  0 0.14912885E+02</rscale>
<asrwt>0</asrwt>
<pdfrwt beam="1">  1        2 0.99376447E+00 0.14912885E+02</pdfrwt>
<pdfrwt beam="2">  1       -2 0.98638003E+00 0.14912885E+02</pdfrwt>
<totfact> 0.34862230E-13</totfact>
</mgrwt>
</event>
<event>
 4    1 -0.5170493E-019  0.1500309E+02  0.7818608E-02  0.1867974E+00
          2   -1    0    0  501    0  0.00000000000E+00  0.00000000000E+00  0.11981895348E+03  0.11981895351E+03  0.25500000000E-02 0. -1.
         -2   -1    0    0    0  501 -0.00000000000E+00 -0.00000000000E+00 -0.46964830924E+00  0.46965523193E+00  0.25500000000E-02 0.  1.
         31    1    1    2    0    0 -0.26578402458E+00  0.84201881046E+00  0.58182777214E+02  0.58664078679E+02  0.74470750000E+01 0.  1.
        -31    1    1    2    0    0  0.26578402458E+00 -0.84201881046E+00  0.61166527955E+02  0.61624530058E+02  0.74470750000E+01 0.  1.
<mgrwt>
<rscale>  0 0.15003091E+02</rscale>
<asrwt>0</asrwt>
<pdfrwt beam="1">  1        2 0.99463038E+00 0.15003091E+02</pdfrwt>
<pdfrwt beam="2">  1       -2 0.99747993E+00 0.15003091E+02</pdfrwt>
<totfact>-0.87849828E-14</totfact>
</mgrwt>
</event>
<event>
 4    1 -0.5170493E-019  0.1500386E+02  0.7818608E-02  0.1867951E+00
          2   -1    0    0  501    0  0.00000000000E+00  0.00000000000E+00  0.12007965992E+03  0.12007965995E+03  0.25500000000E-02 0.  1.
         -2   -1    0    0    0  501 -0.00000000000E+00 -0.00000000000E+00 -0.46867692496E+00  0.46868386200E+00  0.25500000000E-02 0. -1.
         31    1    1    2    0    0  0.69723729557E+00 -0.19170685652E+00  0.64185341270E+02  0.64619964805E+02  0.74470750000E+01 0.  1.
        -31    1    1    2    0    0 -0.69723729557E+00  0.19170685652E+00  0.55425641726E+02  0.55928379006E+02  0.74470750000E+01 0. -1.
<mgrwt>
<rscale>  0 0.15003864E+02</rscale>
<asrwt>0</asrwt>
<pdfrwt beam="1">  1        2 0.99677805E+00 0.15003864E+02</pdfrwt>
<pdfrwt beam="2">  1       -2 0.99543331E+00 0.15003864E+02</pdfrwt>
<totfact>-0.90760536E-14</totfact>
</mgrwt>
</event>
<event>
 4    1  0.5170493E-019  0.1494541E+02  0.7818608E-02  0.1869739E+00
          2   -1    0    0  501    0  0.00000000000E+00  0.00000000000E+00  0.12021050210E+03  0.12021050212E+03  0.25500000000E-02 0.  1.
         -2   -1    0    0    0  501 -0.00000000000E+00 -0.00000000000E+00 -0.46452590105E+00  0.46453290007E+00  0.25500000000E-02 0. -1.
         31    1    1    2    0    0  0.16160892068E+00  0.44322748780E+00  0.56645033644E+02  0.57134414590E+02  0.74470750000E+01 0. -1.
        -31    1    1    2    0    0 -0.16160892068E+00 -0.44322748780E+00  0.63100942553E+02  0.63540620435E+02  0.74470750000E+01 0.  1.
<mgrwt>
<rscale>  0 0.14945409E+02</rscale>
<asrwt>0</asrwt>
<pdfrwt beam="1">  1        2 0.99782562E+00 0.14945409E+02</pdfrwt>
<pdfrwt beam="2">  1       -2 0.98665510E+00 0.14945409E+02</pdfrwt>
<totfact> 0.16524419E-13</totfact>
</mgrwt>
</event>
<event>
 4    1 -0.5170493E-019  0.1494669E+02  0.7818608E-02  0.1869700E+00
         -2   -1    0    0    0  501 -0.00000000000E+00  0.00000000000E+00  0.11936580233E+03  0.11936580235E+03  0.25500000000E-02 0.  1.
          2   -1    0    0  501    0  0.00000000000E+00 -0.00000000000E+00 -0.46789354377E+00  0.46790049241E+00  0.25500000000E-02 0. -1.
         31    1    1    2    0    0 -0.42944550398E+00 -0.40225056093E+00  0.61163840174E+02  0.61618345481E+02  0.74470750000E+01 0. -1.
        -31    1    1    2    0    0  0.42944550398E+00  0.40225056093E+00  0.57734068609E+02  0.58215357365E+02  0.74470750000E+01 0. -1.
<mgrwt>
<rscale>  0 0.14946693E+02</rscale>
<asrwt>0</asrwt>
<pdfrwt beam="2">  1        2 0.99375288E+00 0.14946693E+02</pdfrwt>
<pdfrwt beam="1">  1       -2 0.99086890E+00 0.14946693E+02</pdfrwt>
<totfact>-0.40150711E-14</totfact>
</mgrwt>
</event>
<event>
 4    1 -0.5170493E-019  0.1496922E+02  0.7818608E-02  0.1869009E+00
          2   -1    0    0  501    0  0.00000000000E+00  0.00000000000E+00  0.11977998975E+03  0.11977998978E+03  0.25500000000E-02 0.  1.
         -2   -1    0    0    0  501 -0.00000000000E+00 -0.00000000000E+00 -0.46768224866E+00  0.46768920045E+00  0.25500000000E-02 0. -1.
         31    1    1    2    0    0 -0.34645435170E+00  0.56027367052E+00  0.62513589510E+02  0.62959048092E+02  0.74470750000E+01 0.  1.
        -31    1    1    2    0    0  0.34645435170E+00 -0.56027367052E+00  0.56798717995E+02  0.57288630889E+02  0.74470750000E+01 0. -1.
<mgrwt>
<rscale>  0 0.14969221E+02</rscale>
<asrwt>0</asrwt>
<pdfrwt beam="1">  1        2 0.99429194E+00 0.14969221E+02</pdfrwt>
<pdfrwt beam="2">  1       -2 0.99331928E+00 0.14969221E+02</pdfrwt>
<totfact>-0.11640249E-13</totfact>
</mgrwt>
</event>
<event>
 4    1 -0.5170493E-019  0.1500158E+02  0.7818608E-02  0.1868020E+00
         -2   -1    0    0    0  501 -0.00000000000E+00  0.00000000000E+00  0.12014744363E+03  0.12014744366E+03  0.25500000000E-02 0. -1.
          2   -1    0    0  501    0  0.00000000000E+00 -0.00000000000E+00 -0.46826981071E+00  0.46827675377E+00  0.25500000000E-02 0.  1.
         31    1    1    2    0    0  0.47784730694E-01 -0.40123843316E+00  0.66269935655E+02  0.66688279130E+02  0.74470750000E+01 0. -1.
        -31    1    1    2    0    0 -0.47784730694E-01  0.40123843316E+00  0.53409238165E+02  0.53927441281E+02  0.74470750000E+01 0.  1.
<mgrwt>
<rscale>  0 0.15001579E+02</rscale>
<asrwt>0</asrwt>
<pdfrwt beam="2">  1        2 0.99457418E+00 0.15001579E+02</pdfrwt>
<pdfrwt beam="1">  1       -2 0.99733517E+00 0.15001579E+02</pdfrwt>
<totfact>-0.91920694E-14</totfact>
</mgrwt>
</event>
<event>
 4    1 -0.5170493E-019  0.1489696E+02  0.7818608E-02  0.1871229E+00
          2   -1    0    0  501    0  0.00000000000E+00  0.00000000000E+00  0.11888173299E+03  0.11888173302E+03  0.25500000000E-02 0. -1.
         -2   -1    0    0    0  501 -0.00000000000E+00 -0.00000000000E+00 -0.46667764012E+00  0.46668460687E+00  0.25500000000E-02 0.  1.
         31    1    1    2    0    0  0.89064071048E-01 -0.80726475238E-01  0.59852883571E+02  0.60314517713E+02  0.74470750000E+01 0. -1.
        -31    1    1    2    0    0 -0.89064071048E-01  0.80726475238E-01  0.58562171777E+02  0.59033899909E+02  0.74470750000E+01 0.  1.
<mgrwt>
<rscale>  0 0.14896961E+02</rscale>
<asrwt>0</asrwt>
<pdfrwt beam="1">  1        2 0.98685622E+00 0.14896961E+02</pdfrwt>
<pdfrwt beam="2">  1       -2 0.99116482E+00 0.14896961E+02</pdfrwt>
<totfact>-0.10674157E-13</totfact>
</mgrwt>
</event>
<event>
 4    1 -0.5170493E-019  0.1497479E+02  0.7818608E-02  0.1868839E+00
         -2   -1    0    0    0  501 -0.00000000000E+00  0.00000000000E+00  0.11988129976E+03  0.11988129978E+03  0.25500000000E-02 0.  1.
          2   -1    0    0  501    0  0.00000000000E+00 -0.00000000000E+00 -0.46763476584E+00  0.46764171833E+00  0.25500000000E-02 0. -1.
         31    1    1    2    0    0  0.61282003824E+00  0.40630093564E+00  0.57713314510E+02  0.58196445138E+02  0.74470750000E+01 0. -1.
        -31    1    1    2    0    0 -0.61282003824E+00 -0.40630093564E+00  0.61700350481E+02  0.62152496365E+02  0.74470750000E+01 0. -1.
<mgrwt>
<rscale>  0 0.14974790E+02</rscale>
<asrwt>0</asrwt>
<pdfrwt beam="2">  1        2 0.99322209E+00 0.14974790E+02</pdfrwt>
<pdfrwt beam="1">  1       -2 0.99512925E+00 0.14974790E+02</pdfrwt>
<totfact>-0.13811288E-13</totfact>
</mgrwt>
</event>
<event>
 4    1  0.5170493E-019  0.1495497E+02  0.7818608E-02  0.1869446E+00
          2   -1    0    0  501    0  0.00000000000E+00  0.00000000000E+00  0.12031610586E+03  0.12031610589E+03  0.25500000000E-02 0. -1.
         -2   -1    0    0    0  501 -0.00000000000E+00 -0.00000000000E+00 -0.46471187375E+00  0.46471886997E+00  0.25500000000E-02 0.  1.
         31    1    1    2    0    0 -0.52425480516E-01  0.65358590361E+00  0.61174213754E+02  0.61629321572E+02  0.74470750000E+01 0. -1.
        -31    1    1    2    0    0  0.52425480516E-01 -0.65358590361E+00  0.58677180230E+02  0.59151503183E+02  0.74470750000E+01 0.  1.
<mgrwt>
<rscale>  0 0.14954965E+02</rscale>
<asrwt>0</asrwt>
<pdfrwt beam="1">  1        2 0.99870037E+00 0.14954965E+02</pdfrwt>
<pdfrwt beam="2">  1       -2 0.98705192E+00 0.14954965E+02</pdfrwt>
<totfact> 0.92749795E-14</totfact>
</mgrwt>
</event>
<event>
 4    1  0.5170493E-019  0.1492705E+02  0.7818608E-02  0.1870303E+00
         -2   -1    0    0    0  501 -0.00000000000E+00  0.00000000000E+00  0.11861301635E+03  0.11861301638E+03  0.25500000000E-02 0.  1.
          2   -1    0    0  501    0  0.00000000000E+00 -0.00000000000E+00 -0.46962632422E+00  0.46963324722E+00  0.25500000000E-02 0. -1.
         31    1    1    2    0    0 -0.25563485158E+00  0.46513473048E-01  0.55708100038E+02  0.56204260057E+02  0.74470750000E+01 0. -1.
        -31    1    1    2    0    0  0.25563485158E+00 -0.46513473048E-01  0.62435289992E+02  0.62878389571E+02  0.74470750000E+01 0.  1.
<mgrwt>
<rscale>  0 0.14927050E+02</rscale>
<asrwt>0</asrwt>
<pdfrwt beam="2">  1        2 0.99739383E+00 0.14927050E+02</pdfrwt>
<pdfrwt beam="1">  1       -2 0.98465867E+00 0.14927050E+02</pdfrwt>
<totfact> 0.35661314E-13</totfact>
</mgrwt>
</event>
<event>
 4    1  0.5170493E-019  0.1490189E+02  0.7818608E-02  0.1871077E+00
          2   -1    0    0  501    0  0.00000000000E+00  0.00000000000E+00  0.12043653349E+03  0.12043653352E+03  0.25500000000E-02 0.  1.
         -2   -1    0    0    0  501 -0.00000000000E+00 -0.00000000000E+00 -0.46095774337E+00  0.46096479656E+00  0.25500000000E-02 0. -1.
         31    1    1    2    0    0 -0.17517949967E+00  0.16000307323E+00  0.60287613021E+02  0.60746287941E+02  0.74470750000E+01 0.  1.
        -31    1    1    2    0    0  0.17517949967E+00 -0.16000307323E+00  0.59687962730E+02  0.60151210376E+02  0.74470750000E+01 0. -1.
<mgrwt>
<rscale>  0 0.14901890E+02</rscale>
<asrwt>0</asrwt>
<pdfrwt beam="1">  1        2 0.99966510E+00 0.14901890E+02</pdfrwt>
<pdfrwt beam="2">  1       -2 0.97911240E+00 0.14901890E+02</pdfrwt>
<totfact> 0.18081682E-13</totfact>
</mgrwt>
</event>
<event>
 4    1 -0.5170493E-019  0.1496302E+02  0.7818608E-02  0.1869199E+00
          2   -1    0    0  501    0  0.00000000000E+00  0.00000000000E+00  0.11949256200E+03  0.11949256203E+03  0.25500000000E-02 0.  1.
         -2   -1    0    0    0  501 -0.00000000000E+00 -0.00000000000E+00 -0.46841878879E+00  0.46842572964E+00  0.25500000000E-02 0. -1.
         31    1    1    2    0    0  0.25475238293E+00 -0.57126208532E+00  0.56702470913E+02  0.57192834978E+02  0.74470750000E+01 0. -1.
        -31    1    1    2    0    0 -0.25475238293E+00  0.57126208532E+00  0.62321672301E+02  0.62768152781E+02  0.74470750000E+01 0.  1.
<mgrwt>
<rscale>  0 0.14963018E+02</rscale>
<asrwt>0</asrwt>
<pdfrwt beam="1">  1        2 0.99192138E+00 0.14963018E+02</pdfrwt>
<pdfrwt beam="2">  1       -2 0.99486819E+00 0.14963018E+02</pdfrwt>
<totfact>-0.15252890E-13</totfact>
</mgrwt>
</event>
<event>
 4    1 -0.5170493E-019  0.1501174E+02  0.7818608E-02  0.1867710E+00
          2   -1    0    0  501    0  0.00000000000E+00  0.00000000000E+00  0.12018405655E+03  0.12018405658E+03  0.25500000000E-02 0. -1.
         -2   -1    0    0    0  501 -0.00000000000E+00 -0.00000000000E+00 -0.46876171628E+00  0.46876865206E+00  0.25500000000E-02 0.  1.
         31    1    1    2    0    0 -0.69870026512E-01 -0.75584379458E+00  0.64281753238E+02  0.64716141009E+02  0.74470750000E+01 0. -1.
        -31    1    1    2    0    0  0.69870026512E-01  0.75584379458E+00  0.55433541594E+02  0.55936684218E+02  0.74470750000E+01 0.  1.
<mgrwt>
<rscale>  0 0.15011743E+02</rscale>
<asrwt>0</asrwt>
<pdfrwt beam="1">  1        2 0.99764198E+00 0.15011743E+02</pdfrwt>
<pdfrwt beam="2">  1       -2 0.99561606E+00 0.15011743E+02</pdfrwt>
<totfact>-0.72119405E-14</totfact>
</mgrwt>
</event>
<event>
 4    1 -0.5170493E-019  0.1491627E+02  0.7818608E-02  0.1870634E+00
         -2   -1    0    0    0  501 -0.00000000000E+00  0.00000000000E+00  0.11999551971E+03  0.11999551973E+03  0.25500000000E-02 0.  1.
          2   -1    0    0  501    0  0.00000000000E+00 -0.00000000000E+00 -0.46354498828E+00  0.46355200211E+00  0.25500000000E-02 0. -1.
         31    1    1    2    0    0  0.10102736925E+00  0.28330186292E+00  0.57563925195E+02  0.58044421578E+02  0.74470750000E+01 0. -1.
        -31    1    1    2    0    0 -0.10102736925E+00 -0.28330186292E+00  0.61968049524E+02  0.62414650158E+02  0.74470750000E+01 0.  1.
<mgrwt>
<rscale>  0 0.14916266E+02</rscale>
<asrwt>0</asrwt>
<pdfrwt beam="2">  1        2 0.98457290E+00 0.14916266E+02</pdfrwt>
<pdfrwt beam="1">  1       -2 0.99603989E+00 0.14916266E+02</pdfrwt>
<totfact>-0.34777422E-13</totfact>
</mgrwt>
</event>
<event>
 4    1 -0.5170493E-019  0.1490901E+02  0.7818608E-02  0.1870858E+00
         -2   -1    0    0    0  501 -0.00000000000E+00  0.00000000000E+00  0.11996340130E+03  0.11996340133E+03  0.25500000000E-02 0. -1.
          2   -1    0    0  501    0  0.00000000000E+00 -0.00000000000E+00 -0.46321781367E+00  0.46322483245E+00  0.25500000000E-02 0.  1.
         31    1    1    2    0    0  0.89929778157E-01  0.35506739456E-01  0.57178792131E+02  0.57661794489E+02  0.74470750000E+01 0.  1.
        -31    1    1    2    0    0 -0.89929778157E-01 -0.35506739456E-01  0.62321391355E+02  0.62764831670E+02  0.74470750000E+01 0. -1.
<mgrwt>
<rscale>  0 0.14909005E+02</rscale>
<asrwt>0</asrwt>
<pdfrwt beam="2">  1        2 0.98387965E+00 0.14909005E+02</pdfrwt>
<pdfrwt beam="1">  1       -2 0.99577160E+00 0.14909005E+02</pdfrwt>
<totfact>-0.40065866E-13</totfact>
</mgrwt>
</event>
<event>
 4    1 -0.5170493E-019  0.1495461E+02  0.7818608E-02  0.1869457E+00
          2   -1    0    0  501    0  0.00000000000E+00  0.00000000000E+00  0.11939795199E+03  0.11939795202E+03  0.25500000000E-02 0. -1.
         -2   -1    0    0    0  501 -0.00000000000E+00 -0.00000000000E+00 -0.46826310611E+00  0.46827004927E+00  0.25500000000E-02 0.  1.
         31    1    1    2    0    0  0.31865123434E-01  0.14291392151E+00  0.54210622640E+02  0.54719941272E+02  0.74470750000E+01 0.  1.
        -31    1    1    2    0    0 -0.31865123434E-01 -0.14291392151E+00  0.64719066242E+02  0.65146280793E+02  0.74470750000E+01 0. -1.
<mgrwt>
<rscale>  0 0.14954608E+02</rscale>
<asrwt>0</asrwt>
<pdfrwt beam="1">  1        2 0.99113779E+00 0.14954608E+02</pdfrwt>
<pdfrwt beam="2">  1       -2 0.99453576E+00 0.14954608E+02</pdfrwt>
<totfact>-0.16176827E-13</totfact>
</mgrwt>
</event>
<event>
 4    1  0.5170493E-019  0.1491617E+02  0.7818608E-02  0.1870637E+00
          2   -1    0    0  501    0  0.00000000000E+00  0.00000000000E+00  0.12043687530E+03  0.12043687532E+03  0.25500000000E-02 0.  1.
         -2   -1    0    0    0  501 -0.00000000000E+00 -0.00000000000E+00 -0.46184022887E+00  0.46184726858E+00  0.25500000000E-02 0. -1.
         31    1    1    2    0    0  0.11181912642E+00  0.38904988600E+00  0.60110930781E+02  0.60571831644E+02  0.74470750000E+01 0. -1.
        -31    1    1    2    0    0 -0.11181912642E+00 -0.38904988600E+00  0.59864104288E+02  0.60326890950E+02  0.74470750000E+01 0. -1.
<mgrwt>
<rscale>  0 0.14916169E+02</rscale>
<asrwt>0</asrwt>
<pdfrwt beam="1">  1        2 0.99967523E+00 0.14916169E+02</pdfrwt>
<pdfrwt beam="2">  1       -2 0.98097970E+00 0.14916169E+02</pdfrwt>
<totfact> 0.12793805E-13</totfact>
</mgrwt>
</event>
<event>
 4    1  0.5170493E-019  0.1489892E+02  0.7818608E-02  0.1871169E+00
          2   -1    0    0  501    0  0.00000000000E+00  0.00000000000E+00  0.11975309541E+03  0.11975309544E+03  0.25500000000E-02 0.  1.
         -2   -1    0    0    0  501 -0.00000000000E+00 -0.00000000000E+00 -0.46340358227E+00  0.46341059824E+00  0.25500000000E-02 0. -1.
         31    1    1    2    0    0 -0.14872873538E+00 -0.76604266163E-01  0.58945031136E+02  0.59413833491E+02  0.74470750000E+01 0. -1.
        -31    1    1    2    0    0  0.14872873538E+00  0.76604266163E-01  0.60344660692E+02  0.60802672545E+02  0.74470750000E+01 0. -1.
<mgrwt>
<rscale>  0 0.14898918E+02</rscale>
<asrwt>0</asrwt>
<pdfrwt beam="1">  1        2 0.99403418E+00 0.14898918E+02</pdfrwt>
<pdfrwt beam="2">  1       -2 0.98426605E+00 0.14898918E+02</pdfrwt>
<totfact> 0.64462289E-13</totfact>
</mgrwt>
</event>
<event>
 4    1 -0.5170493E-019  0.1496839E+02  0.7818608E-02  0.1869035E+00
          2   -1    0    0  501    0  0.00000000000E+00  0.00000000000E+00  0.11982439379E+03  0.11982439382E+03  0.25500000000E-02 0.  1.
         -2   -1    0    0    0  501 -0.00000000000E+00 -0.00000000000E+00 -0.46745727452E+00  0.46746422965E+00  0.25500000000E-02 0. -1.
         31    1    1    2    0    0 -0.55468902525E+00  0.80398299225E-01  0.55740352901E+02  0.56238421132E+02  0.74470750000E+01 0. -1.
        -31    1    1    2    0    0  0.55468902525E+00 -0.80398299225E-01  0.63616583613E+02  0.64053436914E+02  0.74470750000E+01 0.  1.
<mgrwt>
<rscale>  0 0.14968394E+02</rscale>
<asrwt>0</asrwt>
<pdfrwt beam="1">  1        2 0.99465725E+00 0.14968394E+02</pdfrwt>
<pdfrwt beam="2">  1       -2 0.99284475E+00 0.14968394E+02</pdfrwt>
<totfact>-0.10386725E-13</totfact>
</mgrwt>
</event>
<event>
 4    1  0.5170493E-019  0.1490110E+02  0.7818608E-02  0.1871102E+00
         -2   -1    0    0    0  501 -0.00000000000E+00  0.00000000000E+00  0.11908560890E+03  0.11908560893E+03  0.25500000000E-02 0.  1.
          2   -1    0    0  501    0  0.00000000000E+00 -0.00000000000E+00 -0.46613732507E+00  0.46614429989E+00  0.25500000000E-02 0. -1.
         31    1    1    2    0    0 -0.22368512578E+00  0.36495786652E-01  0.59464626023E+02  0.59929558993E+02  0.74470750000E+01 0.  1.
        -31    1    1    2    0    0  0.22368512578E+00 -0.36495786652E-01  0.59154845552E+02  0.59622194234E+02  0.74470750000E+01 0.  1.
<mgrwt>
<rscale>  0 0.14901096E+02</rscale>
<asrwt>0</asrwt>
<pdfrwt beam="2">  1        2 0.99002838E+00 0.14901096E+02</pdfrwt>
<pdfrwt beam="1">  1       -2 0.98853754E+00 0.14901096E+02</pdfrwt>
<totfact> 0.15979471E-13</totfact>
</mgrwt>
</event>
<event>
 4    1  0.5170493E-019  0.1491594E+02  0.7818608E-02  0.1870645E+00
          2   -1    0    0  501    0  0.00000000000E+00  0.00000000000E+00  0.11995358676E+03  0.11995358679E+03  0.25500000000E-02 0.  1.
         -2   -1    0    0    0  501 -0.00000000000E+00 -0.00000000000E+00 -0.46368678446E+00  0.46369379614E+00  0.25500000000E-02 0. -1.
         31    1    1    2    0    0 -0.43306680427E-01  0.16670528828E+00  0.62686077234E+02  0.63127116766E+02  0.74470750000E+01 0.  1.
        -31    1    1    2    0    0  0.43306680427E-01 -0.16670528828E+00  0.56803822743E+02  0.57290163819E+02  0.74470750000E+01 0. -1.
<mgrwt>
<rscale>  0 0.14915940E+02</rscale>
<asrwt>0</asrwt>
<pdfrwt beam="1">  1        2 0.99569433E+00 0.14915940E+02</pdfrwt>
<pdfrwt beam="2">  1       -2 0.98487159E+00 0.14915940E+02</pdfrwt>
<totfact> 0.46377990E-13</totfact>
</mgrwt>
</event>
<event>
 4    1  0.5170493E-019  0.1489581E+02  0.7818608E-02  0.1871265E+00
          2   -1    0    0  501    0  0.00000000000E+00  0.00000000000E+00  0.12031873321E+03  0.12031873323E+03  0.25500000000E-02 0. -1.
         -2   -1    0    0    0  501 -0.00000000000E+00 -0.00000000000E+00 -0.46103236682E+00  0.46103941887E+00  0.25500000000E-02 0.  1.
         31    1    1    2    0    0  0.82509840622E-01  0.73742181196E-01  0.60004047499E+02  0.60464509327E+02  0.74470750000E+01 0.  1.
        -31    1    1    2    0    0 -0.82509840622E-01 -0.73742181196E-01  0.59853653341E+02  0.60315263326E+02  0.74470750000E+01 0.  1.
<mgrwt>
<rscale>  0 0.14895806E+02</rscale>
<asrwt>0</asrwt>
<pdfrwt beam="1">  1        2 0.99869167E+00 0.14895806E+02</pdfrwt>
<pdfrwt beam="2">  1       -2 0.97926665E+00 0.14895806E+02</pdfrwt>
<totfact> 0.61887030E-13</totfact>
</mgrwt>
</event>
<event>
 4    1  0.5170493E-019  0.1490914E+02  0.7818608E-02  0.1870854E+00
          2   -1    0    0  501    0  0.00000000000E+00  0.00000000000E+00  0.11958885082E+03  0.11958885085E+03  0.25500000000E-02 0. -1.
         -2   -1    0    0    0  501 -0.00000000000E+00 -0.00000000000E+00 -0.46467684567E+00  0.46468384242E+00  0.25500000000E-02 0.  1.
         31    1    1    2    0    0  0.56466423078E-01  0.18501821283E+00  0.61756190316E+02  0.62203885639E+02  0.74470750000E+01 0. -1.
        -31    1    1    2    0    0 -0.56466423078E-01 -0.18501821283E+00  0.57367983661E+02  0.57849649053E+02  0.74470750000E+01 0.  1.
<mgrwt>
<rscale>  0 0.14909137E+02</rscale>
<asrwt>0</asrwt>
<pdfrwt beam="1">  1        2 0.99268662E+00 0.14909137E+02</pdfrwt>
<pdfrwt beam="2">  1       -2 0.98695472E+00 0.14909137E+02</pdfrwt>
<totfact> 0.30241100E-13</totfact>
</mgrwt>
</event>
<event>
 4    1 -0.5170493E-019  0.1499285E+02  0.7818608E-02  0.1868287E+00
         -2   -1    0    0    0  501 -0.00000000000E+00  0.00000000000E+00  0.11974461120E+03  0.11974461123E+03  0.25500000000E-02 0.  1.
          2   -1    0    0  501    0  0.00000000000E+00 -0.00000000000E+00 -0.46929852185E+00  0.46930544969E+00  0.25500000000E-02 0. -1.
         31    1    1    2    0    0  0.56856292078E+00  0.61873019167E+00  0.58217523234E+02  0.58697913322E+02  0.74470750000E+01 0.  1.
        -31    1    1    2    0    0 -0.56856292078E+00 -0.61873019167E+00  0.61057789445E+02  0.61516003355E+02  0.74470750000E+01 0.  1.
<mgrwt>
<rscale>  0 0.14992850E+02</rscale>
<asrwt>0</asrwt>
<pdfrwt beam="2">  1        2 0.99673752E+00 0.14992850E+02</pdfrwt>
<pdfrwt beam="1">  1       -2 0.99401277E+00 0.14992850E+02</pdfrwt>
<totfact>-0.91150249E-14</totfact>
</mgrwt>
</event>
<event>
 4    1 -0.5170493E-019  0.1500728E+02  0.7818608E-02  0.1867846E+00
         -2   -1    0    0    0  501 -0.00000000000E+00  0.00000000000E+00  0.12005327415E+03  0.12005327418E+03  0.25500000000E-02 0.  1.
          2   -1    0    0  501    0  0.00000000000E+00 -0.00000000000E+00 -0.46899329642E+00  0.46900022877E+00  0.25500000000E-02 0. -1.
         31    1    1    2    0    0  0.74025986961E+00  0.35491773201E+00  0.56464170282E+02  0.56959067786E+02  0.74470750000E+01 0.  1.
        -31    1    1    2    0    0 -0.74025986961E+00 -0.35491773201E+00  0.63120110570E+02  0.63563206619E+02  0.74470750000E+01 0.  1.
<mgrwt>
<rscale>  0 0.15007278E+02</rscale>
<asrwt>0</asrwt>
<pdfrwt beam="2">  1        2 0.99610178E+00 0.15007278E+02</pdfrwt>
<pdfrwt beam="1">  1       -2 0.99656249E+00 0.15007278E+02</pdfrwt>
<totfact>-0.90463720E-14</totfact>
</mgrwt>
</event>
<event>
 4    1 -0.5170493E-019  0.1494741E+02  0.7818608E-02  0.1869677E+00
          2   -1    0    0  501    0  0.00000000000E+00  0.00000000000E+00  0.11925454108E+03  0.11925454111E+03  0.25500000000E-02 0.  1.
         -2   -1    0    0    0  501 -0.00000000000E+00 -0.00000000000E+00 -0.46837521546E+00  0.46838215695E+00  0.25500000000E-02 0. -1.
         31    1    1    2    0    0 -0.41049893509E+00  0.34274184255E+00  0.62066194527E+02  0.62513657791E+02  0.74470750000E+01 0.  1.
        -31    1    1    2    0    0  0.41049893509E+00 -0.34274184255E+00  0.56719971337E+02  0.57209265472E+02  0.74470750000E+01 0. -1.
<mgrwt>
<rscale>  0 0.14947413E+02</rscale>
<asrwt>0</asrwt>
<pdfrwt beam="1">  1        2 0.98995290E+00 0.14947413E+02</pdfrwt>
<pdfrwt beam="2">  1       -2 0.99476826E+00 0.14947413E+02</pdfrwt>
<totfact>-0.17983950E-13</totfact>
</mgrwt>
</event>
<event>
 4    1 -0.5170493E-019  0.1498195E+02  0.7818608E-02  0.1868620E+00
         -2   -1    0    0    0  501 -0.00000000000E+00  0.00000000000E+00  0.12031702969E+03  0.12031702972E+03  0.25500000000E-02 0. -1.
          2   -1    0    0  501    0  0.00000000000E+00 -0.00000000000E+00 -0.46638695217E+00  0.46639392326E+00  0.25500000000E-02 0.  1.
         31    1    1    2    0    0  0.15531424202E+00  0.55228614363E+00  0.64532957679E+02  0.64963764480E+02  0.74470750000E+01 0. -1.
        -31    1    1    2    0    0 -0.15531424202E+00 -0.55228614363E+00  0.55317685059E+02  0.55819659161E+02  0.74470750000E+01 0.  1.
<mgrwt>
<rscale>  0 0.14981951E+02</rscale>
<asrwt>0</asrwt>
<pdfrwt beam="2">  1        2 0.99059604E+00 0.14981951E+02</pdfrwt>
<pdfrwt beam="1">  1       -2 0.99872185E+00 0.14981951E+02</pdfrwt>
<totfact>-0.68670324E-14</totfact>
</mgrwt>
</event>
<event>
 4    1  0.5170493E-019  0.1491928E+02  0.7818608E-02  0.1870542E+00
          2   -1    0    0  501    0  0.00000000000E+00  0.00000000000E+00  0.12016994868E+03  0.12016994871E+03  0.25500000000E-02 0.  1.
         -2   -1    0    0    0  501 -0.00000000000E+00 -0.00000000000E+00 -0.46305904558E+00  0.46306606677E+00  0.25500000000E-02 0. -1.
         31    1    1    2    0    0 -0.26471746115E+00  0.33127609671E+00  0.60551894635E+02  0.61009595058E+02  0.74470750000E+01 0.  1.
        -31    1    1    2    0    0  0.26471746115E+00 -0.33127609671E+00  0.59154995002E+02  0.59623419718E+02  0.74470750000E+01 0. -1.
<mgrwt>
<rscale>  0 0.14919277E+02</rscale>
<asrwt>0</asrwt>
<pdfrwt beam="1">  1        2 0.99747817E+00 0.14919277E+02</pdfrwt>
<pdfrwt beam="2">  1       -2 0.98355022E+00 0.14919277E+02</pdfrwt>
<totfact> 0.45966782E-13</totfact>
</mgrwt>
</event>
<event>
 4    1 -0.5170493E-019  0.1491058E+02  0.7818608E-02  0.1870810E+00
          2   -1    0    0  501    0  0.00000000000E+00  0.00000000000E+00  0.11815514229E+03  0.11815514232E+03  0.25500000000E-02 0.  1.
         -2   -1    0    0    0  501 -0.00000000000E+00 -0.00000000000E+00 -0.47040631538E+00  0.47041322691E+00  0.25500000000E-02 0. -1.
         31    1    1    2    0    0  0.17874965783E+00 -0.79159206851E-01  0.61150825203E+02  0.61602926609E+02  0.74470750000E+01 0.  1.
        -31    1    1    2    0    0 -0.17874965783E+00  0.79159206851E-01  0.56533910772E+02  0.57022628937E+02  0.74470750000E+01 0. -1.
<mgrwt>
<rscale>  0 0.14910578E+02</rscale>
<asrwt>0</asrwt>
<pdfrwt beam="1">  1        2 0.98087909E+00 0.14910578E+02</pdfrwt>
<pdfrwt beam="2">  1       -2 0.99902852E+00 0.14910578E+02</pdfrwt>
<totfact>-0.21908377E-13</totfact>
</mgrwt>
</event>
<event>
 4    1  0.5170493E-019  0.1495323E+02  0.7818608E-02  0.1869499E+00
         -2   -1    0    0    0  501 -0.00000000000E+00  0.00000000000E+00  0.11888398723E+03  0.11888398725E+03  0.25500000000E-02 0. -1.
          2   -1    0    0  501    0  0.00000000000E+00 -0.00000000000E+00 -0.47020098235E+00  0.47020789690E+00  0.25500000000E-02 0.  1.
         31    1    1    2    0    0  0.40235799217E-01  0.23896349695E-01  0.64493409050E+02  0.64921960282E+02  0.74470750000E+01 0. -1.
        -31    1    1    2    0    0 -0.40235799217E-01 -0.23896349695E-01  0.53920377194E+02  0.54432234869E+02  0.74470750000E+01 0.  1.
<mgrwt>
<rscale>  0 0.14953231E+02</rscale>
<asrwt>0</asrwt>
<pdfrwt beam="2">  1        2 0.99861844E+00 0.14953231E+02</pdfrwt>
<pdfrwt beam="1">  1       -2 0.98690399E+00 0.14953231E+02</pdfrwt>
<totfact> 0.10388871E-13</totfact>
</mgrwt>
</event>
<event>
 4    1  0.5170493E-019  0.1491011E+02  0.7818608E-02  0.1870824E+00
          2   -1    0    0  501    0  0.00000000000E+00  0.00000000000E+00  0.12032262236E+03  0.12032262239E+03  0.25500000000E-02 0. -1.
         -2   -1    0    0    0  501 -0.00000000000E+00 -0.00000000000E+00 -0.46190315805E+00  0.46191019681E+00  0.25500000000E-02 0.  1.
         31    1    1    2    0    0 -0.50849346861E-01 -0.15460634923E+00  0.62392952955E+02  0.62836024646E+02  0.74470750000E+01 0. -1.
        -31    1    1    2    0    0  0.50849346861E-01  0.15460634923E+00  0.57467766245E+02  0.57948507936E+02  0.74470750000E+01 0.  1.
<mgrwt>
<rscale>  0 0.14910107E+02</rscale>
<asrwt>0</asrwt>
<pdfrwt beam="1">  1        2 0.99873102E+00 0.14910107E+02</pdfrwt>
<pdfrwt beam="2">  1       -2 0.98110929E+00 0.14910107E+02</pdfrwt>
<totfact> 0.43974025E-13</totfact>
</mgrwt>
</event>
<event>
 4    1 -0.5170493E-019  0.1500572E+02  0.7818608E-02  0.1867894E+00
          2   -1    0    0  501    0  0.00000000000E+00  0.00000000000E+00  0.11995018442E+03  0.11995018445E+03  0.25500000000E-02 0.  1.
         -2   -1    0    0    0  501 -0.00000000000E+00 -0.00000000000E+00 -0.46929882627E+00  0.46930575411E+00  0.25500000000E-02 0. -1.
         31    1    1    2    0    0  0.87675205476E+00 -0.21732560265E+00  0.58662327905E+02  0.59140033529E+02  0.74470750000E+01 0.  1.
        -31    1    1    2    0    0 -0.87675205476E+00  0.21732560265E+00  0.60818557687E+02  0.61279456670E+02  0.74470750000E+01 0. -1.
<mgrwt>
<rscale>  0 0.15005719E+02</rscale>
<asrwt>0</asrwt>
<pdfrwt beam="1">  1        2 0.99571260E+00 0.15005719E+02</pdfrwt>
<pdfrwt beam="2">  1       -2 0.99674483E+00 0.15005719E+02</pdfrwt>
<totfact>-0.92588067E-14</totfact>
</mgrwt>
</event>
<event>
 4    1  0.5170493E-019  0.1491885E+02  0.7818608E-02  0.1870555E+00
         -2   -1    0    0    0  501 -0.00000000000E+00  0.00000000000E+00  0.11872136367E+03  0.11872136370E+03  0.25500000000E-02 0.  1.
          2   -1    0    0  501    0  0.00000000000E+00 -0.00000000000E+00 -0.46868243805E+00  0.46868937499E+00  0.25500000000E-02 0. -1.
         31    1    1    2    0    0  0.21134742360E+00  0.25628710856E+00  0.61296063661E+02  0.61747685764E+02  0.74470750000E+01 0.  1.
        -31    1    1    2    0    0 -0.21134742360E+00 -0.25628710856E+00  0.56956617571E+02  0.57442367308E+02  0.74470750000E+01 0. -1.
<mgrwt>
<rscale>  0 0.14918852E+02</rscale>
<asrwt>0</asrwt>
<pdfrwt beam="2">  1        2 0.99540070E+00 0.14918852E+02</pdfrwt>
<pdfrwt beam="1">  1       -2 0.98554675E+00 0.14918852E+02</pdfrwt>
<totfact> 0.39475962E-13</totfact>
</mgrwt>
</event>
<event>
 4    1 -0.5170493E-019  0.1491608E+02  0.7818608E-02  0.1870640E+00
          2   -1    0    0  501    0  0.00000000000E+00  0.00000000000E+00  0.11895924805E+03  0.11895924808E+03  0.25500000000E-02 0.  1.
         -2   -1    0    0    0  501 -0.00000000000E+00 -0.00000000000E+00 -0.46757121569E+00  0.46757816912E+00  0.25500000000E-02 0. -1.
         31    1    1    2    0    0  0.33087012928E-01 -0.33389759865E+00  0.57440736966E+02  0.57922446181E+02  0.74470750000E+01 0. -1.
        -31    1    1    2    0    0 -0.33087012928E-01  0.33389759865E+00  0.61050939869E+02  0.61504380066E+02  0.74470750000E+01 0.  1.
<mgrwt>
<rscale>  0 0.14916077E+02</rscale>
<asrwt>0</asrwt>
<pdfrwt beam="1">  1        2 0.98750456E+00 0.14916077E+02</pdfrwt>
<pdfrwt beam="2">  1       -2 0.99305774E+00 0.14916077E+02</pdfrwt>
<totfact>-0.20891746E-13</totfact>
</mgrwt>
</event>
<event>
 4    1 -0.5170493E-019  0.1502110E+02  0.7818608E-02  0.1867425E+00
         -2   -1    0    0    0  501 -0.00000000000E+00  0.00000000000E+00  0.12013362925E+03  0.12013362928E+03  0.25500000000E-02 0.  1.
          2   -1    0    0  501    0  0.00000000000E+00 -0.00000000000E+00 -0.46954346185E+00  0.46955038608E+00  0.25500000000E-02 0. -1.
         31    1    1    2    0    0  0.37449155275E-01  0.97190153929E+00  0.59359887918E+02  0.59833111358E+02  0.74470750000E+01 0. -1.
        -31    1    1    2    0    0 -0.37449155275E-01 -0.97190153929E+00  0.60304197872E+02  0.60770068307E+02  0.74470750000E+01 0. -1.
<mgrwt>
<rscale>  0 0.15021102E+02</rscale>
<asrwt>0</asrwt>
<pdfrwt beam="2">  1        2 0.99726832E+00 0.15021102E+02</pdfrwt>
<pdfrwt beam="1">  1       -2 0.99723147E+00 0.15021102E+02</pdfrwt>
<totfact>-0.62682710E-14</totfact>
</mgrwt>
</event>
<event>
 4    1 -0.5170493E-019  0.1492363E+02  0.7818608E-02  0.1870408E+00
          2   -1    0    0  501    0  0.00000000000E+00  0.00000000000E+00  0.11916335038E+03  0.11916335041E+03  0.25500000000E-02 0. -1.
         -2   -1    0    0    0  501 -0.00000000000E+00 -0.00000000000E+00 -0.46724331087E+00  0.46725026919E+00  0.25500000000E-02 0.  1.
         31    1    1    2    0    0  0.24863541586E+00 -0.34016467043E+00  0.57700564873E+02  0.58180681023E+02  0.74470750000E+01 0.  1.
        -31    1    1    2    0    0 -0.24863541586E+00  0.34016467043E+00  0.60995542198E+02  0.61449919656E+02  0.74470750000E+01 0.  1.
<mgrwt>
<rscale>  0 0.14923632E+02</rscale>
<asrwt>0</asrwt>
<pdfrwt beam="1">  1        2 0.98918951E+00 0.14923632E+02</pdfrwt>
<pdfrwt beam="2">  1       -2 0.99237070E+00 0.14923632E+02</pdfrwt>
<totfact>-0.14529983E-13</totfact>
</mgrwt>
</event>
<event>
 4    1  0.5170493E-019  0.1490880E+02  0.7818608E-02  0.1870864E+00
         -2   -1    0    0    0  501 -0.00000000000E+00  0.00000000000E+00  0.11838843735E+03  0.11838843737E+03  0.25500000000E-02 0.  1.
          2   -1    0    0  501    0  0.00000000000E+00 -0.00000000000E+00 -0.46936740255E+00  0.46937432938E+00  0.25500000000E-02 0. -1.
         31    1    1    2    0    0  0.18604888971E+00  0.23930422172E+00  0.57911549857E+02  0.58389197747E+02  0.74470750000E+01 0.  1.
        -31    1    1    2    0    0 -0.18604888971E+00 -0.23930422172E+00  0.60007520086E+02  0.60468613955E+02  0.74470750000E+01 0. -1.
<mgrwt>
<rscale>  0 0.14908801E+02</rscale>
<asrwt>0</asrwt>
<pdfrwt beam="2">  1        2 0.99683865E+00 0.14908801E+02</pdfrwt>
<pdfrwt beam="1">  1       -2 0.98279955E+00 0.14908801E+02</pdfrwt>
<totfact> 0.63591092E-13</totfact>
</mgrwt>
</event>
<event>
 4    1  0.5170493E-019  0.1491865E+02  0.7818608E-02  0.1870561E+00
         -2   -1    0    0    0  501 -0.00000000000E+00  0.00000000000E+00  0.11844037602E+03  0.11844037604E+03  0.25500000000E-02 0. -1.
          2   -1    0    0  501    0  0.00000000000E+00 -0.00000000000E+00 -0.46978177454E+00  0.46978869526E+00  0.25500000000E-02 0.  1.
         31    1    1    2    0    0 -0.16001927365E+00 -0.38230861439E+00  0.58155016699E+02  0.58631362421E+02  0.74470750000E+01 0.  1.
        -31    1    1    2    0    0  0.16001927365E+00  0.38230861439E+00  0.59815577542E+02  0.60278802317E+02  0.74470750000E+01 0. -1.
<mgrwt>
<rscale>  0 0.14918652E+02</rscale>
<asrwt>0</asrwt>
<pdfrwt beam="2">  1        2 0.99771693E+00 0.14918652E+02</pdfrwt>
<pdfrwt beam="1">  1       -2 0.98323244E+00 0.14918652E+02</pdfrwt>
<totfact> 0.45953633E-13</totfact>
</mgrwt>
</event>
<event>
 4    1  0.5170493E-019  0.1496735E+02  0.7818608E-02  0.1869066E+00
         -2   -1    0    0    0  501 -0.00000000000E+00  0.00000000000E+00  0.11906823832E+03  0.11906823835E+03  0.25500000000E-02 0. -1.
          2   -1    0    0  501    0  0.00000000000E+00 -0.00000000000E+00 -0.47036051737E+00  0.47036742957E+00  0.25500000000E-02 0.  1.
         31    1    1    2    0    0  0.62618091448E-01  0.13127468791E+00  0.65087631102E+02  0.65512440060E+02  0.74470750000E+01 0. -1.
        -31    1    1    2    0    0 -0.62618091448E-01 -0.13127468791E+00  0.53510246704E+02  0.54026165720E+02  0.74470750000E+01 0.  1.
<mgrwt>
<rscale>  0 0.14967353E+02</rscale>
<asrwt>0</asrwt>
<pdfrwt beam="2">  1        2 0.99896202E+00 0.14967353E+02</pdfrwt>
<pdfrwt beam="1">  1       -2 0.98842883E+00 0.14967353E+02</pdfrwt>
<totfact> 0.36675013E-14</totfact>
</mgrwt>
</event>
<event>
 4    1 -0.5170493E-019  0.1494807E+02  0.7818608E-02  0.1869657E+00
         -2   -1    0    0    0  501 -0.00000000000E+00  0.00000000000E+00  0.11989217359E+03  0.11989217361E+03  0.25500000000E-02 0. -1.
          2   -1    0    0  501    0  0.00000000000E+00 -0.00000000000E+00 -0.46592519171E+00  0.46593216971E+00  0.25500000000E-02 0.  1.
         31    1    1    2    0    0  0.24340370707E+00  0.22291033128E+00  0.64074059127E+02  0.64506223835E+02  0.74470750000E+01 0. -1.
        -31    1    1    2    0    0 -0.24340370707E+00 -0.22291033128E+00  0.55352189267E+02  0.55851881948E+02  0.74470750000E+01 0.  1.
<mgrwt>
<rscale>  0 0.14948071E+02</rscale>
<asrwt>0</asrwt>
<pdfrwt beam="2">  1        2 0.98960554E+00 0.14948071E+02</pdfrwt>
<pdfrwt beam="1">  1       -2 0.99520503E+00 0.14948071E+02</pdfrwt>
<totfact>-0.18449913E-13</totfact>
</mgrwt>
</event>
<event>
 4    1  0.5170493E-019  0.1490107E+02  0.7818608E-02  0.1871102E+00
         -2   -1    0    0    0  501 -0.00000000000E+00  0.00000000000E+00  0.11802363578E+03  0.11802363581E+03  0.25500000000E-02 0.  1.
          2   -1    0    0  501    0  0.00000000000E+00 -0.00000000000E+00 -0.47033016375E+00  0.47033707639E+00  0.25500000000E-02 0. -1.
         31    1    1    2    0    0 -0.13667026789E+00  0.16657678466E+00  0.58206846643E+02  0.58681703697E+02  0.74470750000E+01 0.  1.
        -31    1    1    2    0    0  0.13667026789E+00 -0.16657678466E+00  0.59346458971E+02  0.59812269185E+02  0.74470750000E+01 0. -1.
<mgrwt>
<rscale>  0 0.14901072E+02</rscale>
<asrwt>0</asrwt>
<pdfrwt beam="2">  1        2 0.99886302E+00 0.14901072E+02</pdfrwt>
<pdfrwt beam="1">  1       -2 0.97979107E+00 0.14901072E+02</pdfrwt>
<totfact> 0.50326510E-13</totfact>
</mgrwt>
</event>
<event>
 4    1 -0.5170493E-019  0.1497753E+02  0.7818608E-02  0.1868755E+00
          2   -1    0    0  501    0  0.00000000000E+00  0.00000000000E+00  0.11984362875E+03  0.11984362878E+03  0.25500000000E-02 0. -1.
         -2   -1    0    0    0  501 -0.00000000000E+00 -0.00000000000E+00 -0.46795293003E+00  0.46795987779E+00  0.25500000000E-02 0.  1.
         31    1    1    2    0    0 -0.44735005947E+00 -0.47270257807E+00  0.63272134486E+02  0.63712208393E+02  0.74470750000E+01 0. -1.
        -31    1    1    2    0    0  0.44735005947E+00  0.47270257807E+00  0.56103541335E+02  0.56599380264E+02  0.74470750000E+01 0. -1.
<mgrwt>
<rscale>  0 0.14977529E+02</rscale>
<asrwt>0</asrwt>
<pdfrwt beam="1">  1        2 0.99482039E+00 0.14977529E+02</pdfrwt>
<pdfrwt beam="2">  1       -2 0.99389399E+00 0.14977529E+02</pdfrwt>
<totfact>-0.11794589E-13</totfact>
</mgrwt>
</event>
<event>
 4    1  0.5170493E-019  0.1492260E+02  0.7818608E-02  0.1870440E+00
          2   -1    0    0  501    0  0.00000000000E+00  0.00000000000E+00  0.12029614508E+03  0.12029614510E+03  0.25500000000E-02 0.  1.
         -2   -1    0    0    0  501 -0.00000000000E+00 -0.00000000000E+00 -0.46277936503E+00  0.46278639046E+00  0.25500000000E-02 0. -1.
         31    1    1    2    0    0 -0.13785111304E+00  0.39092878723E+00  0.58293260355E+02  0.58768486088E+02  0.74470750000E+01 0. -1.
        -31    1    1    2    0    0  0.13785111304E+00 -0.39092878723E+00  0.61540105356E+02  0.61990445405E+02  0.74470750000E+01 0.  1.
<mgrwt>
<rscale>  0 0.14922600E+02</rscale>
<asrwt>0</asrwt>
<pdfrwt beam="1">  1        2 0.99851934E+00 0.14922600E+02</pdfrwt>
<pdfrwt beam="2">  1       -2 0.98296242E+00 0.14922600E+02</pdfrwt>
<totfact> 0.34582723E-13</totfact>
</mgrwt>
</event>
<event>
 4    1 -0.5170493E-019  0.1493501E+02  0.7818608E-02  0.1870058E+00
         -2   -1    0    0    0  501 -0.00000000000E+00  0.00000000000E+00  0.12003359552E+03  0.12003359554E+03  0.25500000000E-02 0.  1.
          2   -1    0    0  501    0  0.00000000000E+00 -0.00000000000E+00 -0.46456357675E+00  0.46457057520E+00  0.25500000000E-02 0. -1.
         31    1    1    2    0    0  0.27053095564E+00 -0.43272403733E+00  0.61482603199E+02  0.61934076721E+02  0.74470750000E+01 0.  1.
        -31    1    1    2    0    0 -0.27053095564E+00  0.43272403733E+00  0.58086428739E+02  0.58564089396E+02  0.74470750000E+01 0. -1.
<mgrwt>
<rscale>  0 0.14935014E+02</rscale>
<asrwt>0</asrwt>
<pdfrwt beam="2">  1        2 0.98672922E+00 0.14935014E+02</pdfrwt>
<pdfrwt beam="1">  1       -2 0.99636315E+00 0.14935014E+02</pdfrwt>
<totfact>-0.23829023E-13</totfact>
</mgrwt>
</event>
<event>
 4    1 -0.5170493E-019  0.1493875E+02  0.7818608E-02  0.1869943E+00
         -2   -1    0    0    0  501 -0.00000000000E+00  0.00000000000E+00  0.12009806643E+03  0.12009806646E+03  0.25500000000E-02 0. -1.
          2   -1    0    0  501    0  0.00000000000E+00 -0.00000000000E+00 -0.46454673540E+00  0.46455373410E+00  0.25500000000E-02 0.  1.
         31    1    1    2    0    0 -0.14886495905E-04  0.19711195630E+00  0.55442234956E+02  0.55940496924E+02  0.74470750000E+01 0.  1.
        -31    1    1    2    0    0  0.14886495905E-04 -0.19711195630E+00  0.64191284743E+02  0.64622123272E+02  0.74470750000E+01 0. -1.
<mgrwt>
<rscale>  0 0.14938753E+02</rscale>
<asrwt>0</asrwt>
<pdfrwt beam="2">  1        2 0.98669563E+00 0.14938753E+02</pdfrwt>
<pdfrwt beam="1">  1       -2 0.99689610E+00 0.14938753E+02</pdfrwt>
<totfact>-0.21854357E-13</totfact>
</mgrwt>
</event>
<event>
 4    1 -0.5170493E-019  0.1499792E+02  0.7818608E-02  0.1868132E+00
         -2   -1    0    0    0  501 -0.00000000000E+00  0.00000000000E+00  0.11994732338E+03  0.11994732340E+03  0.25500000000E-02 0.  1.
          2   -1    0    0  501    0  0.00000000000E+00 -0.00000000000E+00 -0.46882262305E+00  0.46882955793E+00  0.25500000000E-02 0. -1.
         31    1    1    2    0    0  0.28766378423E+00  0.76162748300E+00  0.62434423369E+02  0.62882262796E+02  0.74470750000E+01 0.  1.
        -31    1    1    2    0    0 -0.28766378423E+00 -0.76162748300E+00  0.57044077384E+02  0.57533890165E+02  0.74470750000E+01 0.  1.
<mgrwt>
<rscale>  0 0.14997925E+02</rscale>
<asrwt>0</asrwt>
<pdfrwt beam="2">  1        2 0.99573728E+00 0.14997925E+02</pdfrwt>
<pdfrwt beam="1">  1       -2 0.99568500E+00 0.14997925E+02</pdfrwt>
<totfact>-0.10578096E-13</totfact>
</mgrwt>
</event>
<event>
 4    1 -0.5170493E-019  0.1498301E+02  0.7818608E-02  0.1868587E+00
          2   -1    0    0  501    0  0.00000000000E+00  0.00000000000E+00  0.12004089059E+03  0.12004089062E+03  0.25500000000E-02 0.  1.
         -2   -1    0    0    0  501 -0.00000000000E+00 -0.00000000000E+00 -0.46752588590E+00  0.46753284000E+00  0.25500000000E-02 0. -1.
         31    1    1    2    0    0  0.46203688762E-01  0.30415952794E+00  0.65854065020E+02  0.66274515868E+02  0.74470750000E+01 0.  1.
        -31    1    1    2    0    0 -0.46203688762E-01 -0.30415952794E+00  0.53719299688E+02  0.54233907593E+02  0.74470750000E+01 0. -1.
<mgrwt>
<rscale>  0 0.14983010E+02</rscale>
<asrwt>0</asrwt>
<pdfrwt beam="1">  1        2 0.99644796E+00 0.14983010E+02</pdfrwt>
<pdfrwt beam="2">  1       -2 0.99299687E+00 0.14983010E+02</pdfrwt>
<totfact>-0.85186261E-14</totfact>
</mgrwt>
</event>
<event>
 4    1 -0.5170493E-019  0.1497648E+02  0.7818608E-02  0.1868787E+00
         -2   -1    0    0    0  501 -0.00000000000E+00  0.00000000000E+00  0.12039151044E+03  0.12039151047E+03  0.25500000000E-02 0. -1.
          2   -1    0    0  501    0  0.00000000000E+00 -0.00000000000E+00 -0.46575799001E+00  0.46576497051E+00  0.25500000000E-02 0.  1.
         31    1    1    2    0    0 -0.13464171684E+00 -0.40217269867E-04  0.66196386739E+02  0.66614102649E+02  0.74470750000E+01 0. -1.
        -31    1    1    2    0    0  0.13464171684E+00  0.40217269867E-04  0.53729365715E+02  0.54243172792E+02  0.74470750000E+01 0.  1.
<mgrwt>
<rscale>  0 0.14976479E+02</rscale>
<asrwt>0</asrwt>
<pdfrwt beam="2">  1        2 0.98926767E+00 0.14976479E+02</pdfrwt>
<pdfrwt beam="1">  1       -2 0.99933251E+00 0.14976479E+02</pdfrwt>
<totfact>-0.42870693E-14</totfact>
</mgrwt>
</event>
<event>
 4    1 -0.5170493E-019  0.1493515E+02  0.7818608E-02  0.1870054E+00
         -2   -1    0    0    0  501 -0.00000000000E+00  0.00000000000E+00  0.11993259196E+03  0.11993259199E+03  0.25500000000E-02 0. -1.
          2   -1    0    0  501    0  0.00000000000E+00 -0.00000000000E+00 -0.46496337427E+00  0.46497036670E+00  0.25500000000E-02 0.  1.
         31    1    1    2    0    0 -0.46377230343E+00 -0.14823461557E-01  0.57309306562E+02  0.57793000002E+02  0.74470750000E+01 0.  1.
        -31    1    1    2    0    0  0.46377230343E+00  0.14823461557E-01  0.62158322028E+02  0.62604562356E+02  0.74470750000E+01 0. -1.
<mgrwt>
<rscale>  0 0.14935151E+02</rscale>
<asrwt>0</asrwt>
<pdfrwt beam="2">  1        2 0.98757189E+00 0.14935151E+02</pdfrwt>
<pdfrwt beam="1">  1       -2 0.99553128E+00 0.14935151E+02</pdfrwt>
<totfact>-0.23068040E-13</totfact>
</mgrwt>
</event>
<event>
 4    1 -0.5170493E-019  0.1502647E+02  0.7818608E-02  0.1867262E+00
          2   -1    0    0  501    0  0.00000000000E+00  0.00000000000E+00  0.12024754030E+03  0.12024754033E+03  0.25500000000E-02 0. -1.
         -2   -1    0    0    0  501 -0.00000000000E+00 -0.00000000000E+00 -0.46943388030E+00  0.46944080614E+00  0.25500000000E-02 0.  1.
         31    1    1    2    0    0 -0.48104028144E+00 -0.80554141877E+00  0.62547033158E+02  0.62995798111E+02  0.74470750000E+01 0.  1.
        -31    1    1    2    0    0  0.48104028144E+00  0.80554141877E+00  0.57231073264E+02  0.57721183024E+02  0.74470750000E+01 0.  1.
<mgrwt>
<rscale>  0 0.15026469E+02</rscale>
<asrwt>0</asrwt>
<pdfrwt beam="1">  1        2 0.99817246E+00 0.15026469E+02</pdfrwt>
<pdfrwt beam="2">  1       -2 0.99704016E+00 0.15026469E+02</pdfrwt>
<totfact>-0.48450476E-14</totfact>
</mgrwt>
</event>
<event>
 4    1  0.5170493E-019  0.1492883E+02  0.7818608E-02  0.1870248E+00
          2   -1    0    0  501    0  0.00000000000E+00  0.00000000000E+00  0.12002227874E+03  0.12002227877E+03  0.25500000000E-02 0.  1.
         -2   -1    0    0    0  501 -0.00000000000E+00 -0.00000000000E+00 -0.46422262488E+00  0.46422962847E+00  0.25500000000E-02 0. -1.
         31    1    1    2    0    0  0.19954960110E+00  0.44233593547E+00  0.61004972711E+02  0.61459751892E+02  0.74470750000E+01 0.  1.
        -31    1    1    2    0    0 -0.19954960110E+00 -0.44233593547E+00  0.58553083403E+02  0.59026756502E+02  0.74470750000E+01 0. -1.
<mgrwt>
<rscale>  0 0.14928829E+02</rscale>
<asrwt>0</asrwt>
<pdfrwt beam="1">  1        2 0.99626675E+00 0.14928829E+02</pdfrwt>
<pdfrwt beam="2">  1       -2 0.98600748E+00 0.14928829E+02</pdfrwt>
<totfact> 0.30212078E-13</totfact>
</mgrwt>
</event>
<event>
 4    1  0.5170493E-019  0.1490499E+02  0.7818608E-02  0.1870982E+00
         -2   -1    0    0    0  501 -0.00000000000E+00  0.00000000000E+00  0.11899071992E+03  0.11899071994E+03  0.25500000000E-02 0. -1.
          2   -1    0    0  501    0  0.00000000000E+00 -0.00000000000E+00 -0.46675294166E+00  0.46675990728E+00  0.25500000000E-02 0.  1.
         31    1    1    2    0    0  0.26242500340E+00  0.60072942208E-01  0.59991467386E+02  0.60452523197E+02  0.74470750000E+01 0. -1.
        -31    1    1    2    0    0 -0.26242500340E+00 -0.60072942208E-01  0.58532499589E+02  0.59004956655E+02  0.74470750000E+01 0. -1.
<mgrwt>
<rscale>  0 0.14904991E+02</rscale>
<asrwt>0</asrwt>
<pdfrwt beam="2">  1        2 0.99132768E+00 0.14904991E+02</pdfrwt>
<pdfrwt beam="1">  1       -2 0.98775802E+00 0.14904991E+02</pdfrwt>
<totfact> 0.23055394E-13</totfact>
</mgrwt>
</event>
<event>
 4    1  0.5170493E-019  0.1492444E+02  0.7818608E-02  0.1870383E+00
          2   -1    0    0  501    0  0.00000000000E+00  0.00000000000E+00  0.12031583170E+03  0.12031583173E+03  0.25500000000E-02 0.  1.
         -2   -1    0    0    0  501 -0.00000000000E+00 -0.00000000000E+00 -0.46281805105E+00  0.46282507589E+00  0.25500000000E-02 0. -1.
         31    1    1    2    0    0  0.23521889268E+00  0.29483590636E+00  0.57586864706E+02  0.58067617213E+02  0.74470750000E+01 0.  1.
        -31    1    1    2    0    0 -0.23521889268E+00 -0.29483590636E+00  0.62266148948E+02  0.62711039595E+02  0.74470750000E+01 0.  1.
<mgrwt>
<rscale>  0 0.14924445E+02</rscale>
<asrwt>0</asrwt>
<pdfrwt beam="1">  1        2 0.99868244E+00 0.14924445E+02</pdfrwt>
<pdfrwt beam="2">  1       -2 0.98304489E+00 0.14924445E+02</pdfrwt>
<totfact> 0.30771872E-13</totfact>
</mgrwt>
</event>
<event>
 4    1 -0.5170493E-019  0.1496287E+02  0.7818608E-02  0.1869204E+00
         -2   -1    0    0    0  501 -0.00000000000E+00  0.00000000000E+00  0.12011559757E+03  0.12011559760E+03  0.25500000000E-02 0.  1.
          2   -1    0    0  501    0  0.00000000000E+00 -0.00000000000E+00 -0.46598007550E+00  0.46598705268E+00  0.25500000000E-02 0. -1.
         31    1    1    2    0    0  0.34121946710E+00 -0.62365564958E+00  0.60527091094E+02  0.60987646778E+02  0.74470750000E+01 0. -1.
        -31    1    1    2    0    0 -0.34121946710E+00  0.62365564958E+00  0.59122526400E+02  0.59593937872E+02  0.74470750000E+01 0.  1.
<mgrwt>
<rscale>  0 0.14962874E+02</rscale>
<asrwt>0</asrwt>
<pdfrwt beam="2">  1        2 0.98972878E+00 0.14962874E+02</pdfrwt>
<pdfrwt beam="1">  1       -2 0.99705291E+00 0.14962874E+02</pdfrwt>
<totfact>-0.14518515E-13</totfact>
</mgrwt>
</event>
<event>
 4    1 -0.5170493E-019  0.1498694E+02  0.7818608E-02  0.1868467E+00
         -2   -1    0    0    0  501 -0.00000000000E+00  0.00000000000E+00  0.12022147100E+03  0.12022147102E+03  0.25500000000E-02 0. -1.
          2   -1    0    0  501    0  0.00000000000E+00 -0.00000000000E+00 -0.46706853199E+00  0.46707549291E+00  0.25500000000E-02 0.  1.
         31    1    1    2    0    0  0.24612596487E+00 -0.79161258970E+00  0.60497490945E+02  0.60959761853E+02  0.74470750000E+01 0. -1.
        -31    1    1    2    0    0 -0.24612596487E+00  0.79161258970E+00  0.59256911521E+02  0.59728784665E+02  0.74470750000E+01 0. -1.
<mgrwt>
<rscale>  0 0.14986939E+02</rscale>
<asrwt>0</asrwt>
<pdfrwt beam="2">  1        2 0.99203503E+00 0.14986939E+02</pdfrwt>
<pdfrwt beam="1">  1       -2 0.99793734E+00 0.14986939E+02</pdfrwt>
<totfact>-0.91996755E-14</totfact>
</mgrwt>
</event>
<event>
 4    1 -0.5170493E-019  0.1499703E+02  0.7818608E-02  0.1868159E+00
         -2   -1    0    0    0  501 -0.00000000000E+00  0.00000000000E+00  0.12016958622E+03  0.12016958624E+03  0.25500000000E-02 0. -1.
          2   -1    0    0  501    0  0.00000000000E+00 -0.00000000000E+00 -0.46789954459E+00  0.46790649315E+00  0.25500000000E-02 0.  1.
         31    1    1    2    0    0  0.19447671994E+00 -0.25872996434E+00  0.66405801892E+02  0.66822856968E+02  0.74470750000E+01 0. -1.
        -31    1    1    2    0    0 -0.19447671994E+00  0.25872996434E+00  0.53295884779E+02  0.53814635768E+02  0.74470750000E+01 0.  1.
<mgrwt>
<rscale>  0 0.14997028E+02</rscale>
<asrwt>0</asrwt>
<pdfrwt beam="2">  1        2 0.99379153E+00 0.14997028E+02</pdfrwt>
<pdfrwt beam="1">  1       -2 0.99751520E+00 0.14997028E+02</pdfrwt>
<totfact>-0.93349633E-14</totfact>
</mgrwt>
</event>
<event>
 4    1 -0.5170493E-019  0.1498620E+02  0.7818608E-02  0.1868490E+00
         -2   -1    0    0    0  501 -0.00000000000E+00  0.00000000000E+00  0.11988661691E+03  0.11988661694E+03  0.25500000000E-02 0. -1.
          2   -1    0    0  501    0  0.00000000000E+00 -0.00000000000E+00 -0.46832672314E+00  0.46833366536E+00  0.25500000000E-02 0.  1.
         31    1    1    2    0    0 -0.16674946720E+00 -0.79931573545E+00  0.60869868730E+02  0.61329165625E+02  0.74470750000E+01 0. -1.
        -31    1    1    2    0    0  0.16674946720E+00  0.79931573545E+00  0.58548421458E+02  0.59025784979E+02  0.74470750000E+01 0. -1.
<mgrwt>
<rscale>  0 0.14986197E+02</rscale>
<asrwt>0</asrwt>
<pdfrwt beam="2">  1        2 0.99468619E+00 0.14986197E+02</pdfrwt>
<pdfrwt beam="1">  1       -2 0.99517894E+00 0.14986197E+02</pdfrwt>
<totfact>-0.12239535E-13</totfact>
</mgrwt>
</event>
<event>
 4    1 -0.5170493E-019  0.1492798E+02  0.7818608E-02  0.1870274E+00
         -2   -1    0    0    0  501 -0.00000000000E+00  0.00000000000E+00  0.11994690350E+03  0.11994690352E+03  0.25500000000E-02 0. -1.
          2   -1    0    0  501    0  0.00000000000E+00 -0.00000000000E+00 -0.46446152163E+00  0.46446852162E+00  0.25500000000E-02 0.  1.
         31    1    1    2    0    0  0.26131056332E+00 -0.42685199822E+00  0.60076959958E+02  0.60538834889E+02  0.74470750000E+01 0. -1.
        -31    1    1    2    0    0 -0.26131056332E+00  0.42685199822E+00  0.59405482016E+02  0.59872537156E+02  0.74470750000E+01 0. -1.
<mgrwt>
<rscale>  0 0.14927980E+02</rscale>
<asrwt>0</asrwt>
<pdfrwt beam="2">  1        2 0.98651054E+00 0.14927980E+02</pdfrwt>
<pdfrwt beam="1">  1       -2 0.99564547E+00 0.14927980E+02</pdfrwt>
<totfact>-0.26592019E-13</totfact>
</mgrwt>
</event>
<event>
 4    1 -0.5170493E-019  0.1493534E+02  0.7818608E-02  0.1870048E+00
         -2   -1    0    0    0  501 -0.00000000000E+00  0.00000000000E+00  0.11997325684E+03  0.11997325686E+03  0.25500000000E-02 0.  1.
          2   -1    0    0  501    0  0.00000000000E+00 -0.00000000000E+00 -0.46481725810E+00  0.46482425273E+00  0.25500000000E-02 0. -1.
         31    1    1    2    0    0 -0.12726614138E+00  0.46158863298E+00  0.62004577710E+02  0.62452028340E+02  0.74470750000E+01 0. -1.
        -31    1    1    2    0    0  0.12726614138E+00 -0.46158863298E+00  0.57503861869E+02  0.57986052777E+02  0.74470750000E+01 0. -1.
<mgrwt>
<rscale>  0 0.14935336E+02</rscale>
<asrwt>0</asrwt>
<pdfrwt beam="2">  1        2 0.98726403E+00 0.14935336E+02</pdfrwt>
<pdfrwt beam="1">  1       -2 0.99586632E+00 0.14935336E+02</pdfrwt>
<totfact>-0.23419499E-13</totfact>
</mgrwt>
</event>
<event>
 4    1  0.5170493E-019  0.1490633E+02  0.7818608E-02  0.1870940E+00
          2   -1    0    0  501    0  0.00000000000E+00  0.00000000000E+00  0.11980476692E+03  0.11980476695E+03  0.25500000000E-02 0.  1.
         -2   -1    0    0    0  501 -0.00000000000E+00 -0.00000000000E+00 -0.46366455676E+00  0.46367156878E+00  0.25500000000E-02 0. -1.
         31    1    1    2    0    0  0.29505816157E+00 -0.84283883493E-02  0.60154044883E+02  0.60613984956E+02  0.74470750000E+01 0. -1.
        -31    1    1    2    0    0 -0.29505816157E+00  0.84283883493E-02  0.59187057481E+02  0.59654453561E+02  0.74470750000E+01 0.  1.
<mgrwt>
<rscale>  0 0.14906327E+02</rscale>
<asrwt>0</asrwt>
<pdfrwt beam="1">  1        2 0.99446360E+00 0.14906327E+02</pdfrwt>
<pdfrwt beam="2">  1       -2 0.98481985E+00 0.14906327E+02</pdfrwt>
<totfact> 0.53667928E-13</totfact>
</mgrwt>
</event>
<event>
 4    1 -0.5170493E-019  0.1491136E+02  0.7818608E-02  0.1870785E+00
          2   -1    0    0  501    0  0.00000000000E+00  0.00000000000E+00  0.11853994497E+03  0.11853994500E+03  0.25500000000E-02 0.  1.
         -2   -1    0    0    0  501 -0.00000000000E+00 -0.00000000000E+00 -0.46892849619E+00  0.46893542950E+00  0.25500000000E-02 0. -1.
         31    1    1    2    0    0  0.18762602021E+00  0.20518727067E+00  0.60836847588E+02  0.61291583891E+02  0.74470750000E+01 0.  1.
        -31    1    1    2    0    0 -0.18762602021E+00 -0.20518727067E+00  0.57234168889E+02  0.57717296540E+02  0.74470750000E+01 0. -1.
<mgrwt>
<rscale>  0 0.14911361E+02</rscale>
<asrwt>0</asrwt>
<pdfrwt beam="1">  1        2 0.98404869E+00 0.14911361E+02</pdfrwt>
<pdfrwt beam="2">  1       -2 0.99591522E+00 0.14911361E+02</pdfrwt>
<totfact>-0.38433440E-13</totfact>
</mgrwt>
</event>
<event>
 4    1  0.5170493E-019  0.1491575E+02  0.7818608E-02  0.1870650E+00
          2   -1    0    0  501    0  0.00000000000E+00  0.00000000000E+00  0.12013231795E+03  0.12013231798E+03  0.25500000000E-02 0.  1.
         -2   -1    0    0    0  501 -0.00000000000E+00 -0.00000000000E+00 -0.46298536420E+00  0.46299238650E+00  0.25500000000E-02 0. -1.
         31    1    1    2    0    0  0.29584289695E+00 -0.26717925965E-01  0.62015651847E+02  0.62461894279E+02  0.74470750000E+01 0. -1.
        -31    1    1    2    0    0 -0.29584289695E+00  0.26717925965E-01  0.57653680742E+02  0.58133416088E+02  0.74470750000E+01 0.  1.
<mgrwt>
<rscale>  0 0.14915754E+02</rscale>
<asrwt>0</asrwt>
<pdfrwt beam="1">  1        2 0.99716640E+00 0.14915754E+02</pdfrwt>
<pdfrwt beam="2">  1       -2 0.98339314E+00 0.14915754E+02</pdfrwt>
<totfact> 0.51766011E-13</totfact>
</mgrwt>
</event>
<event>
 4    1  0.5170493E-019  0.1489904E+02  0.7818608E-02  0.1871165E+00
         -2   -1    0    0    0  501 -0.00000000000E+00  0.00000000000E+00  0.11884387966E+03  0.11884387969E+03  0.25500000000E-02 0.  1.
          2   -1    0    0  501    0  0.00000000000E+00 -0.00000000000E+00 -0.46695666644E+00  0.46696362903E+00  0.25500000000E-02 0. -1.
         31    1    1    2    0    0  0.10389582296E+00  0.10506221663E-01  0.60467933183E+02  0.60924878122E+02  0.74470750000E+01 0.  1.
        -31    1    1    2    0    0 -0.10389582296E+00 -0.10506221663E-01  0.57908989809E+02  0.58385965193E+02  0.74470750000E+01 0. -1.
<mgrwt>
<rscale>  0 0.14899041E+02</rscale>
<asrwt>0</asrwt>
<pdfrwt beam="2">  1        2 0.99175387E+00 0.14899041E+02</pdfrwt>
<pdfrwt beam="1">  1       -2 0.98654553E+00 0.14899041E+02</pdfrwt>
<totfact> 0.38002303E-13</totfact>
</mgrwt>
</event>
<event>
 4    1  0.5170493E-019  0.1490815E+02  0.7818608E-02  0.1870884E+00
         -2   -1    0    0    0  501 -0.00000000000E+00  0.00000000000E+00  0.11912263789E+03  0.11912263792E+03  0.25500000000E-02 0. -1.
          2   -1    0    0  501    0  0.00000000000E+00 -0.00000000000E+00 -0.46643361153E+00  0.46644058192E+00  0.25500000000E-02 0.  1.
         31    1    1    2    0    0  0.19080141507E+00  0.76637428629E-01  0.57330449181E+02  0.57812469311E+02  0.74470750000E+01 0.  1.
        -31    1    1    2    0    0 -0.19080141507E+00 -0.76637428629E-01  0.61325755101E+02  0.61776609192E+02  0.74470750000E+01 0. -1.
<mgrwt>
<rscale>  0 0.14908148E+02</rscale>
<asrwt>0</asrwt>
<pdfrwt beam="2">  1        2 0.99065640E+00 0.14908148E+02</pdfrwt>
<pdfrwt beam="1">  1       -2 0.98884617E+00 0.14908148E+02</pdfrwt>
<totfact> 0.11790414E-13</totfact>
</mgrwt>
</event>
<event>
 4    1  0.5170493E-019  0.1489947E+02  0.7818608E-02  0.1871152E+00
         -2   -1    0    0    0  501 -0.00000000000E+00  0.00000000000E+00  0.11875403076E+03  0.11875403079E+03  0.25500000000E-02 0. -1.
          2   -1    0    0  501    0  0.00000000000E+00 -0.00000000000E+00 -0.46733676332E+00  0.46734372025E+00  0.25500000000E-02 0.  1.
         31    1    1    2    0    0  0.11860680299E+00  0.13481801749E+00  0.58456354740E+02  0.58929080928E+02  0.74470750000E+01 0. -1.
        -31    1    1    2    0    0 -0.11860680299E+00 -0.13481801749E+00  0.59830339259E+02  0.60292293581E+02  0.74470750000E+01 0. -1.
<mgrwt>
<rscale>  0 0.14899469E+02</rscale>
<asrwt>0</asrwt>
<pdfrwt beam="2">  1        2 0.99255503E+00 0.14899469E+02</pdfrwt>
<pdfrwt beam="1">  1       -2 0.98580574E+00 0.14899469E+02</pdfrwt>
<totfact> 0.46346825E-13</totfact>
</mgrwt>
</event>
<event>
 4    1 -0.5170493E-019  0.1490473E+02  0.7818608E-02  0.1870990E+00
          2   -1    0    0  501    0  0.00000000000E+00  0.00000000000E+00  0.11882372016E+03  0.11882372019E+03  0.25500000000E-02 0. -1.
         -2   -1    0    0    0  501 -0.00000000000E+00 -0.00000000000E+00 -0.46739255509E+00  0.46739951118E+00  0.25500000000E-02 0.  1.
         31    1    1    2    0    0 -0.25861533126E+00  0.10136653716E+00  0.58852507449E+02  0.59322455412E+02  0.74470750000E+01 0.  1.
        -31    1    1    2    0    0  0.25861533126E+00 -0.10136653716E+00  0.59503820158E+02  0.59968664288E+02  0.74470750000E+01 0.  1.
<mgrwt>
<rscale>  0 0.14904729E+02</rscale>
<asrwt>0</asrwt>
<pdfrwt beam="1">  1        2 0.98638244E+00 0.14904729E+02</pdfrwt>
<pdfrwt beam="2">  1       -2 0.99267534E+00 0.14904729E+02</pdfrwt>
<totfact>-0.22699771E-13</totfact>
</mgrwt>
</event>
<event>
 4    1 -0.5170493E-019  0.1494370E+02  0.7818608E-02  0.1869791E+00
          2   -1    0    0  501    0  0.00000000000E+00  0.00000000000E+00  0.11886480387E+03  0.11886480390E+03  0.25500000000E-02 0.  1.
         -2   -1    0    0    0  501 -0.00000000000E+00 -0.00000000000E+00 -0.46967781345E+00  0.46968473570E+00  0.25500000000E-02 0. -1.
         31    1    1    2    0    0  0.38349264123E+00  0.35028919022E+00  0.61721325151E+02  0.62171140199E+02  0.74470750000E+01 0.  1.
        -31    1    1    2    0    0 -0.38349264123E+00 -0.35028919022E+00  0.56673800908E+02  0.57163348437E+02  0.74470750000E+01 0. -1.
<mgrwt>
<rscale>  0 0.14943704E+02</rscale>
<asrwt>0</asrwt>
<pdfrwt beam="1">  1        2 0.98674105E+00 0.14943704E+02</pdfrwt>
<pdfrwt beam="2">  1       -2 0.99751108E+00 0.14943704E+02</pdfrwt>
<totfact>-0.18659627E-13</totfact>
</mgrwt>
</event>
<event>
 4    1  0.5170493E-019  0.1495051E+02  0.7818608E-02  0.1869583E+00
         -2   -1    0    0    0  501 -0.00000000000E+00  0.00000000000E+00  0.11886424282E+03  0.11886424284E+03  0.25500000000E-02 0.  1.
          2   -1    0    0  501    0  0.00000000000E+00 -0.00000000000E+00 -0.47010769263E+00  0.47011460855E+00  0.25500000000E-02 0. -1.
         31    1    1    2    0    0  0.78718069651E-01 -0.51720653731E+00  0.62255148594E+02  0.62701165473E+02  0.74470750000E+01 0.  1.
        -31    1    1    2    0    0 -0.78718069651E-01  0.51720653731E+00  0.56138986529E+02  0.56633191979E+02  0.74470750000E+01 0. -1.
<mgrwt>
<rscale>  0 0.14950506E+02</rscale>
<asrwt>0</asrwt>
<pdfrwt beam="2">  1        2 0.99842044E+00 0.14950506E+02</pdfrwt>
<pdfrwt beam="1">  1       -2 0.98673996E+00 0.14950506E+02</pdfrwt>
<totfact> 0.12406038E-13</totfact>
</mgrwt>
</event>
<event>
 4    1  0.5170493E-019  0.1492387E+02  0.7818608E-02  0.1870401E+00
         -2   -1    0    0    0  501 -0.00000000000E+00  0.00000000000E+00  0.11878343534E+03  0.11878343537E+03  0.25500000000E-02 0. -1.
          2   -1    0    0  501    0  0.00000000000E+00 -0.00000000000E+00 -0.46875247363E+00  0.46875940954E+00  0.25500000000E-02 0.  1.
         31    1    1    2    0    0  0.40055898563E+00 -0.24668077634E+00  0.59275693730E+02  0.59743519248E+02  0.74470750000E+01 0. -1.
        -31    1    1    2    0    0 -0.40055898563E+00  0.24668077634E+00  0.59038989137E+02  0.59508675530E+02  0.74470750000E+01 0.  1.
<mgrwt>
<rscale>  0 0.14923866E+02</rscale>
<asrwt>0</asrwt>
<pdfrwt beam="2">  1        2 0.99555090E+00 0.14923866E+02</pdfrwt>
<pdfrwt beam="1">  1       -2 0.98606058E+00 0.14923866E+02</pdfrwt>
<totfact> 0.32839126E-13</totfact>
</mgrwt>
</event>
<event>
 4    1 -0.5170493E-019  0.1491313E+02  0.7818608E-02  0.1870731E+00
         -2   -1    0    0    0  501 -0.00000000000E+00  0.00000000000E+00  0.12000483887E+03  0.12000483890E+03  0.25500000000E-02 0.  1.
          2   -1    0    0  501    0  0.00000000000E+00 -0.00000000000E+00 -0.46331426754E+00  0.46332128486E+00  0.25500000000E-02 0. -1.
         31    1    1    2    0    0 -0.27274715698E+00 -0.10903752702E-02  0.57678888694E+02  0.58158297080E+02  0.74470750000E+01 0. -1.
        -31    1    1    2    0    0  0.27274715698E+00  0.10903752702E-02  0.61862635907E+02  0.62309863101E+02  0.74470750000E+01 0.  1.
<mgrwt>
<rscale>  0 0.14913132E+02</rscale>
<asrwt>0</asrwt>
<pdfrwt beam="2">  1        2 0.98408503E+00 0.14913132E+02</pdfrwt>
<pdfrwt beam="1">  1       -2 0.99611504E+00 0.14913132E+02</pdfrwt>
<totfact>-0.37380629E-13</totfact>
</mgrwt>
</event>
<event>
 4    1 -0.5170493E-019  0.1493813E+02  0.7818608E-02  0.1869962E+00
         -2   -1    0    0    0  501 -0.00000000000E+00  0.00000000000E+00  0.11966440511E+03  0.11966440514E+03  0.25500000000E-02 0.  1.
          2   -1    0    0  501    0  0.00000000000E+00 -0.00000000000E+00 -0.46619128877E+00  0.46619826279E+00  0.25500000000E-02 0. -1.
         31    1    1    2    0    0  0.22838619671E+00 -0.50845392050E+00  0.58540994251E+02  0.59015401545E+02  0.74470750000E+01 0. -1.
        -31    1    1    2    0    0 -0.22838619671E+00  0.50845392050E+00  0.60657219570E+02  0.61115201854E+02  0.74470750000E+01 0.  1.
<mgrwt>
<rscale>  0 0.14938129E+02</rscale>
<asrwt>0</asrwt>
<pdfrwt beam="2">  1        2 0.99016122E+00 0.14938129E+02</pdfrwt>
<pdfrwt beam="1">  1       -2 0.99332388E+00 0.14938129E+02</pdfrwt>
<totfact>-0.16073534E-13</totfact>
</mgrwt>
</event>
<event>
 4    1 -0.5170493E-019  0.1496411E+02  0.7818608E-02  0.1869166E+00
         -2   -1    0    0    0  501 -0.00000000000E+00  0.00000000000E+00  0.11974487805E+03  0.11974487807E+03  0.25500000000E-02 0.  1.
          2   -1    0    0  501    0  0.00000000000E+00 -0.00000000000E+00 -0.46749984596E+00  0.46750680046E+00  0.25500000000E-02 0. -1.
         31    1    1    2    0    0  0.49004884364E+00 -0.22400979682E+00  0.55770323059E+02  0.56267914378E+02  0.74470750000E+01 0.  1.
        -31    1    1    2    0    0 -0.49004884364E+00  0.22400979682E+00  0.63507055142E+02  0.63944470497E+02  0.74470750000E+01 0.  1.
<mgrwt>
<rscale>  0 0.14964108E+02</rscale>
<asrwt>0</asrwt>
<pdfrwt beam="2">  1        2 0.99293225E+00 0.14964108E+02</pdfrwt>
<pdfrwt beam="1">  1       -2 0.99400011E+00 0.14964108E+02</pdfrwt>
<totfact>-0.13849949E-13</totfact>
</mgrwt>
</event>
<event>
 4    1 -0.5170493E-019  0.1499684E+02  0.7818608E-02  0.1868165E+00
         -2   -1    0    0    0  501 -0.00000000000E+00  0.00000000000E+00  0.12008669497E+03  0.12008669500E+03  0.25500000000E-02 0. -1.
          2   -1    0    0  501    0  0.00000000000E+00 -0.00000000000E+00 -0.46821072905E+00  0.46821767299E+00  0.25500000000E-02 0.  1.
         31    1    1    2    0    0  0.64987951370E+00  0.51885619249E+00  0.62022700496E+02  0.62473721339E+02  0.74470750000E+01 0. -1.
        -31    1    1    2    0    0 -0.64987951370E+00 -0.51885619249E+00  0.57595783747E+02  0.58081191333E+02  0.74470750000E+01 0. -1.
<mgrwt>
<rscale>  0 0.14996840E+02</rscale>
<asrwt>0</asrwt>
<pdfrwt beam="2">  1        2 0.99444723E+00 0.14996840E+02</pdfrwt>
<pdfrwt beam="1">  1       -2 0.99683237E+00 0.14996840E+02</pdfrwt>
<totfact>-0.10428656E-13</totfact>
</mgrwt>
</event>
<event>
 4    1  0.5170493E-019  0.1489503E+02  0.7818608E-02  0.1871289E+00
          2   -1    0    0  501    0  0.00000000000E+00  0.00000000000E+00  0.11923859285E+03  0.11923859288E+03  0.25500000000E-02 0. -1.
         -2   -1    0    0    0  501 -0.00000000000E+00 -0.00000000000E+00 -0.46516042021E+00  0.46516740968E+00  0.25500000000E-02 0.  1.
         31    1    1    2    0    0  0.70349044947E-01  0.22520177332E-02  0.59063872803E+02  0.59531545844E+02  0.74470750000E+01 0.  1.
        -31    1    1    2    0    0 -0.70349044947E-01 -0.22520177332E-02  0.59709559628E+02  0.60172214444E+02  0.74470750000E+01 0. -1.
<mgrwt>
<rscale>  0 0.14895032E+02</rscale>
<asrwt>0</asrwt>
<pdfrwt beam="1">  1        2 0.98979444E+00 0.14895032E+02</pdfrwt>
<pdfrwt beam="2">  1       -2 0.98796657E+00 0.14895032E+02</pdfrwt>
<totfact> 0.23553669E-13</totfact>
</mgrwt>
</event>
<event>
 4    1  0.5170493E-019  0.1492031E+02  0.7818608E-02  0.1870510E+00
         -2   -1    0    0    0  501 -0.00000000000E+00  0.00000000000E+00  0.11874863891E+03  0.11874863893E+03  0.25500000000E-02 0. -1.
          2   -1    0    0  501    0  0.00000000000E+00 -0.00000000000E+00 -0.46866642167E+00  0.46867335885E+00  0.25500000000E-02 0.  1.
         31    1    1    2    0    0 -0.29569299310E+00 -0.15982125757E+00  0.56851759385E+02  0.57338420352E+02  0.74470750000E+01 0.  1.
        -31    1    1    2    0    0  0.29569299310E+00  0.15982125757E+00  0.61428213101E+02  0.61878891942E+02  0.74470750000E+01 0. -1.
<mgrwt>
<rscale>  0 0.14920310E+02</rscale>
<asrwt>0</asrwt>
<pdfrwt beam="2">  1        2 0.99536771E+00 0.14920310E+02</pdfrwt>
<pdfrwt beam="1">  1       -2 0.98577215E+00 0.14920310E+02</pdfrwt>
<totfact> 0.36914758E-13</totfact>
</mgrwt>
</event>
<event>
 4    1 -0.5170493E-019  0.1491930E+02  0.7818608E-02  0.1870541E+00
          2   -1    0    0  501    0  0.00000000000E+00  0.00000000000E+00  0.11863301288E+03  0.11863301291E+03  0.25500000000E-02 0.  1.
         -2   -1    0    0    0  501 -0.00000000000E+00 -0.00000000000E+00 -0.46905941983E+00  0.46906635120E+00  0.25500000000E-02 0. -1.
         31    1    1    2    0    0  0.17075847292E+00 -0.33284903546E+00  0.57342586121E+02  0.57825349597E+02  0.74470750000E+01 0. -1.
        -31    1    1    2    0    0 -0.17075847292E+00  0.33284903546E+00  0.60821367339E+02  0.61276729661E+02  0.74470750000E+01 0.  1.
<mgrwt>
<rscale>  0 0.14919296E+02</rscale>
<asrwt>0</asrwt>
<pdfrwt beam="1">  1        2 0.98481932E+00 0.14919296E+02</pdfrwt>
<pdfrwt beam="2">  1       -2 0.99619526E+00 0.14919296E+02</pdfrwt>
<totfact>-0.32793321E-13</totfact>
</mgrwt>
</event>
<event>
 4    1  0.5170493E-019  0.1494830E+02  0.7818608E-02  0.1869650E+00
          2   -1    0    0  501    0  0.00000000000E+00  0.00000000000E+00  0.12007899759E+03  0.12007899762E+03  0.25500000000E-02 0. -1.
         -2   -1    0    0    0  501 -0.00000000000E+00 -0.00000000000E+00 -0.46521440587E+00  0.46522139453E+00  0.25500000000E-02 0.  1.
         31    1    1    2    0    0  0.19050968943E+00 -0.57801463889E+00  0.58329129938E+02  0.58805754143E+02  0.74470750000E+01 0.  1.
        -31    1    1    2    0    0 -0.19050968943E+00  0.57801463889E+00  0.61284653245E+02  0.61738464868E+02  0.74470750000E+01 0. -1.
<mgrwt>
<rscale>  0 0.14948298E+02</rscale>
<asrwt>0</asrwt>
<pdfrwt beam="1">  1        2 0.99674394E+00 0.14948298E+02</pdfrwt>
<pdfrwt beam="2">  1       -2 0.98810766E+00 0.14948298E+02</pdfrwt>
<totfact> 0.11074328E-13</totfact>
</mgrwt>
</event>
<event>
 4    1  0.5170493E-019  0.1490447E+02  0.7818608E-02  0.1870998E+00
          2   -1    0    0  501    0  0.00000000000E+00  0.00000000000E+00  0.12020915601E+03  0.12020915603E+03  0.25500000000E-02 0.  1.
         -2   -1    0    0    0  501 -0.00000000000E+00 -0.00000000000E+00 -0.46198967451E+00  0.46199671195E+00  0.25500000000E-02 0. -1.
         31    1    1    2    0    0  0.11488710639E+00 -0.13167217300E+00  0.61616686590E+02  0.62065332747E+02  0.74470750000E+01 0.  1.
        -31    1    1    2    0    0 -0.11488710639E+00  0.13167217300E+00  0.58130479743E+02  0.58605819999E+02  0.74470750000E+01 0. -1.
<mgrwt>
<rscale>  0 0.14904471E+02</rscale>
<asrwt>0</asrwt>
<pdfrwt beam="1">  1        2 0.99779352E+00 0.14904471E+02</pdfrwt>
<pdfrwt beam="2">  1       -2 0.98128881E+00 0.14904471E+02</pdfrwt>
<totfact> 0.66666440E-13</totfact>
</mgrwt>
</event>
<event>
 4    1 -0.5170493E-019  0.1491211E+02  0.7818608E-02  0.1870763E+00
          2   -1    0    0  501    0  0.00000000000E+00  0.00000000000E+00  0.11889204690E+03  0.11889204693E+03  0.25500000000E-02 0.  1.
         -2   -1    0    0    0  501 -0.00000000000E+00 -0.00000000000E+00 -0.46758644646E+00  0.46759339967E+00  0.25500000000E-02 0. -1.
         31    1    1    2    0    0 -0.18929419459E+00 -0.30351221362E+00  0.58600114301E+02  0.59072500151E+02  0.74470750000E+01 0.  1.
        -31    1    1    2    0    0  0.18929419459E+00  0.30351221362E+00  0.59824346154E+02  0.60287140177E+02  0.74470750000E+01 0.  1.
<mgrwt>
<rscale>  0 0.14912106E+02</rscale>
<asrwt>0</asrwt>
<pdfrwt beam="1">  1        2 0.98694902E+00 0.14912106E+02</pdfrwt>
<pdfrwt beam="2">  1       -2 0.99308776E+00 0.14912106E+02</pdfrwt>
<totfact>-0.22688121E-13</totfact>
</mgrwt>
</event>
<event>
 4    1 -0.5170493E-019  0.1490505E+02  0.7818608E-02  0.1870980E+00
         -2   -1    0    0    0  501 -0.00000000000E+00  0.00000000000E+00  0.12032538122E+03  0.12032538124E+03  0.25500000000E-02 0. -1.
          2   -1    0    0  501    0  0.00000000000E+00 -0.00000000000E+00 -0.46157953838E+00  0.46158658207E+00  0.25500000000E-02 0.  1.
         31    1    1    2    0    0  0.25250745469E-01  0.15396962428E+00  0.61864789923E+02  0.62311600064E+02  0.74470750000E+01 0. -1.
        -31    1    1    2    0    0 -0.25250745469E-01 -0.15396962428E+00  0.57999011756E+02  0.58475367763E+02  0.74470750000E+01 0.  1.
<mgrwt>
<rscale>  0 0.14905054E+02</rscale>
<asrwt>0</asrwt>
<pdfrwt beam="2">  1        2 0.98042463E+00 0.14905054E+02</pdfrwt>
<pdfrwt beam="1">  1       -2 0.99875116E+00 0.14905054E+02</pdfrwt>
<totfact>-0.29669746E-13</totfact>
</mgrwt>
</event>
<event>
 4    1  0.5170493E-019  0.1490142E+02  0.7818608E-02  0.1871092E+00
         -2   -1    0    0    0  501 -0.00000000000E+00  0.00000000000E+00  0.11805798866E+03  0.11805798869E+03  0.25500000000E-02 0. -1.
          2   -1    0    0  501    0  0.00000000000E+00 -0.00000000000E+00 -0.47021549363E+00  0.47022240796E+00  0.25500000000E-02 0.  1.
         31    1    1    2    0    0  0.15862036624E+00  0.10041867452E+00  0.57699317840E+02  0.58178221437E+02  0.74470750000E+01 0.  1.
        -31    1    1    2    0    0 -0.15862036624E+00 -0.10041867452E+00  0.59888455326E+02  0.60349989658E+02  0.74470750000E+01 0.  1.
<mgrwt>
<rscale>  0 0.14901424E+02</rscale>
<asrwt>0</asrwt>
<pdfrwt beam="2">  1        2 0.99862161E+00 0.14901424E+02</pdfrwt>
<pdfrwt beam="1">  1       -2 0.98007418E+00 0.14901424E+02</pdfrwt>
<totfact> 0.56646216E-13</totfact>
</mgrwt>
</event>
<event>
 4    1 -0.5170493E-019  0.1491968E+02  0.7818608E-02  0.1870529E+00
         -2   -1    0    0    0  501 -0.00000000000E+00  0.00000000000E+00  0.11994006027E+03  0.11994006030E+03  0.25500000000E-02 0.  1.
          2   -1    0    0  501    0  0.00000000000E+00 -0.00000000000E+00 -0.46397188581E+00  0.46397889319E+00  0.25500000000E-02 0. -1.
         31    1    1    2    0    0 -0.19807420992E+00  0.37579936075E+00  0.60539179853E+02  0.60996980924E+02  0.74470750000E+01 0. -1.
        -31    1    1    2    0    0  0.19807420992E+00 -0.37579936075E+00  0.58936908536E+02  0.59407058270E+02  0.74470750000E+01 0. -1.
<mgrwt>
<rscale>  0 0.14919684E+02</rscale>
<asrwt>0</asrwt>
<pdfrwt beam="2">  1        2 0.98547437E+00 0.14919684E+02</pdfrwt>
<pdfrwt beam="1">  1       -2 0.99558484E+00 0.14919684E+02</pdfrwt>
<totfact>-0.31321821E-13</totfact>
</mgrwt>
</event>
<event>
 4    1 -0.5170493E-019  0.1493190E+02  0.7818608E-02  0.1870154E+00
         -2   -1    0    0    0  501 -0.00000000000E+00  0.00000000000E+00  0.12028457037E+03  0.12028457039E+03  0.25500000000E-02 0.  1.
          2   -1    0    0  501    0  0.00000000000E+00 -0.00000000000E+00 -0.46340066088E+00  0.46340767689E+00  0.25500000000E-02 0. -1.
         31    1    1    2    0    0 -0.25487553068E+00 -0.46382595095E+00  0.59613188505E+02  0.60078875371E+02  0.74470750000E+01 0. -1.
        -31    1    1    2    0    0  0.25487553068E+00  0.46382595095E+00  0.60207981199E+02  0.60669102698E+02  0.74470750000E+01 0.  1.
<mgrwt>
<rscale>  0 0.14931895E+02</rscale>
<asrwt>0</asrwt>
<pdfrwt beam="2">  1        2 0.98427663E+00 0.14931895E+02</pdfrwt>
<pdfrwt beam="1">  1       -2 0.99842877E+00 0.14931895E+02</pdfrwt>
<totfact>-0.19000416E-13</totfact>
</mgrwt>
</event>
<event>
 4    1 -0.5170493E-019  0.1494643E+02  0.7818608E-02  0.1869708E+00
          2   -1    0    0  501    0  0.00000000000E+00  0.00000000000E+00  0.11886276739E+03  0.11886276742E+03  0.25500000000E-02 0.  1.
         -2   -1    0    0    0  501 -0.00000000000E+00 -0.00000000000E+00 -0.46985737871E+00  0.46986429831E+00  0.25500000000E-02 0. -1.
         31    1    1    2    0    0 -0.35613459976E+00 -0.42482615759E+00  0.56900057964E+02  0.57388002504E+02  0.74470750000E+01 0. -1.
        -31    1    1    2    0    0  0.35613459976E+00  0.42482615759E+00  0.61492852047E+02  0.61944629211E+02  0.74470750000E+01 0.  1.
<mgrwt>
<rscale>  0 0.14946433E+02</rscale>
<asrwt>0</asrwt>
<pdfrwt beam="1">  1        2 0.98672569E+00 0.14946433E+02</pdfrwt>
<pdfrwt beam="2">  1       -2 0.99789087E+00 0.14946433E+02</pdfrwt>
<totfact>-0.16480317E-13</totfact>
</mgrwt>
</event>
<event>
 4    1 -0.5170493E-019  0.1503638E+02  0.7818608E-02  0.1866961E+00
         -2   -1    0    0    0  501 -0.00000000000E+00  0.00000000000E+00  0.12011197409E+03  0.12011197412E+03  0.25500000000E-02 0.  1.
          2   -1    0    0  501    0  0.00000000000E+00 -0.00000000000E+00 -0.47058361140E+00  0.47059052032E+00  0.25500000000E-02 0. -1.
         31    1    1    2    0    0 -0.96122474278E+00 -0.31810612836E+00  0.61405902772E+02  0.61864116948E+02  0.74470750000E+01 0.  1.
        -31    1    1    2    0    0  0.96122474278E+00  0.31810612836E+00  0.58235487708E+02  0.58718447690E+02  0.74470750000E+01 0.  1.
<mgrwt>
<rscale>  0 0.15036375E+02</rscale>
<asrwt>0</asrwt>
<pdfrwt beam="2">  1        2 0.99946815E+00 0.15036375E+02</pdfrwt>
<pdfrwt beam="1">  1       -2 0.99706101E+00 0.15036375E+02</pdfrwt>
<totfact>-0.16197638E-14</totfact>
</mgrwt>
</event>
<event>
 4    1 -0.5170493E-019  0.1491116E+02  0.7818608E-02  0.1870792E+00
          2   -1    0    0  501    0  0.00000000000E+00  0.00000000000E+00  0.11811309721E+03  0.11811309724E+03  0.25500000000E-02 0. -1.
         -2   -1    0    0    0  501 -0.00000000000E+00 -0.00000000000E+00 -0.47061069595E+00  0.47061760447E+00  0.25500000000E-02 0.  1.
         31    1    1    2    0    0 -0.22405351767E+00 -0.18705312965E+00  0.60442951030E+02  0.60900693297E+02  0.74470750000E+01 0. -1.
        -31    1    1    2    0    0  0.22405351767E+00  0.18705312965E+00  0.57199535487E+02  0.57683021547E+02  0.74470750000E+01 0.  1.
<mgrwt>
<rscale>  0 0.14911163E+02</rscale>
<asrwt>0</asrwt>
<pdfrwt beam="1">  1        2 0.98053312E+00 0.14911163E+02</pdfrwt>
<pdfrwt beam="2">  1       -2 0.99945943E+00 0.14911163E+02</pdfrwt>
<totfact>-0.13360745E-13</totfact>
</mgrwt>
</event>
<event>
 4    1 -0.5170493E-019  0.1501531E+02  0.7818608E-02  0.1867602E+00
          2   -1    0    0  501    0  0.00000000000E+00  0.00000000000E+00  0.12009016526E+03  0.12009016529E+03  0.25500000000E-02 0. -1.
         -2   -1    0    0    0  501 -0.00000000000E+00 -0.00000000000E+00 -0.46935119627E+00  0.46935812333E+00  0.25500000000E-02 0.  1.
         31    1    1    2    0    0 -0.68515519319E+00  0.28555702816E+00  0.64594133721E+02  0.65026240993E+02  0.74470750000E+01 0. -1.
        -31    1    1    2    0    0  0.68515519319E+00 -0.28555702816E+00  0.55026680341E+02  0.55533282416E+02  0.74470750000E+01 0. -1.
<mgrwt>
<rscale>  0 0.15015310E+02</rscale>
<asrwt>0</asrwt>
<pdfrwt beam="1">  1        2 0.99687049E+00 0.15015310E+02</pdfrwt>
<pdfrwt beam="2">  1       -2 0.99686015E+00 0.15015310E+02</pdfrwt>
<totfact>-0.74700774E-14</totfact>
</mgrwt>
</event>
<event>
 4    1  0.5170493E-019  0.1492165E+02  0.7818608E-02  0.1870469E+00
          2   -1    0    0  501    0  0.00000000000E+00  0.00000000000E+00  0.11959733843E+03  0.11959733846E+03  0.25500000000E-02 0.  1.
         -2   -1    0    0    0  501 -0.00000000000E+00 -0.00000000000E+00 -0.46542431852E+00  0.46543130403E+00  0.25500000000E-02 0. -1.
         31    1    1    2    0    0  0.32277002490E+00  0.23583987883E+00  0.61276675487E+02  0.61728839984E+02  0.74470750000E+01 0. -1.
        -31    1    1    2    0    0 -0.32277002490E+00 -0.23583987883E+00  0.57855238625E+02  0.58333929778E+02  0.74470750000E+01 0. -1.
<mgrwt>
<rscale>  0 0.14921653E+02</rscale>
<asrwt>0</asrwt>
<pdfrwt beam="1">  1        2 0.99276298E+00 0.14921653E+02</pdfrwt>
<pdfrwt beam="2">  1       -2 0.98853641E+00 0.14921653E+02</pdfrwt>
<totfact> 0.12864346E-13</totfact>
</mgrwt>
</event>
<event>
 4    1 -0.5170493E-019  0.1502477E+02  0.7818608E-02  0.1867314E+00
          2   -1    0    0  501    0  0.00000000000E+00  0.00000000000E+00  0.12020882772E+03  0.12020882775E+03  0.25500000000E-02 0.  1.
         -2   -1    0    0    0  501 -0.00000000000E+00 -0.00000000000E+00 -0.46947888603E+00  0.46948581121E+00  0.25500000000E-02 0. -1.
         31    1    1    2    0    0  0.24583914738E+00  0.84497354800E+00  0.63484794051E+02  0.63926148163E+02  0.74470750000E+01 0. -1.
        -31    1    1    2    0    0 -0.24583914738E+00 -0.84497354800E+00  0.56254554783E+02  0.56752165395E+02  0.74470750000E+01 0. -1.
<mgrwt>
<rscale>  0 0.15024770E+02</rscale>
<asrwt>0</asrwt>
<pdfrwt beam="1">  1        2 0.99785273E+00 0.15024770E+02</pdfrwt>
<pdfrwt beam="2">  1       -2 0.99713413E+00 0.15024770E+02</pdfrwt>
<totfact>-0.53787525E-14</totfact>
</mgrwt>
</event>
<event>
 4    1 -0.5170493E-019  0.1497477E+02  0.7818608E-02  0.1868839E+00
          2   -1    0    0  501    0  0.00000000000E+00  0.00000000000E+00  0.11971107061E+03  0.11971107063E+03  0.25500000000E-02 0. -1.
         -2   -1    0    0    0  501 -0.00000000000E+00 -0.00000000000E+00 -0.46829877830E+00  0.46830572093E+00  0.25500000000E-02 0.  1.
         31    1    1    2    0    0 -0.15857824017E+00 -0.23891604115E+00  0.53835189118E+02  0.54348585459E+02  0.74470750000E+01 0.  1.
        -31    1    1    2    0    0  0.15857824017E+00  0.23891604115E+00  0.65407582709E+02  0.65830790895E+02  0.74470750000E+01 0. -1.
<mgrwt>
<rscale>  0 0.14974774E+02</rscale>
<asrwt>0</asrwt>
<pdfrwt beam="1">  1        2 0.99372717E+00 0.14974774E+02</pdfrwt>
<pdfrwt beam="2">  1       -2 0.99462139E+00 0.14974774E+02</pdfrwt>
<totfact>-0.13370665E-13</totfact>
</mgrwt>
</event>
<event>
 4    1 -0.5170493E-019  0.1496603E+02  0.7818608E-02  0.1869107E+00
         -2   -1    0    0    0  501 -0.00000000000E+00  0.00000000000E+00  0.11998005578E+03  0.11998005581E+03  0.25500000000E-02 0.  1.
          2   -1    0    0  501    0  0.00000000000E+00 -0.00000000000E+00 -0.46670327212E+00  0.46671023848E+00  0.25500000000E-02 0. -1.
         31    1    1    2    0    0  0.61320526128E-01 -0.37834887578E+00  0.54732811127E+02  0.55238450811E+02  0.74470750000E+01 0. -1.
        -31    1    1    2    0    0 -0.61320526128E-01  0.37834887578E+00  0.64780541381E+02  0.65208315235E+02  0.74470750000E+01 0.  1.
<mgrwt>
<rscale>  0 0.14966029E+02</rscale>
<asrwt>0</asrwt>
<pdfrwt beam="2">  1        2 0.99125453E+00 0.14966029E+02</pdfrwt>
<pdfrwt beam="1">  1       -2 0.99593813E+00 0.14966029E+02</pdfrwt>
<totfact>-0.15128377E-13</totfact>
</mgrwt>
</event>
<event>
 4    1 -0.5170493E-019  0.1500309E+02  0.7818608E-02  0.1867974E+00
         -2   -1    0    0    0  501 -0.00000000000E+00  0.00000000000E+00  0.12012801023E+03  0.12012801026E+03  0.25500000000E-02 0.  1.
          2   -1    0    0  501    0  0.00000000000E+00 -0.00000000000E+00 -0.46843963194E+00  0.46844657249E+00  0.25500000000E-02 0. -1.
         31    1    1    2    0    0 -0.35787681456E+00  0.59053015811E+00  0.55160664929E+02  0.55665381370E+02  0.74470750000E+01 0. -1.
        -31    1    1    2    0    0  0.35787681456E+00 -0.59053015811E+00  0.64498905672E+02  0.64931075462E+02  0.74470750000E+01 0.  1.
<mgrwt>
<rscale>  0 0.15003085E+02</rscale>
<asrwt>0</asrwt>
<pdfrwt beam="2">  1        2 0.99493284E+00 0.15003085E+02</pdfrwt>
<pdfrwt beam="1">  1       -2 0.99717588E+00 0.15003085E+02</pdfrwt>
<totfact>-0.92447453E-14</totfact>
</mgrwt>
</event>
<event>
 4    1 -0.5170493E-019  0.1497547E+02  0.7818608E-02  0.1868818E+00
          2   -1    0    0  501    0  0.00000000000E+00  0.00000000000E+00  0.11915589592E+03  0.11915589595E+03  0.25500000000E-02 0. -1.
         -2   -1    0    0    0  501 -0.00000000000E+00 -0.00000000000E+00 -0.47052463329E+00  0.47053154308E+00  0.25500000000E-02 0.  1.
         31    1    1    2    0    0 -0.76100082912E+00 -0.66664294527E-01  0.58112750314E+02  0.58592953855E+02  0.74470750000E+01 0. -1.
        -31    1    1    2    0    0  0.76100082912E+00  0.66664294527E-01  0.60572620975E+02  0.61033473637E+02  0.74470750000E+01 0. -1.
<mgrwt>
<rscale>  0 0.14975473E+02</rscale>
<asrwt>0</asrwt>
<pdfrwt beam="1">  1        2 0.98915500E+00 0.14975473E+02</pdfrwt>
<pdfrwt beam="2">  1       -2 0.99931208E+00 0.14975473E+02</pdfrwt>
<totfact>-0.44651693E-14</totfact>
</mgrwt>
</event>
<event>
 4    1  0.5170493E-019  0.1490409E+02  0.7818608E-02  0.1871009E+00
          2   -1    0    0  501    0  0.00000000000E+00  0.00000000000E+00  0.11981568967E+03  0.11981568970E+03  0.25500000000E-02 0.  1.
         -2   -1    0    0    0  501 -0.00000000000E+00 -0.00000000000E+00 -0.46348316784E+00  0.46349018261E+00  0.25500000000E-02 0. -1.
         31    1    1    2    0    0  0.23720981539E+00 -0.10717936283E+00  0.59035705823E+02  0.59504127958E+02  0.74470750000E+01 0.  1.
        -31    1    1    2    0    0 -0.23720981539E+00  0.10717936283E+00  0.60316500680E+02  0.60775051923E+02  0.74470750000E+01 0.  1.
<mgrwt>
<rscale>  0 0.14904091E+02</rscale>
<asrwt>0</asrwt>
<pdfrwt beam="1">  1        2 0.99455241E+00 0.14904091E+02</pdfrwt>
<pdfrwt beam="2">  1       -2 0.98443641E+00 0.14904091E+02</pdfrwt>
<totfact> 0.59001296E-13</totfact>
</mgrwt>
</event>
<event>
 4    1 -0.5170493E-019  0.1494926E+02  0.7818608E-02  0.1869621E+00
         -2   -1    0    0    0  501 -0.00000000000E+00  0.00000000000E+00  0.12037080984E+03  0.12037080987E+03  0.25500000000E-02 0.  1.
          2   -1    0    0  501    0  0.00000000000E+00 -0.00000000000E+00 -0.46414661298E+00  0.46415361772E+00  0.25500000000E-02 0. -1.
         31    1    1    2    0    0 -0.90491717859E-01 -0.14073557314E+00  0.64957012757E+02  0.65382722699E+02  0.74470750000E+01 0.  1.
        -31    1    1    2    0    0  0.90491717859E-01  0.14073557314E+00  0.54949650471E+02  0.55452240786E+02  0.74470750000E+01 0. -1.
<mgrwt>
<rscale>  0 0.14949265E+02</rscale>
<asrwt>0</asrwt>
<pdfrwt beam="2">  1        2 0.98585765E+00 0.14949265E+02</pdfrwt>
<pdfrwt beam="1">  1       -2 0.99914802E+00 0.14949265E+02</pdfrwt>
<totfact>-0.84920951E-14</totfact>
</mgrwt>
</event>
<event>
 4    1 -0.5170493E-019  0.1504387E+02  0.7818608E-02  0.1866733E+00
         -2   -1    0    0    0  501 -0.00000000000E+00  0.00000000000E+00  0.12034928125E+03  0.12034928128E+03  0.25500000000E-02 0.  1.
          2   -1    0    0  501    0  0.00000000000E+00 -0.00000000000E+00 -0.47012430915E+00  0.47013122482E+00  0.25500000000E-02 0. -1.
         31    1    1    2    0    0 -0.11853384967E+00  0.85044840256E+00  0.54967381937E+02  0.55476204952E+02  0.74470750000E+01 0.  1.
        -31    1    1    2    0    0  0.11853384967E+00 -0.85044840256E+00  0.64911775005E+02  0.65343207551E+02  0.74470750000E+01 0.  1.
<mgrwt>
<rscale>  0 0.15043875E+02</rscale>
<asrwt>0</asrwt>
<pdfrwt beam="2">  1        2 0.99850413E+00 0.15043875E+02</pdfrwt>
<pdfrwt beam="1">  1       -2 0.99901944E+00 0.15043875E+02</pdfrwt>
<totfact>-0.16549053E-14</totfact>
</mgrwt>
</event>
<event>
 4    1 -0.5170493E-019  0.1498196E+02  0.7818608E-02  0.1868620E+00
          2   -1    0    0  501    0  0.00000000000E+00  0.00000000000E+00  0.11983685588E+03  0.11983685591E+03  0.25500000000E-02 0. -1.
         -2   -1    0    0    0  501 -0.00000000000E+00 -0.00000000000E+00 -0.46825601102E+00  0.46826295429E+00  0.25500000000E-02 0.  1.
         31    1    1    2    0    0 -0.19765241098E+00 -0.45387555086E+00  0.54537878246E+02  0.55046200225E+02  0.74470750000E+01 0.  1.
        -31    1    1    2    0    0  0.19765241098E+00  0.45387555086E+00  0.64830721626E+02  0.65258918640E+02  0.74470750000E+01 0. -1.
<mgrwt>
<rscale>  0 0.14981955E+02</rscale>
<asrwt>0</asrwt>
<pdfrwt beam="1">  1        2 0.99476690E+00 0.14981955E+02</pdfrwt>
<pdfrwt beam="2">  1       -2 0.99453498E+00 0.14981955E+02</pdfrwt>
<totfact>-0.12216872E-13</totfact>
</mgrwt>
</event>
<event>
 4    1 -0.5170493E-019  0.1492447E+02  0.7818608E-02  0.1870382E+00
         -2   -1    0    0    0  501 -0.00000000000E+00  0.00000000000E+00  0.12013754204E+03  0.12013754207E+03  0.25500000000E-02 0.  1.
          2   -1    0    0  501    0  0.00000000000E+00 -0.00000000000E+00 -0.46350623121E+00  0.46351324563E+00  0.25500000000E-02 0. -1.
         31    1    1    2    0    0  0.28049067803E+00  0.36770816952E+00  0.58947635896E+02  0.59417982027E+02  0.74470750000E+01 0. -1.
        -31    1    1    2    0    0 -0.28049067803E+00 -0.36770816952E+00  0.60726399911E+02  0.61183073284E+02  0.74470750000E+01 0. -1.
<mgrwt>
<rscale>  0 0.14924466E+02</rscale>
<asrwt>0</asrwt>
<pdfrwt beam="2">  1        2 0.98449537E+00 0.14924466E+02</pdfrwt>
<pdfrwt beam="1">  1       -2 0.99721391E+00 0.14924466E+02</pdfrwt>
<totfact>-0.28738724E-13</totfact>
</mgrwt>
</event>
<event>
 4    1 -0.5170493E-019  0.1491274E+02  0.7818608E-02  0.1870743E+00
          2   -1    0    0  501    0  0.00000000000E+00  0.00000000000E+00  0.11863883274E+03  0.11863883277E+03  0.25500000000E-02 0.  1.
         -2   -1    0    0    0  501 -0.00000000000E+00 -0.00000000000E+00 -0.46862452835E+00  0.46863146616E+00  0.25500000000E-02 0. -1.
         31    1    1    2    0    0  0.25924999777E+00  0.16185105623E+00  0.57388003037E+02  0.57869985527E+02  0.74470750000E+01 0. -1.
        -31    1    1    2    0    0 -0.25924999777E+00 -0.16185105623E+00  0.60782205177E+02  0.61237478708E+02  0.74470750000E+01 0. -1.
<mgrwt>
<rscale>  0 0.14912744E+02</rscale>
<asrwt>0</asrwt>
<pdfrwt beam="1">  1        2 0.98486385E+00 0.14912744E+02</pdfrwt>
<pdfrwt beam="2">  1       -2 0.99527547E+00 0.14912744E+02</pdfrwt>
<totfact>-0.35170110E-13</totfact>
</mgrwt>
</event>
<event>
 4    1  0.5170493E-019  0.1492761E+02  0.7818608E-02  0.1870286E+00
          2   -1    0    0  501    0  0.00000000000E+00  0.00000000000E+00  0.11992066227E+03  0.11992066230E+03  0.25500000000E-02 0.  1.
         -2   -1    0    0    0  501 -0.00000000000E+00 -0.00000000000E+00 -0.46454006734E+00  0.46454706615E+00  0.25500000000E-02 0. -1.
         31    1    1    2    0    0 -0.84840259371E-01  0.10319314274E+00  0.63609159782E+02  0.64043750522E+02  0.74470750000E+01 0.  1.
        -31    1    1    2    0    0  0.84840259371E-01 -0.10319314274E+00  0.55846962422E+02  0.56341458842E+02  0.74470750000E+01 0. -1.
<mgrwt>
<rscale>  0 0.14927609E+02</rscale>
<asrwt>0</asrwt>
<pdfrwt beam="1">  1        2 0.99542914E+00 0.14927609E+02</pdfrwt>
<pdfrwt beam="2">  1       -2 0.98667590E+00 0.14927609E+02</pdfrwt>
<totfact> 0.26689589E-13</totfact>
</mgrwt>
</event>
<event>
 4    1  0.5170493E-019  0.1492921E+02  0.7818608E-02  0.1870236E+00
          2   -1    0    0  501    0  0.00000000000E+00  0.00000000000E+00  0.11970109215E+03  0.11970109217E+03  0.25500000000E-02 0.  1.
         -2   -1    0    0    0  501 -0.00000000000E+00 -0.00000000000E+00 -0.46549208055E+00  0.46549906504E+00  0.25500000000E-02 0. -1.
         31    1    1    2    0    0  0.25553629522E+00  0.44017988301E+00  0.59227728104E+02  0.59696245774E+02  0.74470750000E+01 0.  1.
        -31    1    1    2    0    0 -0.25553629522E+00 -0.44017988301E+00  0.60007871962E+02  0.60470345464E+02  0.74470750000E+01 0. -1.
<mgrwt>
<rscale>  0 0.14929211E+02</rscale>
<asrwt>0</asrwt>
<pdfrwt beam="1">  1        2 0.99362145E+00 0.14929211E+02</pdfrwt>
<pdfrwt beam="2">  1       -2 0.98868310E+00 0.14929211E+02</pdfrwt>
<totfact> 0.10804658E-13</totfact>
</mgrwt>
</event>
<event>
 4    1 -0.5170493E-019  0.1489598E+02  0.7818608E-02  0.1871259E+00
          2   -1    0    0  501    0  0.00000000000E+00  0.00000000000E+00  0.11836998621E+03  0.11836998624E+03  0.25500000000E-02 0. -1.
         -2   -1    0    0    0  501 -0.00000000000E+00 -0.00000000000E+00 -0.46863335187E+00  0.46864028955E+00  0.25500000000E-02 0.  1.
         31    1    1    2    0    0  0.19977313504E-01  0.10858655741E+00  0.59251420473E+02  0.59717685356E+02  0.74470750000E+01 0. -1.
        -31    1    1    2    0    0 -0.19977313504E-01 -0.10858655741E+00  0.58649932388E+02  0.59120941174E+02  0.74470750000E+01 0. -1.
<mgrwt>
<rscale>  0 0.14895978E+02</rscale>
<asrwt>0</asrwt>
<pdfrwt beam="1">  1        2 0.98264091E+00 0.14895978E+02</pdfrwt>
<pdfrwt beam="2">  1       -2 0.99528524E+00 0.14895978E+02</pdfrwt>
<totfact>-0.50970441E-13</totfact>
</mgrwt>
</event>
<event>
 4    1 -0.5170493E-019  0.1494784E+02  0.7818608E-02  0.1869664E+00
          2   -1    0    0  501    0  0.00000000000E+00  0.00000000000E+00  0.11887626991E+03  0.11887626994E+03  0.25500000000E-02 0. -1.
         -2   -1    0    0    0  501 -0.00000000000E+00 -0.00000000000E+00 -0.46989253796E+00  0.46989945704E+00  0.25500000000E-02 0.  1.
         31    1    1    2    0    0 -0.43498234840E-01  0.42952065030E+00  0.62898236216E+02  0.63339035556E+02  0.74470750000E+01 0. -1.
        -31    1    1    2    0    0  0.43498234840E-01 -0.42952065030E+00  0.55508141158E+02  0.56007133840E+02  0.74470750000E+01 0.  1.
<mgrwt>
<rscale>  0 0.14947841E+02</rscale>
<asrwt>0</asrwt>
<pdfrwt beam="1">  1        2 0.98683763E+00 0.14947841E+02</pdfrwt>
<pdfrwt beam="2">  1       -2 0.99796570E+00 0.14947841E+02</pdfrwt>
<totfact>-0.15756053E-13</totfact>
</mgrwt>
</event>
<event>
 4    1 -0.5170493E-019  0.1490226E+02  0.7818608E-02  0.1871066E+00
          2   -1    0    0  501    0  0.00000000000E+00  0.00000000000E+00  0.11846533675E+03  0.11846533678E+03  0.25500000000E-02 0.  1.
         -2   -1    0    0    0  501 -0.00000000000E+00 -0.00000000000E+00 -0.46865092081E+00  0.46865785823E+00  0.25500000000E-02 0. -1.
         31    1    1    2    0    0 -0.22882348571E+00 -0.74736335271E-01  0.58604795270E+02  0.59076551189E+02  0.74470750000E+01 0. -1.
        -31    1    1    2    0    0  0.22882348571E+00  0.74736335271E-01  0.59391890561E+02  0.59857443448E+02  0.74470750000E+01 0. -1.
<mgrwt>
<rscale>  0 0.14902255E+02</rscale>
<asrwt>0</asrwt>
<pdfrwt beam="1">  1        2 0.98342948E+00 0.14902255E+02</pdfrwt>
<pdfrwt beam="2">  1       -2 0.99532557E+00 0.14902255E+02</pdfrwt>
<totfact>-0.44530123E-13</totfact>
</mgrwt>
</event>
<event>
 4    1  0.5170493E-019  0.1492483E+02  0.7818608E-02  0.1870371E+00
          2   -1    0    0  501    0  0.00000000000E+00  0.00000000000E+00  0.12028968704E+03  0.12028968707E+03  0.25500000000E-02 0.  1.
         -2   -1    0    0    0  501 -0.00000000000E+00 -0.00000000000E+00 -0.46294278296E+00  0.46294980591E+00  0.25500000000E-02 0. -1.
         31    1    1    2    0    0  0.21903902372E+00  0.62474516625E-01  0.56510833640E+02  0.56999869526E+02  0.74470750000E+01 0. -1.
        -31    1    1    2    0    0 -0.21903902372E+00 -0.62474516625E-01  0.63315910616E+02  0.63752767346E+02  0.74470750000E+01 0. -1.
<mgrwt>
<rscale>  0 0.14924834E+02</rscale>
<asrwt>0</asrwt>
<pdfrwt beam="1">  1        2 0.99846729E+00 0.14924834E+02</pdfrwt>
<pdfrwt beam="2">  1       -2 0.98330799E+00 0.14924834E+02</pdfrwt>
<totfact> 0.32952208E-13</totfact>
</mgrwt>
</event>
<event>
 4    1  0.5170493E-019  0.1491029E+02  0.7818608E-02  0.1870818E+00
         -2   -1    0    0    0  501 -0.00000000000E+00  0.00000000000E+00  0.11836349371E+03  0.11836349374E+03  0.25500000000E-02 0. -1.
          2   -1    0    0  501    0  0.00000000000E+00 -0.00000000000E+00 -0.46956001472E+00  0.46956693871E+00  0.25500000000E-02 0.  1.
         31    1    1    2    0    0  0.23650994262E+00  0.25235643948E+00  0.59147024624E+02  0.59615007076E+02  0.74470750000E+01 0.  1.
        -31    1    1    2    0    0 -0.23650994262E+00 -0.25235643948E+00  0.58746909069E+02  0.59218053598E+02  0.74470750000E+01 0. -1.
<mgrwt>
<rscale>  0 0.14910289E+02</rscale>
<asrwt>0</asrwt>
<pdfrwt beam="2">  1        2 0.99724527E+00 0.14910289E+02</pdfrwt>
<pdfrwt beam="1">  1       -2 0.98259489E+00 0.14910289E+02</pdfrwt>
<totfact> 0.60495318E-13</totfact>
</mgrwt>
</event>
<event>
 4    1 -0.5170493E-019  0.1498281E+02  0.7818608E-02  0.1868593E+00
         -2   -1    0    0    0  501 -0.00000000000E+00  0.00000000000E+00  0.12007569868E+03  0.12007569871E+03  0.25500000000E-02 0.  1.
          2   -1    0    0  501    0  0.00000000000E+00 -0.00000000000E+00 -0.46737795612E+00  0.46738491243E+00  0.25500000000E-02 0. -1.
         31    1    1    2    0    0  0.47029198697E+00 -0.55250237745E+00  0.56839379790E+02  0.57329751913E+02  0.74470750000E+01 0. -1.
        -31    1    1    2    0    0 -0.47029198697E+00  0.55250237745E+00  0.62768940936E+02  0.63213331708E+02  0.74470750000E+01 0.  1.
<mgrwt>
<rscale>  0 0.14982811E+02</rscale>
<asrwt>0</asrwt>
<pdfrwt beam="2">  1        2 0.99268501E+00 0.14982811E+02</pdfrwt>
<pdfrwt beam="1">  1       -2 0.99673456E+00 0.14982811E+02</pdfrwt>
<totfact>-0.12169097E-13</totfact>
</mgrwt>
</event>
<event>
 4    1  0.5170493E-019  0.1491411E+02  0.7818608E-02  0.1870701E+00
         -2   -1    0    0    0  501 -0.00000000000E+00  0.00000000000E+00  0.11828706022E+03  0.11828706024E+03  0.25500000000E-02 0.  1.
          2   -1    0    0  501    0  0.00000000000E+00 -0.00000000000E+00 -0.47010452021E+00  0.47011143617E+00  0.25500000000E-02 0. -1.
         31    1    1    2    0    0 -0.36957803517E+00 -0.10749482582E+00  0.59107524715E+02  0.59576056827E+02  0.74470750000E+01 0. -1.
        -31    1    1    2    0    0  0.36957803517E+00  0.10749482582E+00  0.58709430980E+02  0.59181114852E+02  0.74470750000E+01 0.  1.
<mgrwt>
<rscale>  0 0.14914113E+02</rscale>
<asrwt>0</asrwt>
<pdfrwt beam="2">  1        2 0.99839454E+00 0.14914113E+02</pdfrwt>
<pdfrwt beam="1">  1       -2 0.98196739E+00 0.14914113E+02</pdfrwt>
<totfact> 0.45496839E-13</totfact>
</mgrwt>
</event>
<event>
 4    1  0.5170493E-019  0.1490479E+02  0.7818608E-02  0.1870988E+00
         -2   -1    0    0    0  501 -0.00000000000E+00  0.00000000000E+00  0.11807818755E+03  0.11807818758E+03  0.25500000000E-02 0.  1.
          2   -1    0    0  501    0  0.00000000000E+00 -0.00000000000E+00 -0.47034752857E+00  0.47035444096E+00  0.25500000000E-02 0. -1.
         31    1    1    2    0    0 -0.25200450227E+00  0.96638112010E-01  0.58166440221E+02  0.58641849726E+02  0.74470750000E+01 0. -1.
        -31    1    1    2    0    0  0.25200450227E+00 -0.96638112010E-01  0.59441399803E+02  0.59906692295E+02  0.74470750000E+01 0.  1.
<mgrwt>
<rscale>  0 0.14904791E+02</rscale>
<asrwt>0</asrwt>
<pdfrwt beam="2">  1        2 0.99890158E+00 0.14904791E+02</pdfrwt>
<pdfrwt beam="1">  1       -2 0.98024229E+00 0.14904791E+02</pdfrwt>
<totfact> 0.45248181E-13</totfact>
</mgrwt>
</event>
<event>
 4    1 -0.5170493E-019  0.1499229E+02  0.7818608E-02  0.1868304E+00
          2   -1    0    0  501    0  0.00000000000E+00  0.00000000000E+00  0.11949189531E+03  0.11949189533E+03  0.25500000000E-02 0.  1.
         -2   -1    0    0    0  501 -0.00000000000E+00 -0.00000000000E+00 -0.47025601340E+00  0.47026292714E+00  0.25500000000E-02 0. -1.
         31    1    1    2    0    0 -0.55211181916E+00 -0.60052176611E+00  0.57427043262E+02  0.57913639824E+02  0.74470750000E+01 0. -1.
        -31    1    1    2    0    0  0.55211181916E+00  0.60052176611E+00  0.61594596030E+02  0.62048518436E+02  0.74470750000E+01 0.  1.
<mgrwt>
<rscale>  0 0.14992291E+02</rscale>
<asrwt>0</asrwt>
<pdfrwt beam="1">  1        2 0.99193106E+00 0.14992291E+02</pdfrwt>
<pdfrwt beam="2">  1       -2 0.99875487E+00 0.14992291E+02</pdfrwt>
<totfact>-0.60346385E-14</totfact>
</mgrwt>
</event>
<event>
 4    1 -0.5170493E-019  0.1491404E+02  0.7818608E-02  0.1870703E+00
          2   -1    0    0  501    0  0.00000000000E+00  0.00000000000E+00  0.11867489417E+03  0.11867489419E+03  0.25500000000E-02 0. -1.
         -2   -1    0    0    0  501 -0.00000000000E+00 -0.00000000000E+00 -0.46856336360E+00  0.46857030231E+00  0.25500000000E-02 0.  1.
         31    1    1    2    0    0  0.10195047575E+00  0.11682246440E+00  0.56288301867E+02  0.56779009277E+02  0.74470750000E+01 0.  1.
        -31    1    1    2    0    0 -0.10195047575E+00 -0.11682246440E+00  0.61918028937E+02  0.62364455220E+02  0.74470750000E+01 0. -1.
<mgrwt>
<rscale>  0 0.14914037E+02</rscale>
<asrwt>0</asrwt>
<pdfrwt beam="1">  1        2 0.98516152E+00 0.14914037E+02</pdfrwt>
<pdfrwt beam="2">  1       -2 0.99514727E+00 0.14914037E+02</pdfrwt>
<totfact>-0.33682940E-13</totfact>
</mgrwt>
</event>
<event>
 4    1 -0.5170493E-019  0.1490924E+02  0.7818608E-02  0.1870851E+00
          2   -1    0    0  501    0  0.00000000000E+00  0.00000000000E+00  0.11826083076E+03  0.11826083079E+03  0.25500000000E-02 0. -1.
         -2   -1    0    0    0  501 -0.00000000000E+00 -0.00000000000E+00 -0.46990155622E+00  0.46990847517E+00  0.25500000000E-02 0.  1.
         31    1    1    2    0    0  0.21009025509E-01  0.63643998163E-01  0.61511866752E+02  0.61961061719E+02  0.74470750000E+01 0. -1.
        -31    1    1    2    0    0 -0.21009025509E-01 -0.63643998163E-01  0.56279062451E+02  0.56769677543E+02  0.74470750000E+01 0.  1.
<mgrwt>
<rscale>  0 0.14909240E+02</rscale>
<asrwt>0</asrwt>
<pdfrwt beam="1">  1        2 0.98174882E+00 0.14909240E+02</pdfrwt>
<pdfrwt beam="2">  1       -2 0.99796433E+00 0.14909240E+02</pdfrwt>
<totfact>-0.36058564E-13</totfact>
</mgrwt>
</event>
<event>
 4    1 -0.5170493E-019  0.1494476E+02  0.7818608E-02  0.1869759E+00
          2   -1    0    0  501    0  0.00000000000E+00  0.00000000000E+00  0.11886784661E+03  0.11886784664E+03  0.25500000000E-02 0.  1.
         -2   -1    0    0    0  501 -0.00000000000E+00 -0.00000000000E+00 -0.46973224025E+00  0.46973916170E+00  0.25500000000E-02 0. -1.
         31    1    1    2    0    0 -0.35220917431E+00  0.94558545982E-01  0.55250146872E+02  0.55750969929E+02  0.74470750000E+01 0. -1.
        -31    1    1    2    0    0  0.35220917431E+00 -0.94558545982E-01  0.63147967501E+02  0.63586615873E+02  0.74470750000E+01 0.  1.
<mgrwt>
<rscale>  0 0.14944762E+02</rscale>
<asrwt>0</asrwt>
<pdfrwt beam="1">  1        2 0.98676666E+00 0.14944762E+02</pdfrwt>
<pdfrwt beam="2">  1       -2 0.99762632E+00 0.14944762E+02</pdfrwt>
<totfact>-0.17946444E-13</totfact>
</mgrwt>
</event>
<event>
 4    1 -0.5170493E-019  0.1492898E+02  0.7818608E-02  0.1870244E+00
          2   -1    0    0  501    0  0.00000000000E+00  0.00000000000E+00  0.11931033492E+03  0.11931033495E+03  0.25500000000E-02 0.  1.
         -2   -1    0    0    0  501 -0.00000000000E+00 -0.00000000000E+00 -0.46700212998E+00  0.46700909188E+00  0.25500000000E-02 0. -1.
         31    1    1    2    0    0  0.19874822723E+00 -0.40897005009E+00  0.61267263188E+02  0.61719877041E+02  0.74470750000E+01 0. -1.
        -31    1    1    2    0    0 -0.19874822723E+00  0.40897005009E+00  0.57576069601E+02  0.58057466997E+02  0.74470750000E+01 0.  1.
<mgrwt>
<rscale>  0 0.14928978E+02</rscale>
<asrwt>0</asrwt>
<pdfrwt beam="1">  1        2 0.99040288E+00 0.14928978E+02</pdfrwt>
<pdfrwt beam="2">  1       -2 0.99186523E+00 0.14928978E+02</pdfrwt>
<totfact>-0.10752992E-13</totfact>
</mgrwt>
</event>
<event>
 4    1 -0.5170493E-019  0.1496307E+02  0.7818608E-02  0.1869198E+00
         -2   -1    0    0    0  501 -0.00000000000E+00  0.00000000000E+00  0.12005646850E+03  0.12005646853E+03  0.25500000000E-02 0.  1.
          2   -1    0    0  501    0  0.00000000000E+00 -0.00000000000E+00 -0.46622178499E+00  0.46622875855E+00  0.25500000000E-02 0. -1.
         31    1    1    2    0    0 -0.60182584877E-01  0.28230780163E+00  0.54506461130E+02  0.55013603324E+02  0.74470750000E+01 0. -1.
        -31    1    1    2    0    0  0.60182584877E-01 -0.28230780163E+00  0.65083785584E+02  0.65509093962E+02  0.74470750000E+01 0.  1.
<mgrwt>
<rscale>  0 0.14963070E+02</rscale>
<asrwt>0</asrwt>
<pdfrwt beam="2">  1        2 0.99023829E+00 0.14963070E+02</pdfrwt>
<pdfrwt beam="1">  1       -2 0.99656599E+00 0.14963070E+02</pdfrwt>
<totfact>-0.15186170E-13</totfact>
</mgrwt>
</event>
<event>
 4    1 -0.5170493E-019  0.1491206E+02  0.7818608E-02  0.1870764E+00
          2   -1    0    0  501    0  0.00000000000E+00  0.00000000000E+00  0.11878451699E+03  0.11878451702E+03  0.25500000000E-02 0. -1.
         -2   -1    0    0    0  501 -0.00000000000E+00 -0.00000000000E+00 -0.46800657125E+00  0.46801351822E+00  0.25500000000E-02 0.  1.
         31    1    1    2    0    0  0.11434597062E+00  0.11557472310E+00  0.56542450421E+02  0.57030992085E+02  0.74470750000E+01 0.  1.
        -31    1    1    2    0    0 -0.11434597062E+00 -0.11557472310E+00  0.61774060003E+02  0.62221538456E+02  0.74470750000E+01 0. -1.
<mgrwt>
<rscale>  0 0.14912056E+02</rscale>
<asrwt>0</asrwt>
<pdfrwt beam="1">  1        2 0.98606336E+00 0.14912056E+02</pdfrwt>
<pdfrwt beam="2">  1       -2 0.99397300E+00 0.14912056E+02</pdfrwt>
<totfact>-0.28673658E-13</totfact>
</mgrwt>
</event>
<event>
 4    1 -0.5170493E-019  0.1494197E+02  0.7818608E-02  0.1869844E+00
          2   -1    0    0  501    0  0.00000000000E+00  0.00000000000E+00  0.11871720599E+03  0.11871720602E+03  0.25500000000E-02 0.  1.
         -2   -1    0    0    0  501 -0.00000000000E+00 -0.00000000000E+00 -0.47015267248E+00  0.47015958774E+00  0.25500000000E-02 0. -1.
         31    1    1    2    0    0 -0.26203067103E+00  0.26852500477E+00  0.62830183970E+02  0.63271096952E+02  0.74470750000E+01 0.  1.
        -31    1    1    2    0    0  0.26203067103E+00 -0.26852500477E+00  0.55416869345E+02  0.55916268651E+02  0.74470750000E+01 0. -1.
<mgrwt>
<rscale>  0 0.14941971E+02</rscale>
<asrwt>0</asrwt>
<pdfrwt beam="1">  1        2 0.98552453E+00 0.14941971E+02</pdfrwt>
<pdfrwt beam="2">  1       -2 0.99851072E+00 0.14941971E+02</pdfrwt>
<totfact>-0.14815244E-13</totfact>
</mgrwt>
</event>
<event>
 4    1 -0.5170493E-019  0.1493779E+02  0.7818608E-02  0.1869973E+00
         -2   -1    0    0    0  501 -0.00000000000E+00  0.00000000000E+00  0.11983085851E+03  0.11983085853E+03  0.25500000000E-02 0. -1.
          2   -1    0    0  501    0  0.00000000000E+00 -0.00000000000E+00 -0.46552231244E+00  0.46552929648E+00  0.25500000000E-02 0.  1.
         31    1    1    2    0    0  0.48270179393E+00 -0.30121855464E+00  0.60014744320E+02  0.60477699986E+02  0.74470750000E+01 0.  1.
        -31    1    1    2    0    0 -0.48270179393E+00  0.30121855464E+00  0.59350591874E+02  0.59818687845E+02  0.74470750000E+01 0.  1.
<mgrwt>
<rscale>  0 0.14937786E+02</rscale>
<asrwt>0</asrwt>
<pdfrwt beam="2">  1        2 0.98875121E+00 0.14937786E+02</pdfrwt>
<pdfrwt beam="1">  1       -2 0.99469470E+00 0.14937786E+02</pdfrwt>
<totfact>-0.20420488E-13</totfact>
</mgrwt>
</event>
<event>
 4    1 -0.5170493E-019  0.1500664E+02  0.7818608E-02  0.1867866E+00
         -2   -1    0    0    0  501 -0.00000000000E+00  0.00000000000E+00  0.12018391487E+03  0.12018391490E+03  0.25500000000E-02 0.  1.
          2   -1    0    0  501    0  0.00000000000E+00 -0.00000000000E+00 -0.46844379072E+00  0.46845073121E+00  0.25500000000E-02 0. -1.
         31    1    1    2    0    0  0.74600910130E+00 -0.23003824175E+00  0.63725734134E+02  0.64164145472E+02  0.74470750000E+01 0.  1.
        -31    1    1    2    0    0 -0.74600910130E+00  0.23003824175E+00  0.55989736946E+02  0.56488220157E+02  0.74470750000E+01 0.  1.
<mgrwt>
<rscale>  0 0.15006642E+02</rscale>
<asrwt>0</asrwt>
<pdfrwt beam="2">  1        2 0.99494344E+00 0.15006642E+02</pdfrwt>
<pdfrwt beam="1">  1       -2 0.99763818E+00 0.15006642E+02</pdfrwt>
<totfact>-0.81216842E-14</totfact>
</mgrwt>
</event>
<event>
 4    1 -0.5170493E-019  0.1492761E+02  0.7818608E-02  0.1870285E+00
         -2   -1    0    0    0  501 -0.00000000000E+00  0.00000000000E+00  0.12021521060E+03  0.12021521063E+03  0.25500000000E-02 0.  1.
          2   -1    0    0  501    0  0.00000000000E+00 -0.00000000000E+00 -0.46340207601E+00  0.46340909200E+00  0.25500000000E-02 0. -1.
         31    1    1    2    0    0 -0.47881396903E+00  0.13541575566E+00  0.59525674779E+02  0.59991770137E+02  0.74470750000E+01 0. -1.
        -31    1    1    2    0    0  0.47881396903E+00 -0.13541575566E+00  0.60226133745E+02  0.60686849582E+02  0.74470750000E+01 0. -1.
<mgrwt>
<rscale>  0 0.14927612E+02</rscale>
<asrwt>0</asrwt>
<pdfrwt beam="2">  1        2 0.98427744E+00 0.14927612E+02</pdfrwt>
<pdfrwt beam="1">  1       -2 0.99785526E+00 0.14927612E+02</pdfrwt>
<totfact>-0.24551356E-13</totfact>
</mgrwt>
</event>
<event>
 4    1 -0.5170493E-019  0.1495042E+02  0.7818608E-02  0.1869585E+00
         -2   -1    0    0    0  501 -0.00000000000E+00  0.00000000000E+00  0.11968194018E+03  0.11968194021E+03  0.25500000000E-02 0.  1.
          2   -1    0    0  501    0  0.00000000000E+00 -0.00000000000E+00 -0.46689033614E+00  0.46689729972E+00  0.25500000000E-02 0. -1.
         31    1    1    2    0    0  0.16942154660E+00  0.57405099886E-03  0.64633582088E+02  0.65061413784E+02  0.74470750000E+01 0.  1.
        -31    1    1    2    0    0 -0.16942154660E+00 -0.57405099886E-03  0.54581467760E+02  0.55087423727E+02  0.74470750000E+01 0. -1.
<mgrwt>
<rscale>  0 0.14950420E+02</rscale>
<asrwt>0</asrwt>
<pdfrwt beam="2">  1        2 0.99164072E+00 0.14950420E+02</pdfrwt>
<pdfrwt beam="1">  1       -2 0.99347465E+00 0.14950420E+02</pdfrwt>
<totfact>-0.14486658E-13</totfact>
</mgrwt>
</event>
<event>
 4    1  0.5170493E-019  0.1491440E+02  0.7818608E-02  0.1870692E+00
          2   -1    0    0  501    0  0.00000000000E+00  0.00000000000E+00  0.12044272521E+03  0.12044272524E+03  0.25500000000E-02 0. -1.
         -2   -1    0    0    0  501 -0.00000000000E+00 -0.00000000000E+00 -0.46170830712E+00  0.46171534885E+00  0.25500000000E-02 0.  1.
         31    1    1    2    0    0  0.14705275392E+00  0.28155042691E+00  0.58177593804E+02  0.58653152021E+02  0.74470750000E+01 0.  1.
        -31    1    1    2    0    0 -0.14705275392E+00 -0.28155042691E+00  0.61803423103E+02  0.62251288569E+02  0.74470750000E+01 0. -1.
<mgrwt>
<rscale>  0 0.14914400E+02</rscale>
<asrwt>0</asrwt>
<pdfrwt beam="1">  1        2 0.99972251E+00 0.14914400E+02</pdfrwt>
<pdfrwt beam="2">  1       -2 0.98070074E+00 0.14914400E+02</pdfrwt>
<totfact> 0.11553948E-13</totfact>
</mgrwt>
</event>
<event>
 4    1  0.5170493E-019  0.1493107E+02  0.7818608E-02  0.1870179E+00
          2   -1    0    0  501    0  0.00000000000E+00  0.00000000000E+00  0.12005809673E+03  0.12005809676E+03  0.25500000000E-02 0.  1.
         -2   -1    0    0    0  501 -0.00000000000E+00 -0.00000000000E+00 -0.46422336936E+00  0.46423037294E+00  0.25500000000E-02 0. -1.
         31    1    1    2    0    0 -0.39078322323E+00 -0.79911467569E-01  0.57045674901E+02  0.57531096359E+02  0.74470750000E+01 0. -1.
        -31    1    1    2    0    0  0.39078322323E+00  0.79911467569E-01  0.62548198459E+02  0.62991230770E+02  0.74470750000E+01 0.  1.
<mgrwt>
<rscale>  0 0.14931068E+02</rscale>
<asrwt>0</asrwt>
<pdfrwt beam="1">  1        2 0.99656293E+00 0.14931068E+02</pdfrwt>
<pdfrwt beam="2">  1       -2 0.98601019E+00 0.14931068E+02</pdfrwt>
<totfact> 0.28679008E-13</totfact>
</mgrwt>
</event>
<event>
 4    1 -0.5170493E-019  0.1493160E+02  0.7818608E-02  0.1870163E+00
          2   -1    0    0  501    0  0.00000000000E+00  0.00000000000E+00  0.11947390630E+03  0.11947390633E+03  0.25500000000E-02 0. -1.
         -2   -1    0    0    0  501 -0.00000000000E+00 -0.00000000000E+00 -0.46652663852E+00  0.46653360752E+00  0.25500000000E-02 0.  1.
         31    1    1    2    0    0 -0.45176840881E+00 -0.59537509124E-01  0.61653292556E+02  0.62103100152E+02  0.74470750000E+01 0.  1.
        -31    1    1    2    0    0  0.45176840881E+00  0.59537509124E-01  0.57354087105E+02  0.57837339783E+02  0.74470750000E+01 0.  1.
<mgrwt>
<rscale>  0 0.14931601E+02</rscale>
<asrwt>0</asrwt>
<pdfrwt beam="1">  1        2 0.99175148E+00 0.14931601E+02</pdfrwt>
<pdfrwt beam="2">  1       -2 0.99086457E+00 0.14931601E+02</pdfrwt>
<totfact>-0.46241479E-14</totfact>
</mgrwt>
</event>
<event>
 4    1  0.5170493E-019  0.1493572E+02  0.7818608E-02  0.1870037E+00
         -2   -1    0    0    0  501 -0.00000000000E+00  0.00000000000E+00  0.11911873647E+03  0.11911873650E+03  0.25500000000E-02 0. -1.
          2   -1    0    0  501    0  0.00000000000E+00 -0.00000000000E+00 -0.46817554942E+00  0.46818249388E+00  0.25500000000E-02 0.  1.
         31    1    1    2    0    0 -0.40545437312E+00 -0.56108715379E-01  0.56303539204E+02  0.56795378284E+02  0.74470750000E+01 0.  1.
        -31    1    1    2    0    0  0.40545437312E+00  0.56108715379E-01  0.62347021719E+02  0.62791540710E+02  0.74470750000E+01 0. -1.
<mgrwt>
<rscale>  0 0.14935715E+02</rscale>
<asrwt>0</asrwt>
<pdfrwt beam="2">  1        2 0.99434143E+00 0.14935715E+02</pdfrwt>
<pdfrwt beam="1">  1       -2 0.98882832E+00 0.14935715E+02</pdfrwt>
<totfact> 0.90356938E-14</totfact>
</mgrwt>
</event>
<event>
 4    1 -0.5170493E-019  0.1493213E+02  0.7818608E-02  0.1870147E+00
          2   -1    0    0  501    0  0.00000000000E+00  0.00000000000E+00  0.11886910320E+03  0.11886910323E+03  0.25500000000E-02 0. -1.
         -2   -1    0    0    0  501 -0.00000000000E+00 -0.00000000000E+00 -0.46893344137E+00  0.46894037461E+00  0.25500000000E-02 0.  1.
         31    1    1    2    0    0 -0.19696757729E-02  0.53120205333E+00  0.58946419855E+02  0.59417350322E+02  0.74470750000E+01 0. -1.
        -31    1    1    2    0    0  0.19696757729E-02 -0.53120205333E+00  0.59453749903E+02  0.59920693280E+02  0.74470750000E+01 0.  1.
<mgrwt>
<rscale>  0 0.14932128E+02</rscale>
<asrwt>0</asrwt>
<pdfrwt beam="1">  1        2 0.98677044E+00 0.14932128E+02</pdfrwt>
<pdfrwt beam="2">  1       -2 0.99593655E+00 0.14932128E+02</pdfrwt>
<totfact>-0.24946818E-13</totfact>
</mgrwt>
</event>
<event>
 4    1 -0.5170493E-019  0.1493507E+02  0.7818608E-02  0.1870056E+00
          2   -1    0    0  501    0  0.00000000000E+00  0.00000000000E+00  0.11903434609E+03  0.11903434612E+03  0.25500000000E-02 0.  1.
         -2   -1    0    0    0  501 -0.00000000000E+00 -0.00000000000E+00 -0.46846673107E+00  0.46847367121E+00  0.25500000000E-02 0. -1.
         31    1    1    2    0    0  0.35397031692E+00 -0.36020869094E+00  0.57492392766E+02  0.57974901443E+02  0.74470750000E+01 0. -1.
        -31    1    1    2    0    0 -0.35397031692E+00  0.36020869094E+00  0.61073486594E+02  0.61527918346E+02  0.74470750000E+01 0.  1.
<mgrwt>
<rscale>  0 0.14935066E+02</rscale>
<asrwt>0</asrwt>
<pdfrwt beam="1">  1        2 0.98813293E+00 0.14935066E+02</pdfrwt>
<pdfrwt beam="2">  1       -2 0.99495466E+00 0.14935066E+02</pdfrwt>
<totfact>-0.21964935E-13</totfact>
</mgrwt>
</event>
<event>
 4    1 -0.5170493E-019  0.1499155E+02  0.7818608E-02  0.1868327E+00
          2   -1    0    0  501    0  0.00000000000E+00  0.00000000000E+00  0.11987308227E+03  0.11987308230E+03  0.25500000000E-02 0.  1.
         -2   -1    0    0    0  501 -0.00000000000E+00 -0.00000000000E+00 -0.46871399374E+00  0.46872093022E+00  0.25500000000E-02 0. -1.
         31    1    1    2    0    0  0.72251095325E+00  0.90909600037E-01  0.56135695251E+02  0.56632194854E+02  0.74470750000E+01 0. -1.
        -31    1    1    2    0    0 -0.72251095325E+00 -0.90909600037E-01  0.63268673029E+02  0.63709608377E+02  0.74470750000E+01 0.  1.
<mgrwt>
<rscale>  0 0.14991546E+02</rscale>
<asrwt>0</asrwt>
<pdfrwt beam="1">  1        2 0.99507023E+00 0.14991546E+02</pdfrwt>
<pdfrwt beam="2">  1       -2 0.99550506E+00 0.14991546E+02</pdfrwt>
<totfact>-0.11590639E-13</totfact>
</mgrwt>
</event>
<event>
 4    1  0.5170493E-019  0.1490532E+02  0.7818608E-02  0.1870971E+00
         -2   -1    0    0    0  501 -0.00000000000E+00  0.00000000000E+00  0.11845600926E+03  0.11845600929E+03  0.25500000000E-02 0.  1.
          2   -1    0    0  501    0  0.00000000000E+00 -0.00000000000E+00 -0.46888092426E+00  0.46888785828E+00  0.25500000000E-02 0. -1.
         31    1    1    2    0    0  0.28520865881E-01  0.28300576707E+00  0.59379957665E+02  0.59845795208E+02  0.74470750000E+01 0. -1.
        -31    1    1    2    0    0 -0.28520865881E-01 -0.28300576707E+00  0.58607170670E+02  0.59079101937E+02  0.74470750000E+01 0.  1.
<mgrwt>
<rscale>  0 0.14905325E+02</rscale>
<asrwt>0</asrwt>
<pdfrwt beam="2">  1        2 0.99581181E+00 0.14905325E+02</pdfrwt>
<pdfrwt beam="1">  1       -2 0.98335426E+00 0.14905325E+02</pdfrwt>
<totfact> 0.66830612E-13</totfact>
</mgrwt>
</event>
<event>
 4    1 -0.5170493E-019  0.1497966E+02  0.7818608E-02  0.1868690E+00
         -2   -1    0    0    0  501 -0.00000000000E+00  0.00000000000E+00  0.12022529306E+03  0.12022529309E+03  0.25500000000E-02 0.  1.
          2   -1    0    0  501    0  0.00000000000E+00 -0.00000000000E+00 -0.46659997565E+00  0.46660694356E+00  0.25500000000E-02 0. -1.
         31    1    1    2    0    0  0.20565119800E+00  0.64685229367E+00  0.56480983509E+02  0.56973863609E+02  0.74470750000E+01 0. -1.
        -31    1    1    2    0    0 -0.20565119800E+00 -0.64685229367E+00  0.63277709579E+02  0.63718036425E+02  0.74470750000E+01 0. -1.
<mgrwt>
<rscale>  0 0.14979658E+02</rscale>
<asrwt>0</asrwt>
<pdfrwt beam="2">  1        2 0.99104382E+00 0.14979658E+02</pdfrwt>
<pdfrwt beam="1">  1       -2 0.99796507E+00 0.14979658E+02</pdfrwt>
<totfact>-0.98189133E-14</totfact>
</mgrwt>
</event>
<event>
 4    1  0.5170493E-019  0.1494180E+02  0.7818608E-02  0.1869850E+00
         -2   -1    0    0    0  501 -0.00000000000E+00  0.00000000000E+00  0.11887686790E+03  0.11887686793E+03  0.25500000000E-02 0.  1.
          2   -1    0    0  501    0  0.00000000000E+00 -0.00000000000E+00 -0.46951073716E+00  0.46951766187E+00  0.25500000000E-02 0. -1.
         31    1    1    2    0    0  0.76943070436E-01  0.59026207867E+00  0.59471598749E+02  0.59939004941E+02  0.74470750000E+01 0. -1.
        -31    1    1    2    0    0 -0.76943070436E-01 -0.59026207867E+00  0.58935758418E+02  0.59407380652E+02  0.74470750000E+01 0. -1.
<mgrwt>
<rscale>  0 0.14941805E+02</rscale>
<asrwt>0</asrwt>
<pdfrwt beam="2">  1        2 0.99715804E+00 0.14941805E+02</pdfrwt>
<pdfrwt beam="1">  1       -2 0.98683942E+00 0.14941805E+02</pdfrwt>
<totfact> 0.18672305E-13</totfact>
</mgrwt>
</event>
<event>
 4    1 -0.5170493E-019  0.1495006E+02  0.7818608E-02  0.1869596E+00
          2   -1    0    0  501    0  0.00000000000E+00  0.00000000000E+00  0.11940705570E+03  0.11940705573E+03  0.25500000000E-02 0. -1.
         -2   -1    0    0    0  501 -0.00000000000E+00 -0.00000000000E+00 -0.46794248129E+00  0.46794942920E+00  0.25500000000E-02 0.  1.
         31    1    1    2    0    0  0.45689973220E+00 -0.43387040805E+00  0.60607064052E+02  0.61066129237E+02  0.74470750000E+01 0.  1.
        -31    1    1    2    0    0 -0.45689973220E+00  0.43387040805E+00  0.58332049166E+02  0.58808875919E+02  0.74470750000E+01 0. -1.
<mgrwt>
<rscale>  0 0.14950057E+02</rscale>
<asrwt>0</asrwt>
<pdfrwt beam="1">  1        2 0.99121041E+00 0.14950057E+02</pdfrwt>
<pdfrwt beam="2">  1       -2 0.99385776E+00 0.14950057E+02</pdfrwt>
<totfact>-0.15564489E-13</totfact>
</mgrwt>
</event>
<event>
 4    1 -0.5170493E-019  0.1499755E+02  0.7818608E-02  0.1868143E+00
         -2   -1    0    0    0  501 -0.00000000000E+00  0.00000000000E+00  0.11994444694E+03  0.11994444696E+03  0.25500000000E-02 0.  1.
          2   -1    0    0  501    0  0.00000000000E+00 -0.00000000000E+00 -0.46881022692E+00  0.46881716198E+00  0.25500000000E-02 0. -1.
         31    1    1    2    0    0  0.13180350403E+00 -0.12759509949E+00  0.66639951352E+02  0.67055019908E+02  0.74470750000E+01 0.  1.
        -31    1    1    2    0    0 -0.13180350403E+00  0.12759509949E+00  0.52835685358E+02  0.53358244217E+02  0.74470750000E+01 0. -1.
<mgrwt>
<rscale>  0 0.14997547E+02</rscale>
<asrwt>0</asrwt>
<pdfrwt beam="2">  1        2 0.99571096E+00 0.14997547E+02</pdfrwt>
<pdfrwt beam="1">  1       -2 0.99566112E+00 0.14997547E+02</pdfrwt>
<totfact>-0.10634495E-13</totfact>
</mgrwt>
</event>
<event>
 4    1 -0.5170493E-019  0.1494448E+02  0.7818608E-02  0.1869767E+00
          2   -1    0    0  501    0  0.00000000000E+00  0.00000000000E+00  0.11919016992E+03  0.11919016994E+03  0.25500000000E-02 0.  1.
         -2   -1    0    0    0  501 -0.00000000000E+00 -0.00000000000E+00 -0.46844426188E+00  0.46845120236E+00  0.25500000000E-02 0. -1.
         31    1    1    2    0    0  0.28976847163E+00  0.47121132954E+00  0.57250991949E+02  0.57735959428E+02  0.74470750000E+01 0. -1.
        -31    1    1    2    0    0 -0.28976847163E+00 -0.47121132954E+00  0.61470733707E+02  0.61922661719E+02  0.74470750000E+01 0.  1.
<mgrwt>
<rscale>  0 0.14944480E+02</rscale>
<asrwt>0</asrwt>
<pdfrwt beam="1">  1        2 0.98942120E+00 0.14944480E+02</pdfrwt>
<pdfrwt beam="2">  1       -2 0.99491223E+00 0.14944480E+02</pdfrwt>
<totfact>-0.18948143E-13</totfact>
</mgrwt>
</event>
<event>
 4    1  0.5170493E-019  0.1491580E+02  0.7818608E-02  0.1870649E+00
          2   -1    0    0  501    0  0.00000000000E+00  0.00000000000E+00  0.11977561446E+03  0.11977561449E+03  0.25500000000E-02 0. -1.
         -2   -1    0    0    0  501 -0.00000000000E+00 -0.00000000000E+00 -0.46436682112E+00  0.46437382254E+00  0.25500000000E-02 0.  1.
         31    1    1    2    0    0  0.34892658523E+00  0.10900239412E+00  0.60996957769E+02  0.61450967563E+02  0.74470750000E+01 0.  1.
        -31    1    1    2    0    0 -0.34892658523E+00 -0.10900239412E+00  0.58314289869E+02  0.58789020746E+02  0.74470750000E+01 0.  1.
<mgrwt>
<rscale>  0 0.14915796E+02</rscale>
<asrwt>0</asrwt>
<pdfrwt beam="1">  1        2 0.99422835E+00 0.14915796E+02</pdfrwt>
<pdfrwt beam="2">  1       -2 0.98630474E+00 0.14915796E+02</pdfrwt>
<totfact> 0.34496057E-13</totfact>
</mgrwt>
</event>
<event>
 4    1  0.5170493E-019  0.1490011E+02  0.7818608E-02  0.1871132E+00
          2   -1    0    0  501    0  0.00000000000E+00  0.00000000000E+00  0.11932823779E+03  0.11932823782E+03  0.25500000000E-02 0.  1.
         -2   -1    0    0    0  501 -0.00000000000E+00 -0.00000000000E+00 -0.46512774130E+00  0.46513473126E+00  0.25500000000E-02 0. -1.
         31    1    1    2    0    0  0.45273018517E-01 -0.17016687754E+00  0.60360889265E+02  0.60818803715E+02  0.74470750000E+01 0.  1.
        -31    1    1    2    0    0 -0.45273018517E-01  0.17016687754E+00  0.58502220784E+02  0.58974568834E+02  0.74470750000E+01 0. -1.
<mgrwt>
<rscale>  0 0.14900107E+02</rscale>
<asrwt>0</asrwt>
<pdfrwt beam="1">  1        2 0.99053542E+00 0.14900107E+02</pdfrwt>
<pdfrwt beam="2">  1       -2 0.98790032E+00 0.14900107E+02</pdfrwt>
<totfact> 0.22810145E-13</totfact>
</mgrwt>
</event>
<event>
 4    1  0.5170493E-019  0.1496861E+02  0.7818608E-02  0.1869028E+00
          2   -1    0    0  501    0  0.00000000000E+00  0.00000000000E+00  0.12035358701E+03  0.12035358704E+03  0.25500000000E-02 0. -1.
         -2   -1    0    0    0  501 -0.00000000000E+00 -0.00000000000E+00 -0.46541557640E+00  0.46542256204E+00  0.25500000000E-02 0.  1.
         31    1    1    2    0    0  0.93556418281E-01 -0.29692534631E+00  0.65412566732E+02  0.65835854441E+02  0.74470750000E+01 0. -1.
        -31    1    1    2    0    0 -0.93556418281E-01  0.29692534631E+00  0.54475604703E+02  0.54983155159E+02  0.74470750000E+01 0.  1.
<mgrwt>
<rscale>  0 0.14968615E+02</rscale>
<asrwt>0</asrwt>
<pdfrwt beam="1">  1        2 0.99901610E+00 0.14968615E+02</pdfrwt>
<pdfrwt beam="2">  1       -2 0.98854199E+00 0.14968615E+02</pdfrwt>
<totfact> 0.32268417E-14</totfact>
</mgrwt>
</event>
<event>
 4    1  0.5170493E-019  0.1492608E+02  0.7818608E-02  0.1870333E+00
          2   -1    0    0  501    0  0.00000000000E+00  0.00000000000E+00  0.12016477986E+03  0.12016477989E+03  0.25500000000E-02 0. -1.
         -2   -1    0    0    0  501 -0.00000000000E+00 -0.00000000000E+00 -0.46350120131E+00  0.46350821580E+00  0.25500000000E-02 0.  1.
         31    1    1    2    0    0  0.26854458861E+00 -0.37902101738E+00  0.61056016727E+02  0.61510258313E+02  0.74470750000E+01 0.  1.
        -31    1    1    2    0    0 -0.26854458861E+00  0.37902101738E+00  0.58645261935E+02  0.59118029793E+02  0.74470750000E+01 0. -1.
<mgrwt>
<rscale>  0 0.14926077E+02</rscale>
<asrwt>0</asrwt>
<pdfrwt beam="1">  1        2 0.99743909E+00 0.14926077E+02</pdfrwt>
<pdfrwt beam="2">  1       -2 0.98448559E+00 0.14926077E+02</pdfrwt>
<totfact> 0.36874566E-13</totfact>
</mgrwt>
</event>
<event>
 4    1 -0.5170493E-019  0.1494977E+02  0.7818608E-02  0.1869605E+00
          2   -1    0    0  501    0  0.00000000000E+00  0.00000000000E+00  0.11939094446E+03  0.11939094449E+03  0.25500000000E-02 0.  1.
         -2   -1    0    0    0  501 -0.00000000000E+00 -0.00000000000E+00 -0.46798768941E+00  0.46799463665E+00  0.25500000000E-02 0. -1.
         31    1    1    2    0    0  0.49135887591E+00  0.81450856990E-01  0.56185919840E+02  0.56679489960E+02  0.74470750000E+01 0.  1.
        -31    1    1    2    0    0 -0.49135887591E+00 -0.81450856990E-01  0.62737036934E+02  0.63179449167E+02  0.74470750000E+01 0.  1.
<mgrwt>
<rscale>  0 0.14949771E+02</rscale>
<asrwt>0</asrwt>
<pdfrwt beam="1">  1        2 0.99107757E+00 0.14949771E+02</pdfrwt>
<pdfrwt beam="2">  1       -2 0.99395287E+00 0.14949771E+02</pdfrwt>
<totfact>-0.15844864E-13</totfact>
</mgrwt>
</event>
<event>
 4    1 -0.5170493E-019  0.1493830E+02  0.7818608E-02  0.1869957E+00
          2   -1    0    0  501    0  0.00000000000E+00  0.00000000000E+00  0.11928105554E+03  0.11928105557E+03  0.25500000000E-02 0. -1.
         -2   -1    0    0    0  501 -0.00000000000E+00 -0.00000000000E+00 -0.46770039586E+00  0.46770734738E+00  0.25500000000E-02 0.  1.
         31    1    1    2    0    0 -0.32493162676E+00  0.47640368148E-01  0.55634462936E+02  0.56131633170E+02  0.74470750000E+01 0.  1.
        -31    1    1    2    0    0  0.32493162676E+00 -0.47640368148E-01  0.63178892210E+02  0.63617129746E+02  0.74470750000E+01 0. -1.
<mgrwt>
<rscale>  0 0.14938302E+02</rscale>
<asrwt>0</asrwt>
<pdfrwt beam="1">  1        2 0.99016656E+00 0.14938302E+02</pdfrwt>
<pdfrwt beam="2">  1       -2 0.99334151E+00 0.14938302E+02</pdfrwt>
<totfact>-0.16104658E-13</totfact>
</mgrwt>
</event>
<event>
 4    1 -0.5170493E-019  0.1491781E+02  0.7818608E-02  0.1870587E+00
         -2   -1    0    0    0  501 -0.00000000000E+00  0.00000000000E+00  0.12006368961E+03  0.12006368964E+03  0.25500000000E-02 0.  1.
          2   -1    0    0  501    0  0.00000000000E+00 -0.00000000000E+00 -0.46337801680E+00  0.46338503316E+00  0.25500000000E-02 0. -1.
         31    1    1    2    0    0 -0.28875301057E-01  0.25867761524E+00  0.62462989817E+02  0.62905896153E+02  0.74470750000E+01 0. -1.
        -31    1    1    2    0    0  0.28875301057E-01 -0.25867761524E+00  0.57137321778E+02  0.57621178519E+02  0.74470750000E+01 0. -1.
<mgrwt>
<rscale>  0 0.14917815E+02</rscale>
<asrwt>0</asrwt>
<pdfrwt beam="2">  1        2 0.98422177E+00 0.14917815E+02</pdfrwt>
<pdfrwt beam="1">  1       -2 0.99660218E+00 0.14917815E+02</pdfrwt>
<totfact>-0.34092380E-13</totfact>
</mgrwt>
</event>
<event>
 4    1 -0.5170493E-019  0.1490185E+02  0.7818608E-02  0.1871078E+00
         -2   -1    0    0    0  501 -0.00000000000E+00  0.00000000000E+00  0.11961440003E+03  0.11961440006E+03  0.25500000000E-02 0. -1.
          2   -1    0    0  501    0  0.00000000000E+00 -0.00000000000E+00 -0.46412359745E+00  0.46413060254E+00  0.25500000000E-02 0.  1.
         31    1    1    2    0    0  0.35535863774E-01 -0.23318910158E+00  0.59240771516E+02  0.59707483416E+02  0.74470750000E+01 0.  1.
        -31    1    1    2    0    0 -0.35535863774E-01  0.23318910158E+00  0.59909504918E+02  0.60371047246E+02  0.74470750000E+01 0.  1.
<mgrwt>
<rscale>  0 0.14901851E+02</rscale>
<asrwt>0</asrwt>
<pdfrwt beam="2">  1        2 0.98578501E+00 0.14901851E+02</pdfrwt>
<pdfrwt beam="1">  1       -2 0.99289331E+00 0.14901851E+02</pdfrwt>
<totfact>-0.26065356E-13</totfact>
</mgrwt>
</event>
<event>
 4    1 -0.5170493E-019  0.1492538E+02  0.7818608E-02  0.1870354E+00
          2   -1    0    0  501    0  0.00000000000E+00  0.00000000000E+00  0.11867179365E+03  0.11867179367E+03  0.25500000000E-02 0. -1.
         -2   -1    0    0    0  501 -0.00000000000E+00 -0.00000000000E+00 -0.46928867262E+00  0.46929560061E+00  0.25500000000E-02 0.  1.
         31    1    1    2    0    0  0.58300355702E-01  0.21073711257E-02  0.55277889061E+02  0.55777301373E+02  0.74470750000E+01 0.  1.
        -31    1    1    2    0    0 -0.58300355702E-01 -0.21073711257E-02  0.62924615914E+02  0.63363787902E+02  0.74470750000E+01 0. -1.
<mgrwt>
<rscale>  0 0.14925380E+02</rscale>
<asrwt>0</asrwt>
<pdfrwt beam="1">  1        2 0.98514188E+00 0.14925380E+02</pdfrwt>
<pdfrwt beam="2">  1       -2 0.99668151E+00 0.14925380E+02</pdfrwt>
<totfact>-0.28925213E-13</totfact>
</mgrwt>
</event>
<event>
 4    1  0.5170493E-019  0.1491630E+02  0.7818608E-02  0.1870633E+00
          2   -1    0    0  501    0  0.00000000000E+00  0.00000000000E+00  0.12028679971E+03  0.12028679973E+03  0.25500000000E-02 0. -1.
         -2   -1    0    0    0  501 -0.00000000000E+00 -0.00000000000E+00 -0.46242445936E+00  0.46243149018E+00  0.25500000000E-02 0.  1.
         31    1    1    2    0    0 -0.21452485386E+00 -0.34342707653E+00  0.59644275619E+02  0.60108755629E+02  0.74470750000E+01 0.  1.
        -31    1    1    2    0    0  0.21452485386E+00  0.34342707653E+00  0.60180099628E+02  0.60640475595E+02  0.74470750000E+01 0. -1.
<mgrwt>
<rscale>  0 0.14916298E+02</rscale>
<asrwt>0</asrwt>
<pdfrwt beam="1">  1        2 0.99843913E+00 0.14916298E+02</pdfrwt>
<pdfrwt beam="2">  1       -2 0.98221119E+00 0.14916298E+02</pdfrwt>
<totfact> 0.42330204E-13</totfact>
</mgrwt>
</event>
<event>
 4    1  0.5170493E-019  0.1493817E+02  0.7818608E-02  0.1869961E+00
         -2   -1    0    0    0  501 -0.00000000000E+00  0.00000000000E+00  0.11892649634E+03  0.11892649636E+03  0.25500000000E-02 0.  1.
          2   -1    0    0  501    0  0.00000000000E+00 -0.00000000000E+00 -0.46908646079E+00  0.46909339176E+00  0.25500000000E-02 0. -1.
         31    1    1    2    0    0 -0.32828649622E+00  0.46959228622E+00  0.59253548683E+02  0.59722443407E+02  0.74470750000E+01 0.  1.
        -31    1    1    2    0    0  0.32828649622E+00 -0.46959228622E+00  0.59203861193E+02  0.59673146348E+02  0.74470750000E+01 0.  1.
<mgrwt>
<rscale>  0 0.14938169E+02</rscale>
<asrwt>0</asrwt>
<pdfrwt beam="2">  1        2 0.99626214E+00 0.14938169E+02</pdfrwt>
<pdfrwt beam="1">  1       -2 0.98724627E+00 0.14938169E+02</pdfrwt>
<totfact> 0.18782909E-13</totfact>
</mgrwt>
</event>
<event>
 4    1 -0.5170493E-019  0.1497199E+02  0.7818608E-02  0.1868924E+00
          2   -1    0    0  501    0  0.00000000000E+00  0.00000000000E+00  0.11939149953E+03  0.11939149956E+03  0.25500000000E-02 0.  1.
         -2   -1    0    0    0  501 -0.00000000000E+00 -0.00000000000E+00 -0.46937771119E+00  0.46938463787E+00  0.25500000000E-02 0. -1.
         31    1    1    2    0    0  0.18569366083E+00  0.38265172172E+00  0.54395960996E+02  0.54905012551E+02  0.74470750000E+01 0. -1.
        -31    1    1    2    0    0 -0.18569366083E+00 -0.38265172172E+00  0.64526160822E+02  0.64955871644E+02  0.74470750000E+01 0.  1.
<mgrwt>
<rscale>  0 0.14971991E+02</rscale>
<asrwt>0</asrwt>
<pdfrwt beam="1">  1        2 0.99109365E+00 0.14971991E+02</pdfrwt>
<pdfrwt beam="2">  1       -2 0.99689354E+00 0.14971991E+02</pdfrwt>
<totfact>-0.13289630E-13</totfact>
</mgrwt>
</event>
<event>
 4    1 -0.5170493E-019  0.1490877E+02  0.7818608E-02  0.1870865E+00
          2   -1    0    0  501    0  0.00000000000E+00  0.00000000000E+00  0.11829083395E+03  0.11829083397E+03  0.25500000000E-02 0.  1.
         -2   -1    0    0    0  501 -0.00000000000E+00 -0.00000000000E+00 -0.46975291870E+00  0.46975983984E+00  0.25500000000E-02 0. -1.
         31    1    1    2    0    0 -0.31567913784E-01 -0.32838539496E+00  0.58996908487E+02  0.59465981625E+02  0.74470750000E+01 0. -1.
        -31    1    1    2    0    0  0.31567913784E-01  0.32838539496E+00  0.58824172539E+02  0.59294612188E+02  0.74470750000E+01 0.  1.
<mgrwt>
<rscale>  0 0.14908773E+02</rscale>
<asrwt>0</asrwt>
<pdfrwt beam="1">  1        2 0.98199568E+00 0.14908773E+02</pdfrwt>
<pdfrwt beam="2">  1       -2 0.99765091E+00 0.14908773E+02</pdfrwt>
<totfact>-0.38668697E-13</totfact>
</mgrwt>
</event>
<event>
 4    1  0.5170493E-019  0.1490797E+02  0.7818608E-02  0.1870890E+00
         -2   -1    0    0    0  501 -0.00000000000E+00  0.00000000000E+00  0.11870817382E+03  0.11870817385E+03  0.25500000000E-02 0. -1.
          2   -1    0    0  501    0  0.00000000000E+00 -0.00000000000E+00 -0.46805117850E+00  0.46805812481E+00  0.25500000000E-02 0.  1.
         31    1    1    2    0    0  0.11306666101E+00  0.30033453596E+00  0.59138367375E+02  0.59606278249E+02  0.74470750000E+01 0.  1.
        -31    1    1    2    0    0 -0.11306666101E+00 -0.30033453596E+00  0.59101755264E+02  0.59569953721E+02  0.74470750000E+01 0. -1.
<mgrwt>
<rscale>  0 0.14907973E+02</rscale>
<asrwt>0</asrwt>
<pdfrwt beam="2">  1        2 0.99406486E+00 0.14907973E+02</pdfrwt>
<pdfrwt beam="1">  1       -2 0.98543247E+00 0.14907973E+02</pdfrwt>
<totfact> 0.46530105E-13</totfact>
</mgrwt>
</event>
<event>
 4    1 -0.5170493E-019  0.1493235E+02  0.7818608E-02  0.1870140E+00
          2   -1    0    0  501    0  0.00000000000E+00  0.00000000000E+00  0.11897375485E+03  0.11897375487E+03  0.25500000000E-02 0.  1.
         -2   -1    0    0    0  501 -0.00000000000E+00 -0.00000000000E+00 -0.46853459748E+00  0.46854153662E+00  0.25500000000E-02 0. -1.
         31    1    1    2    0    0  0.28156088928E+00  0.41389229076E+00  0.57772771676E+02  0.58252919725E+02  0.74470750000E+01 0. -1.
        -31    1    1    2    0    0 -0.28156088928E+00 -0.41389229076E+00  0.60732448573E+02  0.61189376685E+02  0.74470750000E+01 0.  1.
<mgrwt>
<rscale>  0 0.14932346E+02</rscale>
<asrwt>0</asrwt>
<pdfrwt beam="1">  1        2 0.98763248E+00 0.14932346E+02</pdfrwt>
<pdfrwt beam="2">  1       -2 0.99509625E+00 0.14932346E+02</pdfrwt>
<totfact>-0.23358878E-13</totfact>
</mgrwt>
</event>
<event>
 4    1 -0.5170493E-019  0.1499353E+02  0.7818608E-02  0.1868266E+00
         -2   -1    0    0    0  501 -0.00000000000E+00  0.00000000000E+00  0.11983423124E+03  0.11983423127E+03  0.25500000000E-02 0. -1.
          2   -1    0    0  501    0  0.00000000000E+00 -0.00000000000E+00 -0.46898991826E+00  0.46899685066E+00  0.25500000000E-02 0.  1.
         31    1    1    2    0    0  0.31138174568E+00  0.80280274382E+00  0.59417954751E+02  0.59889011711E+02  0.74470750000E+01 0. -1.
        -31    1    1    2    0    0 -0.31138174568E+00 -0.80280274382E+00  0.59947286574E+02  0.60414216411E+02  0.74470750000E+01 0.  1.
<mgrwt>
<rscale>  0 0.14993527E+02</rscale>
<asrwt>0</asrwt>
<pdfrwt beam="2">  1        2 0.99608755E+00 0.14993527E+02</pdfrwt>
<pdfrwt beam="1">  1       -2 0.99475126E+00 0.14993527E+02</pdfrwt>
<totfact>-0.10444287E-13</totfact>
</mgrwt>
</event>
<event>
 4    1 -0.5170493E-019  0.1499679E+02  0.7818608E-02  0.1868167E+00
         -2   -1    0    0    0  501 -0.00000000000E+00  0.00000000000E+00  0.11969779157E+03  0.11969779160E+03  0.25500000000E-02 0.  1.
          2   -1    0    0  501    0  0.00000000000E+00 -0.00000000000E+00 -0.46972867785E+00  0.46973559934E+00  0.25500000000E-02 0. -1.
         31    1    1    2    0    0  0.65183378337E+00  0.46430475688E+00  0.56763981797E+02  0.57255995509E+02  0.74470750000E+01 0. -1.
        -31    1    1    2    0    0 -0.65183378337E+00 -0.46430475688E+00  0.62464081098E+02  0.62911531690E+02  0.74470750000E+01 0.  1.
<mgrwt>
<rscale>  0 0.14996787E+02</rscale>
<asrwt>0</asrwt>
<pdfrwt beam="2">  1        2 0.99764601E+00 0.14996787E+02</pdfrwt>
<pdfrwt beam="1">  1       -2 0.99362919E+00 0.14996787E+02</pdfrwt>
<totfact>-0.70299106E-14</totfact>
</mgrwt>
</event>
<event>
 4    1 -0.5170493E-019  0.1497761E+02  0.7818608E-02  0.1868752E+00
          2   -1    0    0  501    0  0.00000000000E+00  0.00000000000E+00  0.11963384834E+03  0.11963384836E+03  0.25500000000E-02 0.  1.
         -2   -1    0    0    0  501 -0.00000000000E+00 -0.00000000000E+00 -0.46877864922E+00  0.46878558475E+00  0.25500000000E-02 0. -1.
         31    1    1    2    0    0 -0.69663125323E+00  0.78068261057E-01  0.56670302651E+02  0.57161818711E+02  0.74470750000E+01 0. -1.
        -31    1    1    2    0    0  0.69663125323E+00 -0.78068261057E-01  0.62494767036E+02  0.62940815237E+02  0.74470750000E+01 0.  1.
<mgrwt>
<rscale>  0 0.14977612E+02</rscale>
<asrwt>0</asrwt>
<pdfrwt beam="1">  1        2 0.99309261E+00 0.14977612E+02</pdfrwt>
<pdfrwt beam="2">  1       -2 0.99563409E+00 0.14977612E+02</pdfrwt>
<totfact>-0.13573779E-13</totfact>
</mgrwt>
</event>
<event>
 4    1 -0.5170493E-019  0.1491318E+02  0.7818608E-02  0.1870730E+00
          2   -1    0    0  501    0  0.00000000000E+00  0.00000000000E+00  0.11835848098E+03  0.11835848100E+03  0.25500000000E-02 0.  1.
         -2   -1    0    0    0  501 -0.00000000000E+00 -0.00000000000E+00 -0.46976182687E+00  0.46976874788E+00  0.25500000000E-02 0. -1.
         31    1    1    2    0    0 -0.37314961323E+00 -0.21540578786E-01  0.59307616769E+02  0.59774509931E+02  0.74470750000E+01 0. -1.
        -31    1    1    2    0    0  0.37314961323E+00  0.21540578786E-01  0.58581102380E+02  0.59053739820E+02  0.74470750000E+01 0.  1.
<mgrwt>
<rscale>  0 0.14913177E+02</rscale>
<asrwt>0</asrwt>
<pdfrwt beam="1">  1        2 0.98255511E+00 0.14913177E+02</pdfrwt>
<pdfrwt beam="2">  1       -2 0.99767201E+00 0.14913177E+02</pdfrwt>
<totfact>-0.34940163E-13</totfact>
</mgrwt>
</event>
<event>
 4    1 -0.5170493E-019  0.1493994E+02  0.7818608E-02  0.1869907E+00
          2   -1    0    0  501    0  0.00000000000E+00  0.00000000000E+00  0.11906694850E+03  0.11906694853E+03  0.25500000000E-02 0. -1.
         -2   -1    0    0    0  501 -0.00000000000E+00 -0.00000000000E+00 -0.46864450738E+00  0.46865144489E+00  0.25500000000E-02 0.  1.
         31    1    1    2    0    0 -0.21275499666E+00  0.17760203030E-01  0.63652070896E+02  0.64086587018E+02  0.74470750000E+01 0. -1.
        -31    1    1    2    0    0  0.21275499666E+00 -0.17760203030E-01  0.54946233095E+02  0.55449012954E+02  0.74470750000E+01 0.  1.
<mgrwt>
<rscale>  0 0.14939945E+02</rscale>
<asrwt>0</asrwt>
<pdfrwt beam="1">  1        2 0.98840398E+00 0.14939945E+02</pdfrwt>
<pdfrwt beam="2">  1       -2 0.99533182E+00 0.14939945E+02</pdfrwt>
<totfact>-0.20977745E-13</totfact>
</mgrwt>
</event>
<event>
 4    1 -0.5170493E-019  0.1489930E+02  0.7818608E-02  0.1871157E+00
          2   -1    0    0  501    0  0.00000000000E+00  0.00000000000E+00  0.11846137882E+03  0.11846137884E+03  0.25500000000E-02 0.  1.
         -2   -1    0    0    0  501 -0.00000000000E+00 -0.00000000000E+00 -0.46848082619E+00  0.46848776613E+00  0.25500000000E-02 0. -1.
         31    1    1    2    0    0 -0.16052049431E+00  0.10365791287E+00  0.58652092463E+02  0.59123289727E+02  0.74470750000E+01 0.  1.
        -31    1    1    2    0    0  0.16052049431E+00 -0.10365791287E+00  0.59340805527E+02  0.59806576883E+02  0.74470750000E+01 0. -1.
<mgrwt>
<rscale>  0 0.14899302E+02</rscale>
<asrwt>0</asrwt>
<pdfrwt beam="1">  1        2 0.98339535E+00 0.14899302E+02</pdfrwt>
<pdfrwt beam="2">  1       -2 0.99496561E+00 0.14899302E+02</pdfrwt>
<totfact>-0.45329558E-13</totfact>
</mgrwt>
</event>
<event>
 4    1 -0.5170493E-019  0.1494615E+02  0.7818608E-02  0.1869716E+00
         -2   -1    0    0    0  501 -0.00000000000E+00  0.00000000000E+00  0.12009183539E+03  0.12009183542E+03  0.25500000000E-02 0. -1.
          2   -1    0    0  501    0  0.00000000000E+00 -0.00000000000E+00 -0.46503118293E+00  0.46503817434E+00  0.25500000000E-02 0.  1.
         31    1    1    2    0    0  0.11120757764E+00  0.31118858785E+00  0.55554849052E+02  0.56052737531E+02  0.74470750000E+01 0.  1.
        -31    1    1    2    0    0 -0.11120757764E+00 -0.31118858785E+00  0.64071955154E+02  0.64504136059E+02  0.74470750000E+01 0. -1.
<mgrwt>
<rscale>  0 0.14946153E+02</rscale>
<asrwt>0</asrwt>
<pdfrwt beam="2">  1        2 0.98772041E+00 0.14946153E+02</pdfrwt>
<pdfrwt beam="1">  1       -2 0.99684858E+00 0.14946153E+02</pdfrwt>
<totfact>-0.19128175E-13</totfact>
</mgrwt>
</event>
<event>
 4    1  0.5170493E-019  0.1489783E+02  0.7818608E-02  0.1871202E+00
         -2   -1    0    0    0  501 -0.00000000000E+00  0.00000000000E+00  0.11867097195E+03  0.11867097198E+03  0.25500000000E-02 0.  1.
          2   -1    0    0  501    0  0.00000000000E+00 -0.00000000000E+00 -0.46756099757E+00  0.46756795115E+00  0.25500000000E-02 0. -1.
         31    1    1    2    0    0 -0.67732176066E-01  0.78868717214E-01  0.58071362015E+02  0.58547013760E+02  0.74470750000E+01 0. -1.
        -31    1    1    2    0    0  0.67732176066E-01 -0.78868717214E-01  0.60132048939E+02  0.60591526169E+02  0.74470750000E+01 0. -1.
<mgrwt>
<rscale>  0 0.14897830E+02</rscale>
<asrwt>0</asrwt>
<pdfrwt beam="2">  1        2 0.99302667E+00 0.14897830E+02</pdfrwt>
<pdfrwt beam="1">  1       -2 0.98512081E+00 0.14897830E+02</pdfrwt>
<totfact> 0.55203331E-13</totfact>
</mgrwt>
</event>
<event>
 4    1 -0.5170493E-019  0.1499036E+02  0.7818608E-02  0.1868363E+00
          2   -1    0    0  501    0  0.00000000000E+00  0.00000000000E+00  0.11974589851E+03  0.11974589854E+03  0.25500000000E-02 0. -1.
         -2   -1    0    0    0  501 -0.00000000000E+00 -0.00000000000E+00 -0.46913733948E+00  0.46914426970E+00  0.25500000000E-02 0.  1.
         31    1    1    2    0    0 -0.42734705603E+00  0.55781919392E+00  0.63442162169E+02  0.63881614370E+02  0.74470750000E+01 0. -1.
        -31    1    1    2    0    0  0.42734705603E+00 -0.55781919392E+00  0.55834599006E+02  0.56333428441E+02  0.74470750000E+01 0. -1.
<mgrwt>
<rscale>  0 0.14990356E+02</rscale>
<asrwt>0</asrwt>
<pdfrwt beam="1">  1        2 0.99402208E+00 0.14990356E+02</pdfrwt>
<pdfrwt beam="2">  1       -2 0.99639657E+00 0.14990356E+02</pdfrwt>
<totfact>-0.11640115E-13</totfact>
</mgrwt>
</event>
<event>
 4    1 -0.5170493E-019  0.1501186E+02  0.7818608E-02  0.1867707E+00
         -2   -1    0    0    0  501 -0.00000000000E+00  0.00000000000E+00  0.12042412240E+03  0.12042412243E+03  0.25500000000E-02 0. -1.
          2   -1    0    0  501    0  0.00000000000E+00 -0.00000000000E+00 -0.46783438575E+00  0.46784133527E+00  0.25500000000E-02 0.  1.
         31    1    1    2    0    0 -0.69741305897E+00  0.15144458101E+00  0.55074868185E+02  0.55580656276E+02  0.74470750000E+01 0.  1.
        -31    1    1    2    0    0  0.69741305897E+00 -0.15144458101E+00  0.64881419832E+02  0.65311307489E+02  0.74470750000E+01 0. -1.
<mgrwt>
<rscale>  0 0.15011858E+02</rscale>
<asrwt>0</asrwt>
<pdfrwt beam="2">  1        2 0.99366182E+00 0.15011858E+02</pdfrwt>
<pdfrwt beam="1">  1       -2 0.99961934E+00 0.15011858E+02</pdfrwt>
<totfact>-0.17437722E-14</totfact>
</mgrwt>
</event>
<event>
 4    1 -0.5170493E-019  0.1502210E+02  0.7818608E-02  0.1867395E+00
          2   -1    0    0  501    0  0.00000000000E+00  0.00000000000E+00  0.12022984117E+03  0.12022984120E+03  0.25500000000E-02 0. -1.
         -2   -1    0    0    0  501 -0.00000000000E+00 -0.00000000000E+00 -0.46923017259E+00  0.46923710144E+00  0.25500000000E-02 0.  1.
         31    1    1    2    0    0 -0.69629016002E+00  0.44010680723E+00  0.55640499685E+02  0.56142698949E+02  0.74470750000E+01 0.  1.
        -31    1    1    2    0    0  0.69629016002E+00 -0.44010680723E+00  0.64120111316E+02  0.64556379353E+02  0.74470750000E+01 0. -1.
<mgrwt>
<rscale>  0 0.15022102E+02</rscale>
<asrwt>0</asrwt>
<pdfrwt beam="1">  1        2 0.99802443E+00 0.15022102E+02</pdfrwt>
<pdfrwt beam="2">  1       -2 0.99660862E+00 0.15022102E+02</pdfrwt>
<totfact>-0.56026336E-14</totfact>
</mgrwt>
</event>
<event>
 4    1 -0.5170493E-019  0.1492937E+02  0.7818608E-02  0.1870232E+00
         -2   -1    0    0    0  501 -0.00000000000E+00  0.00000000000E+00  0.12033648683E+03  0.12033648685E+03  0.25500000000E-02 0. -1.
          2   -1    0    0  501    0  0.00000000000E+00 -0.00000000000E+00 -0.46304380944E+00  0.46305083086E+00  0.25500000000E-02 0.  1.
         31    1    1    2    0    0  0.37236630402E+00 -0.29220249271E+00  0.61524905343E+02  0.61975777063E+02  0.74470750000E+01 0. -1.
        -31    1    1    2    0    0 -0.37236630402E+00  0.29220249271E+00  0.58348537674E+02  0.58823760622E+02  0.74470750000E+01 0. -1.
<mgrwt>
<rscale>  0 0.14929366E+02</rscale>
<asrwt>0</asrwt>
<pdfrwt beam="2">  1        2 0.98352321E+00 0.14929366E+02</pdfrwt>
<pdfrwt beam="1">  1       -2 0.99885510E+00 0.14929366E+02</pdfrwt>
<totfact>-0.16300621E-13</totfact>
</mgrwt>
</event>
<event>
 4    1  0.5170493E-019  0.1490606E+02  0.7818608E-02  0.1870949E+00
          2   -1    0    0  501    0  0.00000000000E+00  0.00000000000E+00  0.12018209081E+03  0.12018209083E+03  0.25500000000E-02 0.  1.
         -2   -1    0    0    0  501 -0.00000000000E+00 -0.00000000000E+00 -0.46219242428E+00  0.46219945863E+00  0.25500000000E-02 0. -1.
         31    1    1    2    0    0  0.10711729846E+00  0.67841008456E-01  0.57678037306E+02  0.58156951347E+02  0.74470750000E+01 0. -1.
        -31    1    1    2    0    0 -0.10711729846E+00 -0.67841008456E-01  0.62041861075E+02  0.62487338944E+02  0.74470750000E+01 0.  1.
<mgrwt>
<rscale>  0 0.14906063E+02</rscale>
<asrwt>0</asrwt>
<pdfrwt beam="1">  1        2 0.99757140E+00 0.14906063E+02</pdfrwt>
<pdfrwt beam="2">  1       -2 0.98171696E+00 0.14906063E+02</pdfrwt>
<totfact> 0.66002371E-13</totfact>
</mgrwt>
</event>
<event>
 4    1 -0.5170493E-019  0.1494313E+02  0.7818608E-02  0.1869809E+00
          2   -1    0    0  501    0  0.00000000000E+00  0.00000000000E+00  0.11908664372E+03  0.11908664375E+03  0.25500000000E-02 0. -1.
         -2   -1    0    0    0  501 -0.00000000000E+00 -0.00000000000E+00 -0.46876684301E+00  0.46877377871E+00  0.25500000000E-02 0.  1.
         31    1    1    2    0    0  0.34967007626E+00 -0.47425312405E+00  0.60387549845E+02  0.60847861815E+02  0.74470750000E+01 0. -1.
        -31    1    1    2    0    0 -0.34967007626E+00  0.47425312405E+00  0.58230327034E+02  0.58707555712E+02  0.74470750000E+01 0.  1.
<mgrwt>
<rscale>  0 0.14943130E+02</rscale>
<asrwt>0</asrwt>
<pdfrwt beam="1">  1        2 0.98856784E+00 0.14943130E+02</pdfrwt>
<pdfrwt beam="2">  1       -2 0.99559126E+00 0.14943130E+02</pdfrwt>
<totfact>-0.20252517E-13</totfact>
</mgrwt>
</event>
<event>
 4    1 -0.5170493E-019  0.1494912E+02  0.7818608E-02  0.1869625E+00
         -2   -1    0    0    0  501 -0.00000000000E+00  0.00000000000E+00  0.11990970294E+03  0.11990970297E+03  0.25500000000E-02 0. -1.
          2   -1    0    0  501    0  0.00000000000E+00 -0.00000000000E+00 -0.46592259008E+00  0.46592956812E+00  0.25500000000E-02 0.  1.
         31    1    1    2    0    0  0.17167318875E+00  0.43227653134E+00  0.63266758221E+02  0.63705242772E+02  0.74470750000E+01 0. -1.
        -31    1    1    2    0    0 -0.17167318875E+00 -0.43227653134E+00  0.56177022130E+02  0.56670389765E+02  0.74470750000E+01 0. -1.
<mgrwt>
<rscale>  0 0.14949122E+02</rscale>
<asrwt>0</asrwt>
<pdfrwt beam="2">  1        2 0.98960059E+00 0.14949122E+02</pdfrwt>
<pdfrwt beam="1">  1       -2 0.99534995E+00 0.14949122E+02</pdfrwt>
<totfact>-0.18341047E-13</totfact>
</mgrwt>
</event>
<event>
 4    1 -0.5170493E-019  0.1489718E+02  0.7818608E-02  0.1871222E+00
         -2   -1    0    0    0  501 -0.00000000000E+00  0.00000000000E+00  0.11996924337E+03  0.11996924340E+03  0.25500000000E-02 0. -1.
          2   -1    0    0  501    0  0.00000000000E+00 -0.00000000000E+00 -0.46246068575E+00  0.46246771603E+00  0.25500000000E-02 0.  1.
         31    1    1    2    0    0 -0.14037025906E+00  0.41064529774E-01  0.59477181137E+02  0.59941766676E+02  0.74470750000E+01 0.  1.
        -31    1    1    2    0    0  0.14037025906E+00 -0.41064529774E-01  0.60029601546E+02  0.60489944436E+02  0.74470750000E+01 0.  1.
<mgrwt>
<rscale>  0 0.14897179E+02</rscale>
<asrwt>0</asrwt>
<pdfrwt beam="2">  1        2 0.98227788E+00 0.14897179E+02</pdfrwt>
<pdfrwt beam="1">  1       -2 0.99581365E+00 0.14897179E+02</pdfrwt>
<totfact>-0.52298902E-13</totfact>
</mgrwt>
</event>
<event>
 4    1 -0.5170493E-019  0.1493099E+02  0.7818608E-02  0.1870182E+00
         -2   -1    0    0    0  501 -0.00000000000E+00  0.00000000000E+00  0.11983752502E+03  0.11983752504E+03  0.25500000000E-02 0.  1.
          2   -1    0    0  501    0  0.00000000000E+00 -0.00000000000E+00 -0.46507313316E+00  0.46508012395E+00  0.25500000000E-02 0. -1.
         31    1    1    2    0    0 -0.28739900141E+00  0.85390349451E-01  0.56222365560E+02  0.56714224009E+02  0.74470750000E+01 0. -1.
        -31    1    1    2    0    0  0.28739900141E+00 -0.85390349451E-01  0.63150086322E+02  0.63588381157E+02  0.74470750000E+01 0.  1.
<mgrwt>
<rscale>  0 0.14930993E+02</rscale>
<asrwt>0</asrwt>
<pdfrwt beam="2">  1        2 0.98780108E+00 0.14930993E+02</pdfrwt>
<pdfrwt beam="1">  1       -2 0.99474611E+00 0.14930993E+02</pdfrwt>
<totfact>-0.22962137E-13</totfact>
</mgrwt>
</event>
<event>
 4    1  0.5170493E-019  0.1491416E+02  0.7818608E-02  0.1870699E+00
          2   -1    0    0  501    0  0.00000000000E+00  0.00000000000E+00  0.12016601770E+03  0.12016601773E+03  0.25500000000E-02 0.  1.
         -2   -1    0    0    0  501 -0.00000000000E+00 -0.00000000000E+00 -0.46275632703E+00  0.46276335282E+00  0.25500000000E-02 0. -1.
         31    1    1    2    0    0 -0.12418585673E-01  0.36413852648E+00  0.60885315912E+02  0.61340144855E+02  0.74470750000E+01 0. -1.
        -31    1    1    2    0    0  0.12418585673E-01 -0.36413852648E+00  0.58817945463E+02  0.59288636226E+02  0.74470750000E+01 0.  1.
<mgrwt>
<rscale>  0 0.14914156E+02</rscale>
<asrwt>0</asrwt>
<pdfrwt beam="1">  1        2 0.99744316E+00 0.14914156E+02</pdfrwt>
<pdfrwt beam="2">  1       -2 0.98290959E+00 0.14914156E+02</pdfrwt>
<totfact> 0.53639307E-13</totfact>
</mgrwt>
</event>
<event>
 4    1  0.5170493E-019  0.1491531E+02  0.7818608E-02  0.1870664E+00
         -2   -1    0    0    0  501 -0.00000000000E+00  0.00000000000E+00  0.11854336139E+03  0.11854336141E+03  0.25500000000E-02 0. -1.
          2   -1    0    0  501    0  0.00000000000E+00 -0.00000000000E+00 -0.46916313757E+00  0.46917006741E+00  0.25500000000E-02 0.  1.
         31    1    1    2    0    0 -0.18518171383E+00  0.27178789677E+00  0.57261791668E+02  0.57744955382E+02  0.74470750000E+01 0.  1.
        -31    1    1    2    0    0  0.18518171383E+00 -0.27178789677E+00  0.60812406581E+02  0.61267576100E+02  0.74470750000E+01 0. -1.
<mgrwt>
<rscale>  0 0.14915306E+02</rscale>
<asrwt>0</asrwt>
<pdfrwt beam="2">  1        2 0.99641170E+00 0.14915306E+02</pdfrwt>
<pdfrwt beam="1">  1       -2 0.98407888E+00 0.14915306E+02</pdfrwt>
<totfact> 0.51298625E-13</totfact>
</mgrwt>
</event>
<event>
 4    1  0.5170493E-019  0.1490486E+02  0.7818608E-02  0.1870986E+00
         -2   -1    0    0    0  501 -0.00000000000E+00  0.00000000000E+00  0.11856340239E+03  0.11856340242E+03  0.25500000000E-02 0. -1.
          2   -1    0    0  501    0  0.00000000000E+00 -0.00000000000E+00 -0.46842728097E+00  0.46843422170E+00  0.25500000000E-02 0.  1.
         31    1    1    2    0    0 -0.19585643990E+00 -0.53330502511E-01  0.60616853526E+02  0.61072932313E+02  0.74470750000E+01 0. -1.
        -31    1    1    2    0    0  0.19585643990E+00  0.53330502511E-01  0.57478121581E+02  0.57958904324E+02  0.74470750000E+01 0.  1.
<mgrwt>
<rscale>  0 0.14904865E+02</rscale>
<asrwt>0</asrwt>
<pdfrwt beam="2">  1        2 0.99485572E+00 0.14904865E+02</pdfrwt>
<pdfrwt beam="1">  1       -2 0.98423851E+00 0.14904865E+02</pdfrwt>
<totfact> 0.60323909E-13</totfact>
</mgrwt>
</event>
<event>
 4    1 -0.5170493E-019  0.1497782E+02  0.7818608E-02  0.1868746E+00
          2   -1    0    0  501    0  0.00000000000E+00  0.00000000000E+00  0.11949312175E+03  0.11949312178E+03  0.25500000000E-02 0.  1.
         -2   -1    0    0    0  501 -0.00000000000E+00 -0.00000000000E+00 -0.46934375250E+00  0.46935067968E+00  0.25500000000E-02 0. -1.
         31    1    1    2    0    0 -0.23555106151E+00  0.55732802766E+00  0.55437798914E+02  0.55939025495E+02  0.74470750000E+01 0.  1.
        -31    1    1    2    0    0  0.23555106151E+00 -0.55732802766E+00  0.63585979084E+02  0.64023446963E+02  0.74470750000E+01 0.  1.
<mgrwt>
<rscale>  0 0.14977819E+02</rscale>
<asrwt>0</asrwt>
<pdfrwt beam="1">  1        2 0.99193366E+00 0.14977819E+02</pdfrwt>
<pdfrwt beam="2">  1       -2 0.99682501E+00 0.14977819E+02</pdfrwt>
<totfact>-0.12629720E-13</totfact>
</mgrwt>
</event>
<event>
 4    1  0.5170493E-019  0.1490723E+02  0.7818608E-02  0.1870913E+00
         -2   -1    0    0    0  501 -0.00000000000E+00  0.00000000000E+00  0.11813354650E+03  0.11813354653E+03  0.25500000000E-02 0. -1.
          2   -1    0    0  501    0  0.00000000000E+00 -0.00000000000E+00 -0.47028092350E+00  0.47028783687E+00  0.25500000000E-02 0.  1.
         31    1    1    2    0    0 -0.21164665110E+00 -0.17858237365E-01  0.60651581907E+02  0.61107433485E+02  0.74470750000E+01 0. -1.
        -31    1    1    2    0    0  0.21164665110E+00  0.17858237365E-01  0.57011683671E+02  0.57496400881E+02  0.74470750000E+01 0.  1.
<mgrwt>
<rscale>  0 0.14907228E+02</rscale>
<asrwt>0</asrwt>
<pdfrwt beam="2">  1        2 0.99876255E+00 0.14907228E+02</pdfrwt>
<pdfrwt beam="1">  1       -2 0.98069949E+00 0.14907228E+02</pdfrwt>
<totfact> 0.46342300E-13</totfact>
</mgrwt>
</event>
<event>
 4    1 -0.5170493E-019  0.1498231E+02  0.7818608E-02  0.1868609E+00
         -2   -1    0    0    0  501 -0.00000000000E+00  0.00000000000E+00  0.12029833654E+03  0.12029833656E+03  0.25500000000E-02 0.  1.
          2   -1    0    0  501    0  0.00000000000E+00 -0.00000000000E+00 -0.46648193525E+00  0.46648890492E+00  0.25500000000E-02 0. -1.
         31    1    1    2    0    0  0.28102711891E+00  0.71189452427E+00  0.62089679525E+02  0.62539371596E+02  0.74470750000E+01 0.  1.
        -31    1    1    2    0    0 -0.28102711891E+00 -0.71189452427E+00  0.57742175077E+02  0.58225453873E+02  0.74470750000E+01 0.  1.
<mgrwt>
<rscale>  0 0.14982313E+02</rscale>
<asrwt>0</asrwt>
<pdfrwt beam="2">  1        2 0.99079640E+00 0.14982313E+02</pdfrwt>
<pdfrwt beam="1">  1       -2 0.99856807E+00 0.14982313E+02</pdfrwt>
<totfact>-0.74613360E-14</totfact>
</mgrwt>
</event>
<event>
 4    1 -0.5170493E-019  0.1497530E+02  0.7818608E-02  0.1868823E+00
          2   -1    0    0  501    0  0.00000000000E+00  0.00000000000E+00  0.11926811494E+03  0.11926811497E+03  0.25500000000E-02 0. -1.
         -2   -1    0    0    0  501 -0.00000000000E+00 -0.00000000000E+00 -0.47007099912E+00  0.47007791557E+00  0.25500000000E-02 0.  1.
         31    1    1    2    0    0  0.17057148325E-01 -0.23159170480E+00  0.53458223777E+02  0.53974943642E+02  0.74470750000E+01 0.  1.
        -31    1    1    2    0    0 -0.17057148325E-01  0.23159170480E+00  0.65339820165E+02  0.65763249242E+02  0.74470750000E+01 0. -1.
<mgrwt>
<rscale>  0 0.14975299E+02</rscale>
<asrwt>0</asrwt>
<pdfrwt beam="1">  1        2 0.99007916E+00 0.14975299E+02</pdfrwt>
<pdfrwt beam="2">  1       -2 0.99835614E+00 0.14975299E+02</pdfrwt>
<totfact>-0.89571289E-14</totfact>
</mgrwt>
</event>
<event>
 4    1  0.5170493E-019  0.1490884E+02  0.7818608E-02  0.1870863E+00
         -2   -1    0    0    0  501 -0.00000000000E+00  0.00000000000E+00  0.11834238906E+03  0.11834238908E+03  0.25500000000E-02 0.  1.
          2   -1    0    0  501    0  0.00000000000E+00 -0.00000000000E+00 -0.46955250845E+00  0.46955943255E+00  0.25500000000E-02 0. -1.
         31    1    1    2    0    0 -0.13586413248E+00 -0.24513738110E+00  0.60337306772E+02  0.60795789870E+02  0.74470750000E+01 0.  1.
        -31    1    1    2    0    0  0.13586413248E+00  0.24513738110E+00  0.57535529775E+02  0.58016158645E+02  0.74470750000E+01 0. -1.
<mgrwt>
<rscale>  0 0.14908840E+02</rscale>
<asrwt>0</asrwt>
<pdfrwt beam="2">  1        2 0.99722869E+00 0.14908840E+02</pdfrwt>
<pdfrwt beam="1">  1       -2 0.98242032E+00 0.14908840E+02</pdfrwt>
<totfact> 0.63005892E-13</totfact>
</mgrwt>
</event>
<event>
 4    1 -0.5170493E-019  0.1490195E+02  0.7818608E-02  0.1871075E+00
         -2   -1    0    0    0  501 -0.00000000000E+00  0.00000000000E+00  0.11942794693E+03  0.11942794696E+03  0.25500000000E-02 0. -1.
          2   -1    0    0  501    0  0.00000000000E+00 -0.00000000000E+00 -0.46485435835E+00  0.46486135243E+00  0.25500000000E-02 0.  1.
         31    1    1    2    0    0 -0.91929078760E-01 -0.22276157738E+00  0.59519972020E+02  0.59984531915E+02  0.74470750000E+01 0. -1.
        -31    1    1    2    0    0  0.91929078760E-01  0.22276157738E+00  0.59443120554E+02  0.59908276398E+02  0.74470750000E+01 0. -1.
<mgrwt>
<rscale>  0 0.14901949E+02</rscale>
<asrwt>0</asrwt>
<pdfrwt beam="2">  1        2 0.98732513E+00 0.14901949E+02</pdfrwt>
<pdfrwt beam="1">  1       -2 0.99135762E+00 0.14901949E+02</pdfrwt>
<totfact>-0.11570359E-13</totfact>
</mgrwt>
</event>
<event>
 4    1 -0.5170493E-019  0.1490960E+02  0.7818608E-02  0.1870840E+00
          2   -1    0    0  501    0  0.00000000000E+00  0.00000000000E+00  0.11834594241E+03  0.11834594244E+03  0.25500000000E-02 0. -1.
         -2   -1    0    0    0  501 -0.00000000000E+00 -0.00000000000E+00 -0.46958639310E+00  0.46959331669E+00  0.25500000000E-02 0.  1.
         31    1    1    2    0    0 -0.14649891666E+00  0.19394457814E+00  0.57051433159E+02  0.57535936839E+02  0.74470750000E+01 0.  1.
        -31    1    1    2    0    0  0.14649891666E+00 -0.19394457814E+00  0.60824922856E+02  0.61279598913E+02  0.74470750000E+01 0.  1.
<mgrwt>
<rscale>  0 0.14909602E+02</rscale>
<asrwt>0</asrwt>
<pdfrwt beam="1">  1        2 0.98244998E+00 0.14909602E+02</pdfrwt>
<pdfrwt beam="2">  1       -2 0.99730048E+00 0.14909602E+02</pdfrwt>
<totfact>-0.39634835E-13</totfact>
</mgrwt>
</event>
<event>
 4    1 -0.5170493E-019  0.1495064E+02  0.7818608E-02  0.1869579E+00
         -2   -1    0    0    0  501 -0.00000000000E+00  0.00000000000E+00  0.11994179860E+03  0.11994179863E+03  0.25500000000E-02 0. -1.
          2   -1    0    0  501    0  0.00000000000E+00 -0.00000000000E+00 -0.46589233677E+00  0.46589931526E+00  0.25500000000E-02 0.  1.
         31    1    1    2    0    0  0.46876477058E+00  0.13451927805E+00  0.56286832875E+02  0.56779435688E+02  0.74470750000E+01 0.  1.
        -31    1    1    2    0    0 -0.46876477058E+00 -0.13451927805E+00  0.63189073390E+02  0.63628262256E+02  0.74470750000E+01 0. -1.
<mgrwt>
<rscale>  0 0.14950637E+02</rscale>
<asrwt>0</asrwt>
<pdfrwt beam="2">  1        2 0.98953761E+00 0.14950637E+02</pdfrwt>
<pdfrwt beam="1">  1       -2 0.99561509E+00 0.14950637E+02</pdfrwt>
<totfact>-0.18160577E-13</totfact>
</mgrwt>
</event>
<event>
 4    1 -0.5170493E-019  0.1496809E+02  0.7818608E-02  0.1869044E+00
          2   -1    0    0  501    0  0.00000000000E+00  0.00000000000E+00  0.11942186524E+03  0.11942186526E+03  0.25500000000E-02 0.  1.
         -2   -1    0    0    0  501 -0.00000000000E+00 -0.00000000000E+00 -0.46901384080E+00  0.46902077285E+00  0.25500000000E-02 0. -1.
         31    1    1    2    0    0  0.17295254276E+00 -0.70576315765E+00  0.60716894912E+02  0.61176206715E+02  0.74470750000E+01 0.  1.
        -31    1    1    2    0    0 -0.17295254276E+00  0.70576315765E+00  0.58235956482E+02  0.58714679320E+02  0.74470750000E+01 0.  1.
<mgrwt>
<rscale>  0 0.14968089E+02</rscale>
<asrwt>0</asrwt>
<pdfrwt beam="1">  1        2 0.99134173E+00 0.14968089E+02</pdfrwt>
<pdfrwt beam="2">  1       -2 0.99612475E+00 0.14968089E+02</pdfrwt>
<totfact>-0.14719649E-13</totfact>
</mgrwt>
</event>
<event>
 4    1  0.5170493E-019  0.1491457E+02  0.7818608E-02  0.1870687E+00
         -2   -1    0    0    0  501 -0.00000000000E+00  0.00000000000E+00  0.11839299506E+03  0.11839299509E+03  0.25500000000E-02 0.  1.
          2   -1    0    0  501    0  0.00000000000E+00 -0.00000000000E+00 -0.46971261696E+00  0.46971953869E+00  0.25500000000E-02 0. -1.
         31    1    1    2    0    0 -0.24071979779E-01  0.36281829584E+00  0.60087409255E+02  0.60548227832E+02  0.74470750000E+01 0. -1.
        -31    1    1    2    0    0  0.24071979779E-01 -0.36281829584E+00  0.57835873191E+02  0.58314486797E+02  0.74470750000E+01 0.  1.
<mgrwt>
<rscale>  0 0.14914570E+02</rscale>
<asrwt>0</asrwt>
<pdfrwt beam="2">  1        2 0.99756906E+00 0.14914570E+02</pdfrwt>
<pdfrwt beam="1">  1       -2 0.98284009E+00 0.14914570E+02</pdfrwt>
<totfact> 0.52493630E-13</totfact>
</mgrwt>
</event>
<event>
 4    1  0.5170493E-019  0.1492592E+02  0.7818608E-02  0.1870338E+00
         -2   -1    0    0    0  501 -0.00000000000E+00  0.00000000000E+00  0.11908907191E+03  0.11908907194E+03  0.25500000000E-02 0.  1.
          2   -1    0    0  501    0  0.00000000000E+00 -0.00000000000E+00 -0.46767808468E+00  0.46768503653E+00  0.25500000000E-02 0. -1.
         31    1    1    2    0    0 -0.24569307932E+00  0.30754718556E+00  0.57018520389E+02  0.57504135015E+02  0.74470750000E+01 0. -1.
        -31    1    1    2    0    0  0.24569307932E+00 -0.30754718556E+00  0.61602873438E+02  0.62052621961E+02  0.74470750000E+01 0. -1.
<mgrwt>
<rscale>  0 0.14925919E+02</rscale>
<asrwt>0</asrwt>
<pdfrwt beam="2">  1        2 0.99328806E+00 0.14925919E+02</pdfrwt>
<pdfrwt beam="1">  1       -2 0.98857892E+00 0.14925919E+02</pdfrwt>
<totfact> 0.12002504E-13</totfact>
</mgrwt>
</event>
<event>
 4    1 -0.5170493E-019  0.1498194E+02  0.7818608E-02  0.1868620E+00
          2   -1    0    0  501    0  0.00000000000E+00  0.00000000000E+00  0.11945512935E+03  0.11945512937E+03  0.25500000000E-02 0. -1.
         -2   -1    0    0    0  501 -0.00000000000E+00 -0.00000000000E+00 -0.46975119449E+00  0.46975811566E+00  0.25500000000E-02 0.  1.
         31    1    1    2    0    0 -0.44849739250E+00  0.43269396980E+00  0.55354160451E+02  0.55856336966E+02  0.74470750000E+01 0. -1.
        -31    1    1    2    0    0  0.44849739250E+00 -0.43269396980E+00  0.63631217702E+02  0.64068550525E+02  0.74470750000E+01 0. -1.
<mgrwt>
<rscale>  0 0.14981937E+02</rscale>
<asrwt>0</asrwt>
<pdfrwt beam="1">  1        2 0.99162288E+00 0.14981937E+02</pdfrwt>
<pdfrwt beam="2">  1       -2 0.99768572E+00 0.14981937E+02</pdfrwt>
<totfact>-0.10375076E-13</totfact>
</mgrwt>
</event>
<event>
 4    1  0.5170493E-019  0.1491238E+02  0.7818608E-02  0.1870754E+00
          2   -1    0    0  501    0  0.00000000000E+00  0.00000000000E+00  0.11980235421E+03  0.11980235423E+03  0.25500000000E-02 0.  1.
         -2   -1    0    0    0  501 -0.00000000000E+00 -0.00000000000E+00 -0.46405024021E+00  0.46405724641E+00  0.25500000000E-02 0. -1.
         31    1    1    2    0    0  0.11748327328E+00 -0.32206570405E+00  0.60759536253E+02  0.61215175409E+02  0.74470750000E+01 0. -1.
        -31    1    1    2    0    0 -0.11748327328E+00  0.32206570405E+00  0.58578767712E+02  0.59051236070E+02  0.74470750000E+01 0.  1.
<mgrwt>
<rscale>  0 0.14912375E+02</rscale>
<asrwt>0</asrwt>
<pdfrwt beam="1">  1        2 0.99444684E+00 0.14912375E+02</pdfrwt>
<pdfrwt beam="2">  1       -2 0.98563578E+00 0.14912375E+02</pdfrwt>
<totfact> 0.42306487E-13</totfact>
</mgrwt>
</event>
<event>
 4    1  0.5170493E-019  0.1489733E+02  0.7818608E-02  0.1871218E+00
         -2   -1    0    0    0  501 -0.00000000000E+00  0.00000000000E+00  0.11816560626E+03  0.11816560628E+03  0.25500000000E-02 0.  1.
          2   -1    0    0  501    0  0.00000000000E+00 -0.00000000000E+00 -0.46952924039E+00  0.46953616483E+00  0.25500000000E-02 0. -1.
         31    1    1    2    0    0  0.70242740875E-01 -0.75833628265E-01  0.59756329164E+02  0.60218672237E+02  0.74470750000E+01 0.  1.
        -31    1    1    2    0    0 -0.70242740875E-01  0.75833628265E-01  0.57939747852E+02  0.58416470211E+02  0.74470750000E+01 0.  1.
<mgrwt>
<rscale>  0 0.14897331E+02</rscale>
<asrwt>0</asrwt>
<pdfrwt beam="2">  1        2 0.99717357E+00 0.14897331E+02</pdfrwt>
<pdfrwt beam="1">  1       -2 0.98095836E+00 0.14897331E+02</pdfrwt>
<totfact> 0.84785639E-13</totfact>
</mgrwt>
</event>
<event>
 4    1 -0.5170493E-019  0.1493141E+02  0.7818608E-02  0.1870169E+00
          2   -1    0    0  501    0  0.00000000000E+00  0.00000000000E+00  0.11885856782E+03  0.11885856785E+03  0.25500000000E-02 0. -1.
         -2   -1    0    0    0  501 -0.00000000000E+00 -0.00000000000E+00 -0.46893005569E+00  0.46893698898E+00  0.25500000000E-02 0.  1.
         31    1    1    2    0    0  0.52292366901E+00  0.55881606465E-01  0.59479861287E+02  0.59946554502E+02  0.74470750000E+01 0.  1.
        -31    1    1    2    0    0 -0.52292366901E+00 -0.55881606465E-01  0.58909776482E+02  0.59380950338E+02  0.74470750000E+01 0. -1.
<mgrwt>
<rscale>  0 0.14931413E+02</rscale>
<asrwt>0</asrwt>
<pdfrwt beam="1">  1        2 0.98668330E+00 0.14931413E+02</pdfrwt>
<pdfrwt beam="2">  1       -2 0.99592904E+00 0.14931413E+02</pdfrwt>
<totfact>-0.25284760E-13</totfact>
</mgrwt>
</event>
<event>
 4    1  0.5170493E-019  0.1491421E+02  0.7818608E-02  0.1870698E+00
         -2   -1    0    0    0  501 -0.00000000000E+00  0.00000000000E+00  0.11833701307E+03  0.11833701310E+03  0.25500000000E-02 0.  1.
          2   -1    0    0  501    0  0.00000000000E+00 -0.00000000000E+00 -0.46991206513E+00  0.46991898393E+00  0.25500000000E-02 0. -1.
         31    1    1    2    0    0  0.34892223805E-01 -0.24479143041E+00  0.56565932844E+02  0.57054577598E+02  0.74470750000E+01 0. -1.
        -31    1    1    2    0    0 -0.34892223805E-01  0.24479143041E+00  0.61301168164E+02  0.61752354486E+02  0.74470750000E+01 0.  1.
<mgrwt>
<rscale>  0 0.14914208E+02</rscale>
<asrwt>0</asrwt>
<pdfrwt beam="2">  1        2 0.99798910E+00 0.14914208E+02</pdfrwt>
<pdfrwt beam="1">  1       -2 0.98237884E+00 0.14914208E+02</pdfrwt>
<totfact> 0.50133816E-13</totfact>
</mgrwt>
</event>
<event>
 4    1 -0.5170493E-019  0.1490830E+02  0.7818608E-02  0.1870880E+00
         -2   -1    0    0    0  501 -0.00000000000E+00  0.00000000000E+00  0.11978129645E+03  0.11978129647E+03  0.25500000000E-02 0. -1.
          2   -1    0    0  501    0  0.00000000000E+00 -0.00000000000E+00 -0.46387829653E+00  0.46388530532E+00  0.25500000000E-02 0.  1.
         31    1    1    2    0    0 -0.23842666105E+00 -0.93196341567E-02  0.57882312781E+02  0.58359900558E+02  0.74470750000E+01 0.  1.
        -31    1    1    2    0    0  0.23842666105E+00  0.93196341567E-02  0.61435105370E+02  0.61885281222E+02  0.74470750000E+01 0. -1.
<mgrwt>
<rscale>  0 0.14908302E+02</rscale>
<asrwt>0</asrwt>
<pdfrwt beam="2">  1        2 0.98527132E+00 0.14908302E+02</pdfrwt>
<pdfrwt beam="1">  1       -2 0.99427129E+00 0.14908302E+02</pdfrwt>
<totfact>-0.33000787E-13</totfact>
</mgrwt>
</event>
<event>
 4    1 -0.5170493E-019  0.1500274E+02  0.7818608E-02  0.1867985E+00
         -2   -1    0    0    0  501 -0.00000000000E+00  0.00000000000E+00  0.12019875838E+03  0.12019875840E+03  0.25500000000E-02 0. -1.
          2   -1    0    0  501    0  0.00000000000E+00 -0.00000000000E+00 -0.46814222680E+00  0.46814917176E+00  0.25500000000E-02 0.  1.
         31    1    1    2    0    0 -0.34738188302E+00 -0.18962672560E+00  0.66374551794E+02  0.66792190295E+02  0.74470750000E+01 0. -1.
        -31    1    1    2    0    0  0.34738188302E+00  0.18962672560E+00  0.53356064354E+02  0.53874717279E+02  0.74470750000E+01 0.  1.
<mgrwt>
<rscale>  0 0.15002738E+02</rscale>
<asrwt>0</asrwt>
<pdfrwt beam="2">  1        2 0.99430591E+00 0.15002738E+02</pdfrwt>
<pdfrwt beam="1">  1       -2 0.99775842E+00 0.15002738E+02</pdfrwt>
<totfact>-0.82822307E-14</totfact>
</mgrwt>
</event>
<event>
 4    1 -0.5170493E-019  0.1493885E+02  0.7818608E-02  0.1869940E+00
          2   -1    0    0  501    0  0.00000000000E+00  0.00000000000E+00  0.11882651859E+03  0.11882651862E+03  0.25500000000E-02 0. -1.
         -2   -1    0    0    0  501 -0.00000000000E+00 -0.00000000000E+00 -0.46952420576E+00  0.46953113027E+00  0.25500000000E-02 0.  1.
         31    1    1    2    0    0 -0.43532670834E+00 -0.37934896677E+00  0.59183496085E+02  0.59652984417E+02  0.74470750000E+01 0.  1.
        -31    1    1    2    0    0  0.43532670834E+00  0.37934896677E+00  0.59173498297E+02  0.59643065329E+02  0.74470750000E+01 0.  1.
<mgrwt>
<rscale>  0 0.14938854E+02</rscale>
<asrwt>0</asrwt>
<pdfrwt beam="1">  1        2 0.98642321E+00 0.14938854E+02</pdfrwt>
<pdfrwt beam="2">  1       -2 0.99718487E+00 0.14938854E+02</pdfrwt>
<totfact>-0.21339287E-13</totfact>
</mgrwt>
</event>
<event>
 4    1 -0.5170493E-019  0.1499978E+02  0.7818608E-02  0.1868075E+00
         -2   -1    0    0    0  501 -0.00000000000E+00  0.00000000000E+00  0.12000941226E+03  0.12000941229E+03  0.25500000000E-02 0. -1.
          2   -1    0    0  501    0  0.00000000000E+00 -0.00000000000E+00 -0.46869615507E+00  0.46870309181E+00  0.25500000000E-02 0.  1.
         31    1    1    2    0    0 -0.28806330465E-01 -0.85947316343E+00  0.57975794635E+02  0.58458457160E+02  0.74470750000E+01 0.  1.
        -31    1    1    2    0    0  0.28806330465E-01  0.85947316343E+00  0.61564921469E+02  0.62019658218E+02  0.74470750000E+01 0. -1.
<mgrwt>
<rscale>  0 0.14999783E+02</rscale>
<asrwt>0</asrwt>
<pdfrwt beam="2">  1        2 0.99547173E+00 0.14999783E+02</pdfrwt>
<pdfrwt beam="1">  1       -2 0.99619735E+00 0.14999783E+02</pdfrwt>
<totfact>-0.10381896E-13</totfact>
</mgrwt>
</event>
<event>
 4    1  0.5170493E-019  0.1490118E+02  0.7818608E-02  0.1871099E+00
         -2   -1    0    0    0  501 -0.00000000000E+00  0.00000000000E+00  0.11855778123E+03  0.11855778126E+03  0.25500000000E-02 0. -1.
          2   -1    0    0  501    0  0.00000000000E+00 -0.00000000000E+00 -0.46821800696E+00  0.46822495079E+00  0.25500000000E-02 0.  1.
         31    1    1    2    0    0  0.10882916728E+00  0.64751661309E-01  0.60567485264E+02  0.61023726810E+02  0.74470750000E+01 0. -1.
        -31    1    1    2    0    0 -0.10882916728E+00 -0.64751661309E-01  0.57522077960E+02  0.58002279399E+02  0.74470750000E+01 0.  1.
<mgrwt>
<rscale>  0 0.14901182E+02</rscale>
<asrwt>0</asrwt>
<pdfrwt beam="2">  1        2 0.99441282E+00 0.14901182E+02</pdfrwt>
<pdfrwt beam="1">  1       -2 0.98419030E+00 0.14901182E+02</pdfrwt>
<totfact> 0.63641564E-13</totfact>
</mgrwt>
</event>
<event>
 4    1  0.5170493E-019  0.1493396E+02  0.7818608E-02  0.1870091E+00
          2   -1    0    0  501    0  0.00000000000E+00  0.00000000000E+00  0.12033154200E+03  0.12033154203E+03  0.25500000000E-02 0. -1.
         -2   -1    0    0    0  501 -0.00000000000E+00 -0.00000000000E+00 -0.46334764120E+00  0.46335465801E+00  0.25500000000E-02 0.  1.
         31    1    1    2    0    0 -0.31290692754E+00  0.40299590791E+00  0.58388367297E+02  0.58863576837E+02  0.74470750000E+01 0.  1.
        -31    1    1    2    0    0  0.31290692754E+00 -0.40299590791E+00  0.61479827065E+02  0.61931319850E+02  0.74470750000E+01 0. -1.
<mgrwt>
<rscale>  0 0.14933956E+02</rscale>
<asrwt>0</asrwt>
<pdfrwt beam="1">  1        2 0.99881672E+00 0.14933956E+02</pdfrwt>
<pdfrwt beam="2">  1       -2 0.98416592E+00 0.14933956E+02</pdfrwt>
<totfact> 0.21541037E-13</totfact>
</mgrwt>
</event>
<event>
 4    1  0.5170493E-019  0.1494580E+02  0.7818608E-02  0.1869727E+00
          2   -1    0    0  501    0  0.00000000000E+00  0.00000000000E+00  0.12019422139E+03  0.12019422142E+03  0.25500000000E-02 0. -1.
         -2   -1    0    0    0  501 -0.00000000000E+00 -0.00000000000E+00 -0.46461286030E+00  0.46461985801E+00  0.25500000000E-02 0.  1.
         31    1    1    2    0    0 -0.38992906452E+00  0.22066811202E+00  0.56396757559E+02  0.56888082480E+02  0.74470750000E+01 0.  1.
        -31    1    1    2    0    0  0.38992906452E+00 -0.22066811202E+00  0.63332850969E+02  0.63770758793E+02  0.74470750000E+01 0. -1.
<mgrwt>
<rscale>  0 0.14945796E+02</rscale>
<asrwt>0</asrwt>
<pdfrwt beam="1">  1        2 0.99769172E+00 0.14945796E+02</pdfrwt>
<pdfrwt beam="2">  1       -2 0.98683858E+00 0.14945796E+02</pdfrwt>
<totfact> 0.16085278E-13</totfact>
</mgrwt>
</event>
<event>
 4    1 -0.5170493E-019  0.1492214E+02  0.7818608E-02  0.1870454E+00
         -2   -1    0    0    0  501 -0.00000000000E+00  0.00000000000E+00  0.12035620512E+03  0.12035620514E+03  0.25500000000E-02 0.  1.
          2   -1    0    0  501    0  0.00000000000E+00 -0.00000000000E+00 -0.46251983488E+00  0.46252686425E+00  0.25500000000E-02 0. -1.
         31    1    1    2    0    0 -0.45627291964E+00 -0.67451241660E-02  0.60109150667E+02  0.60570431321E+02  0.74470750000E+01 0. -1.
        -31    1    1    2    0    0  0.45627291964E+00  0.67451241660E-02  0.59784534613E+02  0.60248300685E+02  0.74470750000E+01 0. -1.
<mgrwt>
<rscale>  0 0.14922139E+02</rscale>
<asrwt>0</asrwt>
<pdfrwt beam="2">  1        2 0.98241516E+00 0.14922139E+02</pdfrwt>
<pdfrwt beam="1">  1       -2 0.99901381E+00 0.14922139E+02</pdfrwt>
<totfact>-0.17156269E-13</totfact>
</mgrwt>
</event>
<event>
 4    1  0.5170493E-019  0.1492418E+02  0.7818608E-02  0.1870391E+00
         -2   -1    0    0    0  501 -0.00000000000E+00  0.00000000000E+00  0.11869530751E+03  0.11869530754E+03  0.25500000000E-02 0.  1.
          2   -1    0    0  501    0  0.00000000000E+00 -0.00000000000E+00 -0.46912020794E+00  0.46912713842E+00  0.25500000000E-02 0. -1.
         31    1    1    2    0    0 -0.19166933850E+00  0.13426327389E+00  0.55829738636E+02  0.56324713990E+02  0.74470750000E+01 0. -1.
        -31    1    1    2    0    0  0.19166933850E+00 -0.13426327389E+00  0.62396448666E+02  0.62839720687E+02  0.74470750000E+01 0.  1.
<mgrwt>
<rscale>  0 0.14924179E+02</rscale>
<asrwt>0</asrwt>
<pdfrwt beam="2">  1        2 0.99632591E+00 0.14924179E+02</pdfrwt>
<pdfrwt beam="1">  1       -2 0.98533492E+00 0.14924179E+02</pdfrwt>
<totfact> 0.36997562E-13</totfact>
</mgrwt>
</event>
<event>
 4    1 -0.5170493E-019  0.1497980E+02  0.7818608E-02  0.1868686E+00
          2   -1    0    0  501    0  0.00000000000E+00  0.00000000000E+00  0.11972999821E+03  0.11972999823E+03  0.25500000000E-02 0. -1.
         -2   -1    0    0    0  501 -0.00000000000E+00 -0.00000000000E+00 -0.46853906349E+00  0.46854600257E+00  0.25500000000E-02 0.  1.
         31    1    1    2    0    0  0.31421317913E-01  0.68829923124E+00  0.62889426465E+02  0.63332563743E+02  0.74470750000E+01 0. -1.
        -31    1    1    2    0    0 -0.31421317913E-01 -0.68829923124E+00  0.56372032679E+02  0.56865980494E+02  0.74470750000E+01 0.  1.
<mgrwt>
<rscale>  0 0.14979800E+02</rscale>
<asrwt>0</asrwt>
<pdfrwt beam="1">  1        2 0.99388566E+00 0.14979800E+02</pdfrwt>
<pdfrwt beam="2">  1       -2 0.99513035E+00 0.14979800E+02</pdfrwt>
<totfact>-0.13134070E-13</totfact>
</mgrwt>
</event>
<event>
 4    1 -0.5170493E-019  0.1492211E+02  0.7818608E-02  0.1870455E+00
          2   -1    0    0  501    0  0.00000000000E+00  0.00000000000E+00  0.11854643215E+03  0.11854643217E+03  0.25500000000E-02 0.  1.
         -2   -1    0    0    0  501 -0.00000000000E+00 -0.00000000000E+00 -0.46957929184E+00  0.46958621554E+00  0.25500000000E-02 0. -1.
         31    1    1    2    0    0  0.26339154495E+00  0.28078690372E+00  0.60995686632E+02  0.61449824492E+02  0.74470750000E+01 0.  1.
        -31    1    1    2    0    0 -0.26339154495E+00 -0.28078690372E+00  0.57081166222E+02  0.57566193896E+02  0.74470750000E+01 0.  1.
<mgrwt>
<rscale>  0 0.14922113E+02</rscale>
<asrwt>0</asrwt>
<pdfrwt beam="1">  1        2 0.98410771E+00 0.14922113E+02</pdfrwt>
<pdfrwt beam="2">  1       -2 0.99729213E+00 0.14922113E+02</pdfrwt>
<totfact>-0.30046474E-13</totfact>
</mgrwt>
</event>
<event>
 4    1  0.5170493E-019  0.1494990E+02  0.7818608E-02  0.1869601E+00
          2   -1    0    0  501    0  0.00000000000E+00  0.00000000000E+00  0.12035592848E+03  0.12035592851E+03  0.25500000000E-02 0. -1.
         -2   -1    0    0    0  501 -0.00000000000E+00 -0.00000000000E+00 -0.46424346314E+00  0.46425046641E+00  0.25500000000E-02 0.  1.
         31    1    1    2    0    0  0.18999574779E+00  0.31118011133E+00  0.55646421855E+02  0.56143709556E+02  0.74470750000E+01 0.  1.
        -31    1    1    2    0    0 -0.18999574779E+00 -0.31118011133E+00  0.64245263165E+02  0.64676469420E+02  0.74470750000E+01 0. -1.
<mgrwt>
<rscale>  0 0.14949900E+02</rscale>
<asrwt>0</asrwt>
<pdfrwt beam="1">  1        2 0.99902577E+00 0.14949900E+02</pdfrwt>
<pdfrwt beam="2">  1       -2 0.98606210E+00 0.14949900E+02</pdfrwt>
<totfact> 0.10469475E-13</totfact>
</mgrwt>
</event>
<event>
 4    1 -0.5170493E-019  0.1500695E+02  0.7818608E-02  0.1867856E+00
          2   -1    0    0  501    0  0.00000000000E+00  0.00000000000E+00  0.12011370972E+03  0.12011370974E+03  0.25500000000E-02 0. -1.
         -2   -1    0    0    0  501 -0.00000000000E+00 -0.00000000000E+00 -0.46873707160E+00  0.46874400774E+00  0.25500000000E-02 0.  1.
         31    1    1    2    0    0 -0.67018758139E+00  0.10122704682E+00  0.54844325269E+02  0.55351769065E+02  0.74470750000E+01 0. -1.
        -31    1    1    2    0    0  0.67018758139E+00 -0.10122704682E+00  0.64800647374E+02  0.65230684685E+02  0.74470750000E+01 0. -1.
<mgrwt>
<rscale>  0 0.15006954E+02</rscale>
<asrwt>0</asrwt>
<pdfrwt beam="1">  1        2 0.99706009E+00 0.15006954E+02</pdfrwt>
<pdfrwt beam="2">  1       -2 0.99556166E+00 0.15006954E+02</pdfrwt>
<totfact>-0.84697089E-14</totfact>
</mgrwt>
</event>
<event>
 4    1 -0.5170493E-019  0.1496334E+02  0.7818608E-02  0.1869189E+00
          2   -1    0    0  501    0  0.00000000000E+00  0.00000000000E+00  0.11909775657E+03  0.11909775660E+03  0.25500000000E-02 0.  1.
         -2   -1    0    0    0  501 -0.00000000000E+00 -0.00000000000E+00 -0.46999190927E+00  0.46999882689E+00  0.25500000000E-02 0. -1.
         31    1    1    2    0    0  0.29679737144E+00 -0.28509880357E+00  0.64021633547E+02  0.64454618594E+02  0.74470750000E+01 0.  1.
        -31    1    1    2    0    0 -0.29679737144E+00  0.28509880357E+00  0.54606131116E+02  0.55113136833E+02  0.74470750000E+01 0. -1.
<mgrwt>
<rscale>  0 0.14963341E+02</rscale>
<asrwt>0</asrwt>
<pdfrwt beam="1">  1        2 0.98866986E+00 0.14963341E+02</pdfrwt>
<pdfrwt beam="2">  1       -2 0.99818322E+00 0.14963341E+02</pdfrwt>
<totfact>-0.11299989E-13</totfact>
</mgrwt>
</event>
<event>
 4    1 -0.5170493E-019  0.1490330E+02  0.7818608E-02  0.1871034E+00
         -2   -1    0    0    0  501 -0.00000000000E+00  0.00000000000E+00  0.12001339682E+03  0.12001339684E+03  0.25500000000E-02 0.  1.
          2   -1    0    0  501    0  0.00000000000E+00 -0.00000000000E+00 -0.46267037396E+00  0.46267740104E+00  0.25500000000E-02 0. -1.
         31    1    1    2    0    0 -0.10152426891E+00  0.23316332775E+00  0.60251538868E+02  0.60710555378E+02  0.74470750000E+01 0.  1.
        -31    1    1    2    0    0  0.10152426891E+00 -0.23316332775E+00  0.59299187574E+02  0.59765518866E+02  0.74470750000E+01 0. -1.
<mgrwt>
<rscale>  0 0.14903297E+02</rscale>
<asrwt>0</asrwt>
<pdfrwt beam="2">  1        2 0.98272294E+00 0.14903297E+02</pdfrwt>
<pdfrwt beam="1">  1       -2 0.99618047E+00 0.14903297E+02</pdfrwt>
<totfact>-0.46637787E-13</totfact>
</mgrwt>
</event>
<event>
 4    1 -0.5170493E-019  0.1497936E+02  0.7818608E-02  0.1868699E+00
         -2   -1    0    0    0  501 -0.00000000000E+00  0.00000000000E+00  0.12004050653E+03  0.12004050656E+03  0.25500000000E-02 0.  1.
          2   -1    0    0  501    0  0.00000000000E+00 -0.00000000000E+00 -0.46729977897E+00  0.46730673644E+00  0.25500000000E-02 0. -1.
         31    1    1    2    0    0  0.65669642097E+00 -0.48970934097E-01  0.56164166406E+02  0.56659563733E+02  0.74470750000E+01 0. -1.
        -31    1    1    2    0    0 -0.65669642097E+00  0.48970934097E-01  0.63409040350E+02  0.63848249565E+02  0.74470750000E+01 0. -1.
<mgrwt>
<rscale>  0 0.14979362E+02</rscale>
<asrwt>0</asrwt>
<pdfrwt beam="2">  1        2 0.99251849E+00 0.14979362E+02</pdfrwt>
<pdfrwt beam="1">  1       -2 0.99644292E+00 0.14979362E+02</pdfrwt>
<totfact>-0.12927126E-13</totfact>
</mgrwt>
</event>
<event>
 4    1 -0.5170493E-019  0.1495014E+02  0.7818608E-02  0.1869594E+00
          2   -1    0    0  501    0  0.00000000000E+00  0.00000000000E+00  0.11974612156E+03  0.11974612159E+03  0.25500000000E-02 0. -1.
         -2   -1    0    0    0  501 -0.00000000000E+00 -0.00000000000E+00 -0.46662258590E+00  0.46662955347E+00  0.25500000000E-02 0.  1.
         31    1    1    2    0    0  0.25480700056E+00  0.39297275010E+00  0.56058292003E+02  0.56552722150E+02  0.74470750000E+01 0.  1.
        -31    1    1    2    0    0 -0.25480700056E+00 -0.39297275010E+00  0.63221206972E+02  0.63660028992E+02  0.74470750000E+01 0. -1.
<mgrwt>
<rscale>  0 0.14950139E+02</rscale>
<asrwt>0</asrwt>
<pdfrwt beam="1">  1        2 0.99400314E+00 0.14950139E+02</pdfrwt>
<pdfrwt beam="2">  1       -2 0.99107632E+00 0.14950139E+02</pdfrwt>
<totfact>-0.49305888E-14</totfact>
</mgrwt>
</event>
<event>
 4    1 -0.5170493E-019  0.1491773E+02  0.7818608E-02  0.1870590E+00
          2   -1    0    0  501    0  0.00000000000E+00  0.00000000000E+00  0.11871130483E+03  0.11871130485E+03  0.25500000000E-02 0. -1.
         -2   -1    0    0    0  501 -0.00000000000E+00 -0.00000000000E+00 -0.46865150794E+00  0.46865844535E+00  0.25500000000E-02 0.  1.
         31    1    1    2    0    0  0.37481741827E+00 -0.18906743936E-01  0.60613297642E+02  0.61070218787E+02  0.74470750000E+01 0. -1.
        -31    1    1    2    0    0 -0.37481741827E+00  0.18906743936E-01  0.57629355677E+02  0.58109744513E+02  0.74470750000E+01 0. -1.
<mgrwt>
<rscale>  0 0.14917727E+02</rscale>
<asrwt>0</asrwt>
<pdfrwt beam="1">  1        2 0.98546332E+00 0.14917727E+02</pdfrwt>
<pdfrwt beam="2">  1       -2 0.99533493E+00 0.14917727E+02</pdfrwt>
<totfact>-0.31848867E-13</totfact>
</mgrwt>
</event>
<event>
 4    1 -0.5170493E-019  0.1491170E+02  0.7818608E-02  0.1870775E+00
         -2   -1    0    0    0  501 -0.00000000000E+00  0.00000000000E+00  0.12005150385E+03  0.12005150388E+03  0.25500000000E-02 0. -1.
          2   -1    0    0  501    0  0.00000000000E+00 -0.00000000000E+00 -0.46304540875E+00  0.46305243014E+00  0.25500000000E-02 0.  1.
         31    1    1    2    0    0 -0.70859074505E-01 -0.29922007196E+00  0.61332817427E+02  0.61784043031E+02  0.74470750000E+01 0.  1.
        -31    1    1    2    0    0  0.70859074505E-01  0.29922007196E+00  0.58255641016E+02  0.58730513278E+02  0.74470750000E+01 0. -1.
<mgrwt>
<rscale>  0 0.14911703E+02</rscale>
<asrwt>0</asrwt>
<pdfrwt beam="2">  1        2 0.98351765E+00 0.14911703E+02</pdfrwt>
<pdfrwt beam="1">  1       -2 0.99649867E+00 0.14911703E+02</pdfrwt>
<totfact>-0.39003202E-13</totfact>
</mgrwt>
</event>
<event>
 4    1  0.5170493E-019  0.1489634E+02  0.7818608E-02  0.1871248E+00
          2   -1    0    0  501    0  0.00000000000E+00  0.00000000000E+00  0.11927415621E+03  0.11927415624E+03  0.25500000000E-02 0. -1.
         -2   -1    0    0    0  501 -0.00000000000E+00 -0.00000000000E+00 -0.46510343177E+00  0.46511042210E+00  0.25500000000E-02 0.  1.
         31    1    1    2    0    0 -0.87229356072E-01  0.20896480759E-02  0.60154282402E+02  0.60613564741E+02  0.74470750000E+01 0. -1.
        -31    1    1    2    0    0  0.87229356072E-01 -0.20896480759E-02  0.58654770378E+02  0.59125701920E+02  0.74470750000E+01 0.  1.
<mgrwt>
<rscale>  0 0.14896340E+02</rscale>
<asrwt>0</asrwt>
<pdfrwt beam="1">  1        2 0.99008803E+00 0.14896340E+02</pdfrwt>
<pdfrwt beam="2">  1       -2 0.98784715E+00 0.14896340E+02</pdfrwt>
<totfact> 0.24456388E-13</totfact>
</mgrwt>
</event>
<event>
 4    1  0.5170493E-019  0.1494008E+02  0.7818608E-02  0.1869902E+00
         -2   -1    0    0    0  501 -0.00000000000E+00  0.00000000000E+00  0.11880616780E+03  0.11880616783E+03  0.25500000000E-02 0. -1.
          2   -1    0    0  501    0  0.00000000000E+00 -0.00000000000E+00 -0.46968187438E+00  0.46968879657E+00  0.25500000000E-02 0.  1.
         31    1    1    2    0    0 -0.33665899047E+00  0.47879908344E+00  0.59151987591E+02  0.59621800961E+02  0.74470750000E+01 0.  1.
        -31    1    1    2    0    0  0.33665899047E+00 -0.47879908344E+00  0.59184498340E+02  0.59654055668E+02  0.74470750000E+01 0.  1.
<mgrwt>
<rscale>  0 0.14940083E+02</rscale>
<asrwt>0</asrwt>
<pdfrwt beam="2">  1        2 0.99751774E+00 0.14940083E+02</pdfrwt>
<pdfrwt beam="1">  1       -2 0.98625624E+00 0.14940083E+02</pdfrwt>
<totfact> 0.21112716E-13</totfact>
</mgrwt>
</event>
<event>
 4    1 -0.5170493E-019  0.1489787E+02  0.7818608E-02  0.1871201E+00
         -2   -1    0    0    0  501 -0.00000000000E+00  0.00000000000E+00  0.11964640861E+03  0.11964640864E+03  0.25500000000E-02 0.  1.
          2   -1    0    0  501    0  0.00000000000E+00 -0.00000000000E+00 -0.46375178081E+00  0.46375879151E+00  0.25500000000E-02 0. -1.
         31    1    1    2    0    0  0.46422008738E-01  0.28041595769E-02  0.58302157057E+02  0.58775867551E+02  0.74470750000E+01 0. -1.
        -31    1    1    2    0    0 -0.46422008738E-01 -0.28041595769E-02  0.60880499771E+02  0.61334299876E+02  0.74470750000E+01 0.  1.
<mgrwt>
<rscale>  0 0.14897873E+02</rscale>
<asrwt>0</asrwt>
<pdfrwt beam="2">  1        2 0.98499936E+00 0.14897873E+02</pdfrwt>
<pdfrwt beam="1">  1       -2 0.99315490E+00 0.14897873E+02</pdfrwt>
<totfact>-0.30948354E-13</totfact>
</mgrwt>
</event>
<event>
 4    1  0.5170493E-019  0.1494246E+02  0.7818608E-02  0.1869829E+00
         -2   -1    0    0    0  501 -0.00000000000E+00  0.00000000000E+00  0.11904983863E+03  0.11904983865E+03  0.25500000000E-02 0.  1.
          2   -1    0    0  501    0  0.00000000000E+00 -0.00000000000E+00 -0.46886981629E+00  0.46887675046E+00  0.25500000000E-02 0. -1.
         31    1    1    2    0    0  0.33167984602E+00 -0.69042107162E-01  0.63254332195E+02  0.63692105051E+02  0.74470750000E+01 0. -1.
        -31    1    1    2    0    0 -0.33167984602E+00  0.69042107162E-01  0.55326636616E+02  0.55826610354E+02  0.74470750000E+01 0. -1.
<mgrwt>
<rscale>  0 0.14942462E+02</rscale>
<asrwt>0</asrwt>
<pdfrwt beam="2">  1        2 0.99580789E+00 0.14942462E+02</pdfrwt>
<pdfrwt beam="1">  1       -2 0.98826436E+00 0.14942462E+02</pdfrwt>
<totfact> 0.11724869E-13</totfact>
</mgrwt>
</event>
<event>
 4    1 -0.5170493E-019  0.1498368E+02  0.7818608E-02  0.1868567E+00
          2   -1    0    0  501    0  0.00000000000E+00  0.00000000000E+00  0.12014372353E+03  0.12014372356E+03  0.25500000000E-02 0. -1.
         -2   -1    0    0    0  501 -0.00000000000E+00 -0.00000000000E+00 -0.46716723262E+00  0.46717419207E+00  0.25500000000E-02 0.  1.
         31    1    1    2    0    0 -0.81255587415E+00 -0.22060982297E-01  0.59119554380E+02  0.59592292873E+02  0.74470750000E+01 0.  1.
        -31    1    1    2    0    0  0.81255587415E+00  0.22060982297E-01  0.60557001922E+02  0.61018604880E+02  0.74470750000E+01 0.  1.
<mgrwt>
<rscale>  0 0.14983675E+02</rscale>
<asrwt>0</asrwt>
<pdfrwt beam="1">  1        2 0.99729529E+00 0.14983675E+02</pdfrwt>
<pdfrwt beam="2">  1       -2 0.99224137E+00 0.14983675E+02</pdfrwt>
<totfact>-0.58985185E-14</totfact>
</mgrwt>
</event>
<event>
 4    1  0.5170493E-019  0.1490649E+02  0.7818608E-02  0.1870936E+00
         -2   -1    0    0    0  501 -0.00000000000E+00  0.00000000000E+00  0.11852169666E+03  0.11852169669E+03  0.25500000000E-02 0.  1.
          2   -1    0    0  501    0  0.00000000000E+00 -0.00000000000E+00 -0.46869407024E+00  0.46870100702E+00  0.25500000000E-02 0. -1.
         31    1    1    2    0    0 -0.12353290134E+00  0.46194867843E-01  0.61205439782E+02  0.61656971863E+02  0.74470750000E+01 0.  1.
        -31    1    1    2    0    0  0.12353290134E+00 -0.46194867843E-01  0.56847562811E+02  0.57333425835E+02  0.74470750000E+01 0. -1.
<mgrwt>
<rscale>  0 0.14906486E+02</rscale>
<asrwt>0</asrwt>
<pdfrwt beam="2">  1        2 0.99541871E+00 0.14906486E+02</pdfrwt>
<pdfrwt beam="1">  1       -2 0.98389586E+00 0.14906486E+02</pdfrwt>
<totfact> 0.61818361E-13</totfact>
</mgrwt>
</event>
<event>
 4    1 -0.5170493E-019  0.1490937E+02  0.7818608E-02  0.1870847E+00
          2   -1    0    0  501    0  0.00000000000E+00  0.00000000000E+00  0.11909484955E+03  0.11909484958E+03  0.25500000000E-02 0.  1.
         -2   -1    0    0    0  501 -0.00000000000E+00 -0.00000000000E+00 -0.46661897217E+00  0.46662593980E+00  0.25500000000E-02 0. -1.
         31    1    1    2    0    0  0.76599805793E-01 -0.17925065700E+00  0.57111966722E+02  0.57595778207E+02  0.74470750000E+01 0. -1.
        -31    1    1    2    0    0 -0.76599805793E-01  0.17925065700E+00  0.61516263859E+02  0.61965697314E+02  0.74470750000E+01 0.  1.
<mgrwt>
<rscale>  0 0.14909371E+02</rscale>
<asrwt>0</asrwt>
<pdfrwt beam="1">  1        2 0.98861793E+00 0.14909371E+02</pdfrwt>
<pdfrwt beam="2">  1       -2 0.99104764E+00 0.14909371E+02</pdfrwt>
<totfact>-0.76088328E-14</totfact>
</mgrwt>
</event>
<event>
 4    1 -0.5170493E-019  0.1501365E+02  0.7818608E-02  0.1867652E+00
          2   -1    0    0  501    0  0.00000000000E+00  0.00000000000E+00  0.11993402157E+03  0.11993402159E+03  0.25500000000E-02 0. -1.
         -2   -1    0    0    0  501 -0.00000000000E+00 -0.00000000000E+00 -0.46985812356E+00  0.46986504315E+00  0.25500000000E-02 0.  1.
         31    1    1    2    0    0 -0.42216563782E+00  0.47482077469E+00  0.54119555957E+02  0.54633221959E+02  0.74470750000E+01 0.  1.
        -31    1    1    2    0    0  0.42216563782E+00 -0.47482077469E+00  0.65344607485E+02  0.65770664677E+02  0.74470750000E+01 0. -1.
<mgrwt>
<rscale>  0 0.15013646E+02</rscale>
<asrwt>0</asrwt>
<pdfrwt beam="1">  1        2 0.99558358E+00 0.15013646E+02</pdfrwt>
<pdfrwt beam="2">  1       -2 0.99792755E+00 0.15013646E+02</pdfrwt>
<totfact>-0.68297167E-14</totfact>
</mgrwt>
</event>
<event>
 4    1 -0.5170493E-019  0.1496102E+02  0.7818608E-02  0.1869260E+00
         -2   -1    0    0    0  501 -0.00000000000E+00  0.00000000000E+00  0.12008513037E+03  0.12008513039E+03  0.25500000000E-02 0.  1.
          2   -1    0    0  501    0  0.00000000000E+00 -0.00000000000E+00 -0.46598287070E+00  0.46598984783E+00  0.25500000000E-02 0. -1.
         31    1    1    2    0    0  0.44510236287E+00 -0.39254411793E+00  0.56721232974E+02  0.57211095106E+02  0.74470750000E+01 0. -1.
        -31    1    1    2    0    0 -0.44510236287E+00  0.39254411793E+00  0.62897914520E+02  0.63340025135E+02  0.74470750000E+01 0.  1.
<mgrwt>
<rscale>  0 0.14961021E+02</rscale>
<asrwt>0</asrwt>
<pdfrwt beam="2">  1        2 0.98973373E+00 0.14961021E+02</pdfrwt>
<pdfrwt beam="1">  1       -2 0.99680101E+00 0.14961021E+02</pdfrwt>
<totfact>-0.15287156E-13</totfact>
</mgrwt>
</event>
<event>
 4    1  0.5170493E-019  0.1492171E+02  0.7818608E-02  0.1870467E+00
          2   -1    0    0  501    0  0.00000000000E+00  0.00000000000E+00  0.12008092398E+03  0.12008092401E+03  0.25500000000E-02 0. -1.
         -2   -1    0    0    0  501 -0.00000000000E+00 -0.00000000000E+00 -0.46355334082E+00  0.46356035452E+00  0.25500000000E-02 0.  1.
         31    1    1    2    0    0 -0.16038812031E+00 -0.57669050669E-01  0.56416098366E+02  0.56905747785E+02  0.74470750000E+01 0.  1.
        -31    1    1    2    0    0  0.16038812031E+00  0.57669050669E-01  0.63201272277E+02  0.63638736581E+02  0.74470750000E+01 0. -1.
<mgrwt>
<rscale>  0 0.14921707E+02</rscale>
<asrwt>0</asrwt>
<pdfrwt beam="1">  1        2 0.99674614E+00 0.14921707E+02</pdfrwt>
<pdfrwt beam="2">  1       -2 0.98459327E+00 0.14921707E+02</pdfrwt>
<totfact> 0.42229557E-13</totfact>
</mgrwt>
</event>
<event>
 4    1  0.5170493E-019  0.1493287E+02  0.7818608E-02  0.1870124E+00
         -2   -1    0    0    0  501 -0.00000000000E+00  0.00000000000E+00  0.11897675025E+03  0.11897675028E+03  0.25500000000E-02 0.  1.
          2   -1    0    0  501    0  0.00000000000E+00 -0.00000000000E+00 -0.46855562599E+00  0.46856256482E+00  0.25500000000E-02 0. -1.
         31    1    1    2    0    0 -0.30626060404E+00 -0.44017022943E+00  0.58980462206E+02  0.59451168142E+02  0.74470750000E+01 0. -1.
        -31    1    1    2    0    0  0.30626060404E+00  0.44017022943E+00  0.59527732420E+02  0.59994144702E+02  0.74470750000E+01 0. -1.
<mgrwt>
<rscale>  0 0.14932869E+02</rscale>
<asrwt>0</asrwt>
<pdfrwt beam="2">  1        2 0.99514083E+00 0.14932869E+02</pdfrwt>
<pdfrwt beam="1">  1       -2 0.98765742E+00 0.14932869E+02</pdfrwt>
<totfact> 0.17918125E-13</totfact>
</mgrwt>
</event>
<event>
 4    1 -0.5170493E-019  0.1499065E+02  0.7818608E-02  0.1868354E+00
         -2   -1    0    0    0  501 -0.00000000000E+00  0.00000000000E+00  0.11976109082E+03  0.11976109085E+03  0.25500000000E-02 0.  1.
          2   -1    0    0  501    0  0.00000000000E+00 -0.00000000000E+00 -0.46909621092E+00  0.46910314175E+00  0.25500000000E-02 0. -1.
         31    1    1    2    0    0 -0.72752076463E+00 -0.33988853641E+00  0.61859314385E+02  0.62311142767E+02  0.74470750000E+01 0.  1.
        -31    1    1    2    0    0  0.72752076463E+00  0.33988853641E+00  0.57432680227E+02  0.57919051225E+02  0.74470750000E+01 0.  1.
<mgrwt>
<rscale>  0 0.14990649E+02</rscale>
<asrwt>0</asrwt>
<pdfrwt beam="2">  1        2 0.99631005E+00 0.14990649E+02</pdfrwt>
<pdfrwt beam="1">  1       -2 0.99414736E+00 0.14990649E+02</pdfrwt>
<totfact>-0.99280494E-14</totfact>
</mgrwt>
</event>
<event>
 4    1  0.5170493E-019  0.1490374E+02  0.7818608E-02  0.1871020E+00
         -2   -1    0    0    0  501 -0.00000000000E+00  0.00000000000E+00  0.11890203876E+03  0.11890203878E+03  0.25500000000E-02 0.  1.
          2   -1    0    0  501    0  0.00000000000E+00 -0.00000000000E+00 -0.46702269024E+00  0.46702965184E+00  0.25500000000E-02 0. -1.
         31    1    1    2    0    0 -0.16914000232E+00 -0.20456028924E+00  0.58965775295E+02  0.59434771266E+02  0.74470750000E+01 0. -1.
        -31    1    1    2    0    0  0.16914000232E+00  0.20456028924E+00  0.59469240773E+02  0.59934297171E+02  0.74470750000E+01 0.  1.
<mgrwt>
<rscale>  0 0.14903740E+02</rscale>
<asrwt>0</asrwt>
<pdfrwt beam="2">  1        2 0.99189545E+00 0.14903740E+02</pdfrwt>
<pdfrwt beam="1">  1       -2 0.98702698E+00 0.14903740E+02</pdfrwt>
<totfact> 0.31072593E-13</totfact>
</mgrwt>
</event>
<event>
 4    1 -0.5170493E-019  0.1494159E+02  0.7818608E-02  0.1869856E+00
          2   -1    0    0  501    0  0.00000000000E+00  0.00000000000E+00  0.11916435400E+03  0.11916435403E+03  0.25500000000E-02 0. -1.
         -2   -1    0    0    0  501 -0.00000000000E+00 -0.00000000000E+00 -0.46836460751E+00  0.46837154916E+00  0.25500000000E-02 0.  1.
         31    1    1    2    0    0 -0.35036039810E+00  0.23104179980E+00  0.55972587532E+02  0.56467385399E+02  0.74470750000E+01 0.  1.
        -31    1    1    2    0    0  0.35036039810E+00 -0.23104179980E+00  0.62723401865E+02  0.63165340182E+02  0.74470750000E+01 0. -1.
<mgrwt>
<rscale>  0 0.14941591E+02</rscale>
<asrwt>0</asrwt>
<pdfrwt beam="1">  1        2 0.98920708E+00 0.14941591E+02</pdfrwt>
<pdfrwt beam="2">  1       -2 0.99474287E+00 0.14941591E+02</pdfrwt>
<totfact>-0.19407109E-13</totfact>
</mgrwt>
</event>
<event>
 4    1 -0.5170493E-019  0.1494303E+02  0.7818608E-02  0.1869812E+00
         -2   -1    0    0    0  501 -0.00000000000E+00  0.00000000000E+00  0.11987042804E+03  0.11987042806E+03  0.25500000000E-02 0.  1.
          2   -1    0    0  501    0  0.00000000000E+00 -0.00000000000E+00 -0.46569554645E+00  0.46570252789E+00  0.25500000000E-02 0. -1.
         31    1    1    2    0    0 -0.13850266859E+00  0.58605080438E+00  0.59343886884E+02  0.59812360555E+02  0.74470750000E+01 0. -1.
        -31    1    1    2    0    0  0.13850266859E+00 -0.58605080438E+00  0.60060845605E+02  0.60523770036E+02  0.74470750000E+01 0.  1.
<mgrwt>
<rscale>  0 0.14943031E+02</rscale>
<asrwt>0</asrwt>
<pdfrwt beam="2">  1        2 0.98911898E+00 0.14943031E+02</pdfrwt>
<pdfrwt beam="1">  1       -2 0.99502332E+00 0.14943031E+02</pdfrwt>
<totfact>-0.19531179E-13</totfact>
</mgrwt>
</event>
<event>
 4    1 -0.5170493E-019  0.1490106E+02  0.7818608E-02  0.1871103E+00
          2   -1    0    0  501    0  0.00000000000E+00  0.00000000000E+00  0.11814320172E+03  0.11814320175E+03  0.25500000000E-02 0. -1.
         -2   -1    0    0    0  501 -0.00000000000E+00 -0.00000000000E+00 -0.46985335388E+00  0.46986027354E+00  0.25500000000E-02 0.  1.
         31    1    1    2    0    0 -0.48035917434E-01  0.10026241672E-01  0.60599739096E+02  0.61055628017E+02  0.74470750000E+01 0. -1.
        -31    1    1    2    0    0  0.48035917434E-01 -0.10026241672E-01  0.57073609271E+02  0.57557434005E+02  0.74470750000E+01 0.  1.
<mgrwt>
<rscale>  0 0.14901059E+02</rscale>
<asrwt>0</asrwt>
<pdfrwt beam="1">  1        2 0.98077579E+00 0.14901059E+02</pdfrwt>
<pdfrwt beam="2">  1       -2 0.99785843E+00 0.14901059E+02</pdfrwt>
<totfact>-0.44182919E-13</totfact>
</mgrwt>
</event>
<event>
 4    1 -0.5170493E-019  0.1493323E+02  0.7818608E-02  0.1870113E+00
         -2   -1    0    0    0  501 -0.00000000000E+00  0.00000000000E+00  0.11969840003E+03  0.11969840006E+03  0.25500000000E-02 0.  1.
          2   -1    0    0  501    0  0.00000000000E+00 -0.00000000000E+00 -0.46575334341E+00  0.46576032398E+00  0.25500000000E-02 0. -1.
         31    1    1    2    0    0 -0.30171386446E+00 -0.44147361344E+00  0.59019842118E+02  0.59490222893E+02  0.74470750000E+01 0.  1.
        -31    1    1    2    0    0  0.30171386446E+00  0.44147361344E+00  0.60212804571E+02  0.60673937490E+02  0.74470750000E+01 0. -1.
<mgrwt>
<rscale>  0 0.14933232E+02</rscale>
<asrwt>0</asrwt>
<pdfrwt beam="2">  1        2 0.98923576E+00 0.14933232E+02</pdfrwt>
<pdfrwt beam="1">  1       -2 0.99360135E+00 0.14933232E+02</pdfrwt>
<totfact>-0.18246878E-13</totfact>
</mgrwt>
</event>
<event>
 4    1 -0.5170493E-019  0.1495594E+02  0.7818608E-02  0.1869416E+00
          2   -1    0    0  501    0  0.00000000000E+00  0.00000000000E+00  0.11921603695E+03  0.11921603698E+03  0.25500000000E-02 0.  1.
         -2   -1    0    0    0  501 -0.00000000000E+00 -0.00000000000E+00 -0.46906132463E+00  0.46906825597E+00  0.25500000000E-02 0. -1.
         31    1    1    2    0    0  0.14662161416E+00  0.53939761163E+00  0.62459127139E+02  0.62904005728E+02  0.74470750000E+01 0.  1.
        -31    1    1    2    0    0 -0.14662161416E+00 -0.53939761163E+00  0.56287848490E+02  0.56781099509E+02  0.74470750000E+01 0. -1.
<mgrwt>
<rscale>  0 0.14955942E+02</rscale>
<asrwt>0</asrwt>
<pdfrwt beam="1">  1        2 0.98964019E+00 0.14955942E+02</pdfrwt>
<pdfrwt beam="2">  1       -2 0.99621848E+00 0.14955942E+02</pdfrwt>
<totfact>-0.16921508E-13</totfact>
</mgrwt>
</event>
<event>
 4    1  0.5170493E-019  0.1490846E+02  0.7818608E-02  0.1870875E+00
          2   -1    0    0  501    0  0.00000000000E+00  0.00000000000E+00  0.11979668450E+03  0.11979668452E+03  0.25500000000E-02 0.  1.
         -2   -1    0    0    0  501 -0.00000000000E+00 -0.00000000000E+00 -0.46382880147E+00  0.46383581101E+00  0.25500000000E-02 0. -1.
         31    1    1    2    0    0  0.27645261202E+00  0.10655639522E+00  0.58558354471E+02  0.59030734238E+02  0.74470750000E+01 0. -1.
        -31    1    1    2    0    0 -0.27645261202E+00 -0.10655639522E+00  0.60774501224E+02  0.61229786096E+02  0.74470750000E+01 0.  1.
<mgrwt>
<rscale>  0 0.14908464E+02</rscale>
<asrwt>0</asrwt>
<pdfrwt beam="1">  1        2 0.99439812E+00 0.14908464E+02</pdfrwt>
<pdfrwt beam="2">  1       -2 0.98516709E+00 0.14908464E+02</pdfrwt>
<totfact> 0.48935035E-13</totfact>
</mgrwt>
</event>
<event>
 4    1 -0.5170493E-019  0.1495173E+02  0.7818608E-02  0.1869545E+00
         -2   -1    0    0    0  501 -0.00000000000E+00  0.00000000000E+00  0.11959144889E+03  0.11959144891E+03  0.25500000000E-02 0.  1.
          2   -1    0    0  501    0  0.00000000000E+00 -0.00000000000E+00 -0.46732582299E+00  0.46733278007E+00  0.25500000000E-02 0. -1.
         31    1    1    2    0    0  0.14002284753E+00  0.50494383624E+00  0.62724305525E+02  0.63167016744E+02  0.74470750000E+01 0.  1.
        -31    1    1    2    0    0 -0.14002284753E+00 -0.50494383624E+00  0.56399817538E+02  0.56891764949E+02  0.74470750000E+01 0. -1.
<mgrwt>
<rscale>  0 0.14951735E+02</rscale>
<asrwt>0</asrwt>
<pdfrwt beam="2">  1        2 0.99255913E+00 0.14951735E+02</pdfrwt>
<pdfrwt beam="1">  1       -2 0.99273001E+00 0.14951735E+02</pdfrwt>
<totfact>-0.11942238E-13</totfact>
</mgrwt>
</event>
<event>
 4    1 -0.5170493E-019  0.1491657E+02  0.7818608E-02  0.1870625E+00
         -2   -1    0    0    0  501 -0.00000000000E+00  0.00000000000E+00  0.12002178616E+03  0.12002178619E+03  0.25500000000E-02 0. -1.
          2   -1    0    0  501    0  0.00000000000E+00 -0.00000000000E+00 -0.46346218606E+00  0.46346920115E+00  0.25500000000E-02 0.  1.
         31    1    1    2    0    0 -0.34577648861E+00  0.20831738637E+00  0.59261960011E+02  0.59729404717E+02  0.74470750000E+01 0. -1.
        -31    1    1    2    0    0  0.34577648861E+00 -0.20831738637E+00  0.60296363967E+02  0.60755850674E+02  0.74470750000E+01 0.  1.
<mgrwt>
<rscale>  0 0.14916566E+02</rscale>
<asrwt>0</asrwt>
<pdfrwt beam="2">  1        2 0.98439853E+00 0.14916566E+02</pdfrwt>
<pdfrwt beam="1">  1       -2 0.99625639E+00 0.14916566E+02</pdfrwt>
<totfact>-0.34864569E-13</totfact>
</mgrwt>
</event>
<event>
 4    1  0.5170493E-019  0.1489957E+02  0.7818608E-02  0.1871149E+00
          2   -1    0    0  501    0  0.00000000000E+00  0.00000000000E+00  0.11967351031E+03  0.11967351034E+03  0.25500000000E-02 0. -1.
         -2   -1    0    0    0  501 -0.00000000000E+00 -0.00000000000E+00 -0.46375206940E+00  0.46375908010E+00  0.25500000000E-02 0.  1.
         31    1    1    2    0    0 -0.14132779714E-02 -0.19524261116E+00  0.59225561423E+02  0.59692245506E+02  0.74470750000E+01 0.  1.
        -31    1    1    2    0    0  0.14132779714E-02  0.19524261116E+00  0.59984196818E+02  0.60445023912E+02  0.74470750000E+01 0. -1.
<mgrwt>
<rscale>  0 0.14899565E+02</rscale>
<asrwt>0</asrwt>
<pdfrwt beam="1">  1        2 0.99337900E+00 0.14899565E+02</pdfrwt>
<pdfrwt beam="2">  1       -2 0.98500084E+00 0.14899565E+02</pdfrwt>
<totfact> 0.55674437E-13</totfact>
</mgrwt>
</event>
<event>
 4    1  0.5170493E-019  0.1491343E+02  0.7818608E-02  0.1870722E+00
         -2   -1    0    0    0  501 -0.00000000000E+00  0.00000000000E+00  0.11854168507E+03  0.11854168509E+03  0.25500000000E-02 0.  1.
          2   -1    0    0  501    0  0.00000000000E+00 -0.00000000000E+00 -0.46905193905E+00  0.46905887053E+00  0.25500000000E-02 0. -1.
         31    1    1    2    0    0  0.27071013898E-01 -0.27309428616E+00  0.61123109073E+02  0.61575715198E+02  0.74470750000E+01 0.  1.
        -31    1    1    2    0    0 -0.27071013898E-01  0.27309428616E+00  0.56949524053E+02  0.57435028765E+02  0.74470750000E+01 0. -1.
<mgrwt>
<rscale>  0 0.14913433E+02</rscale>
<asrwt>0</asrwt>
<pdfrwt beam="2">  1        2 0.99617641E+00 0.14913433E+02</pdfrwt>
<pdfrwt beam="1">  1       -2 0.98406410E+00 0.14913433E+02</pdfrwt>
<totfact> 0.53515491E-13</totfact>
</mgrwt>
</event>
<event>
 4    1 -0.5170493E-019  0.1490112E+02  0.7818608E-02  0.1871101E+00
         -2   -1    0    0    0  501 -0.00000000000E+00  0.00000000000E+00  0.12027208087E+03  0.12027208089E+03  0.25500000000E-02 0. -1.
          2   -1    0    0  501    0  0.00000000000E+00 -0.00000000000E+00 -0.46154059194E+00  0.46154763623E+00  0.25500000000E-02 0.  1.
         31    1    1    2    0    0 -0.54862305838E-01  0.20100713087E+00  0.60653780138E+02  0.61109601413E+02  0.74470750000E+01 0.  1.
        -31    1    1    2    0    0  0.54862305838E-01 -0.20100713087E+00  0.59156760135E+02  0.59624027115E+02  0.74470750000E+01 0.  1.
<mgrwt>
<rscale>  0 0.14901124E+02</rscale>
<asrwt>0</asrwt>
<pdfrwt beam="2">  1        2 0.98034056E+00 0.14901124E+02</pdfrwt>
<pdfrwt beam="1">  1       -2 0.99831011E+00 0.14901124E+02</pdfrwt>
<totfact>-0.39137663E-13</totfact>
</mgrwt>
</event>
<event>
 4    1 -0.5170493E-019  0.1493823E+02  0.7818608E-02  0.1869959E+00
          2   -1    0    0  501    0  0.00000000000E+00  0.00000000000E+00  0.11911194787E+03  0.11911194790E+03  0.25500000000E-02 0. -1.
         -2   -1    0    0    0  501 -0.00000000000E+00 -0.00000000000E+00 -0.46835967014E+00  0.46836661187E+00  0.25500000000E-02 0.  1.
         31    1    1    2    0    0 -0.56416981791E+00  0.33534068344E-01  0.60094228589E+02  0.60556540917E+02  0.74470750000E+01 0.  1.
        -31    1    1    2    0    0  0.56416981791E+00 -0.33534068344E-01  0.58549359612E+02  0.59023773593E+02  0.74470750000E+01 0.  1.
<mgrwt>
<rscale>  0 0.14938226E+02</rscale>
<asrwt>0</asrwt>
<pdfrwt beam="1">  1        2 0.98877371E+00 0.14938226E+02</pdfrwt>
<pdfrwt beam="2">  1       -2 0.99473071E+00 0.14938226E+02</pdfrwt>
<totfact>-0.20369553E-13</totfact>
</mgrwt>
</event>
<event>
 4    1  0.5170493E-019  0.1495930E+02  0.7818608E-02  0.1869313E+00
         -2   -1    0    0    0  501 -0.00000000000E+00  0.00000000000E+00  0.11914569849E+03  0.11914569852E+03  0.25500000000E-02 0. -1.
          2   -1    0    0  501    0  0.00000000000E+00 -0.00000000000E+00 -0.46954929675E+00  0.46955622089E+00  0.25500000000E-02 0.  1.
         31    1    1    2    0    0  0.28349022148E+00 -0.53928024201E+00  0.56625555930E+02  0.57116404827E+02  0.74470750000E+01 0.  1.
        -31    1    1    2    0    0 -0.28349022148E+00  0.53928024201E+00  0.62050593261E+02  0.62498849909E+02  0.74470750000E+01 0.  1.
<mgrwt>
<rscale>  0 0.14959304E+02</rscale>
<asrwt>0</asrwt>
<pdfrwt beam="2">  1        2 0.99724847E+00 0.14959304E+02</pdfrwt>
<pdfrwt beam="1">  1       -2 0.98906262E+00 0.14959304E+02</pdfrwt>
<totfact> 0.47329412E-14</totfact>
</mgrwt>
</event>
<event>
 4    1 -0.5170493E-019  0.1490897E+02  0.7818608E-02  0.1870859E+00
         -2   -1    0    0    0  501 -0.00000000000E+00  0.00000000000E+00  0.12033577224E+03  0.12033577226E+03  0.25500000000E-02 0.  1.
          2   -1    0    0  501    0  0.00000000000E+00 -0.00000000000E+00 -0.46178229599E+00  0.46178933660E+00  0.25500000000E-02 0. -1.
         31    1    1    2    0    0 -0.28319338907E+00 -0.37791467315E-01  0.58561902870E+02  0.59034202125E+02  0.74470750000E+01 0. -1.
        -31    1    1    2    0    0  0.28319338907E+00  0.37791467315E-01  0.61312087070E+02  0.61763359475E+02  0.74470750000E+01 0. -1.
<mgrwt>
<rscale>  0 0.14908971E+02</rscale>
<asrwt>0</asrwt>
<pdfrwt beam="2">  1        2 0.98085397E+00 0.14908971E+02</pdfrwt>
<pdfrwt beam="1">  1       -2 0.99883876E+00 0.14908971E+02</pdfrwt>
<totfact>-0.25884448E-13</totfact>
</mgrwt>
</event>
<event>
 4    1 -0.5170493E-019  0.1490926E+02  0.7818608E-02  0.1870850E+00
         -2   -1    0    0    0  501 -0.00000000000E+00  0.00000000000E+00  0.12027165637E+03  0.12027165639E+03  0.25500000000E-02 0.  1.
          2   -1    0    0  501    0  0.00000000000E+00 -0.00000000000E+00 -0.46204626010E+00  0.46205329668E+00  0.25500000000E-02 0. -1.
         31    1    1    2    0    0  0.33192990512E+00  0.16006097296E-01  0.60279039951E+02  0.60738225337E+02  0.74470750000E+01 0.  1.
        -31    1    1    2    0    0 -0.33192990512E+00 -0.16006097296E-01  0.59530570157E+02  0.59995484354E+02  0.74470750000E+01 0. -1.
<mgrwt>
<rscale>  0 0.14909258E+02</rscale>
<asrwt>0</asrwt>
<pdfrwt beam="2">  1        2 0.98141049E+00 0.14909258E+02</pdfrwt>
<pdfrwt beam="1">  1       -2 0.99831078E+00 0.14909258E+02</pdfrwt>
<totfact>-0.32738526E-13</totfact>
</mgrwt>
</event>
<event>
 4    1  0.5170493E-019  0.1492774E+02  0.7818608E-02  0.1870282E+00
          2   -1    0    0  501    0  0.00000000000E+00  0.00000000000E+00  0.12035072210E+03  0.12035072213E+03  0.25500000000E-02 0.  1.
         -2   -1    0    0    0  501 -0.00000000000E+00 -0.00000000000E+00 -0.46288794408E+00  0.46289496786E+00  0.25500000000E-02 0. -1.
         31    1    1    2    0    0  0.98229627287E-01 -0.10694672856E+00  0.63819480810E+02  0.64252674214E+02  0.74470750000E+01 0.  1.
        -31    1    1    2    0    0 -0.98229627287E-01  0.10694672856E+00  0.56068353348E+02  0.56560942884E+02  0.74470750000E+01 0. -1.
<mgrwt>
<rscale>  0 0.14927736E+02</rscale>
<asrwt>0</asrwt>
<pdfrwt beam="1">  1        2 0.99897152E+00 0.14927736E+02</pdfrwt>
<pdfrwt beam="2">  1       -2 0.98319387E+00 0.14927736E+02</pdfrwt>
<totfact> 0.23993686E-13</totfact>
</mgrwt>
</event>
<event>
 4    1 -0.5170493E-019  0.1490651E+02  0.7818608E-02  0.1870935E+00
         -2   -1    0    0    0  501 -0.00000000000E+00  0.00000000000E+00  0.12016636417E+03  0.12016636420E+03  0.25500000000E-02 0. -1.
          2   -1    0    0  501    0  0.00000000000E+00 -0.00000000000E+00 -0.46228044381E+00  0.46228747682E+00  0.25500000000E-02 0.  1.
         31    1    1    2    0    0  0.97699662934E-01  0.27854134740E+00  0.60420204409E+02  0.60878133655E+02  0.74470750000E+01 0. -1.
        -31    1    1    2    0    0 -0.97699662934E-01 -0.27854134740E+00  0.59283879321E+02  0.59750518022E+02  0.74470750000E+01 0. -1.
<mgrwt>
<rscale>  0 0.14906507E+02</rscale>
<asrwt>0</asrwt>
<pdfrwt beam="2">  1        2 0.98190270E+00 0.14906507E+02</pdfrwt>
<pdfrwt beam="1">  1       -2 0.99744209E+00 0.14906507E+02</pdfrwt>
<totfact>-0.41836570E-13</totfact>
</mgrwt>
</event>
<event>
 4    1 -0.5170493E-019  0.1491410E+02  0.7818608E-02  0.1870701E+00
          2   -1    0    0  501    0  0.00000000000E+00  0.00000000000E+00  0.11834471891E+03  0.11834471894E+03  0.25500000000E-02 0. -1.
         -2   -1    0    0    0  501 -0.00000000000E+00 -0.00000000000E+00 -0.46987435667E+00  0.46988127602E+00  0.25500000000E-02 0.  1.
         31    1    1    2    0    0 -0.20188258847E+00 -0.57831675652E-01  0.56361681667E+02  0.56851932135E+02  0.74470750000E+01 0.  1.
        -31    1    1    2    0    0  0.20188258847E+00  0.57831675652E-01  0.61513162885E+02  0.61962668077E+02  0.74470750000E+01 0.  1.
<mgrwt>
<rscale>  0 0.14914096E+02</rscale>
<asrwt>0</asrwt>
<pdfrwt beam="1">  1        2 0.98244224E+00 0.14914096E+02</pdfrwt>
<pdfrwt beam="2">  1       -2 0.99790959E+00 0.14914096E+02</pdfrwt>
<totfact>-0.32758677E-13</totfact>
</mgrwt>
</event>
<event>
 4    1 -0.5170493E-019  0.1495158E+02  0.7818608E-02  0.1869550E+00
         -2   -1    0    0    0  501 -0.00000000000E+00  0.00000000000E+00  0.12026263543E+03  0.12026263546E+03  0.25500000000E-02 0.  1.
          2   -1    0    0  501    0  0.00000000000E+00 -0.00000000000E+00 -0.46470831037E+00  0.46471530665E+00  0.25500000000E-02 0. -1.
         31    1    1    2    0    0 -0.49326009410E+00 -0.15027298369E+00  0.56642440292E+02  0.57132222570E+02  0.74470750000E+01 0. -1.
        -31    1    1    2    0    0  0.49326009410E+00  0.15027298369E+00  0.63155486826E+02  0.63595128192E+02  0.74470750000E+01 0. -1.
<mgrwt>
<rscale>  0 0.14951585E+02</rscale>
<asrwt>0</asrwt>
<pdfrwt beam="2">  1        2 0.98704269E+00 0.14951585E+02</pdfrwt>
<pdfrwt beam="1">  1       -2 0.99825820E+00 0.14951585E+02</pdfrwt>
<totfact>-0.13473509E-13</totfact>
</mgrwt>
</event>
<event>
 4    1  0.5170493E-019  0.1491343E+02  0.7818608E-02  0.1870722E+00
          2   -1    0    0  501    0  0.00000000000E+00  0.00000000000E+00  0.12022786916E+03  0.12022786919E+03  0.25500000000E-02 0. -1.
         -2   -1    0    0    0  501 -0.00000000000E+00 -0.00000000000E+00 -0.46247338752E+00  0.46248041760E+00  0.25500000000E-02 0.  1.
         31    1    1    2    0    0  0.13625436269E+00 -0.19574745868E-01  0.62740947070E+02  0.63181518767E+02  0.74470750000E+01 0. -1.
        -31    1    1    2    0    0 -0.13625436269E+00  0.19574745868E-01  0.57024448702E+02  0.57508830837E+02  0.74470750000E+01 0.  1.
<mgrwt>
<rscale>  0 0.14913432E+02</rscale>
<asrwt>0</asrwt>
<pdfrwt beam="1">  1        2 0.99795225E+00 0.14913432E+02</pdfrwt>
<pdfrwt beam="2">  1       -2 0.98231287E+00 0.14913432E+02</pdfrwt>
<totfact> 0.51539278E-13</totfact>
</mgrwt>
</event>
<event>
 4    1  0.5170493E-019  0.1490000E+02  0.7818608E-02  0.1871135E+00
         -2   -1    0    0    0  501 -0.00000000000E+00  0.00000000000E+00  0.11902998691E+03  0.11902998694E+03  0.25500000000E-02 0. -1.
          2   -1    0    0  501    0  0.00000000000E+00 -0.00000000000E+00 -0.46628657085E+00  0.46629354344E+00  0.25500000000E-02 0.  1.
         31    1    1    2    0    0 -0.13180242162E-01 -0.20061599543E+00  0.58831299366E+02  0.59301105653E+02  0.74470750000E+01 0.  1.
        -31    1    1    2    0    0  0.13180242162E-01  0.20061599543E+00  0.59732400974E+02  0.60195174828E+02  0.74470750000E+01 0. -1.
<mgrwt>
<rscale>  0 0.14900000E+02</rscale>
<asrwt>0</asrwt>
<pdfrwt beam="2">  1        2 0.99034232E+00 0.14900000E+02</pdfrwt>
<pdfrwt beam="1">  1       -2 0.98807885E+00 0.14900000E+02</pdfrwt>
<totfact> 0.20961000E-13</totfact>
</mgrwt>
</event>
<event>
 4    1 -0.5170493E-019  0.1495700E+02  0.7818608E-02  0.1869384E+00
         -2   -1    0    0    0  501 -0.00000000000E+00  0.00000000000E+00  0.11954345076E+03  0.11954345078E+03  0.25500000000E-02 0. -1.
          2   -1    0    0  501    0  0.00000000000E+00 -0.00000000000E+00 -0.46784258594E+00  0.46784953534E+00  0.25500000000E-02 0.  1.
         31    1    1    2    0    0 -0.97442831524E-01  0.29854247842E+00  0.54654591670E+02  0.55160510688E+02  0.74470750000E+01 0.  1.
        -31    1    1    2    0    0  0.97442831524E-01 -0.29854247842E+00  0.64421016500E+02  0.64850789630E+02  0.74470750000E+01 0. -1.
<mgrwt>
<rscale>  0 0.14956996E+02</rscale>
<asrwt>0</asrwt>
<pdfrwt beam="2">  1        2 0.99365085E+00 0.14956996E+02</pdfrwt>
<pdfrwt beam="1">  1       -2 0.99233740E+00 0.14956996E+02</pdfrwt>
<totfact>-0.99543377E-14</totfact>
</mgrwt>
</event>
<event>
 4    1 -0.5170493E-019  0.1490735E+02  0.7818608E-02  0.1870909E+00
          2   -1    0    0  501    0  0.00000000000E+00  0.00000000000E+00  0.11812954144E+03  0.11812954147E+03  0.25500000000E-02 0.  1.
         -2   -1    0    0    0  501 -0.00000000000E+00 -0.00000000000E+00 -0.47030439908E+00  0.47031131210E+00  0.25500000000E-02 0. -1.
         31    1    1    2    0    0 -0.34572724153E-01 -0.20670755425E+00  0.60685302875E+02  0.61140893307E+02  0.74470750000E+01 0.  1.
        -31    1    1    2    0    0  0.34572724153E-01  0.20670755425E+00  0.56973934168E+02  0.57458959475E+02  0.74470750000E+01 0.  1.
<mgrwt>
<rscale>  0 0.14907348E+02</rscale>
<asrwt>0</asrwt>
<pdfrwt beam="1">  1        2 0.98066656E+00 0.14907348E+02</pdfrwt>
<pdfrwt beam="2">  1       -2 0.99881207E+00 0.14907348E+02</pdfrwt>
<totfact>-0.27255536E-13</totfact>
</mgrwt>
</event>
<event>
 4    1  0.5170493E-019  0.1491304E+02  0.7818608E-02  0.1870734E+00
          2   -1    0    0  501    0  0.00000000000E+00  0.00000000000E+00  0.11954213802E+03  0.11954213805E+03  0.25500000000E-02 0. -1.
         -2   -1    0    0    0  501 -0.00000000000E+00 -0.00000000000E+00 -0.46510155926E+00  0.46510854962E+00  0.25500000000E-02 0.  1.
         31    1    1    2    0    0 -0.13739224672E+00 -0.34891986584E+00  0.59454846380E+02  0.59920600012E+02  0.74470750000E+01 0.  1.
        -31    1    1    2    0    0  0.13739224672E+00  0.34891986584E+00  0.59622190084E+02  0.60086646588E+02  0.74470750000E+01 0.  1.
<mgrwt>
<rscale>  0 0.14913035E+02</rscale>
<asrwt>0</asrwt>
<pdfrwt beam="1">  1        2 0.99230388E+00 0.14913035E+02</pdfrwt>
<pdfrwt beam="2">  1       -2 0.98785179E+00 0.14913035E+02</pdfrwt>
<totfact> 0.20391795E-13</totfact>
</mgrwt>
</event>
<event>
 4    1  0.5170493E-019  0.1490927E+02  0.7818608E-02  0.1870850E+00
         -2   -1    0    0    0  501 -0.00000000000E+00  0.00000000000E+00  0.11843369350E+03  0.11843369353E+03  0.25500000000E-02 0.  1.
          2   -1    0    0  501    0  0.00000000000E+00 -0.00000000000E+00 -0.46921782729E+00  0.46922475633E+00  0.25500000000E-02 0. -1.
         31    1    1    2    0    0  0.24292843921E+00  0.49003026951E-02  0.60829460870E+02  0.61284102947E+02  0.74470750000E+01 0. -1.
        -31    1    1    2    0    0 -0.24292843921E+00 -0.49003026951E-02  0.57135014801E+02  0.57618815335E+02  0.74470750000E+01 0. -1.
<mgrwt>
<rscale>  0 0.14909274E+02</rscale>
<asrwt>0</asrwt>
<pdfrwt beam="2">  1        2 0.99652375E+00 0.14909274E+02</pdfrwt>
<pdfrwt beam="1">  1       -2 0.98317252E+00 0.14909274E+02</pdfrwt>
<totfact> 0.62285880E-13</totfact>
</mgrwt>
</event>
<event>
 4    1  0.5170493E-019  0.1490966E+02  0.7818608E-02  0.1870838E+00
          2   -1    0    0  501    0  0.00000000000E+00  0.00000000000E+00  0.12037148398E+03  0.12037148400E+03  0.25500000000E-02 0. -1.
         -2   -1    0    0    0  501 -0.00000000000E+00 -0.00000000000E+00 -0.46168819083E+00  0.46169523287E+00  0.25500000000E-02 0.  1.
         31    1    1    2    0    0 -0.20593536487E+00 -0.47247212284E-01  0.57796155893E+02  0.58274344302E+02  0.74470750000E+01 0.  1.
        -31    1    1    2    0    0  0.20593536487E+00  0.47247212284E-01  0.62113639893E+02  0.62558834935E+02  0.74470750000E+01 0. -1.
<mgrwt>
<rscale>  0 0.14909664E+02</rscale>
<asrwt>0</asrwt>
<pdfrwt beam="1">  1        2 0.99913327E+00 0.14909664E+02</pdfrwt>
<pdfrwt beam="2">  1       -2 0.98065596E+00 0.14909664E+02</pdfrwt>
<totfact> 0.34082962E-13</totfact>
</mgrwt>
</event>
<event>
 4    1  0.5170493E-019  0.1491514E+02  0.7818608E-02  0.1870669E+00
         -2   -1    0    0    0  501 -0.00000000000E+00  0.00000000000E+00  0.11894980801E+03  0.11894980804E+03  0.25500000000E-02 0. -1.
          2   -1    0    0  501    0  0.00000000000E+00 -0.00000000000E+00 -0.46754984788E+00  0.46755680164E+00  0.25500000000E-02 0.  1.
         31    1    1    2    0    0 -0.14459542126E+00 -0.18286911330E+00  0.56682739644E+02  0.57170326644E+02  0.74470750000E+01 0.  1.
        -31    1    1    2    0    0  0.14459542126E+00  0.18286911330E+00  0.61799518516E+02  0.62247038193E+02  0.74470750000E+01 0. -1.
<mgrwt>
<rscale>  0 0.14915144E+02</rscale>
<asrwt>0</asrwt>
<pdfrwt beam="2">  1        2 0.99301222E+00 0.14915144E+02</pdfrwt>
<pdfrwt beam="1">  1       -2 0.98742632E+00 0.14915144E+02</pdfrwt>
<totfact> 0.24010621E-13</totfact>
</mgrwt>
</event>
<event>
 4    1  0.5170493E-019  0.1490513E+02  0.7818608E-02  0.1870977E+00
          2   -1    0    0  501    0  0.00000000000E+00  0.00000000000E+00  0.11978941050E+03  0.11978941053E+03  0.25500000000E-02 0.  1.
         -2   -1    0    0    0  501 -0.00000000000E+00 -0.00000000000E+00 -0.46364954991E+00  0.46365656215E+00  0.25500000000E-02 0. -1.
         31    1    1    2    0    0  0.58993907079E-01 -0.21295809577E+00  0.58197895388E+02  0.58672845381E+02  0.74470750000E+01 0. -1.
        -31    1    1    2    0    0 -0.58993907079E-01  0.21295809577E+00  0.61127865560E+02  0.61580221707E+02  0.74470750000E+01 0. -1.
<mgrwt>
<rscale>  0 0.14905131E+02</rscale>
<asrwt>0</asrwt>
<pdfrwt beam="1">  1        2 0.99433650E+00 0.14905131E+02</pdfrwt>
<pdfrwt beam="2">  1       -2 0.98478761E+00 0.14905131E+02</pdfrwt>
<totfact> 0.54753830E-13</totfact>
</mgrwt>
</event>
<event>
 4    1 -0.5170493E-019  0.1498560E+02  0.7818608E-02  0.1868508E+00
         -2   -1    0    0    0  501 -0.00000000000E+00  0.00000000000E+00  0.11993269067E+03  0.11993269069E+03  0.25500000000E-02 0. -1.
          2   -1    0    0  501    0  0.00000000000E+00 -0.00000000000E+00 -0.46810945021E+00  0.46811639565E+00  0.25500000000E-02 0.  1.
         31    1    1    2    0    0  0.23775776494E+00 -0.75970816169E+00  0.61518653352E+02  0.61972875692E+02  0.74470750000E+01 0.  1.
        -31    1    1    2    0    0 -0.23775776494E+00  0.75970816169E+00  0.57945927866E+02  0.58427931398E+02  0.74470750000E+01 0.  1.
<mgrwt>
<rscale>  0 0.14985599E+02</rscale>
<asrwt>0</asrwt>
<pdfrwt beam="2">  1        2 0.99422801E+00 0.14985599E+02</pdfrwt>
<pdfrwt beam="1">  1       -2 0.99555811E+00 0.14985599E+02</pdfrwt>
<totfact>-0.12502129E-13</totfact>
</mgrwt>
</event>
<event>
 4    1 -0.5170493E-019  0.1503701E+02  0.7818608E-02  0.1866941E+00
         -2   -1    0    0    0  501 -0.00000000000E+00  0.00000000000E+00  0.12021008990E+03  0.12021008993E+03  0.25500000000E-02 0.  1.
          2   -1    0    0  501    0  0.00000000000E+00 -0.00000000000E+00 -0.47023912868E+00  0.47024604266E+00  0.25500000000E-02 0. -1.
         31    1    1    2    0    0 -0.56699999341E+00  0.60842573876E+00  0.54940184168E+02  0.55448845194E+02  0.74470750000E+01 0. -1.
        -31    1    1    2    0    0  0.56699999341E+00 -0.60842573876E+00  0.64799666603E+02  0.65231490776E+02  0.74470750000E+01 0.  1.
<mgrwt>
<rscale>  0 0.15037009E+02</rscale>
<asrwt>0</asrwt>
<pdfrwt beam="2">  1        2 0.99874254E+00 0.15037009E+02</pdfrwt>
<pdfrwt beam="1">  1       -2 0.99786945E+00 0.15037009E+02</pdfrwt>
<totfact>-0.27954093E-14</totfact>
</mgrwt>
</event>
<event>
 4    1  0.5170493E-019  0.1491843E+02  0.7818608E-02  0.1870568E+00
         -2   -1    0    0    0  501 -0.00000000000E+00  0.00000000000E+00  0.11855323371E+03  0.11855323373E+03  0.25500000000E-02 0. -1.
          2   -1    0    0  501    0  0.00000000000E+00 -0.00000000000E+00 -0.46932076157E+00  0.46932768908E+00  0.25500000000E-02 0.  1.
         31    1    1    2    0    0  0.11711926939E+00  0.34145704792E+00  0.57246024725E+02  0.57729512233E+02  0.74470750000E+01 0.  1.
        -31    1    1    2    0    0 -0.11711926939E+00 -0.34145704792E+00  0.60837888220E+02  0.61293049189E+02  0.74470750000E+01 0.  1.
<mgrwt>
<rscale>  0 0.14918433E+02</rscale>
<asrwt>0</asrwt>
<pdfrwt beam="2">  1        2 0.99674546E+00 0.14918433E+02</pdfrwt>
<pdfrwt beam="1">  1       -2 0.98416181E+00 0.14918433E+02</pdfrwt>
<totfact> 0.47228276E-13</totfact>
</mgrwt>
</event>
<event>
 4    1 -0.5170493E-019  0.1497255E+02  0.7818608E-02  0.1868907E+00
         -2   -1    0    0    0  501 -0.00000000000E+00  0.00000000000E+00  0.11975942724E+03  0.11975942726E+03  0.25500000000E-02 0.  1.
          2   -1    0    0  501    0  0.00000000000E+00 -0.00000000000E+00 -0.46797091966E+00  0.46797786716E+00  0.25500000000E-02 0. -1.
         31    1    1    2    0    0  0.16373510975E+00 -0.73778485456E+00  0.58685939389E+02  0.59161385579E+02  0.74470750000E+01 0.  1.
        -31    1    1    2    0    0 -0.16373510975E+00  0.73778485456E+00  0.60605516929E+02  0.61066019552E+02  0.74470750000E+01 0. -1.
<mgrwt>
<rscale>  0 0.14972555E+02</rscale>
<asrwt>0</asrwt>
<pdfrwt beam="2">  1        2 0.99392934E+00 0.14972555E+02</pdfrwt>
<pdfrwt beam="1">  1       -2 0.99412430E+00 0.14972555E+02</pdfrwt>
<totfact>-0.12949928E-13</totfact>
</mgrwt>
</event>
<event>
 4    1 -0.5170493E-019  0.1494154E+02  0.7818608E-02  0.1869858E+00
          2   -1    0    0  501    0  0.00000000000E+00  0.00000000000E+00  0.11917701790E+03  0.11917701792E+03  0.25500000000E-02 0. -1.
         -2   -1    0    0    0  501 -0.00000000000E+00 -0.00000000000E+00 -0.46831149137E+00  0.46831843381E+00  0.25500000000E-02 0.  1.
         31    1    1    2    0    0  0.21486490474E+00  0.45372366784E+00  0.56804150605E+02  0.57292429553E+02  0.74470750000E+01 0. -1.
        -31    1    1    2    0    0 -0.21486490474E+00 -0.45372366784E+00  0.61904555800E+02  0.62352906804E+02  0.74470750000E+01 0. -1.
<mgrwt>
<rscale>  0 0.14941537E+02</rscale>
<asrwt>0</asrwt>
<pdfrwt beam="1">  1        2 0.98931135E+00 0.14941537E+02</pdfrwt>
<pdfrwt beam="2">  1       -2 0.99463092E+00 0.14941537E+02</pdfrwt>
<totfact>-0.19180475E-13</totfact>
</mgrwt>
</event>
<event>
 4    1 -0.5170493E-019  0.1490394E+02  0.7818608E-02  0.1871014E+00
         -2   -1    0    0    0  501 -0.00000000000E+00  0.00000000000E+00  0.12019997991E+03  0.12019997993E+03  0.25500000000E-02 0. -1.
          2   -1    0    0  501    0  0.00000000000E+00 -0.00000000000E+00 -0.46199190084E+00  0.46199893824E+00  0.25500000000E-02 0.  1.
         31    1    1    2    0    0 -0.74724752388E-02  0.26276066823E+00  0.59368721365E+02  0.59834547726E+02  0.74470750000E+01 0.  1.
        -31    1    1    2    0    0  0.74724752388E-02 -0.26276066823E+00  0.60369266641E+02  0.60827431146E+02  0.74470750000E+01 0.  1.
<mgrwt>
<rscale>  0 0.14903938E+02</rscale>
<asrwt>0</asrwt>
<pdfrwt beam="2">  1        2 0.98129323E+00 0.14903938E+02</pdfrwt>
<pdfrwt beam="1">  1       -2 0.99771766E+00 0.14903938E+02</pdfrwt>
<totfact>-0.42576609E-13</totfact>
</mgrwt>
</event>
<event>
 4    1 -0.5170493E-019  0.1495438E+02  0.7818608E-02  0.1869464E+00
          2   -1    0    0  501    0  0.00000000000E+00  0.00000000000E+00  0.11902181764E+03  0.11902181766E+03  0.25500000000E-02 0.  1.
         -2   -1    0    0    0  501 -0.00000000000E+00 -0.00000000000E+00 -0.46972841384E+00  0.46973533534E+00  0.25500000000E-02 0. -1.
         31    1    1    2    0    0 -0.47841904465E+00 -0.10097225290E+00  0.55611429912E+02  0.56109973651E+02  0.74470750000E+01 0. -1.
        -31    1    1    2    0    0  0.47841904465E+00  0.10097225290E+00  0.62940659310E+02  0.63381579348E+02  0.74470750000E+01 0. -1.
<mgrwt>
<rscale>  0 0.14954377E+02</rscale>
<asrwt>0</asrwt>
<pdfrwt beam="1">  1        2 0.98803976E+00 0.14954377E+02</pdfrwt>
<pdfrwt beam="2">  1       -2 0.99762331E+00 0.14954377E+02</pdfrwt>
<totfact>-0.15098695E-13</totfact>
</mgrwt>
</event>
<event>
 4    1  0.5170493E-019  0.1489934E+02  0.7818608E-02  0.1871156E+00
         -2   -1    0    0    0  501 -0.00000000000E+00  0.00000000000E+00  0.11830607382E+03  0.11830607385E+03  0.25500000000E-02 0.  1.
          2   -1    0    0  501    0  0.00000000000E+00 -0.00000000000E+00 -0.46909841445E+00  0.46910534524E+00  0.25500000000E-02 0. -1.
         31    1    1    2    0    0  0.77856052479E-01  0.16944775348E+00  0.59416630234E+02  0.59881797305E+02  0.74470750000E+01 0. -1.
        -31    1    1    2    0    0 -0.77856052479E-01 -0.16944775348E+00  0.58420345171E+02  0.58893381886E+02  0.74470750000E+01 0.  1.
<mgrwt>
<rscale>  0 0.14899343E+02</rscale>
<asrwt>0</asrwt>
<pdfrwt beam="2">  1        2 0.99626690E+00 0.14899343E+02</pdfrwt>
<pdfrwt beam="1">  1       -2 0.98211628E+00 0.14899343E+02</pdfrwt>
<totfact> 0.81426953E-13</totfact>
</mgrwt>
</event>
<event>
 4    1 -0.5170493E-019  0.1494659E+02  0.7818608E-02  0.1869703E+00
         -2   -1    0    0    0  501 -0.00000000000E+00  0.00000000000E+00  0.11937311666E+03  0.11937311668E+03  0.25500000000E-02 0. -1.
          2   -1    0    0  501    0  0.00000000000E+00 -0.00000000000E+00 -0.46785865693E+00  0.46786560610E+00  0.25500000000E-02 0.  1.
         31    1    1    2    0    0  0.12961062380E+00 -0.19705241456E+00  0.54807687801E+02  0.55311817875E+02  0.74470750000E+01 0.  1.
        -31    1    1    2    0    0 -0.12961062380E+00  0.19705241456E+00  0.64097570198E+02  0.64529164413E+02  0.74470750000E+01 0. -1.
<mgrwt>
<rscale>  0 0.14946593E+02</rscale>
<asrwt>0</asrwt>
<pdfrwt beam="2">  1        2 0.99367932E+00 0.14946593E+02</pdfrwt>
<pdfrwt beam="1">  1       -2 0.99092909E+00 0.14946593E+02</pdfrwt>
<totfact>-0.43405688E-14</totfact>
</mgrwt>
</event>
<event>
 4    1  0.5170493E-019  0.1493525E+02  0.7818608E-02  0.1870051E+00
          2   -1    0    0  501    0  0.00000000000E+00  0.00000000000E+00  0.12011451420E+03  0.12011451423E+03  0.25500000000E-02 0.  1.
         -2   -1    0    0    0  501 -0.00000000000E+00 -0.00000000000E+00 -0.46426516456E+00  0.46427216751E+00  0.25500000000E-02 0. -1.
         31    1    1    2    0    0  0.93811017391E-01 -0.42983805850E+00  0.62538102381E+02  0.62981479315E+02  0.74470750000E+01 0. -1.
        -31    1    1    2    0    0 -0.93811017391E-01  0.42983805850E+00  0.57112146659E+02  0.57597307084E+02  0.74470750000E+01 0. -1.
<mgrwt>
<rscale>  0 0.14935248E+02</rscale>
<asrwt>0</asrwt>
<pdfrwt beam="1">  1        2 0.99702977E+00 0.14935248E+02</pdfrwt>
<pdfrwt beam="2">  1       -2 0.98610040E+00 0.14935248E+02</pdfrwt>
<totfact> 0.25280132E-13</totfact>
</mgrwt>
</event>
<event>
 4    1  0.5170493E-019  0.1491575E+02  0.7818608E-02  0.1870650E+00
         -2   -1    0    0    0  501 -0.00000000000E+00  0.00000000000E+00  0.11863846202E+03  0.11863846205E+03  0.25500000000E-02 0. -1.
          2   -1    0    0  501    0  0.00000000000E+00 -0.00000000000E+00 -0.46881468511E+00  0.46882162011E+00  0.25500000000E-02 0.  1.
         31    1    1    2    0    0  0.37793322861E+00  0.31458306002E-02  0.60159092838E+02  0.60619454143E+02  0.74470750000E+01 0. -1.
        -31    1    1    2    0    0 -0.37793322861E+00 -0.31458306002E-02  0.58010554496E+02  0.58487829524E+02  0.74470750000E+01 0.  1.
<mgrwt>
<rscale>  0 0.14915746E+02</rscale>
<asrwt>0</asrwt>
<pdfrwt beam="2">  1        2 0.99567772E+00 0.14915746E+02</pdfrwt>
<pdfrwt beam="1">  1       -2 0.98486236E+00 0.14915746E+02</pdfrwt>
<totfact> 0.46596966E-13</totfact>
</mgrwt>
</event>
<event>
 4    1  0.5170493E-019  0.1494647E+02  0.7818608E-02  0.1869706E+00
          2   -1    0    0  501    0  0.00000000000E+00  0.00000000000E+00  0.12007553594E+03  0.12007553597E+03  0.25500000000E-02 0.  1.
         -2   -1    0    0    0  501 -0.00000000000E+00 -0.00000000000E+00 -0.46511424174E+00  0.46512123191E+00  0.25500000000E-02 0. -1.
         31    1    1    2    0    0 -0.43288348548E+00  0.38112414818E+00  0.61742363814E+02  0.62192532181E+02  0.74470750000E+01 0.  1.
        -31    1    1    2    0    0  0.43288348548E+00 -0.38112414818E+00  0.57868057887E+02  0.58348125020E+02  0.74470750000E+01 0. -1.
<mgrwt>
<rscale>  0 0.14946473E+02</rscale>
<asrwt>0</asrwt>
<pdfrwt beam="1">  1        2 0.99671449E+00 0.14946473E+02</pdfrwt>
<pdfrwt beam="2">  1       -2 0.98789563E+00 0.14946473E+02</pdfrwt>
<totfact> 0.12576681E-13</totfact>
</mgrwt>
</event>
<event>
 4    1  0.5170493E-019  0.1490217E+02  0.7818608E-02  0.1871069E+00
          2   -1    0    0  501    0  0.00000000000E+00  0.00000000000E+00  0.12007972918E+03  0.12007972921E+03  0.25500000000E-02 0. -1.
         -2   -1    0    0    0  501 -0.00000000000E+00 -0.00000000000E+00 -0.46234476539E+00  0.46235179743E+00  0.25500000000E-02 0.  1.
         31    1    1    2    0    0  0.53108616096E-01  0.61115534119E-01  0.61674019989E+02  0.62122059071E+02  0.74470750000E+01 0. -1.
        -31    1    1    2    0    0 -0.53108616096E-01 -0.61115534119E-01  0.57943364431E+02  0.58420021938E+02  0.74470750000E+01 0.  1.
<mgrwt>
<rscale>  0 0.14902169E+02</rscale>
<asrwt>0</asrwt>
<pdfrwt beam="1">  1        2 0.99672626E+00 0.14902169E+02</pdfrwt>
<pdfrwt beam="2">  1       -2 0.98203608E+00 0.14902169E+02</pdfrwt>
<totfact> 0.76208217E-13</totfact>
</mgrwt>
</event>
<event>
 4    1 -0.5170493E-019  0.1499577E+02  0.7818608E-02  0.1868197E+00
          2   -1    0    0  501    0  0.00000000000E+00  0.00000000000E+00  0.12010909269E+03  0.12010909272E+03  0.25500000000E-02 0. -1.
         -2   -1    0    0    0  501 -0.00000000000E+00 -0.00000000000E+00 -0.46805694013E+00  0.46806388635E+00  0.25500000000E-02 0.  1.
         31    1    1    2    0    0  0.14452422438E+00  0.43197802726E+00  0.65793963969E+02  0.66215648552E+02  0.74470750000E+01 0. -1.
        -31    1    1    2    0    0 -0.14452422438E+00 -0.43197802726E+00  0.53847071784E+02  0.54361508056E+02  0.74470750000E+01 0.  1.
<mgrwt>
<rscale>  0 0.14995775E+02</rscale>
<asrwt>0</asrwt>
<pdfrwt beam="1">  1        2 0.99701629E+00 0.14995775E+02</pdfrwt>
<pdfrwt beam="2">  1       -2 0.99412259E+00 0.14995775E+02</pdfrwt>
<totfact>-0.86479104E-14</totfact>
</mgrwt>
</event>
<event>
 4    1  0.5170493E-019  0.1490564E+02  0.7818608E-02  0.1870962E+00
          2   -1    0    0  501    0  0.00000000000E+00  0.00000000000E+00  0.12029618401E+03  0.12029618403E+03  0.25500000000E-02 0. -1.
         -2   -1    0    0    0  501 -0.00000000000E+00 -0.00000000000E+00 -0.46172799778E+00  0.46173503921E+00  0.25500000000E-02 0.  1.
         31    1    1    2    0    0  0.24498339200E+00  0.38821046754E-01  0.58659721760E+02  0.59131069726E+02  0.74470750000E+01 0.  1.
        -31    1    1    2    0    0 -0.24498339200E+00 -0.38821046754E-01  0.61174734250E+02  0.61626849347E+02  0.74470750000E+01 0. -1.
<mgrwt>
<rscale>  0 0.14905642E+02</rscale>
<asrwt>0</asrwt>
<pdfrwt beam="1">  1        2 0.99851096E+00 0.14905642E+02</pdfrwt>
<pdfrwt beam="2">  1       -2 0.98073785E+00 0.14905642E+02</pdfrwt>
<totfact> 0.53860354E-13</totfact>
</mgrwt>
</event>
<event>
 4    1 -0.5170493E-019  0.1501100E+02  0.7818608E-02  0.1867733E+00
          2   -1    0    0  501    0  0.00000000000E+00  0.00000000000E+00  0.12029206813E+03  0.12029206815E+03  0.25500000000E-02 0. -1.
         -2   -1    0    0    0  501 -0.00000000000E+00 -0.00000000000E+00 -0.46829440605E+00  0.46830134875E+00  0.25500000000E-02 0.  1.
         31    1    1    2    0    0 -0.16116630609E-01 -0.14168628379E+00  0.52480733984E+02  0.53006666564E+02  0.74470750000E+01 0.  1.
        -31    1    1    2    0    0  0.16116630609E-01  0.14168628379E+00  0.67343039737E+02  0.67753702938E+02  0.74470750000E+01 0. -1.
<mgrwt>
<rscale>  0 0.15010999E+02</rscale>
<asrwt>0</asrwt>
<pdfrwt beam="1">  1        2 0.99853123E+00 0.15010999E+02</pdfrwt>
<pdfrwt beam="2">  1       -2 0.99463086E+00 0.15010999E+02</pdfrwt>
<totfact>-0.51115204E-14</totfact>
</mgrwt>
</event>
<event>
 4    1  0.5170493E-019  0.1491543E+02  0.7818608E-02  0.1870660E+00
         -2   -1    0    0    0  501 -0.00000000000E+00  0.00000000000E+00  0.11855787865E+03  0.11855787868E+03  0.25500000000E-02 0. -1.
          2   -1    0    0  501    0  0.00000000000E+00 -0.00000000000E+00 -0.46911360753E+00  0.46912053810E+00  0.25500000000E-02 0.  1.
         31    1    1    2    0    0 -0.33433123293E+00 -0.21627575829E+00  0.58988170854E+02  0.59457731031E+02  0.74470750000E+01 0. -1.
        -31    1    1    2    0    0  0.33433123293E+00  0.21627575829E+00  0.59100594190E+02  0.59569268186E+02  0.74470750000E+01 0.  1.
<mgrwt>
<rscale>  0 0.14915432E+02</rscale>
<asrwt>0</asrwt>
<pdfrwt beam="2">  1        2 0.99630740E+00 0.14915432E+02</pdfrwt>
<pdfrwt beam="1">  1       -2 0.98419851E+00 0.14915432E+02</pdfrwt>
<totfact> 0.50664773E-13</totfact>
</mgrwt>
</event>
<event>
 4    1  0.5170493E-019  0.1489611E+02  0.7818608E-02  0.1871255E+00
         -2   -1    0    0    0  501 -0.00000000000E+00  0.00000000000E+00  0.11789758697E+03  0.11789758700E+03  0.25500000000E-02 0. -1.
          2   -1    0    0  501    0  0.00000000000E+00 -0.00000000000E+00 -0.47051975253E+00  0.47052666239E+00  0.25500000000E-02 0.  1.
         31    1    1    2    0    0  0.48623056483E-01 -0.20914240600E-02  0.57833708499E+02  0.58311226478E+02  0.74470750000E+01 0.  1.
        -31    1    1    2    0    0 -0.48623056483E-01  0.20914240600E-02  0.59593358722E+02  0.60056887185E+02  0.74470750000E+01 0. -1.
<mgrwt>
<rscale>  0 0.14896114E+02</rscale>
<asrwt>0</asrwt>
<pdfrwt beam="2">  1        2 0.99925981E+00 0.14896114E+02</pdfrwt>
<pdfrwt beam="1">  1       -2 0.97875038E+00 0.14896114E+02</pdfrwt>
<totfact> 0.40437734E-13</totfact>
</mgrwt>
</event>
<event>
 4    1 -0.5170493E-019  0.1497995E+02  0.7818608E-02  0.1868681E+00
         -2   -1    0    0    0  501 -0.00000000000E+00  0.00000000000E+00  0.11963390950E+03  0.11963390953E+03  0.25500000000E-02 0.  1.
          2   -1    0    0  501    0  0.00000000000E+00 -0.00000000000E+00 -0.46892483228E+00  0.46893176564E+00  0.25500000000E-02 0. -1.
         31    1    1    2    0    0  0.74039556577E+00  0.73881055037E-01  0.57215489817E+02  0.57702901531E+02  0.74470750000E+01 0. -1.
        -31    1    1    2    0    0 -0.74039556577E+00 -0.73881055037E-01  0.61949494852E+02  0.62399939763E+02  0.74470750000E+01 0.  1.
<mgrwt>
<rscale>  0 0.14979950E+02</rscale>
<asrwt>0</asrwt>
<pdfrwt beam="2">  1        2 0.99594336E+00 0.14979950E+02</pdfrwt>
<pdfrwt beam="1">  1       -2 0.99309432E+00 0.14979950E+02</pdfrwt>
<totfact>-0.93853245E-14</totfact>
</mgrwt>
</event>
<event>
 4    1  0.5170493E-019  0.1492330E+02  0.7818608E-02  0.1870418E+00
          2   -1    0    0  501    0  0.00000000000E+00  0.00000000000E+00  0.11999713294E+03  0.11999713297E+03  0.25500000000E-02 0.  1.
         -2   -1    0    0    0  501 -0.00000000000E+00 -0.00000000000E+00 -0.46397632126E+00  0.46398332857E+00  0.25500000000E-02 0. -1.
         31    1    1    2    0    0  0.74629808239E-01 -0.22846508448E-01  0.63476495154E+02  0.63911896034E+02  0.74470750000E+01 0.  1.
        -31    1    1    2    0    0 -0.74629808239E-01  0.22846508448E-01  0.56056661464E+02  0.56549220261E+02  0.74470750000E+01 0. -1.
<mgrwt>
<rscale>  0 0.14923304E+02</rscale>
<asrwt>0</asrwt>
<pdfrwt beam="1">  1        2 0.99605679E+00 0.14923304E+02</pdfrwt>
<pdfrwt beam="2">  1       -2 0.98548556E+00 0.14923304E+02</pdfrwt>
<totfact> 0.36884263E-13</totfact>
</mgrwt>
</event>
<event>
 4    1 -0.5170493E-019  0.1494947E+02  0.7818608E-02  0.1869614E+00
          2   -1    0    0  501    0  0.00000000000E+00  0.00000000000E+00  0.11911725817E+03  0.11911725820E+03  0.25500000000E-02 0.  1.
         -2   -1    0    0    0  501 -0.00000000000E+00 -0.00000000000E+00 -0.46904384781E+00  0.46905077941E+00  0.25500000000E-02 0. -1.
         31    1    1    2    0    0 -0.16479600505E-01 -0.49635077107E-01  0.54202186516E+02  0.54711412744E+02  0.74470750000E+01 0. -1.
        -31    1    1    2    0    0  0.16479600505E-01  0.49635077107E-01  0.64446027806E+02  0.64874896233E+02  0.74470750000E+01 0.  1.
<mgrwt>
<rscale>  0 0.14949466E+02</rscale>
<asrwt>0</asrwt>
<pdfrwt beam="1">  1        2 0.98882327E+00 0.14949466E+02</pdfrwt>
<pdfrwt beam="2">  1       -2 0.99617827E+00 0.14949466E+02</pdfrwt>
<totfact>-0.18571524E-13</totfact>
</mgrwt>
</event>
<event>
 4    1  0.5170493E-019  0.1489723E+02  0.7818608E-02  0.1871221E+00
         -2   -1    0    0    0  501 -0.00000000000E+00  0.00000000000E+00  0.11829421406E+03  0.11829421408E+03  0.25500000000E-02 0. -1.
          2   -1    0    0  501    0  0.00000000000E+00 -0.00000000000E+00 -0.46901219442E+00  0.46901912649E+00  0.25500000000E-02 0.  1.
         31    1    1    2    0    0 -0.83127086299E-02  0.13528243513E+00  0.58375102963E+02  0.58848363975E+02  0.74470750000E+01 0. -1.
        -31    1    1    2    0    0  0.83127086299E-02 -0.13528243513E+00  0.59450098899E+02  0.59914869236E+02  0.74470750000E+01 0.  1.
<mgrwt>
<rscale>  0 0.14897227E+02</rscale>
<asrwt>0</asrwt>
<pdfrwt beam="2">  1        2 0.99608412E+00 0.14897227E+02</pdfrwt>
<pdfrwt beam="1">  1       -2 0.98201751E+00 0.14897227E+02</pdfrwt>
<totfact> 0.85461584E-13</totfact>
</mgrwt>
</event>
<event>
 4    1 -0.5170493E-019  0.1498064E+02  0.7818608E-02  0.1868660E+00
         -2   -1    0    0    0  501 -0.00000000000E+00  0.00000000000E+00  0.11954735670E+03  0.11954735673E+03  0.25500000000E-02 0. -1.
          2   -1    0    0  501    0  0.00000000000E+00 -0.00000000000E+00 -0.46930751300E+00  0.46931444071E+00  0.25500000000E-02 0.  1.
         31    1    1    2    0    0 -0.18453545688E+00 -0.41321715336E+00  0.64860234275E+02  0.65287929344E+02  0.74470750000E+01 0.  1.
        -31    1    1    2    0    0  0.18453545688E+00  0.41321715336E+00  0.54217814911E+02  0.54728741823E+02  0.74470750000E+01 0.  1.
<mgrwt>
<rscale>  0 0.14980640E+02</rscale>
<asrwt>0</asrwt>
<pdfrwt beam="2">  1        2 0.99675012E+00 0.14980640E+02</pdfrwt>
<pdfrwt beam="1">  1       -2 0.99238181E+00 0.14980640E+02</pdfrwt>
<totfact>-0.69749523E-14</totfact>
</mgrwt>
</event>
<event>
 4    1  0.5170493E-019  0.1491932E+02  0.7818608E-02  0.1870540E+00
         -2   -1    0    0    0  501 -0.00000000000E+00  0.00000000000E+00  0.11855889318E+03  0.11855889320E+03  0.25500000000E-02 0. -1.
          2   -1    0    0  501    0  0.00000000000E+00 -0.00000000000E+00 -0.46935427472E+00  0.46936120174E+00  0.25500000000E-02 0.  1.
         31    1    1    2    0    0 -0.17152905420E+00  0.13707649218E+00  0.56066041932E+02  0.56558891398E+02  0.74470750000E+01 0.  1.
        -31    1    1    2    0    0  0.17152905420E+00 -0.13707649218E+00  0.62023496970E+02  0.62469363008E+02  0.74470750000E+01 0. -1.
<mgrwt>
<rscale>  0 0.14919321E+02</rscale>
<asrwt>0</asrwt>
<pdfrwt beam="2">  1        2 0.99681654E+00 0.14919321E+02</pdfrwt>
<pdfrwt beam="1">  1       -2 0.98420889E+00 0.14919321E+02</pdfrwt>
<totfact> 0.46002250E-13</totfact>
</mgrwt>
</event>
<event>
 4    1 -0.5170493E-019  0.1501338E+02  0.7818608E-02  0.1867661E+00
          2   -1    0    0  501    0  0.00000000000E+00  0.00000000000E+00  0.11995219223E+03  0.11995219225E+03  0.25500000000E-02 0. -1.
         -2   -1    0    0    0  501 -0.00000000000E+00 -0.00000000000E+00 -0.46977018361E+00  0.46977710450E+00  0.25500000000E-02 0.  1.
         31    1    1    2    0    0 -0.29825713088E+00 -0.70338783726E+00  0.55291600293E+02  0.55796090372E+02  0.74470750000E+01 0.  1.
        -31    1    1    2    0    0  0.29825713088E+00  0.70338783726E+00  0.64190821749E+02  0.64625878985E+02  0.74470750000E+01 0. -1.
<mgrwt>
<rscale>  0 0.15013378E+02</rscale>
<asrwt>0</asrwt>
<pdfrwt beam="1">  1        2 0.99573310E+00 0.15013378E+02</pdfrwt>
<pdfrwt beam="2">  1       -2 0.99774209E+00 0.15013378E+02</pdfrwt>
<totfact>-0.71642273E-14</totfact>
</mgrwt>
</event>
<event>
 4    1 -0.5170493E-019  0.1498349E+02  0.7818608E-02  0.1868573E+00
          2   -1    0    0  501    0  0.00000000000E+00  0.00000000000E+00  0.11955526091E+03  0.11955526094E+03  0.25500000000E-02 0.  1.
         -2   -1    0    0    0  501 -0.00000000000E+00 -0.00000000000E+00 -0.46945512376E+00  0.46946204929E+00  0.25500000000E-02 0. -1.
         31    1    1    2    0    0  0.41690398369E+00  0.47593833797E-01  0.53928447651E+02  0.54441826441E+02  0.74470750000E+01 0. -1.
        -31    1    1    2    0    0 -0.41690398369E+00 -0.47593833797E-01  0.65157358134E+02  0.65582896545E+02  0.74470750000E+01 0.  1.
<mgrwt>
<rscale>  0 0.14983491E+02</rscale>
<asrwt>0</asrwt>
<pdfrwt beam="1">  1        2 0.99244839E+00 0.14983491E+02</pdfrwt>
<pdfrwt beam="2">  1       -2 0.99706265E+00 0.14983491E+02</pdfrwt>
<totfact>-0.11578545E-13</totfact>
</mgrwt>
</event>
<event>
 4    1 -0.5170493E-019  0.1496928E+02  0.7818608E-02  0.1869007E+00
         -2   -1    0    0    0  501 -0.00000000000E+00  0.00000000000E+00  0.12008229437E+03  0.12008229440E+03  0.25500000000E-02 0.  1.
          2   -1    0    0  501    0  0.00000000000E+00 -0.00000000000E+00 -0.46650875273E+00  0.46651572200E+00  0.25500000000E-02 0. -1.
         31    1    1    2    0    0 -0.65750533092E+00  0.15327443450E+00  0.62419012008E+02  0.62865314700E+02  0.74470750000E+01 0. -1.
        -31    1    1    2    0    0  0.65750533092E+00 -0.15327443450E+00  0.57196773610E+02  0.57683495419E+02  0.74470750000E+01 0. -1.
<mgrwt>
<rscale>  0 0.14969284E+02</rscale>
<asrwt>0</asrwt>
<pdfrwt beam="2">  1        2 0.99084625E+00 0.14969284E+02</pdfrwt>
<pdfrwt beam="1">  1       -2 0.99678191E+00 0.14969284E+02</pdfrwt>
<totfact>-0.13861540E-13</totfact>
</mgrwt>
</event>
<event>
 4    1  0.5170493E-019  0.1490113E+02  0.7818608E-02  0.1871101E+00
         -2   -1    0    0    0  501 -0.00000000000E+00  0.00000000000E+00  0.11817193069E+03  0.11817193072E+03  0.25500000000E-02 0.  1.
          2   -1    0    0  501    0  0.00000000000E+00 -0.00000000000E+00 -0.46974338634E+00  0.46975030762E+00  0.25500000000E-02 0. -1.
         31    1    1    2    0    0 -0.22761888130E+00  0.11981807497E-01  0.58820125911E+02  0.59290117998E+02  0.74470750000E+01 0.  1.
        -31    1    1    2    0    0  0.22761888130E+00 -0.11981807497E-01  0.58882061396E+02  0.59351563031E+02  0.74470750000E+01 0. -1.
<mgrwt>
<rscale>  0 0.14901127E+02</rscale>
<asrwt>0</asrwt>
<pdfrwt beam="2">  1        2 0.99762677E+00 0.14901127E+02</pdfrwt>
<pdfrwt beam="1">  1       -2 0.98101243E+00 0.14901127E+02</pdfrwt>
<totfact> 0.74083426E-13</totfact>
</mgrwt>
</event>
<event>
 4    1  0.5170493E-019  0.1490968E+02  0.7818608E-02  0.1870837E+00
         -2   -1    0    0    0  501 -0.00000000000E+00  0.00000000000E+00  0.11839460056E+03  0.11839460059E+03  0.25500000000E-02 0.  1.
          2   -1    0    0  501    0  0.00000000000E+00 -0.00000000000E+00 -0.46939835683E+00  0.46940528320E+00  0.25500000000E-02 0. -1.
         31    1    1    2    0    0  0.71181511977E-01 -0.33262540067E+00  0.58989893206E+02  0.59459079483E+02  0.74470750000E+01 0. -1.
        -31    1    1    2    0    0 -0.71181511977E-01  0.33262540067E+00  0.58935308996E+02  0.59404926387E+02  0.74470750000E+01 0. -1.
<mgrwt>
<rscale>  0 0.14909681E+02</rscale>
<asrwt>0</asrwt>
<pdfrwt beam="2">  1        2 0.99690434E+00 0.14909681E+02</pdfrwt>
<pdfrwt beam="1">  1       -2 0.98285077E+00 0.14909681E+02</pdfrwt>
<totfact> 0.62024465E-13</totfact>
</mgrwt>
</event>
<event>
 4    1 -0.5170493E-019  0.1492881E+02  0.7818608E-02  0.1870249E+00
         -2   -1    0    0    0  501 -0.00000000000E+00  0.00000000000E+00  0.11998964415E+03  0.11998964417E+03  0.25500000000E-02 0.  1.
          2   -1    0    0  501    0  0.00000000000E+00 -0.00000000000E+00 -0.46434753006E+00  0.46435453177E+00  0.25500000000E-02 0. -1.
         31    1    1    2    0    0  0.10563927501E+00  0.34379337401E+00  0.62661032677E+02  0.63103037135E+02  0.74470750000E+01 0.  1.
        -31    1    1    2    0    0 -0.10563927501E+00 -0.34379337401E+00  0.56864263940E+02  0.57350961570E+02  0.74470750000E+01 0. -1.
<mgrwt>
<rscale>  0 0.14928807E+02</rscale>
<asrwt>0</asrwt>
<pdfrwt beam="2">  1        2 0.98627072E+00 0.14928807E+02</pdfrwt>
<pdfrwt beam="1">  1       -2 0.99599794E+00 0.14928807E+02</pdfrwt>
<totfact>-0.26692391E-13</totfact>
</mgrwt>
</event>
<event>
 4    1 -0.5170493E-019  0.1491633E+02  0.7818608E-02  0.1870633E+00
          2   -1    0    0  501    0  0.00000000000E+00  0.00000000000E+00  0.11834959092E+03  0.11834959094E+03  0.25500000000E-02 0.  1.
         -2   -1    0    0    0  501 -0.00000000000E+00 -0.00000000000E+00 -0.46999557697E+00  0.47000249454E+00  0.25500000000E-02 0. -1.
         31    1    1    2    0    0  0.22132372066E+00  0.24011604100E+00  0.60868607963E+02  0.61323347930E+02  0.74470750000E+01 0.  1.
        -31    1    1    2    0    0 -0.22132372066E+00 -0.24011604100E+00  0.57010987376E+02  0.57496245509E+02  0.74470750000E+01 0. -1.
<mgrwt>
<rscale>  0 0.14916326E+02</rscale>
<asrwt>0</asrwt>
<pdfrwt beam="1">  1        2 0.98248353E+00 0.14916326E+02</pdfrwt>
<pdfrwt beam="2">  1       -2 0.99816617E+00 0.14916326E+02</pdfrwt>
<totfact>-0.29257614E-13</totfact>
</mgrwt>
</event>
<event>
 4    1  0.5170493E-019  0.1491172E+02  0.7818608E-02  0.1870774E+00
          2   -1    0    0  501    0  0.00000000000E+00  0.00000000000E+00  0.11985075980E+03  0.11985075983E+03  0.25500000000E-02 0.  1.
         -2   -1    0    0    0  501 -0.00000000000E+00 -0.00000000000E+00 -0.46382197236E+00  0.46382898200E+00  0.25500000000E-02 0. -1.
         31    1    1    2    0    0  0.10159435596E+00  0.13392528642E+00  0.57108340984E+02  0.57592098359E+02  0.74470750000E+01 0. -1.
        -31    1    1    2    0    0 -0.10159435596E+00 -0.13392528642E+00  0.62278596845E+02  0.62722490452E+02  0.74470750000E+01 0.  1.
<mgrwt>
<rscale>  0 0.14911719E+02</rscale>
<asrwt>0</asrwt>
<pdfrwt beam="1">  1        2 0.99484520E+00 0.14911719E+02</pdfrwt>
<pdfrwt beam="2">  1       -2 0.98515436E+00 0.14911719E+02</pdfrwt>
<totfact> 0.47116005E-13</totfact>
</mgrwt>
</event>
<event>
 4    1  0.5170493E-019  0.1489622E+02  0.7818608E-02  0.1871252E+00
         -2   -1    0    0    0  501 -0.00000000000E+00  0.00000000000E+00  0.11821636282E+03  0.11821636285E+03  0.25500000000E-02 0.  1.
          2   -1    0    0  501    0  0.00000000000E+00 -0.00000000000E+00 -0.46925775749E+00  0.46926468593E+00  0.25500000000E-02 0. -1.
         31    1    1    2    0    0 -0.50941067706E-01 -0.54023154135E-01  0.59667051048E+02  0.60130037588E+02  0.74470750000E+01 0.  1.
        -31    1    1    2    0    0  0.50941067706E-01  0.54023154135E-01  0.58080054015E+02  0.58555589946E+02  0.74470750000E+01 0. -1.
<mgrwt>
<rscale>  0 0.14896222E+02</rscale>
<asrwt>0</asrwt>
<pdfrwt beam="2">  1        2 0.99660099E+00 0.14896222E+02</pdfrwt>
<pdfrwt beam="1">  1       -2 0.98137581E+00 0.14896222E+02</pdfrwt>
<totfact> 0.88721520E-13</totfact>
</mgrwt>
</event>
<event>
 4    1  0.5170493E-019  0.1493220E+02  0.7818608E-02  0.1870144E+00
         -2   -1    0    0    0  501 -0.00000000000E+00  0.00000000000E+00  0.11867366799E+03  0.11867366802E+03  0.25500000000E-02 0. -1.
          2   -1    0    0  501    0  0.00000000000E+00 -0.00000000000E+00 -0.46971037146E+00  0.46971729323E+00  0.25500000000E-02 0.  1.
         31    1    1    2    0    0 -0.40538437033E+00  0.33417599976E+00  0.58400442715E+02  0.58875688068E+02  0.74470750000E+01 0.  1.
        -31    1    1    2    0    0  0.40538437033E+00 -0.33417599976E+00  0.59803514903E+02  0.60267697242E+02  0.74470750000E+01 0.  1.
<mgrwt>
<rscale>  0 0.14932202E+02</rscale>
<asrwt>0</asrwt>
<pdfrwt beam="2">  1        2 0.99757363E+00 0.14932202E+02</pdfrwt>
<pdfrwt beam="1">  1       -2 0.98516087E+00 0.14932202E+02</pdfrwt>
<totfact> 0.29433767E-13</totfact>
</mgrwt>
</event>
<event>
 4    1 -0.5170493E-019  0.1491710E+02  0.7818608E-02  0.1870609E+00
          2   -1    0    0  501    0  0.00000000000E+00  0.00000000000E+00  0.11900705970E+03  0.11900705972E+03  0.25500000000E-02 0. -1.
         -2   -1    0    0    0  501 -0.00000000000E+00 -0.00000000000E+00 -0.46744739831E+00  0.46745435358E+00  0.25500000000E-02 0.  1.
         31    1    1    2    0    0  0.33400821604E+00 -0.11158469782E+00  0.61006514909E+02  0.61460375853E+02  0.74470750000E+01 0. -1.
        -31    1    1    2    0    0 -0.33400821604E+00  0.11158469782E+00  0.57533097389E+02  0.58014138224E+02  0.74470750000E+01 0.  1.
<mgrwt>
<rscale>  0 0.14917099E+02</rscale>
<asrwt>0</asrwt>
<pdfrwt beam="1">  1        2 0.98789887E+00 0.14917099E+02</pdfrwt>
<pdfrwt beam="2">  1       -2 0.99279736E+00 0.14917099E+02</pdfrwt>
<totfact>-0.18858978E-13</totfact>
</mgrwt>
</event>
<event>
 4    1 -0.5170493E-019  0.1493712E+02  0.7818608E-02  0.1869993E+00
          2   -1    0    0  501    0  0.00000000000E+00  0.00000000000E+00  0.11911096545E+03  0.11911096548E+03  0.25500000000E-02 0. -1.
         -2   -1    0    0    0  501 -0.00000000000E+00 -0.00000000000E+00 -0.46829423934E+00  0.46830118204E+00  0.25500000000E-02 0.  1.
         31    1    1    2    0    0 -0.14741312934E+00 -0.32440014331E+00  0.62842882418E+02  0.63283597896E+02  0.74470750000E+01 0. -1.
        -31    1    1    2    0    0  0.14741312934E+00  0.32440014331E+00  0.55799788798E+02  0.56295668768E+02  0.74470750000E+01 0.  1.
<mgrwt>
<rscale>  0 0.14937121E+02</rscale>
<asrwt>0</asrwt>
<pdfrwt beam="1">  1        2 0.98876504E+00 0.14937121E+02</pdfrwt>
<pdfrwt beam="2">  1       -2 0.99459226E+00 0.14937121E+02</pdfrwt>
<totfact>-0.20369768E-13</totfact>
</mgrwt>
</event>
<event>
 4    1 -0.5170493E-019  0.1495527E+02  0.7818608E-02  0.1869437E+00
         -2   -1    0    0    0  501 -0.00000000000E+00  0.00000000000E+00  0.12024417361E+03  0.12024417364E+03  0.25500000000E-02 0. -1.
          2   -1    0    0  501    0  0.00000000000E+00 -0.00000000000E+00 -0.46500855144E+00  0.46501554319E+00  0.25500000000E-02 0.  1.
         31    1    1    2    0    0  0.50964168869E-01 -0.11137295776E-01  0.65324096331E+02  0.65747237272E+02  0.74470750000E+01 0. -1.
        -31    1    1    2    0    0 -0.50964168869E-01  0.11137295776E-01  0.54455068732E+02  0.54961951913E+02  0.74470750000E+01 0.  1.
<mgrwt>
<rscale>  0 0.14955266E+02</rscale>
<asrwt>0</asrwt>
<pdfrwt beam="2">  1        2 0.98767735E+00 0.14955266E+02</pdfrwt>
<pdfrwt beam="1">  1       -2 0.99810803E+00 0.14955266E+02</pdfrwt>
<totfact>-0.13225218E-13</totfact>
</mgrwt>
</event>
<event>
 4    1 -0.5170493E-019  0.1500210E+02  0.7818608E-02  0.1868004E+00
         -2   -1    0    0    0  501 -0.00000000000E+00  0.00000000000E+00  0.11972583138E+03  0.11972583141E+03  0.25500000000E-02 0.  1.
          2   -1    0    0  501    0  0.00000000000E+00 -0.00000000000E+00 -0.46995169994E+00  0.46995861816E+00  0.25500000000E-02 0. -1.
         31    1    1    2    0    0 -0.65668532636E+00  0.29246630058E+00  0.63943069848E+02  0.64379281448E+02  0.74470750000E+01 0.  1.
        -31    1    1    2    0    0  0.65668532636E+00 -0.29246630058E+00  0.55312809830E+02  0.55816508575E+02  0.74470750000E+01 0. -1.
<mgrwt>
<rscale>  0 0.15002103E+02</rscale>
<asrwt>0</asrwt>
<pdfrwt beam="2">  1        2 0.99811874E+00 0.15002103E+02</pdfrwt>
<pdfrwt beam="1">  1       -2 0.99386289E+00 0.15002103E+02</pdfrwt>
<totfact>-0.60472367E-14</totfact>
</mgrwt>
</event>
<event>
 4    1  0.5170493E-019  0.1489903E+02  0.7818608E-02  0.1871165E+00
          2   -1    0    0  501    0  0.00000000000E+00  0.00000000000E+00  0.12031921728E+03  0.12031921731E+03  0.25500000000E-02 0.  1.
         -2   -1    0    0    0  501 -0.00000000000E+00 -0.00000000000E+00 -0.46123002149E+00  0.46123707052E+00  0.25500000000E-02 0. -1.
         31    1    1    2    0    0  0.17413507884E+00  0.98069801606E-02  0.60552582264E+02  0.61009053133E+02  0.74470750000E+01 0. -1.
        -31    1    1    2    0    0 -0.17413507884E+00 -0.98069801606E-02  0.59305404992E+02  0.59771401243E+02  0.74470750000E+01 0. -1.
<mgrwt>
<rscale>  0 0.14899028E+02</rscale>
<asrwt>0</asrwt>
<pdfrwt beam="1">  1        2 0.99869730E+00 0.14899028E+02</pdfrwt>
<pdfrwt beam="2">  1       -2 0.97968489E+00 0.14899028E+02</pdfrwt>
<totfact> 0.57614077E-13</totfact>
</mgrwt>
</event>
<event>
 4    1 -0.5170493E-019  0.1491578E+02  0.7818608E-02  0.1870649E+00
         -2   -1    0    0    0  501 -0.00000000000E+00  0.00000000000E+00  0.11988275787E+03  0.11988275789E+03  0.25500000000E-02 0.  1.
          2   -1    0    0  501    0  0.00000000000E+00 -0.00000000000E+00 -0.46395083847E+00  0.46395784616E+00  0.25500000000E-02 0. -1.
         31    1    1    2    0    0  0.17640394393E+00  0.26773436798E+00  0.61659278271E+02  0.62108198517E+02  0.74470750000E+01 0.  1.
        -31    1    1    2    0    0 -0.17640394393E+00 -0.26773436798E+00  0.57759528756E+02  0.58238517222E+02  0.74470750000E+01 0. -1.
<mgrwt>
<rscale>  0 0.14915781E+02</rscale>
<asrwt>0</asrwt>
<pdfrwt beam="2">  1        2 0.98542802E+00 0.14915781E+02</pdfrwt>
<pdfrwt beam="1">  1       -2 0.99511085E+00 0.14915781E+02</pdfrwt>
<totfact>-0.32315251E-13</totfact>
</mgrwt>
</event>
<event>
 4    1 -0.5170493E-019  0.1498405E+02  0.7818608E-02  0.1868555E+00
          2   -1    0    0  501    0  0.00000000000E+00  0.00000000000E+00  0.11929116289E+03  0.11929116291E+03  0.25500000000E-02 0.  1.
         -2   -1    0    0    0  501 -0.00000000000E+00 -0.00000000000E+00 -0.47052990693E+00  0.47053681665E+00  0.25500000000E-02 0. -1.
         31    1    1    2    0    0 -0.29821454330E+00 -0.68220151655E+00  0.56673874315E+02  0.57165910180E+02  0.74470750000E+01 0.  1.
        -31    1    1    2    0    0  0.29821454330E+00  0.68220151655E+00  0.62146758665E+02  0.62595789550E+02  0.74470750000E+01 0.  1.
<mgrwt>
<rscale>  0 0.14984055E+02</rscale>
<asrwt>0</asrwt>
<pdfrwt beam="1">  1        2 0.99027353E+00 0.14984055E+02</pdfrwt>
<pdfrwt beam="2">  1       -2 0.99932770E+00 0.14984055E+02</pdfrwt>
<totfact>-0.39073874E-14</totfact>
</mgrwt>
</event>
<event>
 4    1 -0.5170493E-019  0.1495512E+02  0.7818608E-02  0.1869441E+00
          2   -1    0    0  501    0  0.00000000000E+00  0.00000000000E+00  0.11885236388E+03  0.11885236391E+03  0.25500000000E-02 0. -1.
         -2   -1    0    0    0  501 -0.00000000000E+00 -0.00000000000E+00 -0.47044497887E+00  0.47045188983E+00  0.25500000000E-02 0.  1.
         31    1    1    2    0    0  0.20396863289E+00 -0.33387987352E+00  0.54806965349E+02  0.55311982932E+02  0.74470750000E+01 0.  1.
        -31    1    1    2    0    0 -0.20396863289E+00  0.33387987352E+00  0.63574953556E+02  0.64010832870E+02  0.74470750000E+01 0. -1.
<mgrwt>
<rscale>  0 0.14955121E+02</rscale>
<asrwt>0</asrwt>
<pdfrwt beam="1">  1        2 0.98664453E+00 0.14955121E+02</pdfrwt>
<pdfrwt beam="2">  1       -2 0.99913355E+00 0.14955121E+02</pdfrwt>
<totfact>-0.76595982E-14</totfact>
</mgrwt>
</event>
<event>
 4    1  0.5170493E-019  0.1491233E+02  0.7818608E-02  0.1870756E+00
          2   -1    0    0  501    0  0.00000000000E+00  0.00000000000E+00  0.11978535320E+03  0.11978535322E+03  0.25500000000E-02 0.  1.
         -2   -1    0    0    0  501 -0.00000000000E+00 -0.00000000000E+00 -0.46411304350E+00  0.46412004874E+00  0.25500000000E-02 0. -1.
         31    1    1    2    0    0 -0.25777234689E+00  0.10639585221E+00  0.57724058206E+02  0.58203123529E+02  0.74470750000E+01 0.  1.
        -31    1    1    2    0    0  0.25777234689E+00 -0.10639585221E+00  0.61597181946E+02  0.62046349743E+02  0.74470750000E+01 0.  1.
<mgrwt>
<rscale>  0 0.14912326E+02</rscale>
<asrwt>0</asrwt>
<pdfrwt beam="1">  1        2 0.99430678E+00 0.14912326E+02</pdfrwt>
<pdfrwt beam="2">  1       -2 0.98576812E+00 0.14912326E+02</pdfrwt>
<totfact> 0.41068304E-13</totfact>
</mgrwt>
</event>
<event>
 4    1 -0.5170493E-019  0.1491672E+02  0.7818608E-02  0.1870620E+00
         -2   -1    0    0    0  501 -0.00000000000E+00  0.00000000000E+00  0.11975615653E+03  0.11975615655E+03  0.25500000000E-02 0. -1.
          2   -1    0    0  501    0  0.00000000000E+00 -0.00000000000E+00 -0.46450010011E+00  0.46450709952E+00  0.25500000000E-02 0.  1.
         31    1    1    2    0    0 -0.13565003427E+00 -0.94015600908E-01  0.56619472006E+02  0.57107361838E+02  0.74470750000E+01 0.  1.
        -31    1    1    2    0    0  0.13565003427E+00  0.94015600908E-01  0.62672184421E+02  0.63113301815E+02  0.74470750000E+01 0. -1.
<mgrwt>
<rscale>  0 0.14916725E+02</rscale>
<asrwt>0</asrwt>
<pdfrwt beam="2">  1        2 0.98658611E+00 0.14916725E+02</pdfrwt>
<pdfrwt beam="1">  1       -2 0.99406856E+00 0.14916725E+02</pdfrwt>
<totfact>-0.26668787E-13</totfact>
</mgrwt>
</event>
<event>
 4    1 -0.5170493E-019  0.1497371E+02  0.7818608E-02  0.1868872E+00
         -2   -1    0    0    0  501 -0.00000000000E+00  0.00000000000E+00  0.11957324159E+03  0.11957324162E+03  0.25500000000E-02 0.  1.
          2   -1    0    0  501    0  0.00000000000E+00 -0.00000000000E+00 -0.46877208065E+00  0.46877901628E+00  0.25500000000E-02 0. -1.
         31    1    1    2    0    0 -0.76352036355E+00  0.10010455120E+00  0.59818708270E+02  0.60285402623E+02  0.74470750000E+01 0.  1.
        -31    1    1    2    0    0  0.76352036355E+00 -0.10010455120E+00  0.59285761238E+02  0.59756618010E+02  0.74470750000E+01 0.  1.
<mgrwt>
<rscale>  0 0.14973712E+02</rscale>
<asrwt>0</asrwt>
<pdfrwt beam="2">  1        2 0.99561823E+00 0.14973712E+02</pdfrwt>
<pdfrwt beam="1">  1       -2 0.99259142E+00 0.14973712E+02</pdfrwt>
<totfact>-0.88362019E-14</totfact>
</mgrwt>
</event>
<event>
 4    1 -0.5170493E-019  0.1492537E+02  0.7818608E-02  0.1870354E+00
          2   -1    0    0  501    0  0.00000000000E+00  0.00000000000E+00  0.11849629586E+03  0.11849629589E+03  0.25500000000E-02 0.  1.
         -2   -1    0    0    0  501 -0.00000000000E+00 -0.00000000000E+00 -0.46998305025E+00  0.46998996800E+00  0.25500000000E-02 0. -1.
         31    1    1    2    0    0  0.24553097803E+00  0.31993097523E+00  0.61123467639E+02  0.61576780230E+02  0.74470750000E+01 0. -1.
        -31    1    1    2    0    0 -0.24553097803E+00 -0.31993097523E+00  0.56902845175E+02  0.57389505629E+02  0.74470750000E+01 0. -1.
<mgrwt>
<rscale>  0 0.14925370E+02</rscale>
<asrwt>0</asrwt>
<pdfrwt beam="1">  1        2 0.98369649E+00 0.14925370E+02</pdfrwt>
<pdfrwt beam="2">  1       -2 0.99814456E+00 0.14925370E+02</pdfrwt>
<totfact>-0.24073326E-13</totfact>
</mgrwt>
</event>
<event>
 4    1 -0.5170493E-019  0.1491667E+02  0.7818608E-02  0.1870622E+00
          2   -1    0    0  501    0  0.00000000000E+00  0.00000000000E+00  0.11827230393E+03  0.11827230395E+03  0.25500000000E-02 0.  1.
         -2   -1    0    0    0  501 -0.00000000000E+00 -0.00000000000E+00 -0.47032457294E+00  0.47033148567E+00  0.25500000000E-02 0. -1.
         31    1    1    2    0    0 -0.31126489211E+00 -0.16380174818E+00  0.57228548704E+02  0.57712125500E+02  0.74470750000E+01 0. -1.
        -31    1    1    2    0    0  0.31126489211E+00  0.16380174818E+00  0.60573430648E+02  0.61030509939E+02  0.74470750000E+01 0. -1.
<mgrwt>
<rscale>  0 0.14916673E+02</rscale>
<asrwt>0</asrwt>
<pdfrwt beam="1">  1        2 0.98184719E+00 0.14916673E+02</pdfrwt>
<pdfrwt beam="2">  1       -2 0.99885953E+00 0.14916673E+02</pdfrwt>
<totfact>-0.21558862E-13</totfact>
</mgrwt>
</event>
<event>
 4    1 -0.5170493E-019  0.1491305E+02  0.7818608E-02  0.1870733E+00
          2   -1    0    0  501    0  0.00000000000E+00  0.00000000000E+00  0.11857788538E+03  0.11857788541E+03  0.25500000000E-02 0.  1.
         -2   -1    0    0    0  501 -0.00000000000E+00 -0.00000000000E+00 -0.46888466746E+00  0.46889160142E+00  0.25500000000E-02 0. -1.
         31    1    1    2    0    0  0.17325554562E+00  0.23759694647E+00  0.60915877195E+02  0.61370102577E+02  0.74470750000E+01 0.  1.
        -31    1    1    2    0    0 -0.17325554562E+00 -0.23759694647E+00  0.57193123517E+02  0.57676674432E+02  0.74470750000E+01 0. -1.
<mgrwt>
<rscale>  0 0.14913050E+02</rscale>
<asrwt>0</asrwt>
<pdfrwt beam="1">  1        2 0.98436205E+00 0.14913050E+02</pdfrwt>
<pdfrwt beam="2">  1       -2 0.99582376E+00 0.14913050E+02</pdfrwt>
<totfact>-0.36803471E-13</totfact>
</mgrwt>
</event>
<event>
 4    1  0.5170493E-019  0.1493921E+02  0.7818608E-02  0.1869929E+00
          2   -1    0    0  501    0  0.00000000000E+00  0.00000000000E+00  0.12017973106E+03  0.12017973109E+03  0.25500000000E-02 0. -1.
         -2   -1    0    0    0  501 -0.00000000000E+00 -0.00000000000E+00 -0.46425962546E+00  0.46426662849E+00  0.25500000000E-02 0.  1.
         31    1    1    2    0    0  0.12613329443E+00  0.32088184444E+00  0.56093922331E+02  0.56587153342E+02  0.74470750000E+01 0.  1.
        -31    1    1    2    0    0 -0.12613329443E+00 -0.32088184444E+00  0.63621549102E+02  0.64056844373E+02  0.74470750000E+01 0. -1.
<mgrwt>
<rscale>  0 0.14939213E+02</rscale>
<asrwt>0</asrwt>
<pdfrwt beam="1">  1        2 0.99756898E+00 0.14939213E+02</pdfrwt>
<pdfrwt beam="2">  1       -2 0.98609075E+00 0.14939213E+02</pdfrwt>
<totfact> 0.22019945E-13</totfact>
</mgrwt>
</event>
<event>
 4    1  0.5170493E-019  0.1491012E+02  0.7818608E-02  0.1870824E+00
         -2   -1    0    0    0  501 -0.00000000000E+00  0.00000000000E+00  0.11846231337E+03  0.11846231340E+03  0.25500000000E-02 0. -1.
          2   -1    0    0  501    0  0.00000000000E+00 -0.00000000000E+00 -0.46915787551E+00  0.46916480543E+00  0.25500000000E-02 0.  1.
         31    1    1    2    0    0  0.11226002123E+00 -0.18660901967E+00  0.56862349508E+02  0.57348349086E+02  0.74470750000E+01 0.  1.
        -31    1    1    2    0    0 -0.11226002123E+00  0.18660901967E+00  0.61130805984E+02  0.61583129114E+02  0.74470750000E+01 0. -1.
<mgrwt>
<rscale>  0 0.14910123E+02</rscale>
<asrwt>0</asrwt>
<pdfrwt beam="2">  1        2 0.99639788E+00 0.14910123E+02</pdfrwt>
<pdfrwt beam="1">  1       -2 0.98340867E+00 0.14910123E+02</pdfrwt>
<totfact> 0.60359701E-13</totfact>
</mgrwt>
</event>
<event>
 4    1 -0.5170493E-019  0.1494945E+02  0.7818608E-02  0.1869615E+00
          2   -1    0    0  501    0  0.00000000000E+00  0.00000000000E+00  0.11950322941E+03  0.11950322943E+03  0.25500000000E-02 0. -1.
         -2   -1    0    0    0  501 -0.00000000000E+00 -0.00000000000E+00 -0.46752799459E+00  0.46753494867E+00  0.25500000000E-02 0.  1.
         31    1    1    2    0    0  0.48130761224E+00 -0.23109025492E+00  0.56651889605E+02  0.57141758650E+02  0.74470750000E+01 0. -1.
        -31    1    1    2    0    0 -0.48130761224E+00  0.23109025492E+00  0.62383811805E+02  0.62829005731E+02  0.74470750000E+01 0. -1.
<mgrwt>
<rscale>  0 0.14949451E+02</rscale>
<asrwt>0</asrwt>
<pdfrwt beam="1">  1        2 0.99200222E+00 0.14949451E+02</pdfrwt>
<pdfrwt beam="2">  1       -2 0.99298400E+00 0.14949451E+02</pdfrwt>
<totfact>-0.13092343E-13</totfact>
</mgrwt>
</event>
<event>
 4    1  0.5170493E-019  0.1491290E+02  0.7818608E-02  0.1870738E+00
         -2   -1    0    0    0  501 -0.00000000000E+00  0.00000000000E+00  0.11820262503E+03  0.11820262506E+03  0.25500000000E-02 0.  1.
          2   -1    0    0  501    0  0.00000000000E+00 -0.00000000000E+00 -0.47036406710E+00  0.47037097925E+00  0.25500000000E-02 0. -1.
         31    1    1    2    0    0 -0.30355673646E+00  0.18366783247E+00  0.57928851827E+02  0.58406649284E+02  0.74470750000E+01 0. -1.
        -31    1    1    2    0    0  0.30355673646E+00 -0.18366783247E+00  0.59803409141E+02  0.60266346757E+02  0.74470750000E+01 0.  1.
<mgrwt>
<rscale>  0 0.14912904E+02</rscale>
<asrwt>0</asrwt>
<pdfrwt beam="2">  1        2 0.99894074E+00 0.14912904E+02</pdfrwt>
<pdfrwt beam="1">  1       -2 0.98127136E+00 0.14912904E+02</pdfrwt>
<totfact> 0.36459399E-13</totfact>
</mgrwt>
</event>
<event>
 4    1 -0.5170493E-019  0.1499033E+02  0.7818608E-02  0.1868364E+00
         -2   -1    0    0    0  501 -0.00000000000E+00  0.00000000000E+00  0.11994462838E+03  0.11994462841E+03  0.25500000000E-02 0. -1.
          2   -1    0    0  501    0  0.00000000000E+00 -0.00000000000E+00 -0.46835838705E+00  0.46836532880E+00  0.25500000000E-02 0.  1.
         31    1    1    2    0    0  0.58194085521E+00  0.19161347371E+00  0.64443928432E+02  0.64875682722E+02  0.74470750000E+01 0. -1.
        -31    1    1    2    0    0 -0.58194085521E+00 -0.19161347371E+00  0.55032341560E+02  0.55537311012E+02  0.74470750000E+01 0.  1.
<mgrwt>
<rscale>  0 0.14990329E+02</rscale>
<asrwt>0</asrwt>
<pdfrwt beam="2">  1        2 0.99475505E+00 0.14990329E+02</pdfrwt>
<pdfrwt beam="1">  1       -2 0.99565888E+00 0.14990329E+02</pdfrwt>
<totfact>-0.11836303E-13</totfact>
</mgrwt>
</event>
<event>
 4    1  0.5170493E-019  0.1489972E+02  0.7818608E-02  0.1871144E+00
          2   -1    0    0  501    0  0.00000000000E+00  0.00000000000E+00  0.11970557731E+03  0.11970557733E+03  0.25500000000E-02 0.  1.
         -2   -1    0    0    0  501 -0.00000000000E+00 -0.00000000000E+00 -0.46363775175E+00  0.46364476417E+00  0.25500000000E-02 0. -1.
         31    1    1    2    0    0 -0.18979037948E+00 -0.66381990534E-01  0.59354123486E+02  0.59819823870E+02  0.74470750000E+01 0.  1.
        -31    1    1    2    0    0  0.18979037948E+00  0.66381990534E-01  0.59887816069E+02  0.60349398229E+02  0.74470750000E+01 0.  1.
<mgrwt>
<rscale>  0 0.14899725E+02</rscale>
<asrwt>0</asrwt>
<pdfrwt beam="1">  1        2 0.99364321E+00 0.14899725E+02</pdfrwt>
<pdfrwt beam="2">  1       -2 0.98475999E+00 0.14899725E+02</pdfrwt>
<totfact> 0.58356160E-13</totfact>
</mgrwt>
</event>
<event>
 4    1 -0.5170493E-019  0.1490208E+02  0.7818608E-02  0.1871071E+00
          2   -1    0    0  501    0  0.00000000000E+00  0.00000000000E+00  0.11844579790E+03  0.11844579793E+03  0.25500000000E-02 0.  1.
         -2   -1    0    0    0  501 -0.00000000000E+00 -0.00000000000E+00 -0.46871708510E+00  0.46872402153E+00  0.25500000000E-02 0. -1.
         31    1    1    2    0    0 -0.60654891934E-01  0.17087196204E-01  0.57115663445E+02  0.57599148499E+02  0.74470750000E+01 0. -1.
        -31    1    1    2    0    0  0.60654891934E-01 -0.17087196204E-01  0.60861417373E+02  0.61315373453E+02  0.74470750000E+01 0.  1.
<mgrwt>
<rscale>  0 0.14902078E+02</rscale>
<asrwt>0</asrwt>
<pdfrwt beam="1">  1        2 0.98326847E+00 0.14902078E+02</pdfrwt>
<pdfrwt beam="2">  1       -2 0.99546488E+00 0.14902078E+02</pdfrwt>
<totfact>-0.45410269E-13</totfact>
</mgrwt>
</event>
<event>
 4    1 -0.5170493E-019  0.1504049E+02  0.7818608E-02  0.1866835E+00
         -2   -1    0    0    0  501 -0.00000000000E+00  0.00000000000E+00  0.12028849504E+03  0.12028849507E+03  0.25500000000E-02 0.  1.
          2   -1    0    0  501    0  0.00000000000E+00 -0.00000000000E+00 -0.47015021101E+00  0.47015712630E+00  0.25500000000E-02 0. -1.
         31    1    1    2    0    0 -0.70038152644E+00  0.22126360220E+00  0.53924203984E+02  0.54440960620E+02  0.74470750000E+01 0. -1.
        -31    1    1    2    0    0  0.70038152644E+00 -0.22126360220E+00  0.65894140848E+02  0.66317691576E+02  0.74470750000E+01 0.  1.
<mgrwt>
<rscale>  0 0.15040489E+02</rscale>
<asrwt>0</asrwt>
<pdfrwt beam="2">  1        2 0.99855697E+00 0.15040489E+02</pdfrwt>
<pdfrwt beam="1">  1       -2 0.99851703E+00 0.15040489E+02</pdfrwt>
<totfact>-0.23259356E-14</totfact>
</mgrwt>
</event>
<event>
 4    1 -0.5170493E-019  0.1491387E+02  0.7818608E-02  0.1870708E+00
          2   -1    0    0  501    0  0.00000000000E+00  0.00000000000E+00  0.11849236086E+03  0.11849236089E+03  0.25500000000E-02 0.  1.
         -2   -1    0    0    0  501 -0.00000000000E+00 -0.00000000000E+00 -0.46927493646E+00  0.46928186465E+00  0.25500000000E-02 0. -1.
         31    1    1    2    0    0 -0.22745991611E+00  0.20129713239E+00  0.57145565725E+02  0.57629565907E+02  0.74470750000E+01 0. -1.
        -31    1    1    2    0    0  0.22745991611E+00 -0.20129713239E+00  0.60877520201E+02  0.61332076848E+02  0.74470750000E+01 0.  1.
<mgrwt>
<rscale>  0 0.14913874E+02</rscale>
<asrwt>0</asrwt>
<pdfrwt beam="1">  1        2 0.98365810E+00 0.14913874E+02</pdfrwt>
<pdfrwt beam="2">  1       -2 0.99664650E+00 0.14913874E+02</pdfrwt>
<totfact>-0.37176970E-13</totfact>
</mgrwt>
</event>
<event>
 4    1  0.5170493E-019  0.1494128E+02  0.7818608E-02  0.1869866E+00
         -2   -1    0    0    0  501 -0.00000000000E+00  0.00000000000E+00  0.11864999210E+03  0.11864999213E+03  0.25500000000E-02 0. -1.
          2   -1    0    0  501    0  0.00000000000E+00 -0.00000000000E+00 -0.47037518116E+00  0.47038209314E+00  0.25500000000E-02 0.  1.
         31    1    1    2    0    0  0.11518112576E+00  0.13725411795E+00  0.63595498968E+02  0.64030293772E+02  0.74470750000E+01 0. -1.
        -31    1    1    2    0    0 -0.11518112576E+00 -0.13725411795E+00  0.54584117949E+02  0.55090080448E+02  0.74470750000E+01 0.  1.
<mgrwt>
<rscale>  0 0.14941275E+02</rscale>
<asrwt>0</asrwt>
<pdfrwt beam="2">  1        2 0.99897918E+00 0.14941275E+02</pdfrwt>
<pdfrwt beam="1">  1       -2 0.98497060E+00 0.14941275E+02</pdfrwt>
<totfact> 0.15275215E-13</totfact>
</mgrwt>
</event>
<event>
 4    1 -0.5170493E-019  0.1493458E+02  0.7818608E-02  0.1870071E+00
          2   -1    0    0  501    0  0.00000000000E+00  0.00000000000E+00  0.11953189208E+03  0.11953189211E+03  0.25500000000E-02 0.  1.
         -2   -1    0    0    0  501 -0.00000000000E+00 -0.00000000000E+00 -0.46648660660E+00  0.46649357621E+00  0.25500000000E-02 0. -1.
         31    1    1    2    0    0 -0.15335504425E-01  0.52200329205E+00  0.60896225256E+02  0.61352114056E+02  0.74470750000E+01 0.  1.
        -31    1    1    2    0    0  0.15335504425E-01 -0.52200329205E+00  0.58169180217E+02  0.58646271627E+02  0.74470750000E+01 0. -1.
<mgrwt>
<rscale>  0 0.14934584E+02</rscale>
<asrwt>0</asrwt>
<pdfrwt beam="1">  1        2 0.99223061E+00 0.14934584E+02</pdfrwt>
<pdfrwt beam="2">  1       -2 0.99078175E+00 0.14934584E+02</pdfrwt>
<totfact>-0.39909158E-14</totfact>
</mgrwt>
</event>
<event>
 4    1 -0.5170493E-019  0.1492012E+02  0.7818608E-02  0.1870516E+00
         -2   -1    0    0    0  501 -0.00000000000E+00  0.00000000000E+00  0.11952990113E+03  0.11952990116E+03  0.25500000000E-02 0.  1.
          2   -1    0    0  501    0  0.00000000000E+00 -0.00000000000E+00 -0.46559137529E+00  0.46559835829E+00  0.25500000000E-02 0. -1.
         31    1    1    2    0    0  0.42398774092E+00  0.31899698927E-01  0.60442148437E+02  0.60900681580E+02  0.74470750000E+01 0. -1.
        -31    1    1    2    0    0 -0.42398774092E+00 -0.31899698927E-01  0.58622161321E+02  0.59094817939E+02  0.74470750000E+01 0. -1.
<mgrwt>
<rscale>  0 0.14920122E+02</rscale>
<asrwt>0</asrwt>
<pdfrwt beam="2">  1        2 0.98888769E+00 0.14920122E+02</pdfrwt>
<pdfrwt beam="1">  1       -2 0.99220675E+00 0.14920122E+02</pdfrwt>
<totfact>-0.14275332E-13</totfact>
</mgrwt>
</event>
<event>
 4    1 -0.5170493E-019  0.1495745E+02  0.7818608E-02  0.1869370E+00
          2   -1    0    0  501    0  0.00000000000E+00  0.00000000000E+00  0.11980683544E+03  0.11980683547E+03  0.25500000000E-02 0. -1.
         -2   -1    0    0    0  501 -0.00000000000E+00 -0.00000000000E+00 -0.46684257957E+00  0.46684954386E+00  0.25500000000E-02 0.  1.
         31    1    1    2    0    0  0.35400924079E+00  0.55873427257E+00  0.61172618835E+02  0.61627799958E+02  0.74470750000E+01 0. -1.
        -31    1    1    2    0    0 -0.35400924079E+00 -0.55873427257E+00  0.58167374028E+02  0.58645885055E+02  0.74470750000E+01 0. -1.
<mgrwt>
<rscale>  0 0.14957453E+02</rscale>
<asrwt>0</asrwt>
<pdfrwt beam="1">  1        2 0.99450698E+00 0.14957453E+02</pdfrwt>
<pdfrwt beam="2">  1       -2 0.99154370E+00 0.14957453E+02</pdfrwt>
<totfact>-0.66548926E-14</totfact>
</mgrwt>
</event>
<event>
 4    1  0.5170493E-019  0.1490420E+02  0.7818608E-02  0.1871006E+00
         -2   -1    0    0    0  501 -0.00000000000E+00  0.00000000000E+00  0.11811773862E+03  0.11811773865E+03  0.25500000000E-02 0. -1.
          2   -1    0    0  501    0  0.00000000000E+00 -0.00000000000E+00 -0.47015305851E+00  0.47015997376E+00  0.25500000000E-02 0.  1.
         31    1    1    2    0    0  0.90466052936E-01  0.12980652399E+00  0.57046979143E+02  0.57531224471E+02  0.74470750000E+01 0. -1.
        -31    1    1    2    0    0 -0.90466052936E-01 -0.12980652399E+00  0.60600606421E+02  0.61056674152E+02  0.74470750000E+01 0. -1.
<mgrwt>
<rscale>  0 0.14904204E+02</rscale>
<asrwt>0</asrwt>
<pdfrwt beam="2">  1        2 0.99849155E+00 0.14904204E+02</pdfrwt>
<pdfrwt beam="1">  1       -2 0.98056772E+00 0.14904204E+02</pdfrwt>
<totfact> 0.56111734E-13</totfact>
</mgrwt>
</event>
<event>
 4    1 -0.5170493E-019  0.1496684E+02  0.7818608E-02  0.1869082E+00
         -2   -1    0    0    0  501 -0.00000000000E+00  0.00000000000E+00  0.12006909922E+03  0.12006909924E+03  0.25500000000E-02 0.  1.
          2   -1    0    0  501    0  0.00000000000E+00 -0.00000000000E+00 -0.46640783376E+00  0.46641480453E+00  0.25500000000E-02 0. -1.
         31    1    1    2    0    0  0.22176696396E-02 -0.63439351502E+00  0.56785804849E+02  0.57275553411E+02  0.74470750000E+01 0. -1.
        -31    1    1    2    0    0 -0.22176696396E-02  0.63439351502E+00  0.62816886533E+02  0.63259960637E+02  0.74470750000E+01 0.  1.
<mgrwt>
<rscale>  0 0.14966842E+02</rscale>
<asrwt>0</asrwt>
<pdfrwt beam="2">  1        2 0.99063232E+00 0.14966842E+02</pdfrwt>
<pdfrwt beam="1">  1       -2 0.99667196E+00 0.14966842E+02</pdfrwt>
<totfact>-0.14401219E-13</totfact>
</mgrwt>
</event>
<event>
 4    1 -0.5170493E-019  0.1493779E+02  0.7818608E-02  0.1869973E+00
          2   -1    0    0  501    0  0.00000000000E+00  0.00000000000E+00  0.11870838087E+03  0.11870838089E+03  0.25500000000E-02 0. -1.
         -2   -1    0    0    0  501 -0.00000000000E+00 -0.00000000000E+00 -0.46992470797E+00  0.46993162658E+00  0.25500000000E-02 0.  1.
         31    1    1    2    0    0 -0.22903393819E+00 -0.48702319894E+00  0.57608798872E+02  0.58090638503E+02  0.74470750000E+01 0. -1.
        -31    1    1    2    0    0  0.22903393819E+00  0.48702319894E+00  0.60629657285E+02  0.61087674016E+02  0.74470750000E+01 0. -1.
<mgrwt>
<rscale>  0 0.14937793E+02</rscale>
<asrwt>0</asrwt>
<pdfrwt beam="1">  1        2 0.98544967E+00 0.14937793E+02</pdfrwt>
<pdfrwt beam="2">  1       -2 0.99802819E+00 0.14937793E+02</pdfrwt>
<totfact>-0.18975230E-13</totfact>
</mgrwt>
</event>
<event>
 4    1  0.5170493E-019  0.1490640E+02  0.7818608E-02  0.1870938E+00
          2   -1    0    0  501    0  0.00000000000E+00  0.00000000000E+00  0.12003169645E+03  0.12003169647E+03  0.25500000000E-02 0. -1.
         -2   -1    0    0    0  501 -0.00000000000E+00 -0.00000000000E+00 -0.46279256141E+00  0.46279958664E+00  0.25500000000E-02 0.  1.
         31    1    1    2    0    0 -0.18132562259E+00  0.24133197187E+00  0.59683822922E+02  0.60147392003E+02  0.74470750000E+01 0.  1.
        -31    1    1    2    0    0  0.18132562259E+00 -0.24133197187E+00  0.59885080962E+02  0.60347104056E+02  0.74470750000E+01 0.  1.
<mgrwt>
<rscale>  0 0.14906401E+02</rscale>
<asrwt>0</asrwt>
<pdfrwt beam="1">  1        2 0.99633280E+00 0.14906401E+02</pdfrwt>
<pdfrwt beam="2">  1       -2 0.98298204E+00 0.14906401E+02</pdfrwt>
<totfact> 0.67162063E-13</totfact>
</mgrwt>
</event>
<event>
 4    1 -0.5170493E-019  0.1492501E+02  0.7818608E-02  0.1870366E+00
         -2   -1    0    0    0  501 -0.00000000000E+00  0.00000000000E+00  0.11988987772E+03  0.11988987775E+03  0.25500000000E-02 0.  1.
          2   -1    0    0  501    0  0.00000000000E+00 -0.00000000000E+00 -0.46449747327E+00  0.46450447272E+00  0.25500000000E-02 0. -1.
         31    1    1    2    0    0 -0.33145679852E+00 -0.26885687781E+00  0.57947913236E+02  0.58426036337E+02  0.74470750000E+01 0. -1.
        -31    1    1    2    0    0  0.33145679852E+00  0.26885687781E+00  0.61477467011E+02  0.61928345882E+02  0.74470750000E+01 0.  1.
<mgrwt>
<rscale>  0 0.14925008E+02</rscale>
<asrwt>0</asrwt>
<pdfrwt beam="2">  1        2 0.98658480E+00 0.14925008E+02</pdfrwt>
<pdfrwt beam="1">  1       -2 0.99517424E+00 0.14925008E+02</pdfrwt>
<totfact>-0.26999326E-13</totfact>
</mgrwt>
</event>
<event>
 4    1  0.5170493E-019  0.1491050E+02  0.7818608E-02  0.1870812E+00
          2   -1    0    0  501    0  0.00000000000E+00  0.00000000000E+00  0.11961146354E+03  0.11961146356E+03  0.25500000000E-02 0. -1.
         -2   -1    0    0    0  501 -0.00000000000E+00 -0.00000000000E+00 -0.46467371364E+00  0.46468071043E+00  0.25500000000E-02 0.  1.
         31    1    1    2    0    0  0.15533470145E+00  0.30637714628E+00  0.60070004729E+02  0.60530838339E+02  0.74470750000E+01 0. -1.
        -31    1    1    2    0    0 -0.15533470145E+00 -0.30637714628E+00  0.59076785095E+02  0.59545305936E+02  0.74470750000E+01 0.  1.
<mgrwt>
<rscale>  0 0.14910496E+02</rscale>
<asrwt>0</asrwt>
<pdfrwt beam="1">  1        2 0.99287357E+00 0.14910496E+02</pdfrwt>
<pdfrwt beam="2">  1       -2 0.98694881E+00 0.14910496E+02</pdfrwt>
<totfact> 0.29911605E-13</totfact>
</mgrwt>
</event>
<event>
 4    1 -0.5170493E-019  0.1496613E+02  0.7818608E-02  0.1869104E+00
         -2   -1    0    0    0  501 -0.00000000000E+00  0.00000000000E+00  0.11962989828E+03  0.11962989831E+03  0.25500000000E-02 0. -1.
          2   -1    0    0  501    0  0.00000000000E+00 -0.00000000000E+00 -0.46807575775E+00  0.46808270369E+00  0.25500000000E-02 0.  1.
         31    1    1    2    0    0  0.72861863363E+00  0.47890977870E-01  0.60099064024E+02  0.60563104290E+02  0.74470750000E+01 0.  1.
        -31    1    1    2    0    0 -0.72861863363E+00 -0.47890977870E-01  0.59062758501E+02  0.59534876723E+02  0.74470750000E+01 0.  1.
<mgrwt>
<rscale>  0 0.14966132E+02</rscale>
<asrwt>0</asrwt>
<pdfrwt beam="2">  1        2 0.99414694E+00 0.14966132E+02</pdfrwt>
<pdfrwt beam="1">  1       -2 0.99305414E+00 0.14966132E+02</pdfrwt>
<totfact>-0.11304490E-13</totfact>
</mgrwt>
</event>
<event>
 4    1 -0.5170493E-019  0.1493308E+02  0.7818608E-02  0.1870117E+00
          2   -1    0    0  501    0  0.00000000000E+00  0.00000000000E+00  0.11883155762E+03  0.11883155765E+03  0.25500000000E-02 0.  1.
         -2   -1    0    0    0  501 -0.00000000000E+00 -0.00000000000E+00 -0.46914162171E+00  0.46914855187E+00  0.25500000000E-02 0. -1.
         31    1    1    2    0    0  0.28379824687E+00 -0.41251440012E+00  0.60771184410E+02  0.61227824477E+02  0.74470750000E+01 0.  1.
        -31    1    1    2    0    0 -0.28379824687E+00  0.41251440012E+00  0.57591231587E+02  0.58072881720E+02  0.74470750000E+01 0. -1.
<mgrwt>
<rscale>  0 0.14933083E+02</rscale>
<asrwt>0</asrwt>
<pdfrwt beam="1">  1        2 0.98646171E+00 0.14933083E+02</pdfrwt>
<pdfrwt beam="2">  1       -2 0.99637571E+00 0.14933083E+02</pdfrwt>
<totfact>-0.24742059E-13</totfact>
</mgrwt>
</event>
<event>
 4    1 -0.5170493E-019  0.1493290E+02  0.7818608E-02  0.1870123E+00
          2   -1    0    0  501    0  0.00000000000E+00  0.00000000000E+00  0.11857853551E+03  0.11857853554E+03  0.25500000000E-02 0. -1.
         -2   -1    0    0    0  501 -0.00000000000E+00 -0.00000000000E+00 -0.47013129699E+00  0.47013821256E+00  0.25500000000E-02 0.  1.
         31    1    1    2    0    0  0.18539308590E+00  0.88312348799E-01  0.63014714441E+02  0.63453568314E+02  0.74470750000E+01 0. -1.
        -31    1    1    2    0    0 -0.18539308590E+00 -0.88312348799E-01  0.55093689772E+02  0.55595105436E+02  0.74470750000E+01 0.  1.
<mgrwt>
<rscale>  0 0.14932902E+02</rscale>
<asrwt>0</asrwt>
<pdfrwt beam="1">  1        2 0.98437773E+00 0.14932902E+02</pdfrwt>
<pdfrwt beam="2">  1       -2 0.99846090E+00 0.14932902E+02</pdfrwt>
<totfact>-0.18356163E-13</totfact>
</mgrwt>
</event>
<event>
 4    1 -0.5170493E-019  0.1489678E+02  0.7818608E-02  0.1871235E+00
         -2   -1    0    0    0  501 -0.00000000000E+00  0.00000000000E+00  0.12004493709E+03  0.12004493711E+03  0.25500000000E-02 0.  1.
          2   -1    0    0  501    0  0.00000000000E+00 -0.00000000000E+00 -0.46214458710E+00  0.46215162219E+00  0.25500000000E-02 0. -1.
         31    1    1    2    0    0 -0.57021271087E-01  0.48564195411E-01  0.58833982851E+02  0.59303474384E+02  0.74470750000E+01 0. -1.
        -31    1    1    2    0    0  0.57021271087E-01 -0.48564195411E-01  0.60748809650E+02  0.61203614353E+02  0.74470750000E+01 0. -1.
<mgrwt>
<rscale>  0 0.14896784E+02</rscale>
<asrwt>0</asrwt>
<pdfrwt beam="2">  1        2 0.98161144E+00 0.14896784E+02</pdfrwt>
<pdfrwt beam="1">  1       -2 0.99643692E+00 0.14896784E+02</pdfrwt>
<totfact>-0.54324694E-13</totfact>
</mgrwt>
</event>
<event>
 4    1 -0.5170493E-019  0.1489552E+02  0.7818608E-02  0.1871274E+00
          2   -1    0    0  501    0  0.00000000000E+00  0.00000000000E+00  0.11887943036E+03  0.11887943038E+03  0.25500000000E-02 0.  1.
         -2   -1    0    0    0  501 -0.00000000000E+00 -0.00000000000E+00 -0.46659646132E+00  0.46660342928E+00  0.25500000000E-02 0. -1.
         31    1    1    2    0    0  0.99288606070E-01  0.17045262685E-01  0.59142251446E+02  0.59609353133E+02  0.74470750000E+01 0. -1.
        -31    1    1    2    0    0 -0.99288606070E-01 -0.17045262685E-01  0.59270582450E+02  0.59736680681E+02  0.74470750000E+01 0. -1.
<mgrwt>
<rscale>  0 0.14895521E+02</rscale>
<asrwt>0</asrwt>
<pdfrwt beam="1">  1        2 0.98683651E+00 0.14895521E+02</pdfrwt>
<pdfrwt beam="2">  1       -2 0.99099301E+00 0.14895521E+02</pdfrwt>
<totfact>-0.91067130E-14</totfact>
</mgrwt>
</event>
<event>
 4    1 -0.5170493E-019  0.1494291E+02  0.7818608E-02  0.1869816E+00
          2   -1    0    0  501    0  0.00000000000E+00  0.00000000000E+00  0.11883176889E+03  0.11883176892E+03  0.25500000000E-02 0. -1.
         -2   -1    0    0    0  501 -0.00000000000E+00 -0.00000000000E+00 -0.46975819731E+00  0.46976511837E+00  0.25500000000E-02 0.  1.
         31    1    1    2    0    0  0.11238044228E+00  0.50111102841E+00  0.61705009395E+02  0.62154894032E+02  0.74470750000E+01 0. -1.
        -31    1    1    2    0    0 -0.11238044228E+00 -0.50111102841E+00  0.56657001301E+02  0.57146640007E+02  0.74470750000E+01 0.  1.
<mgrwt>
<rscale>  0 0.14942906E+02</rscale>
<asrwt>0</asrwt>
<pdfrwt beam="1">  1        2 0.98646855E+00 0.14942906E+02</pdfrwt>
<pdfrwt beam="2">  1       -2 0.99768004E+00 0.14942906E+02</pdfrwt>
<totfact>-0.18428507E-13</totfact>
</mgrwt>
</event>
<event>
 4    1 -0.5170493E-019  0.1500660E+02  0.7818608E-02  0.1867867E+00
          2   -1    0    0  501    0  0.00000000000E+00  0.00000000000E+00  0.11987521024E+03  0.11987521027E+03  0.25500000000E-02 0. -1.
         -2   -1    0    0    0  501 -0.00000000000E+00 -0.00000000000E+00 -0.46964737561E+00  0.46965429831E+00  0.25500000000E-02 0.  1.
         31    1    1    2    0    0  0.47972052405E+00 -0.62719952116E+00  0.63439016687E+02  0.63879505910E+02  0.74470750000E+01 0. -1.
        -31    1    1    2    0    0 -0.47972052405E+00  0.62719952116E+00  0.55966546179E+02  0.56465358657E+02  0.74470750000E+01 0.  1.
<mgrwt>
<rscale>  0 0.15006598E+02</rscale>
<asrwt>0</asrwt>
<pdfrwt beam="1">  1        2 0.99509554E+00 0.15006598E+02</pdfrwt>
<pdfrwt beam="2">  1       -2 0.99747978E+00 0.15006598E+02</pdfrwt>
<totfact>-0.83887008E-14</totfact>
</mgrwt>
</event>
<event>
 4    1  0.5170493E-019  0.1494907E+02  0.7818608E-02  0.1869627E+00
         -2   -1    0    0    0  501 -0.00000000000E+00  0.00000000000E+00  0.11913361397E+03  0.11913361400E+03  0.25500000000E-02 0. -1.
          2   -1    0    0  501    0  0.00000000000E+00 -0.00000000000E+00 -0.46895438307E+00  0.46896131600E+00  0.25500000000E-02 0.  1.
         31    1    1    2    0    0 -0.42772793238E+00  0.27721450476E+00  0.62430166292E+02  0.62874831120E+02  0.74470750000E+01 0. -1.
        -31    1    1    2    0    0  0.42772793238E+00 -0.27721450476E+00  0.56234493294E+02  0.56727744192E+02  0.74470750000E+01 0.  1.
<mgrwt>
<rscale>  0 0.14949066E+02</rscale>
<asrwt>0</asrwt>
<pdfrwt beam="2">  1        2 0.99598954E+00 0.14949066E+02</pdfrwt>
<pdfrwt beam="1">  1       -2 0.98895777E+00 0.14949066E+02</pdfrwt>
<totfact> 0.66893865E-14</totfact>
</mgrwt>
</event>
<event>
 4    1  0.5170493E-019  0.1493206E+02  0.7818608E-02  0.1870149E+00
          2   -1    0    0  501    0  0.00000000000E+00  0.00000000000E+00  0.11993870830E+03  0.11993870833E+03  0.25500000000E-02 0.  1.
         -2   -1    0    0    0  501 -0.00000000000E+00 -0.00000000000E+00 -0.46474719344E+00  0.46475418913E+00  0.25500000000E-02 0. -1.
         31    1    1    2    0    0  0.39017000562E+00  0.18349616727E+00  0.57228604792E+02  0.57712719880E+02  0.74470750000E+01 0.  1.
        -31    1    1    2    0    0 -0.39017000562E+00 -0.18349616727E+00  0.62245356316E+02  0.62690742638E+02  0.74470750000E+01 0.  1.
<mgrwt>
<rscale>  0 0.14932060E+02</rscale>
<asrwt>0</asrwt>
<pdfrwt beam="1">  1        2 0.99558007E+00 0.14932060E+02</pdfrwt>
<pdfrwt beam="2">  1       -2 0.98711470E+00 0.14932060E+02</pdfrwt>
<totfact> 0.21920739E-13</totfact>
</mgrwt>
</event>
<event>
 4    1 -0.5170493E-019  0.1501116E+02  0.7818608E-02  0.1867728E+00
         -2   -1    0    0    0  501 -0.00000000000E+00  0.00000000000E+00  0.11999458488E+03  0.11999458491E+03  0.25500000000E-02 0. -1.
          2   -1    0    0  501    0  0.00000000000E+00 -0.00000000000E+00 -0.46946566590E+00  0.46947259128E+00  0.25500000000E-02 0.  1.
         31    1    1    2    0    0 -0.91722687295E+00  0.13013157372E+00  0.58728894363E+02  0.59206420248E+02  0.74470750000E+01 0.  1.
        -31    1    1    2    0    0  0.91722687295E+00 -0.13013157372E+00  0.60796224851E+02  0.61257637251E+02  0.74470750000E+01 0. -1.
<mgrwt>
<rscale>  0 0.15011163E+02</rscale>
<asrwt>0</asrwt>
<pdfrwt beam="2">  1        2 0.99709923E+00 0.15011163E+02</pdfrwt>
<pdfrwt beam="1">  1       -2 0.99608111E+00 0.15011163E+02</pdfrwt>
<totfact>-0.80050438E-14</totfact>
</mgrwt>
</event>
<event>
 4    1  0.5170493E-019  0.1493813E+02  0.7818608E-02  0.1869962E+00
         -2   -1    0    0    0  501 -0.00000000000E+00  0.00000000000E+00  0.11888479647E+03  0.11888479650E+03  0.25500000000E-02 0.  1.
          2   -1    0    0  501    0  0.00000000000E+00 -0.00000000000E+00 -0.46924830667E+00  0.46925523526E+00  0.25500000000E-02 0. -1.
         31    1    1    2    0    0  0.53970951554E-01  0.48647707094E+00  0.56832131337E+02  0.57320063252E+02  0.74470750000E+01 0.  1.
        -31    1    1    2    0    0 -0.53970951554E-01 -0.48647707094E+00  0.61583416828E+02  0.62033988483E+02  0.74470750000E+01 0. -1.
<mgrwt>
<rscale>  0 0.14938126E+02</rscale>
<asrwt>0</asrwt>
<pdfrwt beam="2">  1        2 0.99660315E+00 0.14938126E+02</pdfrwt>
<pdfrwt beam="1">  1       -2 0.98690281E+00 0.14938126E+02</pdfrwt>
<totfact> 0.20486841E-13</totfact>
</mgrwt>
</event>
<event>
 4    1  0.5170493E-019  0.1494751E+02  0.7818608E-02  0.1869675E+00
         -2   -1    0    0    0  501 -0.00000000000E+00  0.00000000000E+00  0.11892290995E+03  0.11892290998E+03  0.25500000000E-02 0. -1.
          2   -1    0    0  501    0  0.00000000000E+00 -0.00000000000E+00 -0.46968716427E+00  0.46969408638E+00  0.25500000000E-02 0.  1.
         31    1    1    2    0    0  0.52830852525E+00  0.28031944388E+00  0.57621862175E+02  0.58104178985E+02  0.74470750000E+01 0.  1.
        -31    1    1    2    0    0 -0.52830852525E+00 -0.28031944388E+00  0.60831360611E+02  0.61288425079E+02  0.74470750000E+01 0.  1.
<mgrwt>
<rscale>  0 0.14947505E+02</rscale>
<asrwt>0</asrwt>
<pdfrwt beam="2">  1        2 0.99753278E+00 0.14947505E+02</pdfrwt>
<pdfrwt beam="1">  1       -2 0.98722159E+00 0.14947505E+02</pdfrwt>
<totfact> 0.14379756E-13</totfact>
</mgrwt>
</event>
<event>
 4    1 -0.5170493E-019  0.1490992E+02  0.7818608E-02  0.1870830E+00
         -2   -1    0    0    0  501 -0.00000000000E+00  0.00000000000E+00  0.12031126627E+03  0.12031126630E+03  0.25500000000E-02 0. -1.
          2   -1    0    0  501    0  0.00000000000E+00 -0.00000000000E+00 -0.46193508177E+00  0.46194212004E+00  0.25500000000E-02 0.  1.
         31    1    1    2    0    0 -0.12266824464E+00  0.24066622845E+00  0.58215400586E+02  0.58690414543E+02  0.74470750000E+01 0.  1.
        -31    1    1    2    0    0  0.12266824464E+00 -0.24066622845E+00  0.61633930604E+02  0.62082793876E+02  0.74470750000E+01 0. -1.
<mgrwt>
<rscale>  0 0.14909919E+02</rscale>
<asrwt>0</asrwt>
<pdfrwt beam="2">  1        2 0.98117649E+00 0.14909919E+02</pdfrwt>
<pdfrwt beam="1">  1       -2 0.99863739E+00 0.14909919E+02</pdfrwt>
<totfact>-0.28285457E-13</totfact>
</mgrwt>
</event>
<event>
 4    1  0.5170493E-019  0.1492195E+02  0.7818608E-02  0.1870459E+00
          2   -1    0    0  501    0  0.00000000000E+00  0.00000000000E+00  0.12029174780E+03  0.12029174783E+03  0.25500000000E-02 0. -1.
         -2   -1    0    0    0  501 -0.00000000000E+00 -0.00000000000E+00 -0.46275620316E+00  0.46276322894E+00  0.25500000000E-02 0.  1.
         31    1    1    2    0    0  0.58872242923E-01  0.45141055596E+00  0.59945657173E+02  0.60408178067E+02  0.74470750000E+01 0. -1.
        -31    1    1    2    0    0 -0.58872242923E-01 -0.45141055596E+00  0.59883334428E+02  0.60346332993E+02  0.74470750000E+01 0. -1.
<mgrwt>
<rscale>  0 0.14921954E+02</rscale>
<asrwt>0</asrwt>
<pdfrwt beam="1">  1        2 0.99848279E+00 0.14921954E+02</pdfrwt>
<pdfrwt beam="2">  1       -2 0.98291327E+00 0.14921954E+02</pdfrwt>
<totfact> 0.35673833E-13</totfact>
</mgrwt>
</event>
<event>
 4    1 -0.5170493E-019  0.1495528E+02  0.7818608E-02  0.1869436E+00
          2   -1    0    0  501    0  0.00000000000E+00  0.00000000000E+00  0.11974276998E+03  0.11974277000E+03  0.25500000000E-02 0. -1.
         -2   -1    0    0    0  501 -0.00000000000E+00 -0.00000000000E+00 -0.46695690373E+00  0.46696386631E+00  0.25500000000E-02 0.  1.
         31    1    1    2    0    0  0.55339343117E+00 -0.18200313393E+00  0.56890413906E+02  0.57378719834E+02  0.74470750000E+01 0.  1.
        -31    1    1    2    0    0 -0.55339343117E+00  0.18200313393E+00  0.62385399166E+02  0.62831014035E+02  0.74470750000E+01 0. -1.
<mgrwt>
<rscale>  0 0.14955284E+02</rscale>
<asrwt>0</asrwt>
<pdfrwt beam="1">  1        2 0.99397819E+00 0.14955284E+02</pdfrwt>
<pdfrwt beam="2">  1       -2 0.99178352E+00 0.14955284E+02</pdfrwt>
<totfact>-0.78796440E-14</totfact>
</mgrwt>
</event>
<event>
 4    1  0.5170493E-019  0.1491288E+02  0.7818608E-02  0.1870739E+00
         -2   -1    0    0    0  501 -0.00000000000E+00  0.00000000000E+00  0.11821599341E+03  0.11821599344E+03  0.25500000000E-02 0.  1.
          2   -1    0    0  501    0  0.00000000000E+00 -0.00000000000E+00 -0.47030955282E+00  0.47031646577E+00  0.25500000000E-02 0. -1.
         31    1    1    2    0    0  0.48716221780E-01  0.20986942899E+00  0.61302228044E+02  0.61753287424E+02  0.74470750000E+01 0.  1.
        -31    1    1    2    0    0 -0.48716221780E-01 -0.20986942899E+00  0.56443455817E+02  0.56933022483E+02  0.74470750000E+01 0. -1.
<mgrwt>
<rscale>  0 0.14912883E+02</rscale>
<asrwt>0</asrwt>
<pdfrwt beam="2">  1        2 0.99882587E+00 0.14912883E+02</pdfrwt>
<pdfrwt beam="1">  1       -2 0.98138145E+00 0.14912883E+02</pdfrwt>
<totfact> 0.39087109E-13</totfact>
</mgrwt>
</event>
<event>
 4    1 -0.5170493E-019  0.1496033E+02  0.7818608E-02  0.1869281E+00
         -2   -1    0    0    0  501 -0.00000000000E+00  0.00000000000E+00  0.12016871411E+03  0.12016871413E+03  0.25500000000E-02 0. -1.
          2   -1    0    0  501    0  0.00000000000E+00 -0.00000000000E+00 -0.46561588012E+00  0.46562286275E+00  0.25500000000E-02 0.  1.
         31    1    1    2    0    0 -0.38587345530E+00 -0.35093543161E+00  0.63650053168E+02  0.64086349938E+02  0.74470750000E+01 0.  1.
        -31    1    1    2    0    0  0.38587345530E+00  0.35093543161E+00  0.56053045058E+02  0.56547987058E+02  0.74470750000E+01 0.  1.
<mgrwt>
<rscale>  0 0.14960332E+02</rscale>
<asrwt>0</asrwt>
<pdfrwt beam="2">  1        2 0.98895993E+00 0.14960332E+02</pdfrwt>
<pdfrwt beam="1">  1       -2 0.99748910E+00 0.14960332E+02</pdfrwt>
<totfact>-0.14086723E-13</totfact>
</mgrwt>
</event>
<event>
 4    1  0.5170493E-019  0.1493869E+02  0.7818608E-02  0.1869945E+00
          2   -1    0    0  501    0  0.00000000000E+00  0.00000000000E+00  0.12015702642E+03  0.12015702645E+03  0.25500000000E-02 0.  1.
         -2   -1    0    0    0  501 -0.00000000000E+00 -0.00000000000E+00 -0.46431480127E+00  0.46432180347E+00  0.25500000000E-02 0. -1.
         31    1    1    2    0    0 -0.35364880584E+00  0.43467096792E+00  0.58757732675E+02  0.59230432056E+02  0.74470750000E+01 0. -1.
        -31    1    1    2    0    0  0.35364880584E+00 -0.43467096792E+00  0.60934978945E+02  0.61390916197E+02  0.74470750000E+01 0.  1.
<mgrwt>
<rscale>  0 0.14938689E+02</rscale>
<asrwt>0</asrwt>
<pdfrwt beam="1">  1        2 0.99738170E+00 0.14938689E+02</pdfrwt>
<pdfrwt beam="2">  1       -2 0.98620677E+00 0.14938689E+02</pdfrwt>
<totfact> 0.22323295E-13</totfact>
</mgrwt>
</event>
<event>
 4    1 -0.5170493E-019  0.1499712E+02  0.7818608E-02  0.1868156E+00
          2   -1    0    0  501    0  0.00000000000E+00  0.00000000000E+00  0.11951387366E+03  0.11951387369E+03  0.25500000000E-02 0. -1.
         -2   -1    0    0    0  501 -0.00000000000E+00 -0.00000000000E+00 -0.47047244130E+00  0.47047935186E+00  0.25500000000E-02 0.  1.
         31    1    1    2    0    0  0.19297494217E+00 -0.83196131717E+00  0.57920100478E+02  0.58403136597E+02  0.74470750000E+01 0. -1.
        -31    1    1    2    0    0 -0.19297494217E+00  0.83196131717E+00  0.61123300745E+02  0.61581216446E+02  0.74470750000E+01 0.  1.
<mgrwt>
<rscale>  0 0.14997120E+02</rscale>
<asrwt>0</asrwt>
<pdfrwt beam="1">  1        2 0.99211458E+00 0.14997120E+02</pdfrwt>
<pdfrwt beam="2">  1       -2 0.99921345E+00 0.14997120E+02</pdfrwt>
<totfact>-0.39071501E-14</totfact>
</mgrwt>
</event>
<event>
 4    1 -0.5170493E-019  0.1499764E+02  0.7818608E-02  0.1868140E+00
          2   -1    0    0  501    0  0.00000000000E+00  0.00000000000E+00  0.11958797615E+03  0.11958797618E+03  0.25500000000E-02 0. -1.
         -2   -1    0    0    0  501 -0.00000000000E+00 -0.00000000000E+00 -0.47021379303E+00  0.47022070739E+00  0.25500000000E-02 0.  1.
         31    1    1    2    0    0  0.17066072474E+00  0.72905170549E+00  0.55866394812E+02  0.56365535895E+02  0.74470750000E+01 0.  1.
        -31    1    1    2    0    0 -0.17066072474E+00 -0.72905170549E+00  0.63251367549E+02  0.63692660993E+02  0.74470750000E+01 0.  1.
<mgrwt>
<rscale>  0 0.14997644E+02</rscale>
<asrwt>0</asrwt>
<pdfrwt beam="1">  1        2 0.99272517E+00 0.14997644E+02</pdfrwt>
<pdfrwt beam="2">  1       -2 0.99866870E+00 0.14997644E+02</pdfrwt>
<totfact>-0.60480870E-14</totfact>
</mgrwt>
</event>
<event>
 4    1 -0.5170493E-019  0.1492185E+02  0.7818608E-02  0.1870463E+00
         -2   -1    0    0    0  501 -0.00000000000E+00  0.00000000000E+00  0.12026261157E+03  0.12026261160E+03  0.25500000000E-02 0. -1.
          2   -1    0    0  501    0  0.00000000000E+00 -0.00000000000E+00 -0.46286186713E+00  0.46286889131E+00  0.25500000000E-02 0.  1.
         31    1    1    2    0    0 -0.22008885048E-01 -0.25553654240E+00  0.56865195445E+02  0.57351330955E+02  0.74470750000E+01 0.  1.
        -31    1    1    2    0    0  0.22008885048E-01  0.25553654240E+00  0.62934554258E+02  0.63374149533E+02  0.74470750000E+01 0. -1.
<mgrwt>
<rscale>  0 0.14921850E+02</rscale>
<asrwt>0</asrwt>
<pdfrwt beam="2">  1        2 0.98313593E+00 0.14921850E+02</pdfrwt>
<pdfrwt beam="1">  1       -2 0.99824274E+00 0.14921850E+02</pdfrwt>
<totfact>-0.25290052E-13</totfact>
</mgrwt>
</event>
<event>
 4    1 -0.5170493E-019  0.1494808E+02  0.7818608E-02  0.1869657E+00
          2   -1    0    0  501    0  0.00000000000E+00  0.00000000000E+00  0.11883736205E+03  0.11883736208E+03  0.25500000000E-02 0.  1.
         -2   -1    0    0    0  501 -0.00000000000E+00 -0.00000000000E+00 -0.47006160826E+00  0.47006852486E+00  0.25500000000E-02 0. -1.
         31    1    1    2    0    0  0.48190229764E+00  0.11106799944E+00  0.56013055761E+02  0.56508104796E+02  0.74470750000E+01 0. -1.
        -31    1    1    2    0    0 -0.48190229764E+00 -0.11106799944E+00  0.62354244684E+02  0.62799325809E+02  0.74470750000E+01 0. -1.
<mgrwt>
<rscale>  0 0.14948083E+02</rscale>
<asrwt>0</asrwt>
<pdfrwt beam="1">  1        2 0.98651731E+00 0.14948083E+02</pdfrwt>
<pdfrwt beam="2">  1       -2 0.99832206E+00 0.14948083E+02</pdfrwt>
<totfact>-0.14090053E-13</totfact>
</mgrwt>
</event>
<event>
 4    1 -0.5170493E-019  0.1502613E+02  0.7818608E-02  0.1867272E+00
          2   -1    0    0  501    0  0.00000000000E+00  0.00000000000E+00  0.12012809293E+03  0.12012809296E+03  0.25500000000E-02 0.  1.
         -2   -1    0    0    0  501 -0.00000000000E+00 -0.00000000000E+00 -0.46987922122E+00  0.46988614050E+00  0.25500000000E-02 0. -1.
         31    1    1    2    0    0 -0.63497474678E+00 -0.73017711758E+00  0.58019523001E+02  0.58503506962E+02  0.74470750000E+01 0. -1.
        -31    1    1    2    0    0  0.63497474678E+00  0.73017711758E+00  0.61638690711E+02  0.62094472139E+02  0.74470750000E+01 0. -1.
<mgrwt>
<rscale>  0 0.15026126E+02</rscale>
<asrwt>0</asrwt>
<pdfrwt beam="1">  1        2 0.99718847E+00 0.15026126E+02</pdfrwt>
<pdfrwt beam="2">  1       -2 0.99797847E+00 0.15026126E+02</pdfrwt>
<totfact>-0.50512908E-14</totfact>
</mgrwt>
</event>
<event>
 4    1  0.5170493E-019  0.1490842E+02  0.7818608E-02  0.1870876E+00
         -2   -1    0    0    0  501 -0.00000000000E+00  0.00000000000E+00  0.11859595753E+03  0.11859595755E+03  0.25500000000E-02 0.  1.
          2   -1    0    0  501    0  0.00000000000E+00 -0.00000000000E+00 -0.46852216805E+00  0.46852910737E+00  0.25500000000E-02 0. -1.
         31    1    1    2    0    0 -0.35838906940E-01 -0.27377174645E+00  0.60449038679E+02  0.60906661694E+02  0.74470750000E+01 0.  1.
        -31    1    1    2    0    0  0.35838906940E-01  0.27377174645E+00  0.57678396680E+02  0.58157824968E+02  0.74470750000E+01 0. -1.
<mgrwt>
<rscale>  0 0.14908420E+02</rscale>
<asrwt>0</asrwt>
<pdfrwt beam="2">  1        2 0.99505752E+00 0.14908420E+02</pdfrwt>
<pdfrwt beam="1">  1       -2 0.98450848E+00 0.14908420E+02</pdfrwt>
<totfact> 0.55107856E-13</totfact>
</mgrwt>
</event>
<event>
 4    1 -0.5170493E-019  0.1498301E+02  0.7818608E-02  0.1868588E+00
         -2   -1    0    0    0  501 -0.00000000000E+00  0.00000000000E+00  0.12039457103E+03  0.12039457105E+03  0.25500000000E-02 0. -1.
          2   -1    0    0  501    0  0.00000000000E+00 -0.00000000000E+00 -0.46615214188E+00  0.46615911648E+00  0.25500000000E-02 0.  1.
         31    1    1    2    0    0  0.66950846112E+00 -0.42603219057E+00  0.58478146870E+02  0.58955765896E+02  0.74470750000E+01 0.  1.
        -31    1    1    2    0    0 -0.66950846112E+00  0.42603219057E+00  0.61450272014E+02  0.61904964273E+02  0.74470750000E+01 0. -1.
<mgrwt>
<rscale>  0 0.14983005E+02</rscale>
<asrwt>0</asrwt>
<pdfrwt beam="2">  1        2 0.99010170E+00 0.14983005E+02</pdfrwt>
<pdfrwt beam="1">  1       -2 0.99936108E+00 0.14983005E+02</pdfrwt>
<totfact>-0.37827315E-14</totfact>
</mgrwt>
</event>
<event>
 4    1 -0.5170493E-019  0.1495974E+02  0.7818608E-02  0.1869299E+00
         -2   -1    0    0    0  501 -0.00000000000E+00  0.00000000000E+00  0.11986237260E+03  0.11986237262E+03  0.25500000000E-02 0. -1.
          2   -1    0    0  501    0  0.00000000000E+00 -0.00000000000E+00 -0.46676921929E+00  0.46677618467E+00  0.25500000000E-02 0.  1.
         31    1    1    2    0    0  0.61288200463E+00 -0.33586578427E+00  0.59968254200E+02  0.60432928673E+02  0.74470750000E+01 0.  1.
        -31    1    1    2    0    0 -0.61288200463E+00  0.33586578427E+00  0.59427349177E+02  0.59896220135E+02  0.74470750000E+01 0.  1.
<mgrwt>
<rscale>  0 0.14959744E+02</rscale>
<asrwt>0</asrwt>
<pdfrwt beam="2">  1        2 0.99139028E+00 0.14959744E+02</pdfrwt>
<pdfrwt beam="1">  1       -2 0.99496559E+00 0.14959744E+02</pdfrwt>
<totfact>-0.15855483E-13</totfact>
</mgrwt>
</event>
<event>
 4    1 -0.5170493E-019  0.1492307E+02  0.7818608E-02  0.1870425E+00
         -2   -1    0    0    0  501 -0.00000000000E+00  0.00000000000E+00  0.11956381242E+03  0.11956381245E+03  0.25500000000E-02 0.  1.
          2   -1    0    0  501    0  0.00000000000E+00 -0.00000000000E+00 -0.46564321511E+00  0.46565019733E+00  0.25500000000E-02 0. -1.
         31    1    1    2    0    0 -0.10082276653E+00  0.22922934461E+00  0.62693779419E+02  0.63135026849E+02  0.74470750000E+01 0.  1.
        -31    1    1    2    0    0  0.10082276653E+00 -0.22922934461E+00  0.56404389785E+02  0.56894435795E+02  0.74470750000E+01 0. -1.
<mgrwt>
<rscale>  0 0.14923069E+02</rscale>
<asrwt>0</asrwt>
<pdfrwt beam="2">  1        2 0.98899845E+00 0.14923069E+02</pdfrwt>
<pdfrwt beam="1">  1       -2 0.99248758E+00 0.14923069E+02</pdfrwt>
<totfact>-0.15333993E-13</totfact>
</mgrwt>
</event>
<event>
 4    1 -0.5170493E-019  0.1497580E+02  0.7818608E-02  0.1868808E+00
          2   -1    0    0  501    0  0.00000000000E+00  0.00000000000E+00  0.11936936979E+03  0.11936936982E+03  0.25500000000E-02 0.  1.
         -2   -1    0    0    0  501 -0.00000000000E+00 -0.00000000000E+00 -0.46970394395E+00  0.46971086581E+00  0.25500000000E-02 0. -1.
         31    1    1    2    0    0 -0.17267427856E+00  0.60424197109E+00  0.63158818173E+02  0.63599450971E+02  0.74470750000E+01 0.  1.
        -31    1    1    2    0    0  0.17267427856E+00 -0.60424197109E+00  0.55740847674E+02  0.56239629713E+02  0.74470750000E+01 0.  1.
<mgrwt>
<rscale>  0 0.14975805E+02</rscale>
<asrwt>0</asrwt>
<pdfrwt beam="1">  1        2 0.99091337E+00 0.14975805E+02</pdfrwt>
<pdfrwt beam="2">  1       -2 0.99758296E+00 0.14975805E+02</pdfrwt>
<totfact>-0.11338189E-13</totfact>
</mgrwt>
</event>
<event>
 4    1 -0.5170493E-019  0.1498212E+02  0.7818608E-02  0.1868615E+00
         -2   -1    0    0    0  501 -0.00000000000E+00  0.00000000000E+00  0.11998215450E+03  0.11998215452E+03  0.25500000000E-02 0. -1.
          2   -1    0    0  501    0  0.00000000000E+00 -0.00000000000E+00 -0.46769910798E+00  0.46770605952E+00  0.25500000000E-02 0.  1.
         31    1    1    2    0    0  0.27283168946E+00  0.73492118862E+00  0.61414522798E+02  0.61869354957E+02  0.74470750000E+01 0. -1.
        -31    1    1    2    0    0 -0.27283168946E+00 -0.73492118862E+00  0.58099932590E+02  0.58580505625E+02  0.74470750000E+01 0.  1.
<mgrwt>
<rscale>  0 0.14982118E+02</rscale>
<asrwt>0</asrwt>
<pdfrwt beam="2">  1        2 0.99336146E+00 0.14982118E+02</pdfrwt>
<pdfrwt beam="1">  1       -2 0.99596372E+00 0.14982118E+02</pdfrwt>
<totfact>-0.12925222E-13</totfact>
</mgrwt>
</event>
<event>
 4    1 -0.5170493E-019  0.1502114E+02  0.7818608E-02  0.1867424E+00
         -2   -1    0    0    0  501 -0.00000000000E+00  0.00000000000E+00  0.12026985835E+03  0.12026985837E+03  0.25500000000E-02 0.  1.
          2   -1    0    0  501    0  0.00000000000E+00 -0.00000000000E+00 -0.46901365458E+00  0.46902058662E+00  0.25500000000E-02 0. -1.
         31    1    1    2    0    0  0.33074637194E+00  0.20799303655E+00  0.67076480767E+02  0.67489746276E+02  0.74470750000E+01 0.  1.
        -31    1    1    2    0    0 -0.33074637194E+00 -0.20799303655E+00  0.52724363926E+02  0.53249132685E+02  0.74470750000E+01 0. -1.
<mgrwt>
<rscale>  0 0.15021135E+02</rscale>
<asrwt>0</asrwt>
<pdfrwt beam="2">  1        2 0.99615183E+00 0.15021135E+02</pdfrwt>
<pdfrwt beam="1">  1       -2 0.99835353E+00 0.15021135E+02</pdfrwt>
<totfact>-0.52219506E-14</totfact>
</mgrwt>
</event>
<event>
 4    1 -0.5170493E-019  0.1497378E+02  0.7818608E-02  0.1868870E+00
          2   -1    0    0  501    0  0.00000000000E+00  0.00000000000E+00  0.11925910103E+03  0.11925910106E+03  0.25500000000E-02 0.  1.
         -2   -1    0    0    0  501 -0.00000000000E+00 -0.00000000000E+00 -0.47001107654E+00  0.47001799388E+00  0.25500000000E-02 0. -1.
         31    1    1    2    0    0 -0.25987387551E+00 -0.37716098986E+00  0.54434475468E+02  0.54943433005E+02  0.74470750000E+01 0. -1.
        -31    1    1    2    0    0  0.25987387551E+00  0.37716098986E+00  0.64354614488E+02  0.64785686049E+02  0.74470750000E+01 0.  1.
<mgrwt>
<rscale>  0 0.14973779E+02</rscale>
<asrwt>0</asrwt>
<pdfrwt beam="1">  1        2 0.99000413E+00 0.14973779E+02</pdfrwt>
<pdfrwt beam="2">  1       -2 0.99822908E+00 0.14973779E+02</pdfrwt>
<totfact>-0.96040725E-14</totfact>
</mgrwt>
</event>
<event>
 4    1 -0.5170493E-019  0.1496670E+02  0.7818608E-02  0.1869086E+00
          2   -1    0    0  501    0  0.00000000000E+00  0.00000000000E+00  0.11933424834E+03  0.11933424837E+03  0.25500000000E-02 0. -1.
         -2   -1    0    0    0  501 -0.00000000000E+00 -0.00000000000E+00 -0.46927082114E+00  0.46927774939E+00  0.25500000000E-02 0.  1.
         31    1    1    2    0    0  0.29160434645E+00 -0.28586496166E+00  0.64333150319E+02  0.64764032518E+02  0.74470750000E+01 0. -1.
        -31    1    1    2    0    0 -0.29160434645E+00  0.28586496166E+00  0.54531827203E+02  0.55039493602E+02  0.74470750000E+01 0.  1.
<mgrwt>
<rscale>  0 0.14966696E+02</rscale>
<asrwt>0</asrwt>
<pdfrwt beam="1">  1        2 0.99061938E+00 0.14966696E+02</pdfrwt>
<pdfrwt beam="2">  1       -2 0.99666554E+00 0.14966696E+02</pdfrwt>
<totfact>-0.14433596E-13</totfact>
</mgrwt>
</event>
<event>
 4    1  0.5170493E-019  0.1494541E+02  0.7818608E-02  0.1869739E+00
         -2   -1    0    0    0  501 -0.00000000000E+00  0.00000000000E+00  0.11885514185E+03  0.11885514188E+03  0.25500000000E-02 0.  1.
          2   -1    0    0  501    0  0.00000000000E+00 -0.00000000000E+00 -0.46982327109E+00  0.46983019119E+00  0.25500000000E-02 0. -1.
         31    1    1    2    0    0 -0.50441883448E+00 -0.14420063106E+00  0.56578959944E+02  0.57069368900E+02  0.74470750000E+01 0.  1.
        -31    1    1    2    0    0  0.50441883448E+00  0.14420063106E+00  0.61806358633E+02  0.62255603167E+02  0.74470750000E+01 0.  1.
<mgrwt>
<rscale>  0 0.14945411E+02</rscale>
<asrwt>0</asrwt>
<pdfrwt beam="2">  1        2 0.99781847E+00 0.14945411E+02</pdfrwt>
<pdfrwt beam="1">  1       -2 0.98666236E+00 0.14945411E+02</pdfrwt>
<totfact> 0.16519610E-13</totfact>
</mgrwt>
</event>
<event>
 4    1  0.5170493E-019  0.1491067E+02  0.7818608E-02  0.1870807E+00
         -2   -1    0    0    0  501 -0.00000000000E+00  0.00000000000E+00  0.11865102927E+03  0.11865102930E+03  0.25500000000E-02 0.  1.
          2   -1    0    0  501    0  0.00000000000E+00 -0.00000000000E+00 -0.46844585189E+00  0.46845279234E+00  0.25500000000E-02 0. -1.
         31    1    1    2    0    0  0.14380242275E+00  0.28720967509E+00  0.57964239917E+02  0.58441553742E+02  0.74470750000E+01 0.  1.
        -31    1    1    2    0    0 -0.14380242275E+00 -0.28720967509E+00  0.60218343500E+02  0.60677928347E+02  0.74470750000E+01 0. -1.
<mgrwt>
<rscale>  0 0.14910667E+02</rscale>
<asrwt>0</asrwt>
<pdfrwt beam="2">  1        2 0.99489789E+00 0.14910667E+02</pdfrwt>
<pdfrwt beam="1">  1       -2 0.98496322E+00 0.14910667E+02</pdfrwt>
<totfact> 0.49496887E-13</totfact>
</mgrwt>
</event>
<event>
 4    1 -0.5170493E-019  0.1491079E+02  0.7818608E-02  0.1870803E+00
         -2   -1    0    0    0  501 -0.00000000000E+00  0.00000000000E+00  0.11968851740E+03  0.11968851742E+03  0.25500000000E-02 0. -1.
          2   -1    0    0  501    0  0.00000000000E+00 -0.00000000000E+00 -0.46439283466E+00  0.46439983569E+00  0.25500000000E-02 0.  1.
         31    1    1    2    0    0 -0.15057783160E-01 -0.34727233164E+00  0.60065128849E+02  0.60526022953E+02  0.74470750000E+01 0. -1.
        -31    1    1    2    0    0  0.15057783160E-01  0.34727233164E+00  0.59158995712E+02  0.59626894306E+02  0.74470750000E+01 0. -1.
<mgrwt>
<rscale>  0 0.14910790E+02</rscale>
<asrwt>0</asrwt>
<pdfrwt beam="2">  1        2 0.98635701E+00 0.14910790E+02</pdfrwt>
<pdfrwt beam="1">  1       -2 0.99350839E+00 0.14910790E+02</pdfrwt>
<totfact>-0.26273069E-13</totfact>
</mgrwt>
</event>
<event>
 4    1 -0.5170493E-019  0.1495477E+02  0.7818608E-02  0.1869452E+00
          2   -1    0    0  501    0  0.00000000000E+00  0.00000000000E+00  0.11984303441E+03  0.11984303443E+03  0.25500000000E-02 0. -1.
         -2   -1    0    0    0  501 -0.00000000000E+00 -0.00000000000E+00 -0.46653402751E+00  0.46654099640E+00  0.25500000000E-02 0.  1.
         31    1    1    2    0    0 -0.48822089327E-01 -0.66700249123E+00  0.60261212911E+02  0.60723306757E+02  0.74470750000E+01 0.  1.
        -31    1    1    2    0    0  0.48822089327E-01  0.66700249123E+00  0.59115287467E+02  0.59586268672E+02  0.74470750000E+01 0.  1.
<mgrwt>
<rscale>  0 0.14954768E+02</rscale>
<asrwt>0</asrwt>
<pdfrwt beam="1">  1        2 0.99480375E+00 0.14954768E+02</pdfrwt>
<pdfrwt beam="2">  1       -2 0.99089207E+00 0.14954768E+02</pdfrwt>
<totfact>-0.37730325E-14</totfact>
</mgrwt>
</event>
<event>
 4    1 -0.5170493E-019  0.1492226E+02  0.7818608E-02  0.1870450E+00
         -2   -1    0    0    0  501 -0.00000000000E+00  0.00000000000E+00  0.11972348498E+03  0.11972348501E+03  0.25500000000E-02 0. -1.
          2   -1    0    0  501    0  0.00000000000E+00 -0.00000000000E+00 -0.46497201018E+00  0.46497900248E+00  0.25500000000E-02 0.  1.
         31    1    1    2    0    0  0.93800847594E-02 -0.82626303463E-01  0.56003475733E+02  0.56496505515E+02  0.74470750000E+01 0.  1.
        -31    1    1    2    0    0 -0.93800847594E-02  0.82626303463E-01  0.63255037241E+02  0.63691958499E+02  0.74470750000E+01 0. -1.
<mgrwt>
<rscale>  0 0.14922264E+02</rscale>
<asrwt>0</asrwt>
<pdfrwt beam="2">  1        2 0.98758350E+00 0.14922264E+02</pdfrwt>
<pdfrwt beam="1">  1       -2 0.99380231E+00 0.14922264E+02</pdfrwt>
<totfact>-0.22726099E-13</totfact>
</mgrwt>
</event>
<event>
 4    1 -0.5170493E-019  0.1490927E+02  0.7818608E-02  0.1870850E+00
         -2   -1    0    0    0  501 -0.00000000000E+00  0.00000000000E+00  0.12037776573E+03  0.12037776575E+03  0.25500000000E-02 0.  1.
          2   -1    0    0  501    0  0.00000000000E+00 -0.00000000000E+00 -0.46163995699E+00  0.46164699976E+00  0.25500000000E-02 0. -1.
         31    1    1    2    0    0 -0.32160632299E+00 -0.71463660645E-01  0.60480190481E+02  0.60937844599E+02  0.74470750000E+01 0.  1.
        -31    1    1    2    0    0  0.32160632299E+00  0.71463660645E-01  0.59435935290E+02  0.59901568156E+02  0.74470750000E+01 0. -1.
<mgrwt>
<rscale>  0 0.14909274E+02</rscale>
<asrwt>0</asrwt>
<pdfrwt beam="2">  1        2 0.98055410E+00 0.14909274E+02</pdfrwt>
<pdfrwt beam="1">  1       -2 0.99918481E+00 0.14909274E+02</pdfrwt>
<totfact>-0.19651242E-13</totfact>
</mgrwt>
</event>
<event>
 4    1 -0.5170493E-019  0.1498428E+02  0.7818608E-02  0.1868549E+00
          2   -1    0    0  501    0  0.00000000000E+00  0.00000000000E+00  0.11985780400E+03  0.11985780403E+03  0.25500000000E-02 0.  1.
         -2   -1    0    0    0  501 -0.00000000000E+00 -0.00000000000E+00 -0.46831945705E+00  0.46832639937E+00  0.25500000000E-02 0. -1.
         31    1    1    2    0    0 -0.40553215547E+00  0.57538891606E+00  0.56309612107E+02  0.56804285670E+02  0.74470750000E+01 0. -1.
        -31    1    1    2    0    0  0.40553215547E+00 -0.57538891606E+00  0.63079872438E+02  0.63521844759E+02  0.74470750000E+01 0.  1.
<mgrwt>
<rscale>  0 0.14984280E+02</rscale>
<asrwt>0</asrwt>
<pdfrwt beam="1">  1        2 0.99494063E+00 0.14984280E+02</pdfrwt>
<pdfrwt beam="2">  1       -2 0.99466988E+00 0.14984280E+02</pdfrwt>
<totfact>-0.12028656E-13</totfact>
</mgrwt>
</event>
<event>
 4    1 -0.5170493E-019  0.1494745E+02  0.7818608E-02  0.1869676E+00
          2   -1    0    0  501    0  0.00000000000E+00  0.00000000000E+00  0.11893855560E+03  0.11893855563E+03  0.25500000000E-02 0. -1.
         -2   -1    0    0    0  501 -0.00000000000E+00 -0.00000000000E+00 -0.46962212555E+00  0.46962904862E+00  0.25500000000E-02 0.  1.
         31    1    1    2    0    0  0.57756335841E-01  0.51130923991E+00  0.62146647824E+02  0.62593366539E+02  0.74470750000E+01 0. -1.
        -31    1    1    2    0    0 -0.57756335841E-01 -0.51130923991E+00  0.56322285652E+02  0.56814818138E+02  0.74470750000E+01 0. -1.
<mgrwt>
<rscale>  0 0.14947454E+02</rscale>
<asrwt>0</asrwt>
<pdfrwt beam="1">  1        2 0.98735042E+00 0.14947454E+02</pdfrwt>
<pdfrwt beam="2">  1       -2 0.99739571E+00 0.14947454E+02</pdfrwt>
<totfact>-0.17689955E-13</totfact>
</mgrwt>
</event>
<event>
 4    1 -0.5170493E-019  0.1490241E+02  0.7818608E-02  0.1871061E+00
         -2   -1    0    0    0  501 -0.00000000000E+00  0.00000000000E+00  0.11989389362E+03  0.11989389365E+03  0.25500000000E-02 0. -1.
          2   -1    0    0  501    0  0.00000000000E+00 -0.00000000000E+00 -0.46307647152E+00  0.46308349244E+00  0.25500000000E-02 0.  1.
         31    1    1    2    0    0  0.10387729807E+00 -0.22171181435E+00  0.59393094896E+02  0.59858655131E+02  0.74470750000E+01 0. -1.
        -31    1    1    2    0    0 -0.10387729807E+00  0.22171181435E+00  0.60037722254E+02  0.60498322010E+02  0.74470750000E+01 0. -1.
<mgrwt>
<rscale>  0 0.14902411E+02</rscale>
<asrwt>0</asrwt>
<pdfrwt beam="2">  1        2 0.98357840E+00 0.14902411E+02</pdfrwt>
<pdfrwt beam="1">  1       -2 0.99519570E+00 0.14902411E+02</pdfrwt>
<totfact>-0.43671552E-13</totfact>
</mgrwt>
</event>
<event>
 4    1  0.5170493E-019  0.1489745E+02  0.7818608E-02  0.1871214E+00
          2   -1    0    0  501    0  0.00000000000E+00  0.00000000000E+00  0.11947276835E+03  0.11947276837E+03  0.25500000000E-02 0. -1.
         -2   -1    0    0    0  501 -0.00000000000E+00 -0.00000000000E+00 -0.46439922812E+00  0.46440622905E+00  0.25500000000E-02 0.  1.
         31    1    1    2    0    0 -0.37219628211E-01 -0.15146442655E+00  0.59382076696E+02  0.59847425054E+02  0.74470750000E+01 0.  1.
        -31    1    1    2    0    0  0.37219628211E-01  0.15146442655E+00  0.59626292422E+02  0.60089749549E+02  0.74470750000E+01 0.  1.
<mgrwt>
<rscale>  0 0.14897447E+02</rscale>
<asrwt>0</asrwt>
<pdfrwt beam="1">  1        2 0.99172448E+00 0.14897447E+02</pdfrwt>
<pdfrwt beam="2">  1       -2 0.98636365E+00 0.14897447E+02</pdfrwt>
<totfact> 0.40716156E-13</totfact>
</mgrwt>
</event>
<event>
 4    1 -0.5170493E-019  0.1490917E+02  0.7818608E-02  0.1870853E+00
         -2   -1    0    0    0  501 -0.00000000000E+00  0.00000000000E+00  0.11989676636E+03  0.11989676639E+03  0.25500000000E-02 0.  1.
          2   -1    0    0  501    0  0.00000000000E+00 -0.00000000000E+00 -0.46348539060E+00  0.46349240533E+00  0.25500000000E-02 0. -1.
         31    1    1    2    0    0  0.49567334842E-01 -0.30273215164E+00  0.60793507458E+02  0.61248702670E+02  0.74470750000E+01 0.  1.
        -31    1    1    2    0    0 -0.49567334842E-01  0.30273215164E+00  0.58639773514E+02  0.59111556125E+02  0.74470750000E+01 0.  1.
<mgrwt>
<rscale>  0 0.14909168E+02</rscale>
<asrwt>0</asrwt>
<pdfrwt beam="2">  1        2 0.98444368E+00 0.14909168E+02</pdfrwt>
<pdfrwt beam="1">  1       -2 0.99522283E+00 0.14909168E+02</pdfrwt>
<totfact>-0.37762967E-13</totfact>
</mgrwt>
</event>
<event>
 4    1 -0.5170493E-019  0.1495556E+02  0.7818608E-02  0.1869428E+00
          2   -1    0    0  501    0  0.00000000000E+00  0.00000000000E+00  0.11915608629E+03  0.11915608632E+03  0.25500000000E-02 0. -1.
         -2   -1    0    0    0  501 -0.00000000000E+00 -0.00000000000E+00 -0.46927317022E+00  0.46928009844E+00  0.25500000000E-02 0.  1.
         31    1    1    2    0    0 -0.42621660927E+00  0.16410461408E+00  0.55346817953E+02  0.55847450922E+02  0.74470750000E+01 0.  1.
        -31    1    1    2    0    0  0.42621660927E+00 -0.16410461408E+00  0.63339995165E+02  0.63777915492E+02  0.74470750000E+01 0. -1.
<mgrwt>
<rscale>  0 0.14955557E+02</rscale>
<asrwt>0</asrwt>
<pdfrwt beam="1">  1        2 0.98914623E+00 0.14955557E+02</pdfrwt>
<pdfrwt beam="2">  1       -2 0.99666467E+00 0.14955557E+02</pdfrwt>
<totfact>-0.16663106E-13</totfact>
</mgrwt>
</event>
<event>
 4    1  0.5170493E-019  0.1489888E+02  0.7818608E-02  0.1871170E+00
         -2   -1    0    0    0  501 -0.00000000000E+00  0.00000000000E+00  0.11858455678E+03  0.11858455681E+03  0.25500000000E-02 0.  1.
          2   -1    0    0  501    0  0.00000000000E+00 -0.00000000000E+00 -0.46796797745E+00  0.46797492499E+00  0.25500000000E-02 0. -1.
         31    1    1    2    0    0  0.36697160813E-01  0.13794858176E+00  0.58083303194E+02  0.58558939646E+02  0.74470750000E+01 0. -1.
        -31    1    1    2    0    0 -0.36697160813E-01 -0.13794858176E+00  0.60033285610E+02  0.60493592087E+02  0.74470750000E+01 0.  1.
<mgrwt>
<rscale>  0 0.14898885E+02</rscale>
<asrwt>0</asrwt>
<pdfrwt beam="2">  1        2 0.99388478E+00 0.14898885E+02</pdfrwt>
<pdfrwt beam="1">  1       -2 0.98440963E+00 0.14898885E+02</pdfrwt>
<totfact> 0.62871872E-13</totfact>
</mgrwt>
</event>
<event>
 4    1 -0.5170493E-019  0.1495632E+02  0.7818608E-02  0.1869404E+00
         -2   -1    0    0    0  501 -0.00000000000E+00  0.00000000000E+00  0.11989010879E+03  0.11989010882E+03  0.25500000000E-02 0. -1.
          2   -1    0    0  501    0  0.00000000000E+00 -0.00000000000E+00 -0.46644760084E+00  0.46645457102E+00  0.25500000000E-02 0.  1.
         31    1    1    2    0    0  0.42181643887E+00 -0.44825994725E+00  0.57364548485E+02  0.57849193728E+02  0.74470750000E+01 0. -1.
        -31    1    1    2    0    0 -0.42181643887E+00  0.44825994725E+00  0.62059112704E+02  0.62507369660E+02  0.74470750000E+01 0. -1.
<mgrwt>
<rscale>  0 0.14956320E+02</rscale>
<asrwt>0</asrwt>
<pdfrwt beam="2">  1        2 0.99071073E+00 0.14956320E+02</pdfrwt>
<pdfrwt beam="1">  1       -2 0.99519228E+00 0.14956320E+02</pdfrwt>
<totfact>-0.16651932E-13</totfact>
</mgrwt>
</event>
<event>
 4    1 -0.5170493E-019  0.1502040E+02  0.7818608E-02  0.1867447E+00
         -2   -1    0    0    0  501 -0.00000000000E+00  0.00000000000E+00  0.12024821998E+03  0.12024822000E+03  0.25500000000E-02 0. -1.
          2   -1    0    0  501    0  0.00000000000E+00 -0.00000000000E+00 -0.46905230460E+00  0.46905923608E+00  0.25500000000E-02 0.  1.
         31    1    1    2    0    0 -0.17788244550E+00  0.93549803126E+00  0.61443842241E+02  0.61900819656E+02  0.74470750000E+01 0.  1.
        -31    1    1    2    0    0  0.17788244550E+00 -0.93549803126E+00  0.58335325431E+02  0.58816459584E+02  0.74470750000E+01 0. -1.
<mgrwt>
<rscale>  0 0.15020403E+02</rscale>
<asrwt>0</asrwt>
<pdfrwt beam="2">  1        2 0.99623291E+00 0.15020403E+02</pdfrwt>
<pdfrwt beam="1">  1       -2 0.99817493E+00 0.15020403E+02</pdfrwt>
<totfact>-0.56202550E-14</totfact>
</mgrwt>
</event>
<event>
 4    1 -0.5170493E-019  0.1501626E+02  0.7818608E-02  0.1867573E+00
         -2   -1    0    0    0  501 -0.00000000000E+00  0.00000000000E+00  0.12007006596E+03  0.12007006598E+03  0.25500000000E-02 0.  1.
          2   -1    0    0  501    0  0.00000000000E+00 -0.00000000000E+00 -0.46948896293E+00  0.46949588797E+00  0.25500000000E-02 0. -1.
         31    1    1    2    0    0  0.34915556740E+00  0.58002483913E+00  0.54387233068E+02  0.54898892387E+02  0.74470750000E+01 0. -1.
        -31    1    1    2    0    0 -0.34915556740E+00 -0.58002483913E+00  0.65213343924E+02  0.65640669484E+02  0.74470750000E+01 0.  1.
<mgrwt>
<rscale>  0 0.15016256E+02</rscale>
<asrwt>0</asrwt>
<pdfrwt beam="2">  1        2 0.99715096E+00 0.15016256E+02</pdfrwt>
<pdfrwt beam="1">  1       -2 0.99670543E+00 0.15016256E+02</pdfrwt>
<totfact>-0.72183112E-14</totfact>
</mgrwt>
</event>
<event>
 4    1 -0.5170493E-019  0.1490916E+02  0.7818608E-02  0.1870853E+00
         -2   -1    0    0    0  501 -0.00000000000E+00  0.00000000000E+00  0.12002124139E+03  0.12002124142E+03  0.25500000000E-02 0. -1.
          2   -1    0    0  501    0  0.00000000000E+00 -0.00000000000E+00 -0.46300398352E+00  0.46301100554E+00  0.25500000000E-02 0.  1.
         31    1    1    2    0    0 -0.20100574245E+00 -0.96978575391E-02  0.61937185838E+02  0.62383606924E+02  0.74470750000E+01 0. -1.
        -31    1    1    2    0    0  0.20100574245E+00  0.96978575391E-02  0.57621051570E+02  0.58100645499E+02  0.74470750000E+01 0.  1.
<mgrwt>
<rscale>  0 0.14909157E+02</rscale>
<asrwt>0</asrwt>
<pdfrwt beam="2">  1        2 0.98342904E+00 0.14909157E+02</pdfrwt>
<pdfrwt beam="1">  1       -2 0.99624810E+00 0.14909157E+02</pdfrwt>
<totfact>-0.41039711E-13</totfact>
</mgrwt>
</event>
<event>
 4    1  0.5170493E-019  0.1491702E+02  0.7818608E-02  0.1870611E+00
          2   -1    0    0  501    0  0.00000000000E+00  0.00000000000E+00  0.11989289650E+03  0.11989289653E+03  0.25500000000E-02 0.  1.
         -2   -1    0    0    0  501 -0.00000000000E+00 -0.00000000000E+00 -0.46398896757E+00  0.46399597469E+00  0.25500000000E-02 0. -1.
         31    1    1    2    0    0  0.18362889321E+00 -0.14573209251E-01  0.62695915002E+02  0.63136919595E+02  0.74470750000E+01 0.  1.
        -31    1    1    2    0    0 -0.18362889321E+00  0.14573209251E-01  0.56732992534E+02  0.57219972910E+02  0.74470750000E+01 0. -1.
<mgrwt>
<rscale>  0 0.14917024E+02</rscale>
<asrwt>0</asrwt>
<pdfrwt beam="1">  1        2 0.99519500E+00 0.14917024E+02</pdfrwt>
<pdfrwt beam="2">  1       -2 0.98550902E+00 0.14917024E+02</pdfrwt>
<totfact> 0.40878958E-13</totfact>
</mgrwt>
</event>
<event>
 4    1 -0.5170493E-019  0.1496183E+02  0.7818608E-02  0.1869236E+00
          2   -1    0    0  501    0  0.00000000000E+00  0.00000000000E+00  0.11916298192E+03  0.11916298195E+03  0.25500000000E-02 0.  1.
         -2   -1    0    0    0  501 -0.00000000000E+00 -0.00000000000E+00 -0.46963947525E+00  0.46964639807E+00  0.25500000000E-02 0. -1.
         31    1    1    2    0    0 -0.10105520466E+00  0.68572079539E-01  0.64945003359E+02  0.65370691457E+02  0.74470750000E+01 0.  1.
        -31    1    1    2    0    0  0.10105520466E+00 -0.68572079539E-01  0.53748339089E+02  0.54261936891E+02  0.74470750000E+01 0. -1.
<mgrwt>
<rscale>  0 0.14961826E+02</rscale>
<asrwt>0</asrwt>
<pdfrwt beam="1">  1        2 0.98920627E+00 0.14961826E+02</pdfrwt>
<pdfrwt beam="2">  1       -2 0.99743980E+00 0.14961826E+02</pdfrwt>
<totfact>-0.13905055E-13</totfact>
</mgrwt>
</event>
<event>
 4    1 -0.5170493E-019  0.1495812E+02  0.7818608E-02  0.1869349E+00
          2   -1    0    0  501    0  0.00000000000E+00  0.00000000000E+00  0.11912317804E+03  0.11912317807E+03  0.25500000000E-02 0.  1.
         -2   -1    0    0    0  501 -0.00000000000E+00 -0.00000000000E+00 -0.46956386065E+00  0.46957078458E+00  0.25500000000E-02 0. -1.
         31    1    1    2    0    0 -0.48271225360E+00 -0.91525413143E-01  0.55442429389E+02  0.55942499860E+02  0.74470750000E+01 0. -1.
        -31    1    1    2    0    0  0.48271225360E+00  0.91525413143E-01  0.63211184792E+02  0.63650248993E+02  0.74470750000E+01 0. -1.
<mgrwt>
<rscale>  0 0.14958122E+02</rscale>
<asrwt>0</asrwt>
<pdfrwt beam="1">  1        2 0.98887652E+00 0.14958122E+02</pdfrwt>
<pdfrwt beam="2">  1       -2 0.99727854E+00 0.14958122E+02</pdfrwt>
<totfact>-0.15062203E-13</totfact>
</mgrwt>
</event>
<event>
 4    1  0.5170493E-019  0.1490770E+02  0.7818608E-02  0.1870898E+00
         -2   -1    0    0    0  501 -0.00000000000E+00  0.00000000000E+00  0.11881195516E+03  0.11881195519E+03  0.25500000000E-02 0. -1.
          2   -1    0    0  501    0  0.00000000000E+00 -0.00000000000E+00 -0.46762538916E+00  0.46763234179E+00  0.25500000000E-02 0.  1.
         31    1    1    2    0    0 -0.20751226538E+00  0.23537268078E+00  0.58770877501E+02  0.59241652830E+02  0.74470750000E+01 0.  1.
        -31    1    1    2    0    0  0.20751226538E+00 -0.23537268078E+00  0.59573452272E+02  0.60037934702E+02  0.74470750000E+01 0.  1.
<mgrwt>
<rscale>  0 0.14907703E+02</rscale>
<asrwt>0</asrwt>
<pdfrwt beam="2">  1        2 0.99316752E+00 0.14907703E+02</pdfrwt>
<pdfrwt beam="1">  1       -2 0.98628709E+00 0.14907703E+02</pdfrwt>
<totfact> 0.37689774E-13</totfact>
</mgrwt>
</event>
<event>
 4    1 -0.5170493E-019  0.1493263E+02  0.7818608E-02  0.1870131E+00
          2   -1    0    0  501    0  0.00000000000E+00  0.00000000000E+00  0.11857450786E+03  0.11857450789E+03  0.25500000000E-02 0.  1.
         -2   -1    0    0    0  501 -0.00000000000E+00 -0.00000000000E+00 -0.47013001972E+00  0.47013693531E+00  0.25500000000E-02 0. -1.
         31    1    1    2    0    0  0.14002893666E+00  0.29433181444E+00  0.55663490065E+02  0.56160388991E+02  0.74470750000E+01 0. -1.
        -31    1    1    2    0    0 -0.14002893666E+00 -0.29433181444E+00  0.62440887775E+02  0.62884255831E+02  0.74470750000E+01 0.  1.
<mgrwt>
<rscale>  0 0.14932629E+02</rscale>
<asrwt>0</asrwt>
<pdfrwt beam="1">  1        2 0.98434441E+00 0.14932629E+02</pdfrwt>
<pdfrwt beam="2">  1       -2 0.99845806E+00 0.14932629E+02</pdfrwt>
<totfact>-0.18486897E-13</totfact>
</mgrwt>
</event>
<event>
 4    1 -0.5170493E-019  0.1500567E+02  0.7818608E-02  0.1867895E+00
          2   -1    0    0  501    0  0.00000000000E+00  0.00000000000E+00  0.12024277662E+03  0.12024277665E+03  0.25500000000E-02 0.  1.
         -2   -1    0    0    0  501 -0.00000000000E+00 -0.00000000000E+00 -0.46815405950E+00  0.46816100428E+00  0.25500000000E-02 0. -1.
         31    1    1    2    0    0  0.46153084112E+00  0.42280629892E+00  0.65234615013E+02  0.65661295280E+02  0.74470750000E+01 0.  1.
        -31    1    1    2    0    0 -0.46153084112E+00 -0.42280629892E+00  0.54540007546E+02  0.55049642370E+02  0.74470750000E+01 0. -1.
<mgrwt>
<rscale>  0 0.15005674E+02</rscale>
<asrwt>0</asrwt>
<pdfrwt beam="1">  1        2 0.99812249E+00 0.15005674E+02</pdfrwt>
<pdfrwt beam="2">  1       -2 0.99433235E+00 0.15005674E+02</pdfrwt>
<totfact>-0.62026926E-14</totfact>
</mgrwt>
</event>
<event>
 4    1  0.5170493E-019  0.1491217E+02  0.7818608E-02  0.1870761E+00
         -2   -1    0    0    0  501 -0.00000000000E+00  0.00000000000E+00  0.11918342407E+03  0.11918342409E+03  0.25500000000E-02 0.  1.
          2   -1    0    0  501    0  0.00000000000E+00 -0.00000000000E+00 -0.46644715156E+00  0.46645412175E+00  0.25500000000E-02 0. -1.
         31    1    1    2    0    0 -0.35757861879E+00 -0.60311964295E-01  0.59780110315E+02  0.60243273611E+02  0.74470750000E+01 0.  1.
        -31    1    1    2    0    0  0.35757861879E+00  0.60311964295E-01  0.58936866598E+02  0.59406604603E+02  0.74470750000E+01 0. -1.
<mgrwt>
<rscale>  0 0.14912168E+02</rscale>
<asrwt>0</asrwt>
<pdfrwt beam="2">  1        2 0.99068701E+00 0.14912168E+02</pdfrwt>
<pdfrwt beam="1">  1       -2 0.98934891E+00 0.14912168E+02</pdfrwt>
<totfact> 0.68145280E-14</totfact>
</mgrwt>
</event>
<event>
 4    1  0.5170493E-019  0.1493782E+02  0.7818608E-02  0.1869972E+00
         -2   -1    0    0    0  501 -0.00000000000E+00  0.00000000000E+00  0.11894075470E+03  0.11894075473E+03  0.25500000000E-02 0. -1.
          2   -1    0    0  501    0  0.00000000000E+00 -0.00000000000E+00 -0.46900828726E+00  0.46901521939E+00  0.25500000000E-02 0.  1.
         31    1    1    2    0    0 -0.56481137582E+00 -0.47376274032E-01  0.58703658264E+02  0.59176850846E+02  0.74470750000E+01 0. -1.
        -31    1    1    2    0    0  0.56481137582E+00  0.47376274032E-01  0.59768088151E+02  0.60232919104E+02  0.74470750000E+01 0.  1.
<mgrwt>
<rscale>  0 0.14937820E+02</rscale>
<asrwt>0</asrwt>
<pdfrwt beam="2">  1        2 0.99609724E+00 0.14937820E+02</pdfrwt>
<pdfrwt beam="1">  1       -2 0.98736352E+00 0.14937820E+02</pdfrwt>
<totfact> 0.18276735E-13</totfact>
</mgrwt>
</event>
<event>
 4    1  0.5170493E-019  0.1495798E+02  0.7818608E-02  0.1869354E+00
         -2   -1    0    0    0  501 -0.00000000000E+00  0.00000000000E+00  0.11913791075E+03  0.11913791077E+03  0.25500000000E-02 0.  1.
          2   -1    0    0  501    0  0.00000000000E+00 -0.00000000000E+00 -0.46949673927E+00  0.46950366419E+00  0.25500000000E-02 0. -1.
         31    1    1    2    0    0 -0.22452953457E+00  0.64506069235E+00  0.60127145961E+02  0.60590421060E+02  0.74470750000E+01 0.  1.
        -31    1    1    2    0    0  0.22452953457E+00 -0.64506069235E+00  0.58541268046E+02  0.59016993377E+02  0.74470750000E+01 0.  1.
<mgrwt>
<rscale>  0 0.14957978E+02</rscale>
<asrwt>0</asrwt>
<pdfrwt beam="2">  1        2 0.99713703E+00 0.14957978E+02</pdfrwt>
<pdfrwt beam="1">  1       -2 0.98899779E+00 0.14957978E+02</pdfrwt>
<totfact> 0.51936591E-14</totfact>
</mgrwt>
</event>
<event>
 4    1  0.5170493E-019  0.1492945E+02  0.7818608E-02  0.1870229E+00
          2   -1    0    0  501    0  0.00000000000E+00  0.00000000000E+00  0.12027650840E+03  0.12027650843E+03  0.25500000000E-02 0. -1.
         -2   -1    0    0    0  501 -0.00000000000E+00 -0.00000000000E+00 -0.46328019549E+00  0.46328721332E+00  0.25500000000E-02 0.  1.
         31    1    1    2    0    0  0.32282597377E+00  0.10339945405E+00  0.63021196306E+02  0.63460578456E+02  0.74470750000E+01 0.  1.
        -31    1    1    2    0    0 -0.32282597377E+00 -0.10339945405E+00  0.56792031903E+02  0.57279217189E+02  0.74470750000E+01 0.  1.
<mgrwt>
<rscale>  0 0.14929454E+02</rscale>
<asrwt>0</asrwt>
<pdfrwt beam="1">  1        2 0.99836111E+00 0.14929454E+02</pdfrwt>
<pdfrwt beam="2">  1       -2 0.98402149E+00 0.14929454E+02</pdfrwt>
<totfact> 0.29406398E-13</totfact>
</mgrwt>
</event>
<event>
 4    1 -0.5170493E-019  0.1498018E+02  0.7818608E-02  0.1868674E+00
         -2   -1    0    0    0  501 -0.00000000000E+00  0.00000000000E+00  0.11945035709E+03  0.11945035712E+03  0.25500000000E-02 0.  1.
          2   -1    0    0  501    0  0.00000000000E+00 -0.00000000000E+00 -0.46965992798E+00  0.46966685049E+00  0.25500000000E-02 0. -1.
         31    1    1    2    0    0 -0.23704810185E+00  0.71232690415E+00  0.61739456810E+02  0.62191503075E+02  0.74470750000E+01 0.  1.
        -31    1    1    2    0    0  0.23704810185E+00 -0.71232690415E+00  0.57241240353E+02  0.57728520894E+02  0.74470750000E+01 0. -1.
<mgrwt>
<rscale>  0 0.14980182E+02</rscale>
<asrwt>0</asrwt>
<pdfrwt beam="2">  1        2 0.99749249E+00 0.14980182E+02</pdfrwt>
<pdfrwt beam="1">  1       -2 0.99158266E+00 0.14980182E+02</pdfrwt>
<totfact>-0.42226045E-14</totfact>
</mgrwt>
</event>
<event>
 4    1 -0.5170493E-019  0.1500829E+02  0.7818608E-02  0.1867816E+00
          2   -1    0    0  501    0  0.00000000000E+00  0.00000000000E+00  0.11991708226E+03  0.11991708228E+03  0.25500000000E-02 0.  1.
         -2   -1    0    0    0  501 -0.00000000000E+00 -0.00000000000E+00 -0.46958947742E+00  0.46959640097E+00  0.25500000000E-02 0. -1.
         31    1    1    2    0    0  0.47809826297E+00 -0.76338319556E-01  0.66034086103E+02  0.66454449505E+02  0.74470750000E+01 0.  1.
        -31    1    1    2    0    0 -0.47809826297E+00  0.76338319556E-01  0.53413406677E+02  0.53932229181E+02  0.74470750000E+01 0. -1.
<mgrwt>
<rscale>  0 0.15008293E+02</rscale>
<asrwt>0</asrwt>
<pdfrwt beam="1">  1        2 0.99544129E+00 0.15008293E+02</pdfrwt>
<pdfrwt beam="2">  1       -2 0.99735865E+00 0.15008293E+02</pdfrwt>
<totfact>-0.83463666E-14</totfact>
</mgrwt>
</event>
<event>
 4    1  0.5170493E-019  0.1491608E+02  0.7818608E-02  0.1870640E+00
          2   -1    0    0  501    0  0.00000000000E+00  0.00000000000E+00  0.12030387970E+03  0.12030387973E+03  0.25500000000E-02 0.  1.
         -2   -1    0    0    0  501 -0.00000000000E+00 -0.00000000000E+00 -0.46234536590E+00  0.46235239793E+00  0.25500000000E-02 0. -1.
         31    1    1    2    0    0 -0.18303314434E+00 -0.18667850328E+00  0.57424094656E+02  0.57905560382E+02  0.74470750000E+01 0. -1.
        -31    1    1    2    0    0  0.18303314434E+00  0.18667850328E+00  0.62417439678E+02  0.62860671744E+02  0.74470750000E+01 0.  1.
<mgrwt>
<rscale>  0 0.14916081E+02</rscale>
<asrwt>0</asrwt>
<pdfrwt beam="1">  1        2 0.99857970E+00 0.14916081E+02</pdfrwt>
<pdfrwt beam="2">  1       -2 0.98204437E+00 0.14916081E+02</pdfrwt>
<totfact> 0.40459575E-13</totfact>
</mgrwt>
</event>
<event>
 4    1  0.5170493E-019  0.1489603E+02  0.7818608E-02  0.1871258E+00
          2   -1    0    0  501    0  0.00000000000E+00  0.00000000000E+00  0.11971037258E+03  0.11971037261E+03  0.25500000000E-02 0. -1.
         -2   -1    0    0    0  501 -0.00000000000E+00 -0.00000000000E+00 -0.46338943031E+00  0.46339644649E+00  0.25500000000E-02 0.  1.
         31    1    1    2    0    0 -0.56097822811E-01  0.27081241857E-01  0.60435795236E+02  0.60892923663E+02  0.74470750000E+01 0.  1.
        -31    1    1    2    0    0  0.56097822811E-01 -0.27081241857E-01  0.58811187914E+02  0.59280845391E+02  0.74470750000E+01 0.  1.
<mgrwt>
<rscale>  0 0.14896032E+02</rscale>
<asrwt>0</asrwt>
<pdfrwt beam="1">  1        2 0.99368080E+00 0.14896032E+02</pdfrwt>
<pdfrwt beam="2">  1       -2 0.98423475E+00 0.14896032E+02</pdfrwt>
<totfact> 0.66817400E-13</totfact>
</mgrwt>
</event>
<event>
 4    1 -0.5170493E-019  0.1494721E+02  0.7818608E-02  0.1869684E+00
          2   -1    0    0  501    0  0.00000000000E+00  0.00000000000E+00  0.11939222996E+03  0.11939222999E+03  0.25500000000E-02 0.  1.
         -2   -1    0    0    0  501 -0.00000000000E+00 -0.00000000000E+00 -0.46782247475E+00  0.46782942445E+00  0.25500000000E-02 0. -1.
         31    1    1    2    0    0 -0.59362057965E+00  0.15194914332E+00  0.58317252594E+02  0.58794016278E+02  0.74470750000E+01 0. -1.
        -31    1    1    2    0    0  0.59362057965E+00 -0.15194914332E+00  0.60607154893E+02  0.61066043136E+02  0.74470750000E+01 0. -1.
<mgrwt>
<rscale>  0 0.14947212E+02</rscale>
<asrwt>0</asrwt>
<pdfrwt beam="1">  1        2 0.99108683E+00 0.14947212E+02</pdfrwt>
<pdfrwt beam="2">  1       -2 0.99360339E+00 0.14947212E+02</pdfrwt>
<totfact>-0.15350795E-13</totfact>
</mgrwt>
</event>
<event>
 4    1 -0.5170493E-019  0.1493031E+02  0.7818608E-02  0.1870203E+00
          2   -1    0    0  501    0  0.00000000000E+00  0.00000000000E+00  0.11895276904E+03  0.11895276906E+03  0.25500000000E-02 0.  1.
         -2   -1    0    0    0  501 -0.00000000000E+00 -0.00000000000E+00 -0.46848951493E+00  0.46849645473E+00  0.25500000000E-02 0. -1.
         31    1    1    2    0    0  0.26142117048E+00  0.40975805561E+00  0.57780951777E+02  0.58260909339E+02  0.74470750000E+01 0.  1.
        -31    1    1    2    0    0 -0.26142117048E+00 -0.40975805561E+00  0.60703327744E+02  0.61160356179E+02  0.74470750000E+01 0.  1.
<mgrwt>
<rscale>  0 0.14930310E+02</rscale>
<asrwt>0</asrwt>
<pdfrwt beam="1">  1        2 0.98745858E+00 0.14930310E+02</pdfrwt>
<pdfrwt beam="2">  1       -2 0.99500019E+00 0.14930310E+02</pdfrwt>
<totfact>-0.23970420E-13</totfact>
</mgrwt>
</event>
<event>
 4    1 -0.5170493E-019  0.1494554E+02  0.7818608E-02  0.1869735E+00
          2   -1    0    0  501    0  0.00000000000E+00  0.00000000000E+00  0.11918269505E+03  0.11918269508E+03  0.25500000000E-02 0.  1.
         -2   -1    0    0    0  501 -0.00000000000E+00 -0.00000000000E+00 -0.46854038777E+00  0.46854732682E+00  0.25500000000E-02 0. -1.
         31    1    1    2    0    0 -0.52571467189E+00 -0.14143161571E-01  0.61973655009E+02  0.62421706298E+02  0.74470750000E+01 0.  1.
        -31    1    1    2    0    0  0.52571467189E+00  0.14143161571E-01  0.56740499653E+02  0.57229536105E+02  0.74470750000E+01 0. -1.
<mgrwt>
<rscale>  0 0.14945544E+02</rscale>
<asrwt>0</asrwt>
<pdfrwt beam="1">  1        2 0.98936019E+00 0.14945544E+02</pdfrwt>
<pdfrwt beam="2">  1       -2 0.99511534E+00 0.14945544E+02</pdfrwt>
<totfact>-0.18983651E-13</totfact>
</mgrwt>
</event>
<event>
 4    1 -0.5170493E-019  0.1493149E+02  0.7818608E-02  0.1870166E+00
         -2   -1    0    0    0  501 -0.00000000000E+00  0.00000000000E+00  0.11984574992E+03  0.11984574995E+03  0.25500000000E-02 0.  1.
          2   -1    0    0  501    0  0.00000000000E+00 -0.00000000000E+00 -0.46507240564E+00  0.46507939643E+00  0.25500000000E-02 0. -1.
         31    1    1    2    0    0 -0.34929319402E+00 -0.39326119270E+00  0.59349701882E+02  0.59817411342E+02  0.74470750000E+01 0. -1.
        -31    1    1    2    0    0  0.34929319402E+00  0.39326119270E+00  0.60030975631E+02  0.60493418000E+02  0.74470750000E+01 0. -1.
<mgrwt>
<rscale>  0 0.14931493E+02</rscale>
<asrwt>0</asrwt>
<pdfrwt beam="2">  1        2 0.98779980E+00 0.14931493E+02</pdfrwt>
<pdfrwt beam="1">  1       -2 0.99481411E+00 0.14931493E+02</pdfrwt>
<totfact>-0.22961437E-13</totfact>
</mgrwt>
</event>
<event>
 4    1 -0.5170493E-019  0.1489773E+02  0.7818608E-02  0.1871205E+00
         -2   -1    0    0    0  501 -0.00000000000E+00  0.00000000000E+00  0.11982712401E+03  0.11982712404E+03  0.25500000000E-02 0.  1.
          2   -1    0    0  501    0  0.00000000000E+00 -0.00000000000E+00 -0.46304371924E+00  0.46305074066E+00  0.25500000000E-02 0. -1.
         31    1    1    2    0    0 -0.57327499681E-01  0.10598296050E+00  0.58791063849E+02  0.59260970574E+02  0.74470750000E+01 0. -1.
        -31    1    1    2    0    0  0.57327499681E-01 -0.10598296050E+00  0.60573016444E+02  0.61029204206E+02  0.74470750000E+01 0. -1.
<mgrwt>
<rscale>  0 0.14897734E+02</rscale>
<asrwt>0</asrwt>
<pdfrwt beam="2">  1        2 0.98350700E+00 0.14897734E+02</pdfrwt>
<pdfrwt beam="1">  1       -2 0.99464333E+00 0.14897734E+02</pdfrwt>
<totfact>-0.44557336E-13</totfact>
</mgrwt>
</event>
<event>
 4    1 -0.5170493E-019  0.1499269E+02  0.7818608E-02  0.1868292E+00
         -2   -1    0    0    0  501 -0.00000000000E+00  0.00000000000E+00  0.11974386620E+03  0.11974386623E+03  0.25500000000E-02 0. -1.
          2   -1    0    0  501    0  0.00000000000E+00 -0.00000000000E+00 -0.46929163747E+00  0.46929856542E+00  0.25500000000E-02 0.  1.
         31    1    1    2    0    0  0.70815852479E+00 -0.37391797210E-01  0.63510962175E+02  0.63950012737E+02  0.74470750000E+01 0. -1.
        -31    1    1    2    0    0 -0.70815852479E+00  0.37391797210E-01  0.55763612390E+02  0.56263152058E+02  0.74470750000E+01 0. -1.
<mgrwt>
<rscale>  0 0.14992693E+02</rscale>
<asrwt>0</asrwt>
<pdfrwt beam="2">  1        2 0.99672293E+00 0.14992693E+02</pdfrwt>
<pdfrwt beam="1">  1       -2 0.99400656E+00 0.14992693E+02</pdfrwt>
<totfact>-0.91377069E-14</totfact>
</mgrwt>
</event>
<event>
 4    1  0.5170493E-019  0.1491128E+02  0.7818608E-02  0.1870788E+00
          2   -1    0    0  501    0  0.00000000000E+00  0.00000000000E+00  0.11950350137E+03  0.11950350140E+03  0.25500000000E-02 0. -1.
         -2   -1    0    0    0  501 -0.00000000000E+00 -0.00000000000E+00 -0.46514233657E+00  0.46514932631E+00  0.25500000000E-02 0.  1.
         31    1    1    2    0    0  0.10137223910E+00  0.46988452956E-01  0.56789058165E+02  0.57275374617E+02  0.74470750000E+01 0.  1.
        -31    1    1    2    0    0 -0.10137223910E+00 -0.46988452956E-01  0.62249300867E+02  0.62693276104E+02  0.74470750000E+01 0. -1.
<mgrwt>
<rscale>  0 0.14911279E+02</rscale>
<asrwt>0</asrwt>
<pdfrwt beam="1">  1        2 0.99198474E+00 0.14911279E+02</pdfrwt>
<pdfrwt beam="2">  1       -2 0.98793682E+00 0.14911279E+02</pdfrwt>
<totfact> 0.19917491E-13</totfact>
</mgrwt>
</event>
<event>
 4    1 -0.5170493E-019  0.1491824E+02  0.7818608E-02  0.1870574E+00
         -2   -1    0    0    0  501 -0.00000000000E+00  0.00000000000E+00  0.12034463530E+03  0.12034463533E+03  0.25500000000E-02 0.  1.
          2   -1    0    0  501    0  0.00000000000E+00 -0.00000000000E+00 -0.46232260572E+00  0.46232963809E+00  0.25500000000E-02 0. -1.
         31    1    1    2    0    0 -0.87473807710E-01 -0.14123814702E+00  0.63097750942E+02  0.63535916613E+02  0.74470750000E+01 0.  1.
        -31    1    1    2    0    0  0.87473807710E-01  0.14123814702E+00  0.56784561757E+02  0.57271048357E+02  0.74470750000E+01 0. -1.
<mgrwt>
<rscale>  0 0.14918240E+02</rscale>
<asrwt>0</asrwt>
<pdfrwt beam="2">  1        2 0.98199749E+00 0.14918240E+02</pdfrwt>
<pdfrwt beam="1">  1       -2 0.99891651E+00 0.14918240E+02</pdfrwt>
<totfact>-0.20064750E-13</totfact>
</mgrwt>
</event>
<event>
 4    1 -0.5170493E-019  0.1496865E+02  0.7818608E-02  0.1869027E+00
          2   -1    0    0  501    0  0.00000000000E+00  0.00000000000E+00  0.11945697839E+03  0.11945697841E+03  0.25500000000E-02 0. -1.
         -2   -1    0    0    0  501 -0.00000000000E+00 -0.00000000000E+00 -0.46891098368E+00  0.46891791724E+00  0.25500000000E-02 0.  1.
         31    1    1    2    0    0  0.31612792473E+00 -0.41312317556E+00  0.55212602894E+02  0.55714998448E+02  0.74470750000E+01 0.  1.
        -31    1    1    2    0    0 -0.31612792473E+00  0.41312317556E+00  0.63775464508E+02  0.64210897883E+02  0.74470750000E+01 0. -1.
<mgrwt>
<rscale>  0 0.14968648E+02</rscale>
<asrwt>0</asrwt>
<pdfrwt beam="1">  1        2 0.99163122E+00 0.14968648E+02</pdfrwt>
<pdfrwt beam="2">  1       -2 0.99590830E+00 0.14968648E+02</pdfrwt>
<totfact>-0.14738232E-13</totfact>
</mgrwt>
</event>
<event>
 4    1 -0.5170493E-019  0.1498391E+02  0.7818608E-02  0.1868560E+00
         -2   -1    0    0    0  501 -0.00000000000E+00  0.00000000000E+00  0.11994854877E+03  0.11994854880E+03  0.25500000000E-02 0.  1.
          2   -1    0    0  501    0  0.00000000000E+00 -0.00000000000E+00 -0.46794193697E+00  0.46794888489E+00  0.25500000000E-02 0. -1.
         31    1    1    2    0    0  0.37196896792E+00 -0.41005106664E-01  0.65593132550E+02  0.66015589115E+02  0.74470750000E+01 0. -1.
        -31    1    1    2    0    0 -0.37196896792E+00  0.41005106664E-01  0.53887474285E+02  0.54400908569E+02  0.74470750000E+01 0.  1.
<mgrwt>
<rscale>  0 0.14983908E+02</rscale>
<asrwt>0</asrwt>
<pdfrwt beam="2">  1        2 0.99387412E+00 0.14983908E+02</pdfrwt>
<pdfrwt beam="1">  1       -2 0.99568785E+00 0.14983908E+02</pdfrwt>
<totfact>-0.12746779E-13</totfact>
</mgrwt>
</event>
<event>
 4    1 -0.5170493E-019  0.1496566E+02  0.7818608E-02  0.1869118E+00
          2   -1    0    0  501    0  0.00000000000E+00  0.00000000000E+00  0.11913907273E+03  0.11913907276E+03  0.25500000000E-02 0. -1.
         -2   -1    0    0    0  501 -0.00000000000E+00 -0.00000000000E+00 -0.46997421823E+00  0.46998113611E+00  0.25500000000E-02 0.  1.
         31    1    1    2    0    0 -0.80751597774E-01  0.12049839614E-01  0.65137132235E+02  0.65561509957E+02  0.74470750000E+01 0. -1.
        -31    1    1    2    0    0  0.80751597774E-01 -0.12049839614E-01  0.53531966279E+02  0.54047543939E+02  0.74470750000E+01 0.  1.
<mgrwt>
<rscale>  0 0.14965655E+02</rscale>
<asrwt>0</asrwt>
<pdfrwt beam="1">  1        2 0.98901134E+00 0.14965655E+02</pdfrwt>
<pdfrwt beam="2">  1       -2 0.99814716E+00 0.14965655E+02</pdfrwt>
<totfact>-0.11046062E-13</totfact>
</mgrwt>
</event>
<event>
 4    1  0.5170493E-019  0.1491280E+02  0.7818608E-02  0.1870741E+00
         -2   -1    0    0    0  501 -0.00000000000E+00  0.00000000000E+00  0.11862973105E+03  0.11862973108E+03  0.25500000000E-02 0. -1.
          2   -1    0    0  501    0  0.00000000000E+00 -0.00000000000E+00 -0.46866385729E+00  0.46867079452E+00  0.25500000000E-02 0.  1.
         31    1    1    2    0    0 -0.20967311861E+00  0.93386930453E-01  0.56734782257E+02  0.57221911256E+02  0.74470750000E+01 0.  1.
        -31    1    1    2    0    0  0.20967311861E+00 -0.93386930453E-01  0.61426284933E+02  0.61876490614E+02  0.74470750000E+01 0. -1.
<mgrwt>
<rscale>  0 0.14912797E+02</rscale>
<asrwt>0</asrwt>
<pdfrwt beam="2">  1        2 0.99535837E+00 0.14912797E+02</pdfrwt>
<pdfrwt beam="1">  1       -2 0.98478892E+00 0.14912797E+02</pdfrwt>
<totfact> 0.49441664E-13</totfact>
</mgrwt>
</event>
<event>
 4    1 -0.5170493E-019  0.1499357E+02  0.7818608E-02  0.1868265E+00
         -2   -1    0    0    0  501 -0.00000000000E+00  0.00000000000E+00  0.11996199053E+03  0.11996199056E+03  0.25500000000E-02 0. -1.
          2   -1    0    0  501    0  0.00000000000E+00 -0.00000000000E+00 -0.46849290002E+00  0.46849983977E+00  0.25500000000E-02 0.  1.
         31    1    1    2    0    0 -0.52650199677E-01  0.85030583757E+00  0.58698185365E+02  0.59174839951E+02  0.74470750000E+01 0.  1.
        -31    1    1    2    0    0  0.52650199677E-01 -0.85030583757E+00  0.60795312266E+02  0.61255650447E+02  0.74470750000E+01 0.  1.
<mgrwt>
<rscale>  0 0.14993567E+02</rscale>
<asrwt>0</asrwt>
<pdfrwt beam="2">  1        2 0.99504019E+00 0.14993567E+02</pdfrwt>
<pdfrwt beam="1">  1       -2 0.99580356E+00 0.14993567E+02</pdfrwt>
<totfact>-0.11365757E-13</totfact>
</mgrwt>
</event>
<event>
 4    1 -0.5170493E-019  0.1494882E+02  0.7818608E-02  0.1869634E+00
         -2   -1    0    0    0  501 -0.00000000000E+00  0.00000000000E+00  0.12016544710E+03  0.12016544713E+03  0.25500000000E-02 0. -1.
          2   -1    0    0  501    0  0.00000000000E+00 -0.00000000000E+00 -0.46491244557E+00  0.46491943877E+00  0.25500000000E-02 0.  1.
         31    1    1    2    0    0  0.35155544030E+00  0.45536315806E+00  0.57611602975E+02  0.58093774797E+02  0.74470750000E+01 0. -1.
        -31    1    1    2    0    0 -0.35155544030E+00 -0.45536315806E+00  0.62088931678E+02  0.62536591767E+02  0.74470750000E+01 0. -1.
<mgrwt>
<rscale>  0 0.14948824E+02</rscale>
<asrwt>0</asrwt>
<pdfrwt beam="2">  1        2 0.98747152E+00 0.14948824E+02</pdfrwt>
<pdfrwt beam="1">  1       -2 0.99745627E+00 0.14948824E+02</pdfrwt>
<totfact>-0.17107049E-13</totfact>
</mgrwt>
</event>
<event>
 4    1  0.5170493E-019  0.1489796E+02  0.7818608E-02  0.1871198E+00
         -2   -1    0    0    0  501 -0.00000000000E+00  0.00000000000E+00  0.11813235279E+03  0.11813235282E+03  0.25500000000E-02 0.  1.
          2   -1    0    0  501    0  0.00000000000E+00 -0.00000000000E+00 -0.46970121562E+00  0.46970813753E+00  0.25500000000E-02 0. -1.
         31    1    1    2    0    0 -0.11595395140E+00 -0.67415389164E-01  0.59643406381E+02  0.60106678838E+02  0.74470750000E+01 0.  1.
        -31    1    1    2    0    0  0.11595395140E+00  0.67415389164E-01  0.58019245196E+02  0.58495382120E+02  0.74470750000E+01 0. -1.
<mgrwt>
<rscale>  0 0.14897963E+02</rscale>
<asrwt>0</asrwt>
<pdfrwt beam="2">  1        2 0.99753625E+00 0.14897963E+02</pdfrwt>
<pdfrwt beam="1">  1       -2 0.98068482E+00 0.14897963E+02</pdfrwt>
<totfact> 0.80773506E-13</totfact>
</mgrwt>
</event>
<event>
 4    1 -0.5170493E-019  0.1494662E+02  0.7818608E-02  0.1869702E+00
          2   -1    0    0  501    0  0.00000000000E+00  0.00000000000E+00  0.11970462140E+03  0.11970462142E+03  0.25500000000E-02 0. -1.
         -2   -1    0    0    0  501 -0.00000000000E+00 -0.00000000000E+00 -0.46656469656E+00  0.46657166500E+00  0.25500000000E-02 0.  1.
         31    1    1    2    0    0 -0.53768844828E-01 -0.59361902180E+00  0.58089943313E+02  0.58568384943E+02  0.74470750000E+01 0.  1.
        -31    1    1    2    0    0  0.53768844828E-01  0.59361902180E+00  0.61148113388E+02  0.61602808147E+02  0.74470750000E+01 0. -1.
<mgrwt>
<rscale>  0 0.14946621E+02</rscale>
<asrwt>0</asrwt>
<pdfrwt beam="1">  1        2 0.99365950E+00 0.14946621E+02</pdfrwt>
<pdfrwt beam="2">  1       -2 0.99095252E+00 0.14946621E+02</pdfrwt>
<totfact>-0.44636655E-14</totfact>
</mgrwt>
</event>
<event>
 4    1 -0.5170493E-019  0.1501736E+02  0.7818608E-02  0.1867539E+00
          2   -1    0    0  501    0  0.00000000000E+00  0.00000000000E+00  0.11975285402E+03  0.11975285404E+03  0.25500000000E-02 0.  1.
         -2   -1    0    0    0  501 -0.00000000000E+00 -0.00000000000E+00 -0.47080161787E+00  0.47080852360E+00  0.25500000000E-02 0. -1.
         31    1    1    2    0    0 -0.14241802496E+00  0.94388902009E+00  0.58835722908E+02  0.59312835251E+02  0.74470750000E+01 0.  1.
        -31    1    1    2    0    0  0.14241802496E+00 -0.94388902009E+00  0.60446329490E+02  0.60910827315E+02  0.74470750000E+01 0.  1.
<mgrwt>
<rscale>  0 0.15017357E+02</rscale>
<asrwt>0</asrwt>
<pdfrwt beam="1">  1        2 0.99409336E+00 0.15017357E+02</pdfrwt>
<pdfrwt beam="2">  1       -2 0.99991764E+00 0.15017357E+02</pdfrwt>
<totfact>-0.37261679E-15</totfact>
</mgrwt>
</event>
<event>
 4    1 -0.5170493E-019  0.1492013E+02  0.7818608E-02  0.1870516E+00
         -2   -1    0    0    0  501 -0.00000000000E+00  0.00000000000E+00  0.12010074014E+03  0.12010074017E+03  0.25500000000E-02 0. -1.
          2   -1    0    0  501    0  0.00000000000E+00 -0.00000000000E+00 -0.46337903411E+00  0.46338605045E+00  0.25500000000E-02 0.  1.
         31    1    1    2    0    0  0.28758648476E+00  0.18708272633E+00  0.62045735522E+02  0.62491998915E+02  0.74470750000E+01 0. -1.
        -31    1    1    2    0    0 -0.28758648476E+00 -0.18708272633E+00  0.57591625585E+02  0.58072127303E+02  0.74470750000E+01 0.  1.
<mgrwt>
<rscale>  0 0.14920133E+02</rscale>
<asrwt>0</asrwt>
<pdfrwt beam="2">  1        2 0.98422509E+00 0.14920133E+02</pdfrwt>
<pdfrwt beam="1">  1       -2 0.99690855E+00 0.14920133E+02</pdfrwt>
<totfact>-0.32188790E-13</totfact>
</mgrwt>
</event>
<event>
 4    1 -0.5170493E-019  0.1494890E+02  0.7818608E-02  0.1869632E+00
         -2   -1    0    0    0  501 -0.00000000000E+00  0.00000000000E+00  0.11955374317E+03  0.11955374319E+03  0.25500000000E-02 0.  1.
          2   -1    0    0  501    0  0.00000000000E+00 -0.00000000000E+00 -0.46729625090E+00  0.46730320843E+00  0.25500000000E-02 0. -1.
         31    1    1    2    0    0 -0.22970116214E+00 -0.58761964873E+00  0.58722498515E+02  0.59196189213E+02  0.74470750000E+01 0. -1.
        -31    1    1    2    0    0  0.22970116214E+00  0.58761964873E+00  0.60363948400E+02  0.60824857188E+02  0.74470750000E+01 0.  1.
<mgrwt>
<rscale>  0 0.14948904E+02</rscale>
<asrwt>0</asrwt>
<pdfrwt beam="2">  1        2 0.99249535E+00 0.14948904E+02</pdfrwt>
<pdfrwt beam="1">  1       -2 0.99241799E+00 0.14948904E+02</pdfrwt>
<totfact>-0.11087686E-13</totfact>
</mgrwt>
</event>
<event>
 4    1 -0.5170493E-019  0.1499959E+02  0.7818608E-02  0.1868081E+00
          2   -1    0    0  501    0  0.00000000000E+00  0.00000000000E+00  0.11967038852E+03  0.11967038855E+03  0.25500000000E-02 0. -1.
         -2   -1    0    0    0  501 -0.00000000000E+00 -0.00000000000E+00 -0.47001160074E+00  0.47001851807E+00  0.25500000000E-02 0.  1.
         31    1    1    2    0    0  0.13738158734E+00 -0.26363261747E+00  0.52900872758E+02  0.53423306154E+02  0.74470750000E+01 0.  1.
        -31    1    1    2    0    0 -0.13738158734E+00  0.26363261747E+00  0.66299504164E+02  0.66717100913E+02  0.74470750000E+01 0. -1.
<mgrwt>
<rscale>  0 0.14999585E+02</rscale>
<asrwt>0</asrwt>
<pdfrwt beam="1">  1        2 0.99340494E+00 0.14999585E+02</pdfrwt>
<pdfrwt beam="2">  1       -2 0.99824365E+00 0.14999585E+02</pdfrwt>
<totfact>-0.73088869E-14</totfact>
</mgrwt>
</event>
<event>
 4    1 -0.5170493E-019  0.1493251E+02  0.7818608E-02  0.1870135E+00
         -2   -1    0    0    0  501 -0.00000000000E+00  0.00000000000E+00  0.12026064210E+03  0.12026064212E+03  0.25500000000E-02 0.  1.
          2   -1    0    0  501    0  0.00000000000E+00 -0.00000000000E+00 -0.46353078811E+00  0.46353780215E+00  0.25500000000E-02 0. -1.
         31    1    1    2    0    0  0.16958124772E+00  0.38060348093E+00  0.62608934212E+02  0.63051654903E+02  0.74470750000E+01 0.  1.
        -31    1    1    2    0    0 -0.16958124772E+00 -0.38060348093E+00  0.57188177096E+02  0.57672525022E+02  0.74470750000E+01 0. -1.
<mgrwt>
<rscale>  0 0.14932506E+02</rscale>
<asrwt>0</asrwt>
<pdfrwt beam="2">  1        2 0.98455121E+00 0.14932506E+02</pdfrwt>
<pdfrwt beam="1">  1       -2 0.99823199E+00 0.14932506E+02</pdfrwt>
<totfact>-0.20063960E-13</totfact>
</mgrwt>
</event>
<event>
 4    1  0.5170493E-019  0.1490355E+02  0.7818608E-02  0.1871026E+00
         -2   -1    0    0    0  501 -0.00000000000E+00  0.00000000000E+00  0.11849664167E+03  0.11849664169E+03  0.25500000000E-02 0. -1.
          2   -1    0    0  501    0  0.00000000000E+00 -0.00000000000E+00 -0.46860848985E+00  0.46861542789E+00  0.25500000000E-02 0.  1.
         31    1    1    2    0    0 -0.20093800503E+00  0.17092310959E+00  0.59179499899E+02  0.59646808172E+02  0.74470750000E+01 0. -1.
        -31    1    1    2    0    0  0.20093800503E+00 -0.17092310959E+00  0.58848533277E+02  0.59318448948E+02  0.74470750000E+01 0. -1.
<mgrwt>
<rscale>  0 0.14903549E+02</rscale>
<asrwt>0</asrwt>
<pdfrwt beam="2">  1        2 0.99523684E+00 0.14903549E+02</pdfrwt>
<pdfrwt beam="1">  1       -2 0.98368798E+00 0.14903549E+02</pdfrwt>
<totfact> 0.66353495E-13</totfact>
</mgrwt>
</event>
<event>
 4    1 -0.5170493E-019  0.1490029E+02  0.7818608E-02  0.1871127E+00
          2   -1    0    0  501    0  0.00000000000E+00  0.00000000000E+00  0.11872255751E+03  0.11872255753E+03  0.25500000000E-02 0. -1.
         -2   -1    0    0    0  501 -0.00000000000E+00 -0.00000000000E+00 -0.46751215990E+00  0.46751911421E+00  0.25500000000E-02 0.  1.
         31    1    1    2    0    0  0.48602043490E-02 -0.18974151885E+00  0.59915506400E+02  0.60376840417E+02  0.74470750000E+01 0.  1.
        -31    1    1    2    0    0 -0.48602043490E-02  0.18974151885E+00  0.58339538946E+02  0.58813236231E+02  0.74470750000E+01 0.  1.
<mgrwt>
<rscale>  0 0.14900289E+02</rscale>
<asrwt>0</asrwt>
<pdfrwt beam="1">  1        2 0.98554695E+00 0.14900289E+02</pdfrwt>
<pdfrwt beam="2">  1       -2 0.99292505E+00 0.14900289E+02</pdfrwt>
<totfact>-0.27225910E-13</totfact>
</mgrwt>
</event>
<event>
 4    1 -0.5170493E-019  0.1504364E+02  0.7818608E-02  0.1866740E+00
         -2   -1    0    0    0  501 -0.00000000000E+00  0.00000000000E+00  0.12031277692E+03  0.12031277694E+03  0.25500000000E-02 0.  1.
          2   -1    0    0  501    0  0.00000000000E+00 -0.00000000000E+00 -0.47025247481E+00  0.47025938860E+00  0.25500000000E-02 0. -1.
         31    1    1    2    0    0  0.22413334772E+00 -0.16879183327E+00  0.51732836032E+02  0.52266853515E+02  0.74470750000E+01 0. -1.
        -31    1    1    2    0    0 -0.22413334772E+00  0.16879183327E+00  0.68109688410E+02  0.68516182817E+02  0.74470750000E+01 0.  1.
<mgrwt>
<rscale>  0 0.15043643E+02</rscale>
<asrwt>0</asrwt>
<pdfrwt beam="2">  1        2 0.99877410E+00 0.15043643E+02</pdfrwt>
<pdfrwt beam="1">  1       -2 0.99871865E+00 0.15043643E+02</pdfrwt>
<totfact>-0.17801894E-14</totfact>
</mgrwt>
</event>
<event>
 4    1 -0.5170493E-019  0.1489498E+02  0.7818608E-02  0.1871290E+00
          2   -1    0    0  501    0  0.00000000000E+00  0.00000000000E+00  0.11824280705E+03  0.11824280708E+03  0.25500000000E-02 0. -1.
         -2   -1    0    0    0  501 -0.00000000000E+00 -0.00000000000E+00 -0.46907441387E+00  0.46908134502E+00  0.25500000000E-02 0.  1.
         31    1    1    2    0    0  0.55146313230E-01 -0.42091919977E-01  0.58594081390E+02  0.59065473102E+02  0.74470750000E+01 0.  1.
        -31    1    1    2    0    0 -0.55146313230E-01  0.42091919977E-01  0.59179651250E+02  0.59646415324E+02  0.74470750000E+01 0. -1.
<mgrwt>
<rscale>  0 0.14894977E+02</rscale>
<asrwt>0</asrwt>
<pdfrwt beam="1">  1        2 0.98159295E+00 0.14894977E+02</pdfrwt>
<pdfrwt beam="2">  1       -2 0.99621403E+00 0.14894977E+02</pdfrwt>
<totfact>-0.56205091E-13</totfact>
</mgrwt>
</event>
<event>
 4    1  0.5170493E-019  0.1491043E+02  0.7818608E-02  0.1870814E+00
          2   -1    0    0  501    0  0.00000000000E+00  0.00000000000E+00  0.12046019795E+03  0.12046019798E+03  0.25500000000E-02 0. -1.
         -2   -1    0    0    0  501 -0.00000000000E+00 -0.00000000000E+00 -0.46139550709E+00  0.46140255360E+00  0.25500000000E-02 0.  1.
         31    1    1    2    0    0 -0.45097805911E-01 -0.17163163287E+00  0.57569084855E+02  0.58049030555E+02  0.74470750000E+01 0.  1.
        -31    1    1    2    0    0  0.45097805911E-01  0.17163163287E+00  0.62429717592E+02  0.62872569980E+02  0.74470750000E+01 0. -1.
<mgrwt>
<rscale>  0 0.14910429E+02</rscale>
<asrwt>0</asrwt>
<pdfrwt beam="1">  1        2 0.99986440E+00 0.14910429E+02</pdfrwt>
<pdfrwt beam="2">  1       -2 0.98003942E+00 0.14910429E+02</pdfrwt>
<totfact> 0.64316522E-14</totfact>
</mgrwt>
</event>
<event>
 4    1 -0.5170493E-019  0.1492749E+02  0.7818608E-02  0.1870289E+00
         -2   -1    0    0    0  501 -0.00000000000E+00  0.00000000000E+00  0.11989018285E+03  0.11989018288E+03  0.25500000000E-02 0.  1.
          2   -1    0    0  501    0  0.00000000000E+00 -0.00000000000E+00 -0.46465091922E+00  0.46465791636E+00  0.25500000000E-02 0. -1.
         31    1    1    2    0    0  0.40947203080E+00  0.21751646800E+00  0.58234871326E+02  0.58710937186E+02  0.74470750000E+01 0.  1.
        -31    1    1    2    0    0 -0.40947203080E+00 -0.21751646800E+00  0.61190660606E+02  0.61643903609E+02  0.74470750000E+01 0. -1.
<mgrwt>
<rscale>  0 0.14927492E+02</rscale>
<asrwt>0</asrwt>
<pdfrwt beam="2">  1        2 0.98690946E+00 0.14927492E+02</pdfrwt>
<pdfrwt beam="1">  1       -2 0.99517803E+00 0.14927492E+02</pdfrwt>
<totfact>-0.25750419E-13</totfact>
</mgrwt>
</event>
<event>
 4    1 -0.5170493E-019  0.1490792E+02  0.7818608E-02  0.1870891E+00
         -2   -1    0    0    0  501 -0.00000000000E+00  0.00000000000E+00  0.11981985232E+03  0.11981985235E+03  0.25500000000E-02 0.  1.
          2   -1    0    0  501    0  0.00000000000E+00 -0.00000000000E+00 -0.46370533645E+00  0.46371234785E+00  0.25500000000E-02 0. -1.
         31    1    1    2    0    0  0.17328410821E+00  0.89446117542E-01  0.57627767340E+02  0.58107284592E+02  0.74470750000E+01 0.  1.
        -31    1    1    2    0    0 -0.17328410821E+00 -0.89446117542E-01  0.61728379644E+02  0.62176280103E+02  0.74470750000E+01 0.  1.
<mgrwt>
<rscale>  0 0.14907921E+02</rscale>
<asrwt>0</asrwt>
<pdfrwt beam="2">  1        2 0.98490660E+00 0.14907921E+02</pdfrwt>
<pdfrwt beam="1">  1       -2 0.99458867E+00 0.14907921E+02</pdfrwt>
<totfact>-0.35303059E-13</totfact>
</mgrwt>
</event>
<event>
 4    1 -0.5170493E-019  0.1491687E+02  0.7818608E-02  0.1870616E+00
          2   -1    0    0  501    0  0.00000000000E+00  0.00000000000E+00  0.11883767840E+03  0.11883767842E+03  0.25500000000E-02 0.  1.
         -2   -1    0    0    0  501 -0.00000000000E+00 -0.00000000000E+00 -0.46809932698E+00  0.46810627257E+00  0.25500000000E-02 0. -1.
         31    1    1    2    0    0 -0.22570700687E+00 -0.69094246517E-01  0.61880611056E+02  0.62327559462E+02  0.74470750000E+01 0.  1.
        -31    1    1    2    0    0  0.22570700687E+00  0.69094246517E-01  0.56488968012E+02  0.56978225234E+02  0.74470750000E+01 0. -1.
<mgrwt>
<rscale>  0 0.14916870E+02</rscale>
<asrwt>0</asrwt>
<pdfrwt beam="1">  1        2 0.98650370E+00 0.14916870E+02</pdfrwt>
<pdfrwt beam="2">  1       -2 0.99417097E+00 0.14916870E+02</pdfrwt>
<totfact>-0.27148133E-13</totfact>
</mgrwt>
</event>
<event>
 4    1 -0.5170493E-019  0.1494184E+02  0.7818608E-02  0.1869849E+00
         -2   -1    0    0    0  501 -0.00000000000E+00  0.00000000000E+00  0.12003628567E+03  0.12003628570E+03  0.25500000000E-02 0.  1.
          2   -1    0    0  501    0  0.00000000000E+00 -0.00000000000E+00 -0.46497767398E+00  0.46498466620E+00  0.25500000000E-02 0. -1.
         31    1    1    2    0    0 -0.49287726830E+00 -0.38518797213E-01  0.57095405181E+02  0.57581148222E+02  0.74470750000E+01 0.  1.
        -31    1    1    2    0    0  0.49287726830E+00  0.38518797213E-01  0.62475902819E+02  0.62920122146E+02  0.74470750000E+01 0.  1.
<mgrwt>
<rscale>  0 0.14941836E+02</rscale>
<asrwt>0</asrwt>
<pdfrwt beam="2">  1        2 0.98760544E+00 0.14941836E+02</pdfrwt>
<pdfrwt beam="1">  1       -2 0.99638881E+00 0.14941836E+02</pdfrwt>
<totfact>-0.21002702E-13</totfact>
</mgrwt>
</event>
<event>
 4    1 -0.5170493E-019  0.1490525E+02  0.7818608E-02  0.1870974E+00
          2   -1    0    0  501    0  0.00000000000E+00  0.00000000000E+00  0.11889799798E+03  0.11889799801E+03  0.25500000000E-02 0. -1.
         -2   -1    0    0    0  501 -0.00000000000E+00 -0.00000000000E+00 -0.46713315375E+00  0.46714011370E+00  0.25500000000E-02 0.  1.
         31    1    1    2    0    0  0.17280084514E+00  0.16278413906E+00  0.60514868312E+02  0.60971834249E+02  0.74470750000E+01 0. -1.
        -31    1    1    2    0    0 -0.17280084514E+00 -0.16278413906E+00  0.57915996519E+02  0.58393303877E+02  0.74470750000E+01 0.  1.
<mgrwt>
<rscale>  0 0.14905249E+02</rscale>
<asrwt>0</asrwt>
<pdfrwt beam="1">  1        2 0.98699448E+00 0.14905249E+02</pdfrwt>
<pdfrwt beam="2">  1       -2 0.99212901E+00 0.14905249E+02</pdfrwt>
<totfact>-0.17729856E-13</totfact>
</mgrwt>
</event>
<event>
 4    1 -0.5170493E-019  0.1496327E+02  0.7818608E-02  0.1869191E+00
          2   -1    0    0  501    0  0.00000000000E+00  0.00000000000E+00  0.11941862546E+03  0.11941862549E+03  0.25500000000E-02 0.  1.
         -2   -1    0    0    0  501 -0.00000000000E+00 -0.00000000000E+00 -0.46872441518E+00  0.46873135151E+00  0.25500000000E-02 0. -1.
         31    1    1    2    0    0  0.51431272990E+00 -0.49529523463E+00  0.58850119177E+02  0.59323732925E+02  0.74470750000E+01 0.  1.
        -31    1    1    2    0    0 -0.51431272990E+00  0.49529523463E+00  0.60099781872E+02  0.60563623918E+02  0.74470750000E+01 0. -1.
<mgrwt>
<rscale>  0 0.14963267E+02</rscale>
<asrwt>0</asrwt>
<pdfrwt beam="1">  1        2 0.99131255E+00 0.14963267E+02</pdfrwt>
<pdfrwt beam="2">  1       -2 0.99551236E+00 0.14963267E+02</pdfrwt>
<totfact>-0.15597805E-13</totfact>
</mgrwt>
</event>
<event>
 4    1  0.5170493E-019  0.1492073E+02  0.7818608E-02  0.1870497E+00
         -2   -1    0    0    0  501 -0.00000000000E+00  0.00000000000E+00  0.11863318128E+03  0.11863318131E+03  0.25500000000E-02 0.  1.
          2   -1    0    0  501    0  0.00000000000E+00 -0.00000000000E+00 -0.46914886153E+00  0.46915579158E+00  0.25500000000E-02 0. -1.
         31    1    1    2    0    0  0.29900447037E+00  0.32939779830E+00  0.58968110630E+02  0.59438160334E+02  0.74470750000E+01 0. -1.
        -31    1    1    2    0    0 -0.29900447037E+00 -0.32939779830E+00  0.59195921790E+02  0.59664176766E+02  0.74470750000E+01 0. -1.
<mgrwt>
<rscale>  0 0.14920729E+02</rscale>
<asrwt>0</asrwt>
<pdfrwt beam="2">  1        2 0.99638447E+00 0.14920729E+02</pdfrwt>
<pdfrwt beam="1">  1       -2 0.98482145E+00 0.14920729E+02</pdfrwt>
<totfact> 0.42436230E-13</totfact>
</mgrwt>
</event>
<event>
 4    1  0.5170493E-019  0.1494060E+02  0.7818608E-02  0.1869887E+00
         -2   -1    0    0    0  501 -0.00000000000E+00  0.00000000000E+00  0.11878656487E+03  0.11878656490E+03  0.25500000000E-02 0. -1.
          2   -1    0    0  501    0  0.00000000000E+00 -0.00000000000E+00 -0.46979183005E+00  0.46979875062E+00  0.25500000000E-02 0.  1.
         31    1    1    2    0    0 -0.14148560459E+00  0.56136210305E+00  0.58309871658E+02  0.58786352195E+02  0.74470750000E+01 0.  1.
        -31    1    1    2    0    0  0.14148560459E+00 -0.56136210305E+00  0.60006901384E+02  0.60470011455E+02  0.74470750000E+01 0. -1.
<mgrwt>
<rscale>  0 0.14940599E+02</rscale>
<asrwt>0</asrwt>
<pdfrwt beam="2">  1        2 0.99774969E+00 0.14940599E+02</pdfrwt>
<pdfrwt beam="1">  1       -2 0.98609505E+00 0.14940599E+02</pdfrwt>
<totfact> 0.20762243E-13</totfact>
</mgrwt>
</event>
<event>
 4    1 -0.5170493E-019  0.1495409E+02  0.7818608E-02  0.1869473E+00
          2   -1    0    0  501    0  0.00000000000E+00  0.00000000000E+00  0.11883746252E+03  0.11883746255E+03  0.25500000000E-02 0. -1.
         -2   -1    0    0    0  501 -0.00000000000E+00 -0.00000000000E+00 -0.47043927102E+00  0.47044618207E+00  0.25500000000E-02 0.  1.
         31    1    1    2    0    0  0.49097985427E+00  0.41118325292E+00  0.60721565531E+02  0.61179878878E+02  0.74470750000E+01 0. -1.
        -31    1    1    2    0    0 -0.49097985427E+00 -0.41118325292E+00  0.57645457716E+02  0.58128029850E+02  0.74470750000E+01 0.  1.
<mgrwt>
<rscale>  0 0.14954093E+02</rscale>
<asrwt>0</asrwt>
<pdfrwt beam="1">  1        2 0.98652126E+00 0.14954093E+02</pdfrwt>
<pdfrwt beam="2">  1       -2 0.99912098E+00 0.14954093E+02</pdfrwt>
<totfact>-0.79051198E-14</totfact>
</mgrwt>
</event>
<event>
 4    1 -0.5170493E-019  0.1493106E+02  0.7818608E-02  0.1870180E+00
         -2   -1    0    0    0  501 -0.00000000000E+00  0.00000000000E+00  0.11972825718E+03  0.11972825720E+03  0.25500000000E-02 0. -1.
          2   -1    0    0  501    0  0.00000000000E+00 -0.00000000000E+00 -0.46550166538E+00  0.46550864973E+00  0.25500000000E-02 0.  1.
         31    1    1    2    0    0 -0.33255852544E+00 -0.90056373464E-01  0.62815860878E+02  0.63256699323E+02  0.74470750000E+01 0. -1.
        -31    1    1    2    0    0  0.33255852544E+00  0.90056373464E-01  0.56446894634E+02  0.56937066531E+02  0.74470750000E+01 0.  1.
<mgrwt>
<rscale>  0 0.14931058E+02</rscale>
<asrwt>0</asrwt>
<pdfrwt beam="2">  1        2 0.98870424E+00 0.14931058E+02</pdfrwt>
<pdfrwt beam="1">  1       -2 0.99384615E+00 0.14931058E+02</pdfrwt>
<totfact>-0.19817543E-13</totfact>
</mgrwt>
</event>
<event>
 4    1 -0.5170493E-019  0.1490225E+02  0.7818608E-02  0.1871066E+00
          2   -1    0    0  501    0  0.00000000000E+00  0.00000000000E+00  0.11886600542E+03  0.11886600545E+03  0.25500000000E-02 0.  1.
         -2   -1    0    0    0  501 -0.00000000000E+00 -0.00000000000E+00 -0.46707077135E+00  0.46707773224E+00  0.25500000000E-02 0. -1.
         31    1    1    2    0    0 -0.17703682351E+00  0.98658627118E-03  0.57836160085E+02  0.58313906424E+02  0.74470750000E+01 0. -1.
        -31    1    1    2    0    0  0.17703682351E+00 -0.98658627118E-03  0.60562774565E+02  0.61019176756E+02  0.74470750000E+01 0.  1.
<mgrwt>
<rscale>  0 0.14902249E+02</rscale>
<asrwt>0</asrwt>
<pdfrwt beam="1">  1        2 0.98672942E+00 0.14902249E+02</pdfrwt>
<pdfrwt beam="2">  1       -2 0.99199599E+00 0.14902249E+02</pdfrwt>
<totfact>-0.17532981E-13</totfact>
</mgrwt>
</event>
<event>
 4    1  0.5170493E-019  0.1492942E+02  0.7818608E-02  0.1870230E+00
         -2   -1    0    0    0  501 -0.00000000000E+00  0.00000000000E+00  0.11866089237E+03  0.11866089239E+03  0.25500000000E-02 0.  1.
          2   -1    0    0  501    0  0.00000000000E+00 -0.00000000000E+00 -0.46958585684E+00  0.46959278044E+00  0.25500000000E-02 0. -1.
         31    1    1    2    0    0 -0.14167877850E+00 -0.37869390078E+00  0.56578821973E+02  0.57068253030E+02  0.74470750000E+01 0. -1.
        -31    1    1    2    0    0  0.14167877850E+00  0.37869390078E+00  0.61612484536E+02  0.62062232144E+02  0.74470750000E+01 0.  1.
<mgrwt>
<rscale>  0 0.14929419E+02</rscale>
<asrwt>0</asrwt>
<pdfrwt beam="2">  1        2 0.99730981E+00 0.14929419E+02</pdfrwt>
<pdfrwt beam="1">  1       -2 0.98505420E+00 0.14929419E+02</pdfrwt>
<totfact> 0.32690281E-13</totfact>
</mgrwt>
</event>
<event>
 4    1 -0.5170493E-019  0.1498239E+02  0.7818608E-02  0.1868606E+00
         -2   -1    0    0    0  501 -0.00000000000E+00  0.00000000000E+00  0.11996889176E+03  0.11996889179E+03  0.25500000000E-02 0.  1.
          2   -1    0    0  501    0  0.00000000000E+00 -0.00000000000E+00 -0.46776766330E+00  0.46777461381E+00  0.25500000000E-02 0. -1.
         31    1    1    2    0    0 -0.30164149210E+00  0.51898729451E+00  0.55357019437E+02  0.55858919274E+02  0.74470750000E+01 0. -1.
        -31    1    1    2    0    0  0.30164149210E+00 -0.51898729451E+00  0.64144104663E+02  0.64577747131E+02  0.74470750000E+01 0.  1.
<mgrwt>
<rscale>  0 0.14982388E+02</rscale>
<asrwt>0</asrwt>
<pdfrwt beam="2">  1        2 0.99350607E+00 0.14982388E+02</pdfrwt>
<pdfrwt beam="1">  1       -2 0.99585462E+00 0.14982388E+02</pdfrwt>
<totfact>-0.12925265E-13</totfact>
</mgrwt>
</event>
<event>
 4    1 -0.5170493E-019  0.1497006E+02  0.7818608E-02  0.1868984E+00
         -2   -1    0    0    0  501 -0.00000000000E+00  0.00000000000E+00  0.11978877437E+03  0.11978877440E+03  0.25500000000E-02 0. -1.
          2   -1    0    0  501    0  0.00000000000E+00 -0.00000000000E+00 -0.46770023899E+00  0.46770719050E+00  0.25500000000E-02 0.  1.
         31    1    1    2    0    0 -0.35560960557E+00 -0.38832428531E+00  0.55338456980E+02  0.55839779736E+02  0.74470750000E+01 0.  1.
        -31    1    1    2    0    0  0.35560960557E+00  0.38832428531E+00  0.63982617152E+02  0.64416701853E+02  0.74470750000E+01 0. -1.
<mgrwt>
<rscale>  0 0.14970058E+02</rscale>
<asrwt>0</asrwt>
<pdfrwt beam="2">  1        2 0.99335763E+00 0.14970058E+02</pdfrwt>
<pdfrwt beam="1">  1       -2 0.99436473E+00 0.14970058E+02</pdfrwt>
<totfact>-0.13672311E-13</totfact>
</mgrwt>
</event>
<event>
 4    1  0.5170493E-019  0.1492697E+02  0.7818608E-02  0.1870305E+00
         -2   -1    0    0    0  501 -0.00000000000E+00  0.00000000000E+00  0.11903521041E+03  0.11903521044E+03  0.25500000000E-02 0.  1.
          2   -1    0    0  501    0  0.00000000000E+00 -0.00000000000E+00 -0.46795575251E+00  0.46796270023E+00  0.25500000000E-02 0. -1.
         31    1    1    2    0    0  0.39951499956E+00  0.20871399396E+00  0.57652152587E+02  0.58132889123E+02  0.74470750000E+01 0.  1.
        -31    1    1    2    0    0 -0.39951499956E+00 -0.20871399396E+00  0.60915102072E+02  0.61370284016E+02  0.74470750000E+01 0. -1.
<mgrwt>
<rscale>  0 0.14926973E+02</rscale>
<asrwt>0</asrwt>
<pdfrwt beam="2">  1        2 0.99387371E+00 0.14926973E+02</pdfrwt>
<pdfrwt beam="1">  1       -2 0.98813585E+00 0.14926973E+02</pdfrwt>
<totfact> 0.15450061E-13</totfact>
</mgrwt>
</event>
<event>
 4    1 -0.5170493E-019  0.1500128E+02  0.7818608E-02  0.1868030E+00
          2   -1    0    0  501    0  0.00000000000E+00  0.00000000000E+00  0.11952896600E+03  0.11952896603E+03  0.25500000000E-02 0. -1.
         -2   -1    0    0    0  501 -0.00000000000E+00 -0.00000000000E+00 -0.47067380801E+00  0.47068071561E+00  0.25500000000E-02 0.  1.
         31    1    1    2    0    0  0.42051810831E+00 -0.74056650318E+00  0.61725231908E+02  0.62178681671E+02  0.74470750000E+01 0. -1.
        -31    1    1    2    0    0 -0.42051810831E+00  0.74056650318E+00  0.57333060289E+02  0.57820965077E+02  0.74470750000E+01 0.  1.
<mgrwt>
<rscale>  0 0.15001276E+02</rscale>
<asrwt>0</asrwt>
<pdfrwt beam="1">  1        2 0.99224104E+00 0.15001276E+02</pdfrwt>
<pdfrwt beam="2">  1       -2 0.99963993E+00 0.15001276E+02</pdfrwt>
<totfact>-0.18316194E-14</totfact>
</mgrwt>
</event>
<event>
 4    1 -0.5170493E-019  0.1498355E+02  0.7818608E-02  0.1868571E+00
         -2   -1    0    0    0  501 -0.00000000000E+00  0.00000000000E+00  0.12038516654E+03  0.12038516657E+03  0.25500000000E-02 0.  1.
          2   -1    0    0  501    0  0.00000000000E+00 -0.00000000000E+00 -0.46622257078E+00  0.46622954432E+00  0.25500000000E-02 0. -1.
         31    1    1    2    0    0 -0.11814985332E+00  0.80403366427E+00  0.59268025123E+02  0.59739586185E+02  0.74470750000E+01 0.  1.
        -31    1    1    2    0    0  0.11814985332E+00 -0.80403366427E+00  0.60650918845E+02  0.61111809925E+02  0.74470750000E+01 0. -1.
<mgrwt>
<rscale>  0 0.14983552E+02</rscale>
<asrwt>0</asrwt>
<pdfrwt beam="2">  1        2 0.99025041E+00 0.14983552E+02</pdfrwt>
<pdfrwt beam="1">  1       -2 0.99928390E+00 0.14983552E+02</pdfrwt>
<totfact>-0.41564172E-14</totfact>
</mgrwt>
</event>
<event>
 4    1 -0.5170493E-019  0.1494702E+02  0.7818608E-02  0.1869690E+00
          2   -1    0    0  501    0  0.00000000000E+00  0.00000000000E+00  0.11884644064E+03  0.11884644066E+03  0.25500000000E-02 0. -1.
         -2   -1    0    0    0  501 -0.00000000000E+00 -0.00000000000E+00 -0.46995887780E+00  0.46996579590E+00  0.25500000000E-02 0.  1.
         31    1    1    2    0    0 -0.62112842865E+00 -0.92747139176E-01  0.59228640682E+02  0.59698284780E+02  0.74470750000E+01 0. -1.
        -31    1    1    2    0    0  0.62112842865E+00  0.92747139176E-01  0.59147841077E+02  0.59618121680E+02  0.74470750000E+01 0. -1.
<mgrwt>
<rscale>  0 0.14947020E+02</rscale>
<asrwt>0</asrwt>
<pdfrwt beam="1">  1        2 0.98659153E+00 0.14947020E+02</pdfrwt>
<pdfrwt beam="2">  1       -2 0.99810505E+00 0.14947020E+02</pdfrwt>
<totfact>-0.15420328E-13</totfact>
</mgrwt>
</event>
<event>
 4    1 -0.5170493E-019  0.1490071E+02  0.7818608E-02  0.1871114E+00
          2   -1    0    0  501    0  0.00000000000E+00  0.00000000000E+00  0.11849028067E+03  0.11849028069E+03  0.25500000000E-02 0. -1.
         -2   -1    0    0    0  501 -0.00000000000E+00 -0.00000000000E+00 -0.46845514294E+00  0.46846208326E+00  0.25500000000E-02 0.  1.
         31    1    1    2    0    0 -0.21545499884E+00  0.20172625371E-02  0.59405654513E+02  0.59871004159E+02  0.74470750000E+01 0.  1.
        -31    1    1    2    0    0  0.21545499884E+00 -0.20172625371E-02  0.58616171010E+02  0.59087738617E+02  0.74470750000E+01 0. -1.
<mgrwt>
<rscale>  0 0.14900711E+02</rscale>
<asrwt>0</asrwt>
<pdfrwt beam="1">  1        2 0.98363412E+00 0.14900711E+02</pdfrwt>
<pdfrwt beam="2">  1       -2 0.99491224E+00 0.14900711E+02</pdfrwt>
<totfact>-0.43582561E-13</totfact>
</mgrwt>
</event>
<event>
 4    1 -0.5170493E-019  0.1494948E+02  0.7818608E-02  0.1869614E+00
         -2   -1    0    0    0  501 -0.00000000000E+00  0.00000000000E+00  0.11975501510E+03  0.11975501513E+03  0.25500000000E-02 0.  1.
          2   -1    0    0  501    0  0.00000000000E+00 -0.00000000000E+00 -0.46654674388E+00  0.46655371258E+00  0.25500000000E-02 0. -1.
         31    1    1    2    0    0 -0.21329516477E+00  0.24226248908E+00  0.55176688696E+02  0.55677913821E+02  0.74470750000E+01 0. -1.
        -31    1    1    2    0    0  0.21329516477E+00 -0.24226248908E+00  0.64111779660E+02  0.64543655019E+02  0.74470750000E+01 0.  1.
<mgrwt>
<rscale>  0 0.14949479E+02</rscale>
<asrwt>0</asrwt>
<pdfrwt beam="2">  1        2 0.99091615E+00 0.14949479E+02</pdfrwt>
<pdfrwt beam="1">  1       -2 0.99407605E+00 0.14949479E+02</pdfrwt>
<totfact>-0.16184835E-13</totfact>
</mgrwt>
</event>
<event>
 4    1  0.5170493E-019  0.1492818E+02  0.7818608E-02  0.1870268E+00
         -2   -1    0    0    0  501 -0.00000000000E+00  0.00000000000E+00  0.11863458337E+03  0.11863458340E+03  0.25500000000E-02 0.  1.
          2   -1    0    0  501    0  0.00000000000E+00 -0.00000000000E+00 -0.46961176163E+00  0.46961868485E+00  0.25500000000E-02 0. -1.
         31    1    1    2    0    0  0.28901486252E-01 -0.44968460626E+00  0.60877768940E+02  0.61333226954E+02  0.74470750000E+01 0.  1.
        -31    1    1    2    0    0 -0.28901486252E-01  0.44968460626E+00  0.57287202674E+02  0.57770975133E+02  0.74470750000E+01 0. -1.
<mgrwt>
<rscale>  0 0.14928176E+02</rscale>
<asrwt>0</asrwt>
<pdfrwt beam="2">  1        2 0.99736374E+00 0.14928176E+02</pdfrwt>
<pdfrwt beam="1">  1       -2 0.98483688E+00 0.14928176E+02</pdfrwt>
<totfact> 0.34250055E-13</totfact>
</mgrwt>
</event>
<event>
 4    1 -0.5170493E-019  0.1492551E+02  0.7818608E-02  0.1870350E+00
          2   -1    0    0  501    0  0.00000000000E+00  0.00000000000E+00  0.11856843897E+03  0.11856843899E+03  0.25500000000E-02 0. -1.
         -2   -1    0    0    0  501 -0.00000000000E+00 -0.00000000000E+00 -0.46970608271E+00  0.46971300454E+00  0.25500000000E-02 0.  1.
         31    1    1    2    0    0 -0.44159219408E+00 -0.17844404447E+00  0.58384065213E+02  0.58859025160E+02  0.74470750000E+01 0. -1.
        -31    1    1    2    0    0  0.44159219408E+00  0.17844404447E+00  0.59714667670E+02  0.60179126838E+02  0.74470750000E+01 0.  1.
<mgrwt>
<rscale>  0 0.14925512E+02</rscale>
<asrwt>0</asrwt>
<pdfrwt beam="1">  1        2 0.98429073E+00 0.14925512E+02</pdfrwt>
<pdfrwt beam="2">  1       -2 0.99756107E+00 0.14925512E+02</pdfrwt>
<totfact>-0.27027039E-13</totfact>
</mgrwt>
</event>
<event>
 4    1 -0.5170493E-019  0.1494712E+02  0.7818608E-02  0.1869686E+00
          2   -1    0    0  501    0  0.00000000000E+00  0.00000000000E+00  0.11909284872E+03  0.11909284875E+03  0.25500000000E-02 0.  1.
         -2   -1    0    0    0  501 -0.00000000000E+00 -0.00000000000E+00 -0.46899295668E+00  0.46899988903E+00  0.25500000000E-02 0. -1.
         31    1    1    2    0    0  0.45422263453E+00 -0.37133521871E+00  0.61118162174E+02  0.61572988246E+02  0.74470750000E+01 0. -1.
        -31    1    1    2    0    0 -0.45422263453E+00  0.37133521871E+00  0.57505693593E+02  0.57988860394E+02  0.74470750000E+01 0.  1.
<mgrwt>
<rscale>  0 0.14947123E+02</rscale>
<asrwt>0</asrwt>
<pdfrwt beam="1">  1        2 0.98862102E+00 0.14947123E+02</pdfrwt>
<pdfrwt beam="2">  1       -2 0.99606981E+00 0.14947123E+02</pdfrwt>
<totfact>-0.19259319E-13</totfact>
</mgrwt>
</event>
<event>
 4    1 -0.5170493E-019  0.1490880E+02  0.7818608E-02  0.1870864E+00
          2   -1    0    0  501    0  0.00000000000E+00  0.00000000000E+00  0.11889157327E+03  0.11889157330E+03  0.25500000000E-02 0. -1.
         -2   -1    0    0    0  501 -0.00000000000E+00 -0.00000000000E+00 -0.46738119973E+00  0.46738815599E+00  0.25500000000E-02 0.  1.
         31    1    1    2    0    0 -0.38019655668E-01  0.32339879313E+00  0.59661043147E+02  0.60124911873E+02  0.74470750000E+01 0. -1.
        -31    1    1    2    0    0  0.38019655668E-01 -0.32339879313E+00  0.58763148927E+02  0.59234049584E+02  0.74470750000E+01 0. -1.
<mgrwt>
<rscale>  0 0.14908803E+02</rscale>
<asrwt>0</asrwt>
<pdfrwt beam="1">  1        2 0.98694340E+00 0.14908803E+02</pdfrwt>
<pdfrwt beam="2">  1       -2 0.99265354E+00 0.14908803E+02</pdfrwt>
<totfact>-0.20801482E-13</totfact>
</mgrwt>
</event>
<event>
 4    1  0.5170493E-019  0.1492179E+02  0.7818608E-02  0.1870465E+00
         -2   -1    0    0    0  501 -0.00000000000E+00  0.00000000000E+00  0.11857746792E+03  0.11857746795E+03  0.25500000000E-02 0. -1.
          2   -1    0    0  501    0  0.00000000000E+00 -0.00000000000E+00 -0.46943597957E+00  0.46944290538E+00  0.25500000000E-02 0.  1.
         31    1    1    2    0    0 -0.60645426007E-01  0.53607987559E-01  0.55490886282E+02  0.55988426823E+02  0.74470750000E+01 0.  1.
        -31    1    1    2    0    0  0.60645426007E-01 -0.53607987559E-01  0.62617145656E+02  0.63058484028E+02  0.74470750000E+01 0. -1.
<mgrwt>
<rscale>  0 0.14921789E+02</rscale>
<asrwt>0</asrwt>
<pdfrwt beam="2">  1        2 0.99699000E+00 0.14921789E+02</pdfrwt>
<pdfrwt beam="1">  1       -2 0.98436315E+00 0.14921789E+02</pdfrwt>
<totfact> 0.42605349E-13</totfact>
</mgrwt>
</event>
<event>
 4    1  0.5170493E-019  0.1492732E+02  0.7818608E-02  0.1870294E+00
         -2   -1    0    0    0  501 -0.00000000000E+00  0.00000000000E+00  0.11901953942E+03  0.11901953945E+03  0.25500000000E-02 0. -1.
          2   -1    0    0  501    0  0.00000000000E+00 -0.00000000000E+00 -0.46803939284E+00  0.46804633931E+00  0.25500000000E-02 0.  1.
         31    1    1    2    0    0 -0.47016247717E+00 -0.14963125692E+00  0.59774437666E+02  0.60238573744E+02  0.74470750000E+01 0. -1.
        -31    1    1    2    0    0  0.47016247717E+00  0.14963125692E+00  0.58777062365E+02  0.59249012048E+02  0.74470750000E+01 0. -1.
<mgrwt>
<rscale>  0 0.14927324E+02</rscale>
<asrwt>0</asrwt>
<pdfrwt beam="2">  1        2 0.99405014E+00 0.14927324E+02</pdfrwt>
<pdfrwt beam="1">  1       -2 0.98800696E+00 0.14927324E+02</pdfrwt>
<totfact> 0.16433068E-13</totfact>
</mgrwt>
</event>
<event>
 4    1 -0.5170493E-019  0.1491037E+02  0.7818608E-02  0.1870816E+00
          2   -1    0    0  501    0  0.00000000000E+00  0.00000000000E+00  0.11837891536E+03  0.11837891539E+03  0.25500000000E-02 0. -1.
         -2   -1    0    0    0  501 -0.00000000000E+00 -0.00000000000E+00 -0.46950404600E+00  0.46951097081E+00  0.25500000000E-02 0.  1.
         31    1    1    2    0    0 -0.75172018987E-01  0.30632469891E+00  0.60120227701E+02  0.60580526496E+02  0.74470750000E+01 0. -1.
        -31    1    1    2    0    0  0.75172018987E-01 -0.30632469891E+00  0.57789183617E+02  0.58267899867E+02  0.74470750000E+01 0.  1.
<mgrwt>
<rscale>  0 0.14910371E+02</rscale>
<asrwt>0</asrwt>
<pdfrwt beam="1">  1        2 0.98272194E+00 0.14910371E+02</pdfrwt>
<pdfrwt beam="2">  1       -2 0.99712739E+00 0.14910371E+02</pdfrwt>
<totfact>-0.39503199E-13</totfact>
</mgrwt>
</event>
<event>
 4    1 -0.5170493E-019  0.1494587E+02  0.7818608E-02  0.1869725E+00
          2   -1    0    0  501    0  0.00000000000E+00  0.00000000000E+00  0.11905270923E+03  0.11905270926E+03  0.25500000000E-02 0.  1.
         -2   -1    0    0    0  501 -0.00000000000E+00 -0.00000000000E+00 -0.46907243660E+00  0.46907936778E+00  0.25500000000E-02 0. -1.
         31    1    1    2    0    0  0.54803223623E+00  0.78848839820E-01  0.57040165464E+02  0.57526915080E+02  0.74470750000E+01 0. -1.
        -31    1    1    2    0    0 -0.54803223623E+00 -0.78848839820E-01  0.61543471330E+02  0.61994873545E+02  0.74470750000E+01 0. -1.
<mgrwt>
<rscale>  0 0.14945870E+02</rscale>
<asrwt>0</asrwt>
<pdfrwt beam="1">  1        2 0.98828977E+00 0.14945870E+02</pdfrwt>
<pdfrwt beam="2">  1       -2 0.99623663E+00 0.14945870E+02</pdfrwt>
<totfact>-0.19640735E-13</totfact>
</mgrwt>
</event>
<event>
 4    1  0.5170493E-019  0.1490501E+02  0.7818608E-02  0.1870981E+00
         -2   -1    0    0    0  501 -0.00000000000E+00  0.00000000000E+00  0.11873241459E+03  0.11873241462E+03  0.25500000000E-02 0. -1.
          2   -1    0    0  501    0  0.00000000000E+00 -0.00000000000E+00 -0.46776952070E+00  0.46777647119E+00  0.25500000000E-02 0.  1.
         31    1    1    2    0    0  0.73346226557E-01 -0.26644967900E+00  0.58594691084E+02  0.59066683709E+02  0.74470750000E+01 0.  1.
        -31    1    1    2    0    0 -0.73346226557E-01  0.26644967900E+00  0.59669953987E+02  0.60133507381E+02  0.74470750000E+01 0. -1.
<mgrwt>
<rscale>  0 0.14905009E+02</rscale>
<asrwt>0</asrwt>
<pdfrwt beam="2">  1        2 0.99346982E+00 0.14905009E+02</pdfrwt>
<pdfrwt beam="1">  1       -2 0.98563058E+00 0.14905009E+02</pdfrwt>
<totfact> 0.45856274E-13</totfact>
</mgrwt>
</event>
<event>
 4    1 -0.5170493E-019  0.1489914E+02  0.7818608E-02  0.1871162E+00
          2   -1    0    0  501    0  0.00000000000E+00  0.00000000000E+00  0.11856358618E+03  0.11856358620E+03  0.25500000000E-02 0. -1.
         -2   -1    0    0    0  501 -0.00000000000E+00 -0.00000000000E+00 -0.46806675144E+00  0.46807369752E+00  0.25500000000E-02 0.  1.
         31    1    1    2    0    0  0.17263291933E-01  0.18281234215E+00  0.58578963568E+02  0.59050720716E+02  0.74470750000E+01 0.  1.
        -31    1    1    2    0    0 -0.17263291933E-01 -0.18281234215E+00  0.59516555857E+02  0.59980939185E+02  0.74470750000E+01 0.  1.
<mgrwt>
<rscale>  0 0.14899139E+02</rscale>
<asrwt>0</asrwt>
<pdfrwt beam="1">  1        2 0.98423705E+00 0.14899139E+02</pdfrwt>
<pdfrwt beam="2">  1       -2 0.99409304E+00 0.14899139E+02</pdfrwt>
<totfact>-0.38734860E-13</totfact>
</mgrwt>
</event>
<event>
 4    1 -0.5170493E-019  0.1496650E+02  0.7818608E-02  0.1869093E+00
         -2   -1    0    0    0  501 -0.00000000000E+00  0.00000000000E+00  0.11934122145E+03  0.11934122148E+03  0.25500000000E-02 0. -1.
          2   -1    0    0  501    0  0.00000000000E+00 -0.00000000000E+00 -0.46923090694E+00  0.46923783578E+00  0.25500000000E-02 0.  1.
         31    1    1    2    0    0  0.45569787530E+00 -0.14996545561E+00  0.63892623528E+02  0.64326949387E+02  0.74470750000E+01 0. -1.
        -31    1    1    2    0    0 -0.45569787530E+00  0.14996545561E+00  0.54979367015E+02  0.55483509925E+02  0.74470750000E+01 0.  1.
<mgrwt>
<rscale>  0 0.14966497E+02</rscale>
<asrwt>0</asrwt>
<pdfrwt beam="2">  1        2 0.99658132E+00 0.14966497E+02</pdfrwt>
<pdfrwt beam="1">  1       -2 0.99067670E+00 0.14966497E+02</pdfrwt>
<totfact>-0.21722007E-14</totfact>
</mgrwt>
</event>
<event>
 4    1 -0.5170493E-019  0.1501414E+02  0.7818608E-02  0.1867637E+00
          2   -1    0    0  501    0  0.00000000000E+00  0.00000000000E+00  0.12006200811E+03  0.12006200814E+03  0.25500000000E-02 0.  1.
         -2   -1    0    0    0  501 -0.00000000000E+00 -0.00000000000E+00 -0.46938829152E+00  0.46939521804E+00  0.25500000000E-02 0. -1.
         31    1    1    2    0    0 -0.92579405910E+00  0.17669507617E+00  0.60552723410E+02  0.61016223697E+02  0.74470750000E+01 0. -1.
        -31    1    1    2    0    0  0.92579405910E+00 -0.17669507617E+00  0.59039896412E+02  0.59515179662E+02  0.74470750000E+01 0.  1.
<mgrwt>
<rscale>  0 0.15014143E+02</rscale>
<asrwt>0</asrwt>
<pdfrwt beam="1">  1        2 0.99663797E+00 0.15014143E+02</pdfrwt>
<pdfrwt beam="2">  1       -2 0.99693772E+00 0.15014143E+02</pdfrwt>
<totfact>-0.77045283E-14</totfact>
</mgrwt>
</event>
<event>
 4    1  0.5170493E-019  0.1493067E+02  0.7818608E-02  0.1870192E+00
          2   -1    0    0  501    0  0.00000000000E+00  0.00000000000E+00  0.11973841692E+03  0.11973841695E+03  0.25500000000E-02 0.  1.
         -2   -1    0    0    0  501 -0.00000000000E+00 -0.00000000000E+00 -0.46543788916E+00  0.46544487447E+00  0.25500000000E-02 0. -1.
         31    1    1    2    0    0  0.54316588618E-02 -0.48523068342E+00  0.61181176250E+02  0.61634655282E+02  0.74470750000E+01 0.  1.
        -31    1    1    2    0    0 -0.54316588618E-02  0.48523068342E+00  0.58091802780E+02  0.58569206539E+02  0.74470750000E+01 0.  1.
<mgrwt>
<rscale>  0 0.14930669E+02</rscale>
<asrwt>0</asrwt>
<pdfrwt beam="1">  1        2 0.99392963E+00 0.14930669E+02</pdfrwt>
<pdfrwt beam="2">  1       -2 0.98856964E+00 0.14930669E+02</pdfrwt>
<totfact> 0.11509331E-13</totfact>
</mgrwt>
</event>
<event>
 4    1  0.5170493E-019  0.1490951E+02  0.7818608E-02  0.1870842E+00
          2   -1    0    0  501    0  0.00000000000E+00  0.00000000000E+00  0.12012150465E+03  0.12012150468E+03  0.25500000000E-02 0. -1.
         -2   -1    0    0    0  501 -0.00000000000E+00 -0.00000000000E+00 -0.46263947642E+00  0.46264650398E+00  0.25500000000E-02 0.  1.
         31    1    1    2    0    0  0.10489803866E+00 -0.30343921528E+00  0.60691842346E+02  0.61147867767E+02  0.74470750000E+01 0.  1.
        -31    1    1    2    0    0 -0.10489803866E+00  0.30343921528E+00  0.58967022828E+02  0.59436283415E+02  0.74470750000E+01 0. -1.
<mgrwt>
<rscale>  0 0.14909510E+02</rscale>
<asrwt>0</asrwt>
<pdfrwt beam="1">  1        2 0.99707413E+00 0.14909510E+02</pdfrwt>
<pdfrwt beam="2">  1       -2 0.98266096E+00 0.14909510E+02</pdfrwt>
<totfact> 0.62190948E-13</totfact>
</mgrwt>
</event>
<event>
 4    1 -0.5170493E-019  0.1498308E+02  0.7818608E-02  0.1868585E+00
         -2   -1    0    0    0  501 -0.00000000000E+00  0.00000000000E+00  0.12009778803E+03  0.12009778806E+03  0.25500000000E-02 0. -1.
          2   -1    0    0  501    0  0.00000000000E+00 -0.00000000000E+00 -0.46730897430E+00  0.46731593164E+00  0.25500000000E-02 0.  1.
         31    1    1    2    0    0  0.21465508124E+00 -0.11069517384E+00  0.66078995815E+02  0.66497751422E+02  0.74470750000E+01 0.  1.
        -31    1    1    2    0    0 -0.21465508124E+00  0.11069517384E+00  0.53551483242E+02  0.54067352568E+02  0.74470750000E+01 0.  1.
<mgrwt>
<rscale>  0 0.14983083E+02</rscale>
<asrwt>0</asrwt>
<pdfrwt beam="2">  1        2 0.99253978E+00 0.14983083E+02</pdfrwt>
<pdfrwt beam="1">  1       -2 0.99691663E+00 0.14983083E+02</pdfrwt>
<totfact>-0.11869517E-13</totfact>
</mgrwt>
</event>
<event>
 4    1 -0.5170493E-019  0.1493517E+02  0.7818608E-02  0.1870053E+00
         -2   -1    0    0    0  501 -0.00000000000E+00  0.00000000000E+00  0.11995151822E+03  0.11995151825E+03  0.25500000000E-02 0.  1.
          2   -1    0    0  501    0  0.00000000000E+00 -0.00000000000E+00 -0.46489120356E+00  0.46489819708E+00  0.25500000000E-02 0. -1.
         31    1    1    2    0    0 -0.31212667315E+00  0.10116786831E+00  0.56153466889E+02  0.56646080427E+02  0.74470750000E+01 0. -1.
        -31    1    1    2    0    0  0.31212667315E+00 -0.10116786831E+00  0.63333160126E+02  0.63770336016E+02  0.74470750000E+01 0.  1.
<mgrwt>
<rscale>  0 0.14935170E+02</rscale>
<asrwt>0</asrwt>
<pdfrwt beam="2">  1        2 0.98741979E+00 0.14935170E+02</pdfrwt>
<pdfrwt beam="1">  1       -2 0.99568718E+00 0.14935170E+02</pdfrwt>
<totfact>-0.23283384E-13</totfact>
</mgrwt>
</event>
<event>
 4    1 -0.5170493E-019  0.1494371E+02  0.7818608E-02  0.1869791E+00
         -2   -1    0    0    0  501 -0.00000000000E+00  0.00000000000E+00  0.12013693301E+03  0.12013693304E+03  0.25500000000E-02 0.  1.
          2   -1    0    0  501    0  0.00000000000E+00 -0.00000000000E+00 -0.46470460203E+00  0.46471159836E+00  0.25500000000E-02 0. -1.
         31    1    1    2    0    0 -0.23525138910E+00  0.55985445943E+00  0.60078612034E+02  0.60541451338E+02  0.74470750000E+01 0.  1.
        -31    1    1    2    0    0  0.23525138910E+00 -0.55985445943E+00  0.59593616374E+02  0.60060193296E+02  0.74470750000E+01 0. -1.
<mgrwt>
<rscale>  0 0.14943709E+02</rscale>
<asrwt>0</asrwt>
<pdfrwt beam="2">  1        2 0.98703087E+00 0.14943709E+02</pdfrwt>
<pdfrwt beam="1">  1       -2 0.99721878E+00 0.14943709E+02</pdfrwt>
<totfact>-0.19370794E-13</totfact>
</mgrwt>
</event>
<event>
 4    1 -0.5170493E-019  0.1497054E+02  0.7818608E-02  0.1868969E+00
         -2   -1    0    0    0  501 -0.00000000000E+00  0.00000000000E+00  0.12020687157E+03  0.12020687160E+03  0.25500000000E-02 0.  1.
          2   -1    0    0  501    0  0.00000000000E+00 -0.00000000000E+00 -0.46610339698E+00  0.46611037232E+00  0.25500000000E-02 0. -1.
         31    1    1    2    0    0  0.70017083833E+00 -0.60394004105E-01  0.62099002753E+02  0.62547893295E+02  0.74470750000E+01 0.  1.
        -31    1    1    2    0    0 -0.70017083833E+00  0.60394004105E-01  0.57641765419E+02  0.58125088673E+02  0.74470750000E+01 0. -1.
<mgrwt>
<rscale>  0 0.14970538E+02</rscale>
<asrwt>0</asrwt>
<pdfrwt beam="2">  1        2 0.98999260E+00 0.14970538E+02</pdfrwt>
<pdfrwt beam="1">  1       -2 0.99780865E+00 0.14970538E+02</pdfrwt>
<totfact>-0.11419126E-13</totfact>
</mgrwt>
</event>
<event>
 4    1  0.5170493E-019  0.1492786E+02  0.7818608E-02  0.1870278E+00
         -2   -1    0    0    0  501 -0.00000000000E+00  0.00000000000E+00  0.11868408524E+03  0.11868408527E+03  0.25500000000E-02 0. -1.
          2   -1    0    0  501    0  0.00000000000E+00 -0.00000000000E+00 -0.46939625307E+00  0.46940317947E+00  0.25500000000E-02 0.  1.
         31    1    1    2    0    0  0.14464161960E+00  0.15712724008E+00  0.55486819049E+02  0.55984744568E+02  0.74470750000E+01 0.  1.
        -31    1    1    2    0    0 -0.14464161960E+00 -0.15712724008E+00  0.62727869940E+02  0.63168743881E+02  0.74470750000E+01 0. -1.
<mgrwt>
<rscale>  0 0.14927864E+02</rscale>
<asrwt>0</asrwt>
<pdfrwt beam="2">  1        2 0.99690949E+00 0.14927864E+02</pdfrwt>
<pdfrwt beam="1">  1       -2 0.98524441E+00 0.14927864E+02</pdfrwt>
<totfact> 0.34028285E-13</totfact>
</mgrwt>
</event>
<event>
 4    1  0.5170493E-019  0.1492970E+02  0.7818608E-02  0.1870221E+00
          2   -1    0    0  501    0  0.00000000000E+00  0.00000000000E+00  0.12001032316E+03  0.12001032319E+03  0.25500000000E-02 0.  1.
         -2   -1    0    0    0  501 -0.00000000000E+00 -0.00000000000E+00 -0.46432276891E+00  0.46432977099E+00  0.25500000000E-02 0. -1.
         31    1    1    2    0    0  0.42704441878E+00 -0.22941808412E+00  0.58374784767E+02  0.58849888889E+02  0.74470750000E+01 0. -1.
        -31    1    1    2    0    0 -0.42704441878E+00  0.22941808412E+00  0.61171215625E+02  0.61624764070E+02  0.74470750000E+01 0.  1.
<mgrwt>
<rscale>  0 0.14929695E+02</rscale>
<asrwt>0</asrwt>
<pdfrwt beam="1">  1        2 0.99616872E+00 0.14929695E+02</pdfrwt>
<pdfrwt beam="2">  1       -2 0.98621899E+00 0.14929695E+02</pdfrwt>
<totfact> 0.28544293E-13</totfact>
</mgrwt>
</event>
<event>
 4    1  0.5170493E-019  0.1495670E+02  0.7818608E-02  0.1869393E+00
          2   -1    0    0  501    0  0.00000000000E+00  0.00000000000E+00  0.12040594427E+03  0.12040594429E+03  0.25500000000E-02 0.  1.
         -2   -1    0    0    0  501 -0.00000000000E+00 -0.00000000000E+00 -0.46447298800E+00  0.46447998781E+00  0.25500000000E-02 0. -1.
         31    1    1    2    0    0 -0.35087776581E+00  0.17228090665E+00  0.64499262149E+02  0.64928934534E+02  0.74470750000E+01 0.  1.
        -31    1    1    2    0    0  0.35087776581E+00 -0.17228090665E+00  0.55442209128E+02  0.55941489746E+02  0.74470750000E+01 0. -1.
<mgrwt>
<rscale>  0 0.14956702E+02</rscale>
<asrwt>0</asrwt>
<pdfrwt beam="1">  1        2 0.99944124E+00 0.14956702E+02</pdfrwt>
<pdfrwt beam="2">  1       -2 0.98654931E+00 0.14956702E+02</pdfrwt>
<totfact> 0.52861180E-14</totfact>
</mgrwt>
</event>
<event>
 4    1  0.5170493E-019  0.1493450E+02  0.7818608E-02  0.1870074E+00
          2   -1    0    0  501    0  0.00000000000E+00  0.00000000000E+00  0.12013275341E+03  0.12013275344E+03  0.25500000000E-02 0. -1.
         -2   -1    0    0    0  501 -0.00000000000E+00 -0.00000000000E+00 -0.46414835613E+00  0.46415536084E+00  0.25500000000E-02 0.  1.
         31    1    1    2    0    0  0.37226658907E+00 -0.22915342700E+00  0.57158250566E+02  0.57643001548E+02  0.74470750000E+01 0.  1.
        -31    1    1    2    0    0 -0.37226658907E+00  0.22915342700E+00  0.62510354491E+02  0.62953907252E+02  0.74470750000E+01 0. -1.
<mgrwt>
<rscale>  0 0.14934503E+02</rscale>
<asrwt>0</asrwt>
<pdfrwt beam="1">  1        2 0.99717962E+00 0.14934503E+02</pdfrwt>
<pdfrwt beam="2">  1       -2 0.98585384E+00 0.14934503E+02</pdfrwt>
<totfact> 0.26489815E-13</totfact>
</mgrwt>
</event>
<event>
 4    1 -0.5170493E-019  0.1498719E+02  0.7818608E-02  0.1868460E+00
         -2   -1    0    0    0  501 -0.00000000000E+00  0.00000000000E+00  0.12018415248E+03  0.12018415251E+03  0.25500000000E-02 0.  1.
          2   -1    0    0  501    0  0.00000000000E+00 -0.00000000000E+00 -0.46722900159E+00  0.46723596012E+00  0.25500000000E-02 0. -1.
         31    1    1    2    0    0  0.25509481775E+00 -0.61922691363E+00  0.55861572964E+02  0.56359762024E+02  0.74470750000E+01 0. -1.
        -31    1    1    2    0    0 -0.25509481775E+00  0.61922691363E+00  0.63855350519E+02  0.64291626448E+02  0.74470750000E+01 0.  1.
<mgrwt>
<rscale>  0 0.14987187E+02</rscale>
<asrwt>0</asrwt>
<pdfrwt beam="2">  1        2 0.99237334E+00 0.14987187E+02</pdfrwt>
<pdfrwt beam="1">  1       -2 0.99763010E+00 0.14987187E+02</pdfrwt>
<totfact>-0.99973641E-14</totfact>
</mgrwt>
</event>
<event>
 4    1  0.5170493E-019  0.1493307E+02  0.7818608E-02  0.1870118E+00
          2   -1    0    0  501    0  0.00000000000E+00  0.00000000000E+00  0.12006868709E+03  0.12006868711E+03  0.25500000000E-02 0.  1.
         -2   -1    0    0    0  501 -0.00000000000E+00 -0.00000000000E+00 -0.46430672091E+00  0.46431372324E+00  0.25500000000E-02 0. -1.
         31    1    1    2    0    0  0.18147102693E+00  0.44248375450E+00  0.61803419727E+02  0.62252311922E+02  0.74470750000E+01 0.  1.
        -31    1    1    2    0    0 -0.18147102693E+00 -0.44248375450E+00  0.57800960640E+02  0.58280688916E+02  0.74470750000E+01 0. -1.
<mgrwt>
<rscale>  0 0.14933067E+02</rscale>
<asrwt>0</asrwt>
<pdfrwt beam="1">  1        2 0.99665118E+00 0.14933067E+02</pdfrwt>
<pdfrwt beam="2">  1       -2 0.98618688E+00 0.14933067E+02</pdfrwt>
<totfact> 0.26557859E-13</totfact>
</mgrwt>
</event>
<event>
 4    1 -0.5170493E-019  0.1493447E+02  0.7818608E-02  0.1870075E+00
          2   -1    0    0  501    0  0.00000000000E+00  0.00000000000E+00  0.11903785232E+03  0.11903785234E+03  0.25500000000E-02 0. -1.
         -2   -1    0    0    0  501 -0.00000000000E+00 -0.00000000000E+00 -0.46841564357E+00  0.46842258447E+00  0.25500000000E-02 0.  1.
         31    1    1    2    0    0 -0.42976793326E+00 -0.29029475743E+00  0.60709688601E+02  0.61166937046E+02  0.74470750000E+01 0. -1.
        -31    1    1    2    0    0  0.42976793326E+00  0.29029475743E+00  0.57859748072E+02  0.58339337883E+02  0.74470750000E+01 0.  1.
<mgrwt>
<rscale>  0 0.14934471E+02</rscale>
<asrwt>0</asrwt>
<pdfrwt beam="1">  1        2 0.98816150E+00 0.14934471E+02</pdfrwt>
<pdfrwt beam="2">  1       -2 0.99484670E+00 0.14934471E+02</pdfrwt>
<totfact>-0.21917049E-13</totfact>
</mgrwt>
</event>
<event>
 4    1  0.5170493E-019  0.1491801E+02  0.7818608E-02  0.1870581E+00
         -2   -1    0    0    0  501 -0.00000000000E+00  0.00000000000E+00  0.11844482564E+03  0.11844482567E+03  0.25500000000E-02 0.  1.
          2   -1    0    0  501    0  0.00000000000E+00 -0.00000000000E+00 -0.46972339649E+00  0.46973031806E+00  0.25500000000E-02 0. -1.
         31    1    1    2    0    0  0.39070053993E+00 -0.15809762736E+00  0.58889554108E+02  0.59360055179E+02  0.74470750000E+01 0.  1.
        -31    1    1    2    0    0 -0.39070053993E+00  0.15809762736E+00  0.59085548137E+02  0.59554500808E+02  0.74470750000E+01 0.  1.
<mgrwt>
<rscale>  0 0.14918005E+02</rscale>
<asrwt>0</asrwt>
<pdfrwt beam="2">  1        2 0.99759359E+00 0.14918005E+02</pdfrwt>
<pdfrwt beam="1">  1       -2 0.98326875E+00 0.14918005E+02</pdfrwt>
<totfact> 0.47392700E-13</totfact>
</mgrwt>
</event>
<event>
 4    1 -0.5170493E-019  0.1494390E+02  0.7818608E-02  0.1869785E+00
         -2   -1    0    0    0  501 -0.00000000000E+00  0.00000000000E+00  0.11964485417E+03  0.11964485419E+03  0.25500000000E-02 0.  1.
          2   -1    0    0  501    0  0.00000000000E+00 -0.00000000000E+00 -0.46662801546E+00  0.46663498295E+00  0.25500000000E-02 0. -1.
         31    1    1    2    0    0 -0.10229155052E+00  0.59088307448E+00  0.60452105528E+02  0.60912031612E+02  0.74470750000E+01 0.  1.
        -31    1    1    2    0    0  0.10229155052E+00 -0.59088307448E+00  0.58726120623E+02  0.59199457564E+02  0.74470750000E+01 0. -1.
<mgrwt>
<rscale>  0 0.14943903E+02</rscale>
<asrwt>0</asrwt>
<pdfrwt beam="2">  1        2 0.99108455E+00 0.14943903E+02</pdfrwt>
<pdfrwt beam="1">  1       -2 0.99316583E+00 0.14943903E+02</pdfrwt>
<totfact>-0.14491519E-13</totfact>
</mgrwt>
</event>
<event>
 4    1 -0.5170493E-019  0.1499858E+02  0.7818608E-02  0.1868112E+00
          2   -1    0    0  501    0  0.00000000000E+00  0.00000000000E+00  0.11988509834E+03  0.11988509837E+03  0.25500000000E-02 0. -1.
         -2   -1    0    0    0  501 -0.00000000000E+00 -0.00000000000E+00 -0.46910696426E+00  0.46911389493E+00  0.25500000000E-02 0.  1.
         31    1    1    2    0    0 -0.19233639374E+00  0.34695103339E+00  0.53374030316E+02  0.53892517166E+02  0.74470750000E+01 0.  1.
        -31    1    1    2    0    0  0.19233639374E+00 -0.34695103339E+00  0.66041961061E+02  0.66461695097E+02  0.74470750000E+01 0. -1.
<mgrwt>
<rscale>  0 0.14998580E+02</rscale>
<asrwt>0</asrwt>
<pdfrwt beam="1">  1        2 0.99517283E+00 0.14998580E+02</pdfrwt>
<pdfrwt beam="2">  1       -2 0.99633682E+00 0.14998580E+02</pdfrwt>
<totfact>-0.10546050E-13</totfact>
</mgrwt>
</event>
<event>
 4    1 -0.5170493E-019  0.1498565E+02  0.7818608E-02  0.1868507E+00
          2   -1    0    0  501    0  0.00000000000E+00  0.00000000000E+00  0.11949247772E+03  0.11949247775E+03  0.25500000000E-02 0. -1.
         -2   -1    0    0    0  501 -0.00000000000E+00 -0.00000000000E+00 -0.46983688459E+00  0.46984380449E+00  0.25500000000E-02 0.  1.
         31    1    1    2    0    0  0.71367914260E+00  0.19633832671E+00  0.62458883731E+02  0.62905635436E+02  0.74470750000E+01 0. -1.
        -31    1    1    2    0    0 -0.71367914260E+00 -0.19633832671E+00  0.56563757105E+02  0.57056686116E+02  0.74470750000E+01 0.  1.
<mgrwt>
<rscale>  0 0.14985645E+02</rscale>
<asrwt>0</asrwt>
<pdfrwt beam="1">  1        2 0.99193241E+00 0.14985645E+02</pdfrwt>
<pdfrwt beam="2">  1       -2 0.99786822E+00 0.14985645E+02</pdfrwt>
<totfact>-0.95140062E-14</totfact>
</mgrwt>
</event>
<event>
 4    1  0.5170493E-019  0.1493540E+02  0.7818608E-02  0.1870046E+00
         -2   -1    0    0    0  501 -0.00000000000E+00  0.00000000000E+00  0.11876013025E+03  0.11876013028E+03  0.25500000000E-02 0.  1.
          2   -1    0    0  501    0  0.00000000000E+00 -0.00000000000E+00 -0.46956959223E+00  0.46957651607E+00  0.25500000000E-02 0. -1.
         31    1    1    2    0    0  0.10140944673E+00  0.58509711732E-01  0.54817279834E+02  0.55320943608E+02  0.74470750000E+01 0. -1.
        -31    1    1    2    0    0 -0.10140944673E+00 -0.58509711732E-01  0.63473280826E+02  0.63908763187E+02  0.74470750000E+01 0.  1.
<mgrwt>
<rscale>  0 0.14935402E+02</rscale>
<asrwt>0</asrwt>
<pdfrwt beam="2">  1        2 0.99727869E+00 0.14935402E+02</pdfrwt>
<pdfrwt beam="1">  1       -2 0.98587464E+00 0.14935402E+02</pdfrwt>
<totfact> 0.25662559E-13</totfact>
</mgrwt>
</event>
<event>
 4    1 -0.5170493E-019  0.1495681E+02  0.7818608E-02  0.1869389E+00
          2   -1    0    0  501    0  0.00000000000E+00  0.00000000000E+00  0.11886627104E+03  0.11886627107E+03  0.25500000000E-02 0.  1.
         -2   -1    0    0    0  501 -0.00000000000E+00 -0.00000000000E+00 -0.47049646427E+00  0.47050337447E+00  0.25500000000E-02 0. -1.
         31    1    1    2    0    0 -0.33411604835E+00  0.28250741733E+00  0.63391132937E+02  0.63828568095E+02  0.74470750000E+01 0.  1.
        -31    1    1    2    0    0  0.33411604835E+00 -0.28250741733E+00  0.55004641640E+02  0.55508206348E+02  0.74470750000E+01 0.  1.
<mgrwt>
<rscale>  0 0.14956814E+02</rscale>
<asrwt>0</asrwt>
<pdfrwt beam="1">  1        2 0.98675995E+00 0.14956814E+02</pdfrwt>
<pdfrwt beam="2">  1       -2 0.99924292E+00 0.14956814E+02</pdfrwt>
<totfact>-0.66388033E-14</totfact>
</mgrwt>
</event>
<event>
 4    1 -0.5170493E-019  0.1501315E+02  0.7818608E-02  0.1867668E+00
         -2   -1    0    0    0  501 -0.00000000000E+00  0.00000000000E+00  0.12018779004E+03  0.12018779007E+03  0.25500000000E-02 0.  1.
          2   -1    0    0  501    0  0.00000000000E+00 -0.00000000000E+00 -0.46883482936E+00  0.46884176405E+00  0.25500000000E-02 0. -1.
         31    1    1    2    0    0 -0.44466263599E-01  0.58977740360E+00  0.65764705677E+02  0.66187651821E+02  0.74470750000E+01 0.  1.
        -31    1    1    2    0    0  0.44466263599E-01 -0.58977740360E+00  0.53954249534E+02  0.54468980011E+02  0.74470750000E+01 0. -1.
<mgrwt>
<rscale>  0 0.15013147E+02</rscale>
<asrwt>0</asrwt>
<pdfrwt beam="2">  1        2 0.99577086E+00 0.15013147E+02</pdfrwt>
<pdfrwt beam="1">  1       -2 0.99767345E+00 0.15013147E+02</pdfrwt>
<totfact>-0.72933031E-14</totfact>
</mgrwt>
</event>
<event>
 4    1  0.5170493E-019  0.1490028E+02  0.7818608E-02  0.1871127E+00
          2   -1    0    0  501    0  0.00000000000E+00  0.00000000000E+00  0.11979229095E+03  0.11979229098E+03  0.25500000000E-02 0.  1.
         -2   -1    0    0    0  501 -0.00000000000E+00 -0.00000000000E+00 -0.46333685853E+00  0.46334387551E+00  0.25500000000E-02 0. -1.
         31    1    1    2    0    0 -0.91922699283E-01 -0.17552288095E+00  0.60311301446E+02  0.60769657447E+02  0.74470750000E+01 0.  1.
        -31    1    1    2    0    0  0.91922699283E-01  0.17552288095E+00  0.59017652646E+02  0.59485977406E+02  0.74470750000E+01 0. -1.
<mgrwt>
<rscale>  0 0.14900283E+02</rscale>
<asrwt>0</asrwt>
<pdfrwt beam="1">  1        2 0.99435773E+00 0.14900283E+02</pdfrwt>
<pdfrwt beam="2">  1       -2 0.98412611E+00 0.14900283E+02</pdfrwt>
<totfact> 0.64990616E-13</totfact>
</mgrwt>
</event>
<event>
 4    1 -0.5170493E-019  0.1497610E+02  0.7818608E-02  0.1868799E+00
          2   -1    0    0  501    0  0.00000000000E+00  0.00000000000E+00  0.11980088977E+03  0.11980088980E+03  0.25500000000E-02 0. -1.
         -2   -1    0    0    0  501 -0.00000000000E+00 -0.00000000000E+00 -0.46803032117E+00  0.46803726779E+00  0.25500000000E-02 0.  1.
         31    1    1    2    0    0  0.14838878074E-01 -0.65159947744E+00  0.56192361922E+02  0.56687434820E+02  0.74470750000E+01 0. -1.
        -31    1    1    2    0    0 -0.14838878074E-01  0.65159947744E+00  0.63140497529E+02  0.63581492247E+02  0.74470750000E+01 0.  1.
<mgrwt>
<rscale>  0 0.14976097E+02</rscale>
<asrwt>0</asrwt>
<pdfrwt beam="1">  1        2 0.99446764E+00 0.14976097E+02</pdfrwt>
<pdfrwt beam="2">  1       -2 0.99405635E+00 0.14976097E+02</pdfrwt>
<totfact>-0.12327119E-13</totfact>
</mgrwt>
</event>
<event>
 4    1 -0.5170493E-019  0.1502101E+02  0.7818608E-02  0.1867428E+00
          2   -1    0    0  501    0  0.00000000000E+00  0.00000000000E+00  0.12018106078E+03  0.12018106081E+03  0.25500000000E-02 0. -1.
         -2   -1    0    0    0  501 -0.00000000000E+00 -0.00000000000E+00 -0.46935223953E+00  0.46935916658E+00  0.25500000000E-02 0.  1.
         31    1    1    2    0    0  0.68679706232E+00 -0.23529429521E+00  0.65071719320E+02  0.65500493395E+02  0.74470750000E+01 0. -1.
        -31    1    1    2    0    0 -0.68679706232E+00  0.23529429521E+00  0.54639989219E+02  0.55149926578E+02  0.74470750000E+01 0.  1.
<mgrwt>
<rscale>  0 0.15021008E+02</rscale>
<asrwt>0</asrwt>
<pdfrwt beam="1">  1        2 0.99762209E+00 0.15021008E+02</pdfrwt>
<pdfrwt beam="2">  1       -2 0.99686529E+00 0.15021008E+02</pdfrwt>
<totfact>-0.61546922E-14</totfact>
</mgrwt>
</event>
<event>
 4    1 -0.5170493E-019  0.1498016E+02  0.7818608E-02  0.1868674E+00
          2   -1    0    0  501    0  0.00000000000E+00  0.00000000000E+00  0.11956049785E+03  0.11956049788E+03  0.25500000000E-02 0. -1.
         -2   -1    0    0    0  501 -0.00000000000E+00 -0.00000000000E+00 -0.46922615203E+00  0.46923308094E+00  0.25500000000E-02 0.  1.
         31    1    1    2    0    0 -0.61768889666E+00 -0.39631990157E+00  0.62127063052E+02  0.62576109647E+02  0.74470750000E+01 0. -1.
        -31    1    1    2    0    0  0.61768889666E+00  0.39631990157E+00  0.56964208644E+02  0.57453621309E+02  0.74470750000E+01 0. -1.
<mgrwt>
<rscale>  0 0.14980164E+02</rscale>
<asrwt>0</asrwt>
<pdfrwt beam="1">  1        2 0.99248980E+00 0.14980164E+02</pdfrwt>
<pdfrwt beam="2">  1       -2 0.99657842E+00 0.14980164E+02</pdfrwt>
<totfact>-0.12679698E-13</totfact>
</mgrwt>
</event>
<event>
 4    1  0.5170493E-019  0.1490463E+02  0.7818608E-02  0.1870993E+00
          2   -1    0    0  501    0  0.00000000000E+00  0.00000000000E+00  0.11993245577E+03  0.11993245580E+03  0.25500000000E-02 0. -1.
         -2   -1    0    0    0  501 -0.00000000000E+00 -0.00000000000E+00 -0.46306562123E+00  0.46307264232E+00  0.25500000000E-02 0.  1.
         31    1    1    2    0    0  0.18092264383E+00 -0.10992352459E+00  0.58261109341E+02  0.58735513992E+02  0.74470750000E+01 0.  1.
        -31    1    1    2    0    0 -0.18092264383E+00  0.10992352459E+00  0.61208280811E+02  0.61660014451E+02  0.74470750000E+01 0. -1.
<mgrwt>
<rscale>  0 0.14904633E+02</rscale>
<asrwt>0</asrwt>
<pdfrwt beam="1">  1        2 0.99551447E+00 0.14904633E+02</pdfrwt>
<pdfrwt beam="2">  1       -2 0.98355666E+00 0.14904633E+02</pdfrwt>
<totfact> 0.66262910E-13</totfact>
</mgrwt>
</event>
<event>
 4    1 -0.5170493E-019  0.1490589E+02  0.7818608E-02  0.1870954E+00
         -2   -1    0    0    0  501 -0.00000000000E+00  0.00000000000E+00  0.11997637304E+03  0.11997637306E+03  0.25500000000E-02 0.  1.
          2   -1    0    0  501    0  0.00000000000E+00 -0.00000000000E+00 -0.46297436242E+00  0.46298138489E+00  0.25500000000E-02 0. -1.
         31    1    1    2    0    0 -0.14688366253E+00  0.23520377211E+00  0.60588099876E+02  0.61044685832E+02  0.74470750000E+01 0.  1.
        -31    1    1    2    0    0  0.14688366253E+00 -0.23520377211E+00  0.58925298797E+02  0.59394668616E+02  0.74470750000E+01 0. -1.
<mgrwt>
<rscale>  0 0.14905893E+02</rscale>
<asrwt>0</asrwt>
<pdfrwt beam="2">  1        2 0.98336496E+00 0.14905893E+02</pdfrwt>
<pdfrwt beam="1">  1       -2 0.99587685E+00 0.14905893E+02</pdfrwt>
<totfact>-0.43265910E-13</totfact>
</mgrwt>
</event>
<event>
 4    1 -0.5170493E-019  0.1495987E+02  0.7818608E-02  0.1869295E+00
         -2   -1    0    0    0  501 -0.00000000000E+00  0.00000000000E+00  0.12005424647E+03  0.12005424649E+03  0.25500000000E-02 0. -1.
          2   -1    0    0  501    0  0.00000000000E+00 -0.00000000000E+00 -0.46603115432E+00  0.46603813074E+00  0.25500000000E-02 0.  1.
         31    1    1    2    0    0  0.43427547066E+00  0.47673828202E+00  0.57593110700E+02  0.58076167235E+02  0.74470750000E+01 0.  1.
        -31    1    1    2    0    0 -0.43427547066E+00 -0.47673828202E+00  0.61995104612E+02  0.62444117389E+02  0.74470750000E+01 0. -1.
<mgrwt>
<rscale>  0 0.14959872E+02</rscale>
<asrwt>0</asrwt>
<pdfrwt beam="2">  1        2 0.98983490E+00 0.14959872E+02</pdfrwt>
<pdfrwt beam="1">  1       -2 0.99654604E+00 0.14959872E+02</pdfrwt>
<totfact>-0.15829857E-13</totfact>
</mgrwt>
</event>
<event>
 4    1 -0.5170493E-019  0.1491524E+02  0.7818608E-02  0.1870666E+00
          2   -1    0    0  501    0  0.00000000000E+00  0.00000000000E+00  0.11905502493E+03  0.11905502496E+03  0.25500000000E-02 0.  1.
         -2   -1    0    0    0  501 -0.00000000000E+00 -0.00000000000E+00 -0.46714292002E+00  0.46714987983E+00  0.25500000000E-02 0. -1.
         31    1    1    2    0    0  0.43737062462E-01  0.37366186955E+00  0.60296976167E+02  0.60756281955E+02  0.74470750000E+01 0. -1.
        -31    1    1    2    0    0 -0.43737062462E-01 -0.37366186955E+00  0.58290905847E+02  0.58765892885E+02  0.74470750000E+01 0. -1.
<mgrwt>
<rscale>  0 0.14915244E+02</rscale>
<asrwt>0</asrwt>
<pdfrwt beam="1">  1        2 0.98829297E+00 0.14915244E+02</pdfrwt>
<pdfrwt beam="2">  1       -2 0.99215479E+00 0.14915244E+02</pdfrwt>
<totfact>-0.15049557E-13</totfact>
</mgrwt>
</event>
<event>
 4    1  0.5170493E-019  0.1491877E+02  0.7818608E-02  0.1870557E+00
          2   -1    0    0  501    0  0.00000000000E+00  0.00000000000E+00  0.12005826825E+03  0.12005826828E+03  0.25500000000E-02 0.  1.
         -2   -1    0    0    0  501 -0.00000000000E+00 -0.00000000000E+00 -0.46345847494E+00  0.46346549007E+00  0.25500000000E-02 0. -1.
         31    1    1    2    0    0  0.51607559662E-01 -0.40523797291E+00  0.58755335231E+02  0.59226811710E+02  0.74470750000E+01 0. -1.
        -31    1    1    2    0    0 -0.51607559662E-01  0.40523797291E+00  0.60839474545E+02  0.61294922058E+02  0.74470750000E+01 0.  1.
<mgrwt>
<rscale>  0 0.14918773E+02</rscale>
<asrwt>0</asrwt>
<pdfrwt beam="1">  1        2 0.99655802E+00 0.14918773E+02</pdfrwt>
<pdfrwt beam="2">  1       -2 0.98439183E+00 0.14918773E+02</pdfrwt>
<totfact> 0.46159458E-13</totfact>
</mgrwt>
</event>
<event>
 4    1 -0.5170493E-019  0.1490218E+02  0.7818608E-02  0.1871068E+00
         -2   -1    0    0    0  501 -0.00000000000E+00  0.00000000000E+00  0.12000022487E+03  0.12000022490E+03  0.25500000000E-02 0.  1.
          2   -1    0    0  501    0  0.00000000000E+00 -0.00000000000E+00 -0.46265156903E+00  0.46265859640E+00  0.25500000000E-02 0. -1.
         31    1    1    2    0    0  0.75901021819E-02 -0.24223667026E+00  0.60031341479E+02  0.60491979816E+02  0.74470750000E+01 0.  1.
        -31    1    1    2    0    0 -0.75901021819E-02  0.24223667026E+00  0.59506231825E+02  0.59970903681E+02  0.74470750000E+01 0.  1.
<mgrwt>
<rscale>  0 0.14902177E+02</rscale>
<asrwt>0</asrwt>
<pdfrwt beam="2">  1        2 0.98268273E+00 0.14902177E+02</pdfrwt>
<pdfrwt beam="1">  1       -2 0.99607140E+00 0.14902177E+02</pdfrwt>
<totfact>-0.47569920E-13</totfact>
</mgrwt>
</event>
<event>
 4    1 -0.5170493E-019  0.1499228E+02  0.7818608E-02  0.1868304E+00
         -2   -1    0    0    0  501 -0.00000000000E+00  0.00000000000E+00  0.12017471643E+03  0.12017471645E+03  0.25500000000E-02 0. -1.
          2   -1    0    0  501    0  0.00000000000E+00 -0.00000000000E+00 -0.46758302584E+00  0.46758997910E+00  0.25500000000E-02 0.  1.
         31    1    1    2    0    0 -0.56554493720E+00  0.64225819584E+00  0.60083416323E+02  0.60549221133E+02  0.74470750000E+01 0.  1.
        -31    1    1    2    0    0  0.56554493720E+00 -0.64225819584E+00  0.59623717077E+02  0.60093085300E+02  0.74470750000E+01 0. -1.
<mgrwt>
<rscale>  0 0.14992275E+02</rscale>
<asrwt>0</asrwt>
<pdfrwt beam="2">  1        2 0.99312205E+00 0.14992275E+02</pdfrwt>
<pdfrwt beam="1">  1       -2 0.99755500E+00 0.14992275E+02</pdfrwt>
<totfact>-0.96982786E-14</totfact>
</mgrwt>
</event>
<event>
 4    1  0.5170493E-019  0.1489510E+02  0.7818608E-02  0.1871286E+00
         -2   -1    0    0    0  501 -0.00000000000E+00  0.00000000000E+00  0.11835737967E+03  0.11835737970E+03  0.25500000000E-02 0.  1.
          2   -1    0    0  501    0  0.00000000000E+00 -0.00000000000E+00 -0.46862813823E+00  0.46863507599E+00  0.25500000000E-02 0. -1.
         31    1    1    2    0    0  0.37565731073E-02 -0.84095969223E-01  0.58943711618E+02  0.59412348478E+02  0.74470750000E+01 0. -1.
        -31    1    1    2    0    0 -0.37565731073E-02  0.84095969223E-01  0.58945039915E+02  0.59413666297E+02  0.74470750000E+01 0.  1.
<mgrwt>
<rscale>  0 0.14895102E+02</rscale>
<asrwt>0</asrwt>
<pdfrwt beam="2">  1        2 0.99527379E+00 0.14895102E+02</pdfrwt>
<pdfrwt beam="1">  1       -2 0.98253663E+00 0.14895102E+02</pdfrwt>
<totfact> 0.85402702E-13</totfact>
</mgrwt>
</event>
<event>
 4    1 -0.5170493E-019  0.1497780E+02  0.7818608E-02  0.1868747E+00
          2   -1    0    0  501    0  0.00000000000E+00  0.00000000000E+00  0.11978770905E+03  0.11978770908E+03  0.25500000000E-02 0. -1.
         -2   -1    0    0    0  501 -0.00000000000E+00 -0.00000000000E+00 -0.46818842584E+00  0.46819537011E+00  0.25500000000E-02 0.  1.
         31    1    1    2    0    0 -0.46405062804E-01 -0.28342407029E+00  0.65571970481E+02  0.65994126416E+02  0.74470750000E+01 0. -1.
        -31    1    1    2    0    0  0.46405062804E-01  0.28342407029E+00  0.53747550142E+02  0.54261778030E+02  0.74470750000E+01 0.  1.
<mgrwt>
<rscale>  0 0.14977802E+02</rscale>
<asrwt>0</asrwt>
<pdfrwt beam="1">  1        2 0.99435996E+00 0.14977802E+02</pdfrwt>
<pdfrwt beam="2">  1       -2 0.99439041E+00 0.14977802E+02</pdfrwt>
<totfact>-0.12636233E-13</totfact>
</mgrwt>
</event>
<event>
 4    1  0.5170493E-019  0.1492429E+02  0.7818608E-02  0.1870388E+00
          2   -1    0    0  501    0  0.00000000000E+00  0.00000000000E+00  0.11987230907E+03  0.11987230909E+03  0.25500000000E-02 0. -1.
         -2   -1    0    0    0  501 -0.00000000000E+00 -0.00000000000E+00 -0.46452057480E+00  0.46452757390E+00  0.25500000000E-02 0.  1.
         31    1    1    2    0    0 -0.18237040565E+00  0.10858373382E+00  0.63121009868E+02  0.63559152466E+02  0.74470750000E+01 0. -1.
        -31    1    1    2    0    0  0.18237040565E+00 -0.10858373382E+00  0.56286778624E+02  0.56777684202E+02  0.74470750000E+01 0.  1.
<mgrwt>
<rscale>  0 0.14924286E+02</rscale>
<asrwt>0</asrwt>
<pdfrwt beam="1">  1        2 0.99502916E+00 0.14924286E+02</pdfrwt>
<pdfrwt beam="2">  1       -2 0.98663312E+00 0.14924286E+02</pdfrwt>
<totfact> 0.28362327E-13</totfact>
</mgrwt>
</event>
<event>
 4    1 -0.5170493E-019  0.1494694E+02  0.7818608E-02  0.1869692E+00
          2   -1    0    0  501    0  0.00000000000E+00  0.00000000000E+00  0.11908123526E+03  0.11908123529E+03  0.25500000000E-02 0.  1.
         -2   -1    0    0    0  501 -0.00000000000E+00 -0.00000000000E+00 -0.46902721587E+00  0.46903414772E+00  0.25500000000E-02 0. -1.
         31    1    1    2    0    0  0.29897004493E+00  0.26526155723E+00  0.55436348293E+02  0.55935743357E+02  0.74470750000E+01 0.  1.
        -31    1    1    2    0    0 -0.29897004493E+00 -0.26526155723E+00  0.63175859752E+02  0.63614526079E+02  0.74470750000E+01 0.  1.
<mgrwt>
<rscale>  0 0.14946940E+02</rscale>
<asrwt>0</asrwt>
<pdfrwt beam="1">  1        2 0.98852527E+00 0.14946940E+02</pdfrwt>
<pdfrwt beam="2">  1       -2 0.99614190E+00 0.14946940E+02</pdfrwt>
<totfact>-0.19315429E-13</totfact>
</mgrwt>
</event>
<event>
 4    1 -0.5170493E-019  0.1498374E+02  0.7818608E-02  0.1868565E+00
          2   -1    0    0  501    0  0.00000000000E+00  0.00000000000E+00  0.11945444888E+03  0.11945444890E+03  0.25500000000E-02 0.  1.
         -2   -1    0    0    0  501 -0.00000000000E+00 -0.00000000000E+00 -0.46986719950E+00  0.46987411896E+00  0.25500000000E-02 0. -1.
         31    1    1    2    0    0 -0.76661064586E+00  0.13513290181E+00  0.61505407304E+02  0.61959502955E+02  0.74470750000E+01 0.  1.
        -31    1    1    2    0    0  0.76661064586E+00 -0.13513290181E+00  0.57479174372E+02  0.57964820066E+02  0.74470750000E+01 0.  1.
<mgrwt>
<rscale>  0 0.14983744E+02</rscale>
<asrwt>0</asrwt>
<pdfrwt beam="1">  1        2 0.99161821E+00 0.14983744E+02</pdfrwt>
<pdfrwt beam="2">  1       -2 0.99793111E+00 0.14983744E+02</pdfrwt>
<totfact>-0.95116368E-14</totfact>
</mgrwt>
</event>
<event>
 4    1  0.5170493E-019  0.1491410E+02  0.7818608E-02  0.1870701E+00
         -2   -1    0    0    0  501 -0.00000000000E+00  0.00000000000E+00  0.11824186797E+03  0.11824186800E+03  0.25500000000E-02 0. -1.
          2   -1    0    0  501    0  0.00000000000E+00 -0.00000000000E+00 -0.47028337956E+00  0.47029029290E+00  0.25500000000E-02 0.  1.
         31    1    1    2    0    0 -0.18823063965E+00 -0.26477962049E+00  0.57232693374E+02  0.57716077967E+02  0.74470750000E+01 0.  1.
        -31    1    1    2    0    0  0.18823063965E+00  0.26477962049E+00  0.60538891220E+02  0.60996080326E+02  0.74470750000E+01 0. -1.
<mgrwt>
<rscale>  0 0.14914100E+02</rscale>
<asrwt>0</asrwt>
<pdfrwt beam="2">  1        2 0.99877137E+00 0.14914100E+02</pdfrwt>
<pdfrwt beam="1">  1       -2 0.98159518E+00 0.14914100E+02</pdfrwt>
<totfact> 0.39037026E-13</totfact>
</mgrwt>
</event>
<event>
 4    1 -0.5170493E-019  0.1492761E+02  0.7818608E-02  0.1870285E+00
         -2   -1    0    0    0  501 -0.00000000000E+00  0.00000000000E+00  0.12002394687E+03  0.12002394690E+03  0.25500000000E-02 0. -1.
          2   -1    0    0  501    0  0.00000000000E+00 -0.00000000000E+00 -0.46414059624E+00  0.46414760106E+00  0.25500000000E-02 0.  1.
         31    1    1    2    0    0  0.11474301374E+00 -0.25523162234E+00  0.56440463896E+02  0.56930336377E+02  0.74470750000E+01 0.  1.
        -31    1    1    2    0    0 -0.11474301374E+00  0.25523162234E+00  0.63119342381E+02  0.63557758124E+02  0.74470750000E+01 0. -1.
<mgrwt>
<rscale>  0 0.14927613E+02</rscale>
<asrwt>0</asrwt>
<pdfrwt beam="2">  1        2 0.98583398E+00 0.14927613E+02</pdfrwt>
<pdfrwt beam="1">  1       -2 0.99627987E+00 0.14927613E+02</pdfrwt>
<totfact>-0.27587649E-13</totfact>
</mgrwt>
</event>
<event>
 4    1 -0.5170493E-019  0.1495422E+02  0.7818608E-02  0.1869469E+00
         -2   -1    0    0    0  501 -0.00000000000E+00  0.00000000000E+00  0.11964766411E+03  0.11964766414E+03  0.25500000000E-02 0.  1.
          2   -1    0    0  501    0  0.00000000000E+00 -0.00000000000E+00 -0.46726169791E+00  0.46726865595E+00  0.25500000000E-02 0. -1.
         31    1    1    2    0    0 -0.10615188031E+00  0.63314122708E+00  0.61116908531E+02  0.61572295479E+02  0.74470750000E+01 0. -1.
        -31    1    1    2    0    0  0.10615188031E+00 -0.63314122708E+00  0.58063493885E+02  0.58542637319E+02  0.74470750000E+01 0.  1.
<mgrwt>
<rscale>  0 0.14954222E+02</rscale>
<asrwt>0</asrwt>
<pdfrwt beam="2">  1        2 0.99242528E+00 0.14954222E+02</pdfrwt>
<pdfrwt beam="1">  1       -2 0.99319430E+00 0.14954222E+02</pdfrwt>
<totfact>-0.13158365E-13</totfact>
</mgrwt>
</event>
<event>
 4    1  0.5170493E-019  0.1489708E+02  0.7818608E-02  0.1871226E+00
          2   -1    0    0  501    0  0.00000000000E+00  0.00000000000E+00  0.11963811901E+03  0.11963811904E+03  0.25500000000E-02 0. -1.
         -2   -1    0    0    0  501 -0.00000000000E+00 -0.00000000000E+00 -0.46373432041E+00  0.46374133137E+00  0.25500000000E-02 0.  1.
         31    1    1    2    0    0 -0.82893466257E-01 -0.12183028254E+00  0.59661285055E+02  0.60124450720E+02  0.74470750000E+01 0.  1.
        -31    1    1    2    0    0  0.82893466257E-01  0.12183028254E+00  0.59513099634E+02  0.59977409648E+02  0.74470750000E+01 0. -1.
<mgrwt>
<rscale>  0 0.14897077E+02</rscale>
<asrwt>0</asrwt>
<pdfrwt beam="1">  1        2 0.99308621E+00 0.14897077E+02</pdfrwt>
<pdfrwt beam="2">  1       -2 0.98496216E+00 0.14897077E+02</pdfrwt>
<totfact> 0.57504579E-13</totfact>
</mgrwt>
</event>
<event>
 4    1 -0.5170493E-019  0.1502802E+02  0.7818608E-02  0.1867215E+00
          2   -1    0    0  501    0  0.00000000000E+00  0.00000000000E+00  0.12009213579E+03  0.12009213582E+03  0.25500000000E-02 0. -1.
         -2   -1    0    0    0  501 -0.00000000000E+00 -0.00000000000E+00 -0.47013863600E+00  0.47014555146E+00  0.25500000000E-02 0.  1.
         31    1    1    2    0    0 -0.72826837571E+00  0.66737186713E+00  0.61096735619E+02  0.61556850061E+02  0.74470750000E+01 0.  1.
        -31    1    1    2    0    0  0.72826837571E+00 -0.66737186713E+00  0.58525261538E+02  0.59005431310E+02  0.74470750000E+01 0. -1.
<mgrwt>
<rscale>  0 0.15028023E+02</rscale>
<asrwt>0</asrwt>
<pdfrwt beam="1">  1        2 0.99689330E+00 0.15028023E+02</pdfrwt>
<pdfrwt beam="2">  1       -2 0.99852612E+00 0.15028023E+02</pdfrwt>
<totfact>-0.41489153E-14</totfact>
</mgrwt>
</event>
<event>
 4    1 -0.5170493E-019  0.1499145E+02  0.7818608E-02  0.1868330E+00
         -2   -1    0    0    0  501 -0.00000000000E+00  0.00000000000E+00  0.11975420308E+03  0.11975420311E+03  0.25500000000E-02 0.  1.
          2   -1    0    0  501    0  0.00000000000E+00 -0.00000000000E+00 -0.46917309479E+00  0.46918002449E+00  0.25500000000E-02 0. -1.
         31    1    1    2    0    0 -0.10240044706E+00 -0.43192739542E+00  0.53804834198E+02  0.54319574338E+02  0.74470750000E+01 0. -1.
        -31    1    1    2    0    0  0.10240044706E+00  0.43192739542E+00  0.65480195786E+02  0.65903808792E+02  0.74470750000E+01 0. -1.
<mgrwt>
<rscale>  0 0.14991447E+02</rscale>
<asrwt>0</asrwt>
<pdfrwt beam="2">  1        2 0.99647248E+00 0.14991447E+02</pdfrwt>
<pdfrwt beam="1">  1       -2 0.99409105E+00 0.14991447E+02</pdfrwt>
<totfact>-0.96260735E-14</totfact>
</mgrwt>
</event>
<event>
 4    1  0.5170493E-019  0.1490196E+02  0.7818608E-02  0.1871075E+00
         -2   -1    0    0    0  501 -0.00000000000E+00  0.00000000000E+00  0.11812922155E+03  0.11812922158E+03  0.25500000000E-02 0. -1.
          2   -1    0    0  501    0  0.00000000000E+00 -0.00000000000E+00 -0.46996549033E+00  0.46997240834E+00  0.25500000000E-02 0.  1.
         31    1    1    2    0    0 -0.20011059888E+00 -0.13160971710E+00  0.58607644866E+02  0.59079373119E+02  0.74470750000E+01 0.  1.
        -31    1    1    2    0    0  0.20011059888E+00  0.13160971710E+00  0.59051611194E+02  0.59519820867E+02  0.74470750000E+01 0. -1.
<mgrwt>
<rscale>  0 0.14901955E+02</rscale>
<asrwt>0</asrwt>
<pdfrwt beam="2">  1        2 0.99809517E+00 0.14901955E+02</pdfrwt>
<pdfrwt beam="1">  1       -2 0.98066112E+00 0.14901955E+02</pdfrwt>
<totfact> 0.66701928E-13</totfact>
</mgrwt>
</event>
<event>
 4    1  0.5170493E-019  0.1490830E+02  0.7818608E-02  0.1870880E+00
         -2   -1    0    0    0  501 -0.00000000000E+00  0.00000000000E+00  0.11857145051E+03  0.11857145053E+03  0.25500000000E-02 0.  1.
          2   -1    0    0  501    0  0.00000000000E+00 -0.00000000000E+00 -0.46861157712E+00  0.46861851512E+00  0.25500000000E-02 0. -1.
         31    1    1    2    0    0 -0.27491401254E+00 -0.50735567852E-02  0.57672113196E+02  0.58151587854E+02  0.74470750000E+01 0.  1.
        -31    1    1    2    0    0  0.27491401254E+00  0.50735567852E-02  0.60430725733E+02  0.60888481194E+02  0.74470750000E+01 0.  1.
<mgrwt>
<rscale>  0 0.14908302E+02</rscale>
<asrwt>0</asrwt>
<pdfrwt beam="2">  1        2 0.99524585E+00 0.14908302E+02</pdfrwt>
<pdfrwt beam="1">  1       -2 0.98430658E+00 0.14908302E+02</pdfrwt>
<totfact> 0.56906521E-13</totfact>
</mgrwt>
</event>
<event>
 4    1  0.5170493E-019  0.1490519E+02  0.7818608E-02  0.1870976E+00
         -2   -1    0    0    0  501 -0.00000000000E+00  0.00000000000E+00  0.11815874018E+03  0.11815874021E+03  0.25500000000E-02 0.  1.
          2   -1    0    0  501    0  0.00000000000E+00 -0.00000000000E+00 -0.47005192022E+00  0.47005883695E+00  0.25500000000E-02 0. -1.
         31    1    1    2    0    0  0.28209411949E+00  0.29309217278E-01  0.58507387882E+02  0.58980113589E+02  0.74470750000E+01 0.  1.
        -31    1    1    2    0    0 -0.28209411949E+00 -0.29309217278E-01  0.59181300377E+02  0.59648685455E+02  0.74470750000E+01 0.  1.
<mgrwt>
<rscale>  0 0.14905188E+02</rscale>
<asrwt>0</asrwt>
<pdfrwt beam="2">  1        2 0.99827898E+00 0.14905188E+02</pdfrwt>
<pdfrwt beam="1">  1       -2 0.98090591E+00 0.14905188E+02</pdfrwt>
<totfact> 0.58866696E-13</totfact>
</mgrwt>
</event>
<event>
 4    1  0.5170493E-019  0.1490897E+02  0.7818608E-02  0.1870859E+00
          2   -1    0    0  501    0  0.00000000000E+00  0.00000000000E+00  0.12004999097E+03  0.12004999100E+03  0.25500000000E-02 0. -1.
         -2   -1    0    0    0  501 -0.00000000000E+00 -0.00000000000E+00 -0.46288125296E+00  0.46288827685E+00  0.25500000000E-02 0.  1.
         31    1    1    2    0    0  0.17221480219E+00  0.31090084824E-01  0.57510634198E+02  0.57991056176E+02  0.74470750000E+01 0.  1.
        -31    1    1    2    0    0 -0.17221480219E+00 -0.31090084824E-01  0.62076475522E+02  0.62521823100E+02  0.74470750000E+01 0. -1.
<mgrwt>
<rscale>  0 0.14908966E+02</rscale>
<asrwt>0</asrwt>
<pdfrwt beam="1">  1        2 0.99648480E+00 0.14908966E+02</pdfrwt>
<pdfrwt beam="2">  1       -2 0.98317027E+00 0.14908966E+02</pdfrwt>
<totfact> 0.62754009E-13</totfact>
</mgrwt>
</event>
<event>
 4    1  0.5170493E-019  0.1492492E+02  0.7818608E-02  0.1870368E+00
          2   -1    0    0  501    0  0.00000000000E+00  0.00000000000E+00  0.11992884433E+03  0.11992884435E+03  0.25500000000E-02 0. -1.
         -2   -1    0    0    0  501 -0.00000000000E+00 -0.00000000000E+00 -0.46434136584E+00  0.46434836764E+00  0.25500000000E-02 0.  1.
         31    1    1    2    0    0  0.80501346452E-01  0.35012570350E+00  0.57176887838E+02  0.57660944298E+02  0.74470750000E+01 0.  1.
        -31    1    1    2    0    0 -0.80501346452E-01 -0.35012570350E+00  0.62287615121E+02  0.62732248421E+02  0.74470750000E+01 0.  1.
<mgrwt>
<rscale>  0 0.14924925E+02</rscale>
<asrwt>0</asrwt>
<pdfrwt beam="1">  1        2 0.99549515E+00 0.14924925E+02</pdfrwt>
<pdfrwt beam="2">  1       -2 0.98625575E+00 0.14924925E+02</pdfrwt>
<totfact> 0.30909379E-13</totfact>
</mgrwt>
</event>
<event>
 4    1 -0.5170493E-019  0.1500228E+02  0.7818608E-02  0.1867999E+00
         -2   -1    0    0    0  501 -0.00000000000E+00  0.00000000000E+00  0.12009525105E+03  0.12009525108E+03  0.25500000000E-02 0.  1.
          2   -1    0    0  501    0  0.00000000000E+00 -0.00000000000E+00 -0.46851705841E+00  0.46852399781E+00  0.25500000000E-02 0. -1.
         31    1    1    2    0    0  0.41055800002E+00 -0.72074550599E+00  0.62598818689E+02  0.63045690252E+02  0.74470750000E+01 0.  1.
        -31    1    1    2    0    0 -0.41055800002E+00  0.72074550599E+00  0.57027915307E+02  0.57518084828E+02  0.74470750000E+01 0. -1.
<mgrwt>
<rscale>  0 0.15002279E+02</rscale>
<asrwt>0</asrwt>
<pdfrwt beam="2">  1        2 0.99509559E+00 0.15002279E+02</pdfrwt>
<pdfrwt beam="1">  1       -2 0.99690565E+00 0.15002279E+02</pdfrwt>
<totfact>-0.96514048E-14</totfact>
</mgrwt>
</event>
<event>
 4    1 -0.5170493E-019  0.1495977E+02  0.7818608E-02  0.1869298E+00
         -2   -1    0    0    0  501 -0.00000000000E+00  0.00000000000E+00  0.11995054276E+03  0.11995054279E+03  0.25500000000E-02 0.  1.
          2   -1    0    0  501    0  0.00000000000E+00 -0.00000000000E+00 -0.46642802335E+00  0.46643499383E+00  0.25500000000E-02 0. -1.
         31    1    1    2    0    0  0.62670985953E+00 -0.63075176259E-01  0.62197397919E+02  0.62644808066E+02  0.74470750000E+01 0.  1.
        -31    1    1    2    0    0 -0.62670985953E+00  0.63075176259E-01  0.57286716819E+02  0.57772169716E+02  0.74470750000E+01 0. -1.
<mgrwt>
<rscale>  0 0.14959775E+02</rscale>
<asrwt>0</asrwt>
<pdfrwt beam="2">  1        2 0.99067124E+00 0.14959775E+02</pdfrwt>
<pdfrwt beam="1">  1       -2 0.99569182E+00 0.14959775E+02</pdfrwt>
<totfact>-0.16229817E-13</totfact>
</mgrwt>
</event>
<event>
 4    1 -0.5170493E-019  0.1500781E+02  0.7818608E-02  0.1867830E+00
         -2   -1    0    0    0  501 -0.00000000000E+00  0.00000000000E+00  0.11985430947E+03  0.11985430949E+03  0.25500000000E-02 0.  1.
          2   -1    0    0  501    0  0.00000000000E+00 -0.00000000000E+00 -0.46980515200E+00  0.46981207237E+00  0.25500000000E-02 0. -1.
         31    1    1    2    0    0 -0.36599211365E+00 -0.12636935449E+00  0.66398894430E+02  0.66816330542E+02  0.74470750000E+01 0.  1.
        -31    1    1    2    0    0  0.36599211365E+00  0.12636935449E+00  0.52985609885E+02  0.53507791025E+02  0.74470750000E+01 0. -1.
<mgrwt>
<rscale>  0 0.15007810E+02</rscale>
<asrwt>0</asrwt>
<pdfrwt beam="2">  1        2 0.99781289E+00 0.15007810E+02</pdfrwt>
<pdfrwt beam="1">  1       -2 0.99492402E+00 0.15007810E+02</pdfrwt>
<totfact>-0.70252595E-14</totfact>
</mgrwt>
</event>
<event>
 4    1  0.5170493E-019  0.1493376E+02  0.7818608E-02  0.1870097E+00
         -2   -1    0    0    0  501 -0.00000000000E+00  0.00000000000E+00  0.11867342886E+03  0.11867342889E+03  0.25500000000E-02 0.  1.
          2   -1    0    0  501    0  0.00000000000E+00 -0.00000000000E+00 -0.46980940567E+00  0.46981632598E+00  0.25500000000E-02 0. -1.
         31    1    1    2    0    0  0.32829364179E+00  0.42432881798E+00  0.58408619835E+02  0.58883899571E+02  0.74470750000E+01 0.  1.
        -31    1    1    2    0    0 -0.32829364179E+00 -0.42432881798E+00  0.59794999624E+02  0.60259345646E+02  0.74470750000E+01 0.  1.
<mgrwt>
<rscale>  0 0.14933761E+02</rscale>
<asrwt>0</asrwt>
<pdfrwt beam="2">  1        2 0.99778312E+00 0.14933761E+02</pdfrwt>
<pdfrwt beam="1">  1       -2 0.98515971E+00 0.14933761E+02</pdfrwt>
<totfact> 0.27529439E-13</totfact>
</mgrwt>
</event>
<event>
 4    1 -0.5170493E-019  0.1494243E+02  0.7818608E-02  0.1869830E+00
          2   -1    0    0  501    0  0.00000000000E+00  0.00000000000E+00  0.11871556267E+03  0.11871556270E+03  0.25500000000E-02 0. -1.
         -2   -1    0    0    0  501 -0.00000000000E+00 -0.00000000000E+00 -0.47018833056E+00  0.47019524529E+00  0.25500000000E-02 0.  1.
         31    1    1    2    0    0 -0.44492073634E+00 -0.36288713724E+00  0.60516111580E+02  0.60975309170E+02  0.74470750000E+01 0. -1.
        -31    1    1    2    0    0  0.44492073634E+00  0.36288713724E+00  0.57729262762E+02  0.58210448775E+02  0.74470750000E+01 0. -1.
<mgrwt>
<rscale>  0 0.14942434E+02</rscale>
<asrwt>0</asrwt>
<pdfrwt beam="1">  1        2 0.98551124E+00 0.14942434E+02</pdfrwt>
<pdfrwt beam="2">  1       -2 0.99858610E+00 0.14942434E+02</pdfrwt>
<totfact>-0.14189862E-13</totfact>
</mgrwt>
</event>
<event>
 4    1 -0.5170493E-019  0.1496569E+02  0.7818608E-02  0.1869117E+00
         -2   -1    0    0    0  501 -0.00000000000E+00  0.00000000000E+00  0.11964224134E+03  0.11964224136E+03  0.25500000000E-02 0. -1.
          2   -1    0    0  501    0  0.00000000000E+00 -0.00000000000E+00 -0.46799962786E+00  0.46800657493E+00  0.25500000000E-02 0.  1.
         31    1    1    2    0    0  0.38971459097E-01  0.33818345860E+00  0.54397456378E+02  0.54905901990E+02  0.74470750000E+01 0.  1.
        -31    1    1    2    0    0 -0.38971459097E-01 -0.33818345860E+00  0.64776785330E+02  0.65204345949E+02  0.74470750000E+01 0. -1.
<mgrwt>
<rscale>  0 0.14965687E+02</rscale>
<asrwt>0</asrwt>
<pdfrwt beam="2">  1        2 0.99398628E+00 0.14965687E+02</pdfrwt>
<pdfrwt beam="1">  1       -2 0.99315557E+00 0.14965687E+02</pdfrwt>
<totfact>-0.11650335E-13</totfact>
</mgrwt>
</event>
<event>
 4    1 -0.5170493E-019  0.1493391E+02  0.7818608E-02  0.1870092E+00
         -2   -1    0    0    0  501 -0.00000000000E+00  0.00000000000E+00  0.11988406832E+03  0.11988406834E+03  0.25500000000E-02 0. -1.
          2   -1    0    0  501    0  0.00000000000E+00 -0.00000000000E+00 -0.46507415046E+00  0.46508114122E+00  0.25500000000E-02 0.  1.
         31    1    1    2    0    0 -0.14355144823E+00 -0.33961380138E+00  0.56480619390E+02  0.56970652421E+02  0.74470750000E+01 0.  1.
        -31    1    1    2    0    0  0.14355144823E+00  0.33961380138E+00  0.62938374776E+02  0.63378497063E+02  0.74470750000E+01 0. -1.
<mgrwt>
<rscale>  0 0.14933908E+02</rscale>
<asrwt>0</asrwt>
<pdfrwt beam="2">  1        2 0.98780472E+00 0.14933908E+02</pdfrwt>
<pdfrwt beam="1">  1       -2 0.99513097E+00 0.14933908E+02</pdfrwt>
<totfact>-0.22809153E-13</totfact>
</mgrwt>
</event>
<event>
 4    1  0.5170493E-019  0.1494647E+02  0.7818608E-02  0.1869706E+00
          2   -1    0    0  501    0  0.00000000000E+00  0.00000000000E+00  0.12028359986E+03  0.12028359989E+03  0.25500000000E-02 0.  1.
         -2   -1    0    0    0  501 -0.00000000000E+00 -0.00000000000E+00 -0.46430959910E+00  0.46431660138E+00  0.25500000000E-02 0. -1.
         31    1    1    2    0    0 -0.36459212333E+00 -0.36117080411E+00  0.62788160781E+02  0.63230336328E+02  0.74470750000E+01 0. -1.
        -31    1    1    2    0    0  0.36459212333E+00  0.36117080411E+00  0.57031129483E+02  0.57517580164E+02  0.74470750000E+01 0.  1.
<mgrwt>
<rscale>  0 0.14946472E+02</rscale>
<asrwt>0</asrwt>
<pdfrwt beam="1">  1        2 0.99842826E+00 0.14946472E+02</pdfrwt>
<pdfrwt beam="2">  1       -2 0.98619976E+00 0.14946472E+02</pdfrwt>
<totfact> 0.15078256E-13</totfact>
</mgrwt>
</event>
<event>
 4    1 -0.5170493E-019  0.1499079E+02  0.7818608E-02  0.1868350E+00
         -2   -1    0    0    0  501 -0.00000000000E+00  0.00000000000E+00  0.12008427171E+03  0.12008427174E+03  0.25500000000E-02 0.  1.
          2   -1    0    0  501    0  0.00000000000E+00 -0.00000000000E+00 -0.46784260462E+00  0.46784955402E+00  0.25500000000E-02 0. -1.
         31    1    1    2    0    0 -0.55869289682E+00 -0.46848447683E+00  0.63317378541E+02  0.63757987474E+02  0.74470750000E+01 0. -1.
        -31    1    1    2    0    0  0.55869289682E+00  0.46848447683E+00  0.56299050568E+02  0.56794133820E+02  0.74470750000E+01 0.  1.
<mgrwt>
<rscale>  0 0.14990792E+02</rscale>
<asrwt>0</asrwt>
<pdfrwt beam="2">  1        2 0.99366833E+00 0.14990792E+02</pdfrwt>
<pdfrwt beam="1">  1       -2 0.99680928E+00 0.14990792E+02</pdfrwt>
<totfact>-0.11166687E-13</totfact>
</mgrwt>
</event>
<event>
 4    1 -0.5170493E-019  0.1496871E+02  0.7818608E-02  0.1869025E+00
          2   -1    0    0  501    0  0.00000000000E+00  0.00000000000E+00  0.11944252954E+03  0.11944252956E+03  0.25500000000E-02 0. -1.
         -2   -1    0    0    0  501 -0.00000000000E+00 -0.00000000000E+00 -0.46897163577E+00  0.46897856844E+00  0.25500000000E-02 0.  1.
         31    1    1    2    0    0 -0.45174064552E+00 -0.18693093942E+00  0.64001614557E+02  0.64435274537E+02  0.74470750000E+01 0. -1.
        -31    1    1    2    0    0  0.45174064552E+00  0.18693093942E+00  0.54971943344E+02  0.55476233594E+02  0.74470750000E+01 0. -1.
<mgrwt>
<rscale>  0 0.14968711E+02</rscale>
<asrwt>0</asrwt>
<pdfrwt beam="1">  1        2 0.99151225E+00 0.14968711E+02</pdfrwt>
<pdfrwt beam="2">  1       -2 0.99603614E+00 0.14968711E+02</pdfrwt>
<totfact>-0.14674920E-13</totfact>
</mgrwt>
</event>
<event>
 4    1 -0.5170493E-019  0.1497251E+02  0.7818608E-02  0.1868909E+00
         -2   -1    0    0    0  501 -0.00000000000E+00  0.00000000000E+00  0.11961316317E+03  0.11961316320E+03  0.25500000000E-02 0.  1.
          2   -1    0    0  501    0  0.00000000000E+00 -0.00000000000E+00 -0.46854038208E+00  0.46854732113E+00  0.25500000000E-02 0. -1.
         31    1    1    2    0    0 -0.40001860430E+00  0.56648004571E+00  0.62160903916E+02  0.62609247051E+02  0.74470750000E+01 0.  1.
        -31    1    1    2    0    0  0.40001860430E+00 -0.56648004571E+00  0.56983718873E+02  0.57472463469E+02  0.74470750000E+01 0. -1.
<mgrwt>
<rscale>  0 0.14972510E+02</rscale>
<asrwt>0</asrwt>
<pdfrwt beam="2">  1        2 0.99512935E+00 0.14972510E+02</pdfrwt>
<pdfrwt beam="1">  1       -2 0.99291960E+00 0.14972510E+02</pdfrwt>
<totfact>-0.10055762E-13</totfact>
</mgrwt>
</event>
<event>
 4    1  0.5170493E-019  0.1491642E+02  0.7818608E-02  0.1870630E+00
         -2   -1    0    0    0  501 -0.00000000000E+00  0.00000000000E+00  0.11860943951E+03  0.11860943954E+03  0.25500000000E-02 0.  1.
          2   -1    0    0  501    0  0.00000000000E+00 -0.00000000000E+00 -0.46897192194E+00  0.46897885461E+00  0.25500000000E-02 0. -1.
         31    1    1    2    0    0 -0.29382259812E+00 -0.24161158752E+00  0.57905768993E+02  0.58383916592E+02  0.74470750000E+01 0.  1.
        -31    1    1    2    0    0  0.29382259812E+00  0.24161158752E+00  0.60234698597E+02  0.60694501802E+02  0.74470750000E+01 0.  1.
<mgrwt>
<rscale>  0 0.14916422E+02</rscale>
<asrwt>0</asrwt>
<pdfrwt beam="2">  1        2 0.99600938E+00 0.14916422E+02</pdfrwt>
<pdfrwt beam="1">  1       -2 0.98462368E+00 0.14916422E+02</pdfrwt>
<totfact> 0.47509689E-13</totfact>
</mgrwt>
</event>
<event>
 4    1  0.5170493E-019  0.1494871E+02  0.7818608E-02  0.1869638E+00
         -2   -1    0    0    0  501 -0.00000000000E+00  0.00000000000E+00  0.11884951138E+03  0.11884951141E+03  0.25500000000E-02 0.  1.
          2   -1    0    0  501    0  0.00000000000E+00 -0.00000000000E+00 -0.47005287002E+00  0.47005978675E+00  0.25500000000E-02 0. -1.
         31    1    1    2    0    0  0.46843460308E+00 -0.41683274480E+00  0.60129485654E+02  0.60592137704E+02  0.74470750000E+01 0.  1.
        -31    1    1    2    0    0 -0.46843460308E+00  0.41683274480E+00  0.58249972857E+02  0.58727433491E+02  0.74470750000E+01 0. -1.
<mgrwt>
<rscale>  0 0.14948708E+02</rscale>
<asrwt>0</asrwt>
<pdfrwt beam="2">  1        2 0.99830398E+00 0.14948708E+02</pdfrwt>
<pdfrwt beam="1">  1       -2 0.98661770E+00 0.14948708E+02</pdfrwt>
<totfact> 0.13785067E-13</totfact>
</mgrwt>
</event>
<event>
 4    1  0.5170493E-019  0.1492613E+02  0.7818608E-02  0.1870331E+00
          2   -1    0    0  501    0  0.00000000000E+00  0.00000000000E+00  0.11993451627E+03  0.11993451630E+03  0.25500000000E-02 0. -1.
         -2   -1    0    0    0  501 -0.00000000000E+00 -0.00000000000E+00 -0.46439410542E+00  0.46440110643E+00  0.25500000000E-02 0.  1.
         31    1    1    2    0    0 -0.26202193947E+00  0.55186033839E-01  0.56441883156E+02  0.56931685389E+02  0.74470750000E+01 0.  1.
        -31    1    1    2    0    0  0.26202193947E+00 -0.55186033839E-01  0.63028239012E+02  0.63467232018E+02  0.74470750000E+01 0. -1.
<mgrwt>
<rscale>  0 0.14926125E+02</rscale>
<asrwt>0</asrwt>
<pdfrwt beam="1">  1        2 0.99554249E+00 0.14926125E+02</pdfrwt>
<pdfrwt beam="2">  1       -2 0.98636752E+00 0.14926125E+02</pdfrwt>
<totfact> 0.29532208E-13</totfact>
</mgrwt>
</event>
<event>
 4    1  0.5170493E-019  0.1492394E+02  0.7818608E-02  0.1870398E+00
         -2   -1    0    0    0  501 -0.00000000000E+00  0.00000000000E+00  0.11841355801E+03  0.11841355803E+03  0.25500000000E-02 0. -1.
          2   -1    0    0  501    0  0.00000000000E+00 -0.00000000000E+00 -0.47022138380E+00  0.47022829804E+00  0.25500000000E-02 0.  1.
         31    1    1    2    0    0  0.42861924829E+00 -0.17982107900E+00  0.58353414061E+02  0.58828529717E+02  0.74470750000E+01 0.  1.
        -31    1    1    2    0    0 -0.42861924829E+00  0.17982107900E+00  0.59589922562E+02  0.60055256615E+02  0.74470750000E+01 0.  1.
<mgrwt>
<rscale>  0 0.14923940E+02</rscale>
<asrwt>0</asrwt>
<pdfrwt beam="2">  1        2 0.99864597E+00 0.14923940E+02</pdfrwt>
<pdfrwt beam="1">  1       -2 0.98301432E+00 0.14923940E+02</pdfrwt>
<totfact> 0.31708971E-13</totfact>
</mgrwt>
</event>
<event>
 4    1 -0.5170493E-019  0.1502717E+02  0.7818608E-02  0.1867240E+00
          2   -1    0    0  501    0  0.00000000000E+00  0.00000000000E+00  0.11993733494E+03  0.11993733497E+03  0.25500000000E-02 0. -1.
         -2   -1    0    0    0  501 -0.00000000000E+00 -0.00000000000E+00 -0.47069215729E+00  0.47069906462E+00  0.25500000000E-02 0.  1.
         31    1    1    2    0    0  0.92549759566E+00 -0.16219798616E+00  0.62417276907E+02  0.62866988449E+02  0.74470750000E+01 0.  1.
        -31    1    1    2    0    0 -0.92549759566E+00  0.16219798616E+00  0.57049365876E+02  0.57541045584E+02  0.74470750000E+01 0.  1.
<mgrwt>
<rscale>  0 0.15027173E+02</rscale>
<asrwt>0</asrwt>
<pdfrwt beam="1">  1        2 0.99561787E+00 0.15027173E+02</pdfrwt>
<pdfrwt beam="2">  1       -2 0.99969210E+00 0.15027173E+02</pdfrwt>
<totfact>-0.11753576E-14</totfact>
</mgrwt>
</event>
<event>
 4    1  0.5170493E-019  0.1491275E+02  0.7818608E-02  0.1870743E+00
          2   -1    0    0  501    0  0.00000000000E+00  0.00000000000E+00  0.11979027436E+03  0.11979027439E+03  0.25500000000E-02 0.  1.
         -2   -1    0    0    0  501 -0.00000000000E+00 -0.00000000000E+00 -0.46412019692E+00  0.46412720206E+00  0.25500000000E-02 0. -1.
         31    1    1    2    0    0 -0.88686040568E-01 -0.35664293524E+00  0.60141713840E+02  0.60602142941E+02  0.74470750000E+01 0.  1.
        -31    1    1    2    0    0  0.88686040568E-01  0.35664293524E+00  0.59184440324E+02  0.59652258649E+02  0.74470750000E+01 0.  1.
<mgrwt>
<rscale>  0 0.14912747E+02</rscale>
<asrwt>0</asrwt>
<pdfrwt beam="1">  1        2 0.99434753E+00 0.14912747E+02</pdfrwt>
<pdfrwt beam="2">  1       -2 0.98578341E+00 0.14912747E+02</pdfrwt>
<totfact> 0.40723377E-13</totfact>
</mgrwt>
</event>
<event>
 4    1 -0.5170493E-019  0.1491315E+02  0.7818608E-02  0.1870730E+00
          2   -1    0    0  501    0  0.00000000000E+00  0.00000000000E+00  0.11826897274E+03  0.11826897277E+03  0.25500000000E-02 0. -1.
         -2   -1    0    0    0  501 -0.00000000000E+00 -0.00000000000E+00 -0.47011585310E+00  0.47012276890E+00  0.25500000000E-02 0.  1.
         31    1    1    2    0    0  0.98377620950E-01  0.11147603699E+00  0.56147048164E+02  0.56638962285E+02  0.74470750000E+01 0.  1.
        -31    1    1    2    0    0 -0.98377620950E-01 -0.11147603699E+00  0.61651808727E+02  0.62100133256E+02  0.74470750000E+01 0. -1.
<mgrwt>
<rscale>  0 0.14913153E+02</rscale>
<asrwt>0</asrwt>
<pdfrwt beam="1">  1        2 0.98181792E+00 0.14913153E+02</pdfrwt>
<pdfrwt beam="2">  1       -2 0.99841791E+00 0.14913153E+02</pdfrwt>
<totfact>-0.28913803E-13</totfact>
</mgrwt>
</event>
<event>
 4    1  0.5170493E-019  0.1490124E+02  0.7818608E-02  0.1871097E+00
          2   -1    0    0  501    0  0.00000000000E+00  0.00000000000E+00  0.12016755487E+03  0.12016755490E+03  0.25500000000E-02 0. -1.
         -2   -1    0    0    0  501 -0.00000000000E+00 -0.00000000000E+00 -0.46194935739E+00  0.46195639544E+00  0.25500000000E-02 0.  1.
         31    1    1    2    0    0  0.43035249912E-01  0.14802542023E+00  0.61232832354E+02  0.61684215548E+02  0.74470750000E+01 0.  1.
        -31    1    1    2    0    0 -0.43035249912E-01 -0.14802542023E+00  0.58472773161E+02  0.58945295748E+02  0.74470750000E+01 0.  1.
<mgrwt>
<rscale>  0 0.14901242E+02</rscale>
<asrwt>0</asrwt>
<pdfrwt beam="1">  1        2 0.99744920E+00 0.14901242E+02</pdfrwt>
<pdfrwt beam="2">  1       -2 0.98120220E+00 0.14901242E+02</pdfrwt>
<totfact> 0.75409511E-13</totfact>
</mgrwt>
</event>
<event>
 4    1  0.5170493E-019  0.1489744E+02  0.7818608E-02  0.1871214E+00
         -2   -1    0    0    0  501 -0.00000000000E+00  0.00000000000E+00  0.11803110170E+03  0.11803110172E+03  0.25500000000E-02 0.  1.
          2   -1    0    0  501    0  0.00000000000E+00 -0.00000000000E+00 -0.47007091534E+00  0.47007783180E+00  0.25500000000E-02 0. -1.
         31    1    1    2    0    0  0.12971657902E+00  0.78826863365E-01  0.58479364608E+02  0.58951828225E+02  0.74470750000E+01 0. -1.
        -31    1    1    2    0    0 -0.12971657902E+00 -0.78826863365E-01  0.59081666173E+02  0.59549351330E+02  0.74470750000E+01 0.  1.
<mgrwt>
<rscale>  0 0.14897436E+02</rscale>
<asrwt>0</asrwt>
<pdfrwt beam="2">  1        2 0.99831488E+00 0.14897436E+02</pdfrwt>
<pdfrwt beam="1">  1       -2 0.97985066E+00 0.14897436E+02</pdfrwt>
<totfact> 0.69497756E-13</totfact>
</mgrwt>
</event>
<event>
 4    1 -0.5170493E-019  0.1495930E+02  0.7818608E-02  0.1869313E+00
          2   -1    0    0  501    0  0.00000000000E+00  0.00000000000E+00  0.11958323105E+03  0.11958323108E+03  0.25500000000E-02 0. -1.
         -2   -1    0    0    0  501 -0.00000000000E+00 -0.00000000000E+00 -0.46783129378E+00  0.46783824334E+00  0.25500000000E-02 0.  1.
         31    1    1    2    0    0  0.50699610836E+00  0.33943302586E+00  0.56847962308E+02  0.57336916593E+02  0.74470750000E+01 0. -1.
        -31    1    1    2    0    0 -0.50699610836E+00 -0.33943302586E+00  0.62267437447E+02  0.62714152726E+02  0.74470750000E+01 0. -1.
<mgrwt>
<rscale>  0 0.14959304E+02</rscale>
<asrwt>0</asrwt>
<pdfrwt beam="1">  1        2 0.99266624E+00 0.14959304E+02</pdfrwt>
<pdfrwt beam="2">  1       -2 0.99362824E+00 0.14959304E+02</pdfrwt>
<totfact>-0.13677692E-13</totfact>
</mgrwt>
</event>
<event>
 4    1  0.5170493E-019  0.1490600E+02  0.7818608E-02  0.1870951E+00
         -2   -1    0    0    0  501 -0.00000000000E+00  0.00000000000E+00  0.11859139421E+03  0.11859139424E+03  0.25500000000E-02 0.  1.
          2   -1    0    0  501    0  0.00000000000E+00 -0.00000000000E+00 -0.46838802444E+00  0.46839496575E+00  0.25500000000E-02 0. -1.
         31    1    1    2    0    0 -0.19688616447E-01  0.28729481778E+00  0.59645821357E+02  0.60109615348E+02  0.74470750000E+01 0. -1.
        -31    1    1    2    0    0  0.19688616447E-01 -0.28729481778E+00  0.58477184833E+02  0.58950173859E+02  0.74470750000E+01 0. -1.
<mgrwt>
<rscale>  0 0.14905999E+02</rscale>
<asrwt>0</asrwt>
<pdfrwt beam="2">  1        2 0.99477360E+00 0.14905999E+02</pdfrwt>
<pdfrwt beam="1">  1       -2 0.98446964E+00 0.14905999E+02</pdfrwt>
<totfact> 0.57288580E-13</totfact>
</mgrwt>
</event>
<event>
 4    1 -0.5170493E-019  0.1495564E+02  0.7818608E-02  0.1869425E+00
         -2   -1    0    0    0  501 -0.00000000000E+00  0.00000000000E+00  0.11939514705E+03  0.11939514707E+03  0.25500000000E-02 0. -1.
          2   -1    0    0  501    0  0.00000000000E+00 -0.00000000000E+00 -0.46833855501E+00  0.46834549706E+00  0.25500000000E-02 0.  1.
         31    1    1    2    0    0  0.59909826525E-01  0.14886414482E-01  0.54057071937E+02  0.54567662248E+02  0.74470750000E+01 0.  1.
        -31    1    1    2    0    0 -0.59909826525E-01 -0.14886414482E-01  0.64869736555E+02  0.65295830323E+02  0.74470750000E+01 0. -1.
<mgrwt>
<rscale>  0 0.14955637E+02</rscale>
<asrwt>0</asrwt>
<pdfrwt beam="2">  1        2 0.99469529E+00 0.14955637E+02</pdfrwt>
<pdfrwt beam="1">  1       -2 0.99111522E+00 0.14955637E+02</pdfrwt>
<totfact>-0.48105021E-14</totfact>
</mgrwt>
</event>
<event>
 4    1  0.5170493E-019  0.1490683E+02  0.7818608E-02  0.1870925E+00
          2   -1    0    0  501    0  0.00000000000E+00  0.00000000000E+00  0.11993463367E+03  0.11993463370E+03  0.25500000000E-02 0.  1.
         -2   -1    0    0    0  501 -0.00000000000E+00 -0.00000000000E+00 -0.46319366137E+00  0.46320068052E+00  0.25500000000E-02 0. -1.
         31    1    1    2    0    0 -0.19215531718E+00 -0.20222748633E+00  0.60777600285E+02  0.61232780780E+02  0.74470750000E+01 0.  1.
        -31    1    1    2    0    0  0.19215531718E+00  0.20222748633E+00  0.58693839722E+02  0.59165053596E+02  0.74470750000E+01 0. -1.
<mgrwt>
<rscale>  0 0.14906829E+02</rscale>
<asrwt>0</asrwt>
<pdfrwt beam="1">  1        2 0.99553353E+00 0.14906829E+02</pdfrwt>
<pdfrwt beam="2">  1       -2 0.98382764E+00 0.14906829E+02</pdfrwt>
<totfact> 0.61986865E-13</totfact>
</mgrwt>
</event>
<event>
 4    1  0.5170493E-019  0.1491505E+02  0.7818608E-02  0.1870672E+00
          2   -1    0    0  501    0  0.00000000000E+00  0.00000000000E+00  0.11985315913E+03  0.11985315916E+03  0.25500000000E-02 0. -1.
         -2   -1    0    0    0  501 -0.00000000000E+00 -0.00000000000E+00 -0.46402020598E+00  0.46402721262E+00  0.25500000000E-02 0.  1.
         31    1    1    2    0    0  0.19533703374E+00  0.15150804861E+00  0.62176655771E+02  0.62621534317E+02  0.74470750000E+01 0. -1.
        -31    1    1    2    0    0 -0.19533703374E+00 -0.15150804861E+00  0.57212483152E+02  0.57695652052E+02  0.74470750000E+01 0.  1.
<mgrwt>
<rscale>  0 0.14915054E+02</rscale>
<asrwt>0</asrwt>
<pdfrwt beam="1">  1        2 0.99486668E+00 0.14915054E+02</pdfrwt>
<pdfrwt beam="2">  1       -2 0.98557385E+00 0.14915054E+02</pdfrwt>
<totfact> 0.41465176E-13</totfact>
</mgrwt>
</event>
<event>
 4    1  0.5170493E-019  0.1491256E+02  0.7818608E-02  0.1870749E+00
         -2   -1    0    0    0  501 -0.00000000000E+00  0.00000000000E+00  0.11832187381E+03  0.11832187384E+03  0.25500000000E-02 0.  1.
          2   -1    0    0  501    0  0.00000000000E+00 -0.00000000000E+00 -0.46986829548E+00  0.46987521492E+00  0.25500000000E-02 0. -1.
         31    1    1    2    0    0 -0.62427048754E-01  0.22762060302E+00  0.56652227830E+02  0.57140087088E+02  0.74470750000E+01 0. -1.
        -31    1    1    2    0    0  0.62427048754E-01 -0.22762060302E+00  0.61199777687E+02  0.61651661966E+02  0.74470750000E+01 0.  1.
<mgrwt>
<rscale>  0 0.14912560E+02</rscale>
<asrwt>0</asrwt>
<pdfrwt beam="2">  1        2 0.99789601E+00 0.14912560E+02</pdfrwt>
<pdfrwt beam="1">  1       -2 0.98225330E+00 0.14912560E+02</pdfrwt>
<totfact> 0.53271577E-13</totfact>
</mgrwt>
</event>
<event>
 4    1 -0.5170493E-019  0.1498104E+02  0.7818608E-02  0.1868648E+00
          2   -1    0    0  501    0  0.00000000000E+00  0.00000000000E+00  0.11956008034E+03  0.11956008036E+03  0.25500000000E-02 0. -1.
         -2   -1    0    0    0  501 -0.00000000000E+00 -0.00000000000E+00 -0.46928289618E+00  0.46928982425E+00  0.25500000000E-02 0.  1.
         31    1    1    2    0    0  0.41858593581E+00  0.68212046893E+00  0.60283624707E+02  0.60747138504E+02  0.74470750000E+01 0.  1.
        -31    1    1    2    0    0 -0.41858593581E+00 -0.68212046893E+00  0.58807172733E+02  0.59282231684E+02  0.74470750000E+01 0.  1.
<mgrwt>
<rscale>  0 0.14981044E+02</rscale>
<asrwt>0</asrwt>
<pdfrwt beam="1">  1        2 0.99248681E+00 0.14981044E+02</pdfrwt>
<pdfrwt beam="2">  1       -2 0.99669845E+00 0.14981044E+02</pdfrwt>
<totfact>-0.12423497E-13</totfact>
</mgrwt>
</event>
<event>
 4    1  0.5170493E-019  0.1490938E+02  0.7818608E-02  0.1870846E+00
          2   -1    0    0  501    0  0.00000000000E+00  0.00000000000E+00  0.12035143864E+03  0.12035143866E+03  0.25500000000E-02 0. -1.
         -2   -1    0    0    0  501 -0.00000000000E+00 -0.00000000000E+00 -0.46174744835E+00  0.46175448948E+00  0.25500000000E-02 0.  1.
         31    1    1    2    0    0 -0.12937165334E+00  0.15186420306E+00  0.62144237490E+02  0.62589176213E+02  0.74470750000E+01 0. -1.
        -31    1    1    2    0    0  0.12937165334E+00 -0.15186420306E+00  0.57745453699E+02  0.58224016941E+02  0.74470750000E+01 0. -1.
<mgrwt>
<rscale>  0 0.14909379E+02</rscale>
<asrwt>0</asrwt>
<pdfrwt beam="1">  1        2 0.99896801E+00 0.14909379E+02</pdfrwt>
<pdfrwt beam="2">  1       -2 0.98078072E+00 0.14909379E+02</pdfrwt>
<totfact> 0.38969410E-13</totfact>
</mgrwt>
</event>
<event>
 4    1 -0.5170493E-019  0.1498040E+02  0.7818608E-02  0.1868667E+00
          2   -1    0    0  501    0  0.00000000000E+00  0.00000000000E+00  0.12022577037E+03  0.12022577040E+03  0.25500000000E-02 0. -1.
         -2   -1    0    0    0  501 -0.00000000000E+00 -0.00000000000E+00 -0.46664460924E+00  0.46665157648E+00  0.25500000000E-02 0.  1.
         31    1    1    2    0    0  0.11257700009E+00 -0.39126984077E+00  0.65452309422E+02  0.65875864324E+02  0.74470750000E+01 0. -1.
        -31    1    1    2    0    0 -0.11257700009E+00  0.39126984077E+00  0.54306816341E+02  0.54816557652E+02  0.74470750000E+01 0.  1.
<mgrwt>
<rscale>  0 0.14980404E+02</rscale>
<asrwt>0</asrwt>
<pdfrwt beam="1">  1        2 0.99796939E+00 0.14980404E+02</pdfrwt>
<pdfrwt beam="2">  1       -2 0.99113827E+00 0.14980404E+02</pdfrwt>
<totfact>-0.26462799E-14</totfact>
</mgrwt>
</event>
<event>
 4    1  0.5170493E-019  0.1491711E+02  0.7818608E-02  0.1870608E+00
          2   -1    0    0  501    0  0.00000000000E+00  0.00000000000E+00  0.12009490121E+03  0.12009490123E+03  0.25500000000E-02 0. -1.
         -2   -1    0    0    0  501 -0.00000000000E+00 -0.00000000000E+00 -0.46321399965E+00  0.46322101849E+00  0.25500000000E-02 0.  1.
         31    1    1    2    0    0  0.18269825961E+00  0.30828399842E+00  0.61486279939E+02  0.61936660908E+02  0.74470750000E+01 0. -1.
        -31    1    1    2    0    0 -0.18269825961E+00 -0.30828399842E+00  0.58145407269E+02  0.58621461345E+02  0.74470750000E+01 0.  1.
<mgrwt>
<rscale>  0 0.14917113E+02</rscale>
<asrwt>0</asrwt>
<pdfrwt beam="1">  1        2 0.99685891E+00 0.14917113E+02</pdfrwt>
<pdfrwt beam="2">  1       -2 0.98387572E+00 0.14917113E+02</pdfrwt>
<totfact> 0.49525009E-13</totfact>
</mgrwt>
</event>
<event>
 4    1  0.5170493E-019  0.1491813E+02  0.7818608E-02  0.1870577E+00
         -2   -1    0    0    0  501 -0.00000000000E+00  0.00000000000E+00  0.11862694441E+03  0.11862694444E+03  0.25500000000E-02 0.  1.
          2   -1    0    0  501    0  0.00000000000E+00 -0.00000000000E+00 -0.46900995281E+00  0.46901688491E+00  0.25500000000E-02 0. -1.
         31    1    1    2    0    0  0.34531150263E+00  0.75123766276E-01  0.60931065680E+02  0.61385491564E+02  0.74470750000E+01 0.  1.
        -31    1    1    2    0    0 -0.34531150263E+00 -0.75123766276E-01  0.57226868779E+02  0.57710469760E+02  0.74470750000E+01 0. -1.
<mgrwt>
<rscale>  0 0.14918127E+02</rscale>
<asrwt>0</asrwt>
<pdfrwt beam="2">  1        2 0.99609041E+00 0.14918127E+02</pdfrwt>
<pdfrwt beam="1">  1       -2 0.98476874E+00 0.14918127E+02</pdfrwt>
<totfact> 0.45134505E-13</totfact>
</mgrwt>
</event>
<event>
 4    1 -0.5170493E-019  0.1496139E+02  0.7818608E-02  0.1869249E+00
         -2   -1    0    0    0  501 -0.00000000000E+00  0.00000000000E+00  0.12013318572E+03  0.12013318575E+03  0.25500000000E-02 0.  1.
          2   -1    0    0  501    0  0.00000000000E+00 -0.00000000000E+00 -0.46581950729E+00  0.46582648687E+00  0.25500000000E-02 0. -1.
         31    1    1    2    0    0  0.24039531387E+00  0.54714899258E+00  0.62900090842E+02  0.63342225379E+02  0.74470750000E+01 0.  1.
        -31    1    1    2    0    0 -0.24039531387E+00 -0.54714899258E+00  0.56767275371E+02  0.57256786856E+02  0.74470750000E+01 0. -1.
<mgrwt>
<rscale>  0 0.14961391E+02</rscale>
<asrwt>0</asrwt>
<pdfrwt beam="2">  1        2 0.98938962E+00 0.14961391E+02</pdfrwt>
<pdfrwt beam="1">  1       -2 0.99719701E+00 0.14961391E+02</pdfrwt>
<totfact>-0.14534051E-13</totfact>
</mgrwt>
</event>
<event>
 4    1 -0.5170493E-019  0.1490527E+02  0.7818608E-02  0.1870973E+00
          2   -1    0    0  501    0  0.00000000000E+00  0.00000000000E+00  0.11832298995E+03  0.11832298997E+03  0.25500000000E-02 0. -1.
         -2   -1    0    0    0  501 -0.00000000000E+00 -0.00000000000E+00 -0.46940453780E+00  0.46941146408E+00  0.25500000000E-02 0.  1.
         31    1    1    2    0    0 -0.13460595292E+00  0.42342108871E-01  0.60925992421E+02  0.61379600766E+02  0.74470750000E+01 0. -1.
        -31    1    1    2    0    0  0.13460595292E+00 -0.42342108871E-01  0.56927592988E+02  0.57412800673E+02  0.74470750000E+01 0.  1.
<mgrwt>
<rscale>  0 0.14905269E+02</rscale>
<asrwt>0</asrwt>
<pdfrwt beam="1">  1        2 0.98225869E+00 0.14905269E+02</pdfrwt>
<pdfrwt beam="2">  1       -2 0.99691503E+00 0.14905269E+02</pdfrwt>
<totfact>-0.44758706E-13</totfact>
</mgrwt>
</event>
<event>
 4    1 -0.5170493E-019  0.1498131E+02  0.7818608E-02  0.1868639E+00
          2   -1    0    0  501    0  0.00000000000E+00  0.00000000000E+00  0.11935644655E+03  0.11935644657E+03  0.25500000000E-02 0.  1.
         -2   -1    0    0    0  501 -0.00000000000E+00 -0.00000000000E+00 -0.47010010953E+00  0.47010702556E+00  0.25500000000E-02 0. -1.
         31    1    1    2    0    0 -0.61913213015E+00  0.43033519919E+00  0.57146425445E+02  0.57634550230E+02  0.74470750000E+01 0. -1.
        -31    1    1    2    0    0  0.61913213015E+00 -0.43033519919E+00  0.61739920991E+02  0.62192003369E+02  0.74470750000E+01 0.  1.
<mgrwt>
<rscale>  0 0.14981308E+02</rscale>
<asrwt>0</asrwt>
<pdfrwt beam="1">  1        2 0.99080978E+00 0.14981308E+02</pdfrwt>
<pdfrwt beam="2">  1       -2 0.99842062E+00 0.14981308E+02</pdfrwt>
<totfact>-0.81121232E-14</totfact>
</mgrwt>
</event>
<event>
 4    1  0.5170493E-019  0.1489572E+02  0.7818608E-02  0.1871268E+00
         -2   -1    0    0    0  501 -0.00000000000E+00  0.00000000000E+00  0.11846291653E+03  0.11846291656E+03  0.25500000000E-02 0.  1.
          2   -1    0    0  501    0  0.00000000000E+00 -0.00000000000E+00 -0.46824930146E+00  0.46825624483E+00  0.25500000000E-02 0. -1.
         31    1    1    2    0    0  0.27795366756E-01  0.83247736301E-01  0.58494666969E+02  0.58966877928E+02  0.74470750000E+01 0.  1.
        -31    1    1    2    0    0 -0.27795366756E-01 -0.83247736301E-01  0.59500000263E+02  0.59964294877E+02  0.74470750000E+01 0.  1.
<mgrwt>
<rscale>  0 0.14895716E+02</rscale>
<asrwt>0</asrwt>
<pdfrwt beam="2">  1        2 0.99447589E+00 0.14895716E+02</pdfrwt>
<pdfrwt beam="1">  1       -2 0.98340615E+00 0.14895716E+02</pdfrwt>
<totfact> 0.76438130E-13</totfact>
</mgrwt>
</event>
<event>
 4    1  0.5170493E-019  0.1493035E+02  0.7818608E-02  0.1870201E+00
         -2   -1    0    0    0  501 -0.00000000000E+00  0.00000000000E+00  0.11853771516E+03  0.11853771518E+03  0.25500000000E-02 0.  1.
          2   -1    0    0  501    0  0.00000000000E+00 -0.00000000000E+00 -0.47013237391E+00  0.47013928946E+00  0.25500000000E-02 0. -1.
         31    1    1    2    0    0  0.48701558015E+00  0.14364242971E+00  0.59910122375E+02  0.60373334398E+02  0.74470750000E+01 0. -1.
        -31    1    1    2    0    0 -0.48701558015E+00 -0.14364242971E+00  0.58157460408E+02  0.58634520075E+02  0.74470750000E+01 0. -1.
<mgrwt>
<rscale>  0 0.14930349E+02</rscale>
<asrwt>0</asrwt>
<pdfrwt beam="2">  1        2 0.99846182E+00 0.14930349E+02</pdfrwt>
<pdfrwt beam="1">  1       -2 0.98404021E+00 0.14930349E+02</pdfrwt>
<totfact> 0.27780219E-13</totfact>
</mgrwt>
</event>
<event>
 4    1 -0.5170493E-019  0.1491835E+02  0.7818608E-02  0.1870570E+00
          2   -1    0    0  501    0  0.00000000000E+00  0.00000000000E+00  0.11870402973E+03  0.11870402975E+03  0.25500000000E-02 0.  1.
         -2   -1    0    0    0  501 -0.00000000000E+00 -0.00000000000E+00 -0.46871913817E+00  0.46872607457E+00  0.25500000000E-02 0. -1.
         31    1    1    2    0    0  0.11051484796E+00 -0.13037120404E+00  0.56012162591E+02  0.56505313860E+02  0.74470750000E+01 0. -1.
        -31    1    1    2    0    0 -0.11051484796E+00  0.13037120404E+00  0.62223147998E+02  0.62667441970E+02  0.74470750000E+01 0.  1.
<mgrwt>
<rscale>  0 0.14918346E+02</rscale>
<asrwt>0</asrwt>
<pdfrwt beam="1">  1        2 0.98540373E+00 0.14918346E+02</pdfrwt>
<pdfrwt beam="2">  1       -2 0.99547776E+00 0.14918346E+02</pdfrwt>
<totfact>-0.31899208E-13</totfact>
</mgrwt>
</event>
<event>
 4    1  0.5170493E-019  0.1495472E+02  0.7818608E-02  0.1869453E+00
         -2   -1    0    0    0  501 -0.00000000000E+00  0.00000000000E+00  0.11881392236E+03  0.11881392239E+03  0.25500000000E-02 0.  1.
          2   -1    0    0  501    0  0.00000000000E+00 -0.00000000000E+00 -0.47057219977E+00  0.47057910887E+00  0.25500000000E-02 0. -1.
         31    1    1    2    0    0 -0.55582293067E+00 -0.31110262153E+00  0.60887847357E+02  0.61344882474E+02  0.74470750000E+01 0.  1.
        -31    1    1    2    0    0  0.55582293067E+00  0.31110262153E+00  0.57455502805E+02  0.57939619024E+02  0.74470750000E+01 0. -1.
<mgrwt>
<rscale>  0 0.14954724E+02</rscale>
<asrwt>0</asrwt>
<pdfrwt beam="2">  1        2 0.99940139E+00 0.14954724E+02</pdfrwt>
<pdfrwt beam="1">  1       -2 0.98632772E+00 0.14954724E+02</pdfrwt>
<totfact> 0.61142099E-14</totfact>
</mgrwt>
</event>
<event>
 4    1 -0.5170493E-019  0.1494396E+02  0.7818608E-02  0.1869783E+00
         -2   -1    0    0    0  501 -0.00000000000E+00  0.00000000000E+00  0.12001025861E+03  0.12001025864E+03  0.25500000000E-02 0. -1.
          2   -1    0    0  501    0  0.00000000000E+00 -0.00000000000E+00 -0.46521092117E+00  0.46521790988E+00  0.25500000000E-02 0.  1.
         31    1    1    2    0    0 -0.57881055630E+00  0.73036959675E-01  0.58347987946E+02  0.58824204027E+02  0.74470750000E+01 0.  1.
        -31    1    1    2    0    0  0.57881055630E+00 -0.73036959675E-01  0.61197059745E+02  0.61651272521E+02  0.74470750000E+01 0.  1.
<mgrwt>
<rscale>  0 0.14943963E+02</rscale>
<asrwt>0</asrwt>
<pdfrwt beam="2">  1        2 0.98809810E+00 0.14943963E+02</pdfrwt>
<pdfrwt beam="1">  1       -2 0.99617553E+00 0.14943963E+02</pdfrwt>
<totfact>-0.20272041E-13</totfact>
</mgrwt>
</event>
<event>
 4    1 -0.5170493E-019  0.1496334E+02  0.7818608E-02  0.1869189E+00
          2   -1    0    0  501    0  0.00000000000E+00  0.00000000000E+00  0.11960663815E+03  0.11960663817E+03  0.25500000000E-02 0.  1.
         -2   -1    0    0    0  501 -0.00000000000E+00 -0.00000000000E+00 -0.46799187073E+00  0.46799881791E+00  0.25500000000E-02 0. -1.
         31    1    1    2    0    0  0.31796996042E+00  0.15576642797E+00  0.64587476955E+02  0.65016355431E+02  0.74470750000E+01 0.  1.
        -31    1    1    2    0    0 -0.31796996042E+00 -0.15576642797E+00  0.54551169322E+02  0.55058281562E+02  0.74470750000E+01 0. -1.
<mgrwt>
<rscale>  0 0.14963336E+02</rscale>
<asrwt>0</asrwt>
<pdfrwt beam="1">  1        2 0.99286111E+00 0.14963336E+02</pdfrwt>
<pdfrwt beam="2">  1       -2 0.99396872E+00 0.14963336E+02</pdfrwt>
<totfact>-0.13891209E-13</totfact>
</mgrwt>
</event>
<event>
 4    1 -0.5170493E-019  0.1498032E+02  0.7818608E-02  0.1868670E+00
          2   -1    0    0  501    0  0.00000000000E+00  0.00000000000E+00  0.11980668620E+03  0.11980668623E+03  0.25500000000E-02 0. -1.
         -2   -1    0    0    0  501 -0.00000000000E+00 -0.00000000000E+00 -0.46827161037E+00  0.46827855340E+00  0.25500000000E-02 0.  1.
         31    1    1    2    0    0  0.56009635847E+00 -0.56731226016E+00  0.60387863121E+02  0.60850542229E+02  0.74470750000E+01 0.  1.
        -31    1    1    2    0    0 -0.56009635847E+00  0.56731226016E+00  0.58950551473E+02  0.59424422556E+02  0.74470750000E+01 0. -1.
<mgrwt>
<rscale>  0 0.14980319E+02</rscale>
<asrwt>0</asrwt>
<pdfrwt beam="1">  1        2 0.99451756E+00 0.14980319E+02</pdfrwt>
<pdfrwt beam="2">  1       -2 0.99456701E+00 0.14980319E+02</pdfrwt>
<totfact>-0.12511413E-13</totfact>
</mgrwt>
</event>
<event>
 4    1 -0.5170493E-019  0.1498616E+02  0.7818608E-02  0.1868491E+00
          2   -1    0    0  501    0  0.00000000000E+00  0.00000000000E+00  0.12010804480E+03  0.12010804483E+03  0.25500000000E-02 0. -1.
         -2   -1    0    0    0  501 -0.00000000000E+00 -0.00000000000E+00 -0.46746091707E+00  0.46746787215E+00  0.25500000000E-02 0.  1.
         31    1    1    2    0    0  0.19343287028E-01  0.75391033780E+00  0.57049959863E+02  0.57538905112E+02  0.74470750000E+01 0.  1.
        -31    1    1    2    0    0 -0.19343287028E-01 -0.75391033780E+00  0.62590624024E+02  0.63036607592E+02  0.74470750000E+01 0. -1.
<mgrwt>
<rscale>  0 0.14986159E+02</rscale>
<asrwt>0</asrwt>
<pdfrwt beam="1">  1        2 0.99700270E+00 0.14986159E+02</pdfrwt>
<pdfrwt beam="2">  1       -2 0.99286157E+00 0.14986159E+02</pdfrwt>
<totfact>-0.74336857E-14</totfact>
</mgrwt>
</event>
<event>
 4    1 -0.5170493E-019  0.1491447E+02  0.7818608E-02  0.1870690E+00
         -2   -1    0    0    0  501 -0.00000000000E+00  0.00000000000E+00  0.12023272516E+03  0.12023272519E+03  0.25500000000E-02 0.  1.
          2   -1    0    0  501    0  0.00000000000E+00 -0.00000000000E+00 -0.46251878188E+00  0.46252581127E+00  0.25500000000E-02 0. -1.
         31    1    1    2    0    0 -0.37507993872E+00 -0.61112706520E-01  0.59209312271E+02  0.59677014045E+02  0.74470750000E+01 0.  1.
        -31    1    1    2    0    0  0.37507993872E+00  0.61112706520E-01  0.60560894107E+02  0.61018236952E+02  0.74470750000E+01 0.  1.
<mgrwt>
<rscale>  0 0.14914465E+02</rscale>
<asrwt>0</asrwt>
<pdfrwt beam="2">  1        2 0.98240907E+00 0.14914465E+02</pdfrwt>
<pdfrwt beam="1">  1       -2 0.99799278E+00 0.14914465E+02</pdfrwt>
<totfact>-0.31892366E-13</totfact>
</mgrwt>
</event>
<event>
 4    1 -0.5170493E-019  0.1493264E+02  0.7818608E-02  0.1870131E+00
         -2   -1    0    0    0  501 -0.00000000000E+00  0.00000000000E+00  0.12014392306E+03  0.12014392308E+03  0.25500000000E-02 0. -1.
          2   -1    0    0  501    0  0.00000000000E+00 -0.00000000000E+00 -0.46398955456E+00  0.46399656167E+00  0.25500000000E-02 0.  1.
         31    1    1    2    0    0  0.48875657030E-01  0.17019093915E+00  0.55756032006E+02  0.56251447847E+02  0.74470750000E+01 0.  1.
        -31    1    1    2    0    0 -0.48875657030E-01 -0.17019093915E+00  0.63923901495E+02  0.64356471797E+02  0.74470750000E+01 0. -1.
<mgrwt>
<rscale>  0 0.14932642E+02</rscale>
<asrwt>0</asrwt>
<pdfrwt beam="2">  1        2 0.98551820E+00 0.14932642E+02</pdfrwt>
<pdfrwt beam="1">  1       -2 0.99727066E+00 0.14932642E+02</pdfrwt>
<totfact>-0.24011791E-13</totfact>
</mgrwt>
</event>
<event>
 4    1 -0.5170493E-019  0.1491430E+02  0.7818608E-02  0.1870695E+00
         -2   -1    0    0    0  501 -0.00000000000E+00  0.00000000000E+00  0.12010935183E+03  0.12010935186E+03  0.25500000000E-02 0. -1.
          2   -1    0    0  501    0  0.00000000000E+00 -0.00000000000E+00 -0.46298361265E+00  0.46299063499E+00  0.25500000000E-02 0.  1.
         31    1    1    2    0    0  0.32447265418E+00 -0.15310047981E+00  0.58639488871E+02  0.59111566579E+02  0.74470750000E+01 0.  1.
        -31    1    1    2    0    0 -0.32447265418E+00  0.15310047981E+00  0.61006879350E+02  0.61460775917E+02  0.74470750000E+01 0. -1.
<mgrwt>
<rscale>  0 0.14914300E+02</rscale>
<asrwt>0</asrwt>
<pdfrwt beam="2">  1        2 0.98338872E+00 0.14914300E+02</pdfrwt>
<pdfrwt beam="1">  1       -2 0.99697649E+00 0.14914300E+02</pdfrwt>
<totfact>-0.36505708E-13</totfact>
</mgrwt>
</event>
<event>
 4    1 -0.5170493E-019  0.1496529E+02  0.7818608E-02  0.1869130E+00
         -2   -1    0    0    0  501 -0.00000000000E+00  0.00000000000E+00  0.12017543437E+03  0.12017543440E+03  0.25500000000E-02 0. -1.
          2   -1    0    0  501    0  0.00000000000E+00 -0.00000000000E+00 -0.46589820512E+00  0.46590518352E+00  0.25500000000E-02 0.  1.
         31    1    1    2    0    0 -0.11199762617E+00  0.71976110389E+00  0.59690312016E+02  0.60157483941E+02  0.74470750000E+01 0. -1.
        -31    1    1    2    0    0  0.11199762617E+00 -0.71976110389E+00  0.60019224150E+02  0.60483855641E+02  0.74470750000E+01 0.  1.
<mgrwt>
<rscale>  0 0.14965285E+02</rscale>
<asrwt>0</asrwt>
<pdfrwt beam="2">  1        2 0.98955747E+00 0.14965285E+02</pdfrwt>
<pdfrwt beam="1">  1       -2 0.99754700E+00 0.14965285E+02</pdfrwt>
<totfact>-0.12987783E-13</totfact>
</mgrwt>
</event>
<event>
 4    1  0.5170493E-019  0.1491102E+02  0.7818608E-02  0.1870796E+00
         -2   -1    0    0    0  501 -0.00000000000E+00  0.00000000000E+00  0.11832602603E+03  0.11832602605E+03  0.25500000000E-02 0.  1.
          2   -1    0    0  501    0  0.00000000000E+00 -0.00000000000E+00 -0.46975481157E+00  0.46976173268E+00  0.25500000000E-02 0. -1.
         31    1    1    2    0    0  0.28435756996E+00  0.21067018620E+00  0.58756229522E+02  0.59227347356E+02  0.74470750000E+01 0.  1.
        -31    1    1    2    0    0 -0.28435756996E+00 -0.21067018620E+00  0.59100041693E+02  0.59568440431E+02  0.74470750000E+01 0.  1.
<mgrwt>
<rscale>  0 0.14911020E+02</rscale>
<asrwt>0</asrwt>
<pdfrwt beam="2">  1        2 0.99765609E+00 0.14911020E+02</pdfrwt>
<pdfrwt beam="1">  1       -2 0.98228669E+00 0.14911020E+02</pdfrwt>
<totfact> 0.57403721E-13</totfact>
</mgrwt>
</event>
<event>
 4    1 -0.5170493E-019  0.1496825E+02  0.7818608E-02  0.1869039E+00
          2   -1    0    0  501    0  0.00000000000E+00  0.00000000000E+00  0.11982523301E+03  0.11982523304E+03  0.25500000000E-02 0.  1.
         -2   -1    0    0    0  501 -0.00000000000E+00 -0.00000000000E+00 -0.46744472328E+00  0.46745167860E+00  0.25500000000E-02 0. -1.
         31    1    1    2    0    0  0.52278850595E+00 -0.24719794773E+00  0.63437653234E+02  0.63875888945E+02  0.74470750000E+01 0. -1.
        -31    1    1    2    0    0 -0.52278850595E+00  0.24719794773E+00  0.55920135056E+02  0.56416795774E+02  0.74470750000E+01 0. -1.
<mgrwt>
<rscale>  0 0.14968245E+02</rscale>
<asrwt>0</asrwt>
<pdfrwt beam="1">  1        2 0.99466408E+00 0.14968245E+02</pdfrwt>
<pdfrwt beam="2">  1       -2 0.99281822E+00 0.14968245E+02</pdfrwt>
<totfact>-0.10323082E-13</totfact>
</mgrwt>
</event>
<event>
 4    1  0.5170493E-019  0.1490895E+02  0.7818608E-02  0.1870860E+00
         -2   -1    0    0    0  501 -0.00000000000E+00  0.00000000000E+00  0.11831708996E+03  0.11831708999E+03  0.25500000000E-02 0.  1.
          2   -1    0    0  501    0  0.00000000000E+00 -0.00000000000E+00 -0.46965982000E+00  0.46966674251E+00  0.25500000000E-02 0. -1.
         31    1    1    2    0    0  0.28933277069E+00  0.95986053718E-01  0.57874451252E+02  0.58352411780E+02  0.74470750000E+01 0. -1.
        -31    1    1    2    0    0 -0.28933277069E+00 -0.95986053718E-01  0.59972978893E+02  0.60434344955E+02  0.74470750000E+01 0.  1.
<mgrwt>
<rscale>  0 0.14908950E+02</rscale>
<asrwt>0</asrwt>
<pdfrwt beam="2">  1        2 0.99745485E+00 0.14908950E+02</pdfrwt>
<pdfrwt beam="1">  1       -2 0.98221202E+00 0.14908950E+02</pdfrwt>
<totfact> 0.61902957E-13</totfact>
</mgrwt>
</event>
<event>
 4    1  0.5170493E-019  0.1489935E+02  0.7818608E-02  0.1871156E+00
         -2   -1    0    0    0  501 -0.00000000000E+00  0.00000000000E+00  0.11795991750E+03  0.11795991753E+03  0.25500000000E-02 0. -1.
          2   -1    0    0  501    0  0.00000000000E+00 -0.00000000000E+00 -0.47047524707E+00  0.47048215758E+00  0.25500000000E-02 0.  1.
         31    1    1    2    0    0 -0.28617112063E-01 -0.10424355540E+00  0.60051320121E+02  0.60511417600E+02  0.74470750000E+01 0. -1.
        -31    1    1    2    0    0  0.28617112063E-01  0.10424355540E+00  0.57438122135E+02  0.57918982088E+02  0.74470750000E+01 0.  1.
<mgrwt>
<rscale>  0 0.14899347E+02</rscale>
<asrwt>0</asrwt>
<pdfrwt beam="2">  1        2 0.99916777E+00 0.14899347E+02</pdfrwt>
<pdfrwt beam="1">  1       -2 0.97926541E+00 0.14899347E+02</pdfrwt>
<totfact> 0.41508077E-13</totfact>
</mgrwt>
</event>
<event>
 4    1  0.5170493E-019  0.1490061E+02  0.7818608E-02  0.1871117E+00
          2   -1    0    0  501    0  0.00000000000E+00  0.00000000000E+00  0.11995566164E+03  0.11995566166E+03  0.25500000000E-02 0.  1.
         -2   -1    0    0    0  501 -0.00000000000E+00 -0.00000000000E+00 -0.46272616926E+00  0.46273319550E+00  0.25500000000E-02 0. -1.
         31    1    1    2    0    0  0.79967896064E-01  0.17354065571E+00  0.60617285107E+02  0.61073322254E+02  0.74470750000E+01 0.  1.
        -31    1    1    2    0    0 -0.79967896064E-01 -0.17354065571E+00  0.58875650360E+02  0.59345072605E+02  0.74470750000E+01 0.  1.
<mgrwt>
<rscale>  0 0.14900611E+02</rscale>
<asrwt>0</asrwt>
<pdfrwt beam="1">  1        2 0.99570354E+00 0.14900611E+02</pdfrwt>
<pdfrwt beam="2">  1       -2 0.98283917E+00 0.14900611E+02</pdfrwt>
<totfact> 0.76019214E-13</totfact>
</mgrwt>
</event>
<event>
 4    1 -0.5170493E-019  0.1497838E+02  0.7818608E-02  0.1868729E+00
         -2   -1    0    0    0  501 -0.00000000000E+00  0.00000000000E+00  0.12031670893E+03  0.12031670895E+03  0.25500000000E-02 0. -1.
          2   -1    0    0  501    0  0.00000000000E+00 -0.00000000000E+00 -0.46616587427E+00  0.46617284867E+00  0.25500000000E-02 0.  1.
         31    1    1    2    0    0  0.36322996084E+00 -0.70485108028E+00  0.60062481192E+02  0.60527591428E+02  0.74470750000E+01 0.  1.
        -31    1    1    2    0    0 -0.36322996084E+00  0.70485108028E+00  0.59788061860E+02  0.60255290374E+02  0.74470750000E+01 0.  1.
<mgrwt>
<rscale>  0 0.14978380E+02</rscale>
<asrwt>0</asrwt>
<pdfrwt beam="2">  1        2 0.99012828E+00 0.14978380E+02</pdfrwt>
<pdfrwt beam="1">  1       -2 0.99871737E+00 0.14978380E+02</pdfrwt>
<totfact>-0.71847125E-14</totfact>
</mgrwt>
</event>
<event>
 4    1 -0.5170493E-019  0.1496401E+02  0.7818608E-02  0.1869169E+00
         -2   -1    0    0    0  501 -0.00000000000E+00  0.00000000000E+00  0.11975230217E+03  0.11975230220E+03  0.25500000000E-02 0. -1.
          2   -1    0    0  501    0  0.00000000000E+00 -0.00000000000E+00 -0.46746493791E+00  0.46747189293E+00  0.25500000000E-02 0.  1.
         31    1    1    2    0    0 -0.16815518246E+00  0.50790870045E+00  0.55745767983E+02  0.56243540265E+02  0.74470750000E+01 0.  1.
        -31    1    1    2    0    0  0.16815518246E+00 -0.50790870045E+00  0.63539069253E+02  0.63976233829E+02  0.74470750000E+01 0. -1.
<mgrwt>
<rscale>  0 0.14964013E+02</rscale>
<asrwt>0</asrwt>
<pdfrwt beam="2">  1        2 0.99285864E+00 0.14964013E+02</pdfrwt>
<pdfrwt beam="1">  1       -2 0.99406121E+00 0.14964013E+02</pdfrwt>
<totfact>-0.13977438E-13</totfact>
</mgrwt>
</event>
<event>
 4    1  0.5170493E-019  0.1491458E+02  0.7818608E-02  0.1870686E+00
         -2   -1    0    0    0  501 -0.00000000000E+00  0.00000000000E+00  0.11851781960E+03  0.11851781963E+03  0.25500000000E-02 0.  1.
          2   -1    0    0  501    0  0.00000000000E+00 -0.00000000000E+00 -0.46921868656E+00  0.46922561558E+00  0.25500000000E-02 0. -1.
         31    1    1    2    0    0  0.25298861670E+00 -0.27071810186E+00  0.60000474799E+02  0.60461997931E+02  0.74470750000E+01 0.  1.
        -31    1    1    2    0    0 -0.25298861670E+00  0.27071810186E+00  0.58048126113E+02  0.58525047311E+02  0.74470750000E+01 0. -1.
<mgrwt>
<rscale>  0 0.14914582E+02</rscale>
<asrwt>0</asrwt>
<pdfrwt beam="2">  1        2 0.99652836E+00 0.14914582E+02</pdfrwt>
<pdfrwt beam="1">  1       -2 0.98386814E+00 0.14914582E+02</pdfrwt>
<totfact> 0.52923343E-13</totfact>
</mgrwt>
</event>
<event>
 4    1  0.5170493E-019  0.1491223E+02  0.7818608E-02  0.1870759E+00
          2   -1    0    0  501    0  0.00000000000E+00  0.00000000000E+00  0.11955754733E+03  0.11955754736E+03  0.25500000000E-02 0. -1.
         -2   -1    0    0    0  501 -0.00000000000E+00 -0.00000000000E+00 -0.46499133893E+00  0.46499833094E+00  0.25500000000E-02 0.  1.
         31    1    1    2    0    0  0.12409612187E+00 -0.76405473789E-02  0.62325795527E+02  0.62769253400E+02  0.74470750000E+01 0. -1.
        -31    1    1    2    0    0 -0.12409612187E+00  0.76405473789E-02  0.56766760465E+02  0.57253292289E+02  0.74470750000E+01 0.  1.
<mgrwt>
<rscale>  0 0.14912229E+02</rscale>
<asrwt>0</asrwt>
<pdfrwt beam="1">  1        2 0.99243038E+00 0.14912229E+02</pdfrwt>
<pdfrwt beam="2">  1       -2 0.98761909E+00 0.14912229E+02</pdfrwt>
<totfact> 0.22802695E-13</totfact>
</mgrwt>
</event>
<event>
 4    1 -0.5170493E-019  0.1490801E+02  0.7818608E-02  0.1870889E+00
         -2   -1    0    0    0  501 -0.00000000000E+00  0.00000000000E+00  0.11987789518E+03  0.11987789520E+03  0.25500000000E-02 0. -1.
          2   -1    0    0  501    0  0.00000000000E+00 -0.00000000000E+00 -0.46348619448E+00  0.46349320920E+00  0.25500000000E-02 0.  1.
         31    1    1    2    0    0 -0.51004963702E-01  0.30449124050E+00  0.60426074597E+02  0.60884026918E+02  0.74470750000E+01 0. -1.
        -31    1    1    2    0    0  0.51004963702E-01 -0.30449124050E+00  0.58988334385E+02  0.59457361495E+02  0.74470750000E+01 0.  1.
<mgrwt>
<rscale>  0 0.14908008E+02</rscale>
<asrwt>0</asrwt>
<pdfrwt beam="2">  1        2 0.98444479E+00 0.14908008E+02</pdfrwt>
<pdfrwt beam="1">  1       -2 0.99506680E+00 0.14908008E+02</pdfrwt>
<totfact>-0.37953233E-13</totfact>
</mgrwt>
</event>
<event>
 4    1 -0.5170493E-019  0.1497705E+02  0.7818608E-02  0.1868769E+00
          2   -1    0    0  501    0  0.00000000000E+00  0.00000000000E+00  0.11972785519E+03  0.11972785522E+03  0.25500000000E-02 0. -1.
         -2   -1    0    0    0  501 -0.00000000000E+00 -0.00000000000E+00 -0.46837574078E+00  0.46838268228E+00  0.25500000000E-02 0.  1.
         31    1    1    2    0    0  0.27469238109E+00  0.49452541089E+00  0.55240636374E+02  0.55743222407E+02  0.74470750000E+01 0.  1.
        -31    1    1    2    0    0 -0.27469238109E+00 -0.49452541089E+00  0.64018843074E+02  0.64453015491E+02  0.74470750000E+01 0. -1.
<mgrwt>
<rscale>  0 0.14977055E+02</rscale>
<asrwt>0</asrwt>
<pdfrwt beam="1">  1        2 0.99386659E+00 0.14977055E+02</pdfrwt>
<pdfrwt beam="2">  1       -2 0.99478476E+00 0.14977055E+02</pdfrwt>
<totfact>-0.13233946E-13</totfact>
</mgrwt>
</event>
<event>
 4    1 -0.5170493E-019  0.1493632E+02  0.7818608E-02  0.1870018E+00
          2   -1    0    0  501    0  0.00000000000E+00  0.00000000000E+00  0.11921803672E+03  0.11921803675E+03  0.25500000000E-02 0.  1.
         -2   -1    0    0    0  501 -0.00000000000E+00 -0.00000000000E+00 -0.46782352773E+00  0.46783047742E+00  0.25500000000E-02 0. -1.
         31    1    1    2    0    0 -0.39841312595E+00 -0.38191661503E+00  0.60172423919E+02  0.60634017842E+02  0.74470750000E+01 0.  1.
        -31    1    1    2    0    0  0.39841312595E+00  0.38191661503E+00  0.58577789276E+02  0.59051849385E+02  0.74470750000E+01 0.  1.
<mgrwt>
<rscale>  0 0.14936321E+02</rscale>
<asrwt>0</asrwt>
<pdfrwt beam="1">  1        2 0.98964649E+00 0.14936321E+02</pdfrwt>
<pdfrwt beam="2">  1       -2 0.99359995E+00 0.14936321E+02</pdfrwt>
<totfact>-0.17478716E-13</totfact>
</mgrwt>
</event>
<event>
 4    1 -0.5170493E-019  0.1492867E+02  0.7818608E-02  0.1870253E+00
         -2   -1    0    0    0  501 -0.00000000000E+00  0.00000000000E+00  0.12029977537E+03  0.12029977539E+03  0.25500000000E-02 0.  1.
          2   -1    0    0  501    0  0.00000000000E+00 -0.00000000000E+00 -0.46314188690E+00  0.46314890684E+00  0.25500000000E-02 0. -1.
         31    1    1    2    0    0  0.18734482329E+00  0.47143960488E+00  0.59891458343E+02  0.60354809766E+02  0.74470750000E+01 0.  1.
        -31    1    1    2    0    0 -0.18734482329E+00 -0.47143960488E+00  0.59945175138E+02  0.60408114535E+02  0.74470750000E+01 0. -1.
<mgrwt>
<rscale>  0 0.14928669E+02</rscale>
<asrwt>0</asrwt>
<pdfrwt beam="2">  1        2 0.98372958E+00 0.14928669E+02</pdfrwt>
<pdfrwt beam="1">  1       -2 0.99855235E+00 0.14928669E+02</pdfrwt>
<totfact>-0.19393040E-13</totfact>
</mgrwt>
</event>
<event>
 4    1 -0.5170493E-019  0.1490196E+02  0.7818608E-02  0.1871075E+00
         -2   -1    0    0    0  501 -0.00000000000E+00  0.00000000000E+00  0.11994466070E+03  0.11994466073E+03  0.25500000000E-02 0. -1.
          2   -1    0    0  501    0  0.00000000000E+00 -0.00000000000E+00 -0.46285253703E+00  0.46285956136E+00  0.25500000000E-02 0.  1.
         31    1    1    2    0    0 -0.24593234987E-01  0.12843875840E+00  0.58103085699E+02  0.58578533570E+02  0.74470750000E+01 0.  1.
        -31    1    1    2    0    0  0.24593234987E-01 -0.12843875840E+00  0.61378722465E+02  0.61828986720E+02  0.74470750000E+01 0. -1.
<mgrwt>
<rscale>  0 0.14901962E+02</rscale>
<asrwt>0</asrwt>
<pdfrwt beam="2">  1        2 0.98310620E+00 0.14901962E+02</pdfrwt>
<pdfrwt beam="1">  1       -2 0.99561362E+00 0.14901962E+02</pdfrwt>
<totfact>-0.46211724E-13</totfact>
</mgrwt>
</event>
<event>
 4    1 -0.5170493E-019  0.1496375E+02  0.7818608E-02  0.1869177E+00
          2   -1    0    0  501    0  0.00000000000E+00  0.00000000000E+00  0.11966357891E+03  0.11966357893E+03  0.25500000000E-02 0. -1.
         -2   -1    0    0    0  501 -0.00000000000E+00 -0.00000000000E+00 -0.46779505337E+00  0.46780200348E+00  0.25500000000E-02 0.  1.
         31    1    1    2    0    0 -0.31509073357E+00  0.81864103520E-03  0.64802223806E+02  0.65229490410E+02  0.74470750000E+01 0. -1.
        -31    1    1    2    0    0  0.31509073357E+00 -0.81864103520E-03  0.54393560047E+02  0.54901890527E+02  0.74470750000E+01 0.  1.
<mgrwt>
<rscale>  0 0.14963749E+02</rscale>
<asrwt>0</asrwt>
<pdfrwt beam="1">  1        2 0.99333031E+00 0.14963749E+02</pdfrwt>
<pdfrwt beam="2">  1       -2 0.99355417E+00 0.14963749E+02</pdfrwt>
<totfact>-0.12932877E-13</totfact>
</mgrwt>
</event>
<event>
 4    1 -0.5170493E-019  0.1496860E+02  0.7818608E-02  0.1869028E+00
         -2   -1    0    0    0  501 -0.00000000000E+00  0.00000000000E+00  0.12033220277E+03  0.12033220280E+03  0.25500000000E-02 0.  1.
          2   -1    0    0  501    0  0.00000000000E+00 -0.00000000000E+00 -0.46549734391E+00  0.46550432832E+00  0.25500000000E-02 0. -1.
         31    1    1    2    0    0  0.53114817010E+00 -0.46730462155E+00  0.58035148225E+02  0.58515278753E+02  0.74470750000E+01 0. -1.
        -31    1    1    2    0    0 -0.53114817010E+00  0.46730462155E+00  0.61831557201E+02  0.62282428372E+02  0.74470750000E+01 0. -1.
<mgrwt>
<rscale>  0 0.14968600E+02</rscale>
<asrwt>0</asrwt>
<pdfrwt beam="2">  1        2 0.98871432E+00 0.14968600E+02</pdfrwt>
<pdfrwt beam="1">  1       -2 0.99883996E+00 0.14968600E+02</pdfrwt>
<totfact>-0.76133045E-14</totfact>
</mgrwt>
</event>
<event>
 4    1 -0.5170493E-019  0.1493677E+02  0.7818608E-02  0.1870004E+00
         -2   -1    0    0    0  501 -0.00000000000E+00  0.00000000000E+00  0.12037075152E+03  0.12037075155E+03  0.25500000000E-02 0. -1.
          2   -1    0    0  501    0  0.00000000000E+00 -0.00000000000E+00 -0.46337144147E+00  0.46337845793E+00  0.25500000000E-02 0.  1.
         31    1    1    2    0    0  0.28717903029E+00  0.53062565970E-01  0.63855082937E+02  0.64288535762E+02  0.74470750000E+01 0. -1.
        -31    1    1    2    0    0 -0.28717903029E+00 -0.53062565970E-01  0.56052297145E+02  0.56545594247E+02  0.74470750000E+01 0.  1.
<mgrwt>
<rscale>  0 0.14936773E+02</rscale>
<asrwt>0</asrwt>
<pdfrwt beam="2">  1        2 0.98421751E+00 0.14936773E+02</pdfrwt>
<pdfrwt beam="1">  1       -2 0.99914113E+00 0.14936773E+02</pdfrwt>
<totfact>-0.11147756E-13</totfact>
</mgrwt>
</event>
<event>
 4    1 -0.5170493E-019  0.1492898E+02  0.7818608E-02  0.1870243E+00
          2   -1    0    0  501    0  0.00000000000E+00  0.00000000000E+00  0.11894098306E+03  0.11894098309E+03  0.25500000000E-02 0.  1.
         -2   -1    0    0    0  501 -0.00000000000E+00 -0.00000000000E+00 -0.46845246358E+00  0.46845940393E+00  0.25500000000E-02 0. -1.
         31    1    1    2    0    0  0.52074152099E-01  0.49654679060E+00  0.60052584630E+02  0.60514635562E+02  0.74470750000E+01 0. -1.
        -31    1    1    2    0    0 -0.52074152099E-01 -0.49654679060E+00  0.58419945968E+02  0.58894806931E+02  0.74470750000E+01 0. -1.
<mgrwt>
<rscale>  0 0.14928980E+02</rscale>
<asrwt>0</asrwt>
<pdfrwt beam="1">  1        2 0.98736082E+00 0.14928980E+02</pdfrwt>
<pdfrwt beam="2">  1       -2 0.99492142E+00 0.14928980E+02</pdfrwt>
<totfact>-0.24327211E-13</totfact>
</mgrwt>
</event>
<event>
 4    1 -0.5170493E-019  0.1495912E+02  0.7818608E-02  0.1869319E+00
          2   -1    0    0  501    0  0.00000000000E+00  0.00000000000E+00  0.11898377585E+03  0.11898377588E+03  0.25500000000E-02 0.  1.
         -2   -1    0    0    0  501 -0.00000000000E+00 -0.00000000000E+00 -0.47017663543E+00  0.47018355033E+00  0.25500000000E-02 0. -1.
         31    1    1    2    0    0  0.15069862313E+00 -0.30738203263E+00  0.54414705665E+02  0.54923003490E+02  0.74470750000E+01 0. -1.
        -31    1    1    2    0    0 -0.15069862313E+00  0.30738203263E+00  0.64098893554E+02  0.64530955941E+02  0.74470750000E+01 0.  1.
<mgrwt>
<rscale>  0 0.14959118E+02</rscale>
<asrwt>0</asrwt>
<pdfrwt beam="1">  1        2 0.98772891E+00 0.14959118E+02</pdfrwt>
<pdfrwt beam="2">  1       -2 0.99857024E+00 0.14959118E+02</pdfrwt>
<totfact>-0.10358909E-13</totfact>
</mgrwt>
</event>
<event>
 4    1  0.5170493E-019  0.1494588E+02  0.7818608E-02  0.1869724E+00
          2   -1    0    0  501    0  0.00000000000E+00  0.00000000000E+00  0.12011566349E+03  0.12011566352E+03  0.25500000000E-02 0.  1.
         -2   -1    0    0    0  501 -0.00000000000E+00 -0.00000000000E+00 -0.46492194963E+00  0.46492894269E+00  0.25500000000E-02 0. -1.
         31    1    1    2    0    0  0.26164424997E+00 -0.53706051629E+00  0.61199600057E+02  0.61653928219E+02  0.74470750000E+01 0.  1.
        -31    1    1    2    0    0 -0.26164424997E+00  0.53706051629E+00  0.58451141484E+02  0.58926664240E+02  0.74470750000E+01 0. -1.
<mgrwt>
<rscale>  0 0.14945880E+02</rscale>
<asrwt>0</asrwt>
<pdfrwt beam="1">  1        2 0.99704470E+00 0.14945880E+02</pdfrwt>
<pdfrwt beam="2">  1       -2 0.98749005E+00 0.14945880E+02</pdfrwt>
<totfact> 0.14431447E-13</totfact>
</mgrwt>
</event>
<event>
 4    1 -0.5170493E-019  0.1495083E+02  0.7818608E-02  0.1869573E+00
          2   -1    0    0  501    0  0.00000000000E+00  0.00000000000E+00  0.11946471534E+03  0.11946471536E+03  0.25500000000E-02 0. -1.
         -2   -1    0    0    0  501 -0.00000000000E+00 -0.00000000000E+00 -0.46776488769E+00  0.46777183825E+00  0.25500000000E-02 0.  1.
         31    1    1    2    0    0 -0.92395234462E-01 -0.19193464983E+00  0.64427251601E+02  0.64856572918E+02  0.74470750000E+01 0. -1.
        -31    1    1    2    0    0  0.92395234462E-01  0.19193464983E+00  0.54569698849E+02  0.55075914285E+02  0.74470750000E+01 0.  1.
<mgrwt>
<rscale>  0 0.14950828E+02</rscale>
<asrwt>0</asrwt>
<pdfrwt beam="1">  1        2 0.99168572E+00 0.14950828E+02</pdfrwt>
<pdfrwt beam="2">  1       -2 0.99348392E+00 0.14950828E+02</pdfrwt>
<totfact>-0.14453691E-13</totfact>
</mgrwt>
</event>
<event>
 4    1 -0.5170493E-019  0.1503067E+02  0.7818608E-02  0.1867134E+00
          2   -1    0    0  501    0  0.00000000000E+00  0.00000000000E+00  0.12034016926E+03  0.12034016928E+03  0.25500000000E-02 0.  1.
         -2   -1    0    0    0  501 -0.00000000000E+00 -0.00000000000E+00 -0.46933483881E+00  0.46934176612E+00  0.25500000000E-02 0. -1.
         31    1    1    2    0    0  0.58521861403E+00 -0.82120692511E+00  0.59398264644E+02  0.59871776577E+02  0.74470750000E+01 0.  1.
        -31    1    1    2    0    0 -0.58521861403E+00  0.82120692511E+00  0.60472569772E+02  0.60937734471E+02  0.74470750000E+01 0.  1.
<mgrwt>
<rscale>  0 0.15030669E+02</rscale>
<asrwt>0</asrwt>
<pdfrwt beam="1">  1        2 0.99893756E+00 0.15030669E+02</pdfrwt>
<pdfrwt beam="2">  1       -2 0.99683361E+00 0.15030669E+02</pdfrwt>
<totfact>-0.32001118E-14</totfact>
</mgrwt>
</event>
<event>
 4    1  0.5170493E-019  0.1491526E+02  0.7818608E-02  0.1870665E+00
          2   -1    0    0  501    0  0.00000000000E+00  0.00000000000E+00  0.12002985356E+03  0.12002985359E+03  0.25500000000E-02 0. -1.
         -2   -1    0    0    0  501 -0.00000000000E+00 -0.00000000000E+00 -0.46334996930E+00  0.46335698608E+00  0.25500000000E-02 0.  1.
         31    1    1    2    0    0  0.34260954068E+00 -0.11951315847E+00  0.61077393749E+02  0.61530794062E+02  0.74470750000E+01 0. -1.
        -31    1    1    2    0    0 -0.34260954068E+00  0.11951315847E+00  0.58489109846E+02  0.58962416515E+02  0.74470750000E+01 0.  1.
<mgrwt>
<rscale>  0 0.14915261E+02</rscale>
<asrwt>0</asrwt>
<pdfrwt beam="1">  1        2 0.99632217E+00 0.14915261E+02</pdfrwt>
<pdfrwt beam="2">  1       -2 0.98416136E+00 0.14915261E+02</pdfrwt>
<totfact> 0.51016990E-13</totfact>
</mgrwt>
</event>
<event>
 4    1  0.5170493E-019  0.1491699E+02  0.7818608E-02  0.1870612E+00
          2   -1    0    0  501    0  0.00000000000E+00  0.00000000000E+00  0.12003963980E+03  0.12003963983E+03  0.25500000000E-02 0. -1.
         -2   -1    0    0    0  501 -0.00000000000E+00 -0.00000000000E+00 -0.46341945316E+00  0.46342646889E+00  0.25500000000E-02 0.  1.
         31    1    1    2    0    0 -0.26626996104E+00 -0.29367445691E+00  0.60711229076E+02  0.61167551908E+02  0.74470750000E+01 0.  1.
        -31    1    1    2    0    0  0.26626996104E+00  0.29367445691E+00  0.58864991274E+02  0.59335514391E+02  0.74470750000E+01 0.  1.
<mgrwt>
<rscale>  0 0.14916987E+02</rscale>
<asrwt>0</asrwt>
<pdfrwt beam="1">  1        2 0.99640366E+00 0.14916987E+02</pdfrwt>
<pdfrwt beam="2">  1       -2 0.98430868E+00 0.14916987E+02</pdfrwt>
<totfact> 0.48470850E-13</totfact>
</mgrwt>
</event>
<event>
 4    1 -0.5170493E-019  0.1499163E+02  0.7818608E-02  0.1868324E+00
         -2   -1    0    0    0  501 -0.00000000000E+00  0.00000000000E+00  0.12018502420E+03  0.12018502423E+03  0.25500000000E-02 0. -1.
          2   -1    0    0  501    0  0.00000000000E+00 -0.00000000000E+00 -0.46750282634E+00  0.46750978080E+00  0.25500000000E-02 0.  1.
         31    1    1    2    0    0 -0.41154660365E+00  0.56852994107E+00  0.55951241355E+02  0.56449029505E+02  0.74470750000E+01 0.  1.
        -31    1    1    2    0    0  0.41154660365E+00 -0.56852994107E+00  0.63766280021E+02  0.64203504504E+02  0.74470750000E+01 0.  1.
<mgrwt>
<rscale>  0 0.14991632E+02</rscale>
<asrwt>0</asrwt>
<pdfrwt beam="2">  1        2 0.99295270E+00 0.14991632E+02</pdfrwt>
<pdfrwt beam="1">  1       -2 0.99763957E+00 0.14991632E+02</pdfrwt>
<totfact>-0.95625589E-14</totfact>
</mgrwt>
</event>
<event>
 4    1  0.5170493E-019  0.1494951E+02  0.7818608E-02  0.1869613E+00
         -2   -1    0    0    0  501 -0.00000000000E+00  0.00000000000E+00  0.11883946185E+03  0.11883946188E+03  0.25500000000E-02 0.  1.
          2   -1    0    0  501    0  0.00000000000E+00 -0.00000000000E+00 -0.47014291995E+00  0.47014983535E+00  0.25500000000E-02 0. -1.
         31    1    1    2    0    0  0.26539937541E+00 -0.10475452791E+00  0.54588850810E+02  0.55095217298E+02  0.74470750000E+01 0. -1.
        -31    1    1    2    0    0 -0.26539937541E+00  0.10475452791E+00  0.63780468123E+02  0.64214394418E+02  0.74470750000E+01 0.  1.
<mgrwt>
<rscale>  0 0.14949508E+02</rscale>
<asrwt>0</asrwt>
<pdfrwt beam="2">  1        2 0.99849414E+00 0.14949508E+02</pdfrwt>
<pdfrwt beam="1">  1       -2 0.98653535E+00 0.14949508E+02</pdfrwt>
<totfact> 0.12894305E-13</totfact>
</mgrwt>
</event>
<event>
 4    1 -0.5170493E-019  0.1492159E+02  0.7818608E-02  0.1870471E+00
          2   -1    0    0  501    0  0.00000000000E+00  0.00000000000E+00  0.11841205389E+03  0.11841205392E+03  0.25500000000E-02 0.  1.
         -2   -1    0    0    0  501 -0.00000000000E+00 -0.00000000000E+00 -0.47007939857E+00  0.47008631490E+00  0.25500000000E-02 0. -1.
         31    1    1    2    0    0 -0.24981010809E+00 -0.52230807336E-01  0.55996138085E+02  0.56489747208E+02  0.74470750000E+01 0. -1.
        -31    1    1    2    0    0  0.24981010809E+00  0.52230807336E-01  0.61945836411E+02  0.62392393029E+02  0.74470750000E+01 0. -1.
<mgrwt>
<rscale>  0 0.14921592E+02</rscale>
<asrwt>0</asrwt>
<pdfrwt beam="1">  1        2 0.98300071E+00 0.14921592E+02</pdfrwt>
<pdfrwt beam="2">  1       -2 0.99834557E+00 0.14921592E+02</pdfrwt>
<totfact>-0.24594059E-13</totfact>
</mgrwt>
</event>
<event>
 4    1 -0.5170493E-019  0.1501461E+02  0.7818608E-02  0.1867623E+00
         -2   -1    0    0    0  501 -0.00000000000E+00  0.00000000000E+00  0.12035641739E+03  0.12035641742E+03  0.25500000000E-02 0. -1.
          2   -1    0    0  501    0  0.00000000000E+00 -0.00000000000E+00 -0.46826912986E+00  0.46827607293E+00  0.25500000000E-02 0.  1.
         31    1    1    2    0    0  0.87442467204E+00  0.26082361288E+00  0.62043166363E+02  0.62495168340E+02  0.74470750000E+01 0. -1.
        -31    1    1    2    0    0 -0.87442467204E+00 -0.26082361288E+00  0.57844981899E+02  0.58329525151E+02  0.74470750000E+01 0. -1.
<mgrwt>
<rscale>  0 0.15014608E+02</rscale>
<asrwt>0</asrwt>
<pdfrwt beam="2">  1        2 0.99457945E+00 0.15014608E+02</pdfrwt>
<pdfrwt beam="1">  1       -2 0.99906310E+00 0.15014608E+02</pdfrwt>
<totfact>-0.38070059E-14</totfact>
</mgrwt>
</event>
<event>
 4    1 -0.5170493E-019  0.1497509E+02  0.7818608E-02  0.1868830E+00
          2   -1    0    0  501    0  0.00000000000E+00  0.00000000000E+00  0.11960864563E+03  0.11960864565E+03  0.25500000000E-02 0.  1.
         -2   -1    0    0    0  501 -0.00000000000E+00 -0.00000000000E+00 -0.46871955727E+00  0.46872649367E+00  0.25500000000E-02 0. -1.
         31    1    1    2    0    0 -0.55360825945E+00  0.29613681649E+00  0.63246451665E+02  0.63686472295E+02  0.74470750000E+01 0.  1.
        -31    1    1    2    0    0  0.55360825945E+00 -0.29613681649E+00  0.55893474403E+02  0.56390899851E+02  0.74470750000E+01 0. -1.
<mgrwt>
<rscale>  0 0.14975090E+02</rscale>
<asrwt>0</asrwt>
<pdfrwt beam="1">  1        2 0.99288373E+00 0.14975090E+02</pdfrwt>
<pdfrwt beam="2">  1       -2 0.99550826E+00 0.14975090E+02</pdfrwt>
<totfact>-0.13899711E-13</totfact>
</mgrwt>
</event>
<event>
 4    1  0.5170493E-019  0.1489947E+02  0.7818608E-02  0.1871152E+00
         -2   -1    0    0    0  501 -0.00000000000E+00  0.00000000000E+00  0.11832074252E+03  0.11832074255E+03  0.25500000000E-02 0.  1.
          2   -1    0    0  501    0  0.00000000000E+00 -0.00000000000E+00 -0.46904838195E+00  0.46905531349E+00  0.25500000000E-02 0. -1.
         31    1    1    2    0    0  0.90391642541E-01  0.16816532558E+00  0.58475553717E+02  0.58948161624E+02  0.74470750000E+01 0. -1.
        -31    1    1    2    0    0 -0.90391642541E-01 -0.16816532558E+00  0.59376140426E+02  0.59841636242E+02  0.74470750000E+01 0. -1.
<mgrwt>
<rscale>  0 0.14899472E+02</rscale>
<asrwt>0</asrwt>
<pdfrwt beam="2">  1        2 0.99616156E+00 0.14899472E+02</pdfrwt>
<pdfrwt beam="1">  1       -2 0.98223716E+00 0.14899472E+02</pdfrwt>
<totfact> 0.80800550E-13</totfact>
</mgrwt>
</event>
<event>
 4    1 -0.5170493E-019  0.1498045E+02  0.7818608E-02  0.1868666E+00
          2   -1    0    0  501    0  0.00000000000E+00  0.00000000000E+00  0.11993611887E+03  0.11993611889E+03  0.25500000000E-02 0. -1.
         -2   -1    0    0    0  501 -0.00000000000E+00 -0.00000000000E+00 -0.46777420366E+00  0.46778115407E+00  0.25500000000E-02 0.  1.
         31    1    1    2    0    0 -0.19495871459E+00 -0.74767948431E+00  0.57982774474E+02  0.58464160777E+02  0.74470750000E+01 0.  1.
        -31    1    1    2    0    0  0.19495871459E+00  0.74767948431E+00  0.61485570188E+02  0.61939739271E+02  0.74470750000E+01 0. -1.
<mgrwt>
<rscale>  0 0.14980446E+02</rscale>
<asrwt>0</asrwt>
<pdfrwt beam="1">  1        2 0.99558369E+00 0.14980446E+02</pdfrwt>
<pdfrwt beam="2">  1       -2 0.99351885E+00 0.14980446E+02</pdfrwt>
<totfact>-0.10457407E-13</totfact>
</mgrwt>
</event>
<event>
 4    1  0.5170493E-019  0.1493375E+02  0.7818608E-02  0.1870097E+00
         -2   -1    0    0    0  501 -0.00000000000E+00  0.00000000000E+00  0.11857689157E+03  0.11857689160E+03  0.25500000000E-02 0.  1.
          2   -1    0    0  501    0  0.00000000000E+00 -0.00000000000E+00 -0.47019120226E+00  0.47019811695E+00  0.25500000000E-02 0. -1.
         31    1    1    2    0    0  0.37877209799E+00  0.32740201489E+00  0.57369117032E+02  0.57852615978E+02  0.74470750000E+01 0. -1.
        -31    1    1    2    0    0 -0.37877209799E+00 -0.32740201489E+00  0.60737583338E+02  0.61194473739E+02  0.74470750000E+01 0.  1.
<mgrwt>
<rscale>  0 0.14933750E+02</rscale>
<asrwt>0</asrwt>
<pdfrwt beam="2">  1        2 0.99858756E+00 0.14933750E+02</pdfrwt>
<pdfrwt beam="1">  1       -2 0.98436463E+00 0.14933750E+02</pdfrwt>
<totfact> 0.23828515E-13</totfact>
</mgrwt>
</event>
<event>
 4    1  0.5170493E-019  0.1492283E+02  0.7818608E-02  0.1870433E+00
          2   -1    0    0  501    0  0.00000000000E+00  0.00000000000E+00  0.11968979715E+03  0.11968979717E+03  0.25500000000E-02 0. -1.
         -2   -1    0    0    0  501 -0.00000000000E+00 -0.00000000000E+00 -0.46513813903E+00  0.46514512883E+00  0.25500000000E-02 0.  1.
         31    1    1    2    0    0 -0.36296965856E-01 -0.43593127937E+00  0.60818251553E+02  0.61274056513E+02  0.74470750000E+01 0. -1.
        -31    1    1    2    0    0  0.36296965856E-01  0.43593127937E+00  0.58406407453E+02  0.58880885788E+02  0.74470750000E+01 0.  1.
<mgrwt>
<rscale>  0 0.14922830E+02</rscale>
<asrwt>0</asrwt>
<pdfrwt beam="1">  1        2 0.99352513E+00 0.14922830E+02</pdfrwt>
<pdfrwt beam="2">  1       -2 0.98793390E+00 0.14922830E+02</pdfrwt>
<totfact> 0.17842989E-13</totfact>
</mgrwt>
</event>
<event>
 4    1  0.5170493E-019  0.1491779E+02  0.7818608E-02  0.1870587E+00
          2   -1    0    0  501    0  0.00000000000E+00  0.00000000000E+00  0.12005548846E+03  0.12005548849E+03  0.25500000000E-02 0.  1.
         -2   -1    0    0    0  501 -0.00000000000E+00 -0.00000000000E+00 -0.46340843141E+00  0.46341544731E+00  0.25500000000E-02 0. -1.
         31    1    1    2    0    0 -0.16285014154E+00 -0.16191321214E+00  0.62635022563E+02  0.63076601950E+02  0.74470750000E+01 0.  1.
        -31    1    1    2    0    0  0.16285014154E+00  0.16191321214E+00  0.56957057470E+02  0.57442301988E+02  0.74470750000E+01 0. -1.
<mgrwt>
<rscale>  0 0.14917795E+02</rscale>
<asrwt>0</asrwt>
<pdfrwt beam="1">  1        2 0.99653462E+00 0.14917795E+02</pdfrwt>
<pdfrwt beam="2">  1       -2 0.98428586E+00 0.14917795E+02</pdfrwt>
<totfact> 0.47639901E-13</totfact>
</mgrwt>
</event>
<event>
 4    1 -0.5170493E-019  0.1496243E+02  0.7818608E-02  0.1869217E+00
          2   -1    0    0  501    0  0.00000000000E+00  0.00000000000E+00  0.11934379262E+03  0.11934379265E+03  0.25500000000E-02 0. -1.
         -2   -1    0    0    0  501 -0.00000000000E+00 -0.00000000000E+00 -0.46896589679E+00  0.46897282955E+00  0.25500000000E-02 0.  1.
         31    1    1    2    0    0 -0.20281549690E+00 -0.37748980259E+00  0.54865187443E+02  0.55369949900E+02  0.74470750000E+01 0.  1.
        -31    1    1    2    0    0  0.20281549690E+00  0.37748980259E+00  0.64009639284E+02  0.64442815581E+02  0.74470750000E+01 0. -1.
<mgrwt>
<rscale>  0 0.14962431E+02</rscale>
<asrwt>0</asrwt>
<pdfrwt beam="1">  1        2 0.99069577E+00 0.14962431E+02</pdfrwt>
<pdfrwt beam="2">  1       -2 0.99602078E+00 0.14962431E+02</pdfrwt>
<totfact>-0.15702080E-13</totfact>
</mgrwt>
</event>
<event>
 4    1 -0.5170493E-019  0.1489879E+02  0.7818608E-02  0.1871173E+00
         -2   -1    0    0    0  501 -0.00000000000E+00  0.00000000000E+00  0.11977002608E+03  0.11977002611E+03  0.25500000000E-02 0.  1.
          2   -1    0    0  501    0  0.00000000000E+00 -0.00000000000E+00 -0.46332986397E+00  0.46333688106E+00  0.25500000000E-02 0. -1.
         31    1    1    2    0    0  0.73244025757E-01  0.22518290540E-01  0.58287260651E+02  0.58761122794E+02  0.74470750000E+01 0. -1.
        -31    1    1    2    0    0 -0.73244025757E-01 -0.22518290540E-01  0.61019435564E+02  0.61472240194E+02  0.74470750000E+01 0.  1.
<mgrwt>
<rscale>  0 0.14898786E+02</rscale>
<asrwt>0</asrwt>
<pdfrwt beam="2">  1        2 0.98411061E+00 0.14898786E+02</pdfrwt>
<pdfrwt beam="1">  1       -2 0.99417357E+00 0.14898786E+02</pdfrwt>
<totfact>-0.39728989E-13</totfact>
</mgrwt>
</event>
<event>
 4    1 -0.5170493E-019  0.1493792E+02  0.7818608E-02  0.1869969E+00
         -2   -1    0    0    0  501 -0.00000000000E+00  0.00000000000E+00  0.12021563568E+03  0.12021563571E+03  0.25500000000E-02 0. -1.
          2   -1    0    0  501    0  0.00000000000E+00 -0.00000000000E+00 -0.46404044912E+00  0.46404745547E+00  0.25500000000E-02 0.  1.
         31    1    1    2    0    0 -0.28125651692E+00  0.21537241441E+00  0.56254522311E+02  0.56746415719E+02  0.74470750000E+01 0.  1.
        -31    1    1    2    0    0  0.28125651692E+00 -0.21537241441E+00  0.63497072922E+02  0.63933267445E+02  0.74470750000E+01 0.  1.
<mgrwt>
<rscale>  0 0.14937917E+02</rscale>
<asrwt>0</asrwt>
<pdfrwt beam="2">  1        2 0.98562814E+00 0.14937917E+02</pdfrwt>
<pdfrwt beam="1">  1       -2 0.99786406E+00 0.14937917E+02</pdfrwt>
<totfact>-0.19662386E-13</totfact>
</mgrwt>
</event>
<event>
 4    1  0.5170493E-019  0.1493216E+02  0.7818608E-02  0.1870146E+00
          2   -1    0    0  501    0  0.00000000000E+00  0.00000000000E+00  0.12032276042E+03  0.12032276045E+03  0.25500000000E-02 0. -1.
         -2   -1    0    0    0  501 -0.00000000000E+00 -0.00000000000E+00 -0.46327023672E+00  0.46327725471E+00  0.25500000000E-02 0.  1.
         31    1    1    2    0    0  0.25788113359E+00 -0.46114679081E+00  0.59399680391E+02  0.59867020267E+02  0.74470750000E+01 0.  1.
        -31    1    1    2    0    0 -0.25788113359E+00  0.46114679081E+00  0.60459809796E+02  0.60919017439E+02  0.74470750000E+01 0. -1.
<mgrwt>
<rscale>  0 0.14932164E+02</rscale>
<asrwt>0</asrwt>
<pdfrwt beam="1">  1        2 0.99874347E+00 0.14932164E+02</pdfrwt>
<pdfrwt beam="2">  1       -2 0.98400187E+00 0.14932164E+02</pdfrwt>
<totfact> 0.23636407E-13</totfact>
</mgrwt>
</event>
<event>
 4    1  0.5170493E-019  0.1492349E+02  0.7818608E-02  0.1870412E+00
         -2   -1    0    0    0  501 -0.00000000000E+00  0.00000000000E+00  0.11857251857E+03  0.11857251860E+03  0.25500000000E-02 0. -1.
          2   -1    0    0  501    0  0.00000000000E+00 -0.00000000000E+00 -0.46956274222E+00  0.46956966617E+00  0.25500000000E-02 0.  1.
         31    1    1    2    0    0 -0.15599221698E+00  0.36003639730E+00  0.61081496009E+02  0.61535047254E+02  0.74470750000E+01 0. -1.
        -31    1    1    2    0    0  0.15599221698E+00 -0.36003639730E+00  0.57021459822E+02  0.57507041013E+02  0.74470750000E+01 0.  1.
<mgrwt>
<rscale>  0 0.14923492E+02</rscale>
<asrwt>0</asrwt>
<pdfrwt beam="2">  1        2 0.99725799E+00 0.14923492E+02</pdfrwt>
<pdfrwt beam="1">  1       -2 0.98432328E+00 0.14923492E+02</pdfrwt>
<totfact> 0.40374436E-13</totfact>
</mgrwt>
</event>
<event>
 4    1  0.5170493E-019  0.1491325E+02  0.7818608E-02  0.1870727E+00
         -2   -1    0    0    0  501 -0.00000000000E+00  0.00000000000E+00  0.11837388257E+03  0.11837388260E+03  0.25500000000E-02 0. -1.
          2   -1    0    0  501    0  0.00000000000E+00 -0.00000000000E+00 -0.46970532147E+00  0.46971224331E+00  0.25500000000E-02 0.  1.
         31    1    1    2    0    0  0.21773458329E+00 -0.30737483630E+00  0.58784585853E+02  0.59255618701E+02  0.74470750000E+01 0.  1.
        -31    1    1    2    0    0 -0.21773458329E+00  0.30737483630E+00  0.59119591393E+02  0.59587976138E+02  0.74470750000E+01 0. -1.
<mgrwt>
<rscale>  0 0.14913250E+02</rscale>
<asrwt>0</asrwt>
<pdfrwt beam="2">  1        2 0.99755299E+00 0.14913250E+02</pdfrwt>
<pdfrwt beam="1">  1       -2 0.98268199E+00 0.14913250E+02</pdfrwt>
<totfact> 0.54565503E-13</totfact>
</mgrwt>
</event>
<event>
 4    1 -0.5170493E-019  0.1497284E+02  0.7818608E-02  0.1868898E+00
         -2   -1    0    0    0  501 -0.00000000000E+00  0.00000000000E+00  0.11954567199E+03  0.11954567201E+03  0.25500000000E-02 0.  1.
          2   -1    0    0  501    0  0.00000000000E+00 -0.00000000000E+00 -0.46882584779E+00  0.46883278262E+00  0.25500000000E-02 0. -1.
         31    1    1    2    0    0  0.70050053603E-01 -0.72929295637E+00  0.57731514794E+02  0.58214461276E+02  0.74470750000E+01 0. -1.
        -31    1    1    2    0    0 -0.70050053603E-01  0.72929295637E+00  0.61345331345E+02  0.61800043521E+02  0.74470750000E+01 0.  1.
<mgrwt>
<rscale>  0 0.14972845E+02</rscale>
<asrwt>0</asrwt>
<pdfrwt beam="2">  1        2 0.99573108E+00 0.14972845E+02</pdfrwt>
<pdfrwt beam="1">  1       -2 0.99236390E+00 0.14972845E+02</pdfrwt>
<totfact>-0.81870299E-14</totfact>
</mgrwt>
</event>
<event>
 4    1 -0.5170493E-019  0.1495498E+02  0.7818608E-02  0.1869445E+00
          2   -1    0    0  501    0  0.00000000000E+00  0.00000000000E+00  0.11942800764E+03  0.11942800767E+03  0.25500000000E-02 0.  1.
         -2   -1    0    0    0  501 -0.00000000000E+00 -0.00000000000E+00 -0.46816877034E+00  0.46817571490E+00  0.25500000000E-02 0. -1.
         31    1    1    2    0    0  0.19519556847E+00 -0.40249162157E+00  0.55440565506E+02  0.55940283611E+02  0.74470750000E+01 0. -1.
        -31    1    1    2    0    0 -0.19519556847E+00  0.40249162157E+00  0.63519273367E+02  0.63955899775E+02  0.74470750000E+01 0.  1.
<mgrwt>
<rscale>  0 0.14954983E+02</rscale>
<asrwt>0</asrwt>
<pdfrwt beam="1">  1        2 0.99138553E+00 0.14954983E+02</pdfrwt>
<pdfrwt beam="2">  1       -2 0.99433717E+00 0.14954983E+02</pdfrwt>
<totfact>-0.15779552E-13</totfact>
</mgrwt>
</event>
<event>
 4    1 -0.5170493E-019  0.1495134E+02  0.7818608E-02  0.1869557E+00
         -2   -1    0    0    0  501 -0.00000000000E+00  0.00000000000E+00  0.11969619260E+03  0.11969619263E+03  0.25500000000E-02 0. -1.
          2   -1    0    0  501    0  0.00000000000E+00 -0.00000000000E+00 -0.46689208427E+00  0.46689904782E+00  0.25500000000E-02 0.  1.
         31    1    1    2    0    0  0.22939472114E+00  0.31218125994E+00  0.55387646691E+02  0.55887390448E+02  0.74470750000E+01 0.  1.
        -31    1    1    2    0    0 -0.22939472114E+00 -0.31218125994E+00  0.63841653828E+02  0.64275701230E+02  0.74470750000E+01 0. -1.
<mgrwt>
<rscale>  0 0.14951338E+02</rscale>
<asrwt>0</asrwt>
<pdfrwt beam="2">  1        2 0.99164488E+00 0.14951338E+02</pdfrwt>
<pdfrwt beam="1">  1       -2 0.99359252E+00 0.14951338E+02</pdfrwt>
<totfact>-0.14678898E-13</totfact>
</mgrwt>
</event>
<event>
 4    1 -0.5170493E-019  0.1499560E+02  0.7818608E-02  0.1868203E+00
         -2   -1    0    0    0  501 -0.00000000000E+00  0.00000000000E+00  0.12037314223E+03  0.12037314225E+03  0.25500000000E-02 0.  1.
          2   -1    0    0  501    0  0.00000000000E+00 -0.00000000000E+00 -0.46701931392E+00  0.46702627558E+00  0.25500000000E-02 0. -1.
         31    1    1    2    0    0 -0.17574767075E+00 -0.76532051369E+00  0.56922043557E+02  0.57412494907E+02  0.74470750000E+01 0. -1.
        -31    1    1    2    0    0  0.17574767075E+00  0.76532051369E+00  0.62984079355E+02  0.63427673621E+02  0.74470750000E+01 0.  1.
<mgrwt>
<rscale>  0 0.14995600E+02</rscale>
<asrwt>0</asrwt>
<pdfrwt beam="2">  1        2 0.99193573E+00 0.14995600E+02</pdfrwt>
<pdfrwt beam="1">  1       -2 0.99919106E+00 0.14995600E+02</pdfrwt>
<totfact>-0.40638909E-14</totfact>
</mgrwt>
</event>
<event>
 4    1 -0.5170493E-019  0.1494189E+02  0.7818608E-02  0.1869847E+00
         -2   -1    0    0    0  501 -0.00000000000E+00  0.00000000000E+00  0.11942297814E+03  0.11942297817E+03  0.25500000000E-02 0. -1.
          2   -1    0    0  501    0  0.00000000000E+00 -0.00000000000E+00 -0.46736932480E+00  0.46737628123E+00  0.25500000000E-02 0.  1.
         31    1    1    2    0    0  0.23089828955E+00  0.29195722733E+00  0.55735110925E+02  0.56231664291E+02  0.74470750000E+01 0.  1.
        -31    1    1    2    0    0 -0.23089828955E+00 -0.29195722733E+00  0.63220497893E+02  0.63658690161E+02  0.74470750000E+01 0. -1.
<mgrwt>
<rscale>  0 0.14941895E+02</rscale>
<asrwt>0</asrwt>
<pdfrwt beam="2">  1        2 0.99264572E+00 0.14941895E+02</pdfrwt>
<pdfrwt beam="1">  1       -2 0.99133733E+00 0.14941895E+02</pdfrwt>
<totfact>-0.67445479E-14</totfact>
</mgrwt>
</event>
<event>
 4    1 -0.5170493E-019  0.1493162E+02  0.7818608E-02  0.1870162E+00
          2   -1    0    0  501    0  0.00000000000E+00  0.00000000000E+00  0.11920908360E+03  0.11920908363E+03  0.25500000000E-02 0.  1.
         -2   -1    0    0    0  501 -0.00000000000E+00 -0.00000000000E+00 -0.46756402200E+00  0.46757097554E+00  0.25500000000E-02 0. -1.
         31    1    1    2    0    0 -0.40521256192E+00  0.13951186026E+00  0.61850350829E+02  0.62298543197E+02  0.74470750000E+01 0.  1.
        -31    1    1    2    0    0  0.40521256192E+00 -0.13951186026E+00  0.56891168748E+02  0.57378111404E+02  0.74470750000E+01 0. -1.
<mgrwt>
<rscale>  0 0.14931617E+02</rscale>
<asrwt>0</asrwt>
<pdfrwt beam="1">  1        2 0.98957031E+00 0.14931617E+02</pdfrwt>
<pdfrwt beam="2">  1       -2 0.99305067E+00 0.14931617E+02</pdfrwt>
<totfact>-0.16315760E-13</totfact>
</mgrwt>
</event>
<event>
 4    1 -0.5170493E-019  0.1496756E+02  0.7818608E-02  0.1869060E+00
         -2   -1    0    0    0  501 -0.00000000000E+00  0.00000000000E+00  0.11968048442E+03  0.11968048444E+03  0.25500000000E-02 0. -1.
          2   -1    0    0  501    0  0.00000000000E+00 -0.00000000000E+00 -0.46796691824E+00  0.46797386579E+00  0.25500000000E-02 0.  1.
         31    1    1    2    0    0  0.12924511363E+00 -0.62079741365E+00  0.56540027343E+02  0.57031883291E+02  0.74470750000E+01 0.  1.
        -31    1    1    2    0    0 -0.12924511363E+00  0.62079741365E+00  0.62672490154E+02  0.63116575018E+02  0.74470750000E+01 0. -1.
<mgrwt>
<rscale>  0 0.14967555E+02</rscale>
<asrwt>0</asrwt>
<pdfrwt beam="2">  1        2 0.99391832E+00 0.14967555E+02</pdfrwt>
<pdfrwt beam="1">  1       -2 0.99347152E+00 0.14967555E+02</pdfrwt>
<totfact>-0.12245970E-13</totfact>
</mgrwt>
</event>
<event>
 4    1 -0.5170493E-019  0.1498189E+02  0.7818608E-02  0.1868622E+00
          2   -1    0    0  501    0  0.00000000000E+00  0.00000000000E+00  0.11947461191E+03  0.11947461193E+03  0.25500000000E-02 0. -1.
         -2   -1    0    0    0  501 -0.00000000000E+00 -0.00000000000E+00 -0.46967174248E+00  0.46967866482E+00  0.25500000000E-02 0.  1.
         31    1    1    2    0    0  0.77411910824E+00  0.21860958418E+00  0.60231378212E+02  0.60695344944E+02  0.74470750000E+01 0.  1.
        -31    1    1    2    0    0 -0.77411910824E+00 -0.21860958418E+00  0.58773561951E+02  0.59248945653E+02  0.74470750000E+01 0.  1.
<mgrwt>
<rscale>  0 0.14981891E+02</rscale>
<asrwt>0</asrwt>
<pdfrwt beam="1">  1        2 0.99178332E+00 0.14981891E+02</pdfrwt>
<pdfrwt beam="2">  1       -2 0.99751828E+00 0.14981891E+02</pdfrwt>
<totfact>-0.10800953E-13</totfact>
</mgrwt>
</event>
<event>
 4    1  0.5170493E-019  0.1493492E+02  0.7818608E-02  0.1870061E+00
         -2   -1    0    0    0  501 -0.00000000000E+00  0.00000000000E+00  0.11847449817E+03  0.11847449820E+03  0.25500000000E-02 0.  1.
          2   -1    0    0  501    0  0.00000000000E+00 -0.00000000000E+00 -0.47067126126E+00  0.47067816890E+00  0.25500000000E-02 0. -1.
         31    1    1    2    0    0 -0.23076548727E+00  0.35515836890E+00  0.61813611382E+02  0.62262033924E+02  0.74470750000E+01 0. -1.
        -31    1    1    2    0    0  0.23076548727E+00 -0.35515836890E+00  0.56190215529E+02  0.56683142445E+02  0.74470750000E+01 0.  1.
<mgrwt>
<rscale>  0 0.14934919E+02</rscale>
<asrwt>0</asrwt>
<pdfrwt beam="2">  1        2 0.99959965E+00 0.14934919E+02</pdfrwt>
<pdfrwt beam="1">  1       -2 0.98352194E+00 0.14934919E+02</pdfrwt>
<totfact> 0.92885355E-14</totfact>
</mgrwt>
</event>
<event>
 4    1 -0.5170493E-019  0.1496335E+02  0.7818608E-02  0.1869189E+00
         -2   -1    0    0    0  501 -0.00000000000E+00  0.00000000000E+00  0.11992032027E+03  0.11992032030E+03  0.25500000000E-02 0. -1.
          2   -1    0    0  501    0  0.00000000000E+00 -0.00000000000E+00 -0.46676845734E+00  0.46677542273E+00  0.25500000000E-02 0.  1.
         31    1    1    2    0    0  0.49201767782E+00 -0.14398439359E+00  0.63779206156E+02  0.64214553466E+02  0.74470750000E+01 0. -1.
        -31    1    1    2    0    0 -0.49201767782E+00  0.14398439359E+00  0.55674345658E+02  0.56172542255E+02  0.74470750000E+01 0.  1.
<mgrwt>
<rscale>  0 0.14963348E+02</rscale>
<asrwt>0</asrwt>
<pdfrwt beam="2">  1        2 0.99139053E+00 0.14963348E+02</pdfrwt>
<pdfrwt beam="1">  1       -2 0.99544474E+00 0.14963348E+02</pdfrwt>
<totfact>-0.15567325E-13</totfact>
</mgrwt>
</event>
<event>
 4    1  0.5170493E-019  0.1490610E+02  0.7818608E-02  0.1870947E+00
         -2   -1    0    0    0  501 -0.00000000000E+00  0.00000000000E+00  0.11848942745E+03  0.11848942748E+03  0.25500000000E-02 0.  1.
          2   -1    0    0  501    0  0.00000000000E+00 -0.00000000000E+00 -0.46879749942E+00  0.46880443466E+00  0.25500000000E-02 0. -1.
         31    1    1    2    0    0  0.25114255141E+00  0.13128142122E+00  0.58264746749E+02  0.58739424130E+02  0.74470750000E+01 0.  1.
        -31    1    1    2    0    0 -0.25114255141E+00 -0.13128142122E+00  0.59755883205E+02  0.60218807785E+02  0.74470750000E+01 0.  1.
<mgrwt>
<rscale>  0 0.14906101E+02</rscale>
<asrwt>0</asrwt>
<pdfrwt beam="2">  1        2 0.99563644E+00 0.14906101E+02</pdfrwt>
<pdfrwt beam="1">  1       -2 0.98362989E+00 0.14906101E+02</pdfrwt>
<totfact> 0.64151031E-13</totfact>
</mgrwt>
</event>
<event>
 4    1 -0.5170493E-019  0.1497178E+02  0.7818608E-02  0.1868931E+00
         -2   -1    0    0    0  501 -0.00000000000E+00  0.00000000000E+00  0.11999165935E+03  0.11999165938E+03  0.25500000000E-02 0.  1.
          2   -1    0    0  501    0  0.00000000000E+00 -0.00000000000E+00 -0.46701667826E+00  0.46702363995E+00  0.25500000000E-02 0. -1.
         31    1    1    2    0    0 -0.33061169325E+00  0.65357909328E+00  0.61433262398E+02  0.61887326043E+02  0.74470750000E+01 0.  1.
        -31    1    1    2    0    0  0.33061169325E+00 -0.65357909328E+00  0.58091380272E+02  0.58571356973E+02  0.74470750000E+01 0. -1.
<mgrwt>
<rscale>  0 0.14971777E+02</rscale>
<asrwt>0</asrwt>
<pdfrwt beam="2">  1        2 0.99191797E+00 0.14971777E+02</pdfrwt>
<pdfrwt beam="1">  1       -2 0.99603667E+00 0.14971777E+02</pdfrwt>
<totfact>-0.14233924E-13</totfact>
</mgrwt>
</event>
<event>
 4    1  0.5170493E-019  0.1491862E+02  0.7818608E-02  0.1870562E+00
          2   -1    0    0  501    0  0.00000000000E+00  0.00000000000E+00  0.11979106524E+03  0.11979106527E+03  0.25500000000E-02 0.  1.
         -2   -1    0    0    0  501 -0.00000000000E+00 -0.00000000000E+00 -0.46448257576E+00  0.46448957543E+00  0.25500000000E-02 0. -1.
         31    1    1    2    0    0  0.14382622546E+00  0.38295672420E+00  0.58675488331E+02  0.59147605182E+02  0.74470750000E+01 0. -1.
        -31    1    1    2    0    0 -0.14382622546E+00 -0.38295672420E+00  0.60651094332E+02  0.61107949659E+02  0.74470750000E+01 0. -1.
<mgrwt>
<rscale>  0 0.14918617E+02</rscale>
<asrwt>0</asrwt>
<pdfrwt beam="1">  1        2 0.99435707E+00 0.14918617E+02</pdfrwt>
<pdfrwt beam="2">  1       -2 0.98655014E+00 0.14918617E+02</pdfrwt>
<totfact> 0.31194395E-13</totfact>
</mgrwt>
</event>
<event>
 4    1 -0.5170493E-019  0.1493689E+02  0.7818608E-02  0.1870000E+00
         -2   -1    0    0    0  501 -0.00000000000E+00  0.00000000000E+00  0.12000972494E+03  0.12000972496E+03  0.25500000000E-02 0. -1.
          2   -1    0    0  501    0  0.00000000000E+00 -0.00000000000E+00 -0.46477264376E+00  0.46477963906E+00  0.25500000000E-02 0.  1.
         31    1    1    2    0    0 -0.36876027564E+00  0.39561664924E+00  0.58466017916E+02  0.58940874388E+02  0.74470750000E+01 0.  1.
        -31    1    1    2    0    0  0.36876027564E+00 -0.39561664924E+00  0.61078934376E+02  0.61533630213E+02  0.74470750000E+01 0. -1.
<mgrwt>
<rscale>  0 0.14936889E+02</rscale>
<asrwt>0</asrwt>
<pdfrwt beam="2">  1        2 0.98717080E+00 0.14936889E+02</pdfrwt>
<pdfrwt beam="1">  1       -2 0.99616750E+00 0.14936889E+02</pdfrwt>
<totfact>-0.22960456E-13</totfact>
</mgrwt>
</event>
<event>
 4    1 -0.5170493E-019  0.1498279E+02  0.7818608E-02  0.1868594E+00
         -2   -1    0    0    0  501 -0.00000000000E+00  0.00000000000E+00  0.11959798682E+03  0.11959798685E+03  0.25500000000E-02 0.  1.
          2   -1    0    0  501    0  0.00000000000E+00 -0.00000000000E+00 -0.46924335913E+00  0.46925028778E+00  0.25500000000E-02 0. -1.
         31    1    1    2    0    0 -0.60941273077E+00  0.11312758331E+00  0.55340084650E+02  0.55842350209E+02  0.74470750000E+01 0. -1.
        -31    1    1    2    0    0  0.60941273077E+00 -0.11312758331E+00  0.63788658814E+02  0.64224886930E+02  0.74470750000E+01 0. -1.
<mgrwt>
<rscale>  0 0.14982787E+02</rscale>
<asrwt>0</asrwt>
<pdfrwt beam="2">  1        2 0.99661605E+00 0.14982787E+02</pdfrwt>
<pdfrwt beam="1">  1       -2 0.99279992E+00 0.14982787E+02</pdfrwt>
<totfact>-0.79476019E-14</totfact>
</mgrwt>
</event>
<event>
 4    1  0.5170493E-019  0.1492849E+02  0.7818608E-02  0.1870258E+00
         -2   -1    0    0    0  501 -0.00000000000E+00  0.00000000000E+00  0.11887358367E+03  0.11887358369E+03  0.25500000000E-02 0. -1.
          2   -1    0    0  501    0  0.00000000000E+00 -0.00000000000E+00 -0.46868742348E+00  0.46869436036E+00  0.25500000000E-02 0.  1.
         31    1    1    2    0    0  0.22580869619E+00  0.28399830164E+00  0.62022038661E+02  0.62468582906E+02  0.74470750000E+01 0. -1.
        -31    1    1    2    0    0 -0.22580869619E+00 -0.28399830164E+00  0.56382857581E+02  0.56873695146E+02  0.74470750000E+01 0. -1.
<mgrwt>
<rscale>  0 0.14928492E+02</rscale>
<asrwt>0</asrwt>
<pdfrwt beam="2">  1        2 0.99541626E+00 0.14928492E+02</pdfrwt>
<pdfrwt beam="1">  1       -2 0.98680545E+00 0.14928492E+02</pdfrwt>
<totfact> 0.25408374E-13</totfact>
</mgrwt>
</event>
<event>
 4    1 -0.5170493E-019  0.1496370E+02  0.7818608E-02  0.1869178E+00
         -2   -1    0    0    0  501 -0.00000000000E+00  0.00000000000E+00  0.11940409313E+03  0.11940409315E+03  0.25500000000E-02 0.  1.
          2   -1    0    0  501    0  0.00000000000E+00 -0.00000000000E+00 -0.46880883825E+00  0.46881577333E+00  0.25500000000E-02 0. -1.
         31    1    1    2    0    0 -0.67826729547E+00 -0.23619886891E+00  0.59004046922E+02  0.59476485401E+02  0.74470750000E+01 0.  1.
        -31    1    1    2    0    0  0.67826729547E+00  0.23619886891E+00  0.59931237367E+02  0.60396423526E+02  0.74470750000E+01 0. -1.
<mgrwt>
<rscale>  0 0.14963704E+02</rscale>
<asrwt>0</asrwt>
<pdfrwt beam="2">  1        2 0.99569048E+00 0.14963704E+02</pdfrwt>
<pdfrwt beam="1">  1       -2 0.99119308E+00 0.14963704E+02</pdfrwt>
<totfact>-0.46069971E-14</totfact>
</mgrwt>
</event>
<event>
 4    1 -0.5170493E-019  0.1496532E+02  0.7818608E-02  0.1869129E+00
         -2   -1    0    0    0  501 -0.00000000000E+00  0.00000000000E+00  0.11948475491E+03  0.11948475494E+03  0.25500000000E-02 0. -1.
          2   -1    0    0  501    0  0.00000000000E+00 -0.00000000000E+00 -0.46859355206E+00  0.46860049033E+00  0.25500000000E-02 0.  1.
         31    1    1    2    0    0  0.93461726587E-01  0.51653769541E+00  0.55454692505E+02  0.55954958611E+02  0.74470750000E+01 0.  1.
        -31    1    1    2    0    0 -0.93461726587E-01 -0.51653769541E+00  0.63561468857E+02  0.63998396820E+02  0.74470750000E+01 0. -1.
<mgrwt>
<rscale>  0 0.14965320E+02</rscale>
<asrwt>0</asrwt>
<pdfrwt beam="2">  1        2 0.99523766E+00 0.14965320E+02</pdfrwt>
<pdfrwt beam="1">  1       -2 0.99185827E+00 0.14965320E+02</pdfrwt>
<totfact>-0.72426561E-14</totfact>
</mgrwt>
</event>
<event>
 4    1 -0.5170493E-019  0.1496225E+02  0.7818608E-02  0.1869223E+00
          2   -1    0    0  501    0  0.00000000000E+00  0.00000000000E+00  0.11900522288E+03  0.11900522291E+03  0.25500000000E-02 0. -1.
         -2   -1    0    0    0  501 -0.00000000000E+00 -0.00000000000E+00 -0.47028896706E+00  0.47029588032E+00  0.25500000000E-02 0.  1.
         31    1    1    2    0    0  0.14302693837E-01 -0.31033670578E+00  0.64391770204E+02  0.64821720970E+02  0.74470750000E+01 0. -1.
        -31    1    1    2    0    0 -0.14302693837E-01  0.31033670578E+00  0.54143163712E+02  0.54653797821E+02  0.74470750000E+01 0.  1.
<mgrwt>
<rscale>  0 0.14962254E+02</rscale>
<asrwt>0</asrwt>
<pdfrwt beam="1">  1        2 0.98790718E+00 0.14962254E+02</pdfrwt>
<pdfrwt beam="2">  1       -2 0.99880857E+00 0.14962254E+02</pdfrwt>
<totfact>-0.86102557E-14</totfact>
</mgrwt>
</event>
<event>
 4    1  0.5170493E-019  0.1490689E+02  0.7818608E-02  0.1870923E+00
          2   -1    0    0  501    0  0.00000000000E+00  0.00000000000E+00  0.11981194946E+03  0.11981194949E+03  0.25500000000E-02 0. -1.
         -2   -1    0    0    0  501 -0.00000000000E+00 -0.00000000000E+00 -0.46367201003E+00  0.46367902194E+00  0.25500000000E-02 0.  1.
         31    1    1    2    0    0 -0.18319293632E+00 -0.15301319289E+00  0.61246390905E+02  0.61697944031E+02  0.74470750000E+01 0. -1.
        -31    1    1    2    0    0  0.18319293632E+00  0.15301319289E+00  0.58101886543E+02  0.58577684476E+02  0.74470750000E+01 0.  1.
<mgrwt>
<rscale>  0 0.14906894E+02</rscale>
<asrwt>0</asrwt>
<pdfrwt beam="1">  1        2 0.99452305E+00 0.14906894E+02</pdfrwt>
<pdfrwt beam="2">  1       -2 0.98483584E+00 0.14906894E+02</pdfrwt>
<totfact> 0.53146968E-13</totfact>
</mgrwt>
</event>
<event>
 4    1  0.5170493E-019  0.1491074E+02  0.7818608E-02  0.1870805E+00
         -2   -1    0    0    0  501 -0.00000000000E+00  0.00000000000E+00  0.11838520005E+03  0.11838520007E+03  0.25500000000E-02 0.  1.
          2   -1    0    0  501    0  0.00000000000E+00 -0.00000000000E+00 -0.46950233159E+00  0.46950925642E+00  0.25500000000E-02 0. -1.
         31    1    1    2    0    0 -0.28616561264E-02  0.35022654552E+00  0.58712457923E+02  0.59183902442E+02  0.74470750000E+01 0.  1.
        -31    1    1    2    0    0  0.28616561264E-02 -0.35022654552E+00  0.59203239790E+02  0.59670806887E+02  0.74470750000E+01 0. -1.
<mgrwt>
<rscale>  0 0.14910740E+02</rscale>
<asrwt>0</asrwt>
<pdfrwt beam="2">  1        2 0.99712397E+00 0.14910740E+02</pdfrwt>
<pdfrwt beam="1">  1       -2 0.98277390E+00 0.14910740E+02</pdfrwt>
<totfact> 0.60000564E-13</totfact>
</mgrwt>
</event>
<event>
 4    1 -0.5170493E-019  0.1496292E+02  0.7818608E-02  0.1869202E+00
         -2   -1    0    0    0  501 -0.00000000000E+00  0.00000000000E+00  0.11965600770E+03  0.11965600773E+03  0.25500000000E-02 0. -1.
          2   -1    0    0  501    0  0.00000000000E+00 -0.00000000000E+00 -0.46777286367E+00  0.46777981411E+00  0.25500000000E-02 0.  1.
         31    1    1    2    0    0  0.44473166978E+00  0.42822124276E+00  0.56675523414E+02  0.57166030473E+02  0.74470750000E+01 0.  1.
        -31    1    1    2    0    0 -0.44473166978E+00 -0.42822124276E+00  0.62512711424E+02  0.62957757070E+02  0.74470750000E+01 0. -1.
<mgrwt>
<rscale>  0 0.14962921E+02</rscale>
<asrwt>0</asrwt>
<pdfrwt beam="2">  1        2 0.99350698E+00 0.14962921E+02</pdfrwt>
<pdfrwt beam="1">  1       -2 0.99326752E+00 0.14962921E+02</pdfrwt>
<totfact>-0.12301363E-13</totfact>
</mgrwt>
</event>
<event>
 4    1 -0.5170493E-019  0.1489923E+02  0.7818608E-02  0.1871159E+00
          2   -1    0    0  501    0  0.00000000000E+00  0.00000000000E+00  0.11839266418E+03  0.11839266421E+03  0.25500000000E-02 0. -1.
         -2   -1    0    0    0  501 -0.00000000000E+00 -0.00000000000E+00 -0.46874824186E+00  0.46875517783E+00  0.25500000000E-02 0.  1.
         31    1    1    2    0    0  0.13217947783E+00  0.10619488486E+00  0.59722654785E+02  0.60185406615E+02  0.74470750000E+01 0.  1.
        -31    1    1    2    0    0 -0.13217947783E+00 -0.10619488486E+00  0.58201261153E+02  0.58676012770E+02  0.74470750000E+01 0.  1.
<mgrwt>
<rscale>  0 0.14899230E+02</rscale>
<asrwt>0</asrwt>
<pdfrwt beam="1">  1        2 0.98282938E+00 0.14899230E+02</pdfrwt>
<pdfrwt beam="2">  1       -2 0.99552903E+00 0.14899230E+02</pdfrwt>
<totfact>-0.48709730E-13</totfact>
</mgrwt>
</event>
<event>
 4    1 -0.5170493E-019  0.1499045E+02  0.7818608E-02  0.1868360E+00
         -2   -1    0    0    0  501 -0.00000000000E+00  0.00000000000E+00  0.11987590512E+03  0.11987590515E+03  0.25500000000E-02 0. -1.
          2   -1    0    0  501    0  0.00000000000E+00 -0.00000000000E+00 -0.46863476133E+00  0.46864169898E+00  0.25500000000E-02 0.  1.
         31    1    1    2    0    0 -0.43472527138E+00 -0.68135506728E+00  0.57636838764E+02  0.58121573788E+02  0.74470750000E+01 0. -1.
        -31    1    1    2    0    0  0.43472527138E+00  0.68135506728E+00  0.61770431598E+02  0.62222973061E+02  0.74470750000E+01 0. -1.
<mgrwt>
<rscale>  0 0.14990455E+02</rscale>
<asrwt>0</asrwt>
<pdfrwt beam="2">  1        2 0.99533753E+00 0.14990455E+02</pdfrwt>
<pdfrwt beam="1">  1       -2 0.99509291E+00 0.14990455E+02</pdfrwt>
<totfact>-0.11470216E-13</totfact>
</mgrwt>
</event>
<event>
 4    1 -0.5170493E-019  0.1492064E+02  0.7818608E-02  0.1870500E+00
          2   -1    0    0  501    0  0.00000000000E+00  0.00000000000E+00  0.11847119612E+03  0.11847119615E+03  0.25500000000E-02 0. -1.
         -2   -1    0    0    0  501 -0.00000000000E+00 -0.00000000000E+00 -0.46978452494E+00  0.46979144561E+00  0.25500000000E-02 0.  1.
         31    1    1    2    0    0  0.12085157857E+00  0.26292836309E+00  0.56312909382E+02  0.56803929667E+02  0.74470750000E+01 0. -1.
        -31    1    1    2    0    0 -0.12085157857E+00 -0.26292836309E+00  0.61688502211E+02  0.62137057925E+02  0.74470750000E+01 0. -1.
<mgrwt>
<rscale>  0 0.14920636E+02</rscale>
<asrwt>0</asrwt>
<pdfrwt beam="1">  1        2 0.98348730E+00 0.14920636E+02</pdfrwt>
<pdfrwt beam="2">  1       -2 0.99772378E+00 0.14920636E+02</pdfrwt>
<totfact>-0.29342856E-13</totfact>
</mgrwt>
</event>
<event>
 4    1 -0.5170493E-019  0.1494692E+02  0.7818608E-02  0.1869693E+00
         -2   -1    0    0    0  501 -0.00000000000E+00  0.00000000000E+00  0.12023010038E+03  0.12023010041E+03  0.25500000000E-02 0.  1.
          2   -1    0    0  501    0  0.00000000000E+00 -0.00000000000E+00 -0.46454380818E+00  0.46455080693E+00  0.25500000000E-02 0. -1.
         31    1    1    2    0    0 -0.54834015622E+00 -0.80293448126E-01  0.62257984696E+02  0.62704247930E+02  0.74470750000E+01 0.  1.
        -31    1    1    2    0    0  0.54834015622E+00  0.80293448126E-01  0.57507571874E+02  0.57990403282E+02  0.74470750000E+01 0.  1.
<mgrwt>
<rscale>  0 0.14946916E+02</rscale>
<asrwt>0</asrwt>
<pdfrwt beam="2">  1        2 0.98669361E+00 0.14946916E+02</pdfrwt>
<pdfrwt beam="1">  1       -2 0.99798782E+00 0.14946916E+02</pdfrwt>
<totfact>-0.15948570E-13</totfact>
</mgrwt>
</event>
<event>
 4    1 -0.5170493E-019  0.1495212E+02  0.7818608E-02  0.1869533E+00
          2   -1    0    0  501    0  0.00000000000E+00  0.00000000000E+00  0.11954512247E+03  0.11954512249E+03  0.25500000000E-02 0.  1.
         -2   -1    0    0    0  501 -0.00000000000E+00 -0.00000000000E+00 -0.46753122553E+00  0.46753817956E+00  0.25500000000E-02 0. -1.
         31    1    1    2    0    0 -0.37337229327E+00  0.50200364678E+00  0.61167118345E+02  0.61621966109E+02  0.74470750000E+01 0. -1.
        -31    1    1    2    0    0  0.37337229327E+00 -0.50200364678E+00  0.57910472896E+02  0.58390694563E+02  0.74470750000E+01 0. -1.
<mgrwt>
<rscale>  0 0.14952123E+02</rscale>
<asrwt>0</asrwt>
<pdfrwt beam="1">  1        2 0.99234865E+00 0.14952123E+02</pdfrwt>
<pdfrwt beam="2">  1       -2 0.99299219E+00 0.14952123E+02</pdfrwt>
<totfact>-0.12786755E-13</totfact>
</mgrwt>
</event>
<event>
 4    1 -0.5170493E-019  0.1495443E+02  0.7818608E-02  0.1869462E+00
         -2   -1    0    0    0  501 -0.00000000000E+00  0.00000000000E+00  0.12013848038E+03  0.12013848040E+03  0.25500000000E-02 0. -1.
          2   -1    0    0  501    0  0.00000000000E+00 -0.00000000000E+00 -0.46536575830E+00  0.46537274468E+00  0.25500000000E-02 0.  1.
         31    1    1    2    0    0 -0.77712003166E-01 -0.62112544659E+00  0.61778739477E+02  0.62229120301E+02  0.74470750000E+01 0. -1.
        -31    1    1    2    0    0  0.77712003166E-01  0.62112544659E+00  0.57894375140E+02  0.58374732846E+02  0.74470750000E+01 0. -1.
<mgrwt>
<rscale>  0 0.14954432E+02</rscale>
<asrwt>0</asrwt>
<pdfrwt beam="2">  1        2 0.98842977E+00 0.14954432E+02</pdfrwt>
<pdfrwt beam="1">  1       -2 0.99723704E+00 0.14954432E+02</pdfrwt>
<totfact>-0.16039277E-13</totfact>
</mgrwt>
</event>
<event>
 4    1 -0.5170493E-019  0.1494434E+02  0.7818608E-02  0.1869772E+00
         -2   -1    0    0    0  501 -0.00000000000E+00  0.00000000000E+00  0.11991098338E+03  0.11991098341E+03  0.25500000000E-02 0.  1.
          2   -1    0    0  501    0  0.00000000000E+00 -0.00000000000E+00 -0.46561954138E+00  0.46562652396E+00  0.25500000000E-02 0. -1.
         31    1    1    2    0    0  0.36095866758E+00 -0.43301552089E+00  0.61639015232E+02  0.62089813322E+02  0.74470750000E+01 0. -1.
        -31    1    1    2    0    0 -0.36095866758E+00  0.43301552089E+00  0.57806348609E+02  0.58286796611E+02  0.74470750000E+01 0. -1.
<mgrwt>
<rscale>  0 0.14944339E+02</rscale>
<asrwt>0</asrwt>
<pdfrwt beam="2">  1        2 0.98895947E+00 0.14944339E+02</pdfrwt>
<pdfrwt beam="1">  1       -2 0.99535803E+00 0.14944339E+02</pdfrwt>
<totfact>-0.19634431E-13</totfact>
</mgrwt>
</event>
<event>
 4    1  0.5170493E-019  0.1494962E+02  0.7818608E-02  0.1869610E+00
         -2   -1    0    0    0  501 -0.00000000000E+00  0.00000000000E+00  0.11903910711E+03  0.11903910714E+03  0.25500000000E-02 0. -1.
          2   -1    0    0  501    0  0.00000000000E+00 -0.00000000000E+00 -0.46936125046E+00  0.46936817738E+00  0.25500000000E-02 0.  1.
         31    1    1    2    0    0  0.18610985721E+00 -0.61479565369E+00  0.59564446829E+02  0.60031615526E+02  0.74470750000E+01 0. -1.
        -31    1    1    2    0    0 -0.18610985721E+00  0.61479565369E+00  0.59005299034E+02  0.59476859792E+02  0.74470750000E+01 0.  1.
<mgrwt>
<rscale>  0 0.14949617E+02</rscale>
<asrwt>0</asrwt>
<pdfrwt beam="2">  1        2 0.99684716E+00 0.14949617E+02</pdfrwt>
<pdfrwt beam="1">  1       -2 0.98817969E+00 0.14949617E+02</pdfrwt>
<totfact> 0.10380129E-13</totfact>
</mgrwt>
</event>
<event>
 4    1 -0.5170493E-019  0.1499967E+02  0.7818608E-02  0.1868078E+00
          2   -1    0    0  501    0  0.00000000000E+00  0.00000000000E+00  0.11992827719E+03  0.11992827722E+03  0.25500000000E-02 0. -1.
         -2   -1    0    0    0  501 -0.00000000000E+00 -0.00000000000E+00 -0.46900643227E+00  0.46901336443E+00  0.25500000000E-02 0.  1.
         31    1    1    2    0    0 -0.11964380585E+00  0.70171264802E+00  0.55467856356E+02  0.55970069949E+02  0.74470750000E+01 0.  1.
        -31    1    1    2    0    0  0.11964380585E+00 -0.70171264802E+00  0.63991414403E+02  0.64427220634E+02  0.74470750000E+01 0. -1.
<mgrwt>
<rscale>  0 0.14999674E+02</rscale>
<asrwt>0</asrwt>
<pdfrwt beam="1">  1        2 0.99552904E+00 0.14999674E+02</pdfrwt>
<pdfrwt beam="2">  1       -2 0.99612553E+00 0.14999674E+02</pdfrwt>
<totfact>-0.10400847E-13</totfact>
</mgrwt>
</event>
<event>
 4    1 -0.5170493E-019  0.1493034E+02  0.7818608E-02  0.1870202E+00
          2   -1    0    0  501    0  0.00000000000E+00  0.00000000000E+00  0.11852833494E+03  0.11852833496E+03  0.25500000000E-02 0.  1.
         -2   -1    0    0    0  501 -0.00000000000E+00 -0.00000000000E+00 -0.47016924105E+00  0.47017615606E+00  0.25500000000E-02 0. -1.
         31    1    1    2    0    0 -0.15022777181E+00  0.29755034921E-01  0.62985493581E+02  0.63424402098E+02  0.74470750000E+01 0.  1.
        -31    1    1    2    0    0  0.15022777181E+00 -0.29755034921E-01  0.55072672114E+02  0.55574109022E+02  0.74470750000E+01 0. -1.
<mgrwt>
<rscale>  0 0.14930344E+02</rscale>
<asrwt>0</asrwt>
<pdfrwt beam="1">  1        2 0.98396295E+00 0.14930344E+02</pdfrwt>
<pdfrwt beam="2">  1       -2 0.99853949E+00 0.14930344E+02</pdfrwt>
<totfact>-0.18794287E-13</totfact>
</mgrwt>
</event>
<event>
 4    1 -0.5170493E-019  0.1489853E+02  0.7818608E-02  0.1871181E+00
          2   -1    0    0  501    0  0.00000000000E+00  0.00000000000E+00  0.11787224513E+03  0.11787224515E+03  0.25500000000E-02 0. -1.
         -2   -1    0    0    0  501 -0.00000000000E+00 -0.00000000000E+00 -0.47077370645E+00  0.47078061259E+00  0.25500000000E-02 0.  1.
         31    1    1    2    0    0  0.10311435400E-01 -0.10731592840E-01  0.60130886920E+02  0.60590285602E+02  0.74470750000E+01 0. -1.
        -31    1    1    2    0    0 -0.10311435400E-01  0.10731592840E-01  0.57270584500E+02  0.57752740164E+02  0.74470750000E+01 0.  1.
<mgrwt>
<rscale>  0 0.14898532E+02</rscale>
<asrwt>0</asrwt>
<pdfrwt beam="1">  1        2 0.97854294E+00 0.14898532E+02</pdfrwt>
<pdfrwt beam="2">  1       -2 0.99979614E+00 0.14898532E+02</pdfrwt>
<totfact>-0.71328677E-14</totfact>
</mgrwt>
</event>
<event>
 4    1  0.5170493E-019  0.1491332E+02  0.7818608E-02  0.1870725E+00
          2   -1    0    0  501    0  0.00000000000E+00  0.00000000000E+00  0.12020407262E+03  0.12020407265E+03  0.25500000000E-02 0. -1.
         -2   -1    0    0    0  501 -0.00000000000E+00 -0.00000000000E+00 -0.46255811806E+00  0.46256514685E+00  0.25500000000E-02 0.  1.
         31    1    1    2    0    0  0.20947691799E+00  0.45783802602E-01  0.57352164522E+02  0.57834035638E+02  0.74470750000E+01 0.  1.
        -31    1    1    2    0    0 -0.20947691799E+00 -0.45783802602E-01  0.62389349980E+02  0.62832602156E+02  0.74470750000E+01 0. -1.
<mgrwt>
<rscale>  0 0.14913322E+02</rscale>
<asrwt>0</asrwt>
<pdfrwt beam="1">  1        2 0.99775619E+00 0.14913322E+02</pdfrwt>
<pdfrwt beam="2">  1       -2 0.98249141E+00 0.14913322E+02</pdfrwt>
<totfact> 0.53261842E-13</totfact>
</mgrwt>
</event>
<event>
 4    1 -0.5170493E-019  0.1489607E+02  0.7818608E-02  0.1871256E+00
          2   -1    0    0  501    0  0.00000000000E+00  0.00000000000E+00  0.11826859803E+03  0.11826859806E+03  0.25500000000E-02 0.  1.
         -2   -1    0    0    0  501 -0.00000000000E+00 -0.00000000000E+00 -0.46904117463E+00  0.46904810628E+00  0.25500000000E-02 0. -1.
         31    1    1    2    0    0  0.10276008966E+00  0.30093590314E-01  0.59326359764E+02  0.59792034204E+02  0.74470750000E+01 0. -1.
        -31    1    1    2    0    0 -0.10276008966E+00 -0.30093590314E-01  0.58473197094E+02  0.58945611963E+02  0.74470750000E+01 0. -1.
<mgrwt>
<rscale>  0 0.14896074E+02</rscale>
<asrwt>0</asrwt>
<pdfrwt beam="1">  1        2 0.98180593E+00 0.14896074E+02</pdfrwt>
<pdfrwt beam="2">  1       -2 0.99614457E+00 0.14896074E+02</pdfrwt>
<totfact>-0.54694807E-13</totfact>
</mgrwt>
</event>
<event>
 4    1 -0.5170493E-019  0.1491061E+02  0.7818608E-02  0.1870808E+00
         -2   -1    0    0    0  501 -0.00000000000E+00  0.00000000000E+00  0.11980935203E+03  0.11980935206E+03  0.25500000000E-02 0. -1.
          2   -1    0    0  501    0  0.00000000000E+00 -0.00000000000E+00 -0.46391350979E+00  0.46392051805E+00  0.25500000000E-02 0.  1.
         31    1    1    2    0    0  0.22170293433E+00 -0.16630504814E+00  0.61400194470E+02  0.61850785093E+02  0.74470750000E+01 0. -1.
        -31    1    1    2    0    0 -0.22170293433E+00  0.16630504814E+00  0.57945244049E+02  0.58422487482E+02  0.74470750000E+01 0.  1.
<mgrwt>
<rscale>  0 0.14910614E+02</rscale>
<asrwt>0</asrwt>
<pdfrwt beam="2">  1        2 0.98534672E+00 0.14910614E+02</pdfrwt>
<pdfrwt beam="1">  1       -2 0.99450357E+00 0.14910614E+02</pdfrwt>
<totfact>-0.32839020E-13</totfact>
</mgrwt>
</event>
<event>
 4    1 -0.5170493E-019  0.1496896E+02  0.7818608E-02  0.1869017E+00
         -2   -1    0    0    0  501 -0.00000000000E+00  0.00000000000E+00  0.11977996769E+03  0.11977996771E+03  0.25500000000E-02 0.  1.
          2   -1    0    0  501    0  0.00000000000E+00 -0.00000000000E+00 -0.46766595042E+00  0.46767290245E+00  0.25500000000E-02 0. -1.
         31    1    1    2    0    0  0.46658623329E+00 -0.58376373585E+00  0.59694822959E+02  0.60162191591E+02  0.74470750000E+01 0. -1.
        -31    1    1    2    0    0 -0.46658623329E+00  0.58376373585E+00  0.59617478776E+02  0.60085449024E+02  0.74470750000E+01 0.  1.
<mgrwt>
<rscale>  0 0.14968959E+02</rscale>
<asrwt>0</asrwt>
<pdfrwt beam="2">  1        2 0.99328480E+00 0.14968959E+02</pdfrwt>
<pdfrwt beam="1">  1       -2 0.99429163E+00 0.14968959E+02</pdfrwt>
<totfact>-0.13709547E-13</totfact>
</mgrwt>
</event>
<event>
 4    1 -0.5170493E-019  0.1496611E+02  0.7818608E-02  0.1869104E+00
         -2   -1    0    0    0  501 -0.00000000000E+00  0.00000000000E+00  0.11991421769E+03  0.11991421771E+03  0.25500000000E-02 0.  1.
          2   -1    0    0  501    0  0.00000000000E+00 -0.00000000000E+00 -0.46696460365E+00  0.46697156612E+00  0.25500000000E-02 0. -1.
         31    1    1    2    0    0  0.12401622513E+00  0.56452771269E+00  0.56098492022E+02  0.56593584484E+02  0.74470750000E+01 0. -1.
        -31    1    1    2    0    0 -0.12401622513E+00 -0.56452771269E+00  0.63348761061E+02  0.63787604796E+02  0.74470750000E+01 0.  1.
<mgrwt>
<rscale>  0 0.14966110E+02</rscale>
<asrwt>0</asrwt>
<pdfrwt beam="2">  1        2 0.99180531E+00 0.14966110E+02</pdfrwt>
<pdfrwt beam="1">  1       -2 0.99539590E+00 0.14966110E+02</pdfrwt>
<totfact>-0.15125863E-13</totfact>
</mgrwt>
</event>
<event>
 4    1  0.5170493E-019  0.1490962E+02  0.7818608E-02  0.1870839E+00
         -2   -1    0    0    0  501 -0.00000000000E+00  0.00000000000E+00  0.11849625864E+03  0.11849625866E+03  0.25500000000E-02 0.  1.
          2   -1    0    0  501    0  0.00000000000E+00 -0.00000000000E+00 -0.46899184986E+00  0.46899878223E+00  0.25500000000E-02 0. -1.
         31    1    1    2    0    0  0.18298935856E+00 -0.19918090515E+00  0.57376278781E+02  0.57858183958E+02  0.74470750000E+01 0. -1.
        -31    1    1    2    0    0 -0.18298935856E+00  0.19918090515E+00  0.60650988005E+02  0.61107073487E+02  0.74470750000E+01 0.  1.
<mgrwt>
<rscale>  0 0.14909620E+02</rscale>
<asrwt>0</asrwt>
<pdfrwt beam="2">  1        2 0.99604779E+00 0.14909620E+02</pdfrwt>
<pdfrwt beam="1">  1       -2 0.98368798E+00 0.14909620E+02</pdfrwt>
<totfact> 0.59795784E-13</totfact>
</mgrwt>
</event>
<event>
 4    1  0.5170493E-019  0.1491713E+02  0.7818608E-02  0.1870608E+00
          2   -1    0    0  501    0  0.00000000000E+00  0.00000000000E+00  0.12019483422E+03  0.12019483425E+03  0.25500000000E-02 0. -1.
         -2   -1    0    0    0  501 -0.00000000000E+00 -0.00000000000E+00 -0.46282963401E+00  0.46283665868E+00  0.25500000000E-02 0.  1.
         31    1    1    2    0    0  0.38567252247E+00  0.11504209839E+00  0.59087966093E+02  0.59556768222E+02  0.74470750000E+01 0.  1.
        -31    1    1    2    0    0 -0.38567252247E+00 -0.11504209839E+00  0.60644038492E+02  0.61100902683E+02  0.74470750000E+01 0. -1.
<mgrwt>
<rscale>  0 0.14917125E+02</rscale>
<asrwt>0</asrwt>
<pdfrwt beam="1">  1        2 0.99768204E+00 0.14917125E+02</pdfrwt>
<pdfrwt beam="2">  1       -2 0.98306561E+00 0.14917125E+02</pdfrwt>
<totfact> 0.48241312E-13</totfact>
</mgrwt>
</event>
<event>
 4    1  0.5170493E-019  0.1492071E+02  0.7818608E-02  0.1870498E+00
          2   -1    0    0  501    0  0.00000000000E+00  0.00000000000E+00  0.12020096387E+03  0.12020096389E+03  0.25500000000E-02 0.  1.
         -2   -1    0    0    0  501 -0.00000000000E+00 -0.00000000000E+00 -0.46302841715E+00  0.46303543881E+00  0.25500000000E-02 0. -1.
         31    1    1    2    0    0  0.31472197554E+00 -0.19874828042E+00  0.57897817771E+02  0.58375977761E+02  0.74470750000E+01 0. -1.
        -31    1    1    2    0    0 -0.31472197554E+00  0.19874828042E+00  0.61840117677E+02  0.62288021570E+02  0.74470750000E+01 0.  1.
<mgrwt>
<rscale>  0 0.14920709E+02</rscale>
<asrwt>0</asrwt>
<pdfrwt beam="1">  1        2 0.99773437E+00 0.14920709E+02</pdfrwt>
<pdfrwt beam="2">  1       -2 0.98348639E+00 0.14920709E+02</pdfrwt>
<totfact> 0.43113250E-13</totfact>
</mgrwt>
</event>
<event>
 4    1 -0.5170493E-019  0.1503415E+02  0.7818608E-02  0.1867028E+00
          2   -1    0    0  501    0  0.00000000000E+00  0.00000000000E+00  0.12030284556E+03  0.12030284559E+03  0.25500000000E-02 0.  1.
         -2   -1    0    0    0  501 -0.00000000000E+00 -0.00000000000E+00 -0.46969791126E+00  0.46970483321E+00  0.25500000000E-02 0. -1.
         31    1    1    2    0    0 -0.20065906978E+00 -0.75656647439E+00  0.54619328455E+02  0.55130233301E+02  0.74470750000E+01 0. -1.
        -31    1    1    2    0    0  0.20065906978E+00  0.75656647439E+00  0.65213819194E+02  0.65642317120E+02  0.74470750000E+01 0. -1.
<mgrwt>
<rscale>  0 0.15034150E+02</rscale>
<asrwt>0</asrwt>
<pdfrwt beam="1">  1        2 0.99863195E+00 0.15034150E+02</pdfrwt>
<pdfrwt beam="2">  1       -2 0.99760054E+00 0.15034150E+02</pdfrwt>
<totfact>-0.32913961E-14</totfact>
</mgrwt>
</event>
<event>
 4    1 -0.5170493E-019  0.1491513E+02  0.7818608E-02  0.1870669E+00
         -2   -1    0    0    0  501 -0.00000000000E+00  0.00000000000E+00  0.11976821045E+03  0.11976821048E+03  0.25500000000E-02 0. -1.
          2   -1    0    0  501    0  0.00000000000E+00 -0.00000000000E+00 -0.46435391898E+00  0.46436092059E+00  0.25500000000E-02 0.  1.
         31    1    1    2    0    0 -0.49776656847E-01 -0.22219904588E+00  0.62257605192E+02  0.62701835542E+02  0.74470750000E+01 0. -1.
        -31    1    1    2    0    0  0.49776656847E-01  0.22219904588E+00  0.57046251344E+02  0.57530735860E+02  0.74470750000E+01 0.  1.
<mgrwt>
<rscale>  0 0.14915128E+02</rscale>
<asrwt>0</asrwt>
<pdfrwt beam="2">  1        2 0.98627721E+00 0.14915128E+02</pdfrwt>
<pdfrwt beam="1">  1       -2 0.99416702E+00 0.14915128E+02</pdfrwt>
<totfact>-0.28078814E-13</totfact>
</mgrwt>
</event>
<event>
 4    1 -0.5170493E-019  0.1492884E+02  0.7818608E-02  0.1870248E+00
         -2   -1    0    0    0  501 -0.00000000000E+00  0.00000000000E+00  0.11976232754E+03  0.11976232757E+03  0.25500000000E-02 0. -1.
          2   -1    0    0  501    0  0.00000000000E+00 -0.00000000000E+00 -0.46523085036E+00  0.46523783877E+00  0.25500000000E-02 0.  1.
         31    1    1    2    0    0 -0.30946296055E+00 -0.40296610686E+00  0.59472816325E+02  0.59939410713E+02  0.74470750000E+01 0. -1.
        -31    1    1    2    0    0  0.30946296055E+00  0.40296610686E+00  0.59824280366E+02  0.60288154694E+02  0.74470750000E+01 0.  1.
<mgrwt>
<rscale>  0 0.14928838E+02</rscale>
<asrwt>0</asrwt>
<pdfrwt beam="2">  1        2 0.98813237E+00 0.14928838E+02</pdfrwt>
<pdfrwt beam="1">  1       -2 0.99412563E+00 0.14928838E+02</pdfrwt>
<totfact>-0.21644571E-13</totfact>
</mgrwt>
</event>
<event>
 4    1 -0.5170493E-019  0.1499458E+02  0.7818608E-02  0.1868234E+00
          2   -1    0    0  501    0  0.00000000000E+00  0.00000000000E+00  0.11976209650E+03  0.11976209653E+03  0.25500000000E-02 0. -1.
         -2   -1    0    0    0  501 -0.00000000000E+00 -0.00000000000E+00 -0.46933818940E+00  0.46934511665E+00  0.25500000000E-02 0.  1.
         31    1    1    2    0    0 -0.78513989203E+00 -0.32976437660E+00  0.58372793307E+02  0.58852078245E+02  0.74470750000E+01 0.  1.
        -31    1    1    2    0    0  0.78513989203E+00  0.32976437660E+00  0.60919965005E+02  0.61379363401E+02  0.74470750000E+01 0. -1.
<mgrwt>
<rscale>  0 0.14994578E+02</rscale>
<asrwt>0</asrwt>
<pdfrwt beam="1">  1        2 0.99415768E+00 0.14994578E+02</pdfrwt>
<pdfrwt beam="2">  1       -2 0.99682200E+00 0.14994578E+02</pdfrwt>
<totfact>-0.10713151E-13</totfact>
</mgrwt>
</event>
<event>
 4    1 -0.5170493E-019  0.1490242E+02  0.7818608E-02  0.1871061E+00
         -2   -1    0    0    0  501 -0.00000000000E+00  0.00000000000E+00  0.12033837898E+03  0.12033837901E+03  0.25500000000E-02 0. -1.
          2   -1    0    0  501    0  0.00000000000E+00 -0.00000000000E+00 -0.46136667114E+00  0.46137371808E+00  0.25500000000E-02 0.  1.
         31    1    1    2    0    0 -0.14848524596E+00  0.83358130165E-01  0.58474425320E+02  0.58946979049E+02  0.74470750000E+01 0.  1.
        -31    1    1    2    0    0  0.14848524596E+00 -0.83358130165E-01  0.61402586992E+02  0.61852773679E+02  0.74470750000E+01 0. -1.
<mgrwt>
<rscale>  0 0.14902422E+02</rscale>
<asrwt>0</asrwt>
<pdfrwt beam="2">  1        2 0.97997462E+00 0.14902422E+02</pdfrwt>
<pdfrwt beam="1">  1       -2 0.99885687E+00 0.14902422E+02</pdfrwt>
<totfact>-0.29510082E-13</totfact>
</mgrwt>
</event>
<event>
 4    1  0.5170493E-019  0.1489683E+02  0.7818608E-02  0.1871233E+00
          2   -1    0    0  501    0  0.00000000000E+00  0.00000000000E+00  0.12033230363E+03  0.12033230366E+03  0.25500000000E-02 0.  1.
         -2   -1    0    0    0  501 -0.00000000000E+00 -0.00000000000E+00 -0.46104361830E+00  0.46105067018E+00  0.25500000000E-02 0. -1.
         31    1    1    2    0    0  0.95078556705E-02 -0.94908887911E-01  0.59091236051E+02  0.59558729018E+02  0.74470750000E+01 0. -1.
        -31    1    1    2    0    0 -0.95078556705E-02  0.94908887911E-01  0.60780023965E+02  0.61234625314E+02  0.74470750000E+01 0.  1.
<mgrwt>
<rscale>  0 0.14896828E+02</rscale>
<asrwt>0</asrwt>
<pdfrwt beam="1">  1        2 0.99880397E+00 0.14896828E+02</pdfrwt>
<pdfrwt beam="2">  1       -2 0.97929088E+00 0.14896828E+02</pdfrwt>
<totfact> 0.57062346E-13</totfact>
</mgrwt>
</event>
<event>
 4    1 -0.5170493E-019  0.1495781E+02  0.7818608E-02  0.1869359E+00
          2   -1    0    0  501    0  0.00000000000E+00  0.00000000000E+00  0.11892157121E+03  0.11892157124E+03  0.25500000000E-02 0.  1.
         -2   -1    0    0    0  501 -0.00000000000E+00 -0.00000000000E+00 -0.47034023733E+00  0.47034714983E+00  0.25500000000E-02 0. -1.
         31    1    1    2    0    0  0.34501387550E+00 -0.78643598865E-01  0.54504337358E+02  0.55011879956E+02  0.74470750000E+01 0. -1.
        -31    1    1    2    0    0 -0.34501387550E+00  0.78643598865E-01  0.63946893612E+02  0.64380038429E+02  0.74470750000E+01 0.  1.
<mgrwt>
<rscale>  0 0.14957809E+02</rscale>
<asrwt>0</asrwt>
<pdfrwt beam="1">  1        2 0.98721592E+00 0.14957809E+02</pdfrwt>
<pdfrwt beam="2">  1       -2 0.99891427E+00 0.14957809E+02</pdfrwt>
<totfact>-0.86867994E-14</totfact>
</mgrwt>
</event>
<event>
 4    1  0.5170493E-019  0.1490424E+02  0.7818608E-02  0.1871005E+00
          2   -1    0    0  501    0  0.00000000000E+00  0.00000000000E+00  0.11920805042E+03  0.11920805045E+03  0.25500000000E-02 0. -1.
         -2   -1    0    0    0  501 -0.00000000000E+00 -0.00000000000E+00 -0.46585536354E+00  0.46586234259E+00  0.25500000000E-02 0.  1.
         31    1    1    2    0    0 -0.21705410876E+00 -0.11627961807E+00  0.60340291128E+02  0.60798604366E+02  0.74470750000E+01 0. -1.
        -31    1    1    2    0    0  0.21705410876E+00  0.11627961807E+00  0.58401903932E+02  0.58875308427E+02  0.74470750000E+01 0. -1.
<mgrwt>
<rscale>  0 0.14904245E+02</rscale>
<asrwt>0</asrwt>
<pdfrwt beam="1">  1        2 0.98954764E+00 0.14904245E+02</pdfrwt>
<pdfrwt beam="2">  1       -2 0.98943582E+00 0.14904245E+02</pdfrwt>
<totfact> 0.66901286E-14</totfact>
</mgrwt>
</event>
<event>
 4    1  0.5170493E-019  0.1491850E+02  0.7818608E-02  0.1870566E+00
          2   -1    0    0  501    0  0.00000000000E+00  0.00000000000E+00  0.11976125354E+03  0.11976125357E+03  0.25500000000E-02 0. -1.
         -2   -1    0    0    0  501 -0.00000000000E+00 -0.00000000000E+00 -0.46459078641E+00  0.46459778445E+00  0.25500000000E-02 0.  1.
         31    1    1    2    0    0 -0.26278720581E+00  0.29163514050E+00  0.58315255227E+02  0.58790152462E+02  0.74470750000E+01 0. -1.
        -31    1    1    2    0    0  0.26278720581E+00 -0.29163514050E+00  0.60981407531E+02  0.61435698895E+02  0.74470750000E+01 0. -1.
<mgrwt>
<rscale>  0 0.14918498E+02</rscale>
<asrwt>0</asrwt>
<pdfrwt beam="1">  1        2 0.99411146E+00 0.14918498E+02</pdfrwt>
<pdfrwt beam="2">  1       -2 0.98677814E+00 0.14918498E+02</pdfrwt>
<totfact> 0.29176233E-13</totfact>
</mgrwt>
</event>
<event>
 4    1 -0.5170493E-019  0.1498063E+02  0.7818608E-02  0.1868660E+00
         -2   -1    0    0    0  501 -0.00000000000E+00  0.00000000000E+00  0.11976176177E+03  0.11976176180E+03  0.25500000000E-02 0.  1.
          2   -1    0    0  501    0  0.00000000000E+00 -0.00000000000E+00 -0.46846683491E+00  0.46847377505E+00  0.25500000000E-02 0. -1.
         31    1    1    2    0    0  0.63325676481E+00 -0.42937613337E+00  0.57672122203E+02  0.58155979773E+02  0.74470750000E+01 0. -1.
        -31    1    1    2    0    0 -0.63325676481E+00  0.42937613337E+00  0.61621172732E+02  0.62074255799E+02  0.74470750000E+01 0. -1.
<mgrwt>
<rscale>  0 0.14980632E+02</rscale>
<asrwt>0</asrwt>
<pdfrwt beam="2">  1        2 0.99497857E+00 0.14980632E+02</pdfrwt>
<pdfrwt beam="1">  1       -2 0.99414771E+00 0.14980632E+02</pdfrwt>
<totfact>-0.11800658E-13</totfact>
</mgrwt>
</event>
<event>
 4    1 -0.5170493E-019  0.1494757E+02  0.7818608E-02  0.1869673E+00
          2   -1    0    0  501    0  0.00000000000E+00  0.00000000000E+00  0.11926081792E+03  0.11926081795E+03  0.25500000000E-02 0.  1.
         -2   -1    0    0    0  501 -0.00000000000E+00 -0.00000000000E+00 -0.46836067835E+00  0.46836762007E+00  0.25500000000E-02 0. -1.
         31    1    1    2    0    0 -0.39356020410E-01  0.31963798444E+00  0.63745644062E+02  0.64179979591E+02  0.74470750000E+01 0.  1.
        -31    1    1    2    0    0  0.39356020410E-01 -0.31963798444E+00  0.55046813182E+02  0.55549205979E+02  0.74470750000E+01 0. -1.
<mgrwt>
<rscale>  0 0.14947574E+02</rscale>
<asrwt>0</asrwt>
<pdfrwt beam="1">  1        2 0.99000468E+00 0.14947574E+02</pdfrwt>
<pdfrwt beam="2">  1       -2 0.99473771E+00 0.14947574E+02</pdfrwt>
<totfact>-0.17895278E-13</totfact>
</mgrwt>
</event>
<event>
 4    1 -0.5170493E-019  0.1501729E+02  0.7818608E-02  0.1867541E+00
          2   -1    0    0  501    0  0.00000000000E+00  0.00000000000E+00  0.12000171600E+03  0.12000171603E+03  0.25500000000E-02 0. -1.
         -2   -1    0    0    0  501 -0.00000000000E+00 -0.00000000000E+00 -0.46982090938E+00  0.46982782951E+00  0.25500000000E-02 0.  1.
         31    1    1    2    0    0 -0.81741287694E+00  0.99767775551E-01  0.63717968227E+02  0.64156967809E+02  0.74470750000E+01 0. -1.
        -31    1    1    2    0    0  0.81741287694E+00 -0.99767775551E-01  0.55813926863E+02  0.56314576047E+02  0.74470750000E+01 0.  1.
<mgrwt>
<rscale>  0 0.15017288E+02</rscale>
<asrwt>0</asrwt>
<pdfrwt beam="1">  1        2 0.99614301E+00 0.15017288E+02</pdfrwt>
<pdfrwt beam="2">  1       -2 0.99785101E+00 0.15017288E+02</pdfrwt>
<totfact>-0.65027886E-14</totfact>
</mgrwt>
</event>
<event>
 4    1 -0.5170493E-019  0.1496388E+02  0.7818608E-02  0.1869173E+00
          2   -1    0    0  501    0  0.00000000000E+00  0.00000000000E+00  0.11991494939E+03  0.11991494942E+03  0.25500000000E-02 0. -1.
         -2   -1    0    0    0  501 -0.00000000000E+00 -0.00000000000E+00 -0.46682254838E+00  0.46682951296E+00  0.25500000000E-02 0.  1.
         31    1    1    2    0    0 -0.66316412341E+00 -0.96293276868E-01  0.61874274930E+02  0.62324424452E+02  0.74470750000E+01 0. -1.
        -31    1    1    2    0    0  0.66316412341E+00  0.96293276868E-01  0.57573851915E+02  0.58057354482E+02  0.74470750000E+01 0.  1.
<mgrwt>
<rscale>  0 0.14963880E+02</rscale>
<asrwt>0</asrwt>
<pdfrwt beam="1">  1        2 0.99540078E+00 0.14963880E+02</pdfrwt>
<pdfrwt beam="2">  1       -2 0.99150480E+00 0.14963880E+02</pdfrwt>
<totfact>-0.59355319E-14</totfact>
</mgrwt>
</event>
<event>
 4    1 -0.5170493E-019  0.1490421E+02  0.7818608E-02  0.1871006E+00
          2   -1    0    0  501    0  0.00000000000E+00  0.00000000000E+00  0.11832079630E+03  0.11832079633E+03  0.25500000000E-02 0.  1.
         -2   -1    0    0    0  501 -0.00000000000E+00 -0.00000000000E+00 -0.46934656567E+00  0.46935349281E+00  0.25500000000E-02 0. -1.
         31    1    1    2    0    0  0.24829820096E+00  0.80662101293E-01  0.59582389303E+02  0.60046550271E+02  0.74470750000E+01 0.  1.
        -31    1    1    2    0    0 -0.24829820096E+00 -0.80662101293E-01  0.58269060434E+02  0.58743599551E+02  0.74470750000E+01 0. -1.
<mgrwt>
<rscale>  0 0.14904210E+02</rscale>
<asrwt>0</asrwt>
<pdfrwt beam="1">  1        2 0.98224007E+00 0.14904210E+02</pdfrwt>
<pdfrwt beam="2">  1       -2 0.99679233E+00 0.14904210E+02</pdfrwt>
<totfact>-0.46001206E-13</totfact>
</mgrwt>
</event>
<event>
 4    1 -0.5170493E-019  0.1490799E+02  0.7818608E-02  0.1870889E+00
          2   -1    0    0  501    0  0.00000000000E+00  0.00000000000E+00  0.11858797099E+03  0.11858797102E+03  0.25500000000E-02 0.  1.
         -2   -1    0    0    0  501 -0.00000000000E+00 -0.00000000000E+00 -0.46852675284E+00  0.46853369209E+00  0.25500000000E-02 0. -1.
         31    1    1    2    0    0 -0.17479530460E+00  0.26639452366E+00  0.59379783049E+02  0.59845794175E+02  0.74470750000E+01 0.  1.
        -31    1    1    2    0    0  0.17479530460E+00 -0.26639452366E+00  0.58739661190E+02  0.59210710536E+02  0.74470750000E+01 0. -1.
<mgrwt>
<rscale>  0 0.14907991E+02</rscale>
<asrwt>0</asrwt>
<pdfrwt beam="1">  1        2 0.98444248E+00 0.14907991E+02</pdfrwt>
<pdfrwt beam="2">  1       -2 0.99506695E+00 0.14907991E+02</pdfrwt>
<totfact>-0.37967524E-13</totfact>
</mgrwt>
</event>
<event>
 4    1 -0.5170493E-019  0.1500726E+02  0.7818608E-02  0.1867847E+00
         -2   -1    0    0    0  501 -0.00000000000E+00  0.00000000000E+00  0.12005524584E+03  0.12005524587E+03  0.25500000000E-02 0.  1.
          2   -1    0    0  501    0  0.00000000000E+00 -0.00000000000E+00 -0.46898468772E+00  0.46899162019E+00  0.25500000000E-02 0. -1.
         31    1    1    2    0    0 -0.37002569754E+00  0.80375535705E+00  0.61802880405E+02  0.62256227754E+02  0.74470750000E+01 0. -1.
        -31    1    1    2    0    0  0.37002569754E+00 -0.80375535705E+00  0.57783380749E+02  0.58268009735E+02  0.74470750000E+01 0. -1.
<mgrwt>
<rscale>  0 0.15007264E+02</rscale>
<asrwt>0</asrwt>
<pdfrwt beam="2">  1        2 0.99608363E+00 0.15007264E+02</pdfrwt>
<pdfrwt beam="1">  1       -2 0.99657872E+00 0.15007264E+02</pdfrwt>
<totfact>-0.90470981E-14</totfact>
</mgrwt>
</event>
<event>
 4    1  0.5170493E-019  0.1491501E+02  0.7818608E-02  0.1870673E+00
         -2   -1    0    0    0  501 -0.00000000000E+00  0.00000000000E+00  0.11886310121E+03  0.11886310124E+03  0.25500000000E-02 0.  1.
          2   -1    0    0  501    0  0.00000000000E+00 -0.00000000000E+00 -0.46788263715E+00  0.46788958596E+00  0.25500000000E-02 0. -1.
         31    1    1    2    0    0 -0.38573587581E+00  0.81437783322E-01  0.59142667954E+02  0.59610984919E+02  0.74470750000E+01 0.  1.
        -31    1    1    2    0    0  0.38573587581E+00 -0.81437783322E-01  0.59252550619E+02  0.59720005904E+02  0.74470750000E+01 0.  1.
<mgrwt>
<rscale>  0 0.14915012E+02</rscale>
<asrwt>0</asrwt>
<pdfrwt beam="2">  1        2 0.99371340E+00 0.14915012E+02</pdfrwt>
<pdfrwt beam="1">  1       -2 0.98671212E+00 0.14915012E+02</pdfrwt>
<totfact> 0.30905900E-13</totfact>
</mgrwt>
</event>
<event>
 4    1 -0.5170493E-019  0.1499669E+02  0.7818608E-02  0.1868169E+00
         -2   -1    0    0    0  501 -0.00000000000E+00  0.00000000000E+00  0.11977069941E+03  0.11977069944E+03  0.25500000000E-02 0. -1.
          2   -1    0    0  501    0  0.00000000000E+00 -0.00000000000E+00 -0.46943685937E+00  0.46944378517E+00  0.25500000000E-02 0.  1.
         31    1    1    2    0    0 -0.39099885197E+00  0.65379284165E+00  0.56193232679E+02  0.56689669695E+02  0.74470750000E+01 0.  1.
        -31    1    1    2    0    0  0.39099885197E+00 -0.65379284165E+00  0.63108029871E+02  0.63550473527E+02  0.74470750000E+01 0. -1.
<mgrwt>
<rscale>  0 0.14996693E+02</rscale>
<asrwt>0</asrwt>
<pdfrwt beam="2">  1        2 0.99703103E+00 0.14996693E+02</pdfrwt>
<pdfrwt beam="1">  1       -2 0.99422963E+00 0.14996693E+02</pdfrwt>
<totfact>-0.86651964E-14</totfact>
</mgrwt>
</event>
<event>
 4    1 -0.5170493E-019  0.1500673E+02  0.7818608E-02  0.1867863E+00
         -2   -1    0    0    0  501 -0.00000000000E+00  0.00000000000E+00  0.11986956082E+03  0.11986956085E+03  0.25500000000E-02 0.  1.
          2   -1    0    0  501    0  0.00000000000E+00 -0.00000000000E+00 -0.46967800383E+00  0.46968492608E+00  0.25500000000E-02 0. -1.
         31    1    1    2    0    0  0.71019620396E+00  0.36986752085E+00  0.63289806235E+02  0.63731465384E+02  0.74470750000E+01 0. -1.
        -31    1    1    2    0    0 -0.71019620396E+00 -0.36986752085E+00  0.56110076583E+02  0.56607780391E+02  0.74470750000E+01 0. -1.
<mgrwt>
<rscale>  0 0.15006734E+02</rscale>
<asrwt>0</asrwt>
<pdfrwt beam="2">  1        2 0.99754440E+00 0.15006734E+02</pdfrwt>
<pdfrwt beam="1">  1       -2 0.99504908E+00 0.15006734E+02</pdfrwt>
<totfact>-0.76390240E-14</totfact>
</mgrwt>
</event>
<event>
 4    1 -0.5170493E-019  0.1494436E+02  0.7818608E-02  0.1869771E+00
          2   -1    0    0  501    0  0.00000000000E+00  0.00000000000E+00  0.11955200269E+03  0.11955200272E+03  0.25500000000E-02 0. -1.
         -2   -1    0    0    0  501 -0.00000000000E+00 -0.00000000000E+00 -0.46701922350E+00  0.46702618515E+00  0.25500000000E-02 0.  1.
         31    1    1    2    0    0 -0.58554926396E+00  0.11429931878E+00  0.58445891261E+02  0.58921448248E+02  0.74470750000E+01 0.  1.
        -31    1    1    2    0    0  0.58554926396E+00 -0.11429931878E+00  0.60639092209E+02  0.61097580658E+02  0.74470750000E+01 0. -1.
<mgrwt>
<rscale>  0 0.14944364E+02</rscale>
<asrwt>0</asrwt>
<pdfrwt beam="1">  1        2 0.99240130E+00 0.14944364E+02</pdfrwt>
<pdfrwt beam="2">  1       -2 0.99190921E+00 0.14944364E+02</pdfrwt>
<totfact>-0.93610041E-14</totfact>
</mgrwt>
</event>
<event>
 4    1  0.5170493E-019  0.1493476E+02  0.7818608E-02  0.1870066E+00
         -2   -1    0    0    0  501 -0.00000000000E+00  0.00000000000E+00  0.11858443573E+03  0.11858443576E+03  0.25500000000E-02 0.  1.
          2   -1    0    0  501    0  0.00000000000E+00 -0.00000000000E+00 -0.47022459457E+00  0.47023150877E+00  0.25500000000E-02 0. -1.
         31    1    1    2    0    0 -0.37777660352E+00  0.20467152856E+00  0.56316436277E+02  0.56808313886E+02  0.74470750000E+01 0. -1.
        -31    1    1    2    0    0  0.37777660352E+00 -0.20467152856E+00  0.61797774859E+02  0.62246353381E+02  0.74470750000E+01 0.  1.
<mgrwt>
<rscale>  0 0.14934756E+02</rscale>
<asrwt>0</asrwt>
<pdfrwt beam="2">  1        2 0.99865845E+00 0.14934756E+02</pdfrwt>
<pdfrwt beam="1">  1       -2 0.98442729E+00 0.14934756E+02</pdfrwt>
<totfact> 0.22443268E-13</totfact>
</mgrwt>
</event>
<event>
 4    1 -0.5170493E-019  0.1495862E+02  0.7818608E-02  0.1869334E+00
          2   -1    0    0  501    0  0.00000000000E+00  0.00000000000E+00  0.11968269417E+03  0.11968269419E+03  0.25500000000E-02 0.  1.
         -2   -1    0    0    0  501 -0.00000000000E+00 -0.00000000000E+00 -0.46739979120E+00  0.46740674718E+00  0.25500000000E-02 0. -1.
         31    1    1    2    0    0  0.32600873048E+00 -0.52907924246E+00  0.57132577981E+02  0.57619238101E+02  0.74470750000E+01 0.  1.
        -31    1    1    2    0    0 -0.32600873048E+00  0.52907924246E+00  0.62082716395E+02  0.62530862841E+02  0.74470750000E+01 0. -1.
<mgrwt>
<rscale>  0 0.14958621E+02</rscale>
<asrwt>0</asrwt>
<pdfrwt beam="1">  1        2 0.99348510E+00 0.14958621E+02</pdfrwt>
<pdfrwt beam="2">  1       -2 0.99271857E+00 0.14958621E+02</pdfrwt>
<totfact>-0.11137759E-13</totfact>
</mgrwt>
</event>
<event>
 4    1  0.5170493E-019  0.1490521E+02  0.7818608E-02  0.1870975E+00
          2   -1    0    0  501    0  0.00000000000E+00  0.00000000000E+00  0.12040992596E+03  0.12040992599E+03  0.25500000000E-02 0. -1.
         -2   -1    0    0    0  501 -0.00000000000E+00 -0.00000000000E+00 -0.46126535515E+00  0.46127240364E+00  0.25500000000E-02 0.  1.
         31    1    1    2    0    0  0.28142514699E-01  0.41992970303E-01  0.57682482871E+02  0.58161244068E+02  0.74470750000E+01 0.  1.
        -31    1    1    2    0    0 -0.28142514699E-01 -0.41992970303E-01  0.62266177735E+02  0.62709954323E+02  0.74470750000E+01 0. -1.
<mgrwt>
<rscale>  0 0.14905215E+02</rscale>
<asrwt>0</asrwt>
<pdfrwt beam="1">  1        2 0.99944764E+00 0.14905215E+02</pdfrwt>
<pdfrwt beam="2">  1       -2 0.97976247E+00 0.14905215E+02</pdfrwt>
<totfact> 0.26208517E-13</totfact>
</mgrwt>
</event>
<event>
 4    1 -0.5170493E-019  0.1491313E+02  0.7818608E-02  0.1870731E+00
         -2   -1    0    0    0  501 -0.00000000000E+00  0.00000000000E+00  0.11984094632E+03  0.11984094634E+03  0.25500000000E-02 0.  1.
          2   -1    0    0  501    0  0.00000000000E+00 -0.00000000000E+00 -0.46394771523E+00  0.46395472297E+00  0.25500000000E-02 0. -1.
         31    1    1    2    0    0 -0.26145206567E+00  0.19730713168E+00  0.61179115152E+02  0.61631569379E+02  0.74470750000E+01 0.  1.
        -31    1    1    2    0    0  0.26145206567E+00 -0.19730713168E+00  0.58197883449E+02  0.58673331687E+02  0.74470750000E+01 0.  1.
<mgrwt>
<rscale>  0 0.14913129E+02</rscale>
<asrwt>0</asrwt>
<pdfrwt beam="2">  1        2 0.98542009E+00 0.14913129E+02</pdfrwt>
<pdfrwt beam="1">  1       -2 0.99476510E+00 0.14913129E+02</pdfrwt>
<totfact>-0.32537191E-13</totfact>
</mgrwt>
</event>
<event>
 4    1  0.5170493E-019  0.1491123E+02  0.7818608E-02  0.1870789E+00
          2   -1    0    0  501    0  0.00000000000E+00  0.00000000000E+00  0.12038623097E+03  0.12038623099E+03  0.25500000000E-02 0.  1.
         -2   -1    0    0    0  501 -0.00000000000E+00 -0.00000000000E+00 -0.46172866870E+00  0.46173571012E+00  0.25500000000E-02 0. -1.
         31    1    1    2    0    0 -0.24508982337E+00 -0.25806187841E+00  0.59762044414E+02  0.60225306504E+02  0.74470750000E+01 0. -1.
        -31    1    1    2    0    0  0.24508982337E+00  0.25806187841E+00  0.60162457885E+02  0.60622660200E+02  0.74470750000E+01 0.  1.
<mgrwt>
<rscale>  0 0.14911231E+02</rscale>
<asrwt>0</asrwt>
<pdfrwt beam="1">  1        2 0.99925554E+00 0.14911231E+02</pdfrwt>
<pdfrwt beam="2">  1       -2 0.98074207E+00 0.14911231E+02</pdfrwt>
<totfact> 0.29222764E-13</totfact>
</mgrwt>
</event>
<event>
 4    1 -0.5170493E-019  0.1494777E+02  0.7818608E-02  0.1869667E+00
         -2   -1    0    0    0  501 -0.00000000000E+00  0.00000000000E+00  0.12000102646E+03  0.12000102649E+03  0.25500000000E-02 0. -1.
          2   -1    0    0  501    0  0.00000000000E+00 -0.00000000000E+00 -0.46548382429E+00  0.46549080891E+00  0.25500000000E-02 0.  1.
         31    1    1    2    0    0 -0.43424432250E-01 -0.58502732005E+00  0.57862493279E+02  0.58342704746E+02  0.74470750000E+01 0.  1.
        -31    1    1    2    0    0  0.43424432250E-01  0.58502732005E+00  0.61673049357E+02  0.62123812550E+02  0.74470750000E+01 0. -1.
<mgrwt>
<rscale>  0 0.14947770E+02</rscale>
<asrwt>0</asrwt>
<pdfrwt beam="2">  1        2 0.98867520E+00 0.14947770E+02</pdfrwt>
<pdfrwt beam="1">  1       -2 0.99610145E+00 0.14947770E+02</pdfrwt>
<totfact>-0.19067680E-13</totfact>
</mgrwt>
</event>
<event>
 4    1 -0.5170493E-019  0.1490464E+02  0.7818608E-02  0.1870993E+00
         -2   -1    0    0    0  501 -0.00000000000E+00  0.00000000000E+00  0.11997099761E+03  0.11997099764E+03  0.25500000000E-02 0.  1.
          2   -1    0    0  501    0  0.00000000000E+00 -0.00000000000E+00 -0.46291710659E+00  0.46292412993E+00  0.25500000000E-02 0. -1.
         31    1    1    2    0    0  0.56965571524E-01 -0.26205813994E+00  0.60390593722E+02  0.60848620820E+02  0.74470750000E+01 0.  1.
        -31    1    1    2    0    0 -0.56965571524E-01  0.26205813994E+00  0.59117486784E+02  0.59585300950E+02  0.74470750000E+01 0. -1.
<mgrwt>
<rscale>  0 0.14904637E+02</rscale>
<asrwt>0</asrwt>
<pdfrwt beam="2">  1        2 0.98324365E+00 0.14904637E+02</pdfrwt>
<pdfrwt beam="1">  1       -2 0.99583193E+00 0.14904637E+02</pdfrwt>
<totfact>-0.44346978E-13</totfact>
</mgrwt>
</event>
<event>
 4    1  0.5170493E-019  0.1491192E+02  0.7818608E-02  0.1870768E+00
          2   -1    0    0  501    0  0.00000000000E+00  0.00000000000E+00  0.11996573350E+03  0.11996573352E+03  0.25500000000E-02 0. -1.
         -2   -1    0    0    0  501 -0.00000000000E+00 -0.00000000000E+00 -0.46339022628E+00  0.46339724245E+00  0.25500000000E-02 0.  1.
         31    1    1    2    0    0 -0.15242895384E+00  0.29018887535E+00  0.58474181315E+02  0.58947402408E+02  0.74470750000E+01 0.  1.
        -31    1    1    2    0    0  0.15242895384E+00 -0.29018887535E+00  0.61028161956E+02  0.61481728359E+02  0.74470750000E+01 0. -1.
<mgrwt>
<rscale>  0 0.14911924E+02</rscale>
<asrwt>0</asrwt>
<pdfrwt beam="1">  1        2 0.99579231E+00 0.14911924E+02</pdfrwt>
<pdfrwt beam="2">  1       -2 0.98424451E+00 0.14911924E+02</pdfrwt>
<totfact> 0.54073959E-13</totfact>
</mgrwt>
</event>
<event>
 4    1 -0.5170493E-019  0.1490792E+02  0.7818608E-02  0.1870891E+00
          2   -1    0    0  501    0  0.00000000000E+00  0.00000000000E+00  0.11810275157E+03  0.11810275160E+03  0.25500000000E-02 0.  1.
         -2   -1    0    0    0  501 -0.00000000000E+00 -0.00000000000E+00 -0.47044722741E+00  0.47045413834E+00  0.25500000000E-02 0. -1.
         31    1    1    2    0    0 -0.38839154192E-01  0.20320496295E+00  0.60761098879E+02  0.61216116047E+02  0.74470750000E+01 0.  1.
        -31    1    1    2    0    0  0.38839154192E-01 -0.20320496295E+00  0.56871205464E+02  0.57357089690E+02  0.74470750000E+01 0. -1.
<mgrwt>
<rscale>  0 0.14907920E+02</rscale>
<asrwt>0</asrwt>
<pdfrwt beam="1">  1        2 0.98044623E+00 0.14907920E+02</pdfrwt>
<pdfrwt beam="2">  1       -2 0.99911330E+00 0.14907920E+02</pdfrwt>
<totfact>-0.21635237E-13</totfact>
</mgrwt>
</event>
<event>
 4    1  0.5170493E-019  0.1490625E+02  0.7818608E-02  0.1870943E+00
          2   -1    0    0  501    0  0.00000000000E+00  0.00000000000E+00  0.11927754223E+03  0.11927754225E+03  0.25500000000E-02 0.  1.
         -2   -1    0    0    0  501 -0.00000000000E+00 -0.00000000000E+00 -0.46570894469E+00  0.46571592593E+00  0.25500000000E-02 0. -1.
         31    1    1    2    0    0 -0.20956549977E+00  0.16276057067E+00  0.60533505646E+02  0.60990447125E+02  0.74470750000E+01 0. -1.
        -31    1    1    2    0    0  0.20956549977E+00 -0.16276057067E+00  0.58278327636E+02  0.58752811055E+02  0.74470750000E+01 0.  1.
<mgrwt>
<rscale>  0 0.14906245E+02</rscale>
<asrwt>0</asrwt>
<pdfrwt beam="1">  1        2 0.99012104E+00 0.14906245E+02</pdfrwt>
<pdfrwt beam="2">  1       -2 0.98912830E+00 0.14906245E+02</pdfrwt>
<totfact> 0.93838922E-14</totfact>
</mgrwt>
</event>
<event>
 4    1  0.5170493E-019  0.1492900E+02  0.7818608E-02  0.1870243E+00
         -2   -1    0    0    0  501 -0.00000000000E+00  0.00000000000E+00  0.11909759056E+03  0.11909759059E+03  0.25500000000E-02 0.  1.
          2   -1    0    0  501    0  0.00000000000E+00 -0.00000000000E+00 -0.46783754115E+00  0.46784449062E+00  0.25500000000E-02 0. -1.
         31    1    1    2    0    0 -0.11777998738E+00  0.17725075650E+00  0.63024364443E+02  0.63463176169E+02  0.74470750000E+01 0.  1.
        -31    1    1    2    0    0  0.11777998738E+00 -0.17725075650E+00  0.55605388574E+02  0.56102258907E+02  0.74470750000E+01 0. -1.
<mgrwt>
<rscale>  0 0.14928997E+02</rscale>
<asrwt>0</asrwt>
<pdfrwt beam="2">  1        2 0.99362567E+00 0.14928997E+02</pdfrwt>
<pdfrwt beam="1">  1       -2 0.98865067E+00 0.14928997E+02</pdfrwt>
<totfact> 0.11080099E-13</totfact>
</mgrwt>
</event>
<event>
 4    1  0.5170493E-019  0.1489693E+02  0.7818608E-02  0.1871230E+00
          2   -1    0    0  501    0  0.00000000000E+00  0.00000000000E+00  0.12036744246E+03  0.12036744249E+03  0.25500000000E-02 0.  1.
         -2   -1    0    0    0  501 -0.00000000000E+00 -0.00000000000E+00 -0.46091519366E+00  0.46092224751E+00  0.25500000000E-02 0. -1.
         31    1    1    2    0    0 -0.10072040324E+00  0.99927597456E-01  0.60144286342E+02  0.60603747704E+02  0.74470750000E+01 0.  1.
        -31    1    1    2    0    0  0.10072040324E+00 -0.99927597456E-01  0.59762240928E+02  0.60224617035E+02  0.74470750000E+01 0. -1.
<mgrwt>
<rscale>  0 0.14896927E+02</rscale>
<asrwt>0</asrwt>
<pdfrwt beam="1">  1        2 0.99909346E+00 0.14896927E+02</pdfrwt>
<pdfrwt beam="2">  1       -2 0.97902023E+00 0.14896927E+02</pdfrwt>
<totfact> 0.46620673E-13</totfact>
</mgrwt>
</event>
<event>
 4    1 -0.5170493E-019  0.1496461E+02  0.7818608E-02  0.1869150E+00
         -2   -1    0    0    0  501 -0.00000000000E+00  0.00000000000E+00  0.12013824623E+03  0.12013824626E+03  0.25500000000E-02 0. -1.
          2   -1    0    0  501    0  0.00000000000E+00 -0.00000000000E+00 -0.46600013934E+00  0.46600711622E+00  0.25500000000E-02 0.  1.
         31    1    1    2    0    0  0.72703525841E-03  0.41222201572E+00  0.64644819479E+02  0.65073662407E+02  0.74470750000E+01 0. -1.
        -31    1    1    2    0    0 -0.72703525841E-03 -0.41222201572E+00  0.55027426611E+02  0.55530590966E+02  0.74470750000E+01 0. -1.
<mgrwt>
<rscale>  0 0.14964606E+02</rscale>
<asrwt>0</asrwt>
<pdfrwt beam="2">  1        2 0.98977195E+00 0.14964606E+02</pdfrwt>
<pdfrwt beam="1">  1       -2 0.99724035E+00 0.14964606E+02</pdfrwt>
<totfact>-0.13829450E-13</totfact>
</mgrwt>
</event>
<event>
 4    1 -0.5170493E-019  0.1497018E+02  0.7818608E-02  0.1868980E+00
         -2   -1    0    0    0  501 -0.00000000000E+00  0.00000000000E+00  0.12025462655E+03  0.12025462657E+03  0.25500000000E-02 0.  1.
          2   -1    0    0  501    0  0.00000000000E+00 -0.00000000000E+00 -0.46589599613E+00  0.46590297457E+00  0.25500000000E-02 0. -1.
         31    1    1    2    0    0  0.51648934231E+00  0.25463675523E+00  0.63812246269E+02  0.64247905033E+02  0.74470750000E+01 0.  1.
        -31    1    1    2    0    0 -0.51648934231E+00 -0.25463675523E+00  0.55976484281E+02  0.56472624515E+02  0.74470750000E+01 0. -1.
<mgrwt>
<rscale>  0 0.14970180E+02</rscale>
<asrwt>0</asrwt>
<pdfrwt beam="2">  1        2 0.98955531E+00 0.14970180E+02</pdfrwt>
<pdfrwt beam="1">  1       -2 0.99820180E+00 0.14970180E+02</pdfrwt>
<totfact>-0.10167907E-13</totfact>
</mgrwt>
</event>
<event>
 4    1 -0.5170493E-019  0.1498954E+02  0.7818608E-02  0.1868388E+00
         -2   -1    0    0    0  501 -0.00000000000E+00  0.00000000000E+00  0.12003327196E+03  0.12003327199E+03  0.25500000000E-02 0.  1.
          2   -1    0    0  501    0  0.00000000000E+00 -0.00000000000E+00 -0.46796302402E+00  0.46796997164E+00  0.25500000000E-02 0. -1.
         31    1    1    2    0    0 -0.76509316250E+00  0.35612759042E+00  0.59615431780E+02  0.60084697110E+02  0.74470750000E+01 0. -1.
        -31    1    1    2    0    0  0.76509316250E+00 -0.35612759042E+00  0.59949877157E+02  0.60416544850E+02  0.74470750000E+01 0. -1.
<mgrwt>
<rscale>  0 0.14989537E+02</rscale>
<asrwt>0</asrwt>
<pdfrwt beam="2">  1        2 0.99392146E+00 0.14989537E+02</pdfrwt>
<pdfrwt beam="1">  1       -2 0.99638858E+00 0.14989537E+02</pdfrwt>
<totfact>-0.11748334E-13</totfact>
</mgrwt>
</event>
<event>
 4    1 -0.5170493E-019  0.1490233E+02  0.7818608E-02  0.1871064E+00
          2   -1    0    0  501    0  0.00000000000E+00  0.00000000000E+00  0.11826429866E+03  0.11826429869E+03  0.25500000000E-02 0.  1.
         -2   -1    0    0    0  501 -0.00000000000E+00 -0.00000000000E+00 -0.46945244468E+00  0.46945937025E+00  0.25500000000E-02 0. -1.
         31    1    1    2    0    0  0.22456983766E+00 -0.55697712467E-02  0.59713386665E+02  0.60176390185E+02  0.74470750000E+01 0.  1.
        -31    1    1    2    0    0 -0.22456983766E+00  0.55697712467E-02  0.58081459548E+02  0.58557367871E+02  0.74470750000E+01 0.  1.
<mgrwt>
<rscale>  0 0.14902332E+02</rscale>
<asrwt>0</asrwt>
<pdfrwt beam="1">  1        2 0.98177379E+00 0.14902332E+02</pdfrwt>
<pdfrwt beam="2">  1       -2 0.99701442E+00 0.14902332E+02</pdfrwt>
<totfact>-0.47565638E-13</totfact>
</mgrwt>
</event>
<event>
 4    1  0.5170493E-019  0.1490482E+02  0.7818608E-02  0.1870987E+00
         -2   -1    0    0    0  501 -0.00000000000E+00  0.00000000000E+00  0.11806162232E+03  0.11806162234E+03  0.25500000000E-02 0.  1.
          2   -1    0    0  501    0  0.00000000000E+00 -0.00000000000E+00 -0.47041549706E+00  0.47042240845E+00  0.25500000000E-02 0. -1.
         31    1    1    2    0    0  0.10531320797E+00  0.20176138010E+00  0.57471946055E+02  0.57952871439E+02  0.74470750000E+01 0. -1.
        -31    1    1    2    0    0 -0.10531320797E+00 -0.20176138010E+00  0.60119260763E+02  0.60579173313E+02  0.74470750000E+01 0.  1.
<mgrwt>
<rscale>  0 0.14904822E+02</rscale>
<asrwt>0</asrwt>
<pdfrwt beam="2">  1        2 0.99904480E+00 0.14904822E+02</pdfrwt>
<pdfrwt beam="1">  1       -2 0.98010588E+00 0.14904822E+02</pdfrwt>
<totfact> 0.40920170E-13</totfact>
</mgrwt>
</event>
<event>
 4    1 -0.5170493E-019  0.1493057E+02  0.7818608E-02  0.1870195E+00
         -2   -1    0    0    0  501 -0.00000000000E+00  0.00000000000E+00  0.11947565310E+03  0.11947565313E+03  0.25500000000E-02 0. -1.
          2   -1    0    0  501    0  0.00000000000E+00 -0.00000000000E+00 -0.46645521263E+00  0.46646218270E+00  0.25500000000E-02 0.  1.
         31    1    1    2    0    0 -0.11737460616E+00 -0.33497285508E+00  0.62569406398E+02  0.63012026842E+02  0.74470750000E+01 0. -1.
        -31    1    1    2    0    0  0.11737460616E+00  0.33497285508E+00  0.56439791492E+02  0.56930088471E+02  0.74470750000E+01 0. -1.
<mgrwt>
<rscale>  0 0.14930567E+02</rscale>
<asrwt>0</asrwt>
<pdfrwt beam="2">  1        2 0.99071351E+00 0.14930567E+02</pdfrwt>
<pdfrwt beam="1">  1       -2 0.99176533E+00 0.14930567E+02</pdfrwt>
<totfact>-0.10001635E-13</totfact>
</mgrwt>
</event>
<event>
 4    1 -0.5170493E-019  0.1502272E+02  0.7818608E-02  0.1867376E+00
         -2   -1    0    0    0  501 -0.00000000000E+00  0.00000000000E+00  0.12012787013E+03  0.12012787015E+03  0.25500000000E-02 0. -1.
          2   -1    0    0  501    0  0.00000000000E+00 -0.00000000000E+00 -0.46966735476E+00  0.46967427716E+00  0.25500000000E-02 0.  1.
         31    1    1    2    0    0  0.53858023453E+00  0.80424068872E+00  0.58565915957E+02  0.59045425815E+02  0.74470750000E+01 0.  1.
        -31    1    1    2    0    0 -0.53858023453E+00 -0.80424068872E+00  0.61092286814E+02  0.61552118614E+02  0.74470750000E+01 0. -1.
<mgrwt>
<rscale>  0 0.15022724E+02</rscale>
<asrwt>0</asrwt>
<pdfrwt beam="2">  1        2 0.99753024E+00 0.15022724E+02</pdfrwt>
<pdfrwt beam="1">  1       -2 0.99718488E+00 0.15022724E+02</pdfrwt>
<totfact>-0.58991699E-14</totfact>
</mgrwt>
</event>
<event>
 4    1 -0.5170493E-019  0.1497596E+02  0.7818608E-02  0.1868803E+00
         -2   -1    0    0    0  501 -0.00000000000E+00  0.00000000000E+00  0.11970377034E+03  0.11970377037E+03  0.25500000000E-02 0.  1.
          2   -1    0    0  501    0  0.00000000000E+00 -0.00000000000E+00 -0.46840129797E+00  0.46840823908E+00  0.25500000000E-02 0. -1.
         31    1    1    2    0    0 -0.32873703730E+00  0.42363712828E+00  0.55054680173E+02  0.55558656134E+02  0.74470750000E+01 0. -1.
        -31    1    1    2    0    0  0.32873703730E+00 -0.42363712828E+00  0.64180688869E+02  0.64613522472E+02  0.74470750000E+01 0.  1.
<mgrwt>
<rscale>  0 0.14975957E+02</rscale>
<asrwt>0</asrwt>
<pdfrwt beam="2">  1        2 0.99483804E+00 0.14975957E+02</pdfrwt>
<pdfrwt beam="1">  1       -2 0.99366765E+00 0.14975957E+02</pdfrwt>
<totfact>-0.11541398E-13</totfact>
</mgrwt>
</event>
<event>
 4    1 -0.5170493E-019  0.1496505E+02  0.7818608E-02  0.1869137E+00
          2   -1    0    0  501    0  0.00000000000E+00  0.00000000000E+00  0.11984063883E+03  0.11984063886E+03  0.25500000000E-02 0. -1.
         -2   -1    0    0    0  501 -0.00000000000E+00 -0.00000000000E+00 -0.46718539162E+00  0.46719235079E+00  0.25500000000E-02 0.  1.
         31    1    1    2    0    0 -0.26754846222E+00  0.61105142402E+00  0.57352241738E+02  0.57837561536E+02  0.74470750000E+01 0.  1.
        -31    1    1    2    0    0  0.26754846222E+00 -0.61105142402E+00  0.62021211703E+02  0.62470269674E+02  0.74470750000E+01 0. -1.
<mgrwt>
<rscale>  0 0.14965055E+02</rscale>
<asrwt>0</asrwt>
<pdfrwt beam="1">  1        2 0.99478932E+00 0.14965055E+02</pdfrwt>
<pdfrwt beam="2">  1       -2 0.99227006E+00 0.14965055E+02</pdfrwt>
<totfact>-0.88473902E-14</totfact>
</mgrwt>
</event>
<event>
 4    1 -0.5170493E-019  0.1495130E+02  0.7818608E-02  0.1869558E+00
         -2   -1    0    0    0  501 -0.00000000000E+00  0.00000000000E+00  0.11973112113E+03  0.11973112115E+03  0.25500000000E-02 0. -1.
          2   -1    0    0  501    0  0.00000000000E+00 -0.00000000000E+00 -0.46675351398E+00  0.46676047960E+00  0.25500000000E-02 0.  1.
         31    1    1    2    0    0 -0.43154507124E-01  0.48070992322E+00  0.56096070059E+02  0.56590290213E+02  0.74470750000E+01 0. -1.
        -31    1    1    2    0    0  0.43154507124E-01 -0.48070992322E+00  0.63168297554E+02  0.63607591421E+02  0.74470750000E+01 0. -1.
<mgrwt>
<rscale>  0 0.14951300E+02</rscale>
<asrwt>0</asrwt>
<pdfrwt beam="2">  1        2 0.99135284E+00 0.14951300E+02</pdfrwt>
<pdfrwt beam="1">  1       -2 0.99388018E+00 0.14951300E+02</pdfrwt>
<totfact>-0.15418022E-13</totfact>
</mgrwt>
</event>
<event>
 4    1 -0.5170493E-019  0.1499981E+02  0.7818608E-02  0.1868074E+00
         -2   -1    0    0    0  501 -0.00000000000E+00  0.00000000000E+00  0.12039143818E+03  0.12039143821E+03  0.25500000000E-02 0.  1.
          2   -1    0    0  501    0  0.00000000000E+00 -0.00000000000E+00 -0.46721084482E+00  0.46721780361E+00  0.25500000000E-02 0. -1.
         31    1    1    2    0    0 -0.44407562631E+00 -0.10840377328E+00  0.66102248676E+02  0.66521990054E+02  0.74470750000E+01 0.  1.
        -31    1    1    2    0    0  0.44407562631E+00  0.10840377328E+00  0.53821978660E+02  0.54336665959E+02  0.74470750000E+01 0. -1.
<mgrwt>
<rscale>  0 0.14999814E+02</rscale>
<asrwt>0</asrwt>
<pdfrwt beam="2">  1        2 0.99234155E+00 0.14999814E+02</pdfrwt>
<pdfrwt beam="1">  1       -2 0.99934393E+00 0.14999814E+02</pdfrwt>
<totfact>-0.32392755E-14</totfact>
</mgrwt>
</event>
<event>
 4    1 -0.5170493E-019  0.1490840E+02  0.7818608E-02  0.1870877E+00
         -2   -1    0    0    0  501 -0.00000000000E+00  0.00000000000E+00  0.12011324539E+03  0.12011324542E+03  0.25500000000E-02 0.  1.
          2   -1    0    0  501    0  0.00000000000E+00 -0.00000000000E+00 -0.46260229290E+00  0.46260932103E+00  0.25500000000E-02 0. -1.
         31    1    1    2    0    0 -0.16063743820E+00 -0.24307511907E+00  0.61004921299E+02  0.61458475727E+02  0.74470750000E+01 0.  1.
        -31    1    1    2    0    0  0.16063743820E+00  0.24307511907E+00  0.58645721800E+02  0.59117379013E+02  0.74470750000E+01 0. -1.
<mgrwt>
<rscale>  0 0.14908399E+02</rscale>
<asrwt>0</asrwt>
<pdfrwt beam="2">  1        2 0.98258203E+00 0.14908399E+02</pdfrwt>
<pdfrwt beam="1">  1       -2 0.99700553E+00 0.14908399E+02</pdfrwt>
<totfact>-0.41575256E-13</totfact>
</mgrwt>
</event>
<event>
 4    1 -0.5170493E-019  0.1491262E+02  0.7818608E-02  0.1870747E+00
         -2   -1    0    0    0  501 -0.00000000000E+00  0.00000000000E+00  0.11973317019E+03  0.11973317021E+03  0.25500000000E-02 0.  1.
          2   -1    0    0  501    0  0.00000000000E+00 -0.00000000000E+00 -0.46433389343E+00  0.46434089535E+00  0.25500000000E-02 0. -1.
         31    1    1    2    0    0 -0.61529500257E-01  0.36172031746E+00  0.60078676246E+02  0.60539581209E+02  0.74470750000E+01 0.  1.
        -31    1    1    2    0    0  0.61529500257E-01 -0.36172031746E+00  0.59190160047E+02  0.59657929900E+02  0.74470750000E+01 0. -1.
<mgrwt>
<rscale>  0 0.14912624E+02</rscale>
<asrwt>0</asrwt>
<pdfrwt beam="2">  1        2 0.98623372E+00 0.14912624E+02</pdfrwt>
<pdfrwt beam="1">  1       -2 0.99387712E+00 0.14912624E+02</pdfrwt>
<totfact>-0.27743020E-13</totfact>
</mgrwt>
</event>
<event>
 4    1 -0.5170493E-019  0.1492997E+02  0.7818608E-02  0.1870213E+00
          2   -1    0    0  501    0  0.00000000000E+00  0.00000000000E+00  0.11928811302E+03  0.11928811305E+03  0.25500000000E-02 0.  1.
         -2   -1    0    0    0  501 -0.00000000000E+00 -0.00000000000E+00 -0.46715125376E+00  0.46715821345E+00  0.25500000000E-02 0. -1.
         31    1    1    2    0    0 -0.18411838820E-01  0.31688848611E+00  0.56139210317E+02  0.56631886940E+02  0.74470750000E+01 0. -1.
        -31    1    1    2    0    0  0.18411838820E-01 -0.31688848611E+00  0.62681751453E+02  0.63123384324E+02  0.74470750000E+01 0.  1.
<mgrwt>
<rscale>  0 0.14929971E+02</rscale>
<asrwt>0</asrwt>
<pdfrwt beam="1">  1        2 0.99022037E+00 0.14929971E+02</pdfrwt>
<pdfrwt beam="2">  1       -2 0.99218000E+00 0.14929971E+02</pdfrwt>
<totfact>-0.12338343E-13</totfact>
</mgrwt>
</event>
<event>
 4    1  0.5170493E-019  0.1492075E+02  0.7818608E-02  0.1870497E+00
          2   -1    0    0  501    0  0.00000000000E+00  0.00000000000E+00  0.11959860974E+03  0.11959860977E+03  0.25500000000E-02 0. -1.
         -2   -1    0    0    0  501 -0.00000000000E+00 -0.00000000000E+00 -0.46536295624E+00  0.46536994267E+00  0.25500000000E-02 0.  1.
         31    1    1    2    0    0 -0.43152746458E+00 -0.19081875123E-01  0.60436178654E+02  0.60894804346E+02  0.74470750000E+01 0. -1.
        -31    1    1    2    0    0  0.43152746458E+00  0.19081875123E-01  0.58697068133E+02  0.59169175366E+02  0.74470750000E+01 0.  1.
<mgrwt>
<rscale>  0 0.14920748E+02</rscale>
<asrwt>0</asrwt>
<pdfrwt beam="1">  1        2 0.99277299E+00 0.14920748E+02</pdfrwt>
<pdfrwt beam="2">  1       -2 0.98840663E+00 0.14920748E+02</pdfrwt>
<totfact> 0.14089622E-13</totfact>
</mgrwt>
</event>
<event>
 4    1  0.5170493E-019  0.1490191E+02  0.7818608E-02  0.1871077E+00
         -2   -1    0    0    0  501 -0.00000000000E+00  0.00000000000E+00  0.11823188803E+03  0.11823188806E+03  0.25500000000E-02 0.  1.
          2   -1    0    0  501    0  0.00000000000E+00 -0.00000000000E+00 -0.46955466756E+00  0.46956159162E+00  0.25500000000E-02 0. -1.
         31    1    1    2    0    0 -0.42050281515E-01 -0.16503355545E-01  0.60762459784E+02  0.61217133923E+02  0.74470750000E+01 0.  1.
        -31    1    1    2    0    0  0.42050281515E-01  0.16503355545E-01  0.56999873583E+02  0.57484315731E+02  0.74470750000E+01 0. -1.
<mgrwt>
<rscale>  0 0.14901912E+02</rscale>
<asrwt>0</asrwt>
<pdfrwt beam="2">  1        2 0.99722957E+00 0.14901912E+02</pdfrwt>
<pdfrwt beam="1">  1       -2 0.98150664E+00 0.14901912E+02</pdfrwt>
<totfact> 0.75513289E-13</totfact>
</mgrwt>
</event>
<event>
 4    1  0.5170493E-019  0.1490083E+02  0.7818608E-02  0.1871110E+00
          2   -1    0    0  501    0  0.00000000000E+00  0.00000000000E+00  0.11980587182E+03  0.11980587184E+03  0.25500000000E-02 0. -1.
         -2   -1    0    0    0  501 -0.00000000000E+00 -0.00000000000E+00 -0.46331812147E+00  0.46332513874E+00  0.25500000000E-02 0.  1.
         31    1    1    2    0    0 -0.16863046713E+00  0.14592022871E+00  0.59668983572E+02  0.60132322885E+02  0.74470750000E+01 0.  1.
        -31    1    1    2    0    0  0.16863046713E+00 -0.14592022871E+00  0.59673570124E+02  0.60136874098E+02  0.74470750000E+01 0.  1.
<mgrwt>
<rscale>  0 0.14900826E+02</rscale>
<asrwt>0</asrwt>
<pdfrwt beam="1">  1        2 0.99446987E+00 0.14900826E+02</pdfrwt>
<pdfrwt beam="2">  1       -2 0.98408690E+00 0.14900826E+02</pdfrwt>
<totfact> 0.64984625E-13</totfact>
</mgrwt>
</event>
<event>
 4    1  0.5170493E-019  0.1491306E+02  0.7818608E-02  0.1870733E+00
         -2   -1    0    0    0  501 -0.00000000000E+00  0.00000000000E+00  0.11844576426E+03  0.11844576429E+03  0.25500000000E-02 0.  1.
          2   -1    0    0  501    0  0.00000000000E+00 -0.00000000000E+00 -0.46940855537E+00  0.46941548159E+00  0.25500000000E-02 0. -1.
         31    1    1    2    0    0 -0.35136236076E+00  0.64741876777E-02  0.60041367676E+02  0.60502464874E+02  0.74470750000E+01 0. -1.
        -31    1    1    2    0    0  0.35136236076E+00 -0.64741876777E-02  0.57934988030E+02  0.58412714896E+02  0.74470750000E+01 0. -1.
<mgrwt>
<rscale>  0 0.14913064E+02</rscale>
<asrwt>0</asrwt>
<pdfrwt beam="2">  1        2 0.99692761E+00 0.14913064E+02</pdfrwt>
<pdfrwt beam="1">  1       -2 0.98327391E+00 0.14913064E+02</pdfrwt>
<totfact> 0.56197033E-13</totfact>
</mgrwt>
</event>
<event>
 4    1 -0.5170493E-019  0.1495265E+02  0.7818608E-02  0.1869517E+00
         -2   -1    0    0    0  501 -0.00000000000E+00  0.00000000000E+00  0.12023531300E+03  0.12023531303E+03  0.25500000000E-02 0. -1.
          2   -1    0    0  501    0  0.00000000000E+00 -0.00000000000E+00 -0.46488041673E+00  0.46488741041E+00  0.25500000000E-02 0.  1.
         31    1    1    2    0    0 -0.12152254867E+00  0.42704040319E+00  0.55935555661E+02  0.56430864289E+02  0.74470750000E+01 0. -1.
        -31    1    1    2    0    0  0.12152254867E+00 -0.42704040319E+00  0.63834876925E+02  0.64269336151E+02  0.74470750000E+01 0. -1.
<mgrwt>
<rscale>  0 0.14952654E+02</rscale>
<asrwt>0</asrwt>
<pdfrwt beam="2">  1        2 0.98740597E+00 0.14952654E+02</pdfrwt>
<pdfrwt beam="1">  1       -2 0.99803371E+00 0.14952654E+02</pdfrwt>
<totfact>-0.14154229E-13</totfact>
</mgrwt>
</event>
<event>
 4    1 -0.5170493E-019  0.1492018E+02  0.7818608E-02  0.1870514E+00
         -2   -1    0    0    0  501 -0.00000000000E+00  0.00000000000E+00  0.11956393251E+03  0.11956393254E+03  0.25500000000E-02 0. -1.
          2   -1    0    0  501    0  0.00000000000E+00 -0.00000000000E+00 -0.46546273691E+00  0.46546972184E+00  0.25500000000E-02 0.  1.
         31    1    1    2    0    0  0.11925366941E+00 -0.24798962508E+00  0.62316561480E+02  0.62760564697E+02  0.74470750000E+01 0. -1.
        -31    1    1    2    0    0 -0.11925366941E+00  0.24798962508E+00  0.56781908295E+02  0.57268837564E+02  0.74470750000E+01 0.  1.
<mgrwt>
<rscale>  0 0.14920184E+02</rscale>
<asrwt>0</asrwt>
<pdfrwt beam="2">  1        2 0.98861662E+00 0.14920184E+02</pdfrwt>
<pdfrwt beam="1">  1       -2 0.99248708E+00 0.14920184E+02</pdfrwt>
<totfact>-0.16019049E-13</totfact>
</mgrwt>
</event>
<event>
 4    1 -0.5170493E-019  0.1491698E+02  0.7818608E-02  0.1870612E+00
         -2   -1    0    0    0  501 -0.00000000000E+00  0.00000000000E+00  0.11970354457E+03  0.11970354460E+03  0.25500000000E-02 0. -1.
          2   -1    0    0  501    0  0.00000000000E+00 -0.00000000000E+00 -0.46472043987E+00  0.46472743596E+00  0.25500000000E-02 0.  1.
         31    1    1    2    0    0 -0.14886474342E+00  0.21657300936E+00  0.62181046112E+02  0.62625956969E+02  0.74470750000E+01 0. -1.
        -31    1    1    2    0    0  0.14886474342E+00 -0.21657300936E+00  0.57057778023E+02  0.57542315069E+02  0.74470750000E+01 0.  1.
<mgrwt>
<rscale>  0 0.14916984E+02</rscale>
<asrwt>0</asrwt>
<pdfrwt beam="2">  1        2 0.98705061E+00 0.14916984E+02</pdfrwt>
<pdfrwt beam="1">  1       -2 0.99363535E+00 0.14916984E+02</pdfrwt>
<totfact>-0.24077200E-13</totfact>
</mgrwt>
</event>
<event>
 4    1 -0.5170493E-019  0.1493307E+02  0.7818608E-02  0.1870118E+00
          2   -1    0    0  501    0  0.00000000000E+00  0.00000000000E+00  0.11887234675E+03  0.11887234678E+03  0.25500000000E-02 0.  1.
         -2   -1    0    0    0  501 -0.00000000000E+00 -0.00000000000E+00 -0.46897958002E+00  0.46898651257E+00  0.25500000000E-02 0. -1.
         31    1    1    2    0    0  0.97689438576E-01  0.42547623009E+00  0.61724081077E+02  0.62173239293E+02  0.74470750000E+01 0.  1.
        -31    1    1    2    0    0 -0.97689438576E-01 -0.42547623009E+00  0.56679286093E+02  0.57168093997E+02  0.74470750000E+01 0.  1.
<mgrwt>
<rscale>  0 0.14933066E+02</rscale>
<asrwt>0</asrwt>
<pdfrwt beam="1">  1        2 0.98679764E+00 0.14933066E+02</pdfrwt>
<pdfrwt beam="2">  1       -2 0.99603426E+00 0.14933066E+02</pdfrwt>
<totfact>-0.24592890E-13</totfact>
</mgrwt>
</event>
<event>
 4    1  0.5170493E-019  0.1490139E+02  0.7818608E-02  0.1871093E+00
         -2   -1    0    0    0  501 -0.00000000000E+00  0.00000000000E+00  0.11826177504E+03  0.11826177506E+03  0.25500000000E-02 0. -1.
          2   -1    0    0  501    0  0.00000000000E+00 -0.00000000000E+00 -0.46940323425E+00  0.46941016055E+00  0.25500000000E-02 0.  1.
         31    1    1    2    0    0 -0.23064667733E+00 -0.10845595773E-01  0.58696047682E+02  0.59167036896E+02  0.74470750000E+01 0. -1.
        -31    1    1    2    0    0  0.23064667733E+00  0.10845595773E-01  0.59096324121E+02  0.59564148329E+02  0.74470750000E+01 0. -1.
<mgrwt>
<rscale>  0 0.14901392E+02</rscale>
<asrwt>0</asrwt>
<pdfrwt beam="2">  1        2 0.99691023E+00 0.14901392E+02</pdfrwt>
<pdfrwt beam="1">  1       -2 0.98175251E+00 0.14901392E+02</pdfrwt>
<totfact> 0.77584602E-13</totfact>
</mgrwt>
</event>
<event>
 4    1 -0.5170493E-019  0.1493918E+02  0.7818608E-02  0.1869930E+00
         -2   -1    0    0    0  501 -0.00000000000E+00  0.00000000000E+00  0.11972124475E+03  0.11972124478E+03  0.25500000000E-02 0. -1.
          2   -1    0    0  501    0  0.00000000000E+00 -0.00000000000E+00 -0.46603578536E+00  0.46604276170E+00  0.25500000000E-02 0.  1.
         31    1    1    2    0    0 -0.52794139874E+00 -0.23861255875E+00  0.59747219733E+02  0.60212331378E+02  0.74470750000E+01 0.  1.
        -31    1    1    2    0    0  0.52794139874E+00  0.23861255875E+00  0.59507989236E+02  0.59974956165E+02  0.74470750000E+01 0. -1.
<mgrwt>
<rscale>  0 0.14939184E+02</rscale>
<asrwt>0</asrwt>
<pdfrwt beam="2">  1        2 0.98983405E+00 0.14939184E+02</pdfrwt>
<pdfrwt beam="1">  1       -2 0.99379258E+00 0.14939184E+02</pdfrwt>
<totfact>-0.17478426E-13</totfact>
</mgrwt>
</event>
<event>
 4    1  0.5170493E-019  0.1492297E+02  0.7818608E-02  0.1870428E+00
         -2   -1    0    0    0  501 -0.00000000000E+00  0.00000000000E+00  0.11899681556E+03  0.11899681559E+03  0.25500000000E-02 0. -1.
          2   -1    0    0  501    0  0.00000000000E+00 -0.00000000000E+00 -0.46785581114E+00  0.46786276035E+00  0.25500000000E-02 0.  1.
         31    1    1    2    0    0 -0.36709843079E+00 -0.24152036035E+00  0.60445082628E+02  0.60903694742E+02  0.74470750000E+01 0. -1.
        -31    1    1    2    0    0  0.36709843079E+00  0.24152036035E+00  0.58083877120E+02  0.58560983605E+02  0.74470750000E+01 0.  1.
<mgrwt>
<rscale>  0 0.14922971E+02</rscale>
<asrwt>0</asrwt>
<pdfrwt beam="2">  1        2 0.99366103E+00 0.14922971E+02</pdfrwt>
<pdfrwt beam="1">  1       -2 0.98781755E+00 0.14922971E+02</pdfrwt>
<totfact> 0.18817369E-13</totfact>
</mgrwt>
</event>
<event>
 4    1  0.5170493E-019  0.1495203E+02  0.7818608E-02  0.1869536E+00
          2   -1    0    0  501    0  0.00000000000E+00  0.00000000000E+00  0.12027752167E+03  0.12027752170E+03  0.25500000000E-02 0. -1.
         -2   -1    0    0    0  501 -0.00000000000E+00 -0.00000000000E+00 -0.46467826910E+00  0.46468526583E+00  0.25500000000E-02 0.  1.
         31    1    1    2    0    0  0.57827039146E+00  0.31057653831E+00  0.59651808896E+02  0.60118450454E+02  0.74470750000E+01 0. -1.
        -31    1    1    2    0    0 -0.57827039146E+00 -0.31057653831E+00  0.60161034510E+02  0.60623756514E+02  0.74470750000E+01 0. -1.
<mgrwt>
<rscale>  0 0.14952027E+02</rscale>
<asrwt>0</asrwt>
<pdfrwt beam="1">  1        2 0.99838105E+00 0.14952027E+02</pdfrwt>
<pdfrwt beam="2">  1       -2 0.98697960E+00 0.14952027E+02</pdfrwt>
<totfact> 0.11494900E-13</totfact>
</mgrwt>
</event>
<event>
 4    1 -0.5170493E-019  0.1491206E+02  0.7818608E-02  0.1870764E+00
         -2   -1    0    0    0  501 -0.00000000000E+00  0.00000000000E+00  0.11947267295E+03  0.11947267298E+03  0.25500000000E-02 0.  1.
          2   -1    0    0  501    0  0.00000000000E+00 -0.00000000000E+00 -0.46531102950E+00  0.46531801671E+00  0.25500000000E-02 0. -1.
         31    1    1    2    0    0 -0.14027792468E+00 -0.13388684943E+00  0.61993687011E+02  0.62439680964E+02  0.74470750000E+01 0.  1.
        -31    1    1    2    0    0  0.14027792468E+00  0.13388684943E+00  0.57013674912E+02  0.57498310033E+02  0.74470750000E+01 0. -1.
<mgrwt>
<rscale>  0 0.14912059E+02</rscale>
<asrwt>0</asrwt>
<pdfrwt beam="2">  1        2 0.98829273E+00 0.14912059E+02</pdfrwt>
<pdfrwt beam="1">  1       -2 0.99173123E+00 0.14912059E+02</pdfrwt>
<totfact>-0.12648893E-13</totfact>
</mgrwt>
</event>
<event>
 4    1 -0.5170493E-019  0.1493996E+02  0.7818608E-02  0.1869906E+00
         -2   -1    0    0    0  501 -0.00000000000E+00  0.00000000000E+00  0.11959180009E+03  0.11959180012E+03  0.25500000000E-02 0.  1.
          2   -1    0    0  501    0  0.00000000000E+00 -0.00000000000E+00 -0.46658845432E+00  0.46659542240E+00  0.25500000000E-02 0. -1.
         31    1    1    2    0    0  0.37992479456E-01 -0.22455881173E+00  0.55236719391E+02  0.55736935377E+02  0.74470750000E+01 0. -1.
        -31    1    1    2    0    0 -0.37992479456E-01  0.22455881173E+00  0.63888492247E+02  0.64321460165E+02  0.74470750000E+01 0.  1.
<mgrwt>
<rscale>  0 0.14939956E+02</rscale>
<asrwt>0</asrwt>
<pdfrwt beam="2">  1        2 0.99099915E+00 0.14939956E+02</pdfrwt>
<pdfrwt beam="1">  1       -2 0.99272681E+00 0.14939956E+02</pdfrwt>
<totfact>-0.13422281E-13</totfact>
</mgrwt>
</event>
<event>
 4    1  0.5170493E-019  0.1490628E+02  0.7818608E-02  0.1870942E+00
         -2   -1    0    0    0  501 -0.00000000000E+00  0.00000000000E+00  0.11856410624E+03  0.11856410626E+03  0.25500000000E-02 0. -1.
          2   -1    0    0  501    0  0.00000000000E+00 -0.00000000000E+00 -0.46851353166E+00  0.46852047111E+00  0.25500000000E-02 0.  1.
         31    1    1    2    0    0  0.11714820503E-01  0.19949179529E+00  0.60841270315E+02  0.61295668965E+02  0.74470750000E+01 0. -1.
        -31    1    1    2    0    0 -0.11714820503E-01 -0.19949179529E+00  0.57254322388E+02  0.57736957769E+02  0.74470750000E+01 0.  1.
<mgrwt>
<rscale>  0 0.14906281E+02</rscale>
<asrwt>0</asrwt>
<pdfrwt beam="2">  1        2 0.99503820E+00 0.14906281E+02</pdfrwt>
<pdfrwt beam="1">  1       -2 0.98424504E+00 0.14906281E+02</pdfrwt>
<totfact> 0.59117217E-13</totfact>
</mgrwt>
</event>
<event>
 4    1  0.5170493E-019  0.1495107E+02  0.7818608E-02  0.1869565E+00
          2   -1    0    0  501    0  0.00000000000E+00  0.00000000000E+00  0.12021699388E+03  0.12021699391E+03  0.25500000000E-02 0.  1.
         -2   -1    0    0    0  501 -0.00000000000E+00 -0.00000000000E+00 -0.46485250612E+00  0.46485950022E+00  0.25500000000E-02 0. -1.
         31    1    1    2    0    0 -0.26751105057E+00 -0.50443881876E+00  0.57340863091E+02  0.57825249906E+02  0.74470750000E+01 0. -1.
        -31    1    1    2    0    0  0.26751105057E+00  0.50443881876E+00  0.62411278287E+02  0.62856603505E+02  0.74470750000E+01 0.  1.
<mgrwt>
<rscale>  0 0.14951066E+02</rscale>
<asrwt>0</asrwt>
<pdfrwt beam="1">  1        2 0.99788200E+00 0.14951066E+02</pdfrwt>
<pdfrwt beam="2">  1       -2 0.98734634E+00 0.14951066E+02</pdfrwt>
<totfact> 0.12127534E-13</totfact>
</mgrwt>
</event>
<event>
 4    1 -0.5170493E-019  0.1499758E+02  0.7818608E-02  0.1868142E+00
          2   -1    0    0  501    0  0.00000000000E+00  0.00000000000E+00  0.11968581544E+03  0.11968581547E+03  0.25500000000E-02 0. -1.
         -2   -1    0    0    0  501 -0.00000000000E+00 -0.00000000000E+00 -0.46982527614E+00  0.46983219622E+00  0.25500000000E-02 0.  1.
         31    1    1    2    0    0  0.18505684876E+00  0.59706987116E+00  0.54655161916E+02  0.55163723484E+02  0.74470750000E+01 0. -1.
        -31    1    1    2    0    0 -0.18505684876E+00 -0.59706987116E+00  0.64560828246E+02  0.64991924178E+02  0.74470750000E+01 0. -1.
<mgrwt>
<rscale>  0 0.14997578E+02</rscale>
<asrwt>0</asrwt>
<pdfrwt beam="1">  1        2 0.99353096E+00 0.14997578E+02</pdfrwt>
<pdfrwt beam="2">  1       -2 0.99784998E+00 0.14997578E+02</pdfrwt>
<totfact>-0.85306977E-14</totfact>
</mgrwt>
</event>
<event>
 4    1 -0.5170493E-019  0.1494576E+02  0.7818608E-02  0.1869728E+00
         -2   -1    0    0    0  501 -0.00000000000E+00  0.00000000000E+00  0.12006982456E+03  0.12006982458E+03  0.25500000000E-02 0.  1.
          2   -1    0    0  501    0  0.00000000000E+00 -0.00000000000E+00 -0.46509183050E+00  0.46509882100E+00  0.25500000000E-02 0. -1.
         31    1    1    2    0    0 -0.98890700943E-01  0.61188627563E+00  0.59573237058E+02  0.60040100631E+02  0.74470750000E+01 0.  1.
        -31    1    1    2    0    0  0.98890700943E-01 -0.61188627563E+00  0.60031495669E+02  0.60494822774E+02  0.74470750000E+01 0. -1.
<mgrwt>
<rscale>  0 0.14945758E+02</rscale>
<asrwt>0</asrwt>
<pdfrwt beam="2">  1        2 0.98784803E+00 0.14945758E+02</pdfrwt>
<pdfrwt beam="1">  1       -2 0.99666708E+00 0.14945758E+02</pdfrwt>
<totfact>-0.19456256E-13</totfact>
</mgrwt>
</event>
<event>
 4    1 -0.5170493E-019  0.1498411E+02  0.7818608E-02  0.1868554E+00
         -2   -1    0    0    0  501 -0.00000000000E+00  0.00000000000E+00  0.12027508568E+03  0.12027508571E+03  0.25500000000E-02 0. -1.
          2   -1    0    0  501    0  0.00000000000E+00 -0.00000000000E+00 -0.46668419100E+00  0.46669115765E+00  0.25500000000E-02 0.  1.
         31    1    1    2    0    0  0.78726010515E-01  0.33069703597E+00  0.65914934474E+02  0.66335157127E+02  0.74470750000E+01 0. -1.
        -31    1    1    2    0    0 -0.78726010515E-01 -0.33069703597E+00  0.53893467016E+02  0.54406619738E+02  0.74470750000E+01 0.  1.
<mgrwt>
<rscale>  0 0.14984112E+02</rscale>
<asrwt>0</asrwt>
<pdfrwt beam="2">  1        2 0.99122358E+00 0.14984112E+02</pdfrwt>
<pdfrwt beam="1">  1       -2 0.99837749E+00 0.14984112E+02</pdfrwt>
<totfact>-0.80252464E-14</totfact>
</mgrwt>
</event>
<event>
 4    1 -0.5170493E-019  0.1492709E+02  0.7818608E-02  0.1870302E+00
         -2   -1    0    0    0  501 -0.00000000000E+00  0.00000000000E+00  0.11979716855E+03  0.11979716858E+03  0.25500000000E-02 0.  1.
          2   -1    0    0  501    0  0.00000000000E+00 -0.00000000000E+00 -0.46498664657E+00  0.46499363865E+00  0.25500000000E-02 0. -1.
         31    1    1    2    0    0  0.33090585440E-01  0.45212003699E+00  0.61278871665E+02  0.61731390281E+02  0.74470750000E+01 0.  1.
        -31    1    1    2    0    0 -0.33090585440E-01 -0.45212003699E+00  0.58053310243E+02  0.58530771939E+02  0.74470750000E+01 0.  1.
<mgrwt>
<rscale>  0 0.14927090E+02</rscale>
<asrwt>0</asrwt>
<pdfrwt beam="2">  1        2 0.98761681E+00 0.14927090E+02</pdfrwt>
<pdfrwt beam="1">  1       -2 0.99441170E+00 0.14927090E+02</pdfrwt>
<totfact>-0.23417152E-13</totfact>
</mgrwt>
</event>
<event>
 4    1 -0.5170493E-019  0.1495318E+02  0.7818608E-02  0.1869501E+00
          2   -1    0    0  501    0  0.00000000000E+00  0.00000000000E+00  0.11928575541E+03  0.11928575544E+03  0.25500000000E-02 0.  1.
         -2   -1    0    0    0  501 -0.00000000000E+00 -0.00000000000E+00 -0.46861374859E+00  0.46862068655E+00  0.25500000000E-02 0. -1.
         31    1    1    2    0    0  0.37486925247E+00  0.34419776294E+00  0.62819878014E+02  0.63261797310E+02  0.74470750000E+01 0.  1.
        -31    1    1    2    0    0 -0.37486925247E+00 -0.34419776294E+00  0.55997263646E+02  0.56492578813E+02  0.74470750000E+01 0. -1.
<mgrwt>
<rscale>  0 0.14953175E+02</rscale>
<asrwt>0</asrwt>
<pdfrwt beam="1">  1        2 0.99021297E+00 0.14953175E+02</pdfrwt>
<pdfrwt beam="2">  1       -2 0.99527390E+00 0.14953175E+02</pdfrwt>
<totfact>-0.17346400E-13</totfact>
</mgrwt>
</event>
<event>
 4    1 -0.5170493E-019  0.1503875E+02  0.7818608E-02  0.1866888E+00
          2   -1    0    0  501    0  0.00000000000E+00  0.00000000000E+00  0.12033203075E+03  0.12033203077E+03  0.25500000000E-02 0. -1.
         -2   -1    0    0    0  501 -0.00000000000E+00 -0.00000000000E+00 -0.46987160040E+00  0.46987851979E+00  0.25500000000E-02 0.  1.
         31    1    1    2    0    0  0.28391940075E+00 -0.86645910030E+00  0.63953339452E+02  0.64391924297E+02  0.74470750000E+01 0. -1.
        -31    1    1    2    0    0 -0.28391940075E+00  0.86645910030E+00  0.55908819693E+02  0.56409984995E+02  0.74470750000E+01 0.  1.
<mgrwt>
<rscale>  0 0.15038753E+02</rscale>
<asrwt>0</asrwt>
<pdfrwt beam="1">  1        2 0.99887471E+00 0.15038753E+02</pdfrwt>
<pdfrwt beam="2">  1       -2 0.99796894E+00 0.15038753E+02</pdfrwt>
<totfact>-0.24439651E-14</totfact>
</mgrwt>
</event>
<event>
 4    1  0.5170493E-019  0.1495366E+02  0.7818608E-02  0.1869486E+00
         -2   -1    0    0    0  501 -0.00000000000E+00  0.00000000000E+00  0.11888607300E+03  0.11888607303E+03  0.25500000000E-02 0.  1.
          2   -1    0    0  501    0  0.00000000000E+00 -0.00000000000E+00 -0.47021945258E+00  0.47022636686E+00  0.25500000000E-02 0. -1.
         31    1    1    2    0    0  0.39453090017E+00  0.22070128551E-01  0.54925285143E+02  0.55429252348E+02  0.74470750000E+01 0. -1.
        -31    1    1    2    0    0 -0.39453090017E+00 -0.22070128551E-01  0.63490568403E+02  0.63927047045E+02  0.74470750000E+01 0.  1.
<mgrwt>
<rscale>  0 0.14953656E+02</rscale>
<asrwt>0</asrwt>
<pdfrwt beam="2">  1        2 0.99865758E+00 0.14953656E+02</pdfrwt>
<pdfrwt beam="1">  1       -2 0.98692139E+00 0.14953656E+02</pdfrwt>
<totfact> 0.10066726E-13</totfact>
</mgrwt>
</event>
<event>
 4    1 -0.5170493E-019  0.1491725E+02  0.7818608E-02  0.1870604E+00
          2   -1    0    0  501    0  0.00000000000E+00  0.00000000000E+00  0.11895905149E+03  0.11895905151E+03  0.25500000000E-02 0. -1.
         -2   -1    0    0    0  501 -0.00000000000E+00 -0.00000000000E+00 -0.46764556912E+00  0.46765252145E+00  0.25500000000E-02 0.  1.
         31    1    1    2    0    0  0.25078347068E+00 -0.29780903662E+00  0.58097149982E+02  0.58573794009E+02  0.74470750000E+01 0. -1.
        -31    1    1    2    0    0 -0.25078347068E+00  0.29780903662E+00  0.60394255935E+02  0.60852910026E+02  0.74470750000E+01 0. -1.
<mgrwt>
<rscale>  0 0.14917250E+02</rscale>
<asrwt>0</asrwt>
<pdfrwt beam="1">  1        2 0.98750355E+00 0.14917250E+02</pdfrwt>
<pdfrwt beam="2">  1       -2 0.99321502E+00 0.14917250E+02</pdfrwt>
<totfact>-0.21436809E-13</totfact>
</mgrwt>
</event>
<event>
 4    1  0.5170493E-019  0.1493804E+02  0.7818608E-02  0.1869965E+00
          2   -1    0    0  501    0  0.00000000000E+00  0.00000000000E+00  0.11980267638E+03  0.11980267641E+03  0.25500000000E-02 0. -1.
         -2   -1    0    0    0  501 -0.00000000000E+00 -0.00000000000E+00 -0.46564758060E+00  0.46565456276E+00  0.25500000000E-02 0.  1.
         31    1    1    2    0    0  0.99048547918E-01  0.43155067837E+00  0.62585599736E+02  0.63028662265E+02  0.74470750000E+01 0. -1.
        -31    1    1    2    0    0 -0.99048547918E-01 -0.43155067837E+00  0.56751429066E+02  0.57239668707E+02  0.74470750000E+01 0.  1.
<mgrwt>
<rscale>  0 0.14938038E+02</rscale>
<asrwt>0</asrwt>
<pdfrwt beam="1">  1        2 0.99446271E+00 0.14938038E+02</pdfrwt>
<pdfrwt beam="2">  1       -2 0.98901534E+00 0.14938038E+02</pdfrwt>
<totfact> 0.75127511E-14</totfact>
</mgrwt>
</event>
<event>
 4    1  0.5170493E-019  0.1491898E+02  0.7818608E-02  0.1870551E+00
         -2   -1    0    0    0  501 -0.00000000000E+00  0.00000000000E+00  0.11863839335E+03  0.11863839338E+03  0.25500000000E-02 0.  1.
          2   -1    0    0  501    0  0.00000000000E+00 -0.00000000000E+00 -0.46901814850E+00  0.46902508048E+00  0.25500000000E-02 0. -1.
         31    1    1    2    0    0 -0.25941242151E+00  0.18204953594E+00  0.56762413108E+02  0.57249724058E+02  0.74470750000E+01 0. -1.
        -31    1    1    2    0    0  0.25941242151E+00 -0.18204953594E+00  0.61406962092E+02  0.61857694398E+02  0.74470750000E+01 0.  1.
<mgrwt>
<rscale>  0 0.14918978E+02</rscale>
<asrwt>0</asrwt>
<pdfrwt beam="2">  1        2 0.99610813E+00 0.14918978E+02</pdfrwt>
<pdfrwt beam="1">  1       -2 0.98486347E+00 0.14918978E+02</pdfrwt>
<totfact> 0.43855134E-13</totfact>
</mgrwt>
</event>
<event>
 4    1 -0.5170493E-019  0.1496523E+02  0.7818608E-02  0.1869131E+00
          2   -1    0    0  501    0  0.00000000000E+00  0.00000000000E+00  0.11937750996E+03  0.11937750999E+03  0.25500000000E-02 0. -1.
         -2   -1    0    0    0  501 -0.00000000000E+00 -0.00000000000E+00 -0.46900880315E+00  0.46901573527E+00  0.25500000000E-02 0.  1.
         31    1    1    2    0    0 -0.22572650389E+00 -0.35157873474E+00  0.54675792224E+02  0.55182204934E+02  0.74470750000E+01 0.  1.
        -31    1    1    2    0    0  0.22572650389E+00  0.35157873474E+00  0.64232708936E+02  0.64664320792E+02  0.74470750000E+01 0. -1.
<mgrwt>
<rscale>  0 0.14965229E+02</rscale>
<asrwt>0</asrwt>
<pdfrwt beam="1">  1        2 0.99097493E+00 0.14965229E+02</pdfrwt>
<pdfrwt beam="2">  1       -2 0.99611265E+00 0.14965229E+02</pdfrwt>
<totfact>-0.15180185E-13</totfact>
</mgrwt>
</event>
<event>
 4    1 -0.5170493E-019  0.1501557E+02  0.7818608E-02  0.1867594E+00
         -2   -1    0    0    0  501 -0.00000000000E+00  0.00000000000E+00  0.11996141084E+03  0.11996141087E+03  0.25500000000E-02 0. -1.
          2   -1    0    0  501    0  0.00000000000E+00 -0.00000000000E+00 -0.46987126804E+00  0.46987818744E+00  0.25500000000E-02 0.  1.
         31    1    1    2    0    0 -0.25590908367E+00 -0.77731007758E+00  0.55831242188E+02  0.56331662772E+02  0.74470750000E+01 0.  1.
        -31    1    1    2    0    0  0.25590908367E+00  0.77731007758E+00  0.63660297387E+02  0.64099626285E+02  0.74470750000E+01 0.  1.
<mgrwt>
<rscale>  0 0.15015570E+02</rscale>
<asrwt>0</asrwt>
<pdfrwt beam="2">  1        2 0.99795624E+00 0.15015570E+02</pdfrwt>
<pdfrwt beam="1">  1       -2 0.99581016E+00 0.15015570E+02</pdfrwt>
<totfact>-0.63697000E-14</totfact>
</mgrwt>
</event>
<event>
 4    1 -0.5170493E-019  0.1495039E+02  0.7818608E-02  0.1869586E+00
          2   -1    0    0  501    0  0.00000000000E+00  0.00000000000E+00  0.11931925492E+03  0.11931925495E+03  0.25500000000E-02 0. -1.
         -2   -1    0    0    0  501 -0.00000000000E+00 -0.00000000000E+00 -0.46830783253E+00  0.46831477503E+00  0.25500000000E-02 0.  1.
         31    1    1    2    0    0  0.42783987523E+00  0.39137846356E+00  0.57111461765E+02  0.57597866410E+02  0.74470750000E+01 0. -1.
        -31    1    1    2    0    0 -0.42783987523E+00 -0.39137846356E+00  0.61739485326E+02  0.62189703316E+02  0.74470750000E+01 0.  1.
<mgrwt>
<rscale>  0 0.14950393E+02</rscale>
<asrwt>0</asrwt>
<pdfrwt beam="1">  1        2 0.99048744E+00 0.14950393E+02</pdfrwt>
<pdfrwt beam="2">  1       -2 0.99462782E+00 0.14950393E+02</pdfrwt>
<totfact>-0.17109251E-13</totfact>
</mgrwt>
</event>
<event>
 4    1 -0.5170493E-019  0.1495995E+02  0.7818608E-02  0.1869293E+00
         -2   -1    0    0    0  501 -0.00000000000E+00  0.00000000000E+00  0.11975612510E+03  0.11975612512E+03  0.25500000000E-02 0. -1.
          2   -1    0    0  501    0  0.00000000000E+00 -0.00000000000E+00 -0.46719594239E+00  0.46720290141E+00  0.25500000000E-02 0.  1.
         31    1    1    2    0    0 -0.52375652476E+00 -0.46418505851E+00  0.59932088433E+02  0.60397052400E+02  0.74470750000E+01 0.  1.
        -31    1    1    2    0    0  0.52375652476E+00  0.46418505851E+00  0.59356840723E+02  0.59826275626E+02  0.74470750000E+01 0. -1.
<mgrwt>
<rscale>  0 0.14959946E+02</rscale>
<asrwt>0</asrwt>
<pdfrwt beam="2">  1        2 0.99228967E+00 0.14959946E+02</pdfrwt>
<pdfrwt beam="1">  1       -2 0.99409059E+00 0.14959946E+02</pdfrwt>
<totfact>-0.14584211E-13</totfact>
</mgrwt>
</event>
<event>
 4    1 -0.5170493E-019  0.1492025E+02  0.7818608E-02  0.1870512E+00
         -2   -1    0    0    0  501 -0.00000000000E+00  0.00000000000E+00  0.11976938260E+03  0.11976938263E+03  0.25500000000E-02 0.  1.
          2   -1    0    0  501    0  0.00000000000E+00 -0.00000000000E+00 -0.46466855809E+00  0.46467555496E+00  0.25500000000E-02 0. -1.
         31    1    1    2    0    0  0.42150909241E+00 -0.96909571613E-01  0.60350292073E+02  0.60809569483E+02  0.74470750000E+01 0.  1.
        -31    1    1    2    0    0 -0.42150909241E+00  0.96909571613E-01  0.58954421967E+02  0.59424488697E+02  0.74470750000E+01 0.  1.
<mgrwt>
<rscale>  0 0.14920253E+02</rscale>
<asrwt>0</asrwt>
<pdfrwt beam="2">  1        2 0.98694294E+00 0.14920253E+02</pdfrwt>
<pdfrwt beam="1">  1       -2 0.99417932E+00 0.14920253E+02</pdfrwt>
<totfact>-0.25475002E-13</totfact>
</mgrwt>
</event>
<event>
 4    1 -0.5170493E-019  0.1494123E+02  0.7818608E-02  0.1869867E+00
          2   -1    0    0  501    0  0.00000000000E+00  0.00000000000E+00  0.11864827034E+03  0.11864827037E+03  0.25500000000E-02 0.  1.
         -2   -1    0    0    0  501 -0.00000000000E+00 -0.00000000000E+00 -0.47037901039E+00  0.47038592232E+00  0.25500000000E-02 0. -1.
         31    1    1    2    0    0  0.24142797794E+00 -0.53934516972E+00  0.59442132216E+02  0.59909725330E+02  0.74470750000E+01 0.  1.
        -31    1    1    2    0    0 -0.24142797794E+00  0.53934516972E+00  0.58735759113E+02  0.59208930959E+02  0.74470750000E+01 0.  1.
<mgrwt>
<rscale>  0 0.14941227E+02</rscale>
<asrwt>0</asrwt>
<pdfrwt beam="1">  1        2 0.98495639E+00 0.14941227E+02</pdfrwt>
<pdfrwt beam="2">  1       -2 0.99898722E+00 0.14941227E+02</pdfrwt>
<totfact>-0.11497295E-13</totfact>
</mgrwt>
</event>
<event>
 4    1 -0.5170493E-019  0.1490063E+02  0.7818608E-02  0.1871116E+00
         -2   -1    0    0    0  501 -0.00000000000E+00  0.00000000000E+00  0.11974835379E+03  0.11974835382E+03  0.25500000000E-02 0. -1.
          2   -1    0    0  501    0  0.00000000000E+00 -0.00000000000E+00 -0.46352831981E+00  0.46353533389E+00  0.25500000000E-02 0.  1.
         31    1    1    2    0    0 -0.49576213276E-01 -0.10918979744E+00  0.58157668545E+02  0.58632650604E+02  0.74470750000E+01 0.  1.
        -31    1    1    2    0    0  0.49576213276E-01  0.10918979744E+00  0.61127156926E+02  0.61579238547E+02  0.74470750000E+01 0. -1.
<mgrwt>
<rscale>  0 0.14900628E+02</rscale>
<asrwt>0</asrwt>
<pdfrwt beam="2">  1        2 0.98452981E+00 0.14900628E+02</pdfrwt>
<pdfrwt beam="1">  1       -2 0.99399601E+00 0.14900628E+02</pdfrwt>
<totfact>-0.36682824E-13</totfact>
</mgrwt>
</event>
<event>
 4    1  0.5170493E-019  0.1489901E+02  0.7818608E-02  0.1871166E+00
         -2   -1    0    0    0  501 -0.00000000000E+00  0.00000000000E+00  0.11838003047E+03  0.11838003050E+03  0.25500000000E-02 0.  1.
          2   -1    0    0  501    0  0.00000000000E+00 -0.00000000000E+00 -0.46878414075E+00  0.46879107619E+00  0.25500000000E-02 0. -1.
         31    1    1    2    0    0 -0.15659915916E+00 -0.49776060810E-01  0.59719399131E+02  0.60182161473E+02  0.74470750000E+01 0. -1.
        -31    1    1    2    0    0  0.15659915916E+00  0.49776060810E-01  0.58191847199E+02  0.58666660101E+02  0.74470750000E+01 0. -1.
<mgrwt>
<rscale>  0 0.14899006E+02</rscale>
<asrwt>0</asrwt>
<pdfrwt beam="2">  1        2 0.99560455E+00 0.14899006E+02</pdfrwt>
<pdfrwt beam="1">  1       -2 0.98272521E+00 0.14899006E+02</pdfrwt>
<totfact> 0.78897519E-13</totfact>
</mgrwt>
</event>
<event>
 4    1  0.5170493E-019  0.1490868E+02  0.7818608E-02  0.1870868E+00
         -2   -1    0    0    0  501 -0.00000000000E+00  0.00000000000E+00  0.11860037708E+03  0.11860037711E+03  0.25500000000E-02 0. -1.
          2   -1    0    0  501    0  0.00000000000E+00 -0.00000000000E+00 -0.46852094324E+00  0.46852788258E+00  0.25500000000E-02 0.  1.
         31    1    1    2    0    0  0.32866784923E+00 -0.14927463712E-01  0.59050238816E+02  0.59518886713E+02  0.74470750000E+01 0. -1.
        -31    1    1    2    0    0 -0.32866784923E+00  0.14927463712E-01  0.59081617320E+02  0.59550018276E+02  0.74470750000E+01 0. -1.
<mgrwt>
<rscale>  0 0.14908679E+02</rscale>
<asrwt>0</asrwt>
<pdfrwt beam="2">  1        2 0.99505507E+00 0.14908679E+02</pdfrwt>
<pdfrwt beam="1">  1       -2 0.98454501E+00 0.14908679E+02</pdfrwt>
<totfact> 0.54592552E-13</totfact>
</mgrwt>
</event>
<event>
 4    1 -0.5170493E-019  0.1492758E+02  0.7818608E-02  0.1870286E+00
         -2   -1    0    0    0  501 -0.00000000000E+00  0.00000000000E+00  0.12011460885E+03  0.12011460887E+03  0.25500000000E-02 0.  1.
          2   -1    0    0  501    0  0.00000000000E+00 -0.00000000000E+00 -0.46378844560E+00  0.46379545575E+00  0.25500000000E-02 0. -1.
         31    1    1    2    0    0 -0.18655142484E+00  0.28837666843E-01  0.63558892281E+02  0.63993963364E+02  0.74470750000E+01 0.  1.
        -31    1    1    2    0    0  0.18655142484E+00 -0.28837666843E-01  0.56091928121E+02  0.56584440966E+02  0.74470750000E+01 0. -1.
<mgrwt>
<rscale>  0 0.14927584E+02</rscale>
<asrwt>0</asrwt>
<pdfrwt beam="2">  1        2 0.98509177E+00 0.14927584E+02</pdfrwt>
<pdfrwt beam="1">  1       -2 0.99702661E+00 0.14927584E+02</pdfrwt>
<totfact>-0.27235920E-13</totfact>
</mgrwt>
</event>
<event>
 4    1 -0.5170493E-019  0.1493653E+02  0.7818608E-02  0.1870012E+00
          2   -1    0    0  501    0  0.00000000000E+00  0.00000000000E+00  0.11874073594E+03  0.11874073597E+03  0.25500000000E-02 0.  1.
         -2   -1    0    0    0  501 -0.00000000000E+00 -0.00000000000E+00 -0.46971711970E+00  0.46972404137E+00  0.25500000000E-02 0. -1.
         31    1    1    2    0    0 -0.42985807157E-01 -0.35186634778E+00  0.55653072630E+02  0.56150236660E+02  0.74470750000E+01 0. -1.
        -31    1    1    2    0    0  0.42985807157E-01  0.35186634778E+00  0.62617946190E+02  0.63060223349E+02  0.74470750000E+01 0.  1.
<mgrwt>
<rscale>  0 0.14936528E+02</rscale>
<asrwt>0</asrwt>
<pdfrwt beam="1">  1        2 0.98571549E+00 0.14936528E+02</pdfrwt>
<pdfrwt beam="2">  1       -2 0.99759013E+00 0.14936528E+02</pdfrwt>
<totfact>-0.21276015E-13</totfact>
</mgrwt>
</event>
<event>
 4    1 -0.5170493E-019  0.1497492E+02  0.7818608E-02  0.1868835E+00
          2   -1    0    0  501    0  0.00000000000E+00  0.00000000000E+00  0.11961298981E+03  0.11961298983E+03  0.25500000000E-02 0.  1.
         -2   -1    0    0    0  501 -0.00000000000E+00 -0.00000000000E+00 -0.46869171970E+00  0.46869865651E+00  0.25500000000E-02 0. -1.
         31    1    1    2    0    0  0.78636600328E-01 -0.66354256852E+00  0.62745807848E+02  0.63189728604E+02  0.74470750000E+01 0.  1.
        -31    1    1    2    0    0 -0.78636600328E-01  0.66354256852E+00  0.56398490239E+02  0.56891959887E+02  0.74470750000E+01 0. -1.
<mgrwt>
<rscale>  0 0.14974917E+02</rscale>
<asrwt>0</asrwt>
<pdfrwt beam="1">  1        2 0.99291942E+00 0.14974917E+02</pdfrwt>
<pdfrwt beam="2">  1       -2 0.99544951E+00 0.14974917E+02</pdfrwt>
<totfact>-0.13914059E-13</totfact>
</mgrwt>
</event>
<event>
 4    1 -0.5170493E-019  0.1504895E+02  0.7818608E-02  0.1866579E+00
         -2   -1    0    0    0  501 -0.00000000000E+00  0.00000000000E+00  0.12038702368E+03  0.12038702371E+03  0.25500000000E-02 0.  1.
          2   -1    0    0  501    0  0.00000000000E+00 -0.00000000000E+00 -0.47029387448E+00  0.47030078766E+00  0.25500000000E-02 0. -1.
         31    1    1    2    0    0 -0.13761100299E+00  0.72152547560E+00  0.53638679810E+02  0.54158161284E+02  0.74470750000E+01 0. -1.
        -31    1    1    2    0    0  0.13761100299E+00 -0.72152547560E+00  0.66278049996E+02  0.66699163212E+02  0.74470750000E+01 0.  1.
<mgrwt>
<rscale>  0 0.15048947E+02</rscale>
<asrwt>0</asrwt>
<pdfrwt beam="2">  1        2 0.99886409E+00 0.15048947E+02</pdfrwt>
<pdfrwt beam="1">  1       -2 0.99933292E+00 0.15048947E+02</pdfrwt>
<totfact>-0.91237466E-15</totfact>
</mgrwt>
</event>
<event>
 4    1 -0.5170493E-019  0.1493790E+02  0.7818608E-02  0.1869970E+00
          2   -1    0    0  501    0  0.00000000000E+00  0.00000000000E+00  0.11928169046E+03  0.11928169049E+03  0.25500000000E-02 0.  1.
         -2   -1    0    0    0  501 -0.00000000000E+00 -0.00000000000E+00 -0.46767259006E+00  0.46767954199E+00  0.25500000000E-02 0. -1.
         31    1    1    2    0    0 -0.55186852371E+00 -0.10790827632E+00  0.60211293372E+02  0.60672687254E+02  0.74470750000E+01 0.  1.
        -31    1    1    2    0    0  0.55186852371E+00  0.10790827632E+00  0.58602724496E+02  0.59076682774E+02  0.74470750000E+01 0.  1.
<mgrwt>
<rscale>  0 0.14937897E+02</rscale>
<asrwt>0</asrwt>
<pdfrwt beam="1">  1        2 0.99017158E+00 0.14937897E+02</pdfrwt>
<pdfrwt beam="2">  1       -2 0.99328271E+00 0.14937897E+02</pdfrwt>
<totfact>-0.15964799E-13</totfact>
</mgrwt>
</event>
<event>
 4    1 -0.5170493E-019  0.1496068E+02  0.7818608E-02  0.1869271E+00
         -2   -1    0    0    0  501 -0.00000000000E+00  0.00000000000E+00  0.11969143611E+03  0.11969143613E+03  0.25500000000E-02 0.  1.
          2   -1    0    0  501    0  0.00000000000E+00 -0.00000000000E+00 -0.46749446344E+00  0.46750141801E+00  0.25500000000E-02 0. -1.
         31    1    1    2    0    0 -0.23844231159E+00 -0.58069030598E+00  0.62183618021E+02  0.62631105150E+02  0.74470750000E+01 0.  1.
        -31    1    1    2    0    0  0.23844231159E+00  0.58069030598E+00  0.57040323622E+02  0.57527832402E+02  0.74470750000E+01 0. -1.
<mgrwt>
<rscale>  0 0.14960682E+02</rscale>
<asrwt>0</asrwt>
<pdfrwt beam="2">  1        2 0.99291914E+00 0.14960682E+02</pdfrwt>
<pdfrwt beam="1">  1       -2 0.99355817E+00 0.14960682E+02</pdfrwt>
<totfact>-0.13330957E-13</totfact>
</mgrwt>
</event>
<event>
 4    1 -0.5170493E-019  0.1493306E+02  0.7818608E-02  0.1870118E+00
         -2   -1    0    0    0  501 -0.00000000000E+00  0.00000000000E+00  0.11997582701E+03  0.11997582703E+03  0.25500000000E-02 0. -1.
          2   -1    0    0  501    0  0.00000000000E+00 -0.00000000000E+00 -0.46466584840E+00  0.46467284531E+00  0.25500000000E-02 0.  1.
         31    1    1    2    0    0 -0.17880241790E-01 -0.22104281575E+00  0.55796263979E+02  0.56291484078E+02  0.74470750000E+01 0.  1.
        -31    1    1    2    0    0  0.17880241790E-01  0.22104281575E+00  0.63714897178E+02  0.64149015799E+02  0.74470750000E+01 0. -1.
<mgrwt>
<rscale>  0 0.14933063E+02</rscale>
<asrwt>0</asrwt>
<pdfrwt beam="2">  1        2 0.98694377E+00 0.14933063E+02</pdfrwt>
<pdfrwt beam="1">  1       -2 0.99588632E+00 0.14933063E+02</pdfrwt>
<totfact>-0.24453001E-13</totfact>
</mgrwt>
</event>
<event>
 4    1 -0.5170493E-019  0.1494718E+02  0.7818608E-02  0.1869685E+00
         -2   -1    0    0    0  501 -0.00000000000E+00  0.00000000000E+00  0.11966346663E+03  0.11966346666E+03  0.25500000000E-02 0.  1.
          2   -1    0    0  501    0  0.00000000000E+00 -0.00000000000E+00 -0.46676018876E+00  0.46676715428E+00  0.25500000000E-02 0. -1.
         31    1    1    2    0    0 -0.60002204841E+00  0.53190780496E-01  0.58143226243E+02  0.58621297663E+02  0.74470750000E+01 0. -1.
        -31    1    1    2    0    0  0.60002204841E+00 -0.53190780496E-01  0.61053480200E+02  0.61508936150E+02  0.74470750000E+01 0.  1.
<mgrwt>
<rscale>  0 0.14947182E+02</rscale>
<asrwt>0</asrwt>
<pdfrwt beam="2">  1        2 0.99136478E+00 0.14947182E+02</pdfrwt>
<pdfrwt beam="1">  1       -2 0.99332082E+00 0.14947182E+02</pdfrwt>
<totfact>-0.14503657E-13</totfact>
</mgrwt>
</event>
<event>
 4    1 -0.5170493E-019  0.1495416E+02  0.7818608E-02  0.1869471E+00
          2   -1    0    0  501    0  0.00000000000E+00  0.00000000000E+00  0.11911963684E+03  0.11911963687E+03  0.25500000000E-02 0. -1.
         -2   -1    0    0    0  501 -0.00000000000E+00 -0.00000000000E+00 -0.46932903017E+00  0.46933595757E+00  0.25500000000E-02 0.  1.
         31    1    1    2    0    0 -0.21847024499E+00 -0.49125068035E+00  0.56138989703E+02  0.56633330711E+02  0.74470750000E+01 0.  1.
        -31    1    1    2    0    0  0.21847024499E+00  0.49125068035E+00  0.62511318111E+02  0.62955642119E+02  0.74470750000E+01 0. -1.
<mgrwt>
<rscale>  0 0.14954159E+02</rscale>
<asrwt>0</asrwt>
<pdfrwt beam="1">  1        2 0.98884530E+00 0.14954159E+02</pdfrwt>
<pdfrwt beam="2">  1       -2 0.99678164E+00 0.14954159E+02</pdfrwt>
<totfact>-0.16869660E-13</totfact>
</mgrwt>
</event>
<event>
 4    1  0.5170493E-019  0.1490529E+02  0.7818608E-02  0.1870973E+00
         -2   -1    0    0    0  501 -0.00000000000E+00  0.00000000000E+00  0.11848777300E+03  0.11848777303E+03  0.25500000000E-02 0. -1.
          2   -1    0    0  501    0  0.00000000000E+00 -0.00000000000E+00 -0.46875286067E+00  0.46875979658E+00  0.25500000000E-02 0.  1.
         31    1    1    2    0    0  0.28660245813E+00  0.27047000319E-01  0.59088577383E+02  0.59556710585E+02  0.74470750000E+01 0. -1.
        -31    1    1    2    0    0 -0.28660245813E+00 -0.27047000319E-01  0.58930442757E+02  0.59399822240E+02  0.74470750000E+01 0.  1.
<mgrwt>
<rscale>  0 0.14905287E+02</rscale>
<asrwt>0</asrwt>
<pdfrwt beam="2">  1        2 0.99554195E+00 0.14905287E+02</pdfrwt>
<pdfrwt beam="1">  1       -2 0.98361584E+00 0.14905287E+02</pdfrwt>
<totfact> 0.65129528E-13</totfact>
</mgrwt>
</event>
<event>
 4    1 -0.5170493E-019  0.1498645E+02  0.7818608E-02  0.1868482E+00
         -2   -1    0    0    0  501 -0.00000000000E+00  0.00000000000E+00  0.11977623161E+03  0.11977623164E+03  0.25500000000E-02 0. -1.
          2   -1    0    0  501    0  0.00000000000E+00 -0.00000000000E+00 -0.46877430758E+00  0.46878124317E+00  0.25500000000E-02 0.  1.
         31    1    1    2    0    0 -0.15946545956E+00  0.62767095916E+00  0.63823772346E+02  0.64260036123E+02  0.74470750000E+01 0. -1.
        -31    1    1    2    0    0  0.15946545956E+00 -0.62767095916E+00  0.55483684961E+02  0.55984976762E+02  0.74470750000E+01 0.  1.
<mgrwt>
<rscale>  0 0.14986452E+02</rscale>
<asrwt>0</asrwt>
<pdfrwt beam="2">  1        2 0.99562953E+00 0.14986452E+02</pdfrwt>
<pdfrwt beam="1">  1       -2 0.99426990E+00 0.14986452E+02</pdfrwt>
<totfact>-0.11019727E-13</totfact>
</mgrwt>
</event>
<event>
 4    1 -0.5170493E-019  0.1497239E+02  0.7818608E-02  0.1868912E+00
         -2   -1    0    0    0  501 -0.00000000000E+00  0.00000000000E+00  0.12025142268E+03  0.12025142271E+03  0.25500000000E-02 0. -1.
          2   -1    0    0  501    0  0.00000000000E+00 -0.00000000000E+00 -0.46604600871E+00  0.46605298490E+00  0.25500000000E-02 0.  1.
         31    1    1    2    0    0  0.73512951487E+00 -0.10568525513E+00  0.61348608162E+02  0.61803416041E+02  0.74470750000E+01 0. -1.
        -31    1    1    2    0    0 -0.73512951487E+00  0.10568525513E+00  0.58436768509E+02  0.58914059652E+02  0.74470750000E+01 0.  1.
<mgrwt>
<rscale>  0 0.14972390E+02</rscale>
<asrwt>0</asrwt>
<pdfrwt beam="2">  1        2 0.98987260E+00 0.14972390E+02</pdfrwt>
<pdfrwt beam="1">  1       -2 0.99817655E+00 0.14972390E+02</pdfrwt>
<totfact>-0.99654014E-14</totfact>
</mgrwt>
</event>
<event>
 4    1 -0.5170493E-019  0.1498840E+02  0.7818608E-02  0.1868423E+00
         -2   -1    0    0    0  501 -0.00000000000E+00  0.00000000000E+00  0.11994788604E+03  0.11994788607E+03  0.25500000000E-02 0. -1.
          2   -1    0    0  501    0  0.00000000000E+00 -0.00000000000E+00 -0.46822538644E+00  0.46823233016E+00  0.25500000000E-02 0.  1.
         31    1    1    2    0    0  0.13103032697E+00 -0.29639184108E+00  0.53521313496E+02  0.54037902822E+02  0.74470750000E+01 0.  1.
        -31    1    1    2    0    0 -0.13103032697E+00  0.29639184108E+00  0.65958347162E+02  0.66378215579E+02  0.74470750000E+01 0. -1.
<mgrwt>
<rscale>  0 0.14988404E+02</rscale>
<asrwt>0</asrwt>
<pdfrwt beam="2">  1        2 0.99447377E+00 0.14988404E+02</pdfrwt>
<pdfrwt beam="1">  1       -2 0.99568472E+00 0.14988404E+02</pdfrwt>
<totfact>-0.12124717E-13</totfact>
</mgrwt>
</event>
<event>
 4    1  0.5170493E-019  0.1492893E+02  0.7818608E-02  0.1870245E+00
         -2   -1    0    0    0  501 -0.00000000000E+00  0.00000000000E+00  0.11901826861E+03  0.11901826864E+03  0.25500000000E-02 0. -1.
          2   -1    0    0  501    0  0.00000000000E+00 -0.00000000000E+00 -0.46814502051E+00  0.46815196542E+00  0.25500000000E-02 0.  1.
         31    1    1    2    0    0  0.12522249367E-01 -0.20373634996E+00  0.55541234168E+02  0.56038640992E+02  0.74470750000E+01 0.  1.
        -31    1    1    2    0    0 -0.12522249367E-01  0.20373634996E+00  0.63008889423E+02  0.63447779612E+02  0.74470750000E+01 0. -1.
<mgrwt>
<rscale>  0 0.14928928E+02</rscale>
<asrwt>0</asrwt>
<pdfrwt beam="2">  1        2 0.99427356E+00 0.14928928E+02</pdfrwt>
<pdfrwt beam="1">  1       -2 0.98799733E+00 0.14928928E+02</pdfrwt>
<totfact> 0.16218800E-13</totfact>
</mgrwt>
</event>
<event>
 4    1  0.5170493E-019  0.1492217E+02  0.7818608E-02  0.1870453E+00
          2   -1    0    0  501    0  0.00000000000E+00  0.00000000000E+00  0.11988211467E+03  0.11988211469E+03  0.25500000000E-02 0. -1.
         -2   -1    0    0    0  501 -0.00000000000E+00 -0.00000000000E+00 -0.46435094250E+00  0.46435794415E+00  0.25500000000E-02 0.  1.
         31    1    1    2    0    0 -0.23574827683E+00  0.24788907258E-02  0.62866453470E+02  0.63306441073E+02  0.74470750000E+01 0. -1.
        -31    1    1    2    0    0  0.23574827683E+00 -0.24788907258E-02  0.56551310254E+02  0.57040031564E+02  0.74470750000E+01 0.  1.
<mgrwt>
<rscale>  0 0.14922171E+02</rscale>
<asrwt>0</asrwt>
<pdfrwt beam="1">  1        2 0.99510884E+00 0.14922171E+02</pdfrwt>
<pdfrwt beam="2">  1       -2 0.98627453E+00 0.14922171E+02</pdfrwt>
<totfact> 0.32082873E-13</totfact>
</mgrwt>
</event>
<event>
 4    1  0.5170493E-019  0.1494058E+02  0.7818608E-02  0.1869887E+00
          2   -1    0    0  501    0  0.00000000000E+00  0.00000000000E+00  0.12032232619E+03  0.12032232621E+03  0.25500000000E-02 0.  1.
         -2   -1    0    0    0  501 -0.00000000000E+00 -0.00000000000E+00 -0.46379410229E+00  0.46380111235E+00  0.25500000000E-02 0. -1.
         31    1    1    2    0    0  0.15191131210E-01  0.55575572142E+00  0.61488304945E+02  0.61940129692E+02  0.74470750000E+01 0.  1.
        -31    1    1    2    0    0 -0.15191131210E-01 -0.55575572142E+00  0.58370227140E+02  0.58845997635E+02  0.74470750000E+01 0. -1.
<mgrwt>
<rscale>  0 0.14940577E+02</rscale>
<asrwt>0</asrwt>
<pdfrwt beam="1">  1        2 0.99874421E+00 0.14940577E+02</pdfrwt>
<pdfrwt beam="2">  1       -2 0.98511028E+00 0.14940577E+02</pdfrwt>
<totfact> 0.17594781E-13</totfact>
</mgrwt>
</event>
<event>
 4    1 -0.5170493E-019  0.1492523E+02  0.7818608E-02  0.1870359E+00
          2   -1    0    0  501    0  0.00000000000E+00  0.00000000000E+00  0.11904825102E+03  0.11904825105E+03  0.25500000000E-02 0.  1.
         -2   -1    0    0    0  501 -0.00000000000E+00 -0.00000000000E+00 -0.46779545351E+00  0.46780240361E+00  0.25500000000E-02 0. -1.
         31    1    1    2    0    0 -0.37391989500E+00 -0.21359887184E+00  0.57567542008E+02  0.58048826513E+02  0.74470750000E+01 0.  1.
        -31    1    1    2    0    0  0.37391989500E+00  0.21359887184E+00  0.61012913563E+02  0.61467226943E+02  0.74470750000E+01 0.  1.
<mgrwt>
<rscale>  0 0.14925233E+02</rscale>
<asrwt>0</asrwt>
<pdfrwt beam="1">  1        2 0.98824235E+00 0.14925233E+02</pdfrwt>
<pdfrwt beam="2">  1       -2 0.99353502E+00 0.14925233E+02</pdfrwt>
<totfact>-0.20323516E-13</totfact>
</mgrwt>
</event>
<event>
 4    1  0.5170493E-019  0.1489981E+02  0.7818608E-02  0.1871141E+00
          2   -1    0    0  501    0  0.00000000000E+00  0.00000000000E+00  0.11943808428E+03  0.11943808431E+03  0.25500000000E-02 0.  1.
         -2   -1    0    0    0  501 -0.00000000000E+00 -0.00000000000E+00 -0.46468174578E+00  0.46468874245E+00  0.25500000000E-02 0. -1.
         31    1    1    2    0    0  0.12990586030E+00 -0.14531994746E+00  0.60008169791E+02  0.60468813128E+02  0.74470750000E+01 0.  1.
        -31    1    1    2    0    0 -0.12990586030E+00  0.14531994746E+00  0.58965232742E+02  0.59433959920E+02  0.74470750000E+01 0. -1.
<mgrwt>
<rscale>  0 0.14899815E+02</rscale>
<asrwt>0</asrwt>
<pdfrwt beam="1">  1        2 0.99144002E+00 0.14899815E+02</pdfrwt>
<pdfrwt beam="2">  1       -2 0.98696026E+00 0.14899815E+02</pdfrwt>
<totfact> 0.33066889E-13</totfact>
</mgrwt>
</event>
<event>
 4    1  0.5170493E-019  0.1492239E+02  0.7818608E-02  0.1870446E+00
          2   -1    0    0  501    0  0.00000000000E+00  0.00000000000E+00  0.12034060292E+03  0.12034060294E+03  0.25500000000E-02 0.  1.
         -2   -1    0    0    0  501 -0.00000000000E+00 -0.00000000000E+00 -0.46259551922E+00  0.46260254745E+00  0.25500000000E-02 0. -1.
         31    1    1    2    0    0 -0.15592086966E+00 -0.34937061512E+00  0.57888562807E+02  0.58366865609E+02  0.74470750000E+01 0. -1.
        -31    1    1    2    0    0  0.15592086966E+00  0.34937061512E+00  0.61989444589E+02  0.62436339880E+02  0.74470750000E+01 0. -1.
<mgrwt>
<rscale>  0 0.14922393E+02</rscale>
<asrwt>0</asrwt>
<pdfrwt beam="1">  1        2 0.99888542E+00 0.14922393E+02</pdfrwt>
<pdfrwt beam="2">  1       -2 0.98257481E+00 0.14922393E+02</pdfrwt>
<totfact> 0.29461821E-13</totfact>
</mgrwt>
</event>
<event>
 4    1 -0.5170493E-019  0.1500446E+02  0.7818608E-02  0.1867932E+00
          2   -1    0    0  501    0  0.00000000000E+00  0.00000000000E+00  0.11981736894E+03  0.11981736897E+03  0.25500000000E-02 0.  1.
         -2   -1    0    0    0  501 -0.00000000000E+00 -0.00000000000E+00 -0.46974034776E+00  0.46974726908E+00  0.25500000000E-02 0. -1.
         31    1    1    2    0    0  0.52823883008E+00  0.71605404979E+00  0.58222477142E+02  0.58703556453E+02  0.74470750000E+01 0. -1.
        -31    1    1    2    0    0 -0.52823883008E+00 -0.71605404979E+00  0.61125151454E+02  0.61583559786E+02  0.74470750000E+01 0. -1.
<mgrwt>
<rscale>  0 0.15004462E+02</rscale>
<asrwt>0</asrwt>
<pdfrwt beam="1">  1        2 0.99461804E+00 0.15004462E+02</pdfrwt>
<pdfrwt beam="2">  1       -2 0.99767459E+00 0.15004462E+02</pdfrwt>
<totfact>-0.82841057E-14</totfact>
</mgrwt>
</event>
<event>
 4    1 -0.5170493E-019  0.1500916E+02  0.7818608E-02  0.1867789E+00
         -2   -1    0    0    0  501 -0.00000000000E+00  0.00000000000E+00  0.11999228152E+03  0.11999228155E+03  0.25500000000E-02 0.  1.
          2   -1    0    0  501    0  0.00000000000E+00 -0.00000000000E+00 -0.46934922743E+00  0.46935615453E+00  0.25500000000E-02 0. -1.
         31    1    1    2    0    0 -0.46080406594E+00 -0.27042492211E+00  0.53679210766E+02  0.54195959854E+02  0.74470750000E+01 0. -1.
        -31    1    1    2    0    0  0.46080406594E+00  0.27042492211E+00  0.65843721527E+02  0.66265677848E+02  0.74470750000E+01 0.  1.
<mgrwt>
<rscale>  0 0.15009158E+02</rscale>
<asrwt>0</asrwt>
<pdfrwt beam="2">  1        2 0.99685282E+00 0.15009158E+02</pdfrwt>
<pdfrwt beam="1">  1       -2 0.99606110E+00 0.15009158E+02</pdfrwt>
<totfact>-0.84754432E-14</totfact>
</mgrwt>
</event>
<event>
 4    1 -0.5170493E-019  0.1492637E+02  0.7818608E-02  0.1870324E+00
          2   -1    0    0  501    0  0.00000000000E+00  0.00000000000E+00  0.11907728328E+03  0.11907728331E+03  0.25500000000E-02 0.  1.
         -2   -1    0    0    0  501 -0.00000000000E+00 -0.00000000000E+00 -0.46775282320E+00  0.46775977393E+00  0.25500000000E-02 0. -1.
         31    1    1    2    0    0 -0.10344156258E+00 -0.45427774721E+00  0.60523553412E+02  0.60981771966E+02  0.74470750000E+01 0.  1.
        -31    1    1    2    0    0  0.10344156258E+00  0.45427774721E+00  0.58085977048E+02  0.58563271119E+02  0.74470750000E+01 0. -1.
<mgrwt>
<rscale>  0 0.14926373E+02</rscale>
<asrwt>0</asrwt>
<pdfrwt beam="1">  1        2 0.98848206E+00 0.14926373E+02</pdfrwt>
<pdfrwt beam="2">  1       -2 0.99344579E+00 0.14926373E+02</pdfrwt>
<totfact>-0.19528588E-13</totfact>
</mgrwt>
</event>
<event>
 4    1  0.5170493E-019  0.1492440E+02  0.7818608E-02  0.1870384E+00
          2   -1    0    0  501    0  0.00000000000E+00  0.00000000000E+00  0.11962014801E+03  0.11962014804E+03  0.25500000000E-02 0. -1.
         -2   -1    0    0    0  501 -0.00000000000E+00 -0.00000000000E+00 -0.46550720913E+00  0.46551419340E+00  0.25500000000E-02 0.  1.
         31    1    1    2    0    0 -0.23175930702E+00  0.32029292955E+00  0.57460125094E+02  0.57942050376E+02  0.74470750000E+01 0. -1.
        -31    1    1    2    0    0  0.23175930702E+00 -0.32029292955E+00  0.61694515712E+02  0.62143611859E+02  0.74470750000E+01 0. -1.
<mgrwt>
<rscale>  0 0.14924404E+02</rscale>
<asrwt>0</asrwt>
<pdfrwt beam="1">  1        2 0.99295228E+00 0.14924404E+02</pdfrwt>
<pdfrwt beam="2">  1       -2 0.98871251E+00 0.14924404E+02</pdfrwt>
<totfact> 0.11085697E-13</totfact>
</mgrwt>
</event>
<event>
 4    1  0.5170493E-019  0.1489841E+02  0.7818608E-02  0.1871184E+00
          2   -1    0    0  501    0  0.00000000000E+00  0.00000000000E+00  0.11936734188E+03  0.11936734190E+03  0.25500000000E-02 0.  1.
         -2   -1    0    0    0  501 -0.00000000000E+00 -0.00000000000E+00 -0.46486966352E+00  0.46487665736E+00  0.25500000000E-02 0. -1.
         31    1    1    2    0    0 -0.12326096466E+00 -0.77258107163E-01  0.58623574671E+02  0.59094869451E+02  0.74470750000E+01 0. -1.
        -31    1    1    2    0    0  0.12326096466E+00  0.77258107163E-01  0.60278897542E+02  0.60737349110E+02  0.74470750000E+01 0.  1.
<mgrwt>
<rscale>  0 0.14898413E+02</rscale>
<asrwt>0</asrwt>
<pdfrwt beam="1">  1        2 0.99085663E+00 0.14898413E+02</pdfrwt>
<pdfrwt beam="2">  1       -2 0.98735557E+00 0.14898413E+02</pdfrwt>
<totfact> 0.29172960E-13</totfact>
</mgrwt>
</event>
<event>
 4    1  0.5170493E-019  0.1493353E+02  0.7818608E-02  0.1870104E+00
          2   -1    0    0  501    0  0.00000000000E+00  0.00000000000E+00  0.12005076161E+03  0.12005076164E+03  0.25500000000E-02 0.  1.
         -2   -1    0    0    0  501 -0.00000000000E+00 -0.00000000000E+00 -0.46440472322E+00  0.46441172406E+00  0.25500000000E-02 0. -1.
         31    1    1    2    0    0 -0.62827928545E-01  0.36503930531E+00  0.56601279043E+02  0.57090287409E+02  0.74470750000E+01 0. -1.
        -31    1    1    2    0    0  0.62827928545E-01 -0.36503930531E+00  0.62985077842E+02  0.63424885951E+02  0.74470750000E+01 0.  1.
<mgrwt>
<rscale>  0 0.14933528E+02</rscale>
<asrwt>0</asrwt>
<pdfrwt beam="1">  1        2 0.99650377E+00 0.14933528E+02</pdfrwt>
<pdfrwt beam="2">  1       -2 0.98639366E+00 0.14933528E+02</pdfrwt>
<totfact> 0.25363373E-13</totfact>
</mgrwt>
</event>
<event>
 4    1 -0.5170493E-019  0.1492909E+02  0.7818608E-02  0.1870240E+00
         -2   -1    0    0    0  501 -0.00000000000E+00  0.00000000000E+00  0.12011282519E+03  0.12011282521E+03  0.25500000000E-02 0. -1.
          2   -1    0    0  501    0  0.00000000000E+00 -0.00000000000E+00 -0.46388919556E+00  0.46389620418E+00  0.25500000000E-02 0.  1.
         31    1    1    2    0    0  0.20936724125E+00 -0.35357647048E+00  0.57378849949E+02  0.57861560629E+02  0.74470750000E+01 0.  1.
        -31    1    1    2    0    0 -0.20936724125E+00  0.35357647048E+00  0.62270086042E+02  0.62715160788E+02  0.74470750000E+01 0. -1.
<mgrwt>
<rscale>  0 0.14929095E+02</rscale>
<asrwt>0</asrwt>
<pdfrwt beam="2">  1        2 0.98530488E+00 0.14929095E+02</pdfrwt>
<pdfrwt beam="1">  1       -2 0.99701270E+00 0.14929095E+02</pdfrwt>
<totfact>-0.26399776E-13</totfact>
</mgrwt>
</event>
<event>
 4    1 -0.5170493E-019  0.1492918E+02  0.7818608E-02  0.1870237E+00
         -2   -1    0    0    0  501 -0.00000000000E+00  0.00000000000E+00  0.12010197236E+03  0.12010197239E+03  0.25500000000E-02 0.  1.
          2   -1    0    0  501    0  0.00000000000E+00 -0.00000000000E+00 -0.46393645417E+00  0.46394346208E+00  0.25500000000E-02 0. -1.
         31    1    1    2    0    0  0.41810228375E+00 -0.13525742165E+00  0.61926137780E+02  0.62373861276E+02  0.74470750000E+01 0.  1.
        -31    1    1    2    0    0 -0.41810228375E+00  0.13525742165E+00  0.57711898127E+02  0.58192054574E+02  0.74470750000E+01 0. -1.
<mgrwt>
<rscale>  0 0.14929180E+02</rscale>
<asrwt>0</asrwt>
<pdfrwt beam="2">  1        2 0.98540452E+00 0.14929180E+02</pdfrwt>
<pdfrwt beam="1">  1       -2 0.99692335E+00 0.14929180E+02</pdfrwt>
<totfact>-0.26480593E-13</totfact>
</mgrwt>
</event>
<event>
 4    1 -0.5170493E-019  0.1492699E+02  0.7818608E-02  0.1870305E+00
          2   -1    0    0  501    0  0.00000000000E+00  0.00000000000E+00  0.11890286236E+03  0.11890286239E+03  0.25500000000E-02 0. -1.
         -2   -1    0    0    0  501 -0.00000000000E+00 -0.00000000000E+00 -0.46847761609E+00  0.46848455607E+00  0.25500000000E-02 0.  1.
         31    1    1    2    0    0 -0.29390910543E+00  0.15356960051E+00  0.62153884295E+02  0.62599314894E+02  0.74470750000E+01 0. -1.
        -31    1    1    2    0    0  0.29390910543E+00 -0.15356960051E+00  0.56280500448E+02  0.56772032049E+02  0.74470750000E+01 0.  1.
<mgrwt>
<rscale>  0 0.14926988E+02</rscale>
<asrwt>0</asrwt>
<pdfrwt beam="1">  1        2 0.98704582E+00 0.14926988E+02</pdfrwt>
<pdfrwt beam="2">  1       -2 0.99497338E+00 0.14926988E+02</pdfrwt>
<totfact>-0.25397745E-13</totfact>
</mgrwt>
</event>
<event>
 4    1  0.5170493E-019  0.1490453E+02  0.7818608E-02  0.1870996E+00
         -2   -1    0    0    0  501 -0.00000000000E+00  0.00000000000E+00  0.11830013828E+03  0.11830013831E+03  0.25500000000E-02 0. -1.
          2   -1    0    0  501    0  0.00000000000E+00 -0.00000000000E+00 -0.46944851038E+00  0.46945543601E+00  0.25500000000E-02 0.  1.
         31    1    1    2    0    0  0.16868698025E+00  0.19758487578E+00  0.58125862329E+02  0.58601555377E+02  0.74470750000E+01 0.  1.
        -31    1    1    2    0    0 -0.16868698025E+00 -0.19758487578E+00  0.59704827442E+02  0.60168038368E+02  0.74470750000E+01 0. -1.
<mgrwt>
<rscale>  0 0.14904528E+02</rscale>
<asrwt>0</asrwt>
<pdfrwt beam="2">  1        2 0.99700729E+00 0.14904528E+02</pdfrwt>
<pdfrwt beam="1">  1       -2 0.98207010E+00 0.14904528E+02</pdfrwt>
<totfact> 0.71328763E-13</totfact>
</mgrwt>
</event>
<event>
 4    1 -0.5170493E-019  0.1492720E+02  0.7818608E-02  0.1870298E+00
         -2   -1    0    0    0  501 -0.00000000000E+00  0.00000000000E+00  0.12007191575E+03  0.12007191578E+03  0.25500000000E-02 0.  1.
          2   -1    0    0  501    0  0.00000000000E+00 -0.00000000000E+00 -0.46392970261E+00  0.46393671062E+00  0.25500000000E-02 0. -1.
         31    1    1    2    0    0  0.13330700686E+00  0.35605329018E+00  0.62381413268E+02  0.62825505904E+02  0.74470750000E+01 0. -1.
        -31    1    1    2    0    0 -0.13330700686E+00 -0.35605329018E+00  0.57226572783E+02  0.57710346587E+02  0.74470750000E+01 0. -1.
<mgrwt>
<rscale>  0 0.14927204E+02</rscale>
<asrwt>0</asrwt>
<pdfrwt beam="2">  1        2 0.98538929E+00 0.14927204E+02</pdfrwt>
<pdfrwt beam="1">  1       -2 0.99667476E+00 0.14927204E+02</pdfrwt>
<totfact>-0.27834881E-13</totfact>
</mgrwt>
</event>
<event>
 4    1  0.5170493E-019  0.1492859E+02  0.7818608E-02  0.1870255E+00
         -2   -1    0    0    0  501 -0.00000000000E+00  0.00000000000E+00  0.11884702743E+03  0.11884702745E+03  0.25500000000E-02 0. -1.
          2   -1    0    0  501    0  0.00000000000E+00 -0.00000000000E+00 -0.46879859614E+00  0.46880553137E+00  0.25500000000E-02 0.  1.
         31    1    1    2    0    0 -0.28718319280E+00 -0.37778715725E+00  0.60610141794E+02  0.61067777196E+02  0.74470750000E+01 0. -1.
        -31    1    1    2    0    0  0.28718319280E+00  0.37778715725E+00  0.57768087037E+02  0.58248055789E+02  0.74470750000E+01 0.  1.
<mgrwt>
<rscale>  0 0.14928595E+02</rscale>
<asrwt>0</asrwt>
<pdfrwt beam="2">  1        2 0.99565056E+00 0.14928595E+02</pdfrwt>
<pdfrwt beam="1">  1       -2 0.98658679E+00 0.14928595E+02</pdfrwt>
<totfact> 0.26870705E-13</totfact>
</mgrwt>
</event>
<event>
 4    1 -0.5170493E-019  0.1493373E+02  0.7818608E-02  0.1870098E+00
          2   -1    0    0  501    0  0.00000000000E+00  0.00000000000E+00  0.11904581353E+03  0.11904581356E+03  0.25500000000E-02 0.  1.
         -2   -1    0    0    0  501 -0.00000000000E+00 -0.00000000000E+00 -0.46833771714E+00  0.46834465919E+00  0.25500000000E-02 0. -1.
         31    1    1    2    0    0 -0.13811184844E+00  0.22877949291E+00  0.63074066032E+02  0.63512740036E+02  0.74470750000E+01 0.  1.
        -31    1    1    2    0    0  0.13811184844E+00 -0.22877949291E+00  0.55503409782E+02  0.56001418183E+02  0.74470750000E+01 0. -1.
<mgrwt>
<rscale>  0 0.14933728E+02</rscale>
<asrwt>0</asrwt>
<pdfrwt beam="1">  1        2 0.98822668E+00 0.14933728E+02</pdfrwt>
<pdfrwt beam="2">  1       -2 0.99468211E+00 0.14933728E+02</pdfrwt>
<totfact>-0.21745210E-13</totfact>
</mgrwt>
</event>
<event>
 4    1  0.5170493E-019  0.1491183E+02  0.7818608E-02  0.1870771E+00
         -2   -1    0    0    0  501 -0.00000000000E+00  0.00000000000E+00  0.11858814962E+03  0.11858814964E+03  0.25500000000E-02 0.  1.
          2   -1    0    0  501    0  0.00000000000E+00 -0.00000000000E+00 -0.46876723692E+00  0.46877417262E+00  0.25500000000E-02 0. -1.
         31    1    1    2    0    0  0.21525258159E+00 -0.60293124425E-01  0.56776770271E+02  0.57263518381E+02  0.74470750000E+01 0. -1.
        -31    1    1    2    0    0 -0.21525258159E+00  0.60293124425E-01  0.61342612109E+02  0.61793405436E+02  0.74470750000E+01 0.  1.
<mgrwt>
<rscale>  0 0.14911828E+02</rscale>
<asrwt>0</asrwt>
<pdfrwt beam="2">  1        2 0.99557569E+00 0.14911828E+02</pdfrwt>
<pdfrwt beam="1">  1       -2 0.98444595E+00 0.14911828E+02</pdfrwt>
<totfact> 0.52798631E-13</totfact>
</mgrwt>
</event>
<event>
 4    1 -0.5170493E-019  0.1493824E+02  0.7818608E-02  0.1869959E+00
         -2   -1    0    0    0  501 -0.00000000000E+00  0.00000000000E+00  0.11982317994E+03  0.11982317996E+03  0.25500000000E-02 0.  1.
          2   -1    0    0  501    0  0.00000000000E+00 -0.00000000000E+00 -0.46558054444E+00  0.46558752761E+00  0.25500000000E-02 0. -1.
         31    1    1    2    0    0  0.49408626971E+00 -0.28946050049E+00  0.59924140880E+02  0.60387825718E+02  0.74470750000E+01 0.  1.
        -31    1    1    2    0    0 -0.49408626971E+00  0.28946050049E+00  0.59433458512E+02  0.59900941774E+02  0.74470750000E+01 0. -1.
<mgrwt>
<rscale>  0 0.14938241E+02</rscale>
<asrwt>0</asrwt>
<pdfrwt beam="2">  1        2 0.98887416E+00 0.14938241E+02</pdfrwt>
<pdfrwt beam="1">  1       -2 0.99463169E+00 0.14938241E+02</pdfrwt>
<totfact>-0.20125780E-13</totfact>
</mgrwt>
</event>
<event>
 4    1 -0.5170493E-019  0.1499124E+02  0.7818608E-02  0.1868336E+00
         -2   -1    0    0    0  501 -0.00000000000E+00  0.00000000000E+00  0.12019982403E+03  0.12019982405E+03  0.25500000000E-02 0. -1.
          2   -1    0    0  501    0  0.00000000000E+00 -0.00000000000E+00 -0.46742087917E+00  0.46742783484E+00  0.25500000000E-02 0.  1.
         31    1    1    2    0    0 -0.51024651981E+00 -0.20712412723E+00  0.54636395222E+02  0.55144336616E+02  0.74470750000E+01 0. -1.
        -31    1    1    2    0    0  0.51024651981E+00  0.20712412723E+00  0.65096007925E+02  0.65522915272E+02  0.74470750000E+01 0. -1.
<mgrwt>
<rscale>  0 0.14991241E+02</rscale>
<asrwt>0</asrwt>
<pdfrwt beam="2">  1        2 0.99277980E+00 0.14991241E+02</pdfrwt>
<pdfrwt beam="1">  1       -2 0.99776127E+00 0.14991241E+02</pdfrwt>
<totfact>-0.92986537E-14</totfact>
</mgrwt>
</event>
<event>
 4    1  0.5170493E-019  0.1491060E+02  0.7818608E-02  0.1870809E+00
         -2   -1    0    0    0  501 -0.00000000000E+00  0.00000000000E+00  0.11839507044E+03  0.11839507047E+03  0.25500000000E-02 0.  1.
          2   -1    0    0  501    0  0.00000000000E+00 -0.00000000000E+00 -0.46945429128E+00  0.46946121682E+00  0.25500000000E-02 0. -1.
         31    1    1    2    0    0  0.21693475272E+00  0.12142037452E+00  0.60927783141E+02  0.61381719495E+02  0.74470750000E+01 0. -1.
        -31    1    1    2    0    0 -0.21693475272E+00 -0.12142037452E+00  0.56997833013E+02  0.57482812194E+02  0.74470750000E+01 0. -1.
<mgrwt>
<rscale>  0 0.14910599E+02</rscale>
<asrwt>0</asrwt>
<pdfrwt beam="2">  1        2 0.99702268E+00 0.14910599E+02</pdfrwt>
<pdfrwt beam="1">  1       -2 0.98285511E+00 0.14910599E+02</pdfrwt>
<totfact> 0.60367096E-13</totfact>
</mgrwt>
</event>
<event>
 4    1 -0.5170493E-019  0.1501609E+02  0.7818608E-02  0.1867578E+00
          2   -1    0    0  501    0  0.00000000000E+00  0.00000000000E+00  0.12018779531E+03  0.12018779534E+03  0.25500000000E-02 0.  1.
         -2   -1    0    0    0  501 -0.00000000000E+00 -0.00000000000E+00 -0.46901860924E+00  0.46902554122E+00  0.25500000000E-02 0. -1.
         31    1    1    2    0    0  0.51504779362E+00  0.79839118496E+00  0.59092727813E+02  0.59567710289E+02  0.74470750000E+01 0.  1.
        -31    1    1    2    0    0 -0.51504779362E+00 -0.79839118496E+00  0.60626048890E+02  0.61089110590E+02  0.74470750000E+01 0. -1.
<mgrwt>
<rscale>  0 0.15016089E+02</rscale>
<asrwt>0</asrwt>
<pdfrwt beam="1">  1        2 0.99767501E+00 0.15016089E+02</pdfrwt>
<pdfrwt beam="2">  1       -2 0.99615967E+00 0.15016089E+02</pdfrwt>
<totfact>-0.67701601E-14</totfact>
</mgrwt>
</event>
<event>
 4    1 -0.5170493E-019  0.1491793E+02  0.7818608E-02  0.1870583E+00
          2   -1    0    0  501    0  0.00000000000E+00  0.00000000000E+00  0.11855973365E+03  0.11855973368E+03  0.25500000000E-02 0. -1.
         -2   -1    0    0    0  501 -0.00000000000E+00 -0.00000000000E+00 -0.46926338376E+00  0.46927031212E+00  0.25500000000E-02 0.  1.
         31    1    1    2    0    0  0.33852611635E+00  0.23339995822E+00  0.58324732073E+02  0.58799680041E+02  0.74470750000E+01 0.  1.
        -31    1    1    2    0    0 -0.33852611635E+00 -0.23339995822E+00  0.59765738197E+02  0.60229323952E+02  0.74470750000E+01 0. -1.
<mgrwt>
<rscale>  0 0.14917930E+02</rscale>
<asrwt>0</asrwt>
<pdfrwt beam="1">  1        2 0.98421509E+00 0.14917930E+02</pdfrwt>
<pdfrwt beam="2">  1       -2 0.99662430E+00 0.14917930E+02</pdfrwt>
<totfact>-0.34002778E-13</totfact>
</mgrwt>
</event>
<event>
 4    1 -0.5170493E-019  0.1495635E+02  0.7818608E-02  0.1869403E+00
         -2   -1    0    0    0  501 -0.00000000000E+00  0.00000000000E+00  0.12013005686E+03  0.12013005689E+03  0.25500000000E-02 0. -1.
          2   -1    0    0  501    0  0.00000000000E+00 -0.00000000000E+00 -0.46551797353E+00  0.46552495764E+00  0.25500000000E-02 0.  1.
         31    1    1    2    0    0  0.47602387204E+00 -0.39948002599E+00  0.62084396248E+02  0.62532530466E+02  0.74470750000E+01 0. -1.
        -31    1    1    2    0    0 -0.47602387204E+00  0.39948002599E+00  0.57580142639E+02  0.58063051379E+02  0.74470750000E+01 0.  1.
<mgrwt>
<rscale>  0 0.14956353E+02</rscale>
<asrwt>0</asrwt>
<pdfrwt beam="2">  1        2 0.98875155E+00 0.14956353E+02</pdfrwt>
<pdfrwt beam="1">  1       -2 0.99716865E+00 0.14956353E+02</pdfrwt>
<totfact>-0.15701193E-13</totfact>
</mgrwt>
</event>
<event>
 4    1 -0.5170493E-019  0.1497809E+02  0.7818608E-02  0.1868738E+00
          2   -1    0    0  501    0  0.00000000000E+00  0.00000000000E+00  0.11940841633E+03  0.11940841636E+03  0.25500000000E-02 0. -1.
         -2   -1    0    0    0  501 -0.00000000000E+00 -0.00000000000E+00 -0.46969353159E+00  0.46970045360E+00  0.25500000000E-02 0.  1.
         31    1    1    2    0    0  0.71165353106E+00  0.32892964898E+00  0.58585129178E+02  0.59061755242E+02  0.74470750000E+01 0. -1.
        -31    1    1    2    0    0 -0.71165353106E+00 -0.32892964898E+00  0.60353593623E+02  0.60816361571E+02  0.74470750000E+01 0.  1.
<mgrwt>
<rscale>  0 0.14978088E+02</rscale>
<asrwt>0</asrwt>
<pdfrwt beam="1">  1        2 0.99123614E+00 0.14978088E+02</pdfrwt>
<pdfrwt beam="2">  1       -2 0.99756221E+00 0.14978088E+02</pdfrwt>
<totfact>-0.11116203E-13</totfact>
</mgrwt>
</event>
<event>
 4    1  0.5170493E-019  0.1492500E+02  0.7818608E-02  0.1870366E+00
         -2   -1    0    0    0  501 -0.00000000000E+00  0.00000000000E+00  0.11863063188E+03  0.11863063191E+03  0.25500000000E-02 0.  1.
          2   -1    0    0  501    0  0.00000000000E+00 -0.00000000000E+00 -0.46942746987E+00  0.46943439581E+00  0.25500000000E-02 0. -1.
         31    1    1    2    0    0  0.15829076734E+00  0.41540433775E+00  0.60515846631E+02  0.60973963593E+02  0.74470750000E+01 0.  1.
        -31    1    1    2    0    0 -0.15829076734E+00 -0.41540433775E+00  0.57645357783E+02  0.58126102714E+02  0.74470750000E+01 0.  1.
<mgrwt>
<rscale>  0 0.14924998E+02</rscale>
<asrwt>0</asrwt>
<pdfrwt beam="2">  1        2 0.99697376E+00 0.14924998E+02</pdfrwt>
<pdfrwt beam="1">  1       -2 0.98480268E+00 0.14924998E+02</pdfrwt>
<totfact> 0.38036376E-13</totfact>
</mgrwt>
</event>
<event>
 4    1 -0.5170493E-019  0.1490238E+02  0.7818608E-02  0.1871062E+00
         -2   -1    0    0    0  501 -0.00000000000E+00  0.00000000000E+00  0.11939367273E+03  0.11939367276E+03  0.25500000000E-02 0.  1.
          2   -1    0    0  501    0  0.00000000000E+00 -0.00000000000E+00 -0.46501479271E+00  0.46502178437E+00  0.25500000000E-02 0. -1.
         31    1    1    2    0    0  0.24889011087E-01 -0.14539693688E+00  0.61064017945E+02  0.61516623553E+02  0.74470750000E+01 0.  1.
        -31    1    1    2    0    0 -0.24889011087E-01  0.14539693688E+00  0.57864639991E+02  0.58342070987E+02  0.74470750000E+01 0. -1.
<mgrwt>
<rscale>  0 0.14902382E+02</rscale>
<asrwt>0</asrwt>
<pdfrwt beam="2">  1        2 0.98766346E+00 0.14902382E+02</pdfrwt>
<pdfrwt beam="1">  1       -2 0.99107555E+00 0.14902382E+02</pdfrwt>
<totfact>-0.88115408E-14</totfact>
</mgrwt>
</event>
<event>
 4    1  0.5170493E-019  0.1494675E+02  0.7818608E-02  0.1869698E+00
         -2   -1    0    0    0  501 -0.00000000000E+00  0.00000000000E+00  0.11902457799E+03  0.11902457802E+03  0.25500000000E-02 0.  1.
          2   -1    0    0  501    0  0.00000000000E+00 -0.00000000000E+00 -0.46923846049E+00  0.46924538922E+00  0.25500000000E-02 0. -1.
         31    1    1    2    0    0  0.22786625480E+00 -0.56334595176E+00  0.58062127607E+02  0.58540916204E+02  0.74470750000E+01 0. -1.
        -31    1    1    2    0    0 -0.22786625480E+00  0.56334595176E+00  0.60493211924E+02  0.60952907204E+02  0.74470750000E+01 0.  1.
<mgrwt>
<rscale>  0 0.14946749E+02</rscale>
<asrwt>0</asrwt>
<pdfrwt beam="2">  1        2 0.99658692E+00 0.14946749E+02</pdfrwt>
<pdfrwt beam="1">  1       -2 0.98805854E+00 0.14946749E+02</pdfrwt>
<totfact> 0.11750482E-13</totfact>
</mgrwt>
</event>
<event>
 4    1 -0.5170493E-019  0.1490785E+02  0.7818608E-02  0.1870894E+00
          2   -1    0    0  501    0  0.00000000000E+00  0.00000000000E+00  0.11876259573E+03  0.11876259575E+03  0.25500000000E-02 0.  1.
         -2   -1    0    0    0  501 -0.00000000000E+00 -0.00000000000E+00 -0.46782867983E+00  0.46783562943E+00  0.25500000000E-02 0. -1.
         31    1    1    2    0    0  0.30413185954E+00 -0.95452536050E-01  0.58981368248E+02  0.59450503226E+02  0.74470750000E+01 0.  1.
        -31    1    1    2    0    0 -0.30413185954E+00  0.95452536050E-01  0.59313398798E+02  0.59779928157E+02  0.74470750000E+01 0. -1.
<mgrwt>
<rscale>  0 0.14907845E+02</rscale>
<asrwt>0</asrwt>
<pdfrwt beam="1">  1        2 0.98588063E+00 0.14907845E+02</pdfrwt>
<pdfrwt beam="2">  1       -2 0.99359596E+00 0.14907845E+02</pdfrwt>
<totfact>-0.28533371E-13</totfact>
</mgrwt>
</event>
<event>
 4    1 -0.5170493E-019  0.1493877E+02  0.7818608E-02  0.1869943E+00
         -2   -1    0    0    0  501 -0.00000000000E+00  0.00000000000E+00  0.11989892185E+03  0.11989892188E+03  0.25500000000E-02 0. -1.
          2   -1    0    0  501    0  0.00000000000E+00 -0.00000000000E+00 -0.46531937441E+00  0.46532636150E+00  0.25500000000E-02 0.  1.
         31    1    1    2    0    0  0.25442033856E+00  0.46462042433E+00  0.57876208354E+02  0.58355762538E+02  0.74470750000E+01 0.  1.
        -31    1    1    2    0    0 -0.25442033856E+00 -0.46462042433E+00  0.61557394126E+02  0.62008485705E+02  0.74470750000E+01 0. -1.
<mgrwt>
<rscale>  0 0.14938770E+02</rscale>
<asrwt>0</asrwt>
<pdfrwt beam="2">  1        2 0.98832402E+00 0.14938770E+02</pdfrwt>
<pdfrwt beam="1">  1       -2 0.99525582E+00 0.14938770E+02</pdfrwt>
<totfact>-0.21257037E-13</totfact>
</mgrwt>
</event>
<event>
 4    1 -0.5170493E-019  0.1498047E+02  0.7818608E-02  0.1868665E+00
          2   -1    0    0  501    0  0.00000000000E+00  0.00000000000E+00  0.12000626507E+03  0.12000626510E+03  0.25500000000E-02 0.  1.
         -2   -1    0    0    0  501 -0.00000000000E+00 -0.00000000000E+00 -0.46750248223E+00  0.46750943669E+00  0.25500000000E-02 0. -1.
         31    1    1    2    0    0  0.42435582598E-01  0.48300097870E+00  0.64916487787E+02  0.65344046426E+02  0.74470750000E+01 0.  1.
        -31    1    1    2    0    0 -0.42435582598E-01 -0.48300097870E+00  0.54622274801E+02  0.55129728107E+02  0.74470750000E+01 0. -1.
<mgrwt>
<rscale>  0 0.14980474E+02</rscale>
<asrwt>0</asrwt>
<pdfrwt beam="1">  1        2 0.99616146E+00 0.14980474E+02</pdfrwt>
<pdfrwt beam="2">  1       -2 0.99294624E+00 0.14980474E+02</pdfrwt>
<totfact>-0.88473331E-14</totfact>
</mgrwt>
</event>
<event>
 4    1  0.5170493E-019  0.1493084E+02  0.7818608E-02  0.1870186E+00
         -2   -1    0    0    0  501 -0.00000000000E+00  0.00000000000E+00  0.11857480698E+03  0.11857480700E+03  0.25500000000E-02 0. -1.
          2   -1    0    0  501    0  0.00000000000E+00 -0.00000000000E+00 -0.47001648458E+00  0.47002340184E+00  0.25500000000E-02 0.  1.
         31    1    1    2    0    0 -0.27473551508E+00  0.23491670206E+00  0.56038024561E+02  0.56531847557E+02  0.74470750000E+01 0.  1.
        -31    1    1    2    0    0  0.27473551508E+00 -0.23491670206E+00  0.62066765929E+02  0.62512982847E+02  0.74470750000E+01 0.  1.
<mgrwt>
<rscale>  0 0.14930844E+02</rscale>
<asrwt>0</asrwt>
<pdfrwt beam="2">  1        2 0.99821790E+00 0.14930844E+02</pdfrwt>
<pdfrwt beam="1">  1       -2 0.98434595E+00 0.14930844E+02</pdfrwt>
<totfact> 0.28997422E-13</totfact>
</mgrwt>
</event>
<event>
 4    1 -0.5170493E-019  0.1494953E+02  0.7818608E-02  0.1869613E+00
         -2   -1    0    0    0  501 -0.00000000000E+00  0.00000000000E+00  0.12025695795E+03  0.12025695798E+03  0.25500000000E-02 0. -1.
          2   -1    0    0  501    0  0.00000000000E+00 -0.00000000000E+00 -0.46460246432E+00  0.46460946218E+00  0.25500000000E-02 0.  1.
         31    1    1    2    0    0 -0.62529451183E+00 -0.13912652837E+00  0.59466775579E+02  0.59934686729E+02  0.74470750000E+01 0. -1.
        -31    1    1    2    0    0  0.62529451183E+00  0.13912652837E+00  0.60325579911E+02  0.60786880715E+02  0.74470750000E+01 0. -1.
<mgrwt>
<rscale>  0 0.14949529E+02</rscale>
<asrwt>0</asrwt>
<pdfrwt beam="2">  1        2 0.98681856E+00 0.14949529E+02</pdfrwt>
<pdfrwt beam="1">  1       -2 0.99821038E+00 0.14949529E+02</pdfrwt>
<totfact>-0.14230484E-13</totfact>
</mgrwt>
</event>
<event>
 4    1  0.5170493E-019  0.1490193E+02  0.7818608E-02  0.1871076E+00
         -2   -1    0    0    0  501 -0.00000000000E+00  0.00000000000E+00  0.11850730375E+03  0.11850730378E+03  0.25500000000E-02 0. -1.
          2   -1    0    0  501    0  0.00000000000E+00 -0.00000000000E+00 -0.46846455154E+00  0.46847149171E+00  0.25500000000E-02 0.  1.
         31    1    1    2    0    0  0.20965516203E+00  0.10468956224E+00  0.59459922629E+02  0.59924921696E+02  0.74470750000E+01 0. -1.
        -31    1    1    2    0    0 -0.20965516203E+00 -0.10468956224E+00  0.58578916573E+02  0.59050853577E+02  0.74470750000E+01 0.  1.
<mgrwt>
<rscale>  0 0.14901931E+02</rscale>
<asrwt>0</asrwt>
<pdfrwt beam="2">  1        2 0.99493271E+00 0.14901931E+02</pdfrwt>
<pdfrwt beam="1">  1       -2 0.98377495E+00 0.14901931E+02</pdfrwt>
<totfact> 0.67119408E-13</totfact>
</mgrwt>
</event>
<event>
 4    1  0.5170493E-019  0.1494102E+02  0.7818608E-02  0.1869874E+00
          2   -1    0    0  501    0  0.00000000000E+00  0.00000000000E+00  0.12005110493E+03  0.12005110495E+03  0.25500000000E-02 0. -1.
         -2   -1    0    0    0  501 -0.00000000000E+00 -0.00000000000E+00 -0.46486928712E+00  0.46487628097E+00  0.25500000000E-02 0.  1.
         31    1    1    2    0    0 -0.17880248157E+00  0.36022199891E+00  0.56297236852E+02  0.56789079350E+02  0.74470750000E+01 0.  1.
        -31    1    1    2    0    0  0.17880248157E+00 -0.36022199891E+00  0.63288998787E+02  0.63726901884E+02  0.74470750000E+01 0. -1.
<mgrwt>
<rscale>  0 0.14941017E+02</rscale>
<asrwt>0</asrwt>
<pdfrwt beam="1">  1        2 0.99651045E+00 0.14941017E+02</pdfrwt>
<pdfrwt beam="2">  1       -2 0.98737659E+00 0.14941017E+02</pdfrwt>
<totfact> 0.16969253E-13</totfact>
</mgrwt>
</event>
<event>
 4    1 -0.5170493E-019  0.1490490E+02  0.7818608E-02  0.1870984E+00
         -2   -1    0    0    0  501 -0.00000000000E+00  0.00000000000E+00  0.11955753210E+03  0.11955753212E+03  0.25500000000E-02 0. -1.
          2   -1    0    0  501    0  0.00000000000E+00 -0.00000000000E+00 -0.46453467648E+00  0.46454167537E+00  0.25500000000E-02 0.  1.
         31    1    1    2    0    0 -0.27464849203E+00 -0.60297390596E-01  0.59807120804E+02  0.60269641550E+02  0.74470750000E+01 0. -1.
        -31    1    1    2    0    0  0.27464849203E+00  0.60297390596E-01  0.59285876617E+02  0.59752432250E+02  0.74470750000E+01 0.  1.
<mgrwt>
<rscale>  0 0.14904904E+02</rscale>
<asrwt>0</asrwt>
<pdfrwt beam="2">  1        2 0.98665293E+00 0.14904904E+02</pdfrwt>
<pdfrwt beam="1">  1       -2 0.99242648E+00 0.14904904E+02</pdfrwt>
<totfact>-0.20458714E-13</totfact>
</mgrwt>
</event>
<event>
 4    1 -0.5170493E-019  0.1492609E+02  0.7818608E-02  0.1870332E+00
         -2   -1    0    0    0  501 -0.00000000000E+00  0.00000000000E+00  0.12008645831E+03  0.12008645834E+03  0.25500000000E-02 0. -1.
          2   -1    0    0  501    0  0.00000000000E+00 -0.00000000000E+00 -0.46380426010E+00  0.46381127001E+00  0.25500000000E-02 0.  1.
         31    1    1    2    0    0 -0.66064495822E-01 -0.13981223650E+00  0.56073416423E+02  0.56565986842E+02  0.74470750000E+01 0.  1.
        -31    1    1    2    0    0  0.66064495822E-01  0.13981223650E+00  0.63549237628E+02  0.63984282766E+02  0.74470750000E+01 0. -1.
<mgrwt>
<rscale>  0 0.14926089E+02</rscale>
<asrwt>0</asrwt>
<pdfrwt beam="2">  1        2 0.98512434E+00 0.14926089E+02</pdfrwt>
<pdfrwt beam="1">  1       -2 0.99679397E+00 0.14926089E+02</pdfrwt>
<totfact>-0.28414676E-13</totfact>
</mgrwt>
</event>
<event>
 4    1 -0.5170493E-019  0.1499196E+02  0.7818608E-02  0.1868314E+00
         -2   -1    0    0    0  501 -0.00000000000E+00  0.00000000000E+00  0.11968318873E+03  0.11968318876E+03  0.25500000000E-02 0. -1.
          2   -1    0    0  501    0  0.00000000000E+00 -0.00000000000E+00 -0.46948356365E+00  0.46949048876E+00  0.25500000000E-02 0.  1.
         31    1    1    2    0    0 -0.36547119627E+00  0.28855638129E+00  0.65352440750E+02  0.65777026932E+02  0.74470750000E+01 0. -1.
        -31    1    1    2    0    0  0.36547119627E+00 -0.28855638129E+00  0.53861264420E+02  0.54375652317E+02  0.74470750000E+01 0.  1.
<mgrwt>
<rscale>  0 0.14991959E+02</rscale>
<asrwt>0</asrwt>
<pdfrwt beam="2">  1        2 0.99712699E+00 0.14991959E+02</pdfrwt>
<pdfrwt beam="1">  1       -2 0.99350642E+00 0.14991959E+02</pdfrwt>
<totfact>-0.79966074E-14</totfact>
</mgrwt>
</event>
<event>
 4    1 -0.5170493E-019  0.1493230E+02  0.7818608E-02  0.1870141E+00
          2   -1    0    0  501    0  0.00000000000E+00  0.00000000000E+00  0.11874059551E+03  0.11874059554E+03  0.25500000000E-02 0.  1.
         -2   -1    0    0    0  501 -0.00000000000E+00 -0.00000000000E+00 -0.46945181978E+00  0.46945874536E+00  0.25500000000E-02 0. -1.
         31    1    1    2    0    0  0.10267344077E+00 -0.46531031172E+00  0.57222534645E+02  0.57707057218E+02  0.74470750000E+01 0. -1.
        -31    1    1    2    0    0 -0.10267344077E+00  0.46531031172E+00  0.61048609048E+02  0.61502997067E+02  0.74470750000E+01 0.  1.
<mgrwt>
<rscale>  0 0.14932301E+02</rscale>
<asrwt>0</asrwt>
<pdfrwt beam="1">  1        2 0.98571214E+00 0.14932301E+02</pdfrwt>
<pdfrwt beam="2">  1       -2 0.99702891E+00 0.14932301E+02</pdfrwt>
<totfact>-0.24664771E-13</totfact>
</mgrwt>
</event>
<event>
 4    1  0.5170493E-019  0.1493514E+02  0.7818608E-02  0.1870054E+00
          2   -1    0    0  501    0  0.00000000000E+00  0.00000000000E+00  0.11981267529E+03  0.11981267531E+03  0.25500000000E-02 0. -1.
         -2   -1    0    0    0  501 -0.00000000000E+00 -0.00000000000E+00 -0.46542818635E+00  0.46543517180E+00  0.25500000000E-02 0.  1.
         31    1    1    2    0    0 -0.13947514841E-01  0.54843080678E+00  0.60226963534E+02  0.60688112785E+02  0.74470750000E+01 0.  1.
        -31    1    1    2    0    0  0.13947514841E-01 -0.54843080678E+00  0.59120283567E+02  0.59589997700E+02  0.74470750000E+01 0. -1.
<mgrwt>
<rscale>  0 0.14935142E+02</rscale>
<asrwt>0</asrwt>
<pdfrwt beam="1">  1        2 0.99454357E+00 0.14935142E+02</pdfrwt>
<pdfrwt beam="2">  1       -2 0.98855148E+00 0.14935142E+02</pdfrwt>
<totfact> 0.11072561E-13</totfact>
</mgrwt>
</event>
<event>
 4    1 -0.5170493E-019  0.1492058E+02  0.7818608E-02  0.1870502E+00
          2   -1    0    0  501    0  0.00000000000E+00  0.00000000000E+00  0.11890020090E+03  0.11890020093E+03  0.25500000000E-02 0.  1.
         -2   -1    0    0    0  501 -0.00000000000E+00 -0.00000000000E+00 -0.46808600738E+00  0.46809295317E+00  0.25500000000E-02 0. -1.
         31    1    1    2    0    0  0.41674333500E+00 -0.59622128878E-01  0.60341241114E+02  0.60800506043E+02  0.74470750000E+01 0.  1.
        -31    1    1    2    0    0 -0.41674333500E+00  0.59622128878E-01  0.58090873779E+02  0.58567787839E+02  0.74470750000E+01 0. -1.
<mgrwt>
<rscale>  0 0.14920581E+02</rscale>
<asrwt>0</asrwt>
<pdfrwt beam="1">  1        2 0.98702057E+00 0.14920581E+02</pdfrwt>
<pdfrwt beam="2">  1       -2 0.99414485E+00 0.14920581E+02</pdfrwt>
<totfact>-0.25150460E-13</totfact>
</mgrwt>
</event>
<event>
 4    1  0.5170493E-019  0.1491169E+02  0.7818608E-02  0.1870775E+00
          2   -1    0    0  501    0  0.00000000000E+00  0.00000000000E+00  0.12009151246E+03  0.12009151249E+03  0.25500000000E-02 0. -1.
         -2   -1    0    0    0  501 -0.00000000000E+00 -0.00000000000E+00 -0.46289054629E+00  0.46289757004E+00  0.25500000000E-02 0.  1.
         31    1    1    2    0    0 -0.19654029505E+00 -0.27569949994E+00  0.60839694351E+02  0.61294714072E+02  0.74470750000E+01 0.  1.
        -31    1    1    2    0    0  0.19654029505E+00  0.27569949994E+00  0.58788927560E+02  0.59259695984E+02  0.74470750000E+01 0.  1.
<mgrwt>
<rscale>  0 0.14911694E+02</rscale>
<asrwt>0</asrwt>
<pdfrwt beam="1">  1        2 0.99682821E+00 0.14911694E+02</pdfrwt>
<pdfrwt beam="2">  1       -2 0.98319124E+00 0.14911694E+02</pdfrwt>
<totfact> 0.58474191E-13</totfact>
</mgrwt>
</event>
<event>
 4    1  0.5170493E-019  0.1491882E+02  0.7818608E-02  0.1870556E+00
          2   -1    0    0  501    0  0.00000000000E+00  0.00000000000E+00  0.11997297750E+03  0.11997297753E+03  0.25500000000E-02 0. -1.
         -2   -1    0    0    0  501 -0.00000000000E+00 -0.00000000000E+00 -0.46379081504E+00  0.46379782515E+00  0.25500000000E-02 0.  1.
         31    1    1    2    0    0  0.20117998530E+00 -0.25017639605E+00  0.62049332699E+02  0.62495453243E+02  0.74470750000E+01 0. -1.
        -31    1    1    2    0    0 -0.20117998530E+00  0.25017639605E+00  0.57459853990E+02  0.57941322114E+02  0.74470750000E+01 0. -1.
<mgrwt>
<rscale>  0 0.14918819E+02</rscale>
<asrwt>0</asrwt>
<pdfrwt beam="1">  1        2 0.99585552E+00 0.14918819E+02</pdfrwt>
<pdfrwt beam="2">  1       -2 0.98509231E+00 0.14918819E+02</pdfrwt>
<totfact> 0.42648518E-13</totfact>
</mgrwt>
</event>
<event>
 4    1 -0.5170493E-019  0.1490915E+02  0.7818608E-02  0.1870853E+00
          2   -1    0    0  501    0  0.00000000000E+00  0.00000000000E+00  0.11820075196E+03  0.11820075199E+03  0.25500000000E-02 0.  1.
         -2   -1    0    0    0  501 -0.00000000000E+00 -0.00000000000E+00 -0.47013493193E+00  0.47014184744E+00  0.25500000000E-02 0. -1.
         31    1    1    2    0    0 -0.13239141281E+00  0.30552604546E+00  0.59106043535E+02  0.59574274499E+02  0.74470750000E+01 0. -1.
        -31    1    1    2    0    0  0.13239141281E+00 -0.30552604546E+00  0.58624573491E+02  0.59096619334E+02  0.74470750000E+01 0.  1.
<mgrwt>
<rscale>  0 0.14909153E+02</rscale>
<asrwt>0</asrwt>
<pdfrwt beam="1">  1        2 0.98125398E+00 0.14909153E+02</pdfrwt>
<pdfrwt beam="2">  1       -2 0.99845598E+00 0.14909153E+02</pdfrwt>
<totfact>-0.31131151E-13</totfact>
</mgrwt>
</event>
<event>
 4    1 -0.5170493E-019  0.1499632E+02  0.7818608E-02  0.1868181E+00
          2   -1    0    0  501    0  0.00000000000E+00  0.00000000000E+00  0.12000253246E+03  0.12000253249E+03  0.25500000000E-02 0.  1.
         -2   -1    0    0    0  501 -0.00000000000E+00 -0.00000000000E+00 -0.46850644880E+00  0.46851338835E+00  0.25500000000E-02 0. -1.
         31    1    1    2    0    0  0.51959098670E+00  0.62160442327E+00  0.57138158359E+02  0.57627115437E+02  0.74470750000E+01 0. -1.
        -31    1    1    2    0    0 -0.51959098670E+00 -0.62160442327E+00  0.62395867655E+02  0.62843930441E+02  0.74470750000E+01 0.  1.
<mgrwt>
<rscale>  0 0.14996317E+02</rscale>
<asrwt>0</asrwt>
<pdfrwt beam="1">  1        2 0.99613890E+00 0.14996317E+02</pdfrwt>
<pdfrwt beam="2">  1       -2 0.99507016E+00 0.14996317E+02</pdfrwt>
<totfact>-0.10317852E-13</totfact>
</mgrwt>
</event>
<event>
 4    1 -0.5170493E-019  0.1494848E+02  0.7818608E-02  0.1869645E+00
          2   -1    0    0  501    0  0.00000000000E+00  0.00000000000E+00  0.11952610982E+03  0.11952610985E+03  0.25500000000E-02 0. -1.
         -2   -1    0    0    0  501 -0.00000000000E+00 -0.00000000000E+00 -0.46737793010E+00  0.46738488641E+00  0.25500000000E-02 0.  1.
         31    1    1    2    0    0  0.77261269950E-01 -0.12461813913E+00  0.54556040581E+02  0.55062164767E+02  0.74470750000E+01 0.  1.
        -31    1    1    2    0    0 -0.77261269950E-01  0.12461813913E+00  0.64502691312E+02  0.64931329969E+02  0.74470750000E+01 0. -1.
<mgrwt>
<rscale>  0 0.14948483E+02</rscale>
<asrwt>0</asrwt>
<pdfrwt beam="1">  1        2 0.99219017E+00 0.14948483E+02</pdfrwt>
<pdfrwt beam="2">  1       -2 0.99266726E+00 0.14948483E+02</pdfrwt>
<totfact>-0.12087956E-13</totfact>
</mgrwt>
</event>
<event>
 4    1 -0.5170493E-019  0.1491029E+02  0.7818608E-02  0.1870819E+00
         -2   -1    0    0    0  501 -0.00000000000E+00  0.00000000000E+00  0.12001652314E+03  0.12001652317E+03  0.25500000000E-02 0. -1.
          2   -1    0    0  501    0  0.00000000000E+00 -0.00000000000E+00 -0.46309236937E+00  0.46309939005E+00  0.25500000000E-02 0.  1.
         31    1    1    2    0    0 -0.28620024780E+00  0.18405108512E+00  0.60315689217E+02  0.60774641728E+02  0.74470750000E+01 0. -1.
        -31    1    1    2    0    0  0.28620024780E+00 -0.18405108512E+00  0.59237741554E+02  0.59704980830E+02  0.74470750000E+01 0. -1.
<mgrwt>
<rscale>  0 0.14910286E+02</rscale>
<asrwt>0</asrwt>
<pdfrwt beam="2">  1        2 0.98361590E+00 0.14910286E+02</pdfrwt>
<pdfrwt beam="1">  1       -2 0.99620981E+00 0.14910286E+02</pdfrwt>
<totfact>-0.39966715E-13</totfact>
</mgrwt>
</event>
<event>
 4    1 -0.5170493E-019  0.1502609E+02  0.7818608E-02  0.1867273E+00
         -2   -1    0    0    0  501 -0.00000000000E+00  0.00000000000E+00  0.12015166552E+03  0.12015166555E+03  0.25500000000E-02 0. -1.
          2   -1    0    0  501    0  0.00000000000E+00 -0.00000000000E+00 -0.46978505028E+00  0.46979197094E+00  0.25500000000E-02 0.  1.
         31    1    1    2    0    0  0.13433606854E+00 -0.65143561986E+00  0.53917265144E+02  0.54433195949E+02  0.74470750000E+01 0.  1.
        -31    1    1    2    0    0 -0.13433606854E+00  0.65143561986E+00  0.65764615326E+02  0.66188261570E+02  0.74470750000E+01 0. -1.
<mgrwt>
<rscale>  0 0.15026094E+02</rscale>
<asrwt>0</asrwt>
<pdfrwt beam="2">  1        2 0.99778001E+00 0.15026094E+02</pdfrwt>
<pdfrwt beam="1">  1       -2 0.99738261E+00 0.15026094E+02</pdfrwt>
<totfact>-0.51801571E-14</totfact>
</mgrwt>
</event>
<event>
 4    1  0.5170493E-019  0.1491003E+02  0.7818608E-02  0.1870826E+00
         -2   -1    0    0    0  501 -0.00000000000E+00  0.00000000000E+00  0.11830788300E+03  0.11830788303E+03  0.25500000000E-02 0.  1.
          2   -1    0    0  501    0  0.00000000000E+00 -0.00000000000E+00 -0.46976455814E+00  0.46977147911E+00  0.25500000000E-02 0. -1.
         31    1    1    2    0    0 -0.23252932808E+00 -0.25017156934E+00  0.58592413450E+02  0.59064765263E+02  0.74470750000E+01 0.  1.
        -31    1    1    2    0    0  0.23252932808E+00  0.25017156934E+00  0.59245704996E+02  0.59712889247E+02  0.74470750000E+01 0. -1.
<mgrwt>
<rscale>  0 0.14910032E+02</rscale>
<asrwt>0</asrwt>
<pdfrwt beam="2">  1        2 0.99767610E+00 0.14910032E+02</pdfrwt>
<pdfrwt beam="1">  1       -2 0.98213675E+00 0.14910032E+02</pdfrwt>
<totfact> 0.58801862E-13</totfact>
</mgrwt>
</event>
<event>
 4    1 -0.5170493E-019  0.1489968E+02  0.7818608E-02  0.1871145E+00
          2   -1    0    0  501    0  0.00000000000E+00  0.00000000000E+00  0.11869793732E+03  0.11869793734E+03  0.25500000000E-02 0.  1.
         -2   -1    0    0    0  501 -0.00000000000E+00 -0.00000000000E+00 -0.46757086056E+00  0.46757781400E+00  0.25500000000E-02 0. -1.
         31    1    1    2    0    0 -0.70270318867E-01  0.18380445737E+00  0.58718133051E+02  0.59188823244E+02  0.74470750000E+01 0. -1.
        -31    1    1    2    0    0  0.70270318867E-01 -0.18380445737E+00  0.59512233405E+02  0.59976691914E+02  0.74470750000E+01 0. -1.
<mgrwt>
<rscale>  0 0.14899680E+02</rscale>
<asrwt>0</asrwt>
<pdfrwt beam="1">  1        2 0.98534386E+00 0.14899680E+02</pdfrwt>
<pdfrwt beam="2">  1       -2 0.99304843E+00 0.14899680E+02</pdfrwt>
<totfact>-0.28762636E-13</totfact>
</mgrwt>
</event>
<event>
 4    1 -0.5170493E-019  0.1490979E+02  0.7818608E-02  0.1870834E+00
         -2   -1    0    0    0  501 -0.00000000000E+00  0.00000000000E+00  0.11985326392E+03  0.11985326395E+03  0.25500000000E-02 0.  1.
          2   -1    0    0  501    0  0.00000000000E+00 -0.00000000000E+00 -0.46369254043E+00  0.46369955203E+00  0.25500000000E-02 0. -1.
         31    1    1    2    0    0  0.52296846096E-01  0.31648269520E+00  0.58751444439E+02  0.59222411687E+02  0.74470750000E+01 0. -1.
        -31    1    1    2    0    0 -0.52296846096E-01 -0.31648269520E+00  0.60638126939E+02  0.61094551811E+02  0.74470750000E+01 0.  1.
<mgrwt>
<rscale>  0 0.14909794E+02</rscale>
<asrwt>0</asrwt>
<pdfrwt beam="2">  1        2 0.98488059E+00 0.14909794E+02</pdfrwt>
<pdfrwt beam="1">  1       -2 0.99486484E+00 0.14909794E+02</pdfrwt>
<totfact>-0.35467824E-13</totfact>
</mgrwt>
</event>
<event>
 4    1 -0.5170493E-019  0.1500660E+02  0.7818608E-02  0.1867867E+00
         -2   -1    0    0    0  501 -0.00000000000E+00  0.00000000000E+00  0.12007569704E+03  0.12007569706E+03  0.25500000000E-02 0.  1.
          2   -1    0    0  501    0  0.00000000000E+00 -0.00000000000E+00 -0.46886340069E+00  0.46887033497E+00  0.25500000000E-02 0. -1.
         31    1    1    2    0    0  0.79243706350E+00  0.35304091983E+00  0.57420528769E+02  0.57907932484E+02  0.74470750000E+01 0.  1.
        -31    1    1    2    0    0 -0.79243706350E+00 -0.35304091983E+00  0.62186304868E+02  0.62636634916E+02  0.74470750000E+01 0.  1.
<mgrwt>
<rscale>  0 0.15006601E+02</rscale>
<asrwt>0</asrwt>
<pdfrwt beam="2">  1        2 0.99582770E+00 0.15006601E+02</pdfrwt>
<pdfrwt beam="1">  1       -2 0.99674682E+00 0.15006601E+02</pdfrwt>
<totfact>-0.91140579E-14</totfact>
</mgrwt>
</event>
<event>
 4    1 -0.5170493E-019  0.1491735E+02  0.7818608E-02  0.1870601E+00
         -2   -1    0    0    0  501 -0.00000000000E+00  0.00000000000E+00  0.12024659471E+03  0.12024659474E+03  0.25500000000E-02 0.  1.
          2   -1    0    0  501    0  0.00000000000E+00 -0.00000000000E+00 -0.46264453314E+00  0.46265156062E+00  0.25500000000E-02 0. -1.
         31    1    1    2    0    0 -0.66963905336E-01 -0.38121001913E+00  0.61122475125E+02  0.61575690793E+02  0.74470750000E+01 0.  1.
        -31    1    1    2    0    0  0.66963905336E-01  0.38121001913E+00  0.58661475056E+02  0.59133555508E+02  0.74470750000E+01 0.  1.
<mgrwt>
<rscale>  0 0.14917353E+02</rscale>
<asrwt>0</asrwt>
<pdfrwt beam="2">  1        2 0.98267558E+00 0.14917353E+02</pdfrwt>
<pdfrwt beam="1">  1       -2 0.99810850E+00 0.14917353E+02</pdfrwt>
<totfact>-0.29052805E-13</totfact>
</mgrwt>
</event>
<event>
 4    1  0.5170493E-019  0.1493710E+02  0.7818608E-02  0.1869994E+00
         -2   -1    0    0    0  501 -0.00000000000E+00  0.00000000000E+00  0.11898876026E+03  0.11898876029E+03  0.25500000000E-02 0.  1.
          2   -1    0    0  501    0  0.00000000000E+00 -0.00000000000E+00 -0.46877402705E+00  0.46878096264E+00  0.25500000000E-02 0. -1.
         31    1    1    2    0    0 -0.53992467666E+00  0.14985746113E+00  0.58622494960E+02  0.59096275833E+02  0.74470750000E+01 0. -1.
        -31    1    1    2    0    0  0.53992467666E+00 -0.14985746113E+00  0.59897491275E+02  0.60361265419E+02  0.74470750000E+01 0.  1.
<mgrwt>
<rscale>  0 0.14937102E+02</rscale>
<asrwt>0</asrwt>
<pdfrwt beam="2">  1        2 0.99560325E+00 0.14937102E+02</pdfrwt>
<pdfrwt beam="1">  1       -2 0.98775853E+00 0.14937102E+02</pdfrwt>
<totfact> 0.16119803E-13</totfact>
</mgrwt>
</event>
<event>
 4    1 -0.5170493E-019  0.1493956E+02  0.7818608E-02  0.1869918E+00
          2   -1    0    0  501    0  0.00000000000E+00  0.00000000000E+00  0.11903868351E+03  0.11903868353E+03  0.25500000000E-02 0. -1.
         -2   -1    0    0    0  501 -0.00000000000E+00 -0.00000000000E+00 -0.46873160009E+00  0.46873853631E+00  0.25500000000E-02 0.  1.
         31    1    1    2    0    0 -0.27456204664E+00  0.19705258258E+00  0.55495013709E+02  0.55993478965E+02  0.74470750000E+01 0.  1.
        -31    1    1    2    0    0  0.27456204664E+00 -0.19705258258E+00  0.63074938197E+02  0.63513943104E+02  0.74470750000E+01 0. -1.
<mgrwt>
<rscale>  0 0.14939559E+02</rscale>
<asrwt>0</asrwt>
<pdfrwt beam="1">  1        2 0.98817098E+00 0.14939559E+02</pdfrwt>
<pdfrwt beam="2">  1       -2 0.99551513E+00 0.14939559E+02</pdfrwt>
<totfact>-0.21365747E-13</totfact>
</mgrwt>
</event>
<event>
 4    1 -0.5170493E-019  0.1491562E+02  0.7818608E-02  0.1870654E+00
          2   -1    0    0  501    0  0.00000000000E+00  0.00000000000E+00  0.11870373662E+03  0.11870373665E+03  0.25500000000E-02 0.  1.
         -2   -1    0    0    0  501 -0.00000000000E+00 -0.00000000000E+00 -0.46854928403E+00  0.46855622295E+00  0.25500000000E-02 0. -1.
         31    1    1    2    0    0  0.16368069021E+00  0.19402463107E-01  0.56205196409E+02  0.56696650671E+02  0.74470750000E+01 0. -1.
        -31    1    1    2    0    0 -0.16368069021E+00 -0.19402463107E-01  0.62029990925E+02  0.62475642197E+02  0.74470750000E+01 0.  1.
<mgrwt>
<rscale>  0 0.14915625E+02</rscale>
<asrwt>0</asrwt>
<pdfrwt beam="1">  1        2 0.98539990E+00 0.14915625E+02</pdfrwt>
<pdfrwt beam="2">  1       -2 0.99511844E+00 0.14915625E+02</pdfrwt>
<totfact>-0.32452509E-13</totfact>
</mgrwt>
</event>
<event>
 4    1  0.5170493E-019  0.1491303E+02  0.7818608E-02  0.1870734E+00
         -2   -1    0    0    0  501 -0.00000000000E+00  0.00000000000E+00  0.11832291427E+03  0.11832291429E+03  0.25500000000E-02 0.  1.
          2   -1    0    0  501    0  0.00000000000E+00 -0.00000000000E+00 -0.46989399702E+00  0.46990091609E+00  0.25500000000E-02 0. -1.
         31    1    1    2    0    0 -0.20091283717E+00 -0.28974501831E+00  0.59946478836E+02  0.60408307120E+02  0.74470750000E+01 0.  1.
        -31    1    1    2    0    0  0.20091283717E+00  0.28974501831E+00  0.57906541434E+02  0.58384508091E+02  0.74470750000E+01 0. -1.
<mgrwt>
<rscale>  0 0.14913033E+02</rscale>
<asrwt>0</asrwt>
<pdfrwt beam="2">  1        2 0.99795041E+00 0.14913033E+02</pdfrwt>
<pdfrwt beam="1">  1       -2 0.98226211E+00 0.14913033E+02</pdfrwt>
<totfact> 0.52113276E-13</totfact>
</mgrwt>
</event>
<event>
 4    1 -0.5170493E-019  0.1490967E+02  0.7818608E-02  0.1870837E+00
          2   -1    0    0  501    0  0.00000000000E+00  0.00000000000E+00  0.11852939365E+03  0.11852939368E+03  0.25500000000E-02 0. -1.
         -2   -1    0    0    0  501 -0.00000000000E+00 -0.00000000000E+00 -0.46886405995E+00  0.46887099421E+00  0.25500000000E-02 0.  1.
         31    1    1    2    0    0  0.63267653728E-01 -0.27185442657E+00  0.60581043318E+02  0.61037690349E+02  0.74470750000E+01 0. -1.
        -31    1    1    2    0    0 -0.63267653728E-01  0.27185442657E+00  0.57479486277E+02  0.57960574327E+02  0.74470750000E+01 0. -1.
<mgrwt>
<rscale>  0 0.14909673E+02</rscale>
<asrwt>0</asrwt>
<pdfrwt beam="1">  1        2 0.98396091E+00 0.14909673E+02</pdfrwt>
<pdfrwt beam="2">  1       -2 0.99577856E+00 0.14909673E+02</pdfrwt>
<totfact>-0.39501343E-13</totfact>
</mgrwt>
</event>
<event>
 4    1  0.5170493E-019  0.1496335E+02  0.7818608E-02  0.1869189E+00
         -2   -1    0    0    0  501 -0.00000000000E+00  0.00000000000E+00  0.11913638167E+03  0.11913638170E+03  0.25500000000E-02 0. -1.
          2   -1    0    0  501    0  0.00000000000E+00 -0.00000000000E+00 -0.46984006901E+00  0.46984698887E+00  0.25500000000E-02 0.  1.
         31    1    1    2    0    0  0.42598934493E+00 -0.44482612510E+00  0.62294000990E+02  0.62740583537E+02  0.74470750000E+01 0. -1.
        -31    1    1    2    0    0 -0.42598934493E+00  0.44482612510E+00  0.56372540612E+02  0.56865645150E+02  0.74470750000E+01 0.  1.
<mgrwt>
<rscale>  0 0.14963350E+02</rscale>
<asrwt>0</asrwt>
<pdfrwt beam="2">  1        2 0.99786328E+00 0.14963350E+02</pdfrwt>
<pdfrwt beam="1">  1       -2 0.98898798E+00 0.14963350E+02</pdfrwt>
<totfact> 0.42385518E-14</totfact>
</mgrwt>
</event>
<event>
 4    1 -0.5170493E-019  0.1492452E+02  0.7818608E-02  0.1870381E+00
          2   -1    0    0  501    0  0.00000000000E+00  0.00000000000E+00  0.11924078507E+03  0.11924078509E+03  0.25500000000E-02 0.  1.
         -2   -1    0    0    0  501 -0.00000000000E+00 -0.00000000000E+00 -0.46699522920E+00  0.46700219121E+00  0.25500000000E-02 0. -1.
         31    1    1    2    0    0 -0.44381430899E+00  0.17146090568E+00  0.59388670363E+02  0.59855655235E+02  0.74470750000E+01 0. -1.
        -31    1    1    2    0    0  0.44381430899E+00 -0.17146090568E+00  0.59385119475E+02  0.59852132051E+02  0.74470750000E+01 0.  1.
<mgrwt>
<rscale>  0 0.14924516E+02</rscale>
<asrwt>0</asrwt>
<pdfrwt beam="1">  1        2 0.98982774E+00 0.14924516E+02</pdfrwt>
<pdfrwt beam="2">  1       -2 0.99184838E+00 0.14924516E+02</pdfrwt>
<totfact>-0.11266214E-13</totfact>
</mgrwt>
</event>
<event>
 4    1 -0.5170493E-019  0.1495146E+02  0.7818608E-02  0.1869553E+00
          2   -1    0    0  501    0  0.00000000000E+00  0.00000000000E+00  0.11943526546E+03  0.11943526549E+03  0.25500000000E-02 0.  1.
         -2   -1    0    0    0  501 -0.00000000000E+00 -0.00000000000E+00 -0.46791999571E+00  0.46792694396E+00  0.25500000000E-02 0. -1.
         31    1    1    2    0    0  0.27321769389E+00  0.36238572814E+00  0.63259396502E+02  0.63697850381E+02  0.74470750000E+01 0.  1.
        -31    1    1    2    0    0 -0.27321769389E+00 -0.36238572814E+00  0.55707948964E+02  0.56205342052E+02  0.74470750000E+01 0. -1.
<mgrwt>
<rscale>  0 0.14951464E+02</rscale>
<asrwt>0</asrwt>
<pdfrwt beam="1">  1        2 0.99144349E+00 0.14951464E+02</pdfrwt>
<pdfrwt beam="2">  1       -2 0.99381110E+00 0.14951464E+02</pdfrwt>
<totfact>-0.15223821E-13</totfact>
</mgrwt>
</event>
<event>
 4    1 -0.5170493E-019  0.1496469E+02  0.7818608E-02  0.1869148E+00
         -2   -1    0    0    0  501 -0.00000000000E+00  0.00000000000E+00  0.12026506239E+03  0.12026506241E+03  0.25500000000E-02 0. -1.
          2   -1    0    0  501    0  0.00000000000E+00 -0.00000000000E+00 -0.46551373141E+00  0.46552071557E+00  0.25500000000E-02 0.  1.
         31    1    1    2    0    0 -0.42653130687E+00 -0.22643169362E+00  0.64269271986E+02  0.64701093097E+02  0.74470750000E+01 0. -1.
        -31    1    1    2    0    0  0.42653130687E+00  0.22643169362E+00  0.55530276669E+02  0.56029490033E+02  0.74470750000E+01 0. -1.
<mgrwt>
<rscale>  0 0.14964687E+02</rscale>
<asrwt>0</asrwt>
<pdfrwt beam="2">  1        2 0.98874686E+00 0.14964687E+02</pdfrwt>
<pdfrwt beam="1">  1       -2 0.99828493E+00 0.14964687E+02</pdfrwt>
<totfact>-0.10673783E-13</totfact>
</mgrwt>
</event>
<event>
 4    1  0.5170493E-019  0.1491984E+02  0.7818608E-02  0.1870525E+00
          2   -1    0    0  501    0  0.00000000000E+00  0.00000000000E+00  0.12014043178E+03  0.12014043181E+03  0.25500000000E-02 0.  1.
         -2   -1    0    0    0  501 -0.00000000000E+00 -0.00000000000E+00 -0.46320758833E+00  0.46321460727E+00  0.25500000000E-02 0. -1.
         31    1    1    2    0    0 -0.20346028790E-01  0.36977682118E+00  0.57954811994E+02  0.58432493598E+02  0.74470750000E+01 0. -1.
        -31    1    1    2    0    0  0.20346028790E-01 -0.36977682118E+00  0.61722412198E+02  0.62171152816E+02  0.74470750000E+01 0. -1.
<mgrwt>
<rscale>  0 0.14919837E+02</rscale>
<asrwt>0</asrwt>
<pdfrwt beam="1">  1        2 0.99723533E+00 0.14919837E+02</pdfrwt>
<pdfrwt beam="2">  1       -2 0.98386359E+00 0.14919837E+02</pdfrwt>
<totfact> 0.45544251E-13</totfact>
</mgrwt>
</event>
<event>
 4    1 -0.5170493E-019  0.1492103E+02  0.7818608E-02  0.1870488E+00
          2   -1    0    0  501    0  0.00000000000E+00  0.00000000000E+00  0.11863328149E+03  0.11863328151E+03  0.25500000000E-02 0.  1.
         -2   -1    0    0    0  501 -0.00000000000E+00 -0.00000000000E+00 -0.46916731296E+00  0.46917424274E+00  0.25500000000E-02 0. -1.
         31    1    1    2    0    0 -0.29862391539E+00  0.12738989965E+00  0.56622536166E+02  0.57111084146E+02  0.74470750000E+01 0. -1.
        -31    1    1    2    0    0  0.29862391539E+00 -0.12738989965E+00  0.61541578007E+02  0.61991371610E+02  0.74470750000E+01 0.  1.
<mgrwt>
<rscale>  0 0.14921028E+02</rscale>
<asrwt>0</asrwt>
<pdfrwt beam="1">  1        2 0.98482244E+00 0.14921028E+02</pdfrwt>
<pdfrwt beam="2">  1       -2 0.99642351E+00 0.14921028E+02</pdfrwt>
<totfact>-0.31767074E-13</totfact>
</mgrwt>
</event>
<event>
 4    1 -0.5170493E-019  0.1500748E+02  0.7818608E-02  0.1867840E+00
          2   -1    0    0  501    0  0.00000000000E+00  0.00000000000E+00  0.11971236621E+03  0.11971236624E+03  0.25500000000E-02 0. -1.
         -2   -1    0    0    0  501 -0.00000000000E+00 -0.00000000000E+00 -0.47034158852E+00  0.47034850100E+00  0.25500000000E-02 0.  1.
         31    1    1    2    0    0 -0.66161093903E-01 -0.58983854087E+00  0.53987273213E+02  0.54501714485E+02  0.74470750000E+01 0. -1.
        -31    1    1    2    0    0  0.66161093903E-01  0.58983854087E+00  0.65254751413E+02  0.65681000257E+02  0.74470750000E+01 0. -1.
<mgrwt>
<rscale>  0 0.15007481E+02</rscale>
<asrwt>0</asrwt>
<pdfrwt beam="1">  1        2 0.99375477E+00 0.15007481E+02</pdfrwt>
<pdfrwt beam="2">  1       -2 0.99894312E+00 0.15007481E+02</pdfrwt>
<totfact>-0.45567547E-14</totfact>
</mgrwt>
</event>
<event>
 4    1 -0.5170493E-019  0.1496597E+02  0.7818608E-02  0.1869109E+00
         -2   -1    0    0    0  501 -0.00000000000E+00  0.00000000000E+00  0.11971116656E+03  0.11971116658E+03  0.25500000000E-02 0.  1.
          2   -1    0    0  501    0  0.00000000000E+00 -0.00000000000E+00 -0.46774808463E+00  0.46775503544E+00  0.25500000000E-02 0. -1.
         31    1    1    2    0    0 -0.92687980919E-01  0.36487767668E+00  0.54578450544E+02  0.55085460120E+02  0.74470750000E+01 0. -1.
        -31    1    1    2    0    0  0.92687980919E-01 -0.36487767668E+00  0.64664967928E+02  0.65093461499E+02  0.74470750000E+01 0. -1.
<mgrwt>
<rscale>  0 0.14965973E+02</rscale>
<asrwt>0</asrwt>
<pdfrwt beam="2">  1        2 0.99345634E+00 0.14965973E+02</pdfrwt>
<pdfrwt beam="1">  1       -2 0.99372341E+00 0.14965973E+02</pdfrwt>
<totfact>-0.13037924E-13</totfact>
</mgrwt>
</event>
<event>
 4    1 -0.5170493E-019  0.1495396E+02  0.7818608E-02  0.1869477E+00
          2   -1    0    0  501    0  0.00000000000E+00  0.00000000000E+00  0.11967342649E+03  0.11967342652E+03  0.25500000000E-02 0.  1.
         -2   -1    0    0    0  501 -0.00000000000E+00 -0.00000000000E+00 -0.46714496311E+00  0.46715192289E+00  0.25500000000E-02 0. -1.
         31    1    1    2    0    0  0.15827040646E+00  0.44642913976E+00  0.63388384042E+02  0.63826095808E+02  0.74470750000E+01 0.  1.
        -31    1    1    2    0    0 -0.15827040646E+00 -0.44642913976E+00  0.55817897485E+02  0.56314482633E+02  0.74470750000E+01 0. -1.
<mgrwt>
<rscale>  0 0.14953964E+02</rscale>
<asrwt>0</asrwt>
<pdfrwt beam="1">  1        2 0.99340636E+00 0.14953964E+02</pdfrwt>
<pdfrwt beam="2">  1       -2 0.99217915E+00 0.14953964E+02</pdfrwt>
<totfact>-0.96391877E-14</totfact>
</mgrwt>
</event>
<event>
 4    1  0.5170493E-019  0.1490930E+02  0.7818608E-02  0.1870849E+00
          2   -1    0    0  501    0  0.00000000000E+00  0.00000000000E+00  0.12019962036E+03  0.12019962039E+03  0.25500000000E-02 0.  1.
         -2   -1    0    0    0  501 -0.00000000000E+00 -0.00000000000E+00 -0.46232552519E+00  0.46233255751E+00  0.25500000000E-02 0. -1.
         31    1    1    2    0    0 -0.17153668889E+00  0.26208961494E+00  0.58886192520E+02  0.59356050335E+02  0.74470750000E+01 0. -1.
        -31    1    1    2    0    0  0.17153668889E+00 -0.26208961494E+00  0.60851102316E+02  0.61305902611E+02  0.74470750000E+01 0.  1.
<mgrwt>
<rscale>  0 0.14909296E+02</rscale>
<asrwt>0</asrwt>
<pdfrwt beam="1">  1        2 0.99771745E+00 0.14909296E+02</pdfrwt>
<pdfrwt beam="2">  1       -2 0.98199913E+00 0.14909296E+02</pdfrwt>
<totfact> 0.59640355E-13</totfact>
</mgrwt>
</event>
<event>
 4    1 -0.5170493E-019  0.1492531E+02  0.7818608E-02  0.1870356E+00
         -2   -1    0    0    0  501 -0.00000000000E+00  0.00000000000E+00  0.12023088297E+03  0.12023088299E+03  0.25500000000E-02 0. -1.
          2   -1    0    0  501    0  0.00000000000E+00 -0.00000000000E+00 -0.46319885191E+00  0.46320587098E+00  0.25500000000E-02 0.  1.
         31    1    1    2    0    0  0.44015450428E+00  0.12123240817E+00  0.58634404628E+02  0.59107197238E+02  0.74470750000E+01 0. -1.
        -31    1    1    2    0    0 -0.44015450428E+00 -0.12123240817E+00  0.61133279487E+02  0.61586891626E+02  0.74470750000E+01 0. -1.
<mgrwt>
<rscale>  0 0.14925312E+02</rscale>
<asrwt>0</asrwt>
<pdfrwt beam="2">  1        2 0.98384795E+00 0.14925312E+02</pdfrwt>
<pdfrwt beam="1">  1       -2 0.99798317E+00 0.14925312E+02</pdfrwt>
<totfact>-0.25116594E-13</totfact>
</mgrwt>
</event>
<event>
 4    1 -0.5170493E-019  0.1489662E+02  0.7818608E-02  0.1871240E+00
         -2   -1    0    0    0  501 -0.00000000000E+00  0.00000000000E+00  0.12004645457E+03  0.12004645459E+03  0.25500000000E-02 0. -1.
          2   -1    0    0  501    0  0.00000000000E+00 -0.00000000000E+00 -0.46212871720E+00  0.46213575253E+00  0.25500000000E-02 0.  1.
         31    1    1    2    0    0 -0.12792370939E+00  0.22645275294E-02  0.59426430335E+02  0.59891367642E+02  0.74470750000E+01 0. -1.
        -31    1    1    2    0    0  0.12792370939E+00 -0.22645275294E-02  0.60157895513E+02  0.60617222703E+02  0.74470750000E+01 0.  1.
<mgrwt>
<rscale>  0 0.14896622E+02</rscale>
<asrwt>0</asrwt>
<pdfrwt beam="2">  1        2 0.98157791E+00 0.14896622E+02</pdfrwt>
<pdfrwt beam="1">  1       -2 0.99644934E+00 0.14896622E+02</pdfrwt>
<totfact>-0.54529820E-13</totfact>
</mgrwt>
</event>
<event>
 4    1  0.5170493E-019  0.1489736E+02  0.7818608E-02  0.1871217E+00
          2   -1    0    0  501    0  0.00000000000E+00  0.00000000000E+00  0.12036046633E+03  0.12036046636E+03  0.25500000000E-02 0. -1.
         -2   -1    0    0    0  501 -0.00000000000E+00 -0.00000000000E+00 -0.46096880736E+00  0.46097586039E+00  0.25500000000E-02 0.  1.
         31    1    1    2    0    0  0.10318119778E-01 -0.15112730239E+00  0.59696330847E+02  0.60159236935E+02  0.74470750000E+01 0. -1.
        -31    1    1    2    0    0 -0.10318119778E-01  0.15112730239E+00  0.60203166680E+02  0.60662205287E+02  0.74470750000E+01 0. -1.
<mgrwt>
<rscale>  0 0.14897362E+02</rscale>
<asrwt>0</asrwt>
<pdfrwt beam="1">  1        2 0.99903622E+00 0.14897362E+02</pdfrwt>
<pdfrwt beam="2">  1       -2 0.97913346E+00 0.14897362E+02</pdfrwt>
<totfact> 0.48378927E-13</totfact>
</mgrwt>
</event>
<event>
 4    1  0.5170493E-019  0.1489983E+02  0.7818608E-02  0.1871141E+00
          2   -1    0    0  501    0  0.00000000000E+00  0.00000000000E+00  0.12028657740E+03  0.12028657742E+03  0.25500000000E-02 0. -1.
         -2   -1    0    0    0  501 -0.00000000000E+00 -0.00000000000E+00 -0.46140467382E+00  0.46141172019E+00  0.25500000000E-02 0.  1.
         31    1    1    2    0    0 -0.13491447929E+00 -0.12602019941E+00  0.60646746415E+02  0.61102543808E+02  0.74470750000E+01 0.  1.
        -31    1    1    2    0    0  0.13491447929E+00  0.12602019941E+00  0.59178426308E+02  0.59645445336E+02  0.74470750000E+01 0. -1.
<mgrwt>
<rscale>  0 0.14899828E+02</rscale>
<asrwt>0</asrwt>
<pdfrwt beam="1">  1        2 0.99842886E+00 0.14899828E+02</pdfrwt>
<pdfrwt beam="2">  1       -2 0.98005342E+00 0.14899828E+02</pdfrwt>
<totfact> 0.63424605E-13</totfact>
</mgrwt>
</event>
<event>
 4    1 -0.5170493E-019  0.1492670E+02  0.7818608E-02  0.1870314E+00
          2   -1    0    0  501    0  0.00000000000E+00  0.00000000000E+00  0.11929579867E+03  0.11929579869E+03  0.25500000000E-02 0.  1.
         -2   -1    0    0    0  501 -0.00000000000E+00 -0.00000000000E+00 -0.46691645229E+00  0.46692341548E+00  0.25500000000E-02 0. -1.
         31    1    1    2    0    0  0.25730404206E+00 -0.11941904013E+00  0.56183122757E+02  0.56675238642E+02  0.74470750000E+01 0. -1.
        -31    1    1    2    0    0 -0.25730404206E+00  0.11941904013E+00  0.62645759457E+02  0.63087483468E+02  0.74470750000E+01 0. -1.
<mgrwt>
<rscale>  0 0.14926700E+02</rscale>
<asrwt>0</asrwt>
<pdfrwt beam="1">  1        2 0.99028198E+00 0.14926700E+02</pdfrwt>
<pdfrwt beam="2">  1       -2 0.99168350E+00 0.14926700E+02</pdfrwt>
<totfact>-0.99830847E-14</totfact>
</mgrwt>
</event>
<event>
 4    1 -0.5170493E-019  0.1489492E+02  0.7818608E-02  0.1871292E+00
         -2   -1    0    0    0  501 -0.00000000000E+00  0.00000000000E+00  0.12014932593E+03  0.12014932596E+03  0.25500000000E-02 0. -1.
          2   -1    0    0  501    0  0.00000000000E+00 -0.00000000000E+00 -0.46162758870E+00  0.46163463166E+00  0.25500000000E-02 0.  1.
         31    1    1    2    0    0 -0.39557303763E-01 -0.55765151200E-01  0.60108647842E+02  0.60568251965E+02  0.74470750000E+01 0. -1.
        -31    1    1    2    0    0  0.39557303763E-01  0.55765151200E-01  0.59579050499E+02  0.60042708624E+02  0.74470750000E+01 0.  1.
<mgrwt>
<rscale>  0 0.14894921E+02</rscale>
<asrwt>0</asrwt>
<pdfrwt beam="2">  1        2 0.98052081E+00 0.14894921E+02</pdfrwt>
<pdfrwt beam="1">  1       -2 0.99729581E+00 0.14894921E+02</pdfrwt>
<totfact>-0.54851810E-13</totfact>
</mgrwt>
</event>
<event>
 4    1  0.5170493E-019  0.1490092E+02  0.7818608E-02  0.1871107E+00
          2   -1    0    0  501    0  0.00000000000E+00  0.00000000000E+00  0.11948666349E+03  0.11948666351E+03  0.25500000000E-02 0.  1.
         -2   -1    0    0    0  501 -0.00000000000E+00 -0.00000000000E+00 -0.46456146397E+00  0.46456846246E+00  0.25500000000E-02 0. -1.
         31    1    1    2    0    0 -0.18065176907E+00 -0.25146928460E-01  0.58457550033E+02  0.58930275320E+02  0.74470750000E+01 0. -1.
        -31    1    1    2    0    0  0.18065176907E+00  0.25146928460E-01  0.60564551990E+02  0.61020956656E+02  0.74470750000E+01 0.  1.
<mgrwt>
<rscale>  0 0.14900916E+02</rscale>
<asrwt>0</asrwt>
<pdfrwt beam="1">  1        2 0.99184071E+00 0.14900916E+02</pdfrwt>
<pdfrwt beam="2">  1       -2 0.98670734E+00 0.14900916E+02</pdfrwt>
<totfact> 0.35497638E-13</totfact>
</mgrwt>
</event>
<event>
 4    1 -0.5170493E-019  0.1496747E+02  0.7818608E-02  0.1869063E+00
          2   -1    0    0  501    0  0.00000000000E+00  0.00000000000E+00  0.11958811154E+03  0.11958811157E+03  0.25500000000E-02 0.  1.
         -2   -1    0    0    0  501 -0.00000000000E+00 -0.00000000000E+00 -0.46832280168E+00  0.46832974395E+00  0.25500000000E-02 0. -1.
         31    1    1    2    0    0  0.68315457298E-01 -0.73637341471E+00  0.59724072458E+02  0.60191117865E+02  0.74470750000E+01 0.  1.
        -31    1    1    2    0    0 -0.68315457298E-01  0.73637341471E+00  0.59395716278E+02  0.59865323444E+02  0.74470750000E+01 0.  1.
<mgrwt>
<rscale>  0 0.14967466E+02</rscale>
<asrwt>0</asrwt>
<pdfrwt beam="1">  1        2 0.99271066E+00 0.14967466E+02</pdfrwt>
<pdfrwt beam="2">  1       -2 0.99466823E+00 0.14967466E+02</pdfrwt>
<totfact>-0.14413506E-13</totfact>
</mgrwt>
</event>
<event>
 4    1  0.5170493E-019  0.1491597E+02  0.7818608E-02  0.1870644E+00
          2   -1    0    0  501    0  0.00000000000E+00  0.00000000000E+00  0.12031102150E+03  0.12031102152E+03  0.25500000000E-02 0. -1.
         -2   -1    0    0    0  501 -0.00000000000E+00 -0.00000000000E+00 -0.46231077793E+00  0.46231781049E+00  0.25500000000E-02 0.  1.
         31    1    1    2    0    0  0.48906477478E-01 -0.39652353481E+00  0.59483877616E+02  0.59949564177E+02  0.74470750000E+01 0. -1.
        -31    1    1    2    0    0 -0.48906477478E-01  0.39652353481E+00  0.60364833102E+02  0.60823775156E+02  0.74470750000E+01 0.  1.
<mgrwt>
<rscale>  0 0.14915966E+02</rscale>
<asrwt>0</asrwt>
<pdfrwt beam="1">  1        2 0.99863847E+00 0.14915966E+02</pdfrwt>
<pdfrwt beam="2">  1       -2 0.98197141E+00 0.14915966E+02</pdfrwt>
<totfact> 0.39610392E-13</totfact>
</mgrwt>
</event>
<event>
 4    1  0.5170493E-019  0.1494277E+02  0.7818608E-02  0.1869820E+00
         -2   -1    0    0    0  501 -0.00000000000E+00  0.00000000000E+00  0.11892909245E+03  0.11892909247E+03  0.25500000000E-02 0. -1.
          2   -1    0    0  501    0  0.00000000000E+00 -0.00000000000E+00 -0.46936548515E+00  0.46937241201E+00  0.25500000000E-02 0.  1.
         31    1    1    2    0    0 -0.51572859250E-01  0.58267831238E+00  0.58085075673E+02  0.58563445218E+02  0.74470750000E+01 0.  1.
        -31    1    1    2    0    0  0.51572859250E-01 -0.58267831238E+00  0.60374651288E+02  0.60835019668E+02  0.74470750000E+01 0. -1.
<mgrwt>
<rscale>  0 0.14942774E+02</rscale>
<asrwt>0</asrwt>
<pdfrwt beam="2">  1        2 0.99685249E+00 0.14942774E+02</pdfrwt>
<pdfrwt beam="1">  1       -2 0.98727005E+00 0.14942774E+02</pdfrwt>
<totfact> 0.16668821E-13</totfact>
</mgrwt>
</event>
<event>
 4    1 -0.5170493E-019  0.1491311E+02  0.7818608E-02  0.1870732E+00
          2   -1    0    0  501    0  0.00000000000E+00  0.00000000000E+00  0.11885787664E+03  0.11885787667E+03  0.25500000000E-02 0.  1.
         -2   -1    0    0    0  501 -0.00000000000E+00 -0.00000000000E+00 -0.46778405113E+00  0.46779100140E+00  0.25500000000E-02 0. -1.
         31    1    1    2    0    0 -0.27514879436E+00  0.14281921219E+00  0.60896261736E+02  0.61350710865E+02  0.74470750000E+01 0.  1.
        -31    1    1    2    0    0  0.27514879436E+00 -0.14281921219E+00  0.57493830857E+02  0.57974956807E+02  0.74470750000E+01 0. -1.
<mgrwt>
<rscale>  0 0.14913113E+02</rscale>
<asrwt>0</asrwt>
<pdfrwt beam="1">  1        2 0.98666811E+00 0.14913113E+02</pdfrwt>
<pdfrwt beam="2">  1       -2 0.99350467E+00 0.14913113E+02</pdfrwt>
<totfact>-0.25077387E-13</totfact>
</mgrwt>
</event>
<event>
 4    1  0.5170493E-019  0.1491332E+02  0.7818608E-02  0.1870725E+00
          2   -1    0    0  501    0  0.00000000000E+00  0.00000000000E+00  0.12023194757E+03  0.12023194759E+03  0.25500000000E-02 0. -1.
         -2   -1    0    0    0  501 -0.00000000000E+00 -0.00000000000E+00 -0.46245047313E+00  0.46245750356E+00  0.25500000000E-02 0.  1.
         31    1    1    2    0    0 -0.17368312867E+00  0.34202164559E-01  0.57182522615E+02  0.57665684374E+02  0.74470750000E+01 0.  1.
        -31    1    1    2    0    0  0.17368312867E+00 -0.34202164559E-01  0.62586974480E+02  0.63028720725E+02  0.74470750000E+01 0. -1.
<mgrwt>
<rscale>  0 0.14913316E+02</rscale>
<asrwt>0</asrwt>
<pdfrwt beam="1">  1        2 0.99798579E+00 0.14913316E+02</pdfrwt>
<pdfrwt beam="2">  1       -2 0.98226452E+00 0.14913316E+02</pdfrwt>
<totfact> 0.51389197E-13</totfact>
</mgrwt>
</event>
<event>
 4    1 -0.5170493E-019  0.1493359E+02  0.7818608E-02  0.1870102E+00
          2   -1    0    0  501    0  0.00000000000E+00  0.00000000000E+00  0.11864563589E+03  0.11864563592E+03  0.25500000000E-02 0. -1.
         -2   -1    0    0    0  501 -0.00000000000E+00 -0.00000000000E+00 -0.46990862420E+00  0.46991554305E+00  0.25500000000E-02 0.  1.
         31    1    1    2    0    0 -0.44585904258E+00  0.25389657364E-02  0.56625528449E+02  0.57114868422E+02  0.74470750000E+01 0.  1.
        -31    1    1    2    0    0  0.44585904258E+00 -0.25389657364E-02  0.61550198817E+02  0.62000683038E+02  0.74470750000E+01 0.  1.
<mgrwt>
<rscale>  0 0.14933589E+02</rscale>
<asrwt>0</asrwt>
<pdfrwt beam="1">  1        2 0.98493072E+00 0.14933589E+02</pdfrwt>
<pdfrwt beam="2">  1       -2 0.99799209E+00 0.14933589E+02</pdfrwt>
<totfact>-0.20928481E-13</totfact>
</mgrwt>
</event>
<event>
 4    1  0.5170493E-019  0.1490487E+02  0.7818608E-02  0.1870985E+00
         -2   -1    0    0    0  501 -0.00000000000E+00  0.00000000000E+00  0.11804614790E+03  0.11804614792E+03  0.25500000000E-02 0. -1.
          2   -1    0    0  501    0  0.00000000000E+00 -0.00000000000E+00 -0.47048043288E+00  0.47048734332E+00  0.25500000000E-02 0.  1.
         31    1    1    2    0    0  0.20105590560E+00  0.13011939267E+00  0.57594220912E+02  0.58074181553E+02  0.74470750000E+01 0.  1.
        -31    1    1    2    0    0 -0.20105590560E+00 -0.13011939267E+00  0.59981446550E+02  0.60442453713E+02  0.74470750000E+01 0. -1.
<mgrwt>
<rscale>  0 0.14904874E+02</rscale>
<asrwt>0</asrwt>
<pdfrwt beam="2">  1        2 0.99918164E+00 0.14904874E+02</pdfrwt>
<pdfrwt beam="1">  1       -2 0.97997846E+00 0.14904874E+02</pdfrwt>
<totfact> 0.36368563E-13</totfact>
</mgrwt>
</event>
<event>
 4    1 -0.5170493E-019  0.1490894E+02  0.7818608E-02  0.1870860E+00
          2   -1    0    0  501    0  0.00000000000E+00  0.00000000000E+00  0.11822955740E+03  0.11822955742E+03  0.25500000000E-02 0. -1.
         -2   -1    0    0    0  501 -0.00000000000E+00 -0.00000000000E+00 -0.47000669312E+00  0.47001361052E+00  0.25500000000E-02 0.  1.
         31    1    1    2    0    0  0.23124832150E+00  0.23810336720E+00  0.58874594515E+02  0.59344645710E+02  0.74470750000E+01 0. -1.
        -31    1    1    2    0    0 -0.23124832150E+00 -0.23810336720E+00  0.58884956188E+02  0.59354925324E+02  0.74470750000E+01 0. -1.
<mgrwt>
<rscale>  0 0.14908936E+02</rscale>
<asrwt>0</asrwt>
<pdfrwt beam="1">  1        2 0.98149110E+00 0.14908936E+02</pdfrwt>
<pdfrwt beam="2">  1       -2 0.99818568E+00 0.14908936E+02</pdfrwt>
<totfact>-0.34286323E-13</totfact>
</mgrwt>
</event>
<event>
 4    1  0.5170493E-019  0.1496341E+02  0.7818608E-02  0.1869187E+00
         -2   -1    0    0    0  501 -0.00000000000E+00  0.00000000000E+00  0.11908307414E+03  0.11908307416E+03  0.25500000000E-02 0.  1.
          2   -1    0    0  501    0  0.00000000000E+00 -0.00000000000E+00 -0.47005385745E+00  0.47006077416E+00  0.25500000000E-02 0. -1.
         31    1    1    2    0    0  0.18779865716E+00  0.40369134618E-01  0.53770798071E+02  0.54284385869E+02  0.74470750000E+01 0. -1.
        -31    1    1    2    0    0 -0.18779865716E+00 -0.40369134618E-01  0.64842222208E+02  0.65268749068E+02  0.74470750000E+01 0.  1.
<mgrwt>
<rscale>  0 0.14963405E+02</rscale>
<asrwt>0</asrwt>
<pdfrwt beam="2">  1        2 0.99831378E+00 0.14963405E+02</pdfrwt>
<pdfrwt beam="1">  1       -2 0.98854897E+00 0.14963405E+02</pdfrwt>
<totfact> 0.50897262E-14</totfact>
</mgrwt>
</event>
<event>
 4    1  0.5170493E-019  0.1490512E+02  0.7818608E-02  0.1870978E+00
         -2   -1    0    0    0  501 -0.00000000000E+00  0.00000000000E+00  0.11841637262E+03  0.11841637265E+03  0.25500000000E-02 0. -1.
          2   -1    0    0  501    0  0.00000000000E+00 -0.00000000000E+00 -0.46902502892E+00  0.46903196080E+00  0.25500000000E-02 0.  1.
         31    1    1    2    0    0 -0.23719120502E+00  0.15739374272E+00  0.58762982575E+02  0.59233673528E+02  0.74470750000E+01 0.  1.
        -31    1    1    2    0    0  0.23719120502E+00 -0.15739374272E+00  0.59184365018E+02  0.59651731082E+02  0.74470750000E+01 0. -1.
<mgrwt>
<rscale>  0 0.14905121E+02</rscale>
<asrwt>0</asrwt>
<pdfrwt beam="2">  1        2 0.99611533E+00 0.14905121E+02</pdfrwt>
<pdfrwt beam="1">  1       -2 0.98302771E+00 0.14905121E+02</pdfrwt>
<totfact> 0.68838066E-13</totfact>
</mgrwt>
</event>
<event>
 4    1 -0.5170493E-019  0.1495774E+02  0.7818608E-02  0.1869361E+00
         -2   -1    0    0    0  501 -0.00000000000E+00  0.00000000000E+00  0.11990702557E+03  0.11990702560E+03  0.25500000000E-02 0. -1.
          2   -1    0    0  501    0  0.00000000000E+00 -0.00000000000E+00 -0.46647058207E+00  0.46647755191E+00  0.25500000000E-02 0.  1.
         31    1    1    2    0    0  0.60318722959E-01 -0.17985420648E+00  0.54390566118E+02  0.54898347831E+02  0.74470750000E+01 0.  1.
        -31    1    1    2    0    0 -0.60318722959E-01  0.17985420648E+00  0.65049988871E+02  0.65475155319E+02  0.74470750000E+01 0. -1.
<mgrwt>
<rscale>  0 0.14957743E+02</rscale>
<asrwt>0</asrwt>
<pdfrwt beam="2">  1        2 0.99075989E+00 0.14957743E+02</pdfrwt>
<pdfrwt beam="1">  1       -2 0.99533235E+00 0.14957743E+02</pdfrwt>
<totfact>-0.16482867E-13</totfact>
</mgrwt>
</event>
<event>
 4    1  0.5170493E-019  0.1492708E+02  0.7818608E-02  0.1870302E+00
          2   -1    0    0  501    0  0.00000000000E+00  0.00000000000E+00  0.12006403070E+03  0.12006403072E+03  0.25500000000E-02 0. -1.
         -2   -1    0    0    0  501 -0.00000000000E+00 -0.00000000000E+00 -0.46395274117E+00  0.46395974883E+00  0.25500000000E-02 0.  1.
         31    1    1    2    0    0  0.25812091340E+00  0.39729795061E+00  0.60971863255E+02  0.61426797954E+02  0.74470750000E+01 0. -1.
        -31    1    1    2    0    0 -0.25812091340E+00 -0.39729795061E+00  0.58628214700E+02  0.59101192518E+02  0.74470750000E+01 0.  1.
<mgrwt>
<rscale>  0 0.14927084E+02</rscale>
<asrwt>0</asrwt>
<pdfrwt beam="1">  1        2 0.99660975E+00 0.14927084E+02</pdfrwt>
<pdfrwt beam="2">  1       -2 0.98543779E+00 0.14927084E+02</pdfrwt>
<totfact> 0.34116833E-13</totfact>
</mgrwt>
</event>
<event>
 4    1  0.5170493E-019  0.1492186E+02  0.7818608E-02  0.1870462E+00
          2   -1    0    0  501    0  0.00000000000E+00  0.00000000000E+00  0.12034753450E+03  0.12034753452E+03  0.25500000000E-02 0.  1.
         -2   -1    0    0    0  501 -0.00000000000E+00 -0.00000000000E+00 -0.46253593128E+00  0.46254296041E+00  0.25500000000E-02 0. -1.
         31    1    1    2    0    0  0.34858453567E+00  0.28627568784E+00  0.60392851328E+02  0.60851942307E+02  0.74470750000E+01 0.  1.
        -31    1    1    2    0    0 -0.34858453567E+00 -0.28627568784E+00  0.59492147237E+02  0.59958135177E+02  0.74470750000E+01 0. -1.
<mgrwt>
<rscale>  0 0.14921861E+02</rscale>
<asrwt>0</asrwt>
<pdfrwt beam="1">  1        2 0.99894225E+00 0.14921861E+02</pdfrwt>
<pdfrwt beam="2">  1       -2 0.98244895E+00 0.14921861E+02</pdfrwt>
<totfact> 0.28886537E-13</totfact>
</mgrwt>
</event>
<event>
 4    1 -0.5170493E-019  0.1492959E+02  0.7818608E-02  0.1870225E+00
          2   -1    0    0  501    0  0.00000000000E+00  0.00000000000E+00  0.11913869410E+03  0.11913869413E+03  0.25500000000E-02 0. -1.
         -2   -1    0    0    0  501 -0.00000000000E+00 -0.00000000000E+00 -0.46771331527E+00  0.46772026659E+00  0.25500000000E-02 0.  1.
         31    1    1    2    0    0  0.13408169750E+00  0.11363358177E+00  0.55465458421E+02  0.55963442482E+02  0.74470750000E+01 0.  1.
        -31    1    1    2    0    0 -0.13408169750E+00 -0.11363358177E+00  0.63205522368E+02  0.63642971916E+02  0.74470750000E+01 0. -1.
<mgrwt>
<rscale>  0 0.14929591E+02</rscale>
<asrwt>0</asrwt>
<pdfrwt beam="1">  1        2 0.98898952E+00 0.14929591E+02</pdfrwt>
<pdfrwt beam="2">  1       -2 0.99336421E+00 0.14929591E+02</pdfrwt>
<totfact>-0.18219652E-13</totfact>
</mgrwt>
</event>
<event>
 4    1 -0.5170493E-019  0.1495662E+02  0.7818608E-02  0.1869395E+00
          2   -1    0    0  501    0  0.00000000000E+00  0.00000000000E+00  0.11960772191E+03  0.11960772194E+03  0.25500000000E-02 0. -1.
         -2   -1    0    0    0  501 -0.00000000000E+00 -0.00000000000E+00 -0.46756794271E+00  0.46757489619E+00  0.25500000000E-02 0.  1.
         31    1    1    2    0    0  0.12002262896E+00 -0.64551656037E+00  0.61074861467E+02  0.61530713683E+02  0.74470750000E+01 0. -1.
        -31    1    1    2    0    0 -0.12002262896E+00  0.64551656037E+00  0.58065292502E+02  0.58544583152E+02  0.74470750000E+01 0.  1.
<mgrwt>
<rscale>  0 0.14956625E+02</rscale>
<asrwt>0</asrwt>
<pdfrwt beam="1">  1        2 0.99286657E+00 0.14956625E+02</pdfrwt>
<pdfrwt beam="2">  1       -2 0.99307189E+00 0.14956625E+02</pdfrwt>
<totfact>-0.12496571E-13</totfact>
</mgrwt>
</event>
<event>
 4    1  0.5170493E-019  0.1490811E+02  0.7818608E-02  0.1870886E+00
         -2   -1    0    0    0  501 -0.00000000000E+00  0.00000000000E+00  0.11822293137E+03  0.11822293140E+03  0.25500000000E-02 0. -1.
          2   -1    0    0  501    0  0.00000000000E+00 -0.00000000000E+00 -0.46998081887E+00  0.46998773666E+00  0.25500000000E-02 0.  1.
         31    1    1    2    0    0 -0.10795355053E-01  0.25554774735E+00  0.60440182310E+02  0.60897783087E+02  0.74470750000E+01 0. -1.
        -31    1    1    2    0    0  0.10795355053E-01 -0.25554774735E+00  0.57312768241E+02  0.57795136047E+02  0.74470750000E+01 0.  1.
<mgrwt>
<rscale>  0 0.14908108E+02</rscale>
<asrwt>0</asrwt>
<pdfrwt beam="2">  1        2 0.99813073E+00 0.14908108E+02</pdfrwt>
<pdfrwt beam="1">  1       -2 0.98143610E+00 0.14908108E+02</pdfrwt>
<totfact> 0.57022411E-13</totfact>
</mgrwt>
</event>
<event>
 4    1 -0.5170493E-019  0.1493231E+02  0.7818608E-02  0.1870141E+00
         -2   -1    0    0    0  501 -0.00000000000E+00  0.00000000000E+00  0.11958475331E+03  0.11958475333E+03  0.25500000000E-02 0.  1.
          2   -1    0    0  501    0  0.00000000000E+00 -0.00000000000E+00 -0.46613850318E+00  0.46614547799E+00  0.25500000000E-02 0. -1.
         31    1    1    2    0    0  0.39243132972E+00  0.28758086133E+00  0.57800711816E+02  0.58280510616E+02  0.74470750000E+01 0. -1.
        -31    1    1    2    0    0 -0.39243132972E+00 -0.28758086133E+00  0.61317902986E+02  0.61770388195E+02  0.74470750000E+01 0.  1.
<mgrwt>
<rscale>  0 0.14932311E+02</rscale>
<asrwt>0</asrwt>
<pdfrwt beam="2">  1        2 0.99004698E+00 0.14932311E+02</pdfrwt>
<pdfrwt beam="1">  1       -2 0.99266483E+00 0.14932311E+02</pdfrwt>
<totfact>-0.14390180E-13</totfact>
</mgrwt>
</event>
<event>
 4    1 -0.5170493E-019  0.1494295E+02  0.7818608E-02  0.1869814E+00
          2   -1    0    0  501    0  0.00000000000E+00  0.00000000000E+00  0.11896107441E+03  0.11896107444E+03  0.25500000000E-02 0. -1.
         -2   -1    0    0    0  501 -0.00000000000E+00 -0.00000000000E+00 -0.46925017429E+00  0.46925710285E+00  0.25500000000E-02 0.  1.
         31    1    1    2    0    0 -0.10956728111E+00 -0.58338515932E+00  0.58383212307E+02  0.58859245226E+02  0.74470750000E+01 0. -1.
        -31    1    1    2    0    0  0.10956728111E+00  0.58338515932E+00  0.60108611932E+02  0.60571086318E+02  0.74470750000E+01 0.  1.
<mgrwt>
<rscale>  0 0.14942948E+02</rscale>
<asrwt>0</asrwt>
<pdfrwt beam="1">  1        2 0.98753354E+00 0.14942948E+02</pdfrwt>
<pdfrwt beam="2">  1       -2 0.99660961E+00 0.14942948E+02</pdfrwt>
<totfact>-0.20485178E-13</totfact>
</mgrwt>
</event>
<event>
 4    1  0.5170493E-019  0.1491844E+02  0.7818608E-02  0.1870568E+00
         -2   -1    0    0    0  501 -0.00000000000E+00  0.00000000000E+00  0.11864253886E+03  0.11864253889E+03  0.25500000000E-02 0.  1.
          2   -1    0    0  501    0  0.00000000000E+00 -0.00000000000E+00 -0.46896801205E+00  0.46897494478E+00  0.25500000000E-02 0. -1.
         31    1    1    2    0    0  0.23149205865E+00  0.77352876179E-01  0.56304072402E+02  0.56794956353E+02  0.74470750000E+01 0. -1.
        -31    1    1    2    0    0 -0.23149205865E+00 -0.77352876179E-01  0.61869498446E+02  0.62316557480E+02  0.74470750000E+01 0.  1.
<mgrwt>
<rscale>  0 0.14918441E+02</rscale>
<asrwt>0</asrwt>
<pdfrwt beam="2">  1        2 0.99600221E+00 0.14918441E+02</pdfrwt>
<pdfrwt beam="1">  1       -2 0.98489733E+00 0.14918441E+02</pdfrwt>
<totfact> 0.44135726E-13</totfact>
</mgrwt>
</event>
<event>
 4    1 -0.5170493E-019  0.1491678E+02  0.7818608E-02  0.1870619E+00
          2   -1    0    0  501    0  0.00000000000E+00  0.00000000000E+00  0.11875588931E+03  0.11875588934E+03  0.25500000000E-02 0.  1.
         -2   -1    0    0    0  501 -0.00000000000E+00 -0.00000000000E+00 -0.46841586482E+00  0.46842280572E+00  0.25500000000E-02 0. -1.
         31    1    1    2    0    0 -0.55494139448E-01 -0.23165356599E+00  0.61817256801E+02  0.62264668211E+02  0.74470750000E+01 0.  1.
        -31    1    1    2    0    0  0.55494139448E-01  0.23165356599E+00  0.56470216647E+02  0.56959643935E+02  0.74470750000E+01 0.  1.
<mgrwt>
<rscale>  0 0.14916777E+02</rscale>
<asrwt>0</asrwt>
<pdfrwt beam="1">  1        2 0.98583003E+00 0.14916777E+02</pdfrwt>
<pdfrwt beam="2">  1       -2 0.99483791E+00 0.14916777E+02</pdfrwt>
<totfact>-0.30495252E-13</totfact>
</mgrwt>
</event>
<event>
 4    1 -0.5170493E-019  0.1491466E+02  0.7818608E-02  0.1870684E+00
          2   -1    0    0  501    0  0.00000000000E+00  0.00000000000E+00  0.11855165943E+03  0.11855165946E+03  0.25500000000E-02 0. -1.
         -2   -1    0    0    0  501 -0.00000000000E+00 -0.00000000000E+00 -0.46908993753E+00  0.46909686845E+00  0.25500000000E-02 0.  1.
         31    1    1    2    0    0  0.23507755044E+00 -0.21962859517E+00  0.57267967512E+02  0.57751039187E+02  0.74470750000E+01 0. -1.
        -31    1    1    2    0    0 -0.23507755044E+00  0.21962859517E+00  0.60814601984E+02  0.61269717143E+02  0.74470750000E+01 0.  1.
<mgrwt>
<rscale>  0 0.14914665E+02</rscale>
<asrwt>0</asrwt>
<pdfrwt beam="1">  1        2 0.98414689E+00 0.14914665E+02</pdfrwt>
<pdfrwt beam="2">  1       -2 0.99625712E+00 0.14914665E+02</pdfrwt>
<totfact>-0.36346992E-13</totfact>
</mgrwt>
</event>
<event>
 4    1 -0.5170493E-019  0.1497129E+02  0.7818608E-02  0.1868946E+00
         -2   -1    0    0    0  501 -0.00000000000E+00  0.00000000000E+00  0.11961665141E+03  0.11961665143E+03  0.25500000000E-02 0.  1.
          2   -1    0    0  501    0  0.00000000000E+00 -0.00000000000E+00 -0.46845040376E+00  0.46845734414E+00  0.25500000000E-02 0. -1.
         31    1    1    2    0    0 -0.89494390311E-01  0.74459058635E+00  0.58640880611E+02  0.59116615510E+02  0.74470750000E+01 0. -1.
        -31    1    1    2    0    0  0.89494390311E-01 -0.74459058635E+00  0.60507320391E+02  0.60968493268E+02  0.74470750000E+01 0.  1.
<mgrwt>
<rscale>  0 0.14971291E+02</rscale>
<asrwt>0</asrwt>
<pdfrwt beam="2">  1        2 0.99493911E+00 0.14971291E+02</pdfrwt>
<pdfrwt beam="1">  1       -2 0.99294770E+00 0.14971291E+02</pdfrwt>
<totfact>-0.10312807E-13</totfact>
</mgrwt>
</event>
<event>
 4    1 -0.5170493E-019  0.1489635E+02  0.7818608E-02  0.1871248E+00
         -2   -1    0    0    0  501 -0.00000000000E+00  0.00000000000E+00  0.11998541783E+03  0.11998541785E+03  0.25500000000E-02 0. -1.
          2   -1    0    0  501    0  0.00000000000E+00 -0.00000000000E+00 -0.46234689823E+00  0.46235393023E+00  0.25500000000E-02 0.  1.
         31    1    1    2    0    0  0.10431228683E+00  0.20532984941E-01  0.60337961895E+02  0.60795886985E+02  0.74470750000E+01 0. -1.
        -31    1    1    2    0    0 -0.10431228683E+00 -0.20532984941E-01  0.59185109034E+02  0.59651884799E+02  0.74470750000E+01 0.  1.
<mgrwt>
<rscale>  0 0.14896350E+02</rscale>
<asrwt>0</asrwt>
<pdfrwt beam="2">  1        2 0.98203764E+00 0.14896350E+02</pdfrwt>
<pdfrwt beam="1">  1       -2 0.99594645E+00 0.14896350E+02</pdfrwt>
<totfact>-0.53773157E-13</totfact>
</mgrwt>
</event>
<event>
 4    1  0.5170493E-019  0.1489852E+02  0.7818608E-02  0.1871181E+00
          2   -1    0    0  501    0  0.00000000000E+00  0.00000000000E+00  0.11930608666E+03  0.11930608669E+03  0.25500000000E-02 0.  1.
         -2   -1    0    0    0  501 -0.00000000000E+00 -0.00000000000E+00 -0.46511480376E+00  0.46512179392E+00  0.25500000000E-02 0. -1.
         31    1    1    2    0    0 -0.11675400088E+00 -0.99192839526E-01  0.58655687445E+02  0.59126745779E+02  0.74470750000E+01 0.  1.
        -31    1    1    2    0    0  0.11675400088E+00  0.99192839526E-01  0.60185284412E+02  0.60644462703E+02  0.74470750000E+01 0.  1.
<mgrwt>
<rscale>  0 0.14898516E+02</rscale>
<asrwt>0</asrwt>
<pdfrwt beam="1">  1        2 0.99035215E+00 0.14898516E+02</pdfrwt>
<pdfrwt beam="2">  1       -2 0.98787223E+00 0.14898516E+02</pdfrwt>
<totfact> 0.23544963E-13</totfact>
</mgrwt>
</event>
<event>
 4    1  0.5170493E-019  0.1490042E+02  0.7818608E-02  0.1871122E+00
          2   -1    0    0  501    0  0.00000000000E+00  0.00000000000E+00  0.12015146729E+03  0.12015146731E+03  0.25500000000E-02 0.  1.
         -2   -1    0    0    0  501 -0.00000000000E+00 -0.00000000000E+00 -0.46196044913E+00  0.46196748702E+00  0.25500000000E-02 0. -1.
         31    1    1    2    0    0 -0.20759271642E+00  0.52573776004E-01  0.59606399618E+02  0.60070189447E+02  0.74470750000E+01 0.  1.
        -31    1    1    2    0    0  0.20759271642E+00 -0.52573776004E-01  0.60083107219E+02  0.60543245353E+02  0.74470750000E+01 0.  1.
<mgrwt>
<rscale>  0 0.14900423E+02</rscale>
<asrwt>0</asrwt>
<pdfrwt beam="1">  1        2 0.99731627E+00 0.14900423E+02</pdfrwt>
<pdfrwt beam="2">  1       -2 0.98122517E+00 0.14900423E+02</pdfrwt>
<totfact> 0.77859576E-13</totfact>
</mgrwt>
</event>
<event>
 4    1 -0.5170493E-019  0.1494402E+02  0.7818608E-02  0.1869782E+00
         -2   -1    0    0    0  501 -0.00000000000E+00  0.00000000000E+00  0.11969041168E+03  0.11969041171E+03  0.25500000000E-02 0.  1.
          2   -1    0    0  501    0  0.00000000000E+00 -0.00000000000E+00 -0.46645742478E+00  0.46646439482E+00  0.25500000000E-02 0. -1.
         31    1    1    2    0    0 -0.17898000779E+00  0.49651840773E+00  0.62069404494E+02  0.62516785464E+02  0.74470750000E+01 0.  1.
        -31    1    1    2    0    0  0.17898000779E+00 -0.49651840773E+00  0.57154549765E+02  0.57640090642E+02  0.74470750000E+01 0. -1.
<mgrwt>
<rscale>  0 0.14944016E+02</rscale>
<asrwt>0</asrwt>
<pdfrwt beam="2">  1        2 0.99072511E+00 0.14944016E+02</pdfrwt>
<pdfrwt beam="1">  1       -2 0.99354112E+00 0.14944016E+02</pdfrwt>
<totfact>-0.15710659E-13</totfact>
</mgrwt>
</event>
<event>
 4    1 -0.5170493E-019  0.1501246E+02  0.7818608E-02  0.1867689E+00
          2   -1    0    0  501    0  0.00000000000E+00  0.00000000000E+00  0.11980176712E+03  0.11980176715E+03  0.25500000000E-02 0.  1.
         -2   -1    0    0    0  501 -0.00000000000E+00 -0.00000000000E+00 -0.47030224059E+00  0.47030915364E+00  0.25500000000E-02 0. -1.
         31    1    1    2    0    0 -0.12903426774E+00  0.92741836382E+00  0.58959260238E+02  0.59435091054E+02  0.74470750000E+01 0.  1.
        -31    1    1    2    0    0  0.12903426774E+00 -0.92741836382E+00  0.60372204641E+02  0.60836985247E+02  0.74470750000E+01 0.  1.
<mgrwt>
<rscale>  0 0.15012456E+02</rscale>
<asrwt>0</asrwt>
<pdfrwt beam="1">  1        2 0.99449368E+00 0.15012456E+02</pdfrwt>
<pdfrwt beam="2">  1       -2 0.99886280E+00 0.15012456E+02</pdfrwt>
<totfact>-0.45800849E-14</totfact>
</mgrwt>
</event>
<event>
 4    1  0.5170493E-019  0.1489640E+02  0.7818608E-02  0.1871246E+00
          2   -1    0    0  501    0  0.00000000000E+00  0.00000000000E+00  0.11951049082E+03  0.11951049085E+03  0.25500000000E-02 0. -1.
         -2   -1    0    0    0  501 -0.00000000000E+00 -0.00000000000E+00 -0.46418755912E+00  0.46419456324E+00  0.25500000000E-02 0.  1.
         31    1    1    2    0    0 -0.28350035467E-01 -0.88944293286E-01  0.58799912275E+02  0.59269699884E+02  0.74470750000E+01 0.  1.
        -31    1    1    2    0    0  0.28350035467E-01  0.88944293286E-01  0.60246390989E+02  0.60704985529E+02  0.74470750000E+01 0. -1.
<mgrwt>
<rscale>  0 0.14896403E+02</rscale>
<asrwt>0</asrwt>
<pdfrwt beam="1">  1        2 0.99203464E+00 0.14896403E+02</pdfrwt>
<pdfrwt beam="2">  1       -2 0.98591702E+00 0.14896403E+02</pdfrwt>
<totfact> 0.46405656E-13</totfact>
</mgrwt>
</event>
<event>
 4    1  0.5170493E-019  0.1490061E+02  0.7818608E-02  0.1871117E+00
         -2   -1    0    0    0  501 -0.00000000000E+00  0.00000000000E+00  0.11795287775E+03  0.11795287778E+03  0.25500000000E-02 0. -1.
          2   -1    0    0  501    0  0.00000000000E+00 -0.00000000000E+00 -0.47058298498E+00  0.47058989391E+00  0.25500000000E-02 0.  1.
         31    1    1    2    0    0  0.13331188271E+00 -0.16730346763E+00  0.58356740239E+02  0.58830381775E+02  0.74470750000E+01 0. -1.
        -31    1    1    2    0    0 -0.13331188271E+00  0.16730346763E+00  0.59125554530E+02  0.59593085900E+02  0.74470750000E+01 0. -1.
<mgrwt>
<rscale>  0 0.14900608E+02</rscale>
<asrwt>0</asrwt>
<pdfrwt beam="2">  1        2 0.99939543E+00 0.14900608E+02</pdfrwt>
<pdfrwt beam="1">  1       -2 0.97920809E+00 0.14900608E+02</pdfrwt>
<totfact> 0.31206824E-13</totfact>
</mgrwt>
</event>
<event>
 4    1  0.5170493E-019  0.1491965E+02  0.7818608E-02  0.1870530E+00
          2   -1    0    0  501    0  0.00000000000E+00  0.00000000000E+00  0.11994640323E+03  0.11994640326E+03  0.25500000000E-02 0. -1.
         -2   -1    0    0    0  501 -0.00000000000E+00 -0.00000000000E+00 -0.46394528549E+00  0.46395229327E+00  0.25500000000E-02 0.  1.
         31    1    1    2    0    0  0.35318348365E+00  0.96325828929E-01  0.61651906140E+02  0.62101131020E+02  0.74470750000E+01 0. -1.
        -31    1    1    2    0    0 -0.35318348365E+00 -0.96325828929E-01  0.57830551804E+02  0.58309224529E+02  0.74470750000E+01 0.  1.
<mgrwt>
<rscale>  0 0.14919650E+02</rscale>
<asrwt>0</asrwt>
<pdfrwt beam="1">  1        2 0.99563707E+00 0.14919650E+02</pdfrwt>
<pdfrwt beam="2">  1       -2 0.98541829E+00 0.14919650E+02</pdfrwt>
<totfact> 0.39886191E-13</totfact>
</mgrwt>
</event>
<event>
 4    1 -0.5170493E-019  0.1492095E+02  0.7818608E-02  0.1870490E+00
          2   -1    0    0  501    0  0.00000000000E+00  0.00000000000E+00  0.11847923977E+03  0.11847923980E+03  0.25500000000E-02 0.  1.
         -2   -1    0    0    0  501 -0.00000000000E+00 -0.00000000000E+00 -0.46977229096E+00  0.46977921182E+00  0.25500000000E-02 0. -1.
         31    1    1    2    0    0 -0.21602571707E+00 -0.24248101742E+00  0.61452614105E+02  0.61903054614E+02  0.74470750000E+01 0. -1.
        -31    1    1    2    0    0  0.21602571707E+00  0.24248101742E+00  0.56556853375E+02  0.57045964396E+02  0.74470750000E+01 0. -1.
<mgrwt>
<rscale>  0 0.14920949E+02</rscale>
<asrwt>0</asrwt>
<pdfrwt beam="1">  1        2 0.98355371E+00 0.14920949E+02</pdfrwt>
<pdfrwt beam="2">  1       -2 0.99769816E+00 0.14920949E+02</pdfrwt>
<totfact>-0.29266213E-13</totfact>
</mgrwt>
</event>
<event>
 4    1  0.5170493E-019  0.1490739E+02  0.7818608E-02  0.1870908E+00
          2   -1    0    0  501    0  0.00000000000E+00  0.00000000000E+00  0.11966514159E+03  0.11966514162E+03  0.25500000000E-02 0. -1.
         -2   -1    0    0    0  501 -0.00000000000E+00 -0.00000000000E+00 -0.46427149646E+00  0.46427849932E+00  0.25500000000E-02 0.  1.
         31    1    1    2    0    0  0.30734431212E+00 -0.35185336887E-01  0.59165578874E+02  0.59633215141E+02  0.74470750000E+01 0. -1.
        -31    1    1    2    0    0 -0.30734431212E+00  0.35185336887E-01  0.60035291221E+02  0.60496204977E+02  0.74470750000E+01 0. -1.
<mgrwt>
<rscale>  0 0.14907386E+02</rscale>
<asrwt>0</asrwt>
<pdfrwt beam="1">  1        2 0.99331410E+00 0.14907386E+02</pdfrwt>
<pdfrwt beam="2">  1       -2 0.98609954E+00 0.14907386E+02</pdfrwt>
<totfact> 0.39799911E-13</totfact>
</mgrwt>
</event>
<event>
 4    1 -0.5170493E-019  0.1497133E+02  0.7818608E-02  0.1868945E+00
         -2   -1    0    0    0  501 -0.00000000000E+00  0.00000000000E+00  0.11993476644E+03  0.11993476647E+03  0.25500000000E-02 0.  1.
          2   -1    0    0  501    0  0.00000000000E+00 -0.00000000000E+00 -0.46721029588E+00  0.46721725468E+00  0.25500000000E-02 0. -1.
         31    1    1    2    0    0 -0.56033972447E+00 -0.20214954126E+00  0.55949621360E+02  0.56446203605E+02  0.74470750000E+01 0.  1.
        -31    1    1    2    0    0  0.56033972447E+00  0.20214954126E+00  0.63517934788E+02  0.63955780121E+02  0.74470750000E+01 0.  1.
<mgrwt>
<rscale>  0 0.14971330E+02</rscale>
<asrwt>0</asrwt>
<pdfrwt beam="2">  1        2 0.99232578E+00 0.14971330E+02</pdfrwt>
<pdfrwt beam="1">  1       -2 0.99556784E+00 0.14971330E+02</pdfrwt>
<totfact>-0.14409115E-13</totfact>
</mgrwt>
</event>
<event>
 4    1  0.5170493E-019  0.1491334E+02  0.7818608E-02  0.1870725E+00
         -2   -1    0    0    0  501 -0.00000000000E+00  0.00000000000E+00  0.11913533735E+03  0.11913533737E+03  0.25500000000E-02 0.  1.
          2   -1    0    0  501    0  0.00000000000E+00 -0.00000000000E+00 -0.46670871469E+00  0.46671568098E+00  0.25500000000E-02 0. -1.
         31    1    1    2    0    0  0.25688290855E+00  0.22053475374E+00  0.57983556266E+02  0.58460810358E+02  0.74470750000E+01 0. -1.
        -31    1    1    2    0    0 -0.25688290855E+00 -0.22053475374E+00  0.60685072367E+02  0.61141242698E+02  0.74470750000E+01 0.  1.
<mgrwt>
<rscale>  0 0.14913339E+02</rscale>
<asrwt>0</asrwt>
<pdfrwt beam="2">  1        2 0.99123881E+00 0.14913339E+02</pdfrwt>
<pdfrwt beam="1">  1       -2 0.98895346E+00 0.14913339E+02</pdfrwt>
<totfact> 0.10186632E-13</totfact>
</mgrwt>
</event>
<event>
 4    1 -0.5170493E-019  0.1498324E+02  0.7818608E-02  0.1868580E+00
         -2   -1    0    0    0  501 -0.00000000000E+00  0.00000000000E+00  0.12001913541E+03  0.12001913544E+03  0.25500000000E-02 0. -1.
          2   -1    0    0  501    0  0.00000000000E+00 -0.00000000000E+00 -0.46762479936E+00  0.46763175200E+00  0.25500000000E-02 0.  1.
         31    1    1    2    0    0  0.59219324682E+00  0.42928478694E+00  0.62680042549E+02  0.63125126838E+02  0.74470750000E+01 0. -1.
        -31    1    1    2    0    0 -0.59219324682E+00 -0.42928478694E+00  0.56871468066E+02  0.57361640356E+02  0.74470750000E+01 0.  1.
<mgrwt>
<rscale>  0 0.14983237E+02</rscale>
<asrwt>0</asrwt>
<pdfrwt beam="2">  1        2 0.99320544E+00 0.14983237E+02</pdfrwt>
<pdfrwt beam="1">  1       -2 0.99626889E+00 0.14983237E+02</pdfrwt>
<totfact>-0.12611524E-13</totfact>
</mgrwt>
</event>
<event>
 4    1 -0.5170493E-019  0.1496664E+02  0.7818608E-02  0.1869088E+00
         -2   -1    0    0    0  501 -0.00000000000E+00  0.00000000000E+00  0.12011063787E+03  0.12011063790E+03  0.25500000000E-02 0.  1.
          2   -1    0    0  501    0  0.00000000000E+00 -0.00000000000E+00 -0.46623390710E+00  0.46624088048E+00  0.25500000000E-02 0. -1.
         31    1    1    2    0    0 -0.67536907598E+00  0.27648485079E+00  0.59075922799E+02  0.59547931516E+02  0.74470750000E+01 0.  1.
        -31    1    1    2    0    0  0.67536907598E+00 -0.27648485079E+00  0.60568481167E+02  0.61028947265E+02  0.74470750000E+01 0.  1.
<mgrwt>
<rscale>  0 0.14966639E+02</rscale>
<asrwt>0</asrwt>
<pdfrwt beam="2">  1        2 0.99026566E+00 0.14966639E+02</pdfrwt>
<pdfrwt beam="1">  1       -2 0.99701400E+00 0.14966639E+02</pdfrwt>
<totfact>-0.13912103E-13</totfact>
</mgrwt>
</event>
<event>
 4    1 -0.5170493E-019  0.1491945E+02  0.7818608E-02  0.1870537E+00
          2   -1    0    0  501    0  0.00000000000E+00  0.00000000000E+00  0.11878938107E+03  0.11878938110E+03  0.25500000000E-02 0.  1.
         -2   -1    0    0    0  501 -0.00000000000E+00 -0.00000000000E+00 -0.46845148875E+00  0.46845842912E+00  0.25500000000E-02 0. -1.
         31    1    1    2    0    0  0.37244203770E+00 -0.18427426826E+00  0.60167821901E+02  0.60628362905E+02  0.74470750000E+01 0.  1.
        -31    1    1    2    0    0 -0.37244203770E+00  0.18427426826E+00  0.58153107680E+02  0.58629476622E+02  0.74470750000E+01 0.  1.
<mgrwt>
<rscale>  0 0.14919447E+02</rscale>
<asrwt>0</asrwt>
<pdfrwt beam="1">  1        2 0.98610726E+00 0.14919447E+02</pdfrwt>
<pdfrwt beam="2">  1       -2 0.99491437E+00 0.14919447E+02</pdfrwt>
<totfact>-0.29195277E-13</totfact>
</mgrwt>
</event>
<event>
 4    1 -0.5170493E-019  0.1496635E+02  0.7818608E-02  0.1869097E+00
         -2   -1    0    0    0  501 -0.00000000000E+00  0.00000000000E+00  0.11985751769E+03  0.11985751772E+03  0.25500000000E-02 0. -1.
          2   -1    0    0  501    0  0.00000000000E+00 -0.00000000000E+00 -0.46720063267E+00  0.46720759162E+00  0.25500000000E-02 0.  1.
         31    1    1    2    0    0  0.24051587314E+00  0.22316442441E+00  0.64975413053E+02  0.65401612195E+02  0.74470750000E+01 0. -1.
        -31    1    1    2    0    0 -0.24051587314E+00 -0.22316442441E+00  0.54414904005E+02  0.54923113114E+02  0.74470750000E+01 0.  1.
<mgrwt>
<rscale>  0 0.14966353E+02</rscale>
<asrwt>0</asrwt>
<pdfrwt beam="2">  1        2 0.99230285E+00 0.14966353E+02</pdfrwt>
<pdfrwt beam="1">  1       -2 0.99492902E+00 0.14966353E+02</pdfrwt>
<totfact>-0.14824041E-13</totfact>
</mgrwt>
</event>
<event>
 4    1 -0.5170493E-019  0.1494230E+02  0.7818608E-02  0.1869834E+00
         -2   -1    0    0    0  501 -0.00000000000E+00  0.00000000000E+00  0.12029332357E+03  0.12029332360E+03  0.25500000000E-02 0. -1.
          2   -1    0    0  501    0  0.00000000000E+00 -0.00000000000E+00 -0.46401264849E+00  0.46401965525E+00  0.25500000000E-02 0.  1.
         31    1    1    2    0    0 -0.13986841314E-01  0.38913613725E+00  0.63595987618E+02  0.64031712376E+02  0.74470750000E+01 0. -1.
        -31    1    1    2    0    0  0.13986841314E-01 -0.38913613725E+00  0.56233323305E+02  0.56725630878E+02  0.74470750000E+01 0.  1.
<mgrwt>
<rscale>  0 0.14942295E+02</rscale>
<asrwt>0</asrwt>
<pdfrwt beam="2">  1        2 0.98557177E+00 0.14942295E+02</pdfrwt>
<pdfrwt beam="1">  1       -2 0.99850620E+00 0.14942295E+02</pdfrwt>
<totfact>-0.14743794E-13</totfact>
</mgrwt>
</event>
<event>
 4    1  0.5170493E-019  0.1492542E+02  0.7818608E-02  0.1870353E+00
          2   -1    0    0  501    0  0.00000000000E+00  0.00000000000E+00  0.11983883795E+03  0.11983883798E+03  0.25500000000E-02 0.  1.
         -2   -1    0    0    0  501 -0.00000000000E+00 -0.00000000000E+00 -0.46472115040E+00  0.46472814647E+00  0.25500000000E-02 0. -1.
         31    1    1    2    0    0 -0.34216517632E+00 -0.29202087771E+00  0.61101312075E+02  0.61555110401E+02  0.74470750000E+01 0.  1.
        -31    1    1    2    0    0  0.34216517632E+00  0.29202087771E+00  0.58272804723E+02  0.58748455721E+02  0.74470750000E+01 0.  1.
<mgrwt>
<rscale>  0 0.14925423E+02</rscale>
<asrwt>0</asrwt>
<pdfrwt beam="1">  1        2 0.99475406E+00 0.14925423E+02</pdfrwt>
<pdfrwt beam="2">  1       -2 0.98705642E+00 0.14925423E+02</pdfrwt>
<totfact> 0.24594381E-13</totfact>
</mgrwt>
</event>
<event>
 4    1  0.5170493E-019  0.1490961E+02  0.7818608E-02  0.1870839E+00
         -2   -1    0    0    0  501 -0.00000000000E+00  0.00000000000E+00  0.11824569091E+03  0.11824569093E+03  0.25500000000E-02 0. -1.
          2   -1    0    0  501    0  0.00000000000E+00 -0.00000000000E+00 -0.46998485547E+00  0.46999177320E+00  0.25500000000E-02 0.  1.
         31    1    1    2    0    0  0.53517804267E-01  0.33443306249E-01  0.61542886208E+02  0.61991852299E+02  0.74470750000E+01 0. -1.
        -31    1    1    2    0    0 -0.53517804267E-01 -0.33443306249E-01  0.56232819843E+02  0.56723830408E+02  0.74470750000E+01 0.  1.
<mgrwt>
<rscale>  0 0.14909607E+02</rscale>
<asrwt>0</asrwt>
<pdfrwt beam="2">  1        2 0.99814003E+00 0.14909607E+02</pdfrwt>
<pdfrwt beam="1">  1       -2 0.98162433E+00 0.14909607E+02</pdfrwt>
<totfact> 0.54794644E-13</totfact>
</mgrwt>
</event>
<event>
 4    1 -0.5170493E-019  0.1492141E+02  0.7818608E-02  0.1870476E+00
          2   -1    0    0  501    0  0.00000000000E+00  0.00000000000E+00  0.11882250301E+03  0.11882250304E+03  0.25500000000E-02 0.  1.
         -2   -1    0    0    0  501 -0.00000000000E+00 -0.00000000000E+00 -0.46844411215E+00  0.46845105263E+00  0.25500000000E-02 0. -1.
         31    1    1    2    0    0 -0.25187029334E+00  0.22783144783E-01  0.56193914975E+02  0.56685791553E+02  0.74470750000E+01 0. -1.
        -31    1    1    2    0    0  0.25187029334E+00 -0.22783144783E-01  0.62160143921E+02  0.62605162535E+02  0.74470750000E+01 0.  1.
<mgrwt>
<rscale>  0 0.14921410E+02</rscale>
<asrwt>0</asrwt>
<pdfrwt beam="1">  1        2 0.98638107E+00 0.14921410E+02</pdfrwt>
<pdfrwt beam="2">  1       -2 0.99489986E+00 0.14921410E+02</pdfrwt>
<totfact>-0.28016138E-13</totfact>
</mgrwt>
</event>
<event>
 4    1  0.5170493E-019  0.1490418E+02  0.7818608E-02  0.1871007E+00
          2   -1    0    0  501    0  0.00000000000E+00  0.00000000000E+00  0.11998863835E+03  0.11998863838E+03  0.25500000000E-02 0.  1.
         -2   -1    0    0    0  501 -0.00000000000E+00 -0.00000000000E+00 -0.46282037852E+00  0.46282740333E+00  0.25500000000E-02 0. -1.
         31    1    1    2    0    0  0.76582496466E-01  0.16950214659E+00  0.61381067801E+02  0.61831456447E+02  0.74470750000E+01 0.  1.
        -31    1    1    2    0    0 -0.76582496466E-01 -0.16950214659E+00  0.58144750168E+02  0.58620009332E+02  0.74470750000E+01 0. -1.
<mgrwt>
<rscale>  0 0.14904175E+02</rscale>
<asrwt>0</asrwt>
<pdfrwt beam="1">  1        2 0.99597699E+00 0.14904175E+02</pdfrwt>
<pdfrwt beam="2">  1       -2 0.98303954E+00 0.14904175E+02</pdfrwt>
<totfact> 0.70083661E-13</totfact>
</mgrwt>
</event>
<event>
 4    1 -0.5170493E-019  0.1493395E+02  0.7818608E-02  0.1870091E+00
          2   -1    0    0  501    0  0.00000000000E+00  0.00000000000E+00  0.11862036317E+03  0.11862036320E+03  0.25500000000E-02 0. -1.
         -2   -1    0    0    0  501 -0.00000000000E+00 -0.00000000000E+00 -0.47003150652E+00  0.47003842355E+00  0.25500000000E-02 0.  1.
         31    1    1    2    0    0  0.36518594398E-01 -0.54351138204E+00  0.59014840410E+02  0.59485351583E+02  0.74470750000E+01 0. -1.
        -31    1    1    2    0    0 -0.36518594398E-01  0.54351138204E+00  0.59135491252E+02  0.59605050037E+02  0.74470750000E+01 0. -1.
<mgrwt>
<rscale>  0 0.14933951E+02</rscale>
<asrwt>0</asrwt>
<pdfrwt beam="1">  1        2 0.98472276E+00 0.14933951E+02</pdfrwt>
<pdfrwt beam="2">  1       -2 0.99825119E+00 0.14933951E+02</pdfrwt>
<totfact>-0.19329834E-13</totfact>
</mgrwt>
</event>
<event>
 4    1  0.5170493E-019  0.1491768E+02  0.7818608E-02  0.1870591E+00
         -2   -1    0    0    0  501 -0.00000000000E+00  0.00000000000E+00  0.11859279890E+03  0.11859279893E+03  0.25500000000E-02 0. -1.
          2   -1    0    0  501    0  0.00000000000E+00 -0.00000000000E+00 -0.46911654802E+00  0.46912347855E+00  0.25500000000E-02 0.  1.
         31    1    1    2    0    0 -0.32285036225E+00  0.16700187906E+00  0.60720919741E+02  0.61176965782E+02  0.74470750000E+01 0.  1.
        -31    1    1    2    0    0  0.32285036225E+00 -0.16700187906E+00  0.57402762609E+02  0.57884956622E+02  0.74470750000E+01 0.  1.
<mgrwt>
<rscale>  0 0.14917675E+02</rscale>
<asrwt>0</asrwt>
<pdfrwt beam="2">  1        2 0.99631478E+00 0.14917675E+02</pdfrwt>
<pdfrwt beam="1">  1       -2 0.98448728E+00 0.14917675E+02</pdfrwt>
<totfact> 0.46973487E-13</totfact>
</mgrwt>
</event>
<event>
 4    1 -0.5170493E-019  0.1490642E+02  0.7818608E-02  0.1870938E+00
         -2   -1    0    0    0  501 -0.00000000000E+00  0.00000000000E+00  0.11988446968E+03  0.11988446971E+03  0.25500000000E-02 0. -1.
          2   -1    0    0  501    0  0.00000000000E+00 -0.00000000000E+00 -0.46336190552E+00  0.46336892212E+00  0.25500000000E-02 0.  1.
         31    1    1    2    0    0  0.17429719591E+00 -0.24637744749E+00  0.59853332267E+02  0.60315598238E+02  0.74470750000E+01 0. -1.
        -31    1    1    2    0    0 -0.17429719591E+00  0.24637744749E+00  0.59567775512E+02  0.60032240395E+02  0.74470750000E+01 0.  1.
<mgrwt>
<rscale>  0 0.14906417E+02</rscale>
<asrwt>0</asrwt>
<pdfrwt beam="2">  1        2 0.98418202E+00 0.14906417E+02</pdfrwt>
<pdfrwt beam="1">  1       -2 0.99512013E+00 0.14906417E+02</pdfrwt>
<totfact>-0.39580636E-13</totfact>
</mgrwt>
</event>
<event>
 4    1 -0.5170493E-019  0.1495920E+02  0.7818608E-02  0.1869316E+00
          2   -1    0    0  501    0  0.00000000000E+00  0.00000000000E+00  0.11929924903E+03  0.11929924905E+03  0.25500000000E-02 0. -1.
         -2   -1    0    0    0  501 -0.00000000000E+00 -0.00000000000E+00 -0.46893838336E+00  0.46894531652E+00  0.25500000000E-02 0.  1.
         31    1    1    2    0    0 -0.43633035314E+00 -0.20402127803E+00  0.63446073945E+02  0.63883450392E+02  0.74470750000E+01 0. -1.
        -31    1    1    2    0    0  0.43633035314E+00  0.20402127803E+00  0.55384236698E+02  0.55884743978E+02  0.74470750000E+01 0.  1.
<mgrwt>
<rscale>  0 0.14959200E+02</rscale>
<asrwt>0</asrwt>
<pdfrwt beam="1">  1        2 0.99032723E+00 0.14959200E+02</pdfrwt>
<pdfrwt beam="2">  1       -2 0.99596111E+00 0.14959200E+02</pdfrwt>
<totfact>-0.16322934E-13</totfact>
</mgrwt>
</event>
<event>
 4    1  0.5170493E-019  0.1490562E+02  0.7818608E-02  0.1870962E+00
          2   -1    0    0  501    0  0.00000000000E+00  0.00000000000E+00  0.11952492749E+03  0.11952492751E+03  0.25500000000E-02 0. -1.
         -2   -1    0    0    0  501 -0.00000000000E+00 -0.00000000000E+00 -0.46470596912E+00  0.46471296543E+00  0.25500000000E-02 0.  1.
         31    1    1    2    0    0 -0.26965571806E+00 -0.10339591848E+00  0.59893489332E+02  0.60355384145E+02  0.74470750000E+01 0.  1.
        -31    1    1    2    0    0  0.26965571806E+00  0.10339591848E+00  0.59166732185E+02  0.59634256333E+02  0.74470750000E+01 0.  1.
<mgrwt>
<rscale>  0 0.14905619E+02</rscale>
<asrwt>0</asrwt>
<pdfrwt beam="1">  1        2 0.99215830E+00 0.14905619E+02</pdfrwt>
<pdfrwt beam="2">  1       -2 0.98701429E+00 0.14905619E+02</pdfrwt>
<totfact> 0.30643055E-13</totfact>
</mgrwt>
</event>
<event>
 4    1  0.5170493E-019  0.1493156E+02  0.7818608E-02  0.1870164E+00
         -2   -1    0    0    0  501 -0.00000000000E+00  0.00000000000E+00  0.11855766047E+03  0.11855766050E+03  0.25500000000E-02 0.  1.
          2   -1    0    0  501    0  0.00000000000E+00 -0.00000000000E+00 -0.47012966024E+00  0.47013657583E+00  0.25500000000E-02 0. -1.
         31    1    1    2    0    0  0.10143949545E+00  0.22054181548E+00  0.55304509301E+02  0.55804180880E+02  0.74470750000E+01 0. -1.
        -31    1    1    2    0    0 -0.10143949545E+00 -0.22054181548E+00  0.62783021509E+02  0.63223616193E+02  0.74470750000E+01 0.  1.
<mgrwt>
<rscale>  0 0.14931562E+02</rscale>
<asrwt>0</asrwt>
<pdfrwt beam="2">  1        2 0.99845674E+00 0.14931562E+02</pdfrwt>
<pdfrwt beam="1">  1       -2 0.98420511E+00 0.14931562E+02</pdfrwt>
<totfact> 0.26729220E-13</totfact>
</mgrwt>
</event>
<event>
 4    1  0.5170493E-019  0.1490904E+02  0.7818608E-02  0.1870857E+00
         -2   -1    0    0    0  501 -0.00000000000E+00  0.00000000000E+00  0.11850851442E+03  0.11850851445E+03  0.25500000000E-02 0. -1.
          2   -1    0    0  501    0  0.00000000000E+00 -0.00000000000E+00 -0.46890673931E+00  0.46891367294E+00  0.25500000000E-02 0.  1.
         31    1    1    2    0    0 -0.12486460297E+00 -0.79954167604E-01  0.61399800918E+02  0.61849951194E+02  0.74470750000E+01 0. -1.
        -31    1    1    2    0    0  0.12486460297E+00  0.79954167604E-01  0.56639806765E+02  0.57127476929E+02  0.74470750000E+01 0.  1.
<mgrwt>
<rscale>  0 0.14909038E+02</rscale>
<asrwt>0</asrwt>
<pdfrwt beam="2">  1        2 0.99586816E+00 0.14909038E+02</pdfrwt>
<pdfrwt beam="1">  1       -2 0.98378862E+00 0.14909038E+02</pdfrwt>
<totfact> 0.59900094E-13</totfact>
</mgrwt>
</event>
<event>
 4    1 -0.5170493E-019  0.1501006E+02  0.7818608E-02  0.1867762E+00
         -2   -1    0    0    0  501 -0.00000000000E+00  0.00000000000E+00  0.12013697368E+03  0.12013697370E+03  0.25500000000E-02 0.  1.
          2   -1    0    0  501    0  0.00000000000E+00 -0.00000000000E+00 -0.46884008714E+00  0.46884702176E+00  0.25500000000E-02 0. -1.
         31    1    1    2    0    0 -0.10059898612E+00  0.79848725842E+00  0.56075430139E+02  0.56573496386E+02  0.74470750000E+01 0. -1.
        -31    1    1    2    0    0  0.10059898612E+00 -0.79848725842E+00  0.63592703450E+02  0.64032324339E+02  0.74470750000E+01 0.  1.
<mgrwt>
<rscale>  0 0.15010056E+02</rscale>
<asrwt>0</asrwt>
<pdfrwt beam="2">  1        2 0.99578035E+00 0.15010056E+02</pdfrwt>
<pdfrwt beam="1">  1       -2 0.99725331E+00 0.15010056E+02</pdfrwt>
<totfact>-0.82188838E-14</totfact>
</mgrwt>
</event>
<event>
 4    1 -0.5170493E-019  0.1497738E+02  0.7818608E-02  0.1868760E+00
          2   -1    0    0  501    0  0.00000000000E+00  0.00000000000E+00  0.11959055843E+03  0.11959055846E+03  0.25500000000E-02 0.  1.
         -2   -1    0    0    0  501 -0.00000000000E+00 -0.00000000000E+00 -0.46893382307E+00  0.46894075630E+00  0.25500000000E-02 0. -1.
         31    1    1    2    0    0  0.17637194933E+00  0.16833583016E+00  0.53550879506E+02  0.54066764892E+02  0.74470750000E+01 0. -1.
        -31    1    1    2    0    0 -0.17637194933E+00 -0.16833583016E+00  0.65570745100E+02  0.65992734320E+02  0.74470750000E+01 0.  1.
<mgrwt>
<rscale>  0 0.14977380E+02</rscale>
<asrwt>0</asrwt>
<pdfrwt beam="1">  1        2 0.99273594E+00 0.14977380E+02</pdfrwt>
<pdfrwt beam="2">  1       -2 0.99596097E+00 0.14977380E+02</pdfrwt>
<totfact>-0.13527625E-13</totfact>
</mgrwt>
</event>
<event>
 4    1 -0.5170493E-019  0.1494189E+02  0.7818608E-02  0.1869847E+00
         -2   -1    0    0    0  501 -0.00000000000E+00  0.00000000000E+00  0.12006787078E+03  0.12006787080E+03  0.25500000000E-02 0. -1.
          2   -1    0    0  501    0  0.00000000000E+00 -0.00000000000E+00 -0.46485848125E+00  0.46486547526E+00  0.25500000000E-02 0.  1.
         31    1    1    2    0    0  0.32553526192E+00 -0.43536620214E+00  0.61786459045E+02  0.62236010190E+02  0.74470750000E+01 0. -1.
        -31    1    1    2    0    0 -0.32553526192E+00  0.43536620214E+00  0.57816553249E+02  0.58296726088E+02  0.74470750000E+01 0. -1.
<mgrwt>
<rscale>  0 0.14941886E+02</rscale>
<asrwt>0</asrwt>
<pdfrwt beam="2">  1        2 0.98735425E+00 0.14941886E+02</pdfrwt>
<pdfrwt beam="1">  1       -2 0.99664900E+00 0.14941886E+02</pdfrwt>
<totfact>-0.20850280E-13</totfact>
</mgrwt>
</event>
<event>
 4    1 -0.5170493E-019  0.1496584E+02  0.7818608E-02  0.1869113E+00
         -2   -1    0    0    0  501 -0.00000000000E+00  0.00000000000E+00  0.11989504700E+03  0.11989504703E+03  0.25500000000E-02 0.  1.
          2   -1    0    0  501    0  0.00000000000E+00 -0.00000000000E+00 -0.46702269819E+00  0.46702965979E+00  0.25500000000E-02 0. -1.
         31    1    1    2    0    0 -0.48078759401E-01 -0.84589602540E-01  0.65545404372E+02  0.65967176893E+02  0.74470750000E+01 0.  1.
        -31    1    1    2    0    0  0.48078759401E-01  0.84589602540E-01  0.53882619930E+02  0.54394899794E+02  0.74470750000E+01 0. -1.
<mgrwt>
<rscale>  0 0.14965845E+02</rscale>
<asrwt>0</asrwt>
<pdfrwt beam="2">  1        2 0.99192761E+00 0.14965845E+02</pdfrwt>
<pdfrwt beam="1">  1       -2 0.99523786E+00 0.14965845E+02</pdfrwt>
<totfact>-0.15102611E-13</totfact>
</mgrwt>
</event>
<event>
 4    1 -0.5170493E-019  0.1498420E+02  0.7818608E-02  0.1868551E+00
          2   -1    0    0  501    0  0.00000000000E+00  0.00000000000E+00  0.11938962635E+03  0.11938962638E+03  0.25500000000E-02 0. -1.
         -2   -1    0    0    0  501 -0.00000000000E+00 -0.00000000000E+00 -0.47015087835E+00  0.47015779363E+00  0.25500000000E-02 0.  1.
         31    1    1    2    0    0  0.80146416582E+00 -0.40406738074E-01  0.58105784372E+02  0.58586560584E+02  0.74470750000E+01 0.  1.
        -31    1    1    2    0    0 -0.80146416582E+00  0.40406738074E-01  0.60813691097E+02  0.61273223584E+02  0.74470750000E+01 0. -1.
<mgrwt>
<rscale>  0 0.14984199E+02</rscale>
<asrwt>0</asrwt>
<pdfrwt beam="1">  1        2 0.99108456E+00 0.14984199E+02</pdfrwt>
<pdfrwt beam="2">  1       -2 0.99852911E+00 0.14984199E+02</pdfrwt>
<totfact>-0.74584385E-14</totfact>
</mgrwt>
</event>
<event>
 4    1  0.5170493E-019  0.1494902E+02  0.7818608E-02  0.1869628E+00
         -2   -1    0    0    0  501 -0.00000000000E+00  0.00000000000E+00  0.11890724335E+03  0.11890724337E+03  0.25500000000E-02 0. -1.
          2   -1    0    0  501    0  0.00000000000E+00 -0.00000000000E+00 -0.46984400209E+00  0.46985092189E+00  0.25500000000E-02 0.  1.
         31    1    1    2    0    0  0.51674539561E+00 -0.20384655332E+00  0.61753607252E+02  0.62203500817E+02  0.74470750000E+01 0. -1.
        -31    1    1    2    0    0 -0.51674539561E+00  0.20384655332E+00  0.56683792094E+02  0.57173593480E+02  0.74470750000E+01 0. -1.
<mgrwt>
<rscale>  0 0.14949016E+02</rscale>
<asrwt>0</asrwt>
<pdfrwt beam="2">  1        2 0.99786405E+00 0.14949016E+02</pdfrwt>
<pdfrwt beam="1">  1       -2 0.98709334E+00 0.14949016E+02</pdfrwt>
<totfact> 0.13652455E-13</totfact>
</mgrwt>
</event>
<event>
 4    1 -0.5170493E-019  0.1500071E+02  0.7818608E-02  0.1868047E+00
         -2   -1    0    0    0  501 -0.00000000000E+00  0.00000000000E+00  0.12020344798E+03  0.12020344800E+03  0.25500000000E-02 0. -1.
          2   -1    0    0  501    0  0.00000000000E+00 -0.00000000000E+00 -0.46799772069E+00  0.46800466779E+00  0.25500000000E-02 0.  1.
         31    1    1    2    0    0 -0.52334002706E+00 -0.44676728909E+00  0.64439231196E+02  0.64871772976E+02  0.74470750000E+01 0. -1.
        -31    1    1    2    0    0  0.52334002706E+00  0.44676728909E+00  0.55296219060E+02  0.55799679696E+02  0.74470750000E+01 0. -1.
<mgrwt>
<rscale>  0 0.15000715E+02</rscale>
<asrwt>0</asrwt>
<pdfrwt beam="2">  1        2 0.99400033E+00 0.15000715E+02</pdfrwt>
<pdfrwt beam="1">  1       -2 0.99779600E+00 0.15000715E+02</pdfrwt>
<totfact>-0.83853895E-14</totfact>
</mgrwt>
</event>
<event>
 4    1  0.5170493E-019  0.1491176E+02  0.7818608E-02  0.1870773E+00
          2   -1    0    0  501    0  0.00000000000E+00  0.00000000000E+00  0.12016186967E+03  0.12016186970E+03  0.25500000000E-02 0. -1.
         -2   -1    0    0    0  501 -0.00000000000E+00 -0.00000000000E+00 -0.46262357769E+00  0.46263060549E+00  0.25500000000E-02 0.  1.
         31    1    1    2    0    0  0.11581357394E+00  0.27467393321E+00  0.61514409974E+02  0.61964267276E+02  0.74470750000E+01 0. -1.
        -31    1    1    2    0    0 -0.11581357394E+00 -0.27467393321E+00  0.58184836119E+02  0.58660233028E+02  0.74470750000E+01 0.  1.
<mgrwt>
<rscale>  0 0.14911759E+02</rscale>
<asrwt>0</asrwt>
<pdfrwt beam="1">  1        2 0.99740777E+00 0.14911759E+02</pdfrwt>
<pdfrwt beam="2">  1       -2 0.98262859E+00 0.14911759E+02</pdfrwt>
<totfact> 0.57537520E-13</totfact>
</mgrwt>
</event>
<event>
 4    1  0.5170493E-019  0.1489976E+02  0.7818608E-02  0.1871143E+00
         -2   -1    0    0    0  501 -0.00000000000E+00  0.00000000000E+00  0.11830967453E+03  0.11830967456E+03  0.25500000000E-02 0. -1.
          2   -1    0    0  501    0  0.00000000000E+00 -0.00000000000E+00 -0.46911068014E+00  0.46911761075E+00  0.25500000000E-02 0.  1.
         31    1    1    2    0    0 -0.18208357370E+00 -0.73265300608E-01  0.58462553261E+02  0.58935282998E+02  0.74470750000E+01 0.  1.
        -31    1    1    2    0    0  0.18208357370E+00  0.73265300608E-01  0.59378010589E+02  0.59843509170E+02  0.74470750000E+01 0. -1.
<mgrwt>
<rscale>  0 0.14899764E+02</rscale>
<asrwt>0</asrwt>
<pdfrwt beam="2">  1        2 0.99629297E+00 0.14899764E+02</pdfrwt>
<pdfrwt beam="1">  1       -2 0.98214616E+00 0.14899764E+02</pdfrwt>
<totfact> 0.80594979E-13</totfact>
</mgrwt>
</event>
<event>
 4    1  0.5170493E-019  0.1492542E+02  0.7818608E-02  0.1870353E+00
          2   -1    0    0  501    0  0.00000000000E+00  0.00000000000E+00  0.12019429531E+03  0.12019429534E+03  0.25500000000E-02 0.  1.
         -2   -1    0    0    0  501 -0.00000000000E+00 -0.00000000000E+00 -0.46334677515E+00  0.46335379198E+00  0.25500000000E-02 0. -1.
         31    1    1    2    0    0 -0.26553220683E-01  0.37202307375E+00  0.62344411498E+02  0.62788722533E+02  0.74470750000E+01 0.  1.
        -31    1    1    2    0    0  0.26553220683E-01 -0.37202307375E+00  0.57386537040E+02  0.57868926600E+02  0.74470750000E+01 0. -1.
<mgrwt>
<rscale>  0 0.14925423E+02</rscale>
<asrwt>0</asrwt>
<pdfrwt beam="1">  1        2 0.99768186E+00 0.14925423E+02</pdfrwt>
<pdfrwt beam="2">  1       -2 0.98415978E+00 0.14925423E+02</pdfrwt>
<totfact> 0.37276580E-13</totfact>
</mgrwt>
</event>
<event>
 4    1  0.5170493E-019  0.1490839E+02  0.7818608E-02  0.1870877E+00
          2   -1    0    0  501    0  0.00000000000E+00  0.00000000000E+00  0.12004770721E+03  0.12004770723E+03  0.25500000000E-02 0.  1.
         -2   -1    0    0    0  501 -0.00000000000E+00 -0.00000000000E+00 -0.46285423802E+00  0.46286126231E+00  0.25500000000E-02 0. -1.
         31    1    1    2    0    0  0.19126501407E+00  0.21289937860E+00  0.61049400634E+02  0.61502602809E+02  0.74470750000E+01 0.  1.
        -31    1    1    2    0    0 -0.19126501407E+00 -0.21289937860E+00  0.58535452333E+02  0.59007965686E+02  0.74470750000E+01 0.  1.
<mgrwt>
<rscale>  0 0.14908389E+02</rscale>
<asrwt>0</asrwt>
<pdfrwt beam="1">  1        2 0.99646570E+00 0.14908389E+02</pdfrwt>
<pdfrwt beam="2">  1       -2 0.98311304E+00 0.14908389E+02</pdfrwt>
<totfact> 0.63776066E-13</totfact>
</mgrwt>
</event>
<event>
 4    1 -0.5170493E-019  0.1494265E+02  0.7818608E-02  0.1869824E+00
          2   -1    0    0  501    0  0.00000000000E+00  0.00000000000E+00  0.11928880712E+03  0.11928880715E+03  0.25500000000E-02 0.  1.
         -2   -1    0    0    0  501 -0.00000000000E+00 -0.00000000000E+00 -0.46794220853E+00  0.46794915645E+00  0.25500000000E-02 0. -1.
         31    1    1    2    0    0 -0.37679319811E+00  0.46090765419E+00  0.58723315927E+02  0.59196631394E+02  0.74470750000E+01 0. -1.
        -31    1    1    2    0    0  0.37679319811E+00 -0.46090765419E+00  0.60097548985E+02  0.60560124910E+02  0.74470750000E+01 0.  1.
<mgrwt>
<rscale>  0 0.14942648E+02</rscale>
<asrwt>0</asrwt>
<pdfrwt beam="1">  1        2 0.99023265E+00 0.14942648E+02</pdfrwt>
<pdfrwt beam="2">  1       -2 0.99385333E+00 0.14942648E+02</pdfrwt>
<totfact>-0.16914766E-13</totfact>
</mgrwt>
</event>
<event>
 4    1 -0.5170493E-019  0.1494108E+02  0.7818608E-02  0.1869872E+00
         -2   -1    0    0    0  501 -0.00000000000E+00  0.00000000000E+00  0.11993400378E+03  0.11993400381E+03  0.25500000000E-02 0.  1.
          2   -1    0    0  501    0  0.00000000000E+00 -0.00000000000E+00 -0.46532738847E+00  0.46533437543E+00  0.25500000000E-02 0. -1.
         31    1    1    2    0    0  0.55739128846E+00  0.15339134947E+00  0.60749136978E+02  0.61206623690E+02  0.74470750000E+01 0. -1.
        -31    1    1    2    0    0 -0.55739128846E+00 -0.15339134947E+00  0.58719539418E+02  0.59192714496E+02  0.74470750000E+01 0. -1.
<mgrwt>
<rscale>  0 0.14941084E+02</rscale>
<asrwt>0</asrwt>
<pdfrwt beam="2">  1        2 0.98834209E+00 0.14941084E+02</pdfrwt>
<pdfrwt beam="1">  1       -2 0.99554597E+00 0.14941084E+02</pdfrwt>
<totfact>-0.20875992E-13</totfact>
</mgrwt>
</event>
<event>
 4    1 -0.5170493E-019  0.1500791E+02  0.7818608E-02  0.1867827E+00
          2   -1    0    0  501    0  0.00000000000E+00  0.00000000000E+00  0.11977828887E+03  0.11977828890E+03  0.25500000000E-02 0.  1.
         -2   -1    0    0    0  501 -0.00000000000E+00 -0.00000000000E+00 -0.47010964099E+00  0.47011655688E+00  0.25500000000E-02 0. -1.
         31    1    1    2    0    0 -0.77464701624E+00 -0.40135798806E+00  0.62047801100E+02  0.62499197704E+02  0.74470750000E+01 0. -1.
        -31    1    1    2    0    0  0.77464701624E+00  0.40135798806E+00  0.57260378133E+02  0.57749207754E+02  0.74470750000E+01 0. -1.
<mgrwt>
<rscale>  0 0.15007911E+02</rscale>
<asrwt>0</asrwt>
<pdfrwt beam="1">  1        2 0.99429795E+00 0.15007911E+02</pdfrwt>
<pdfrwt beam="2">  1       -2 0.99845458E+00 0.15007911E+02</pdfrwt>
<totfact>-0.61097770E-14</totfact>
</mgrwt>
</event>
