<event>
 4    1  0.5167034E-019  0.1490509E+02  0.7818608E-02  0.1870979E+00
          2   -1    0    0  501    0  0.00000000000E+00  0.00000000000E+00  0.11978718250E+03  0.11978718253E+03  0.25500000000E-02 0. -1.
         -2   -1    0    0    0  501 -0.00000000000E+00 -0.00000000000E+00 -0.46365541291E+00  0.46366242507E+00  0.25500000000E-02 0.  1.
         31    1    1    2    0    0  0.25380763108E+00 -0.24704841220E-01  0.58627196140E+02  0.59098833169E+02  0.74470750000E+01 0.  1.
        -31    1    1    2    0    0 -0.25380763108E+00  0.24704841220E-01  0.60696330949E+02  0.61152011785E+02  0.74470750000E+01 0.  1.
<mgrwt>
<rscale>  0 0.14905086E+02</rscale>
<asrwt>0</asrwt>
<pdfrwt beam="1">  1        2 0.99431812E+00 0.14905086E+02</pdfrwt>
<pdfrwt beam="2">  1       -2 0.98479994E+00 0.14905086E+02</pdfrwt>
<totfact> 0.54655666E-13</totfact>
</mgrwt>
</event>
<event>
 4    1 -0.5167034E-019  0.1495738E+02  0.7818608E-02  0.1869372E+00
          2   -1    0    0  501    0  0.00000000000E+00  0.00000000000E+00  0.11981456482E+03  0.11981456485E+03  0.25500000000E-02 0. -1.
         -2   -1    0    0    0  501 -0.00000000000E+00 -0.00000000000E+00 -0.46680800095E+00  0.46681496575E+00  0.25500000000E-02 0.  1.
         31    1    1    2    0    0 -0.57425619785E+00 -0.19836567341E+00  0.62251872617E+02  0.62698673746E+02  0.74470750000E+01 0. -1.
        -31    1    1    2    0    0  0.57425619785E+00  0.19836567341E+00  0.57095884201E+02  0.57582706066E+02  0.74470750000E+01 0.  1.
<mgrwt>
<rscale>  0 0.14957382E+02</rscale>
<asrwt>0</asrwt>
<pdfrwt beam="1">  1        2 0.99457060E+00 0.14957382E+02</pdfrwt>
<pdfrwt beam="2">  1       -2 0.99147080E+00 0.14957382E+02</pdfrwt>
<totfact>-0.63360654E-14</totfact>
</mgrwt>
</event>
<event>
 4    1  0.5167034E-019  0.1492485E+02  0.7818608E-02  0.1870371E+00
         -2   -1    0    0    0  501 -0.00000000000E+00  0.00000000000E+00  0.11841386142E+03  0.11841386145E+03  0.25500000000E-02 0. -1.
          2   -1    0    0  501    0  0.00000000000E+00 -0.00000000000E+00 -0.47027733535E+00  0.47028424877E+00  0.25500000000E-02 0.  1.
         31    1    1    2    0    0  0.27020698316E+00 -0.18449475949E+00  0.61751650817E+02  0.62199938543E+02  0.74470750000E+01 0. -1.
        -31    1    1    2    0    0 -0.27020698316E+00  0.18449475949E+00  0.56191933273E+02  0.56684207158E+02  0.74470750000E+01 0.  1.
<mgrwt>
<rscale>  0 0.14924847E+02</rscale>
<asrwt>0</asrwt>
<pdfrwt beam="2">  1        2 0.99876434E+00 0.14924847E+02</pdfrwt>
<pdfrwt beam="1">  1       -2 0.98301730E+00 0.14924847E+02</pdfrwt>
<totfact> 0.29300209E-13</totfact>
</mgrwt>
</event>
<event>
 4    1 -0.5167034E-019  0.1495205E+02  0.7818608E-02  0.1869535E+00
          2   -1    0    0  501    0  0.00000000000E+00  0.00000000000E+00  0.11953953471E+03  0.11953953474E+03  0.25500000000E-02 0.  1.
         -2   -1    0    0    0  501 -0.00000000000E+00 -0.00000000000E+00 -0.46754879376E+00  0.46755574753E+00  0.25500000000E-02 0. -1.
         31    1    1    2    0    0 -0.38978987680E+00 -0.12285725586E+00  0.63667913305E+02  0.64103269345E+02  0.74470750000E+01 0.  1.
        -31    1    1    2    0    0  0.38978987680E+00  0.12285725586E+00  0.55404072614E+02  0.55903821142E+02  0.74470750000E+01 0. -1.
<mgrwt>
<rscale>  0 0.14952055E+02</rscale>
<asrwt>0</asrwt>
<pdfrwt beam="1">  1        2 0.99230259E+00 0.14952055E+02</pdfrwt>
<pdfrwt beam="2">  1       -2 0.99302917E+00 0.14952055E+02</pdfrwt>
<totfact>-0.12915104E-13</totfact>
</mgrwt>
</event>
<event>
 4    1  0.5167034E-019  0.1494245E+02  0.7818608E-02  0.1869830E+00
         -2   -1    0    0    0  501 -0.00000000000E+00  0.00000000000E+00  0.11868088903E+03  0.11868088906E+03  0.25500000000E-02 0. -1.
          2   -1    0    0  501    0  0.00000000000E+00 -0.00000000000E+00 -0.47032660691E+00  0.47033351961E+00  0.25500000000E-02 0.  1.
         31    1    1    2    0    0 -0.31265595222E+00 -0.77102684828E-01  0.55066237543E+02  0.55568454556E+02  0.74470750000E+01 0.  1.
        -31    1    1    2    0    0  0.31265595222E+00  0.77102684828E-01  0.63144324883E+02  0.63582768023E+02  0.74470750000E+01 0. -1.
<mgrwt>
<rscale>  0 0.14942449E+02</rscale>
<asrwt>0</asrwt>
<pdfrwt beam="2">  1        2 0.99887745E+00 0.14942449E+02</pdfrwt>
<pdfrwt beam="1">  1       -2 0.98522567E+00 0.14942449E+02</pdfrwt>
<totfact> 0.15436427E-13</totfact>
</mgrwt>
</event>
<event>
 4    1  0.5167034E-019  0.1491145E+02  0.7818608E-02  0.1870783E+00
         -2   -1    0    0    0  501 -0.00000000000E+00  0.00000000000E+00  0.11811477420E+03  0.11811477422E+03  0.25500000000E-02 0.  1.
          2   -1    0    0  501    0  0.00000000000E+00 -0.00000000000E+00 -0.47062208394E+00  0.47062899230E+00  0.25500000000E-02 0. -1.
         31    1    1    2    0    0  0.47491538028E-01 -0.78413121086E-01  0.56061440705E+02  0.56553978322E+02  0.74470750000E+01 0. -1.
        -31    1    1    2    0    0 -0.47491538028E-01  0.78413121086E-01  0.61582711407E+02  0.62031424894E+02  0.74470750000E+01 0.  1.
<mgrwt>
<rscale>  0 0.14911450E+02</rscale>
<asrwt>0</asrwt>
<pdfrwt beam="2">  1        2 0.99948358E+00 0.14911450E+02</pdfrwt>
<pdfrwt beam="1">  1       -2 0.98054708E+00 0.14911450E+02</pdfrwt>
<totfact> 0.21519605E-13</totfact>
</mgrwt>
</event>
<event>
 4    1  0.5167034E-019  0.1491606E+02  0.7818608E-02  0.1870641E+00
         -2   -1    0    0    0  501 -0.00000000000E+00  0.00000000000E+00  0.11858846304E+03  0.11858846306E+03  0.25500000000E-02 0.  1.
          2   -1    0    0  501    0  0.00000000000E+00 -0.00000000000E+00 -0.46903204670E+00  0.46903897848E+00  0.25500000000E-02 0. -1.
         31    1    1    2    0    0 -0.24066305347E+00  0.28236015130E+00  0.60337601585E+02  0.60796568464E+02  0.74470750000E+01 0.  1.
        -31    1    1    2    0    0  0.24066305347E+00 -0.28236015130E+00  0.57781829406E+02  0.58260933579E+02  0.74470750000E+01 0. -1.
<mgrwt>
<rscale>  0 0.14916059E+02</rscale>
<asrwt>0</asrwt>
<pdfrwt beam="2">  1        2 0.99613588E+00 0.14916059E+02</pdfrwt>
<pdfrwt beam="1">  1       -2 0.98445073E+00 0.14916059E+02</pdfrwt>
<totfact> 0.48799004E-13</totfact>
</mgrwt>
</event>
<event>
 4    1 -0.5167034E-019  0.1491646E+02  0.7818608E-02  0.1870628E+00
         -2   -1    0    0    0  501 -0.00000000000E+00  0.00000000000E+00  0.12035458186E+03  0.12035458188E+03  0.25500000000E-02 0.  1.
          2   -1    0    0  501    0  0.00000000000E+00 -0.00000000000E+00 -0.46217427669E+00  0.46218131132E+00  0.25500000000E-02 0. -1.
         31    1    1    2    0    0  0.12630893397E+00 -0.32861925702E+00  0.58279430013E+02  0.58754360122E+02  0.74470750000E+01 0. -1.
        -31    1    1    2    0    0 -0.12630893397E+00  0.32861925702E+00  0.61612977567E+02  0.62062403074E+02  0.74470750000E+01 0.  1.
<mgrwt>
<rscale>  0 0.14916463E+02</rscale>
<asrwt>0</asrwt>
<pdfrwt beam="2">  1        2 0.98168395E+00 0.14916463E+02</pdfrwt>
<pdfrwt beam="1">  1       -2 0.99899753E+00 0.14916463E+02</pdfrwt>
<totfact>-0.19704452E-13</totfact>
</mgrwt>
</event>
<event>
 4    1  0.5167034E-019  0.1493387E+02  0.7818608E-02  0.1870093E+00
          2   -1    0    0  501    0  0.00000000000E+00  0.00000000000E+00  0.12040923268E+03  0.12040923270E+03  0.25500000000E-02 0.  1.
         -2   -1    0    0    0  501 -0.00000000000E+00 -0.00000000000E+00 -0.46304349817E+00  0.46305051959E+00  0.25500000000E-02 0. -1.
         31    1    1    2    0    0  0.31403329430E+00  0.27996085119E+00  0.57178467755E+02  0.57662926528E+02  0.74470750000E+01 0. -1.
        -31    1    1    2    0    0 -0.31403329430E+00 -0.27996085119E+00  0.62767721424E+02  0.63209356695E+02  0.74470750000E+01 0.  1.
<mgrwt>
<rscale>  0 0.14933873E+02</rscale>
<asrwt>0</asrwt>
<pdfrwt beam="1">  1        2 0.99945661E+00 0.14933873E+02</pdfrwt>
<pdfrwt beam="2">  1       -2 0.98352483E+00 0.14933873E+02</pdfrwt>
<totfact> 0.12401300E-13</totfact>
</mgrwt>
</event>
<event>
 4    1 -0.5167034E-019  0.1490134E+02  0.7818608E-02  0.1871094E+00
         -2   -1    0    0    0  501 -0.00000000000E+00  0.00000000000E+00  0.12036184357E+03  0.12036184360E+03  0.25500000000E-02 0.  1.
          2   -1    0    0  501    0  0.00000000000E+00 -0.00000000000E+00 -0.46120970580E+00  0.46121675515E+00  0.25500000000E-02 0. -1.
         31    1    1    2    0    0 -0.32265705099E-01 -0.16870461076E+00  0.58692903013E+02  0.59163716013E+02  0.74470750000E+01 0. -1.
        -31    1    1    2    0    0  0.32265705099E-01  0.16870461076E+00  0.61207730849E+02  0.61659344337E+02  0.74470750000E+01 0. -1.
<mgrwt>
<rscale>  0 0.14901339E+02</rscale>
<asrwt>0</asrwt>
<pdfrwt beam="2">  1        2 0.97964322E+00 0.14901339E+02</pdfrwt>
<pdfrwt beam="1">  1       -2 0.99904960E+00 0.14901339E+02</pdfrwt>
<totfact>-0.26316447E-13</totfact>
</mgrwt>
</event>
<event>
 4    1 -0.5167034E-019  0.1492209E+02  0.7818608E-02  0.1870455E+00
         -2   -1    0    0    0  501 -0.00000000000E+00  0.00000000000E+00  0.12040651475E+03  0.12040651478E+03  0.25500000000E-02 0.  1.
          2   -1    0    0  501    0  0.00000000000E+00 -0.00000000000E+00 -0.46232325153E+00  0.46233028390E+00  0.25500000000E-02 0. -1.
         31    1    1    2    0    0  0.44438908653E+00 -0.37819604040E-01  0.60754070525E+02  0.61210415154E+02  0.74470750000E+01 0. -1.
        -31    1    1    2    0    0 -0.44438908653E+00  0.37819604040E-01  0.59190120978E+02  0.59658429911E+02  0.74470750000E+01 0.  1.
<mgrwt>
<rscale>  0 0.14922085E+02</rscale>
<asrwt>0</asrwt>
<pdfrwt beam="2">  1        2 0.98200078E+00 0.14922085E+02</pdfrwt>
<pdfrwt beam="1">  1       -2 0.99942818E+00 0.14922085E+02</pdfrwt>
<totfact>-0.11027085E-13</totfact>
</mgrwt>
</event>
<event>
 4    1  0.5167034E-019  0.1493551E+02  0.7818608E-02  0.1870043E+00
          2   -1    0    0  501    0  0.00000000000E+00  0.00000000000E+00  0.12008988519E+03  0.12008988522E+03  0.25500000000E-02 0.  1.
         -2   -1    0    0    0  501 -0.00000000000E+00 -0.00000000000E+00 -0.46437696060E+00  0.46438396186E+00  0.25500000000E-02 0. -1.
         31    1    1    2    0    0 -0.12062429617E+00  0.44272717032E+00  0.62338496374E+02  0.62783418303E+02  0.74470750000E+01 0.  1.
        -31    1    1    2    0    0  0.12062429617E+00 -0.44272717032E+00  0.57287011858E+02  0.57770850878E+02  0.74470750000E+01 0. -1.
<mgrwt>
<rscale>  0 0.14935515E+02</rscale>
<asrwt>0</asrwt>
<pdfrwt beam="1">  1        2 0.99682705E+00 0.14935515E+02</pdfrwt>
<pdfrwt beam="2">  1       -2 0.98633616E+00 0.14935515E+02</pdfrwt>
<totfact> 0.24329825E-13</totfact>
</mgrwt>
</event>
<event>
 4    1 -0.5167034E-019  0.1491362E+02  0.7818608E-02  0.1870716E+00
         -2   -1    0    0    0  501 -0.00000000000E+00  0.00000000000E+00  0.12036187868E+03  0.12036187871E+03  0.25500000000E-02 0. -1.
          2   -1    0    0  501    0  0.00000000000E+00 -0.00000000000E+00 -0.46197027550E+00  0.46197731323E+00  0.25500000000E-02 0.  1.
         31    1    1    2    0    0  0.20106324782E+00 -0.30059463779E+00  0.58980217915E+02  0.59449607357E+02  0.74470750000E+01 0. -1.
        -31    1    1    2    0    0 -0.20106324782E+00  0.30059463779E+00  0.60919690492E+02  0.61374248665E+02  0.74470750000E+01 0. -1.
<mgrwt>
<rscale>  0 0.14913623E+02</rscale>
<asrwt>0</asrwt>
<pdfrwt beam="2">  1        2 0.98125253E+00 0.14913623E+02</pdfrwt>
<pdfrwt beam="1">  1       -2 0.99905618E+00 0.14913623E+02</pdfrwt>
<totfact>-0.20042395E-13</totfact>
</mgrwt>
</event>
<event>
 4    1  0.5167034E-019  0.1494564E+02  0.7818608E-02  0.1869732E+00
          2   -1    0    0  501    0  0.00000000000E+00  0.00000000000E+00  0.12007975013E+03  0.12007975016E+03  0.25500000000E-02 0. -1.
         -2   -1    0    0    0  501 -0.00000000000E+00 -0.00000000000E+00 -0.46504591693E+00  0.46505290813E+00  0.25500000000E-02 0.  1.
         31    1    1    2    0    0  0.34384754360E+00  0.50107611502E+00  0.58826597930E+02  0.59299214653E+02  0.74470750000E+01 0. -1.
        -31    1    1    2    0    0 -0.34384754360E+00 -0.50107611502E+00  0.60788106287E+02  0.61245588416E+02  0.74470750000E+01 0.  1.
<mgrwt>
<rscale>  0 0.14945638E+02</rscale>
<asrwt>0</asrwt>
<pdfrwt beam="1">  1        2 0.99674877E+00 0.14945638E+02</pdfrwt>
<pdfrwt beam="2">  1       -2 0.98775120E+00 0.14945638E+02</pdfrwt>
<totfact> 0.13495434E-13</totfact>
</mgrwt>
</event>
<event>
 4    1 -0.5167034E-019  0.1499223E+02  0.7818608E-02  0.1868306E+00
          2   -1    0    0  501    0  0.00000000000E+00  0.00000000000E+00  0.12004311942E+03  0.12004311945E+03  0.25500000000E-02 0. -1.
         -2   -1    0    0    0  501 -0.00000000000E+00 -0.00000000000E+00 -0.46809257678E+00  0.46809952247E+00  0.25500000000E-02 0.  1.
         31    1    1    2    0    0 -0.27946470854E+00  0.28933744933E+00  0.65861421065E+02  0.66282331941E+02  0.74470750000E+01 0. -1.
        -31    1    1    2    0    0  0.27946470854E+00 -0.28933744933E+00  0.53713605779E+02  0.54228887030E+02  0.74470750000E+01 0.  1.
<mgrwt>
<rscale>  0 0.14992226E+02</rscale>
<asrwt>0</asrwt>
<pdfrwt beam="1">  1        2 0.99647108E+00 0.14992226E+02</pdfrwt>
<pdfrwt beam="2">  1       -2 0.99419586E+00 0.14992226E+02</pdfrwt>
<totfact>-0.96820695E-14</totfact>
</mgrwt>
</event>
<event>
 4    1 -0.5167034E-019  0.1492928E+02  0.7818608E-02  0.1870234E+00
         -2   -1    0    0    0  501 -0.00000000000E+00  0.00000000000E+00  0.12025304511E+03  0.12025304514E+03  0.25500000000E-02 0.  1.
          2   -1    0    0  501    0  0.00000000000E+00 -0.00000000000E+00 -0.46335970263E+00  0.46336671926E+00  0.25500000000E-02 0. -1.
         31    1    1    2    0    0  0.36430871675E-01 -0.22042057572E+00  0.56171805784E+02  0.56663750349E+02  0.74470750000E+01 0. -1.
        -31    1    1    2    0    0 -0.36430871675E-01  0.22042057572E+00  0.63617879628E+02  0.64052661513E+02  0.74470750000E+01 0.  1.
<mgrwt>
<rscale>  0 0.14929279E+02</rscale>
<asrwt>0</asrwt>
<pdfrwt beam="2">  1        2 0.98418898E+00 0.14929279E+02</pdfrwt>
<pdfrwt beam="1">  1       -2 0.99816775E+00 0.14929279E+02</pdfrwt>
<totfact>-0.21943287E-13</totfact>
</mgrwt>
</event>
<event>
 4    1 -0.5167034E-019  0.1490708E+02  0.7818608E-02  0.1870917E+00
         -2   -1    0    0    0  501 -0.00000000000E+00  0.00000000000E+00  0.11959008726E+03  0.11959008729E+03  0.25500000000E-02 0.  1.
          2   -1    0    0  501    0  0.00000000000E+00 -0.00000000000E+00 -0.46454360642E+00  0.46455060517E+00  0.25500000000E-02 0. -1.
         31    1    1    2    0    0 -0.27798927821E+00 -0.46012901242E-01  0.60610068582E+02  0.61066510747E+02  0.74470750000E+01 0. -1.
        -31    1    1    2    0    0  0.27798927821E+00  0.46012901242E-01  0.58515475073E+02  0.58988127147E+02  0.74470750000E+01 0. -1.
<mgrwt>
<rscale>  0 0.14907076E+02</rscale>
<asrwt>0</asrwt>
<pdfrwt beam="2">  1        2 0.98667286E+00 0.14907076E+02</pdfrwt>
<pdfrwt beam="1">  1       -2 0.99269574E+00 0.14907076E+02</pdfrwt>
<totfact>-0.21846595E-13</totfact>
</mgrwt>
</event>
<event>
 4    1 -0.5167034E-019  0.1494483E+02  0.7818608E-02  0.1869757E+00
          2   -1    0    0  501    0  0.00000000000E+00  0.00000000000E+00  0.11919380473E+03  0.11919380476E+03  0.25500000000E-02 0. -1.
         -2   -1    0    0    0  501 -0.00000000000E+00 -0.00000000000E+00 -0.46845176083E+00  0.46845870120E+00  0.25500000000E-02 0.  1.
         31    1    1    2    0    0  0.15667859777E+00 -0.87115623984E-01  0.64071824729E+02  0.64503409115E+02  0.74470750000E+01 0. -1.
        -31    1    1    2    0    0 -0.15667859777E+00  0.87115623984E-01  0.54653528240E+02  0.55158854343E+02  0.74470750000E+01 0.  1.
<mgrwt>
<rscale>  0 0.14944827E+02</rscale>
<asrwt>0</asrwt>
<pdfrwt beam="1">  1        2 0.98945132E+00 0.14944827E+02</pdfrwt>
<pdfrwt beam="2">  1       -2 0.99492821E+00 0.14944827E+02</pdfrwt>
<totfact>-0.18884275E-13</totfact>
</mgrwt>
</event>
<event>
 4    1 -0.5167034E-019  0.1498576E+02  0.7818608E-02  0.1868503E+00
          2   -1    0    0  501    0  0.00000000000E+00  0.00000000000E+00  0.11988674424E+03  0.11988674426E+03  0.25500000000E-02 0.  1.
         -2   -1    0    0    0  501 -0.00000000000E+00 -0.00000000000E+00 -0.46829878422E+00  0.46830572685E+00  0.25500000000E-02 0. -1.
         31    1    1    2    0    0  0.41716266360E+00  0.37756981826E-01  0.53980146334E+02  0.54493032349E+02  0.74470750000E+01 0. -1.
        -31    1    1    2    0    0 -0.41716266360E+00 -0.37756981826E-01  0.65438299120E+02  0.65862017643E+02  0.74470750000E+01 0. -1.
<mgrwt>
<rscale>  0 0.14985758E+02</rscale>
<asrwt>0</asrwt>
<pdfrwt beam="1">  1        2 0.99517976E+00 0.14985758E+02</pdfrwt>
<pdfrwt beam="2">  1       -2 0.99462708E+00 0.14985758E+02</pdfrwt>
<totfact>-0.11725685E-13</totfact>
</mgrwt>
</event>
<event>
 4    1  0.5167034E-019  0.1490146E+02  0.7818608E-02  0.1871090E+00
          2   -1    0    0  501    0  0.00000000000E+00  0.00000000000E+00  0.11983057438E+03  0.11983057441E+03  0.25500000000E-02 0. -1.
         -2   -1    0    0    0  501 -0.00000000000E+00 -0.00000000000E+00 -0.46326199522E+00  0.46326901333E+00  0.25500000000E-02 0.  1.
         31    1    1    2    0    0  0.19786656597E+00  0.42608432321E-01  0.60620985032E+02  0.61077031027E+02  0.74470750000E+01 0.  1.
        -31    1    1    2    0    0 -0.19786656597E+00 -0.42608432321E-01  0.58746327355E+02  0.59216812396E+02  0.74470750000E+01 0.  1.
<mgrwt>
<rscale>  0 0.14901460E+02</rscale>
<asrwt>0</asrwt>
<pdfrwt beam="1">  1        2 0.99467366E+00 0.14901460E+02</pdfrwt>
<pdfrwt beam="2">  1       -2 0.98396893E+00 0.14901460E+02</pdfrwt>
<totfact> 0.65670880E-13</totfact>
</mgrwt>
</event>
<event>
 4    1 -0.5167034E-019  0.1500293E+02  0.7818608E-02  0.1867979E+00
          2   -1    0    0  501    0  0.00000000000E+00  0.00000000000E+00  0.11999127514E+03  0.11999127517E+03  0.25500000000E-02 0.  1.
         -2   -1    0    0    0  501 -0.00000000000E+00 -0.00000000000E+00 -0.46896393094E+00  0.46897086373E+00  0.25500000000E-02 0. -1.
         31    1    1    2    0    0  0.76579698998E+00  0.14683474340E+00  0.56125219467E+02  0.56622497223E+02  0.74470750000E+01 0. -1.
        -31    1    1    2    0    0 -0.76579698998E+00 -0.14683474340E+00  0.63397091745E+02  0.63837748810E+02  0.74470750000E+01 0. -1.
<mgrwt>
<rscale>  0 0.15002933E+02</rscale>
<asrwt>0</asrwt>
<pdfrwt beam="1">  1        2 0.99604960E+00 0.15002933E+02</pdfrwt>
<pdfrwt beam="2">  1       -2 0.99603765E+00 0.15002933E+02</pdfrwt>
<totfact>-0.97932463E-14</totfact>
</mgrwt>
</event>
<event>
 4    1 -0.5167034E-019  0.1501259E+02  0.7818608E-02  0.1867685E+00
          2   -1    0    0  501    0  0.00000000000E+00  0.00000000000E+00  0.12038800930E+03  0.12038800932E+03  0.25500000000E-02 0.  1.
         -2   -1    0    0    0  501 -0.00000000000E+00 -0.00000000000E+00 -0.46802013155E+00  0.46802707832E+00  0.25500000000E-02 0. -1.
         31    1    1    2    0    0  0.42371962295E+00  0.77175720404E+00  0.62634344934E+02  0.63081655327E+02  0.74470750000E+01 0.  1.
        -31    1    1    2    0    0 -0.42371962295E+00 -0.77175720404E+00  0.57285644231E+02  0.57774381074E+02  0.74470750000E+01 0.  1.
<mgrwt>
<rscale>  0 0.15012586E+02</rscale>
<asrwt>0</asrwt>
<pdfrwt beam="1">  1        2 0.99932227E+00 0.15012586E+02</pdfrwt>
<pdfrwt beam="2">  1       -2 0.99405365E+00 0.15012586E+02</pdfrwt>
<totfact>-0.25226223E-14</totfact>
</mgrwt>
</event>
<event>
 4    1  0.5167034E-019  0.1492337E+02  0.7818608E-02  0.1870416E+00
          2   -1    0    0  501    0  0.00000000000E+00  0.00000000000E+00  0.11991777696E+03  0.11991777699E+03  0.25500000000E-02 0.  1.
         -2   -1    0    0    0  501 -0.00000000000E+00 -0.00000000000E+00 -0.46428747572E+00  0.46429447833E+00  0.25500000000E-02 0. -1.
         31    1    1    2    0    0 -0.30993368116E+00 -0.41065632910E-01  0.62521983748E+02  0.62964713317E+02  0.74470750000E+01 0.  1.
        -31    1    1    2    0    0  0.30993368116E+00  0.41065632910E-01  0.56931505739E+02  0.57417358151E+02  0.74470750000E+01 0. -1.
<mgrwt>
<rscale>  0 0.14923370E+02</rscale>
<asrwt>0</asrwt>
<pdfrwt beam="1">  1        2 0.99540319E+00 0.14923370E+02</pdfrwt>
<pdfrwt beam="2">  1       -2 0.98614138E+00 0.14923370E+02</pdfrwt>
<totfact> 0.32518895E-13</totfact>
</mgrwt>
</event>
<event>
 4    1 -0.5167034E-019  0.1493240E+02  0.7818608E-02  0.1870138E+00
         -2   -1    0    0    0  501 -0.00000000000E+00  0.00000000000E+00  0.12008118921E+03  0.12008118924E+03  0.25500000000E-02 0. -1.
          2   -1    0    0  501    0  0.00000000000E+00 -0.00000000000E+00 -0.46421702996E+00  0.46422403363E+00  0.25500000000E-02 0.  1.
         31    1    1    2    0    0  0.18552010467E+00  0.49916558283E+00  0.60136076971E+02  0.60597774411E+02  0.74470750000E+01 0.  1.
        -31    1    1    2    0    0 -0.18552010467E+00 -0.49916558283E+00  0.59480895208E+02  0.59947638860E+02  0.74470750000E+01 0.  1.
<mgrwt>
<rscale>  0 0.14932402E+02</rscale>
<asrwt>0</asrwt>
<pdfrwt beam="2">  1        2 0.98599751E+00 0.14932402E+02</pdfrwt>
<pdfrwt beam="1">  1       -2 0.99675382E+00 0.14932402E+02</pdfrwt>
<totfact>-0.24947126E-13</totfact>
</mgrwt>
</event>
<event>
 4    1 -0.5167034E-019  0.1491632E+02  0.7818608E-02  0.1870633E+00
          2   -1    0    0  501    0  0.00000000000E+00  0.00000000000E+00  0.11826390224E+03  0.11826390226E+03  0.25500000000E-02 0.  1.
         -2   -1    0    0    0  501 -0.00000000000E+00 -0.00000000000E+00 -0.47033586672E+00  0.47034277928E+00  0.25500000000E-02 0. -1.
         31    1    1    2    0    0 -0.29285781943E-01  0.35893325632E+00  0.57395940690E+02  0.57878170535E+02  0.74470750000E+01 0. -1.
        -31    1    1    2    0    0  0.29285781943E-01 -0.35893325632E+00  0.60397625679E+02  0.60856074508E+02  0.74470750000E+01 0.  1.
<mgrwt>
<rscale>  0 0.14916322E+02</rscale>
<asrwt>0</asrwt>
<pdfrwt beam="1">  1        2 0.98177781E+00 0.14916322E+02</pdfrwt>
<pdfrwt beam="2">  1       -2 0.99888314E+00 0.14916322E+02</pdfrwt>
<totfact>-0.21403495E-13</totfact>
</mgrwt>
</event>
<event>
 4    1 -0.5167034E-019  0.1492576E+02  0.7818608E-02  0.1870342E+00
          2   -1    0    0  501    0  0.00000000000E+00  0.00000000000E+00  0.11863027776E+03  0.11863027779E+03  0.25500000000E-02 0.  1.
         -2   -1    0    0    0  501 -0.00000000000E+00 -0.00000000000E+00 -0.46947669268E+00  0.46948361789E+00  0.25500000000E-02 0. -1.
         31    1    1    2    0    0 -0.42782071863E+00  0.18884713818E+00  0.60119101089E+02  0.60580392336E+02  0.74470750000E+01 0.  1.
        -31    1    1    2    0    0  0.42782071863E+00 -0.18884713818E+00  0.58041699978E+02  0.58519369068E+02  0.74470750000E+01 0. -1.
<mgrwt>
<rscale>  0 0.14925758E+02</rscale>
<asrwt>0</asrwt>
<pdfrwt beam="1">  1        2 0.98480016E+00 0.14925758E+02</pdfrwt>
<pdfrwt beam="2">  1       -2 0.99707787E+00 0.14925758E+02</pdfrwt>
<totfact>-0.28230956E-13</totfact>
</mgrwt>
</event>
<event>
 4    1 -0.5167034E-019  0.1492772E+02  0.7818608E-02  0.1870282E+00
          2   -1    0    0  501    0  0.00000000000E+00  0.00000000000E+00  0.11867044959E+03  0.11867044962E+03  0.25500000000E-02 0.  1.
         -2   -1    0    0    0  501 -0.00000000000E+00 -0.00000000000E+00 -0.46944135243E+00  0.46944827816E+00  0.25500000000E-02 0. -1.
         31    1    1    2    0    0  0.96895705945E-01  0.32658867333E+00  0.56176151253E+02  0.56668641634E+02  0.74470750000E+01 0. -1.
        -31    1    1    2    0    0 -0.96895705945E-01 -0.32658867333E+00  0.62024856985E+02  0.62471256263E+02  0.74470750000E+01 0.  1.
<mgrwt>
<rscale>  0 0.14927723E+02</rscale>
<asrwt>0</asrwt>
<pdfrwt beam="1">  1        2 0.98513203E+00 0.14927723E+02</pdfrwt>
<pdfrwt beam="2">  1       -2 0.99700444E+00 0.14927723E+02</pdfrwt>
<totfact>-0.27190957E-13</totfact>
</mgrwt>
</event>
<event>
 4    1  0.5167034E-019  0.1493944E+02  0.7818608E-02  0.1869922E+00
          2   -1    0    0  501    0  0.00000000000E+00  0.00000000000E+00  0.12029848499E+03  0.12029848502E+03  0.25500000000E-02 0. -1.
         -2   -1    0    0    0  501 -0.00000000000E+00 -0.00000000000E+00 -0.46381557022E+00  0.46382257996E+00  0.25500000000E-02 0.  1.
         31    1    1    2    0    0 -0.46960853010E+00 -0.33972139696E+00  0.59568110325E+02  0.60034611988E+02  0.74470750000E+01 0.  1.
        -31    1    1    2    0    0  0.46960853010E+00  0.33972139696E+00  0.60266559094E+02  0.60727695608E+02  0.74470750000E+01 0.  1.
<mgrwt>
<rscale>  0 0.14939442E+02</rscale>
<asrwt>0</asrwt>
<pdfrwt beam="1">  1        2 0.99854725E+00 0.14939442E+02</pdfrwt>
<pdfrwt beam="2">  1       -2 0.98515495E+00 0.14939442E+02</pdfrwt>
<totfact> 0.19659563E-13</totfact>
</mgrwt>
</event>
<event>
 4    1  0.5167034E-019  0.1492539E+02  0.7818608E-02  0.1870354E+00
         -2   -1    0    0    0  501 -0.00000000000E+00  0.00000000000E+00  0.11850315838E+03  0.11850315841E+03  0.25500000000E-02 0. -1.
          2   -1    0    0  501    0  0.00000000000E+00 -0.00000000000E+00 -0.46995737809E+00  0.46996429622E+00  0.25500000000E-02 0.  1.
         31    1    1    2    0    0  0.33574252997E+00 -0.33198690787E+00  0.58220184750E+02  0.58696437513E+02  0.74470750000E+01 0. -1.
        -31    1    1    2    0    0 -0.33574252997E+00  0.33198690787E+00  0.59813016256E+02  0.60276685194E+02  0.74470750000E+01 0. -1.
<mgrwt>
<rscale>  0 0.14925394E+02</rscale>
<asrwt>0</asrwt>
<pdfrwt beam="2">  1        2 0.99809049E+00 0.14925394E+02</pdfrwt>
<pdfrwt beam="1">  1       -2 0.98375302E+00 0.14925394E+02</pdfrwt>
<totfact> 0.35493945E-13</totfact>
</mgrwt>
</event>
<event>
 4    1 -0.5167034E-019  0.1494899E+02  0.7818608E-02  0.1869629E+00
         -2   -1    0    0    0  501 -0.00000000000E+00  0.00000000000E+00  0.11991669709E+03  0.11991669711E+03  0.25500000000E-02 0. -1.
          2   -1    0    0  501    0  0.00000000000E+00 -0.00000000000E+00 -0.46588731232E+00  0.46589429089E+00  0.25500000000E-02 0.  1.
         31    1    1    2    0    0  0.39707318998E+00 -0.46138528425E+00  0.61307953233E+02  0.61761594856E+02  0.74470750000E+01 0. -1.
        -31    1    1    2    0    0 -0.39707318998E+00  0.46138528425E+00  0.58142856540E+02  0.58620996547E+02  0.74470750000E+01 0.  1.
<mgrwt>
<rscale>  0 0.14948992E+02</rscale>
<asrwt>0</asrwt>
<pdfrwt beam="2">  1        2 0.98952618E+00 0.14948992E+02</pdfrwt>
<pdfrwt beam="1">  1       -2 0.99540749E+00 0.14948992E+02</pdfrwt>
<totfact>-0.18425158E-13</totfact>
</mgrwt>
</event>
<event>
 4    1 -0.5167034E-019  0.1491567E+02  0.7818608E-02  0.1870653E+00
          2   -1    0    0  501    0  0.00000000000E+00  0.00000000000E+00  0.11881789501E+03  0.11881789504E+03  0.25500000000E-02 0. -1.
         -2   -1    0    0    0  501 -0.00000000000E+00 -0.00000000000E+00 -0.46810222779E+00  0.46810917333E+00  0.25500000000E-02 0.  1.
         31    1    1    2    0    0  0.13829044784E+00  0.33782191531E+00  0.57856828479E+02  0.58335278997E+02  0.74470750000E+01 0.  1.
        -31    1    1    2    0    0 -0.13829044784E+00 -0.33782191531E+00  0.60492964305E+02  0.60950725216E+02  0.74470750000E+01 0.  1.
<mgrwt>
<rscale>  0 0.14915675E+02</rscale>
<asrwt>0</asrwt>
<pdfrwt beam="1">  1        2 0.98634014E+00 0.14915675E+02</pdfrwt>
<pdfrwt beam="2">  1       -2 0.99417646E+00 0.14915675E+02</pdfrwt>
<totfact>-0.27827073E-13</totfact>
</mgrwt>
</event>
<event>
 4    1 -0.5167034E-019  0.1493747E+02  0.7818608E-02  0.1869983E+00
         -2   -1    0    0    0  501 -0.00000000000E+00  0.00000000000E+00  0.11969269512E+03  0.11969269515E+03  0.25500000000E-02 0.  1.
          2   -1    0    0  501    0  0.00000000000E+00 -0.00000000000E+00 -0.46604021623E+00  0.46604719251E+00  0.25500000000E-02 0. -1.
         31    1    1    2    0    0 -0.22246295007E+00 -0.52308153786E+00  0.59610085186E+02  0.60076154054E+02  0.74470750000E+01 0. -1.
        -31    1    1    2    0    0  0.22246295007E+00  0.52308153786E+00  0.59616569719E+02  0.60082588286E+02  0.74470750000E+01 0.  1.
<mgrwt>
<rscale>  0 0.14937474E+02</rscale>
<asrwt>0</asrwt>
<pdfrwt beam="2">  1        2 0.98984251E+00 0.14937474E+02</pdfrwt>
<pdfrwt beam="1">  1       -2 0.99355655E+00 0.14937474E+02</pdfrwt>
<totfact>-0.17059948E-13</totfact>
</mgrwt>
</event>
<event>
 4    1  0.5167034E-019  0.1493202E+02  0.7818608E-02  0.1870150E+00
         -2   -1    0    0    0  501 -0.00000000000E+00  0.00000000000E+00  0.11880171134E+03  0.11880171137E+03  0.25500000000E-02 0.  1.
          2   -1    0    0  501    0  0.00000000000E+00 -0.00000000000E+00 -0.46919242047E+00  0.46919934987E+00  0.25500000000E-02 0. -1.
         31    1    1    2    0    0  0.48659002508E+00 -0.16955810257E+00  0.58129978155E+02  0.58607327239E+02  0.74470750000E+01 0. -1.
        -31    1    1    2    0    0 -0.48659002508E+00  0.16955810257E+00  0.60202540769E+02  0.60663583482E+02  0.74470750000E+01 0. -1.
<mgrwt>
<rscale>  0 0.14932016E+02</rscale>
<asrwt>0</asrwt>
<pdfrwt beam="2">  1        2 0.99648218E+00 0.14932016E+02</pdfrwt>
<pdfrwt beam="1">  1       -2 0.98621534E+00 0.14932016E+02</pdfrwt>
<totfact> 0.27128074E-13</totfact>
</mgrwt>
</event>
<event>
 4    1  0.5167034E-019  0.1491955E+02  0.7818608E-02  0.1870533E+00
          2   -1    0    0  501    0  0.00000000000E+00  0.00000000000E+00  0.11972541130E+03  0.11972541133E+03  0.25500000000E-02 0. -1.
         -2   -1    0    0    0  501 -0.00000000000E+00 -0.00000000000E+00 -0.46479546975E+00  0.46480246471E+00  0.25500000000E-02 0.  1.
         31    1    1    2    0    0 -0.19605143301E+00 -0.32656358883E+00  0.57935796882E+02  0.58413701872E+02  0.74470750000E+01 0.  1.
        -31    1    1    2    0    0  0.19605143301E+00  0.32656358883E+00  0.61324818953E+02  0.61776511925E+02  0.74470750000E+01 0. -1.
<mgrwt>
<rscale>  0 0.14919551E+02</rscale>
<asrwt>0</asrwt>
<pdfrwt beam="1">  1        2 0.99381678E+00 0.14919551E+02</pdfrwt>
<pdfrwt beam="2">  1       -2 0.98721005E+00 0.14919551E+02</pdfrwt>
<totfact> 0.24950438E-13</totfact>
</mgrwt>
</event>
<event>
 4    1 -0.5167034E-019  0.1490542E+02  0.7818608E-02  0.1870968E+00
          2   -1    0    0  501    0  0.00000000000E+00  0.00000000000E+00  0.11808019652E+03  0.11808019655E+03  0.25500000000E-02 0. -1.
         -2   -1    0    0    0  501 -0.00000000000E+00 -0.00000000000E+00 -0.47037937768E+00  0.47038628961E+00  0.25500000000E-02 0.  1.
         31    1    1    2    0    0  0.28273167060E+00 -0.54715138145E-01  0.59061857297E+02  0.59530201112E+02  0.74470750000E+01 0.  1.
        -31    1    1    2    0    0 -0.28273167060E+00  0.54715138145E-01  0.58547959848E+02  0.59020381729E+02  0.74470750000E+01 0. -1.
<mgrwt>
<rscale>  0 0.14905422E+02</rscale>
<asrwt>0</asrwt>
<pdfrwt beam="1">  1        2 0.98025916E+00 0.14905422E+02</pdfrwt>
<pdfrwt beam="2">  1       -2 0.99896902E+00 0.14905422E+02</pdfrwt>
<totfact>-0.25639329E-13</totfact>
</mgrwt>
</event>
<event>
 4    1  0.5167034E-019  0.1491710E+02  0.7818608E-02  0.1870609E+00
         -2   -1    0    0    0  501 -0.00000000000E+00  0.00000000000E+00  0.11884291162E+03  0.11884291165E+03  0.25500000000E-02 0. -1.
          2   -1    0    0  501    0  0.00000000000E+00 -0.00000000000E+00 -0.46809335802E+00  0.46810030370E+00  0.25500000000E-02 0.  1.
         31    1    1    2    0    0 -0.38415313803E+00 -0.59710046228E-01  0.60316513808E+02  0.60775750945E+02  0.74470750000E+01 0.  1.
        -31    1    1    2    0    0  0.38415313803E+00  0.59710046228E-01  0.58058304457E+02  0.58535261009E+02  0.74470750000E+01 0.  1.
<mgrwt>
<rscale>  0 0.14917103E+02</rscale>
<asrwt>0</asrwt>
<pdfrwt beam="2">  1        2 0.99415852E+00 0.14917103E+02</pdfrwt>
<pdfrwt beam="1">  1       -2 0.98654692E+00 0.14917103E+02</pdfrwt>
<totfact> 0.31764528E-13</totfact>
</mgrwt>
</event>
<event>
 4    1 -0.5167034E-019  0.1500532E+02  0.7818608E-02  0.1867906E+00
          2   -1    0    0  501    0  0.00000000000E+00  0.00000000000E+00  0.11989273115E+03  0.11989273117E+03  0.25500000000E-02 0. -1.
         -2   -1    0    0    0  501 -0.00000000000E+00 -0.00000000000E+00 -0.46949894032E+00  0.46950586520E+00  0.25500000000E-02 0.  1.
         31    1    1    2    0    0 -0.82687769863E+00  0.34671124994E+00  0.58391944088E+02  0.58871741913E+02  0.74470750000E+01 0. -1.
        -31    1    1    2    0    0  0.82687769863E+00 -0.34671124994E+00  0.61031288119E+02  0.61490495126E+02  0.74470750000E+01 0.  1.
<mgrwt>
<rscale>  0 0.15005323E+02</rscale>
<asrwt>0</asrwt>
<pdfrwt beam="1">  1        2 0.99523919E+00 0.15005323E+02</pdfrwt>
<pdfrwt beam="2">  1       -2 0.99716633E+00 0.15005323E+02</pdfrwt>
<totfact>-0.89698107E-14</totfact>
</mgrwt>
</event>
<event>
 4    1 -0.5167034E-019  0.1498404E+02  0.7818608E-02  0.1868556E+00
         -2   -1    0    0    0  501 -0.00000000000E+00  0.00000000000E+00  0.11962660903E+03  0.11962660905E+03  0.25500000000E-02 0.  1.
          2   -1    0    0  501    0  0.00000000000E+00 -0.00000000000E+00 -0.46920977985E+00  0.46921670900E+00  0.25500000000E-02 0. -1.
         31    1    1    2    0    0 -0.40665473281E+00 -0.35575950918E+00  0.64516391853E+02  0.64947022077E+02  0.74470750000E+01 0.  1.
        -31    1    1    2    0    0  0.40665473281E+00  0.35575950918E+00  0.54641007393E+02  0.55148803685E+02  0.74470750000E+01 0. -1.
<mgrwt>
<rscale>  0 0.14984044E+02</rscale>
<asrwt>0</asrwt>
<pdfrwt beam="2">  1        2 0.99654594E+00 0.14984044E+02</pdfrwt>
<pdfrwt beam="1">  1       -2 0.99303631E+00 0.14984044E+02</pdfrwt>
<totfact>-0.84301499E-14</totfact>
</mgrwt>
</event>
<event>
 4    1 -0.5167034E-019  0.1498215E+02  0.7818608E-02  0.1868614E+00
         -2   -1    0    0    0  501 -0.00000000000E+00  0.00000000000E+00  0.12031349900E+03  0.12031349903E+03  0.25500000000E-02 0.  1.
          2   -1    0    0  501    0  0.00000000000E+00 -0.00000000000E+00 -0.46641300775E+00  0.46641997845E+00  0.25500000000E-02 0. -1.
         31    1    1    2    0    0  0.70856619563E+00 -0.19002768033E+00  0.57141408429E+02  0.57629312505E+02  0.74470750000E+01 0.  1.
        -31    1    1    2    0    0 -0.70856619563E+00  0.19002768033E+00  0.62705677567E+02  0.63150606504E+02  0.74470750000E+01 0. -1.
<mgrwt>
<rscale>  0 0.14982150E+02</rscale>
<asrwt>0</asrwt>
<pdfrwt beam="2">  1        2 0.99065105E+00 0.14982150E+02</pdfrwt>
<pdfrwt beam="1">  1       -2 0.99869288E+00 0.14982150E+02</pdfrwt>
<totfact>-0.69718663E-14</totfact>
</mgrwt>
</event>
<event>
 4    1 -0.5167034E-019  0.1490600E+02  0.7818608E-02  0.1870951E+00
         -2   -1    0    0    0  501 -0.00000000000E+00  0.00000000000E+00  0.12029356434E+03  0.12029356437E+03  0.25500000000E-02 0.  1.
          2   -1    0    0  501    0  0.00000000000E+00 -0.00000000000E+00 -0.46176012378E+00  0.46176716472E+00  0.25500000000E-02 0. -1.
         31    1    1    2    0    0  0.86992656724E-02 -0.24290286663E+00  0.58531714976E+02  0.59004064789E+02  0.74470750000E+01 0.  1.
        -31    1    1    2    0    0 -0.86992656724E-02  0.24290286663E+00  0.61300089240E+02  0.61751266744E+02  0.74470750000E+01 0.  1.
<mgrwt>
<rscale>  0 0.14905999E+02</rscale>
<asrwt>0</asrwt>
<pdfrwt beam="2">  1        2 0.98080574E+00 0.14905999E+02</pdfrwt>
<pdfrwt beam="1">  1       -2 0.99848957E+00 0.14905999E+02</pdfrwt>
<totfact>-0.32920633E-13</totfact>
</mgrwt>
</event>
<event>
 4    1 -0.5167034E-019  0.1493814E+02  0.7818608E-02  0.1869962E+00
          2   -1    0    0  501    0  0.00000000000E+00  0.00000000000E+00  0.11864064843E+03  0.11864064846E+03  0.25500000000E-02 0.  1.
         -2   -1    0    0    0  501 -0.00000000000E+00 -0.00000000000E+00 -0.47021492593E+00  0.47022184027E+00  0.25500000000E-02 0. -1.
         31    1    1    2    0    0 -0.55616776889E-01  0.56890078766E+00  0.58792275514E+02  0.59264806821E+02  0.74470750000E+01 0. -1.
        -31    1    1    2    0    0  0.55616776889E-01 -0.56890078766E+00  0.59378157989E+02  0.59846063476E+02  0.74470750000E+01 0. -1.
<mgrwt>
<rscale>  0 0.14938141E+02</rscale>
<asrwt>0</asrwt>
<pdfrwt beam="1">  1        2 0.98489201E+00 0.14938141E+02</pdfrwt>
<pdfrwt beam="2">  1       -2 0.99863987E+00 0.14938141E+02</pdfrwt>
<totfact>-0.15148215E-13</totfact>
</mgrwt>
</event>
<event>
 4    1 -0.5167034E-019  0.1497757E+02  0.7818608E-02  0.1868754E+00
         -2   -1    0    0    0  501 -0.00000000000E+00  0.00000000000E+00  0.11990741623E+03  0.11990741625E+03  0.25500000000E-02 0.  1.
          2   -1    0    0  501    0  0.00000000000E+00 -0.00000000000E+00 -0.46770675589E+00  0.46771370731E+00  0.25500000000E-02 0. -1.
         31    1    1    2    0    0 -0.65812164892E+00  0.38557652731E+00  0.58088333722E+02  0.58568722318E+02  0.74470750000E+01 0. -1.
        -31    1    1    2    0    0  0.65812164892E+00 -0.38557652731E+00  0.61351375748E+02  0.61806407642E+02  0.74470750000E+01 0.  1.
<mgrwt>
<rscale>  0 0.14977574E+02</rscale>
<asrwt>0</asrwt>
<pdfrwt beam="2">  1        2 0.99337524E+00 0.14977574E+02</pdfrwt>
<pdfrwt beam="1">  1       -2 0.99534580E+00 0.14977574E+02</pdfrwt>
<totfact>-0.13536339E-13</totfact>
</mgrwt>
</event>
<event>
 4    1 -0.5167034E-019  0.1496844E+02  0.7818608E-02  0.1869033E+00
         -2   -1    0    0    0  501 -0.00000000000E+00  0.00000000000E+00  0.11936673096E+03  0.11936673098E+03  0.25500000000E-02 0. -1.
          2   -1    0    0  501    0  0.00000000000E+00 -0.00000000000E+00 -0.46925246901E+00  0.46925939753E+00  0.25500000000E-02 0.  1.
         31    1    1    2    0    0  0.52966889588E+00 -0.17129940314E+00  0.55488189292E+02  0.55988462826E+02  0.74470750000E+01 0.  1.
        -31    1    1    2    0    0 -0.52966889588E+00  0.17129940314E+00  0.63409289194E+02  0.63847527554E+02  0.74470750000E+01 0. -1.
<mgrwt>
<rscale>  0 0.14968440E+02</rscale>
<asrwt>0</asrwt>
<pdfrwt beam="2">  1        2 0.99662777E+00 0.14968440E+02</pdfrwt>
<pdfrwt beam="1">  1       -2 0.99088781E+00 0.14968440E+02</pdfrwt>
<totfact>-0.29328011E-14</totfact>
</mgrwt>
</event>
<event>
 4    1 -0.5167034E-019  0.1494490E+02  0.7818608E-02  0.1869755E+00
          2   -1    0    0  501    0  0.00000000000E+00  0.00000000000E+00  0.11934810364E+03  0.11934810366E+03  0.25500000000E-02 0. -1.
         -2   -1    0    0    0  501 -0.00000000000E+00 -0.00000000000E+00 -0.46785050043E+00  0.46785744971E+00  0.25500000000E-02 0.  1.
         31    1    1    2    0    0  0.32816447807E+00 -0.50086506332E+00  0.58306207654E+02  0.58782917032E+02  0.74470750000E+01 0. -1.
        -31    1    1    2    0    0 -0.32816447807E+00  0.50086506332E+00  0.60574045481E+02  0.61033044081E+02  0.74470750000E+01 0.  1.
<mgrwt>
<rscale>  0 0.14944897E+02</rscale>
<asrwt>0</asrwt>
<pdfrwt beam="1">  1        2 0.99072220E+00 0.14944897E+02</pdfrwt>
<pdfrwt beam="2">  1       -2 0.99366125E+00 0.14944897E+02</pdfrwt>
<totfact>-0.15917890E-13</totfact>
</mgrwt>
</event>
<event>
 4    1 -0.5167034E-019  0.1490324E+02  0.7818608E-02  0.1871035E+00
          2   -1    0    0  501    0  0.00000000000E+00  0.00000000000E+00  0.11837773758E+03  0.11837773761E+03  0.25500000000E-02 0. -1.
         -2   -1    0    0    0  501 -0.00000000000E+00 -0.00000000000E+00 -0.46905992042E+00  0.46906685179E+00  0.25500000000E-02 0.  1.
         31    1    1    2    0    0  0.20274284819E+00 -0.13328591541E+00  0.59705381274E+02  0.60168516260E+02  0.74470750000E+01 0. -1.
        -31    1    1    2    0    0 -0.20274284819E+00  0.13328591541E+00  0.58203296389E+02  0.58678288203E+02  0.74470750000E+01 0. -1.
<mgrwt>
<rscale>  0 0.14903243E+02</rscale>
<asrwt>0</asrwt>
<pdfrwt beam="1">  1        2 0.98270853E+00 0.14903243E+02</pdfrwt>
<pdfrwt beam="2">  1       -2 0.99618786E+00 0.14903243E+02</pdfrwt>
<totfact>-0.46708549E-13</totfact>
</mgrwt>
</event>
<event>
 4    1  0.5167034E-019  0.1492413E+02  0.7818608E-02  0.1870393E+00
          2   -1    0    0  501    0  0.00000000000E+00  0.00000000000E+00  0.11980402280E+03  0.11980402283E+03  0.25500000000E-02 0. -1.
         -2   -1    0    0    0  501 -0.00000000000E+00 -0.00000000000E+00 -0.46477551056E+00  0.46478250582E+00  0.25500000000E-02 0.  1.
         31    1    1    2    0    0 -0.37484638911E+00  0.21881222295E+00  0.58160185077E+02  0.58636630555E+02  0.74470750000E+01 0.  1.
        -31    1    1    2    0    0  0.37484638911E+00 -0.21881222295E+00  0.61179062213E+02  0.61632174779E+02  0.74470750000E+01 0. -1.
<mgrwt>
<rscale>  0 0.14924128E+02</rscale>
<asrwt>0</asrwt>
<pdfrwt beam="1">  1        2 0.99446663E+00 0.14924128E+02</pdfrwt>
<pdfrwt beam="2">  1       -2 0.98717032E+00 0.14924128E+02</pdfrwt>
<totfact> 0.24050959E-13</totfact>
</mgrwt>
</event>
<event>
 4    1 -0.5167034E-019  0.1498772E+02  0.7818608E-02  0.1868444E+00
          2   -1    0    0  501    0  0.00000000000E+00  0.00000000000E+00  0.11964180228E+03  0.11964180231E+03  0.25500000000E-02 0.  1.
         -2   -1    0    0    0  501 -0.00000000000E+00 -0.00000000000E+00 -0.46938013572E+00  0.46938706236E+00  0.25500000000E-02 0. -1.
         31    1    1    2    0    0 -0.59935008693E+00  0.24378159351E+00  0.63829283684E+02  0.64265504213E+02  0.74470750000E+01 0.  1.
        -31    1    1    2    0    0  0.59935008693E+00 -0.24378159351E+00  0.55343138459E+02  0.55845685156E+02  0.74470750000E+01 0. -1.
<mgrwt>
<rscale>  0 0.14987715E+02</rscale>
<asrwt>0</asrwt>
<pdfrwt beam="1">  1        2 0.99316335E+00 0.14987715E+02</pdfrwt>
<pdfrwt beam="2">  1       -2 0.99690683E+00 0.14987715E+02</pdfrwt>
<totfact>-0.11372741E-13</totfact>
</mgrwt>
</event>
<event>
 4    1  0.5167034E-019  0.1492326E+02  0.7818608E-02  0.1870419E+00
         -2   -1    0    0    0  501 -0.00000000000E+00  0.00000000000E+00  0.11860626282E+03  0.11860626284E+03  0.25500000000E-02 0.  1.
          2   -1    0    0  501    0  0.00000000000E+00 -0.00000000000E+00 -0.46941474462E+00  0.46942167075E+00  0.25500000000E-02 0. -1.
         31    1    1    2    0    0  0.44623201916E-01 -0.72263188055E-01  0.55413608392E+02  0.55911842523E+02  0.74470750000E+01 0. -1.
        -31    1    1    2    0    0 -0.44623201916E-01  0.72263188055E-01  0.62723239679E+02  0.63163841991E+02  0.74470750000E+01 0.  1.
<mgrwt>
<rscale>  0 0.14923263E+02</rscale>
<asrwt>0</asrwt>
<pdfrwt beam="2">  1        2 0.99694603E+00 0.14923263E+02</pdfrwt>
<pdfrwt beam="1">  1       -2 0.98460107E+00 0.14923263E+02</pdfrwt>
<totfact> 0.40416411E-13</totfact>
</mgrwt>
</event>
<event>
 4    1  0.5167034E-019  0.1492417E+02  0.7818608E-02  0.1870391E+00
         -2   -1    0    0    0  501 -0.00000000000E+00  0.00000000000E+00  0.11914930465E+03  0.11914930468E+03  0.25500000000E-02 0.  1.
          2   -1    0    0  501    0  0.00000000000E+00 -0.00000000000E+00 -0.46733237414E+00  0.46733933113E+00  0.25500000000E-02 0. -1.
         31    1    1    2    0    0  0.39796261343E+00 -0.12822848893E-01  0.57293161550E+02  0.57776498900E+02  0.74470750000E+01 0. -1.
        -31    1    1    2    0    0 -0.39796261343E+00  0.12822848893E-01  0.61388810728E+02  0.61840145111E+02  0.74470750000E+01 0.  1.
<mgrwt>
<rscale>  0 0.14924174E+02</rscale>
<asrwt>0</asrwt>
<pdfrwt beam="2">  1        2 0.99255866E+00 0.14924174E+02</pdfrwt>
<pdfrwt beam="1">  1       -2 0.98907410E+00 0.14924174E+02</pdfrwt>
<totfact> 0.81891147E-14</totfact>
</mgrwt>
</event>
<event>
 4    1  0.5167034E-019  0.1493598E+02  0.7818608E-02  0.1870028E+00
          2   -1    0    0  501    0  0.00000000000E+00  0.00000000000E+00  0.12015575572E+03  0.12015575575E+03  0.25500000000E-02 0.  1.
         -2   -1    0    0    0  501 -0.00000000000E+00 -0.00000000000E+00 -0.46415144161E+00  0.46415844627E+00  0.25500000000E-02 0. -1.
         31    1    1    2    0    0  0.10942715365E+00  0.31327987752E+00  0.56217561945E+02  0.56709640412E+02  0.74470750000E+01 0. -1.
        -31    1    1    2    0    0 -0.10942715365E+00 -0.31327987752E+00  0.63474042333E+02  0.63910273781E+02  0.74470750000E+01 0.  1.
<mgrwt>
<rscale>  0 0.14935982E+02</rscale>
<asrwt>0</asrwt>
<pdfrwt beam="1">  1        2 0.99736984E+00 0.14935982E+02</pdfrwt>
<pdfrwt beam="2">  1       -2 0.98586109E+00 0.14935982E+02</pdfrwt>
<totfact> 0.25162682E-13</totfact>
</mgrwt>
</event>
<event>
 4    1 -0.5167034E-019  0.1496229E+02  0.7818608E-02  0.1869222E+00
         -2   -1    0    0    0  501 -0.00000000000E+00  0.00000000000E+00  0.12041383812E+03  0.12041383815E+03  0.25500000000E-02 0. -1.
          2   -1    0    0  501    0  0.00000000000E+00 -0.00000000000E+00 -0.46478943662E+00  0.46479643167E+00  0.25500000000E-02 0.  1.
         31    1    1    2    0    0  0.73983206789E-01 -0.58670800560E+00  0.56754314339E+02  0.57243871480E+02  0.74470750000E+01 0.  1.
        -31    1    1    2    0    0 -0.73983206789E-01  0.58670800560E+00  0.63194734349E+02  0.63634763104E+02  0.74470750000E+01 0. -1.
<mgrwt>
<rscale>  0 0.14962287E+02</rscale>
<asrwt>0</asrwt>
<pdfrwt beam="2">  1        2 0.98721911E+00 0.14962287E+02</pdfrwt>
<pdfrwt beam="1">  1       -2 0.99950913E+00 0.14962287E+02</pdfrwt>
<totfact>-0.41164944E-14</totfact>
</mgrwt>
</event>
<event>
 4    1 -0.5167034E-019  0.1494368E+02  0.7818608E-02  0.1869792E+00
          2   -1    0    0  501    0  0.00000000000E+00  0.00000000000E+00  0.11958139947E+03  0.11958139949E+03  0.25500000000E-02 0. -1.
         -2   -1    0    0    0  501 -0.00000000000E+00 -0.00000000000E+00 -0.46686163775E+00  0.46686860175E+00  0.25500000000E-02 0.  1.
         31    1    1    2    0    0  0.57555128093E-01 -0.25144971895E+00  0.55135828363E+02  0.55637083271E+02  0.74470750000E+01 0.  1.
        -31    1    1    2    0    0 -0.57555128093E-01  0.25144971895E+00  0.63978709467E+02  0.64411184826E+02  0.74470750000E+01 0. -1.
<mgrwt>
<rscale>  0 0.14943679E+02</rscale>
<asrwt>0</asrwt>
<pdfrwt beam="1">  1        2 0.99264307E+00 0.14943679E+02</pdfrwt>
<pdfrwt beam="2">  1       -2 0.99157677E+00 0.14943679E+02</pdfrwt>
<totfact>-0.78342973E-14</totfact>
</mgrwt>
</event>
<event>
 4    1  0.5167034E-019  0.1493667E+02  0.7818608E-02  0.1870007E+00
         -2   -1    0    0    0  501 -0.00000000000E+00  0.00000000000E+00  0.11869707768E+03  0.11869707770E+03  0.25500000000E-02 0.  1.
          2   -1    0    0  501    0  0.00000000000E+00 -0.00000000000E+00 -0.46989876624E+00  0.46990568523E+00  0.25500000000E-02 0. -1.
         31    1    1    2    0    0 -0.55350822800E+00 -0.92775036975E-01  0.58746280440E+02  0.59219079444E+02  0.74470750000E+01 0.  1.
        -31    1    1    2    0    0  0.55350822800E+00  0.92775036975E-01  0.59480898469E+02  0.59947903944E+02  0.74470750000E+01 0.  1.
<mgrwt>
<rscale>  0 0.14936670E+02</rscale>
<asrwt>0</asrwt>
<pdfrwt beam="2">  1        2 0.99797294E+00 0.14936670E+02</pdfrwt>
<pdfrwt beam="1">  1       -2 0.98535600E+00 0.14936670E+02</pdfrwt>
<totfact> 0.24262689E-13</totfact>
</mgrwt>
</event>
<event>
 4    1 -0.5167034E-019  0.1499421E+02  0.7818608E-02  0.1868245E+00
          2   -1    0    0  501    0  0.00000000000E+00  0.00000000000E+00  0.11982295187E+03  0.11982295190E+03  0.25500000000E-02 0. -1.
         -2   -1    0    0    0  501 -0.00000000000E+00 -0.00000000000E+00 -0.46907647506E+00  0.46908340619E+00  0.25500000000E-02 0.  1.
         31    1    1    2    0    0  0.37957901773E+00  0.63597729525E+00  0.56097460434E+02  0.56594456800E+02  0.74470750000E+01 0.  1.
        -31    1    1    2    0    0 -0.37957901773E+00 -0.63597729525E+00  0.63256414963E+02  0.63697578505E+02  0.74470750000E+01 0.  1.
<mgrwt>
<rscale>  0 0.14994205E+02</rscale>
<asrwt>0</asrwt>
<pdfrwt beam="1">  1        2 0.99465871E+00 0.14994205E+02</pdfrwt>
<pdfrwt beam="2">  1       -2 0.99627030E+00 0.14994205E+02</pdfrwt>
<totfact>-0.11208607E-13</totfact>
</mgrwt>
</event>
<event>
 4    1 -0.5167034E-019  0.1494746E+02  0.7818608E-02  0.1869676E+00
         -2   -1    0    0    0  501 -0.00000000000E+00  0.00000000000E+00  0.11966765180E+03  0.11966765182E+03  0.25500000000E-02 0. -1.
          2   -1    0    0  501    0  0.00000000000E+00 -0.00000000000E+00 -0.46676101349E+00  0.46676797900E+00  0.25500000000E-02 0.  1.
         31    1    1    2    0    0 -0.66457032182E-02  0.50178735284E+00  0.56531007320E+02  0.57021623524E+02  0.74470750000E+01 0.  1.
        -31    1    1    2    0    0  0.66457032182E-02 -0.50178735284E+00  0.62669883464E+02  0.63112796279E+02  0.74470750000E+01 0. -1.
<mgrwt>
<rscale>  0 0.14947457E+02</rscale>
<asrwt>0</asrwt>
<pdfrwt beam="2">  1        2 0.99136666E+00 0.14947457E+02</pdfrwt>
<pdfrwt beam="1">  1       -2 0.99335544E+00 0.14947457E+02</pdfrwt>
<totfact>-0.14570586E-13</totfact>
</mgrwt>
</event>
<event>
 4    1  0.5167034E-019  0.1491761E+02  0.7818608E-02  0.1870593E+00
         -2   -1    0    0    0  501 -0.00000000000E+00  0.00000000000E+00  0.11827751541E+03  0.11827751543E+03  0.25500000000E-02 0. -1.
          2   -1    0    0  501    0  0.00000000000E+00 -0.00000000000E+00 -0.47036308754E+00  0.47036999971E+00  0.25500000000E-02 0.  1.
         31    1    1    2    0    0  0.18427142803E+00 -0.30883414480E+00  0.60602092716E+02  0.61059003448E+02  0.74470750000E+01 0. -1.
        -31    1    1    2    0    0 -0.18427142803E+00  0.30883414480E+00  0.57205059603E+02  0.57688881985E+02  0.74470750000E+01 0.  1.
<mgrwt>
<rscale>  0 0.14917612E+02</rscale>
<asrwt>0</asrwt>
<pdfrwt beam="2">  1        2 0.99894117E+00 0.14917612E+02</pdfrwt>
<pdfrwt beam="1">  1       -2 0.98189060E+00 0.14917612E+02</pdfrwt>
<totfact> 0.32368505E-13</totfact>
</mgrwt>
</event>
<event>
 4    1 -0.5167034E-019  0.1497124E+02  0.7818608E-02  0.1868947E+00
          2   -1    0    0  501    0  0.00000000000E+00  0.00000000000E+00  0.11928974357E+03  0.11928974359E+03  0.25500000000E-02 0. -1.
         -2   -1    0    0    0  501 -0.00000000000E+00 -0.00000000000E+00 -0.46973085036E+00  0.46973777183E+00  0.25500000000E-02 0.  1.
         31    1    1    2    0    0 -0.32499689337E+00  0.43322374002E+00  0.55160147483E+02  0.55663220372E+02  0.74470750000E+01 0.  1.
        -31    1    1    2    0    0  0.32499689337E+00 -0.43322374002E+00  0.63659865234E+02  0.64096260994E+02  0.74470750000E+01 0. -1.
<mgrwt>
<rscale>  0 0.14971238E+02</rscale>
<asrwt>0</asrwt>
<pdfrwt beam="1">  1        2 0.99025518E+00 0.14971238E+02</pdfrwt>
<pdfrwt beam="2">  1       -2 0.99763727E+00 0.14971238E+02</pdfrwt>
<totfact>-0.11803897E-13</totfact>
</mgrwt>
</event>
<event>
 4    1 -0.5167034E-019  0.1497311E+02  0.7818608E-02  0.1868890E+00
         -2   -1    0    0    0  501 -0.00000000000E+00  0.00000000000E+00  0.12000837679E+03  0.12000837682E+03  0.25500000000E-02 0. -1.
          2   -1    0    0  501    0  0.00000000000E+00 -0.00000000000E+00 -0.46703484554E+00  0.46704180696E+00  0.25500000000E-02 0.  1.
         31    1    1    2    0    0  0.49463266162E+00 -0.16105193913E+00  0.64315049975E+02  0.64746854584E+02  0.74470750000E+01 0. -1.
        -31    1    1    2    0    0 -0.49463266162E+00  0.16105193913E+00  0.55226291968E+02  0.55728564039E+02  0.74470750000E+01 0.  1.
<mgrwt>
<rscale>  0 0.14973111E+02</rscale>
<asrwt>0</asrwt>
<pdfrwt beam="2">  1        2 0.99195694E+00 0.14973111E+02</pdfrwt>
<pdfrwt beam="1">  1       -2 0.99617505E+00 0.14973111E+02</pdfrwt>
<totfact>-0.13965246E-13</totfact>
</mgrwt>
</event>
<event>
 4    1 -0.5167034E-019  0.1497441E+02  0.7818608E-02  0.1868850E+00
          2   -1    0    0  501    0  0.00000000000E+00  0.00000000000E+00  0.11976964731E+03  0.11976964733E+03  0.25500000000E-02 0.  1.
         -2   -1    0    0    0  501 -0.00000000000E+00 -0.00000000000E+00 -0.46804679123E+00  0.46805373760E+00  0.25500000000E-02 0. -1.
         31    1    1    2    0    0 -0.48512895755E+00 -0.59218482049E+00  0.60575395647E+02  0.61036247565E+02  0.74470750000E+01 0.  1.
        -31    1    1    2    0    0  0.48512895755E+00  0.59218482049E+00  0.58726204867E+02  0.59201453505E+02  0.74470750000E+01 0. -1.
<mgrwt>
<rscale>  0 0.14974407E+02</rscale>
<asrwt>0</asrwt>
<pdfrwt beam="1">  1        2 0.99420944E+00 0.14974407E+02</pdfrwt>
<pdfrwt beam="2">  1       -2 0.99409018E+00 0.14974407E+02</pdfrwt>
<totfact>-0.12631673E-13</totfact>
</mgrwt>
</event>
<event>
 4    1 -0.5167034E-019  0.1499118E+02  0.7818608E-02  0.1868338E+00
         -2   -1    0    0    0  501 -0.00000000000E+00  0.00000000000E+00  0.11986388761E+03  0.11986388764E+03  0.25500000000E-02 0. -1.
          2   -1    0    0  501    0  0.00000000000E+00 -0.00000000000E+00 -0.46872695747E+00  0.46873389376E+00  0.25500000000E-02 0.  1.
         31    1    1    2    0    0  0.84379948853E+00 -0.52284077571E-01  0.60508140088E+02  0.60970555797E+02  0.74470750000E+01 0.  1.
        -31    1    1    2    0    0 -0.84379948853E+00  0.52284077571E-01  0.58887020566E+02  0.59362065735E+02  0.74470750000E+01 0. -1.
<mgrwt>
<rscale>  0 0.14991178E+02</rscale>
<asrwt>0</asrwt>
<pdfrwt beam="2">  1        2 0.99553219E+00 0.14991178E+02</pdfrwt>
<pdfrwt beam="1">  1       -2 0.99499431E+00 0.14991178E+02</pdfrwt>
<totfact>-0.11235534E-13</totfact>
</mgrwt>
</event>
<event>
 4    1  0.5167034E-019  0.1493279E+02  0.7818608E-02  0.1870126E+00
         -2   -1    0    0    0  501 -0.00000000000E+00  0.00000000000E+00  0.11883267620E+03  0.11883267623E+03  0.25500000000E-02 0.  1.
          2   -1    0    0  501    0  0.00000000000E+00 -0.00000000000E+00 -0.46911891922E+00  0.46912584971E+00  0.25500000000E-02 0. -1.
         31    1    1    2    0    0 -0.19028288338E+00  0.46531034443E+00  0.57678094048E+02  0.58159042120E+02  0.74470750000E+01 0. -1.
        -31    1    1    2    0    0  0.19028288338E+00 -0.46531034443E+00  0.60685463235E+02  0.61142759959E+02  0.74470750000E+01 0.  1.
<mgrwt>
<rscale>  0 0.14932792E+02</rscale>
<asrwt>0</asrwt>
<pdfrwt beam="2">  1        2 0.99632772E+00 0.14932792E+02</pdfrwt>
<pdfrwt beam="1">  1       -2 0.98647077E+00 0.14932792E+02</pdfrwt>
<totfact> 0.25420409E-13</totfact>
</mgrwt>
</event>
<event>
 4    1  0.5167034E-019  0.1495465E+02  0.7818608E-02  0.1869456E+00
         -2   -1    0    0    0  501 -0.00000000000E+00  0.00000000000E+00  0.11887168957E+03  0.11887168959E+03  0.25500000000E-02 0. -1.
          2   -1    0    0  501    0  0.00000000000E+00 -0.00000000000E+00 -0.47033858630E+00  0.47034549883E+00  0.25500000000E-02 0.  1.
         31    1    1    2    0    0 -0.57148658629E-01 -0.50724476086E+00  0.62687122206E+02  0.63129983207E+02  0.74470750000E+01 0. -1.
        -31    1    1    2    0    0  0.57148658629E-01  0.50724476086E+00  0.55714228775E+02  0.56212051887E+02  0.74470750000E+01 0.  1.
<mgrwt>
<rscale>  0 0.14954646E+02</rscale>
<asrwt>0</asrwt>
<pdfrwt beam="2">  1        2 0.99890912E+00 0.14954646E+02</pdfrwt>
<pdfrwt beam="1">  1       -2 0.98680345E+00 0.14954646E+02</pdfrwt>
<totfact> 0.88213392E-14</totfact>
</mgrwt>
</event>
<event>
 4    1 -0.5167034E-019  0.1494885E+02  0.7818608E-02  0.1869633E+00
          2   -1    0    0  501    0  0.00000000000E+00  0.00000000000E+00  0.11964014799E+03  0.11964014802E+03  0.25500000000E-02 0. -1.
         -2   -1    0    0    0  501 -0.00000000000E+00 -0.00000000000E+00 -0.46695563212E+00  0.46696259473E+00  0.25500000000E-02 0.  1.
         31    1    1    2    0    0 -0.60022258722E-01 -0.59549586438E+00  0.61381674904E+02  0.61834676017E+02  0.74470750000E+01 0. -1.
        -31    1    1    2    0    0  0.60022258722E-01  0.59549586438E+00  0.57791517458E+02  0.58272434600E+02  0.74470750000E+01 0.  1.
<mgrwt>
<rscale>  0 0.14948854E+02</rscale>
<asrwt>0</asrwt>
<pdfrwt beam="1">  1        2 0.99312963E+00 0.14948854E+02</pdfrwt>
<pdfrwt beam="2">  1       -2 0.99177752E+00 0.14948854E+02</pdfrwt>
<totfact>-0.83806708E-14</totfact>
</mgrwt>
</event>
<event>
 4    1 -0.5167034E-019  0.1497260E+02  0.7818608E-02  0.1868906E+00
          2   -1    0    0  501    0  0.00000000000E+00  0.00000000000E+00  0.11959305025E+03  0.11959305028E+03  0.25500000000E-02 0. -1.
         -2   -1    0    0    0  501 -0.00000000000E+00 -0.00000000000E+00 -0.46862471096E+00  0.46863164876E+00  0.25500000000E-02 0.  1.
         31    1    1    2    0    0 -0.64494695725E+00 -0.24015816201E+00  0.62247218341E+02  0.62694886153E+02  0.74470750000E+01 0.  1.
        -31    1    1    2    0    0  0.64494695725E+00  0.24015816201E+00  0.56877207196E+02  0.57366795771E+02  0.74470750000E+01 0. -1.
<mgrwt>
<rscale>  0 0.14972599E+02</rscale>
<asrwt>0</asrwt>
<pdfrwt beam="1">  1        2 0.99275399E+00 0.14972599E+02</pdfrwt>
<pdfrwt beam="2">  1       -2 0.99530710E+00 0.14972599E+02</pdfrwt>
<totfact>-0.14185924E-13</totfact>
</mgrwt>
</event>
<event>
 4    1  0.5167034E-019  0.1491826E+02  0.7818608E-02  0.1870573E+00
         -2   -1    0    0    0  501 -0.00000000000E+00  0.00000000000E+00  0.11884186525E+03  0.11884186527E+03  0.25500000000E-02 0. -1.
          2   -1    0    0  501    0  0.00000000000E+00 -0.00000000000E+00 -0.46817023883E+00  0.46817718337E+00  0.25500000000E-02 0.  1.
         31    1    1    2    0    0 -0.13149650419E+00  0.35158278395E+00  0.60762442441E+02  0.61218250867E+02  0.74470750000E+01 0.  1.
        -31    1    1    2    0    0  0.13149650419E+00 -0.35158278395E+00  0.57611252566E+02  0.58091791589E+02  0.74470750000E+01 0.  1.
<mgrwt>
<rscale>  0 0.14918263E+02</rscale>
<asrwt>0</asrwt>
<pdfrwt beam="2">  1        2 0.99432112E+00 0.14918263E+02</pdfrwt>
<pdfrwt beam="1">  1       -2 0.98653891E+00 0.14918263E+02</pdfrwt>
<totfact> 0.31423552E-13</totfact>
</mgrwt>
</event>
<event>
 4    1  0.5167034E-019  0.1490541E+02  0.7818608E-02  0.1870969E+00
         -2   -1    0    0    0  501 -0.00000000000E+00  0.00000000000E+00  0.11810695619E+03  0.11810695622E+03  0.25500000000E-02 0. -1.
          2   -1    0    0  501    0  0.00000000000E+00 -0.00000000000E+00 -0.47027203097E+00  0.47027894447E+00  0.25500000000E-02 0.  1.
         31    1    1    2    0    0 -0.24607330604E+00  0.16393088872E-01  0.60026472009E+02  0.60487164661E+02  0.74470750000E+01 0. -1.
        -31    1    1    2    0    0  0.24607330604E+00 -0.16393088872E-01  0.57610212154E+02  0.58090070506E+02  0.74470750000E+01 0.  1.
<mgrwt>
<rscale>  0 0.14905410E+02</rscale>
<asrwt>0</asrwt>
<pdfrwt beam="2">  1        2 0.99874285E+00 0.14905410E+02</pdfrwt>
<pdfrwt beam="1">  1       -2 0.98047954E+00 0.14905410E+02</pdfrwt>
<totfact> 0.48834946E-13</totfact>
</mgrwt>
</event>
<event>
 4    1 -0.5167034E-019  0.1492197E+02  0.7818608E-02  0.1870459E+00
         -2   -1    0    0    0  501 -0.00000000000E+00  0.00000000000E+00  0.12012960057E+03  0.12012960059E+03  0.25500000000E-02 0.  1.
          2   -1    0    0  501    0  0.00000000000E+00 -0.00000000000E+00 -0.46338165424E+00  0.46338867054E+00  0.25500000000E-02 0. -1.
         31    1    1    2    0    0  0.24391082489E+00 -0.28954984839E+00  0.61877924463E+02  0.62325595011E+02  0.74470750000E+01 0.  1.
        -31    1    1    2    0    0 -0.24391082489E+00  0.28954984839E+00  0.57788294450E+02  0.58267394253E+02  0.74470750000E+01 0. -1.
<mgrwt>
<rscale>  0 0.14921967E+02</rscale>
<asrwt>0</asrwt>
<pdfrwt beam="2">  1        2 0.98423154E+00 0.14921967E+02</pdfrwt>
<pdfrwt beam="1">  1       -2 0.99714721E+00 0.14921967E+02</pdfrwt>
<totfact>-0.30508453E-13</totfact>
</mgrwt>
</event>
<event>
 4    1 -0.5167034E-019  0.1495900E+02  0.7818608E-02  0.1869322E+00
         -2   -1    0    0    0  501 -0.00000000000E+00  0.00000000000E+00  0.12006969210E+03  0.12006969213E+03  0.25500000000E-02 0.  1.
          2   -1    0    0  501    0  0.00000000000E+00 -0.00000000000E+00 -0.46591689388E+00  0.46592387201E+00  0.25500000000E-02 0. -1.
         31    1    1    2    0    0 -0.37458346417E+00 -0.19569336180E+00  0.64254726782E+02  0.64686223019E+02  0.74470750000E+01 0.  1.
        -31    1    1    2    0    0  0.37458346417E+00  0.19569336180E+00  0.55349048428E+02  0.55849392983E+02  0.74470750000E+01 0. -1.
<mgrwt>
<rscale>  0 0.14959000E+02</rscale>
<asrwt>0</asrwt>
<pdfrwt beam="2">  1        2 0.98959365E+00 0.14959000E+02</pdfrwt>
<pdfrwt beam="1">  1       -2 0.99667281E+00 0.14959000E+02</pdfrwt>
<totfact>-0.15872816E-13</totfact>
</mgrwt>
</event>
<event>
 4    1 -0.5167034E-019  0.1501626E+02  0.7818608E-02  0.1867573E+00
         -2   -1    0    0    0  501 -0.00000000000E+00  0.00000000000E+00  0.11997777190E+03  0.11997777193E+03  0.25500000000E-02 0.  1.
          2   -1    0    0  501    0  0.00000000000E+00 -0.00000000000E+00 -0.46985060889E+00  0.46985752859E+00  0.25500000000E-02 0. -1.
         31    1    1    2    0    0  0.65723640484E+00  0.38065654078E+00  0.55102648280E+02  0.55608790966E+02  0.74470750000E+01 0. -1.
        -31    1    1    2    0    0 -0.65723640484E+00 -0.38065654078E+00  0.64405273009E+02  0.64838838488E+02  0.74470750000E+01 0. -1.
<mgrwt>
<rscale>  0 0.15016264E+02</rscale>
<asrwt>0</asrwt>
<pdfrwt beam="2">  1        2 0.99791307E+00 0.15016264E+02</pdfrwt>
<pdfrwt beam="1">  1       -2 0.99594527E+00 0.15016264E+02</pdfrwt>
<totfact>-0.63900182E-14</totfact>
</mgrwt>
</event>
<event>
 4    1 -0.5167034E-019  0.1500904E+02  0.7818608E-02  0.1867793E+00
          2   -1    0    0  501    0  0.00000000000E+00  0.00000000000E+00  0.11993933314E+03  0.11993933317E+03  0.25500000000E-02 0. -1.
         -2   -1    0    0    0  501 -0.00000000000E+00 -0.00000000000E+00 -0.46954919175E+00  0.46955611590E+00  0.25500000000E-02 0.  1.
         31    1    1    2    0    0  0.55321969996E-01 -0.85392440426E+00  0.56879743529E+02  0.57371564362E+02  0.74470750000E+01 0.  1.
        -31    1    1    2    0    0 -0.55321969996E-01  0.85392440426E+00  0.62590040421E+02  0.63037324922E+02  0.74470750000E+01 0.  1.
<mgrwt>
<rscale>  0 0.15009042E+02</rscale>
<asrwt>0</asrwt>
<pdfrwt beam="1">  1        2 0.99562494E+00 0.15009042E+02</pdfrwt>
<pdfrwt beam="2">  1       -2 0.99727415E+00 0.15009042E+02</pdfrwt>
<totfact>-0.83429657E-14</totfact>
</mgrwt>
</event>
<event>
 4    1 -0.5167034E-019  0.1499379E+02  0.7818608E-02  0.1868258E+00
          2   -1    0    0  501    0  0.00000000000E+00  0.00000000000E+00  0.12011073675E+03  0.12011073678E+03  0.25500000000E-02 0.  1.
         -2   -1    0    0    0  501 -0.00000000000E+00 -0.00000000000E+00 -0.46792665129E+00  0.46793359944E+00  0.25500000000E-02 0. -1.
         31    1    1    2    0    0  0.51999770798E+00  0.60708643467E+00  0.57208617297E+02  0.57696826349E+02  0.74470750000E+01 0.  1.
        -31    1    1    2    0    0 -0.51999770798E+00 -0.60708643467E+00  0.62434192804E+02  0.62881844031E+02  0.74470750000E+01 0.  1.
<mgrwt>
<rscale>  0 0.14993790E+02</rscale>
<asrwt>0</asrwt>
<pdfrwt beam="1">  1        2 0.99702881E+00 0.14993790E+02</pdfrwt>
<pdfrwt beam="2">  1       -2 0.99384699E+00 0.14993790E+02</pdfrwt>
<totfact>-0.84632122E-14</totfact>
</mgrwt>
</event>
<event>
 4    1  0.5167034E-019  0.1489749E+02  0.7818608E-02  0.1871213E+00
         -2   -1    0    0    0  501 -0.00000000000E+00  0.00000000000E+00  0.11813960615E+03  0.11813960618E+03  0.25500000000E-02 0.  1.
          2   -1    0    0  501    0  0.00000000000E+00 -0.00000000000E+00 -0.46964282236E+00  0.46964974512E+00  0.25500000000E-02 0. -1.
         31    1    1    2    0    0  0.14719995498E+00  0.21141164891E-01  0.58414485481E+02  0.58887461780E+02  0.74470750000E+01 0.  1.
        -31    1    1    2    0    0 -0.14719995498E+00 -0.21141164891E-01  0.59255477846E+02  0.59721794142E+02  0.74470750000E+01 0.  1.
<mgrwt>
<rscale>  0 0.14897494E+02</rscale>
<asrwt>0</asrwt>
<pdfrwt beam="2">  1        2 0.99741297E+00 0.14897494E+02</pdfrwt>
<pdfrwt beam="1">  1       -2 0.98074431E+00 0.14897494E+02</pdfrwt>
<totfact> 0.82793282E-13</totfact>
</mgrwt>
</event>
<event>
 4    1  0.5167034E-019  0.1492758E+02  0.7818608E-02  0.1870287E+00
         -2   -1    0    0    0  501 -0.00000000000E+00  0.00000000000E+00  0.11889996615E+03  0.11889996618E+03  0.25500000000E-02 0. -1.
          2   -1    0    0  501    0  0.00000000000E+00 -0.00000000000E+00 -0.46852598889E+00  0.46853292816E+00  0.25500000000E-02 0.  1.
         31    1    1    2    0    0 -0.32402600980E+00 -0.62061859796E-01  0.56219755467E+02  0.56711803668E+02  0.74470750000E+01 0.  1.
        -31    1    1    2    0    0  0.32402600980E+00  0.62061859796E-01  0.62211684696E+02  0.62656695439E+02  0.74470750000E+01 0. -1.
<mgrwt>
<rscale>  0 0.14927577E+02</rscale>
<asrwt>0</asrwt>
<pdfrwt beam="2">  1        2 0.99507561E+00 0.14927577E+02</pdfrwt>
<pdfrwt beam="1">  1       -2 0.98702227E+00 0.14927577E+02</pdfrwt>
<totfact> 0.24155993E-13</totfact>
</mgrwt>
</event>
<event>
 4    1  0.5167034E-019  0.1490146E+02  0.7818608E-02  0.1871090E+00
         -2   -1    0    0    0  501 -0.00000000000E+00  0.00000000000E+00  0.11849542082E+03  0.11849542084E+03  0.25500000000E-02 0.  1.
          2   -1    0    0  501    0  0.00000000000E+00 -0.00000000000E+00 -0.46848187335E+00  0.46848881327E+00  0.25500000000E-02 0. -1.
         31    1    1    2    0    0  0.67553334438E-02 -0.91599212512E-01  0.60725880767E+02  0.61180879014E+02  0.74470750000E+01 0.  1.
        -31    1    1    2    0    0 -0.67553334438E-02  0.91599212512E-01  0.57301058177E+02  0.57783030643E+02  0.74470750000E+01 0. -1.
<mgrwt>
<rscale>  0 0.14901459E+02</rscale>
<asrwt>0</asrwt>
<pdfrwt beam="2">  1        2 0.99496896E+00 0.14901459E+02</pdfrwt>
<pdfrwt beam="1">  1       -2 0.98367684E+00 0.14901459E+02</pdfrwt>
<totfact> 0.68455661E-13</totfact>
</mgrwt>
</event>
<event>
 4    1 -0.5167034E-019  0.1497521E+02  0.7818608E-02  0.1868826E+00
          2   -1    0    0  501    0  0.00000000000E+00  0.00000000000E+00  0.11923564335E+03  0.11923564338E+03  0.25500000000E-02 0.  1.
         -2   -1    0    0    0  501 -0.00000000000E+00 -0.00000000000E+00 -0.47019343292E+00  0.47020034757E+00  0.25500000000E-02 0. -1.
         31    1    1    2    0    0 -0.56054683036E+00  0.34332580455E+00  0.62709643232E+02  0.63153704291E+02  0.74470750000E+01 0.  1.
        -31    1    1    2    0    0  0.56054683036E+00 -0.34332580455E+00  0.56055806689E+02  0.56552139438E+02  0.74470750000E+01 0. -1.
<mgrwt>
<rscale>  0 0.14975210E+02</rscale>
<asrwt>0</asrwt>
<pdfrwt beam="1">  1        2 0.98981167E+00 0.14975210E+02</pdfrwt>
<pdfrwt beam="2">  1       -2 0.99861407E+00 0.14975210E+02</pdfrwt>
<totfact>-0.79305813E-14</totfact>
</mgrwt>
</event>
<event>
 4    1 -0.5167034E-019  0.1494956E+02  0.7818608E-02  0.1869612E+00
          2   -1    0    0  501    0  0.00000000000E+00  0.00000000000E+00  0.11956994546E+03  0.11956994549E+03  0.25500000000E-02 0. -1.
         -2   -1    0    0    0  501 -0.00000000000E+00 -0.00000000000E+00 -0.46727367933E+00  0.46728063719E+00  0.25500000000E-02 0.  1.
         31    1    1    2    0    0  0.14816988315E+00  0.12195486527E+00  0.54624122012E+02  0.55129760193E+02  0.74470750000E+01 0.  1.
        -31    1    1    2    0    0 -0.14816988315E+00 -0.12195486527E+00  0.64478549769E+02  0.64907465932E+02  0.74470750000E+01 0. -1.
<mgrwt>
<rscale>  0 0.14949556E+02</rscale>
<asrwt>0</asrwt>
<pdfrwt beam="1">  1        2 0.99255177E+00 0.14949556E+02</pdfrwt>
<pdfrwt beam="2">  1       -2 0.99244812E+00 0.14949556E+02</pdfrwt>
<totfact>-0.11136592E-13</totfact>
</mgrwt>
</event>
<event>
 4    1 -0.5167034E-019  0.1491150E+02  0.7818608E-02  0.1870781E+00
         -2   -1    0    0    0  501 -0.00000000000E+00  0.00000000000E+00  0.11968474702E+03  0.11968474704E+03  0.25500000000E-02 0.  1.
          2   -1    0    0  501    0  0.00000000000E+00 -0.00000000000E+00 -0.46445185455E+00  0.46445885469E+00  0.25500000000E-02 0. -1.
         31    1    1    2    0    0 -0.65279002083E-01  0.20631515556E+00  0.57296210594E+02  0.57778555726E+02  0.74470750000E+01 0. -1.
        -31    1    1    2    0    0  0.65279002083E-01 -0.20631515556E+00  0.61924084567E+02  0.62370650172E+02  0.74470750000E+01 0.  1.
<mgrwt>
<rscale>  0 0.14911502E+02</rscale>
<asrwt>0</asrwt>
<pdfrwt beam="2">  1        2 0.98648176E+00 0.14911502E+02</pdfrwt>
<pdfrwt beam="1">  1       -2 0.99347770E+00 0.14911502E+02</pdfrwt>
<totfact>-0.25694044E-13</totfact>
</mgrwt>
</event>
<event>
 4    1 -0.5167034E-019  0.1491969E+02  0.7818608E-02  0.1870529E+00
          2   -1    0    0  501    0  0.00000000000E+00  0.00000000000E+00  0.11861431987E+03  0.11861431990E+03  0.25500000000E-02 0. -1.
         -2   -1    0    0    0  501 -0.00000000000E+00 -0.00000000000E+00 -0.46915791655E+00  0.46916484647E+00  0.25500000000E-02 0.  1.
         31    1    1    2    0    0 -0.29847750637E+00 -0.77543494249E-01  0.56609453670E+02  0.57098023369E+02  0.74470750000E+01 0.  1.
        -31    1    1    2    0    0  0.29847750637E+00  0.77543494249E-01  0.61535708286E+02  0.61985461377E+02  0.74470750000E+01 0. -1.
<mgrwt>
<rscale>  0 0.14919687E+02</rscale>
<asrwt>0</asrwt>
<pdfrwt beam="1">  1        2 0.98466557E+00 0.14919687E+02</pdfrwt>
<pdfrwt beam="2">  1       -2 0.99640300E+00 0.14919687E+02</pdfrwt>
<totfact>-0.32691328E-13</totfact>
</mgrwt>
</event>
<event>
 4    1 -0.5167034E-019  0.1492489E+02  0.7818608E-02  0.1870369E+00
          2   -1    0    0  501    0  0.00000000000E+00  0.00000000000E+00  0.11857478670E+03  0.11857478673E+03  0.25500000000E-02 0.  1.
         -2   -1    0    0    0  501 -0.00000000000E+00 -0.00000000000E+00 -0.46964179778E+00  0.46964872056E+00  0.25500000000E-02 0. -1.
         31    1    1    2    0    0 -0.98798165043E-01  0.53297953610E-01  0.55340734956E+02  0.55839667560E+02  0.74470750000E+01 0. -1.
        -31    1    1    2    0    0  0.98798165043E-01 -0.53297953610E-01  0.62764409946E+02  0.63204767888E+02  0.74470750000E+01 0.  1.
<mgrwt>
<rscale>  0 0.14924891E+02</rscale>
<asrwt>0</asrwt>
<pdfrwt beam="1">  1        2 0.98434268E+00 0.14924891E+02</pdfrwt>
<pdfrwt beam="2">  1       -2 0.99742529E+00 0.14924891E+02</pdfrwt>
<totfact>-0.27879474E-13</totfact>
</mgrwt>
</event>
<event>
 4    1 -0.5167034E-019  0.1493194E+02  0.7818608E-02  0.1870152E+00
         -2   -1    0    0    0  501 -0.00000000000E+00  0.00000000000E+00  0.12021248857E+03  0.12021248859E+03  0.25500000000E-02 0.  1.
          2   -1    0    0  501    0  0.00000000000E+00 -0.00000000000E+00 -0.46368150963E+00  0.46368852139E+00  0.25500000000E-02 0. -1.
         31    1    1    2    0    0  0.83178299188E-01 -0.13477556357E-01  0.55638561832E+02  0.56134798379E+02  0.74470750000E+01 0. -1.
        -31    1    1    2    0    0 -0.83178299188E-01  0.13477556357E-01  0.64110245226E+02  0.64541378737E+02  0.74470750000E+01 0.  1.
<mgrwt>
<rscale>  0 0.14931943E+02</rscale>
<asrwt>0</asrwt>
<pdfrwt beam="2">  1        2 0.98486859E+00 0.14931943E+02</pdfrwt>
<pdfrwt beam="1">  1       -2 0.99783507E+00 0.14931943E+02</pdfrwt>
<totfact>-0.22441848E-13</totfact>
</mgrwt>
</event>
<event>
 4    1  0.5167034E-019  0.1489610E+02  0.7818608E-02  0.1871256E+00
          2   -1    0    0  501    0  0.00000000000E+00  0.00000000000E+00  0.12002769790E+03  0.12002769792E+03  0.25500000000E-02 0.  1.
         -2   -1    0    0    0  501 -0.00000000000E+00 -0.00000000000E+00 -0.46216866169E+00  0.46217569640E+00  0.25500000000E-02 0. -1.
         31    1    1    2    0    0 -0.36972917291E-01  0.11882163271E-01  0.60706140382E+02  0.61161228849E+02  0.74470750000E+01 0.  1.
        -31    1    1    2    0    0  0.36972917291E-01 -0.11882163271E-01  0.58859388853E+02  0.59328644771E+02  0.74470750000E+01 0. -1.
<mgrwt>
<rscale>  0 0.14896102E+02</rscale>
<asrwt>0</asrwt>
<pdfrwt beam="1">  1        2 0.99629458E+00 0.14896102E+02</pdfrwt>
<pdfrwt beam="2">  1       -2 0.98166184E+00 0.14896102E+02</pdfrwt>
<totfact> 0.88650490E-13</totfact>
</mgrwt>
</event>
<event>
 4    1  0.5167034E-019  0.1492177E+02  0.7818608E-02  0.1870465E+00
          2   -1    0    0  501    0  0.00000000000E+00  0.00000000000E+00  0.12034203764E+03  0.12034203766E+03  0.25500000000E-02 0.  1.
         -2   -1    0    0    0  501 -0.00000000000E+00 -0.00000000000E+00 -0.46255118219E+00  0.46255821109E+00  0.25500000000E-02 0. -1.
         31    1    1    2    0    0  0.16318716134E+00 -0.16283868815E+00  0.63103407971E+02  0.63541735655E+02  0.74470750000E+01 0.  1.
        -31    1    1    2    0    0 -0.16318716134E+00  0.16283868815E+00  0.56776078484E+02  0.57262860220E+02  0.74470750000E+01 0. -1.
<mgrwt>
<rscale>  0 0.14921766E+02</rscale>
<asrwt>0</asrwt>
<pdfrwt beam="1">  1        2 0.99889692E+00 0.14921766E+02</pdfrwt>
<pdfrwt beam="2">  1       -2 0.98248105E+00 0.14921766E+02</pdfrwt>
<totfact> 0.29773884E-13</totfact>
</mgrwt>
</event>
<event>
 4    1  0.5167034E-019  0.1491457E+02  0.7818608E-02  0.1870687E+00
          2   -1    0    0  501    0  0.00000000000E+00  0.00000000000E+00  0.11982804959E+03  0.11982804962E+03  0.25500000000E-02 0. -1.
         -2   -1    0    0    0  501 -0.00000000000E+00 -0.00000000000E+00 -0.46408753429E+00  0.46409453992E+00  0.25500000000E-02 0.  1.
         31    1    1    2    0    0  0.30973853505E+00  0.23330577843E+00  0.59336816978E+02  0.59803571337E+02  0.74470750000E+01 0. -1.
        -31    1    1    2    0    0 -0.30973853505E+00 -0.23330577843E+00  0.60027145077E+02  0.60488572819E+02  0.74470750000E+01 0. -1.
<mgrwt>
<rscale>  0 0.14914574E+02</rscale>
<asrwt>0</asrwt>
<pdfrwt beam="1">  1        2 0.99465961E+00 0.14914574E+02</pdfrwt>
<pdfrwt beam="2">  1       -2 0.98571551E+00 0.14914574E+02</pdfrwt>
<totfact> 0.40462165E-13</totfact>
</mgrwt>
</event>
<event>
 4    1  0.5167034E-019  0.1489448E+02  0.7818608E-02  0.1871306E+00
          2   -1    0    0  501    0  0.00000000000E+00  0.00000000000E+00  0.12018326395E+03  0.12018326398E+03  0.25500000000E-02 0.  1.
         -2   -1    0    0    0  501 -0.00000000000E+00 -0.00000000000E+00 -0.46146977041E+00  0.46147681578E+00  0.25500000000E-02 0. -1.
         31    1    1    2    0    0  0.20385943095E-03  0.30375497435E-01  0.59544990245E+02  0.60008880276E+02  0.74470750000E+01 0. -1.
        -31    1    1    2    0    0 -0.20385943095E-03 -0.30375497435E-01  0.60176803934E+02  0.60635860516E+02  0.74470750000E+01 0.  1.
<mgrwt>
<rscale>  0 0.14894478E+02</rscale>
<asrwt>0</asrwt>
<pdfrwt beam="1">  1        2 0.99757513E+00 0.14894478E+02</pdfrwt>
<pdfrwt beam="2">  1       -2 0.98018794E+00 0.14894478E+02</pdfrwt>
<totfact> 0.87059110E-13</totfact>
</mgrwt>
</event>
<event>
 4    1 -0.5167034E-019  0.1497874E+02  0.7818608E-02  0.1868718E+00
         -2   -1    0    0    0  501 -0.00000000000E+00  0.00000000000E+00  0.11935733822E+03  0.11935733824E+03  0.25500000000E-02 0.  1.
          2   -1    0    0  501    0  0.00000000000E+00 -0.00000000000E+00 -0.46993572135E+00  0.46994263980E+00  0.25500000000E-02 0. -1.
         31    1    1    2    0    0 -0.57420399246E+00 -0.36275587996E+00  0.56140783595E+02  0.56636629586E+02  0.74470750000E+01 0. -1.
        -31    1    1    2    0    0  0.57420399246E+00  0.36275587996E+00  0.62746618900E+02  0.63190651298E+02  0.74470750000E+01 0.  1.
<mgrwt>
<rscale>  0 0.14978744E+02</rscale>
<asrwt>0</asrwt>
<pdfrwt beam="2">  1        2 0.99807289E+00 0.14978744E+02</pdfrwt>
<pdfrwt beam="1">  1       -2 0.99081580E+00 0.14978744E+02</pdfrwt>
<totfact>-0.17877268E-14</totfact>
</mgrwt>
</event>
<event>
 4    1 -0.5167034E-019  0.1499912E+02  0.7818608E-02  0.1868095E+00
         -2   -1    0    0    0  501 -0.00000000000E+00  0.00000000000E+00  0.12030244139E+03  0.12030244141E+03  0.25500000000E-02 0. -1.
          2   -1    0    0  501    0  0.00000000000E+00 -0.00000000000E+00 -0.46751321599E+00  0.46752017029E+00  0.25500000000E-02 0.  1.
         31    1    1    2    0    0  0.26733280881E+00  0.34888405078E+00  0.53726000035E+02  0.54241452715E+02  0.74470750000E+01 0.  1.
        -31    1    1    2    0    0 -0.26733280881E+00 -0.34888405078E+00  0.66108928136E+02  0.66528508869E+02  0.74470750000E+01 0.  1.
<mgrwt>
<rscale>  0 0.14999120E+02</rscale>
<asrwt>0</asrwt>
<pdfrwt beam="2">  1        2 0.99297844E+00 0.14999120E+02</pdfrwt>
<pdfrwt beam="1">  1       -2 0.99861054E+00 0.14999120E+02</pdfrwt>
<totfact>-0.61672686E-14</totfact>
</mgrwt>
</event>
<event>
 4    1 -0.5167034E-019  0.1495398E+02  0.7818608E-02  0.1869476E+00
          2   -1    0    0  501    0  0.00000000000E+00  0.00000000000E+00  0.11962847547E+03  0.11962847549E+03  0.25500000000E-02 0.  1.
         -2   -1    0    0    0  501 -0.00000000000E+00 -0.00000000000E+00 -0.46732167334E+00  0.46732863048E+00  0.25500000000E-02 0. -1.
         31    1    1    2    0    0  0.51714775145E+00 -0.37782711067E+00  0.61110219364E+02  0.61565640027E+02  0.74470750000E+01 0.  1.
        -31    1    1    2    0    0 -0.51714775145E+00  0.37782711067E+00  0.58050934428E+02  0.58530164096E+02  0.74470750000E+01 0.  1.
<mgrwt>
<rscale>  0 0.14953983E+02</rscale>
<asrwt>0</asrwt>
<pdfrwt beam="1">  1        2 0.99303614E+00 0.14953983E+02</pdfrwt>
<pdfrwt beam="2">  1       -2 0.99255155E+00 0.14953983E+02</pdfrwt>
<totfact>-0.11056957E-13</totfact>
</mgrwt>
</event>
<event>
 4    1 -0.5167034E-019  0.1499633E+02  0.7818608E-02  0.1868180E+00
         -2   -1    0    0    0  501 -0.00000000000E+00  0.00000000000E+00  0.11964115511E+03  0.11964115513E+03  0.25500000000E-02 0.  1.
          2   -1    0    0  501    0  0.00000000000E+00 -0.00000000000E+00 -0.46992265110E+00  0.46992956974E+00  0.25500000000E-02 0. -1.
         31    1    1    2    0    0 -0.45044622009E+00  0.72809233650E+00  0.58185474591E+02  0.58666356625E+02  0.74470750000E+01 0. -1.
        -31    1    1    2    0    0  0.45044622009E+00 -0.72809233650E+00  0.60985757865E+02  0.61444728079E+02  0.74470750000E+01 0. -1.
<mgrwt>
<rscale>  0 0.14996334E+02</rscale>
<asrwt>0</asrwt>
<pdfrwt beam="2">  1        2 0.99805452E+00 0.14996334E+02</pdfrwt>
<pdfrwt beam="1">  1       -2 0.99316249E+00 0.14996334E+02</pdfrwt>
<totfact>-0.57173774E-14</totfact>
</mgrwt>
</event>
<event>
 4    1 -0.5167034E-019  0.1495611E+02  0.7818608E-02  0.1869411E+00
         -2   -1    0    0    0  501 -0.00000000000E+00  0.00000000000E+00  0.11941300103E+03  0.11941300106E+03  0.25500000000E-02 0. -1.
          2   -1    0    0  501    0  0.00000000000E+00 -0.00000000000E+00 -0.46829807007E+00  0.46830501271E+00  0.25500000000E-02 0.  1.
         31    1    1    2    0    0  0.23937111386E-01  0.60317677685E+00  0.56963417442E+02  0.57451320681E+02  0.74470750000E+01 0.  1.
        -31    1    1    2    0    0 -0.23937111386E-01 -0.60317677685E+00  0.61981285516E+02  0.62429985387E+02  0.74470750000E+01 0. -1.
<mgrwt>
<rscale>  0 0.14956109E+02</rscale>
<asrwt>0</asrwt>
<pdfrwt beam="2">  1        2 0.99461022E+00 0.14956109E+02</pdfrwt>
<pdfrwt beam="1">  1       -2 0.99126252E+00 0.14956109E+02</pdfrwt>
<totfact>-0.54759817E-14</totfact>
</mgrwt>
</event>
<event>
 4    1  0.5167034E-019  0.1491877E+02  0.7818608E-02  0.1870557E+00
         -2   -1    0    0    0  501 -0.00000000000E+00  0.00000000000E+00  0.11855720240E+03  0.11855720243E+03  0.25500000000E-02 0. -1.
          2   -1    0    0  501    0  0.00000000000E+00 -0.00000000000E+00 -0.46932651083E+00  0.46933343826E+00  0.25500000000E-02 0.  1.
         31    1    1    2    0    0  0.67331587795E-04  0.10298994141E+00  0.55726276292E+02  0.56221769826E+02  0.74470750000E+01 0.  1.
        -31    1    1    2    0    0 -0.67331587795E-04 -0.10298994141E+00  0.62361599597E+02  0.62804766040E+02  0.74470750000E+01 0. -1.
<mgrwt>
<rscale>  0 0.14918774E+02</rscale>
<asrwt>0</asrwt>
<pdfrwt beam="2">  1        2 0.99675776E+00 0.14918774E+02</pdfrwt>
<pdfrwt beam="1">  1       -2 0.98419468E+00 0.14918774E+02</pdfrwt>
<totfact> 0.46723324E-13</totfact>
</mgrwt>
</event>
<event>
 4    1 -0.5167034E-019  0.1495838E+02  0.7818608E-02  0.1869341E+00
         -2   -1    0    0    0  501 -0.00000000000E+00  0.00000000000E+00  0.11987269237E+03  0.11987269240E+03  0.25500000000E-02 0.  1.
          2   -1    0    0  501    0  0.00000000000E+00 -0.00000000000E+00 -0.46664406309E+00  0.46665103034E+00  0.25500000000E-02 0. -1.
         31    1    1    2    0    0  0.35529848714E+00  0.58591985027E+00  0.60500891502E+02  0.60961351180E+02  0.74470750000E+01 0.  1.
        -31    1    1    2    0    0 -0.35529848714E+00 -0.58591985027E+00  0.58905156805E+02  0.59377992248E+02  0.74470750000E+01 0. -1.
<mgrwt>
<rscale>  0 0.14958382E+02</rscale>
<asrwt>0</asrwt>
<pdfrwt beam="2">  1        2 0.99112582E+00 0.14958382E+02</pdfrwt>
<pdfrwt beam="1">  1       -2 0.99504989E+00 0.14958382E+02</pdfrwt>
<totfact>-0.16160785E-13</totfact>
</mgrwt>
</event>
<event>
 4    1 -0.5167034E-019  0.1493702E+02  0.7818608E-02  0.1869996E+00
         -2   -1    0    0    0  501 -0.00000000000E+00  0.00000000000E+00  0.12016049100E+03  0.12016049103E+03  0.25500000000E-02 0. -1.
          2   -1    0    0  501    0  0.00000000000E+00 -0.00000000000E+00 -0.46419780242E+00  0.46420480639E+00  0.25500000000E-02 0.  1.
         31    1    1    2    0    0  0.52272314592E+00 -0.10437655300E+00  0.61371836695E+02  0.61824310747E+02  0.74470750000E+01 0.  1.
        -31    1    1    2    0    0 -0.52272314592E+00  0.10437655300E+00  0.58324456503E+02  0.58800385087E+02  0.74470750000E+01 0.  1.
<mgrwt>
<rscale>  0 0.14937022E+02</rscale>
<asrwt>0</asrwt>
<pdfrwt beam="2">  1        2 0.98595933E+00 0.14937022E+02</pdfrwt>
<pdfrwt beam="1">  1       -2 0.99740938E+00 0.14937022E+02</pdfrwt>
<totfact>-0.21600708E-13</totfact>
</mgrwt>
</event>
<event>
 4    1 -0.5167034E-019  0.1500035E+02  0.7818608E-02  0.1868058E+00
          2   -1    0    0  501    0  0.00000000000E+00  0.00000000000E+00  0.11992418352E+03  0.11992418355E+03  0.25500000000E-02 0.  1.
         -2   -1    0    0    0  501 -0.00000000000E+00 -0.00000000000E+00 -0.46906470670E+00  0.46907163799E+00  0.25500000000E-02 0. -1.
         31    1    1    2    0    0  0.34777100838E+00  0.16595568635E+00  0.66174459340E+02  0.66593291562E+02  0.74470750000E+01 0.  1.
        -31    1    1    2    0    0 -0.34777100838E+00 -0.16595568635E+00  0.53280659474E+02  0.53799963624E+02  0.74470750000E+01 0. -1.
<mgrwt>
<rscale>  0 0.15000349E+02</rscale>
<asrwt>0</asrwt>
<pdfrwt beam="1">  1        2 0.99549567E+00 0.15000349E+02</pdfrwt>
<pdfrwt beam="2">  1       -2 0.99624869E+00 0.15000349E+02</pdfrwt>
<totfact>-0.10284032E-13</totfact>
</mgrwt>
</event>
<event>
 4    1 -0.5167034E-019  0.1494915E+02  0.7818608E-02  0.1869624E+00
         -2   -1    0    0    0  501 -0.00000000000E+00  0.00000000000E+00  0.11972689013E+03  0.11972689016E+03  0.25500000000E-02 0.  1.
          2   -1    0    0  501    0  0.00000000000E+00 -0.00000000000E+00 -0.46663569033E+00  0.46664265770E+00  0.25500000000E-02 0. -1.
         31    1    1    2    0    0  0.57027455166E+00 -0.90853792742E-02  0.57285504449E+02  0.57770349156E+02  0.74470750000E+01 0.  1.
        -31    1    1    2    0    0 -0.57027455166E+00  0.90853792742E-02  0.61974749990E+02  0.62423183658E+02  0.74470750000E+01 0.  1.
<mgrwt>
<rscale>  0 0.14949149E+02</rscale>
<asrwt>0</asrwt>
<pdfrwt beam="2">  1        2 0.99110343E+00 0.14949149E+02</pdfrwt>
<pdfrwt beam="1">  1       -2 0.99384422E+00 0.14949149E+02</pdfrwt>
<totfact>-0.15681328E-13</totfact>
</mgrwt>
</event>
<event>
 4    1 -0.5167034E-019  0.1492076E+02  0.7818608E-02  0.1870496E+00
          2   -1    0    0  501    0  0.00000000000E+00  0.00000000000E+00  0.11847006089E+03  0.11847006092E+03  0.25500000000E-02 0. -1.
         -2   -1    0    0    0  501 -0.00000000000E+00 -0.00000000000E+00 -0.46979685599E+00  0.46980377648E+00  0.25500000000E-02 0.  1.
         31    1    1    2    0    0 -0.40095893474E+00 -0.10042363426E+00  0.60321955958E+02  0.60781314148E+02  0.74470750000E+01 0. -1.
        -31    1    1    2    0    0  0.40095893474E+00  0.10042363426E+00  0.57678308081E+02  0.58158550550E+02  0.74470750000E+01 0.  1.
<mgrwt>
<rscale>  0 0.14920761E+02</rscale>
<asrwt>0</asrwt>
<pdfrwt beam="1">  1        2 0.98347802E+00 0.14920761E+02</pdfrwt>
<pdfrwt beam="2">  1       -2 0.99774982E+00 0.14920761E+02</pdfrwt>
<totfact>-0.29129996E-13</totfact>
</mgrwt>
</event>
<event>
 4    1 -0.5167034E-019  0.1497759E+02  0.7818608E-02  0.1868753E+00
         -2   -1    0    0    0  501 -0.00000000000E+00  0.00000000000E+00  0.11949833251E+03  0.11949833254E+03  0.25500000000E-02 0. -1.
          2   -1    0    0  501    0  0.00000000000E+00 -0.00000000000E+00 -0.46930897722E+00  0.46931590491E+00  0.25500000000E-02 0.  1.
         31    1    1    2    0    0  0.40407210719E+00  0.41731720675E+00  0.55233169990E+02  0.55735979593E+02  0.74470750000E+01 0.  1.
        -31    1    1    2    0    0 -0.40407210719E+00 -0.41731720675E+00  0.63795853542E+02  0.64231668849E+02  0.74470750000E+01 0. -1.
<mgrwt>
<rscale>  0 0.14977591E+02</rscale>
<asrwt>0</asrwt>
<pdfrwt beam="2">  1        2 0.99675162E+00 0.14977591E+02</pdfrwt>
<pdfrwt beam="1">  1       -2 0.99197645E+00 0.14977591E+02</pdfrwt>
<totfact>-0.60724553E-14</totfact>
</mgrwt>
</event>
<event>
 4    1 -0.5167034E-019  0.1501420E+02  0.7818608E-02  0.1867635E+00
          2   -1    0    0  501    0  0.00000000000E+00  0.00000000000E+00  0.12029433150E+03  0.12029433153E+03  0.25500000000E-02 0.  1.
         -2   -1    0    0    0  501 -0.00000000000E+00 -0.00000000000E+00 -0.46848554950E+00  0.46849248936E+00  0.25500000000E-02 0. -1.
         31    1    1    2    0    0 -0.80398268638E+00 -0.22218605364E+00  0.63526976774E+02  0.63967424983E+02  0.74470750000E+01 0.  1.
        -31    1    1    2    0    0  0.80398268638E+00  0.22218605364E+00  0.56298869178E+02  0.56795399036E+02  0.74470750000E+01 0. -1.
<mgrwt>
<rscale>  0 0.15014203E+02</rscale>
<asrwt>0</asrwt>
<pdfrwt beam="1">  1        2 0.99855152E+00 0.15014203E+02</pdfrwt>
<pdfrwt beam="2">  1       -2 0.99503533E+00 0.15014203E+02</pdfrwt>
<totfact>-0.50376822E-14</totfact>
</mgrwt>
</event>
<event>
 4    1 -0.5167034E-019  0.1493424E+02  0.7818608E-02  0.1870082E+00
         -2   -1    0    0    0  501 -0.00000000000E+00  0.00000000000E+00  0.11998461312E+03  0.11998461315E+03  0.25500000000E-02 0.  1.
          2   -1    0    0  501    0  0.00000000000E+00 -0.00000000000E+00 -0.46470498727E+00  0.46471198359E+00  0.25500000000E-02 0. -1.
         31    1    1    2    0    0 -0.43202479493E+00 -0.77702974773E-01  0.57130836523E+02  0.57615831948E+02  0.74470750000E+01 0. -1.
        -31    1    1    2    0    0  0.43202479493E+00  0.77702974773E-01  0.62389071614E+02  0.62833493187E+02  0.74470750000E+01 0.  1.
<mgrwt>
<rscale>  0 0.14934239E+02</rscale>
<asrwt>0</asrwt>
<pdfrwt beam="2">  1        2 0.98702686E+00 0.14934239E+02</pdfrwt>
<pdfrwt beam="1">  1       -2 0.99595929E+00 0.14934239E+02</pdfrwt>
<totfact>-0.23989415E-13</totfact>
</mgrwt>
</event>
<event>
 4    1 -0.5167034E-019  0.1493399E+02  0.7818608E-02  0.1870090E+00
         -2   -1    0    0    0  501 -0.00000000000E+00  0.00000000000E+00  0.12000671256E+03  0.12000671258E+03  0.25500000000E-02 0. -1.
          2   -1    0    0  501    0  0.00000000000E+00 -0.00000000000E+00 -0.46460390189E+00  0.46461089974E+00  0.25500000000E-02 0.  1.
         31    1    1    2    0    0 -0.20023078078E+00 -0.49010589131E+00  0.58725839824E+02  0.59198509147E+02  0.74470750000E+01 0.  1.
        -31    1    1    2    0    0  0.20023078078E+00  0.49010589131E+00  0.60816268832E+02  0.61272814338E+02  0.74470750000E+01 0. -1.
<mgrwt>
<rscale>  0 0.14933989E+02</rscale>
<asrwt>0</asrwt>
<pdfrwt beam="2">  1        2 0.98681368E+00 0.14933989E+02</pdfrwt>
<pdfrwt beam="1">  1       -2 0.99614119E+00 0.14933989E+02</pdfrwt>
<totfact>-0.24234913E-13</totfact>
</mgrwt>
</event>
<event>
 4    1 -0.5167034E-019  0.1497963E+02  0.7818608E-02  0.1868691E+00
         -2   -1    0    0    0  501 -0.00000000000E+00  0.00000000000E+00  0.11967940401E+03  0.11967940404E+03  0.25500000000E-02 0.  1.
          2   -1    0    0  501    0  0.00000000000E+00 -0.00000000000E+00 -0.46872627151E+00  0.46873320781E+00  0.25500000000E-02 0. -1.
         31    1    1    2    0    0  0.53151851029E+00 -0.39344914299E+00  0.63201819735E+02  0.63642487837E+02  0.74470750000E+01 0. -1.
        -31    1    1    2    0    0 -0.53151851029E+00  0.39344914299E+00  0.56008858002E+02  0.56505649407E+02  0.74470750000E+01 0.  1.
<mgrwt>
<rscale>  0 0.14979626E+02</rscale>
<asrwt>0</asrwt>
<pdfrwt beam="2">  1        2 0.99552476E+00 0.14979626E+02</pdfrwt>
<pdfrwt beam="1">  1       -2 0.99346886E+00 0.14979626E+02</pdfrwt>
<totfact>-0.10471393E-13</totfact>
</mgrwt>
</event>
<event>
 4    1  0.5167034E-019  0.1491718E+02  0.7818608E-02  0.1870606E+00
          2   -1    0    0  501    0  0.00000000000E+00  0.00000000000E+00  0.11984716484E+03  0.11984716487E+03  0.25500000000E-02 0. -1.
         -2   -1    0    0    0  501 -0.00000000000E+00 -0.00000000000E+00 -0.46417583810E+00  0.46418284240E+00  0.25500000000E-02 0.  1.
         31    1    1    2    0    0  0.99833359566E-01  0.40207872341E+00  0.59728550299E+02  0.60192443719E+02  0.74470750000E+01 0. -1.
        -31    1    1    2    0    0 -0.99833359566E-01 -0.40207872341E+00  0.59654438705E+02  0.60118903993E+02  0.74470750000E+01 0. -1.
<mgrwt>
<rscale>  0 0.14917182E+02</rscale>
<asrwt>0</asrwt>
<pdfrwt beam="1">  1        2 0.99481840E+00 0.14917182E+02</pdfrwt>
<pdfrwt beam="2">  1       -2 0.98590294E+00 0.14917182E+02</pdfrwt>
<totfact> 0.37509171E-13</totfact>
</mgrwt>
</event>
<event>
 4    1  0.5167034E-019  0.1491576E+02  0.7818608E-02  0.1870650E+00
          2   -1    0    0  501    0  0.00000000000E+00  0.00000000000E+00  0.11985035551E+03  0.11985035554E+03  0.25500000000E-02 0.  1.
         -2   -1    0    0    0  501 -0.00000000000E+00 -0.00000000000E+00 -0.46407470385E+00  0.46408170967E+00  0.25500000000E-02 0. -1.
         31    1    1    2    0    0  0.39101223468E+00  0.59006101563E-01  0.60242770962E+02  0.60702609100E+02  0.74470750000E+01 0. -1.
        -31    1    1    2    0    0 -0.39101223468E+00 -0.59006101563E-01  0.59143509846E+02  0.59611828149E+02  0.74470750000E+01 0. -1.
<mgrwt>
<rscale>  0 0.14915756E+02</rscale>
<asrwt>0</asrwt>
<pdfrwt beam="1">  1        2 0.99484395E+00 0.14915756E+02</pdfrwt>
<pdfrwt beam="2">  1       -2 0.98568907E+00 0.14915756E+02</pdfrwt>
<totfact> 0.40085997E-13</totfact>
</mgrwt>
</event>
<event>
 4    1 -0.5167034E-019  0.1489622E+02  0.7818608E-02  0.1871252E+00
         -2   -1    0    0    0  501 -0.00000000000E+00  0.00000000000E+00  0.11974599805E+03  0.11974599808E+03  0.25500000000E-02 0. -1.
          2   -1    0    0  501    0  0.00000000000E+00 -0.00000000000E+00 -0.46326299674E+00  0.46327001483E+00  0.25500000000E-02 0.  1.
         31    1    1    2    0    0  0.40406901412E-01  0.75619092423E-01  0.58917946712E+02  0.59386789118E+02  0.74470750000E+01 0.  1.
        -31    1    1    2    0    0 -0.40406901412E-01 -0.75619092423E-01  0.60364788340E+02  0.60822478973E+02  0.74470750000E+01 0. -1.
<mgrwt>
<rscale>  0 0.14896216E+02</rscale>
<asrwt>0</asrwt>
<pdfrwt beam="2">  1        2 0.98396837E+00 0.14896216E+02</pdfrwt>
<pdfrwt beam="1">  1       -2 0.99397433E+00 0.14896216E+02</pdfrwt>
<totfact>-0.40205949E-13</totfact>
</mgrwt>
</event>
<event>
 4    1  0.5167034E-019  0.1493405E+02  0.7818608E-02  0.1870088E+00
          2   -1    0    0  501    0  0.00000000000E+00  0.00000000000E+00  0.12025972346E+03  0.12025972349E+03  0.25500000000E-02 0. -1.
         -2   -1    0    0    0  501 -0.00000000000E+00 -0.00000000000E+00 -0.46363019314E+00  0.46363720568E+00  0.25500000000E-02 0.  1.
         31    1    1    2    0    0  0.25997605471E+00  0.69540062472E-02  0.63774056460E+02  0.64207918821E+02  0.74470750000E+01 0. -1.
        -31    1    1    2    0    0 -0.25997605471E+00 -0.69540062472E-02  0.56022036806E+02  0.56515441871E+02  0.74470750000E+01 0.  1.
<mgrwt>
<rscale>  0 0.14934050E+02</rscale>
<asrwt>0</asrwt>
<pdfrwt beam="1">  1        2 0.99822521E+00 0.14934050E+02</pdfrwt>
<pdfrwt beam="2">  1       -2 0.98476150E+00 0.14934050E+02</pdfrwt>
<totfact> 0.25885553E-13</totfact>
</mgrwt>
</event>
<event>
 4    1 -0.5167034E-019  0.1498560E+02  0.7818608E-02  0.1868508E+00
          2   -1    0    0  501    0  0.00000000000E+00  0.00000000000E+00  0.11989093027E+03  0.11989093030E+03  0.25500000000E-02 0.  1.
         -2   -1    0    0    0  501 -0.00000000000E+00 -0.00000000000E+00 -0.46827257396E+00  0.46827951698E+00  0.25500000000E-02 0. -1.
         31    1    1    2    0    0  0.51586356381E-01 -0.38403943575E+00  0.65574881559E+02  0.65997531507E+02  0.74470750000E+01 0.  1.
        -31    1    1    2    0    0 -0.51586356381E-01  0.38403943575E+00  0.53847776137E+02  0.54361678308E+02  0.74470750000E+01 0. -1.
<mgrwt>
<rscale>  0 0.14985600E+02</rscale>
<asrwt>0</asrwt>
<pdfrwt beam="1">  1        2 0.99521416E+00 0.14985600E+02</pdfrwt>
<pdfrwt beam="2">  1       -2 0.99457177E+00 0.14985600E+02</pdfrwt>
<totfact>-0.11673392E-13</totfact>
</mgrwt>
</event>
<event>
 4    1  0.5167034E-019  0.1489614E+02  0.7818608E-02  0.1871254E+00
         -2   -1    0    0    0  501 -0.00000000000E+00  0.00000000000E+00  0.11797620266E+03  0.11797620269E+03  0.25500000000E-02 0. -1.
          2   -1    0    0  501    0  0.00000000000E+00 -0.00000000000E+00 -0.47020805597E+00  0.47021497042E+00  0.25500000000E-02 0.  1.
         31    1    1    2    0    0  0.10333282284E+00 -0.85559537221E-02  0.59261836316E+02  0.59728007839E+02  0.74470750000E+01 0. -1.
        -31    1    1    2    0    0 -0.10333282284E+00  0.85559537221E-02  0.58244158292E+02  0.58718409823E+02  0.74470750000E+01 0.  1.
<mgrwt>
<rscale>  0 0.14896143E+02</rscale>
<asrwt>0</asrwt>
<pdfrwt beam="2">  1        2 0.99860313E+00 0.14896143E+02</pdfrwt>
<pdfrwt beam="1">  1       -2 0.97939785E+00 0.14896143E+02</pdfrwt>
<totfact> 0.64064933E-13</totfact>
</mgrwt>
</event>
<event>
 4    1 -0.5167034E-019  0.1493526E+02  0.7818608E-02  0.1870050E+00
          2   -1    0    0  501    0  0.00000000000E+00  0.00000000000E+00  0.11869637445E+03  0.11869637447E+03  0.25500000000E-02 0. -1.
         -2   -1    0    0    0  501 -0.00000000000E+00 -0.00000000000E+00 -0.46981306408E+00  0.46981998434E+00  0.25500000000E-02 0.  1.
         31    1    1    2    0    0 -0.47711759420E+00  0.24473394609E+00  0.58011755199E+02  0.58490257336E+02  0.74470750000E+01 0. -1.
        -31    1    1    2    0    0  0.47711759420E+00 -0.24473394609E+00  0.60214806184E+02  0.60675937123E+02  0.74470750000E+01 0.  1.
<mgrwt>
<rscale>  0 0.14935263E+02</rscale>
<asrwt>0</asrwt>
<pdfrwt beam="1">  1        2 0.98534947E+00 0.14935263E+02</pdfrwt>
<pdfrwt beam="2">  1       -2 0.99779162E+00 0.14935263E+02</pdfrwt>
<totfact>-0.21091956E-13</totfact>
</mgrwt>
</event>
<event>
 4    1  0.5167034E-019  0.1492162E+02  0.7818608E-02  0.1870470E+00
          2   -1    0    0  501    0  0.00000000000E+00  0.00000000000E+00  0.12028315250E+03  0.12028315252E+03  0.25500000000E-02 0.  1.
         -2   -1    0    0    0  501 -0.00000000000E+00 -0.00000000000E+00 -0.46276841270E+00  0.46277543830E+00  0.25500000000E-02 0. -1.
         31    1    1    2    0    0  0.33874544425E+00  0.28537974382E+00  0.60658570397E+02  0.61115605852E+02  0.74470750000E+01 0. -1.
        -31    1    1    2    0    0 -0.33874544425E+00 -0.28537974382E+00  0.59161813686E+02  0.59630322108E+02  0.74470750000E+01 0. -1.
<mgrwt>
<rscale>  0 0.14921618E+02</rscale>
<asrwt>0</asrwt>
<pdfrwt beam="1">  1        2 0.99841181E+00 0.14921618E+02</pdfrwt>
<pdfrwt beam="2">  1       -2 0.98293884E+00 0.14921618E+02</pdfrwt>
<totfact> 0.36843903E-13</totfact>
</mgrwt>
</event>
<event>
 4    1 -0.5167034E-019  0.1492776E+02  0.7818608E-02  0.1870281E+00
         -2   -1    0    0    0  501 -0.00000000000E+00  0.00000000000E+00  0.11984639187E+03  0.11984639190E+03  0.25500000000E-02 0.  1.
          2   -1    0    0  501    0  0.00000000000E+00 -0.00000000000E+00 -0.46483735097E+00  0.46484434530E+00  0.25500000000E-02 0. -1.
         31    1    1    2    0    0  0.40529463913E+00 -0.25216273121E+00  0.60905764488E+02  0.61361216772E+02  0.74470750000E+01 0.  1.
        -31    1    1    2    0    0 -0.40529463913E+00  0.25216273121E+00  0.58475790035E+02  0.58950019475E+02  0.74470750000E+01 0. -1.
<mgrwt>
<rscale>  0 0.14927760E+02</rscale>
<asrwt>0</asrwt>
<pdfrwt beam="2">  1        2 0.98730251E+00 0.14927760E+02</pdfrwt>
<pdfrwt beam="1">  1       -2 0.99481748E+00 0.14927760E+02</pdfrwt>
<totfact>-0.24549877E-13</totfact>
</mgrwt>
</event>
<event>
 4    1  0.5167034E-019  0.1491539E+02  0.7818608E-02  0.1870661E+00
          2   -1    0    0  501    0  0.00000000000E+00  0.00000000000E+00  0.11997716933E+03  0.11997716936E+03  0.25500000000E-02 0.  1.
         -2   -1    0    0    0  501 -0.00000000000E+00 -0.00000000000E+00 -0.46356153691E+00  0.46356855049E+00  0.25500000000E-02 0. -1.
         31    1    1    2    0    0  0.57673935273E-01 -0.24551703396E+00  0.57271954333E+02  0.57754647294E+02  0.74470750000E+01 0. -1.
        -31    1    1    2    0    0 -0.57673935273E-01  0.24551703396E+00  0.62241653464E+02  0.62686090618E+02  0.74470750000E+01 0.  1.
<mgrwt>
<rscale>  0 0.14915391E+02</rscale>
<asrwt>0</asrwt>
<pdfrwt beam="1">  1        2 0.99588829E+00 0.14915391E+02</pdfrwt>
<pdfrwt beam="2">  1       -2 0.98460733E+00 0.14915391E+02</pdfrwt>
<totfact> 0.48551209E-13</totfact>
</mgrwt>
</event>
<event>
 4    1 -0.5167034E-019  0.1496377E+02  0.7818608E-02  0.1869176E+00
         -2   -1    0    0    0  501 -0.00000000000E+00  0.00000000000E+00  0.11999274067E+03  0.11999274070E+03  0.25500000000E-02 0. -1.
          2   -1    0    0  501    0  0.00000000000E+00 -0.00000000000E+00 -0.46651318683E+00  0.46652015603E+00  0.25500000000E-02 0.  1.
         31    1    1    2    0    0  0.46826715719E+00 -0.53949399033E+00  0.60542070117E+02  0.61002553291E+02  0.74470750000E+01 0.  1.
        -31    1    1    2    0    0 -0.46826715719E+00  0.53949399033E+00  0.58984157370E+02  0.59456707566E+02  0.74470750000E+01 0.  1.
<mgrwt>
<rscale>  0 0.14963772E+02</rscale>
<asrwt>0</asrwt>
<pdfrwt beam="2">  1        2 0.99085277E+00 0.14963772E+02</pdfrwt>
<pdfrwt beam="1">  1       -2 0.99604145E+00 0.14963772E+02</pdfrwt>
<totfact>-0.15459838E-13</totfact>
</mgrwt>
</event>
<event>
 4    1  0.5167034E-019  0.1490019E+02  0.7818608E-02  0.1871129E+00
          2   -1    0    0  501    0  0.00000000000E+00  0.00000000000E+00  0.11934537790E+03  0.11934537793E+03  0.25500000000E-02 0. -1.
         -2   -1    0    0    0  501 -0.00000000000E+00 -0.00000000000E+00 -0.46506639051E+00  0.46507338140E+00  0.25500000000E-02 0.  1.
         31    1    1    2    0    0  0.12572865069E-01  0.19482816679E+00  0.58772115186E+02  0.59242371370E+02  0.74470750000E+01 0.  1.
        -31    1    1    2    0    0 -0.12572865069E-01 -0.19482816679E+00  0.60108196325E+02  0.60568079939E+02  0.74470750000E+01 0.  1.
<mgrwt>
<rscale>  0 0.14900194E+02</rscale>
<asrwt>0</asrwt>
<pdfrwt beam="1">  1        2 0.99067664E+00 0.14900194E+02</pdfrwt>
<pdfrwt beam="2">  1       -2 0.98777107E+00 0.14900194E+02</pdfrwt>
<totfact> 0.24154051E-13</totfact>
</mgrwt>
</event>
<event>
 4    1  0.5167034E-019  0.1494886E+02  0.7818608E-02  0.1869633E+00
          2   -1    0    0  501    0  0.00000000000E+00  0.00000000000E+00  0.12026216075E+03  0.12026216078E+03  0.25500000000E-02 0. -1.
         -2   -1    0    0    0  501 -0.00000000000E+00 -0.00000000000E+00 -0.46454101618E+00  0.46454801497E+00  0.25500000000E-02 0.  1.
         31    1    1    2    0    0 -0.48767313773E+00  0.24367388868E+00  0.62589485130E+02  0.63033322750E+02  0.74470750000E+01 0.  1.
        -31    1    1    2    0    0  0.48767313773E+00 -0.24367388868E+00  0.57208134608E+02  0.57693386046E+02  0.74470750000E+01 0. -1.
<mgrwt>
<rscale>  0 0.14948864E+02</rscale>
<asrwt>0</asrwt>
<pdfrwt beam="1">  1        2 0.99825290E+00 0.14948864E+02</pdfrwt>
<pdfrwt beam="2">  1       -2 0.98668871E+00 0.14948864E+02</pdfrwt>
<totfact> 0.13740729E-13</totfact>
</mgrwt>
</event>
<event>
 4    1  0.5167034E-019  0.1491142E+02  0.7818608E-02  0.1870783E+00
          2   -1    0    0  501    0  0.00000000000E+00  0.00000000000E+00  0.11985566112E+03  0.11985566115E+03  0.25500000000E-02 0. -1.
         -2   -1    0    0    0  501 -0.00000000000E+00 -0.00000000000E+00 -0.46378472452E+00  0.46379173473E+00  0.25500000000E-02 0.  1.
         31    1    1    2    0    0  0.18666811101E+00 -0.30016876667E+00  0.60191755788E+02  0.60651721634E+02  0.74470750000E+01 0. -1.
        -31    1    1    2    0    0 -0.18666811101E+00  0.30016876667E+00  0.59200120611E+02  0.59667731252E+02  0.74470750000E+01 0.  1.
<mgrwt>
<rscale>  0 0.14911425E+02</rscale>
<asrwt>0</asrwt>
<pdfrwt beam="1">  1        2 0.99488542E+00 0.14911425E+02</pdfrwt>
<pdfrwt beam="2">  1       -2 0.98507571E+00 0.14911425E+02</pdfrwt>
<totfact> 0.48002635E-13</totfact>
</mgrwt>
</event>
<event>
 4    1  0.5167034E-019  0.1494744E+02  0.7818608E-02  0.1869677E+00
          2   -1    0    0  501    0  0.00000000000E+00  0.00000000000E+00  0.12023693463E+03  0.12023693466E+03  0.25500000000E-02 0.  1.
         -2   -1    0    0    0  501 -0.00000000000E+00 -0.00000000000E+00 -0.46454973838E+00  0.46455673704E+00  0.25500000000E-02 0. -1.
         31    1    1    2    0    0 -0.32591648603E+00 -0.16266117890E+00  0.64041942497E+02  0.64474506629E+02  0.74470750000E+01 0.  1.
        -31    1    1    2    0    0  0.32591648603E+00  0.16266117890E+00  0.55730442398E+02  0.56226984769E+02  0.74470750000E+01 0. -1.
<mgrwt>
<rscale>  0 0.14947436E+02</rscale>
<asrwt>0</asrwt>
<pdfrwt beam="1">  1        2 0.99804438E+00 0.14947436E+02</pdfrwt>
<pdfrwt beam="2">  1       -2 0.98670637E+00 0.14947436E+02</pdfrwt>
<totfact> 0.14927222E-13</totfact>
</mgrwt>
</event>
<event>
 4    1  0.5167034E-019  0.1494422E+02  0.7818608E-02  0.1869775E+00
         -2   -1    0    0    0  501 -0.00000000000E+00  0.00000000000E+00  0.11883698873E+03  0.11883698876E+03  0.25500000000E-02 0. -1.
          2   -1    0    0  501    0  0.00000000000E+00 -0.00000000000E+00 -0.46982007980E+00  0.46982699995E+00  0.25500000000E-02 0.  1.
         31    1    1    2    0    0 -0.30298518195E+00  0.17659302352E+00  0.55187802190E+02  0.55689096075E+02  0.74470750000E+01 0. -1.
        -31    1    1    2    0    0  0.30298518195E+00 -0.17659302352E+00  0.63179366464E+02  0.63617719685E+02  0.74470750000E+01 0. -1.
<mgrwt>
<rscale>  0 0.14944219E+02</rscale>
<asrwt>0</asrwt>
<pdfrwt beam="2">  1        2 0.99781112E+00 0.14944219E+02</pdfrwt>
<pdfrwt beam="1">  1       -2 0.98651223E+00 0.14944219E+02</pdfrwt>
<totfact> 0.17528573E-13</totfact>
</mgrwt>
</event>
<event>
 4    1 -0.5167034E-019  0.1493951E+02  0.7818608E-02  0.1869920E+00
         -2   -1    0    0    0  501 -0.00000000000E+00  0.00000000000E+00  0.11980503436E+03  0.11980503439E+03  0.25500000000E-02 0.  1.
          2   -1    0    0  501    0  0.00000000000E+00 -0.00000000000E+00 -0.46573042257E+00  0.46573740349E+00  0.25500000000E-02 0. -1.
         31    1    1    2    0    0  0.56153018948E+00 -0.67083821025E-01  0.60765476388E+02  0.61222723422E+02  0.74470750000E+01 0.  1.
        -31    1    1    2    0    0 -0.56153018948E+00  0.67083821025E-01  0.58573827550E+02  0.59048048370E+02  0.74470750000E+01 0.  1.
<mgrwt>
<rscale>  0 0.14939514E+02</rscale>
<asrwt>0</asrwt>
<pdfrwt beam="2">  1        2 0.98919068E+00 0.14939514E+02</pdfrwt>
<pdfrwt beam="1">  1       -2 0.99448289E+00 0.14939514E+02</pdfrwt>
<totfact>-0.19384497E-13</totfact>
</mgrwt>
</event>
<event>
 4    1 -0.5167034E-019  0.1491318E+02  0.7818608E-02  0.1870729E+00
          2   -1    0    0  501    0  0.00000000000E+00  0.00000000000E+00  0.11887252782E+03  0.11887252784E+03  0.25500000000E-02 0.  1.
         -2   -1    0    0    0  501 -0.00000000000E+00 -0.00000000000E+00 -0.46773070969E+00  0.46773766075E+00  0.25500000000E-02 0. -1.
         31    1    1    2    0    0 -0.28554021844E+00 -0.16324062096E+00  0.60670154662E+02  0.61126383612E+02  0.74470750000E+01 0.  1.
        -31    1    1    2    0    0  0.28554021844E+00  0.16324062096E+00  0.57734642444E+02  0.58213881892E+02  0.74470750000E+01 0. -1.
<mgrwt>
<rscale>  0 0.14913182E+02</rscale>
<asrwt>0</asrwt>
<pdfrwt beam="1">  1        2 0.98678881E+00 0.14913182E+02</pdfrwt>
<pdfrwt beam="2">  1       -2 0.99339231E+00 0.14913182E+02</pdfrwt>
<totfact>-0.24299106E-13</totfact>
</mgrwt>
</event>
<event>
 4    1  0.5167034E-019  0.1494785E+02  0.7818608E-02  0.1869664E+00
         -2   -1    0    0    0  501 -0.00000000000E+00  0.00000000000E+00  0.11894168796E+03  0.11894168799E+03  0.25500000000E-02 0.  1.
          2   -1    0    0  501    0  0.00000000000E+00 -0.00000000000E+00 -0.46963448779E+00  0.46964141068E+00  0.25500000000E-02 0. -1.
         31    1    1    2    0    0  0.56176486497E+00  0.24119733372E+00  0.60545066251E+02  0.61004407458E+02  0.74470750000E+01 0.  1.
        -31    1    1    2    0    0 -0.56176486497E+00 -0.24119733372E+00  0.57926987222E+02  0.58406921941E+02  0.74470750000E+01 0. -1.
<mgrwt>
<rscale>  0 0.14947847E+02</rscale>
<asrwt>0</asrwt>
<pdfrwt beam="2">  1        2 0.99742197E+00 0.14947847E+02</pdfrwt>
<pdfrwt beam="1">  1       -2 0.98737642E+00 0.14947847E+02</pdfrwt>
<totfact> 0.13839525E-13</totfact>
</mgrwt>
</event>
<event>
 4    1 -0.5167034E-019  0.1498821E+02  0.7818608E-02  0.1868428E+00
         -2   -1    0    0    0  501 -0.00000000000E+00  0.00000000000E+00  0.12026562865E+03  0.12026562867E+03  0.25500000000E-02 0.  1.
          2   -1    0    0  501    0  0.00000000000E+00 -0.00000000000E+00 -0.46697648930E+00  0.46698345159E+00  0.25500000000E-02 0. -1.
         31    1    1    2    0    0 -0.37622086808E+00  0.66142535013E+00  0.57066341329E+02  0.57555236637E+02  0.74470750000E+01 0.  1.
        -31    1    1    2    0    0  0.37622086808E+00 -0.66142535013E+00  0.62732310827E+02  0.63177375487E+02  0.74470750000E+01 0.  1.
<mgrwt>
<rscale>  0 0.14988214E+02</rscale>
<asrwt>0</asrwt>
<pdfrwt beam="2">  1        2 0.99184170E+00 0.14988214E+02</pdfrwt>
<pdfrwt beam="1">  1       -2 0.99830171E+00 0.14988214E+02</pdfrwt>
<totfact>-0.79562271E-14</totfact>
</mgrwt>
</event>
<event>
 4    1 -0.5167034E-019  0.1496092E+02  0.7818608E-02  0.1869263E+00
         -2   -1    0    0    0  501 -0.00000000000E+00  0.00000000000E+00  0.11955857660E+03  0.11955857663E+03  0.25500000000E-02 0. -1.
          2   -1    0    0  501    0  0.00000000000E+00 -0.00000000000E+00 -0.46802909702E+00  0.46803604366E+00  0.25500000000E-02 0.  1.
         31    1    1    2    0    0  0.18892310031E+00  0.61554497401E+00  0.61867662002E+02  0.62317582713E+02  0.74470750000E+01 0. -1.
        -31    1    1    2    0    0 -0.18892310031E+00 -0.61554497401E+00  0.57222885501E+02  0.57709029957E+02  0.74470750000E+01 0.  1.
<mgrwt>
<rscale>  0 0.14960924E+02</rscale>
<asrwt>0</asrwt>
<pdfrwt beam="2">  1        2 0.99404592E+00 0.14960924E+02</pdfrwt>
<pdfrwt beam="1">  1       -2 0.99246401E+00 0.14960924E+02</pdfrwt>
<totfact>-0.10006085E-13</totfact>
</mgrwt>
</event>
<event>
 4    1 -0.5167034E-019  0.1495681E+02  0.7818608E-02  0.1869389E+00
          2   -1    0    0  501    0  0.00000000000E+00  0.00000000000E+00  0.11941842499E+03  0.11941842502E+03  0.25500000000E-02 0.  1.
         -2   -1    0    0    0  501 -0.00000000000E+00 -0.00000000000E+00 -0.46832049660E+00  0.46832743891E+00  0.25500000000E-02 0. -1.
         31    1    1    2    0    0 -0.24972206736E+00 -0.33426237435E-01  0.64570493492E+02  0.64999007948E+02  0.74470750000E+01 0.  1.
        -31    1    1    2    0    0  0.24972206736E+00  0.33426237435E-01  0.54379611002E+02  0.54887744508E+02  0.74470750000E+01 0. -1.
<mgrwt>
<rscale>  0 0.14956806E+02</rscale>
<asrwt>0</asrwt>
<pdfrwt beam="1">  1        2 0.99130755E+00 0.14956806E+02</pdfrwt>
<pdfrwt beam="2">  1       -2 0.99465784E+00 0.14956806E+02</pdfrwt>
<totfact>-0.15984988E-13</totfact>
</mgrwt>
</event>
<event>
 4    1 -0.5167034E-019  0.1500684E+02  0.7818608E-02  0.1867860E+00
          2   -1    0    0  501    0  0.00000000000E+00  0.00000000000E+00  0.12010095810E+03  0.12010095813E+03  0.25500000000E-02 0.  1.
         -2   -1    0    0    0  501 -0.00000000000E+00 -0.00000000000E+00 -0.46877967646E+00  0.46878661197E+00  0.25500000000E-02 0. -1.
         31    1    1    2    0    0  0.73249352732E+00 -0.16015923007E+00  0.64068849819E+02  0.64504562946E+02  0.74470750000E+01 0.  1.
        -31    1    1    2    0    0 -0.73249352732E+00  0.16015923007E+00  0.55563328604E+02  0.56065181792E+02  0.74470750000E+01 0. -1.
<mgrwt>
<rscale>  0 0.15006840E+02</rscale>
<asrwt>0</asrwt>
<pdfrwt beam="1">  1        2 0.99695501E+00 0.15006840E+02</pdfrwt>
<pdfrwt beam="2">  1       -2 0.99565138E+00 0.15006840E+02</pdfrwt>
<totfact>-0.86171545E-14</totfact>
</mgrwt>
</event>
<event>
 4    1 -0.5167034E-019  0.1492556E+02  0.7818608E-02  0.1870349E+00
         -2   -1    0    0    0  501 -0.00000000000E+00  0.00000000000E+00  0.11986945658E+03  0.11986945660E+03  0.25500000000E-02 0.  1.
          2   -1    0    0  501    0  0.00000000000E+00 -0.00000000000E+00 -0.46461108368E+00  0.46461808142E+00  0.25500000000E-02 0. -1.
         31    1    1    2    0    0  0.42017691633E+00 -0.11313503467E+00  0.61409391594E+02  0.61860824842E+02  0.74470750000E+01 0.  1.
        -31    1    1    2    0    0 -0.42017691633E+00  0.11313503467E+00  0.57995453898E+02  0.58473249842E+02  0.74470750000E+01 0. -1.
<mgrwt>
<rscale>  0 0.14925562E+02</rscale>
<asrwt>0</asrwt>
<pdfrwt beam="2">  1        2 0.98682452E+00 0.14925562E+02</pdfrwt>
<pdfrwt beam="1">  1       -2 0.99500632E+00 0.14925562E+02</pdfrwt>
<totfact>-0.26197166E-13</totfact>
</mgrwt>
</event>
<event>
 4    1  0.5167034E-019  0.1492386E+02  0.7818608E-02  0.1870401E+00
         -2   -1    0    0    0  501 -0.00000000000E+00  0.00000000000E+00  0.11913327637E+03  0.11913327640E+03  0.25500000000E-02 0.  1.
          2   -1    0    0  501    0  0.00000000000E+00 -0.00000000000E+00 -0.46737531732E+00  0.46738227367E+00  0.25500000000E-02 0. -1.
         31    1    1    2    0    0  0.59566194217E-01 -0.81331970463E-02  0.63073294130E+02  0.63511439700E+02  0.74470750000E+01 0.  1.
        -31    1    1    2    0    0 -0.59566194217E-01  0.81331970463E-02  0.55592606927E+02  0.56089218976E+02  0.74470750000E+01 0. -1.
<mgrwt>
<rscale>  0 0.14923856E+02</rscale>
<asrwt>0</asrwt>
<pdfrwt beam="2">  1        2 0.99264898E+00 0.14923856E+02</pdfrwt>
<pdfrwt beam="1">  1       -2 0.98894193E+00 0.14923856E+02</pdfrwt>
<totfact> 0.92762104E-14</totfact>
</mgrwt>
</event>
<event>
 4    1 -0.5167034E-019  0.1495246E+02  0.7818608E-02  0.1869523E+00
          2   -1    0    0  501    0  0.00000000000E+00  0.00000000000E+00  0.11934674229E+03  0.11934674232E+03  0.25500000000E-02 0. -1.
         -2   -1    0    0    0  501 -0.00000000000E+00 -0.00000000000E+00 -0.46832969732E+00  0.46833663950E+00  0.25500000000E-02 0.  1.
         31    1    1    2    0    0 -0.61947732759E+00 -0.93129143482E-01  0.61094829917E+02  0.61550220096E+02  0.74470750000E+01 0.  1.
        -31    1    1    2    0    0  0.61947732759E+00  0.93129143482E-01  0.57783582678E+02  0.58264858864E+02  0.74470750000E+01 0.  1.
<mgrwt>
<rscale>  0 0.14952464E+02</rscale>
<asrwt>0</asrwt>
<pdfrwt beam="1">  1        2 0.99071490E+00 0.14952464E+02</pdfrwt>
<pdfrwt beam="2">  1       -2 0.99467497E+00 0.14952464E+02</pdfrwt>
<totfact>-0.16781000E-13</totfact>
</mgrwt>
</event>
<event>
 4    1 -0.5167034E-019  0.1489790E+02  0.7818608E-02  0.1871200E+00
         -2   -1    0    0    0  501 -0.00000000000E+00  0.00000000000E+00  0.11979757439E+03  0.11979757441E+03  0.25500000000E-02 0.  1.
          2   -1    0    0  501    0  0.00000000000E+00 -0.00000000000E+00 -0.46316812370E+00  0.46317514324E+00  0.25500000000E-02 0. -1.
         31    1    1    2    0    0  0.13192957046E+00 -0.87535957320E-02  0.58842663758E+02  0.59312186658E+02  0.74470750000E+01 0. -1.
        -31    1    1    2    0    0 -0.13192957046E+00  0.87535957320E-02  0.60491742505E+02  0.60948562898E+02  0.74470750000E+01 0.  1.
<mgrwt>
<rscale>  0 0.14897898E+02</rscale>
<asrwt>0</asrwt>
<pdfrwt beam="2">  1        2 0.98376928E+00 0.14897898E+02</pdfrwt>
<pdfrwt beam="1">  1       -2 0.99440002E+00 0.14897898E+02</pdfrwt>
<totfact>-0.42440360E-13</totfact>
</mgrwt>
</event>
<event>
 4    1 -0.5167034E-019  0.1494687E+02  0.7818608E-02  0.1869694E+00
         -2   -1    0    0    0  501 -0.00000000000E+00  0.00000000000E+00  0.12045381908E+03  0.12045381911E+03  0.25500000000E-02 0. -1.
          2   -1    0    0  501    0  0.00000000000E+00 -0.00000000000E+00 -0.46367809011E+00  0.46368510192E+00  0.25500000000E-02 0.  1.
         31    1    1    2    0    0 -0.26539153205E+00  0.41138676596E+00  0.56824267566E+02  0.57312267292E+02  0.74470750000E+01 0.  1.
        -31    1    1    2    0    0  0.26539153205E+00 -0.41138676596E+00  0.63165873424E+02  0.63605236916E+02  0.74470750000E+01 0. -1.
<mgrwt>
<rscale>  0 0.14946869E+02</rscale>
<asrwt>0</asrwt>
<pdfrwt beam="2">  1        2 0.98486894E+00 0.14946869E+02</pdfrwt>
<pdfrwt beam="1">  1       -2 0.99983053E+00 0.14946869E+02</pdfrwt>
<totfact>-0.20828370E-14</totfact>
</mgrwt>
</event>
<event>
 4    1 -0.5167034E-019  0.1498938E+02  0.7818608E-02  0.1868393E+00
          2   -1    0    0  501    0  0.00000000000E+00  0.00000000000E+00  0.11963598571E+03  0.11963598574E+03  0.25500000000E-02 0.  1.
         -2   -1    0    0    0  501 -0.00000000000E+00 -0.00000000000E+00 -0.46950742599E+00  0.46951435075E+00  0.25500000000E-02 0. -1.
         31    1    1    2    0    0  0.61682926991E+00  0.62227541434E-01  0.64166089599E+02  0.64599770364E+02  0.74470750000E+01 0. -1.
        -31    1    1    2    0    0 -0.61682926991E+00 -0.62227541434E-01  0.55000388687E+02  0.55505729726E+02  0.74470750000E+01 0. -1.
<mgrwt>
<rscale>  0 0.14989383E+02</rscale>
<asrwt>0</asrwt>
<pdfrwt beam="1">  1        2 0.99311631E+00 0.14989383E+02</pdfrwt>
<pdfrwt beam="2">  1       -2 0.99717593E+00 0.14989383E+02</pdfrwt>
<totfact>-0.10750334E-13</totfact>
</mgrwt>
</event>
<event>
 4    1  0.5167034E-019  0.1490175E+02  0.7818608E-02  0.1871081E+00
         -2   -1    0    0    0  501 -0.00000000000E+00  0.00000000000E+00  0.11806229701E+03  0.11806229704E+03  0.25500000000E-02 0. -1.
          2   -1    0    0  501    0  0.00000000000E+00 -0.00000000000E+00 -0.47021900896E+00  0.47022592324E+00  0.25500000000E-02 0.  1.
         31    1    1    2    0    0 -0.21964618214E+00  0.48392604847E-01  0.58178090780E+02  0.58653216103E+02  0.74470750000E+01 0.  1.
        -31    1    1    2    0    0  0.21964618214E+00 -0.48392604847E-01  0.59413987224E+02  0.59879306861E+02  0.74470750000E+01 0. -1.
<mgrwt>
<rscale>  0 0.14901751E+02</rscale>
<asrwt>0</asrwt>
<pdfrwt beam="2">  1        2 0.99862919E+00 0.14901751E+02</pdfrwt>
<pdfrwt beam="1">  1       -2 0.98010983E+00 0.14901751E+02</pdfrwt>
<totfact> 0.56042012E-13</totfact>
</mgrwt>
</event>
<event>
 4    1 -0.5167034E-019  0.1493859E+02  0.7818608E-02  0.1869948E+00
         -2   -1    0    0    0  501 -0.00000000000E+00  0.00000000000E+00  0.12036557400E+03  0.12036557403E+03  0.25500000000E-02 0.  1.
          2   -1    0    0  501    0  0.00000000000E+00 -0.00000000000E+00 -0.46350416534E+00  0.46351117979E+00  0.25500000000E-02 0. -1.
         31    1    1    2    0    0  0.42574217804E+00 -0.34687179581E+00  0.61348894734E+02  0.61801677870E+02  0.74470750000E+01 0.  1.
        -31    1    1    2    0    0 -0.42574217804E+00  0.34687179581E+00  0.58553175101E+02  0.59027407337E+02  0.74470750000E+01 0. -1.
<mgrwt>
<rscale>  0 0.14938590E+02</rscale>
<asrwt>0</asrwt>
<pdfrwt beam="2">  1        2 0.98449817E+00 0.14938590E+02</pdfrwt>
<pdfrwt beam="1">  1       -2 0.99909942E+00 0.14938590E+02</pdfrwt>
<totfact>-0.11121168E-13</totfact>
</mgrwt>
</event>
<event>
 4    1 -0.5167034E-019  0.1492320E+02  0.7818608E-02  0.1870421E+00
         -2   -1    0    0    0  501 -0.00000000000E+00  0.00000000000E+00  0.12010454832E+03  0.12010454835E+03  0.25500000000E-02 0. -1.
          2   -1    0    0  501    0  0.00000000000E+00 -0.00000000000E+00 -0.46355506030E+00  0.46356207398E+00  0.25500000000E-02 0.  1.
         31    1    1    2    0    0 -0.45625805615E+00  0.91474154846E-01  0.59865184525E+02  0.60328399475E+02  0.74470750000E+01 0. -1.
        -31    1    1    2    0    0  0.45625805615E+00 -0.91474154846E-01  0.59775808737E+02  0.60239710948E+02  0.74470750000E+01 0.  1.
<mgrwt>
<rscale>  0 0.14923203E+02</rscale>
<asrwt>0</asrwt>
<pdfrwt beam="2">  1        2 0.98459765E+00 0.14923203E+02</pdfrwt>
<pdfrwt beam="1">  1       -2 0.99694149E+00 0.14923203E+02</pdfrwt>
<totfact>-0.30061949E-13</totfact>
</mgrwt>
</event>
<event>
 4    1 -0.5167034E-019  0.1495241E+02  0.7818608E-02  0.1869524E+00
          2   -1    0    0  501    0  0.00000000000E+00  0.00000000000E+00  0.11935352013E+03  0.11935352015E+03  0.25500000000E-02 0. -1.
         -2   -1    0    0    0  501 -0.00000000000E+00 -0.00000000000E+00 -0.46829979822E+00  0.46830674084E+00  0.25500000000E-02 0.  1.
         31    1    1    2    0    0 -0.95479639020E-01 -0.25684393778E+00  0.64248304435E+02  0.64679043236E+02  0.74470750000E+01 0. -1.
        -31    1    1    2    0    0  0.95479639020E-01  0.25684393778E+00  0.54636915894E+02  0.55142783658E+02  0.74470750000E+01 0.  1.
<mgrwt>
<rscale>  0 0.14952411E+02</rscale>
<asrwt>0</asrwt>
<pdfrwt beam="1">  1        2 0.99077070E+00 0.14952411E+02</pdfrwt>
<pdfrwt beam="2">  1       -2 0.99461194E+00 0.14952411E+02</pdfrwt>
<totfact>-0.16692423E-13</totfact>
</mgrwt>
</event>
<event>
 4    1 -0.5167034E-019  0.1501808E+02  0.7818608E-02  0.1867517E+00
         -2   -1    0    0    0  501 -0.00000000000E+00  0.00000000000E+00  0.11977793283E+03  0.11977793286E+03  0.25500000000E-02 0.  1.
          2   -1    0    0  501    0  0.00000000000E+00 -0.00000000000E+00 -0.47074805163E+00  0.47075495814E+00  0.25500000000E-02 0. -1.
         31    1    1    2    0    0  0.40928034413E-01 -0.50873109499E+00  0.53118068367E+02  0.53639990637E+02  0.74470750000E+01 0.  1.
        -31    1    1    2    0    0 -0.40928034413E-01  0.50873109499E+00  0.66189116415E+02  0.66608697183E+02  0.74470750000E+01 0.  1.
<mgrwt>
<rscale>  0 0.15018075E+02</rscale>
<asrwt>0</asrwt>
<pdfrwt beam="2">  1        2 0.99980514E+00 0.15018075E+02</pdfrwt>
<pdfrwt beam="1">  1       -2 0.99430028E+00 0.15018075E+02</pdfrwt>
<totfact>-0.77439534E-15</totfact>
</mgrwt>
</event>
<event>
 4    1 -0.5167034E-019  0.1490384E+02  0.7818608E-02  0.1871017E+00
         -2   -1    0    0    0  501 -0.00000000000E+00  0.00000000000E+00  0.12029217581E+03  0.12029217584E+03  0.25500000000E-02 0.  1.
          2   -1    0    0  501    0  0.00000000000E+00 -0.00000000000E+00 -0.46163175543E+00  0.46163879832E+00  0.25500000000E-02 0. -1.
         31    1    1    2    0    0  0.11396744343E-01 -0.20555379747E+00  0.61314088124E+02  0.61765028218E+02  0.74470750000E+01 0.  1.
        -31    1    1    2    0    0 -0.11396744343E-01  0.20555379747E+00  0.58516455930E+02  0.58988786417E+02  0.74470750000E+01 0. -1.
<mgrwt>
<rscale>  0 0.14903840E+02</rscale>
<asrwt>0</asrwt>
<pdfrwt beam="2">  1        2 0.98053408E+00 0.14903840E+02</pdfrwt>
<pdfrwt beam="1">  1       -2 0.99847703E+00 0.14903840E+02</pdfrwt>
<totfact>-0.34686230E-13</totfact>
</mgrwt>
</event>
<event>
 4    1  0.5167034E-019  0.1492527E+02  0.7818608E-02  0.1870357E+00
         -2   -1    0    0    0  501 -0.00000000000E+00  0.00000000000E+00  0.11883013668E+03  0.11883013671E+03  0.25500000000E-02 0. -1.
          2   -1    0    0  501    0  0.00000000000E+00 -0.00000000000E+00 -0.46865649242E+00  0.46866342975E+00  0.25500000000E-02 0.  1.
         31    1    1    2    0    0 -0.60859801826E-01  0.36184830844E-01  0.55372552505E+02  0.55871133068E+02  0.74470750000E+01 0.  1.
        -31    1    1    2    0    0  0.60859801826E-01 -0.36184830844E-01  0.62988927687E+02  0.63427667074E+02  0.74470750000E+01 0. -1.
<mgrwt>
<rscale>  0 0.14925271E+02</rscale>
<asrwt>0</asrwt>
<pdfrwt beam="2">  1        2 0.99534939E+00 0.14925271E+02</pdfrwt>
<pdfrwt beam="1">  1       -2 0.98644595E+00 0.14925271E+02</pdfrwt>
<totfact> 0.29370426E-13</totfact>
</mgrwt>
</event>
<event>
 4    1  0.5167034E-019  0.1494881E+02  0.7818608E-02  0.1869635E+00
         -2   -1    0    0    0  501 -0.00000000000E+00  0.00000000000E+00  0.11885674259E+03  0.11885674262E+03  0.25500000000E-02 0.  1.
          2   -1    0    0  501    0  0.00000000000E+00 -0.00000000000E+00 -0.47003038007E+00  0.47003729712E+00  0.25500000000E-02 0. -1.
         31    1    1    2    0    0 -0.27536787564E+00 -0.48725537719E+00  0.61647499594E+02  0.62098199470E+02  0.74470750000E+01 0. -1.
        -31    1    1    2    0    0  0.27536787564E+00  0.48725537719E+00  0.56739212621E+02  0.57228580448E+02  0.74470750000E+01 0. -1.
<mgrwt>
<rscale>  0 0.14948805E+02</rscale>
<asrwt>0</asrwt>
<pdfrwt beam="2">  1        2 0.99825665E+00 0.14948805E+02</pdfrwt>
<pdfrwt beam="1">  1       -2 0.98667731E+00 0.14948805E+02</pdfrwt>
<totfact> 0.13777513E-13</totfact>
</mgrwt>
</event>
<event>
 4    1 -0.5167034E-019  0.1490475E+02  0.7818608E-02  0.1870989E+00
          2   -1    0    0  501    0  0.00000000000E+00  0.00000000000E+00  0.11833982681E+03  0.11833982684E+03  0.25500000000E-02 0.  1.
         -2   -1    0    0    0  501 -0.00000000000E+00 -0.00000000000E+00 -0.46930492812E+00  0.46931185587E+00  0.25500000000E-02 0. -1.
         31    1    1    2    0    0 -0.16299964140E+00 -0.21571797129E+00  0.59544833420E+02  0.60009326077E+02  0.74470750000E+01 0.  1.
        -31    1    1    2    0    0  0.16299964140E+00  0.21571797129E+00  0.58325688460E+02  0.58799812615E+02  0.74470750000E+01 0. -1.
<mgrwt>
<rscale>  0 0.14904748E+02</rscale>
<asrwt>0</asrwt>
<pdfrwt beam="1">  1        2 0.98239709E+00 0.14904748E+02</pdfrwt>
<pdfrwt beam="2">  1       -2 0.99670488E+00 0.14904748E+02</pdfrwt>
<totfact>-0.45525686E-13</totfact>
</mgrwt>
</event>
<event>
 4    1 -0.5167034E-019  0.1491360E+02  0.7818608E-02  0.1870717E+00
         -2   -1    0    0    0  501 -0.00000000000E+00  0.00000000000E+00  0.11954317393E+03  0.11954317396E+03  0.25500000000E-02 0.  1.
          2   -1    0    0  501    0  0.00000000000E+00 -0.00000000000E+00 -0.46513276406E+00  0.46513975394E+00  0.25500000000E-02 0. -1.
         31    1    1    2    0    0  0.28742658420E+00 -0.24953247034E+00  0.59475956690E+02  0.59941581817E+02  0.74470750000E+01 0.  1.
        -31    1    1    2    0    0 -0.28742658420E+00  0.24953247034E+00  0.59602084479E+02  0.60066731897E+02  0.74470750000E+01 0. -1.
<mgrwt>
<rscale>  0 0.14913600E+02</rscale>
<asrwt>0</asrwt>
<pdfrwt beam="2">  1        2 0.98791784E+00 0.14913600E+02</pdfrwt>
<pdfrwt beam="1">  1       -2 0.99231270E+00 0.14913600E+02</pdfrwt>
<totfact>-0.16611351E-13</totfact>
</mgrwt>
</event>
<event>
 4    1 -0.5167034E-019  0.1500150E+02  0.7818608E-02  0.1868023E+00
          2   -1    0    0  501    0  0.00000000000E+00  0.00000000000E+00  0.11981188220E+03  0.11981188222E+03  0.25500000000E-02 0. -1.
         -2   -1    0    0    0  501 -0.00000000000E+00 -0.00000000000E+00 -0.46957639099E+00  0.46958331473E+00  0.25500000000E-02 0.  1.
         31    1    1    2    0    0  0.95799570117E-01  0.84204045002E+00  0.61996549210E+02  0.62447972342E+02  0.74470750000E+01 0. -1.
        -31    1    1    2    0    0 -0.95799570117E-01 -0.84204045002E+00  0.57345756595E+02  0.57833493195E+02  0.74470750000E+01 0.  1.
<mgrwt>
<rscale>  0 0.15001500E+02</rscale>
<asrwt>0</asrwt>
<pdfrwt beam="1">  1        2 0.99457131E+00 0.15001500E+02</pdfrwt>
<pdfrwt beam="2">  1       -2 0.99732755E+00 0.15001500E+02</pdfrwt>
<totfact>-0.92130152E-14</totfact>
</mgrwt>
</event>
<event>
 4    1  0.5167034E-019  0.1493102E+02  0.7818608E-02  0.1870181E+00
         -2   -1    0    0    0  501 -0.00000000000E+00  0.00000000000E+00  0.11858868270E+03  0.11858868273E+03  0.25500000000E-02 0.  1.
          2   -1    0    0  501    0  0.00000000000E+00 -0.00000000000E+00 -0.46997226349E+00  0.46997918140E+00  0.25500000000E-02 0. -1.
         31    1    1    2    0    0  0.25265494685E+00  0.35021096625E+00  0.56688582693E+02  0.57177275346E+02  0.74470750000E+01 0. -1.
        -31    1    1    2    0    0 -0.25265494685E+00 -0.35021096625E+00  0.61430127742E+02  0.61881386561E+02  0.74470750000E+01 0. -1.
<mgrwt>
<rscale>  0 0.14931015E+02</rscale>
<asrwt>0</asrwt>
<pdfrwt beam="2">  1        2 0.99812482E+00 0.14931015E+02</pdfrwt>
<pdfrwt beam="1">  1       -2 0.98446032E+00 0.14931015E+02</pdfrwt>
<totfact> 0.29315102E-13</totfact>
</mgrwt>
</event>
<event>
 4    1 -0.5167034E-019  0.1494187E+02  0.7818608E-02  0.1869848E+00
         -2   -1    0    0    0  501 -0.00000000000E+00  0.00000000000E+00  0.11965134776E+03  0.11965134779E+03  0.25500000000E-02 0.  1.
          2   -1    0    0  501    0  0.00000000000E+00 -0.00000000000E+00 -0.46647545794E+00  0.46648242771E+00  0.25500000000E-02 0. -1.
         31    1    1    2    0    0 -0.31495954469E+00 -0.49718016725E+00  0.60376962074E+02  0.60837347600E+02  0.74470750000E+01 0.  1.
        -31    1    1    2    0    0  0.31495954469E+00  0.49718016725E+00  0.58807910228E+02  0.59280482615E+02  0.74470750000E+01 0.  1.
<mgrwt>
<rscale>  0 0.14941866E+02</rscale>
<asrwt>0</asrwt>
<pdfrwt beam="2">  1        2 0.99076200E+00 0.14941866E+02</pdfrwt>
<pdfrwt beam="1">  1       -2 0.99321826E+00 0.14941866E+02</pdfrwt>
<totfact>-0.15005836E-13</totfact>
</mgrwt>
</event>
<event>
 4    1  0.5167034E-019  0.1492800E+02  0.7818608E-02  0.1870274E+00
         -2   -1    0    0    0  501 -0.00000000000E+00  0.00000000000E+00  0.11855811957E+03  0.11855811960E+03  0.25500000000E-02 0. -1.
          2   -1    0    0  501    0  0.00000000000E+00 -0.00000000000E+00 -0.46990367297E+00  0.46991059189E+00  0.25500000000E-02 0.  1.
         31    1    1    2    0    0  0.31458418748E+00  0.34518245449E+00  0.60520149710E+02  0.60978402415E+02  0.74470750000E+01 0.  1.
        -31    1    1    2    0    0 -0.31458418748E+00 -0.34518245449E+00  0.57568066186E+02  0.58049627774E+02  0.74470750000E+01 0. -1.
<mgrwt>
<rscale>  0 0.14928002E+02</rscale>
<asrwt>0</asrwt>
<pdfrwt beam="2">  1        2 0.99797871E+00 0.14928002E+02</pdfrwt>
<pdfrwt beam="1">  1       -2 0.98420703E+00 0.14928002E+02</pdfrwt>
<totfact> 0.33187462E-13</totfact>
</mgrwt>
</event>
<event>
 4    1 -0.5167034E-019  0.1490198E+02  0.7818608E-02  0.1871075E+00
         -2   -1    0    0    0  501 -0.00000000000E+00  0.00000000000E+00  0.12018409534E+03  0.12018409536E+03  0.25500000000E-02 0.  1.
          2   -1    0    0  501    0  0.00000000000E+00 -0.00000000000E+00 -0.46193130274E+00  0.46193834107E+00  0.25500000000E-02 0. -1.
         31    1    1    2    0    0 -0.13051476781E+00  0.92492321815E-02  0.61503911359E+02  0.61953265920E+02  0.74470750000E+01 0.  1.
        -31    1    1    2    0    0  0.13051476781E+00 -0.92492321815E-02  0.58218252675E+02  0.58692767785E+02  0.74470750000E+01 0. -1.
<mgrwt>
<rscale>  0 0.14901976E+02</rscale>
<asrwt>0</asrwt>
<pdfrwt beam="2">  1        2 0.98116452E+00 0.14901976E+02</pdfrwt>
<pdfrwt beam="1">  1       -2 0.99758582E+00 0.14901976E+02</pdfrwt>
<totfact>-0.45391449E-13</totfact>
</mgrwt>
</event>
<event>
 4    1  0.5167034E-019  0.1492100E+02  0.7818608E-02  0.1870489E+00
         -2   -1    0    0    0  501 -0.00000000000E+00  0.00000000000E+00  0.11842242596E+03  0.11842242599E+03  0.25500000000E-02 0.  1.
          2   -1    0    0  501    0  0.00000000000E+00 -0.00000000000E+00 -0.47000091841E+00  0.47000783589E+00  0.25500000000E-02 0. -1.
         31    1    1    2    0    0 -0.44180514470E+00 -0.45965768955E-01  0.58552242336E+02  0.59025598797E+02  0.74470750000E+01 0. -1.
        -31    1    1    2    0    0  0.44180514470E+00  0.45965768955E-01  0.59400182706E+02  0.59866835028E+02  0.74470750000E+01 0.  1.
<mgrwt>
<rscale>  0 0.14921000E+02</rscale>
<asrwt>0</asrwt>
<pdfrwt beam="2">  1        2 0.99817990E+00 0.14921000E+02</pdfrwt>
<pdfrwt beam="1">  1       -2 0.98308583E+00 0.14921000E+02</pdfrwt>
<totfact> 0.39842831E-13</totfact>
</mgrwt>
</event>
<event>
 4    1  0.5167034E-019  0.1489594E+02  0.7818608E-02  0.1871261E+00
         -2   -1    0    0    0  501 -0.00000000000E+00  0.00000000000E+00  0.11877470486E+03  0.11877470489E+03  0.25500000000E-02 0. -1.
          2   -1    0    0  501    0  0.00000000000E+00 -0.00000000000E+00 -0.46703387439E+00  0.46704083583E+00  0.25500000000E-02 0.  1.
         31    1    1    2    0    0 -0.95882759685E-01 -0.46484717963E-01  0.59507043451E+02  0.59971313982E+02  0.74470750000E+01 0.  1.
        -31    1    1    2    0    0  0.95882759685E-01  0.46484717963E-01  0.58800627538E+02  0.59270431745E+02  0.74470750000E+01 0.  1.
<mgrwt>
<rscale>  0 0.14895936E+02</rscale>
<asrwt>0</asrwt>
<pdfrwt beam="2">  1        2 0.99191495E+00 0.14895936E+02</pdfrwt>
<pdfrwt beam="1">  1       -2 0.98597418E+00 0.14895936E+02</pdfrwt>
<totfact> 0.45937283E-13</totfact>
</mgrwt>
</event>
<event>
 4    1 -0.5167034E-019  0.1492036E+02  0.7818608E-02  0.1870508E+00
         -2   -1    0    0    0  501 -0.00000000000E+00  0.00000000000E+00  0.12031125448E+03  0.12031125451E+03  0.25500000000E-02 0.  1.
          2   -1    0    0  501    0  0.00000000000E+00 -0.00000000000E+00 -0.46258251641E+00  0.46258954484E+00  0.25500000000E-02 0. -1.
         31    1    1    2    0    0  0.31325164674E+00  0.38193178669E-01  0.62429699062E+02  0.62873093103E+02  0.74470750000E+01 0.  1.
        -31    1    1    2    0    0 -0.31325164674E+00 -0.38193178669E-01  0.57418972903E+02  0.57900750950E+02  0.74470750000E+01 0.  1.
<mgrwt>
<rscale>  0 0.14920363E+02</rscale>
<asrwt>0</asrwt>
<pdfrwt beam="2">  1        2 0.98254638E+00 0.14920363E+02</pdfrwt>
<pdfrwt beam="1">  1       -2 0.99864264E+00 0.14920363E+02</pdfrwt>
<totfact>-0.22378347E-13</totfact>
</mgrwt>
</event>
<event>
 4    1 -0.5167034E-019  0.1494101E+02  0.7818608E-02  0.1869874E+00
         -2   -1    0    0    0  501 -0.00000000000E+00  0.00000000000E+00  0.12016693081E+03  0.12016693083E+03  0.25500000000E-02 0. -1.
          2   -1    0    0  501    0  0.00000000000E+00 -0.00000000000E+00 -0.46442063757E+00  0.46442763817E+00  0.25500000000E-02 0.  1.
         31    1    1    2    0    0 -0.55335001198E+00 -0.14866251198E+00  0.61026926047E+02  0.61482297660E+02  0.74470750000E+01 0.  1.
        -31    1    1    2    0    0  0.55335001198E+00  0.14866251198E+00  0.58675584122E+02  0.59149060811E+02  0.74470750000E+01 0. -1.
<mgrwt>
<rscale>  0 0.14941008E+02</rscale>
<asrwt>0</asrwt>
<pdfrwt beam="2">  1        2 0.98643101E+00 0.14941008E+02</pdfrwt>
<pdfrwt beam="1">  1       -2 0.99746447E+00 0.14941008E+02</pdfrwt>
<totfact>-0.19798653E-13</totfact>
</mgrwt>
</event>
<event>
 4    1 -0.5167034E-019  0.1489978E+02  0.7818608E-02  0.1871142E+00
         -2   -1    0    0    0  501 -0.00000000000E+00  0.00000000000E+00  0.11995495554E+03  0.11995495557E+03  0.25500000000E-02 0. -1.
          2   -1    0    0  501    0  0.00000000000E+00 -0.00000000000E+00 -0.46267726592E+00  0.46268429290E+00  0.25500000000E-02 0.  1.
         31    1    1    2    0    0  0.15653210761E+00  0.97492471239E-01  0.60465488533E+02  0.60922641412E+02  0.74470750000E+01 0.  1.
        -31    1    1    2    0    0 -0.15653210761E+00 -0.97492471239E-01  0.59026789745E+02  0.59494998451E+02  0.74470750000E+01 0.  1.
<mgrwt>
<rscale>  0 0.14899779E+02</rscale>
<asrwt>0</asrwt>
<pdfrwt beam="2">  1        2 0.98273568E+00 0.14899779E+02</pdfrwt>
<pdfrwt beam="1">  1       -2 0.99569730E+00 0.14899779E+02</pdfrwt>
<totfact>-0.48884719E-13</totfact>
</mgrwt>
</event>
<event>
 4    1 -0.5167034E-019  0.1496568E+02  0.7818608E-02  0.1869118E+00
          2   -1    0    0  501    0  0.00000000000E+00  0.00000000000E+00  0.11977183509E+03  0.11977183512E+03  0.25500000000E-02 0.  1.
         -2   -1    0    0    0  501 -0.00000000000E+00 -0.00000000000E+00 -0.46749275104E+00  0.46749970564E+00  0.25500000000E-02 0. -1.
         31    1    1    2    0    0 -0.43719933933E+00  0.40474784850E+00  0.63051316507E+02  0.63492380672E+02  0.74470750000E+01 0.  1.
        -31    1    1    2    0    0  0.43719933933E+00 -0.40474784850E+00  0.56253025837E+02  0.56746954156E+02  0.74470750000E+01 0. -1.
<mgrwt>
<rscale>  0 0.14965679E+02</rscale>
<asrwt>0</asrwt>
<pdfrwt beam="1">  1        2 0.99422295E+00 0.14965679E+02</pdfrwt>
<pdfrwt beam="2">  1       -2 0.99291811E+00 0.14965679E+02</pdfrwt>
<totfact>-0.10954914E-13</totfact>
</mgrwt>
</event>
<event>
 4    1 -0.5167034E-019  0.1490569E+02  0.7818608E-02  0.1870960E+00
         -2   -1    0    0    0  501 -0.00000000000E+00  0.00000000000E+00  0.11952459092E+03  0.11952459094E+03  0.25500000000E-02 0.  1.
          2   -1    0    0  501    0  0.00000000000E+00 -0.00000000000E+00 -0.46471154648E+00  0.46471854270E+00  0.25500000000E-02 0. -1.
         31    1    1    2    0    0 -0.19556099604E+00  0.14426486300E+00  0.58209747427E+02  0.58684688616E+02  0.74470750000E+01 0. -1.
        -31    1    1    2    0    0  0.19556099604E+00 -0.14426486300E+00  0.60850131942E+02  0.61304620869E+02  0.74470750000E+01 0. -1.
<mgrwt>
<rscale>  0 0.14905687E+02</rscale>
<asrwt>0</asrwt>
<pdfrwt beam="2">  1        2 0.98702608E+00 0.14905687E+02</pdfrwt>
<pdfrwt beam="1">  1       -2 0.99215556E+00 0.14905687E+02</pdfrwt>
<totfact>-0.17814578E-13</totfact>
</mgrwt>
</event>
<event>
 4    1 -0.5167034E-019  0.1494198E+02  0.7818608E-02  0.1869844E+00
         -2   -1    0    0    0  501 -0.00000000000E+00  0.00000000000E+00  0.11954982801E+03  0.11954982804E+03  0.25500000000E-02 0.  1.
          2   -1    0    0  501    0  0.00000000000E+00 -0.00000000000E+00 -0.46687842849E+00  0.46688539224E+00  0.25500000000E-02 0. -1.
         31    1    1    2    0    0 -0.39479021819E+00  0.39088789614E+00  0.57780307133E+02  0.58260891438E+02  0.74470750000E+01 0.  1.
        -31    1    1    2    0    0  0.39479021819E+00 -0.39088789614E+00  0.61302642450E+02  0.61755821993E+02  0.74470750000E+01 0.  1.
<mgrwt>
<rscale>  0 0.14941975E+02</rscale>
<asrwt>0</asrwt>
<pdfrwt beam="2">  1        2 0.99161127E+00 0.14941975E+02</pdfrwt>
<pdfrwt beam="1">  1       -2 0.99238216E+00 0.14941975E+02</pdfrwt>
<totfact>-0.11708851E-13</totfact>
</mgrwt>
</event>
<event>
 4    1  0.5167034E-019  0.1490353E+02  0.7818608E-02  0.1871027E+00
         -2   -1    0    0    0  501 -0.00000000000E+00  0.00000000000E+00  0.11830653119E+03  0.11830653122E+03  0.25500000000E-02 0.  1.
          2   -1    0    0  501    0  0.00000000000E+00 -0.00000000000E+00 -0.46936000384E+00  0.46936693077E+00  0.25500000000E-02 0. -1.
         31    1    1    2    0    0 -0.13633057242E+00 -0.21257062173E+00  0.58297740409E+02  0.58772010644E+02  0.74470750000E+01 0. -1.
        -31    1    1    2    0    0  0.13633057242E+00  0.21257062173E+00  0.59539430780E+02  0.60003887507E+02  0.74470750000E+01 0.  1.
<mgrwt>
<rscale>  0 0.14903525E+02</rscale>
<asrwt>0</asrwt>
<pdfrwt beam="2">  1        2 0.99682028E+00 0.14903525E+02</pdfrwt>
<pdfrwt beam="1">  1       -2 0.98212223E+00 0.14903525E+02</pdfrwt>
<totfact> 0.73493592E-13</totfact>
</mgrwt>
</event>
<event>
 4    1 -0.5167034E-019  0.1490684E+02  0.7818608E-02  0.1870925E+00
         -2   -1    0    0    0  501 -0.00000000000E+00  0.00000000000E+00  0.12022600109E+03  0.12022600112E+03  0.25500000000E-02 0. -1.
          2   -1    0    0  501    0  0.00000000000E+00 -0.00000000000E+00 -0.46207184426E+00  0.46207888045E+00  0.25500000000E-02 0.  1.
         31    1    1    2    0    0  0.24967516319E+00 -0.34850644665E-02  0.61334776252E+02  0.61785726942E+02  0.74470750000E+01 0. -1.
        -31    1    1    2    0    0 -0.24967516319E+00  0.34850644665E-02  0.58429152992E+02  0.58902353054E+02  0.74470750000E+01 0. -1.
<mgrwt>
<rscale>  0 0.14906841E+02</rscale>
<asrwt>0</asrwt>
<pdfrwt beam="2">  1        2 0.98146320E+00 0.14906841E+02</pdfrwt>
<pdfrwt beam="1">  1       -2 0.99793349E+00 0.14906841E+02</pdfrwt>
<totfact>-0.38290183E-13</totfact>
</mgrwt>
</event>
<event>
 4    1  0.5167034E-019  0.1491023E+02  0.7818608E-02  0.1870820E+00
          2   -1    0    0  501    0  0.00000000000E+00  0.00000000000E+00  0.12012699381E+03  0.12012699384E+03  0.25500000000E-02 0. -1.
         -2   -1    0    0    0  501 -0.00000000000E+00 -0.00000000000E+00 -0.46266308462E+00  0.46267011181E+00  0.25500000000E-02 0.  1.
         31    1    1    2    0    0 -0.34410339845E+00 -0.23018794382E-01  0.59591188555E+02  0.60055704279E+02  0.74470750000E+01 0.  1.
        -31    1    1    2    0    0  0.34410339845E+00  0.23018794382E-01  0.60073142169E+02  0.60533959668E+02  0.74470750000E+01 0.  1.
<mgrwt>
<rscale>  0 0.14910231E+02</rscale>
<asrwt>0</asrwt>
<pdfrwt beam="1">  1        2 0.99711971E+00 0.14910231E+02</pdfrwt>
<pdfrwt beam="2">  1       -2 0.98271108E+00 0.14910231E+02</pdfrwt>
<totfact> 0.60874078E-13</totfact>
</mgrwt>
</event>
<event>
 4    1  0.5167034E-019  0.1489948E+02  0.7818608E-02  0.1871151E+00
         -2   -1    0    0    0  501 -0.00000000000E+00  0.00000000000E+00  0.11888101424E+03  0.11888101427E+03  0.25500000000E-02 0. -1.
          2   -1    0    0  501    0  0.00000000000E+00 -0.00000000000E+00 -0.46683838138E+00  0.46684534573E+00  0.25500000000E-02 0.  1.
         31    1    1    2    0    0  0.14182924063E+00 -0.76878877642E-01  0.58270012849E+02  0.58744185665E+02  0.74470750000E+01 0.  1.
        -31    1    1    2    0    0 -0.14182924063E+00  0.76878877642E-01  0.60144163012E+02  0.60603673951E+02  0.74470750000E+01 0. -1.
<mgrwt>
<rscale>  0 0.14899482E+02</rscale>
<asrwt>0</asrwt>
<pdfrwt beam="2">  1        2 0.99150485E+00 0.14899482E+02</pdfrwt>
<pdfrwt beam="1">  1       -2 0.98685161E+00 0.14899482E+02</pdfrwt>
<totfact> 0.34391559E-13</totfact>
</mgrwt>
</event>
<event>
 4    1 -0.5167034E-019  0.1495293E+02  0.7818608E-02  0.1869508E+00
          2   -1    0    0  501    0  0.00000000000E+00  0.00000000000E+00  0.11961743704E+03  0.11961743707E+03  0.25500000000E-02 0.  1.
         -2   -1    0    0    0  501 -0.00000000000E+00 -0.00000000000E+00 -0.46729916107E+00  0.46730611855E+00  0.25500000000E-02 0. -1.
         31    1    1    2    0    0  0.57168090201E-01 -0.43083084237E+00  0.55561749929E+02  0.56060287768E+02  0.74470750000E+01 0. -1.
        -31    1    1    2    0    0 -0.57168090201E-01  0.43083084237E+00  0.63588387948E+02  0.64024455416E+02  0.74470750000E+01 0.  1.
<mgrwt>
<rscale>  0 0.14952932E+02</rscale>
<asrwt>0</asrwt>
<pdfrwt beam="1">  1        2 0.99294468E+00 0.14952932E+02</pdfrwt>
<pdfrwt beam="2">  1       -2 0.99250357E+00 0.14952932E+02</pdfrwt>
<totfact>-0.10991575E-13</totfact>
</mgrwt>
</event>
<event>
 4    1 -0.5167034E-019  0.1497386E+02  0.7818608E-02  0.1868867E+00
         -2   -1    0    0    0  501 -0.00000000000E+00  0.00000000000E+00  0.12019136828E+03  0.12019136831E+03  0.25500000000E-02 0. -1.
          2   -1    0    0  501    0  0.00000000000E+00 -0.00000000000E+00 -0.46637023542E+00  0.46637720676E+00  0.25500000000E-02 0.  1.
         31    1    1    2    0    0  0.37076531843E-01 -0.19548929692E+00  0.65868641908E+02  0.66288585017E+02  0.74470750000E+01 0. -1.
        -31    1    1    2    0    0 -0.37076531843E-01  0.19548929692E+00  0.53856356140E+02  0.54369160500E+02  0.74470750000E+01 0.  1.
<mgrwt>
<rscale>  0 0.14973857E+02</rscale>
<asrwt>0</asrwt>
<pdfrwt beam="2">  1        2 0.99055667E+00 0.14973857E+02</pdfrwt>
<pdfrwt beam="1">  1       -2 0.99768266E+00 0.14973857E+02</pdfrwt>
<totfact>-0.11322448E-13</totfact>
</mgrwt>
</event>
<event>
 4    1 -0.5167034E-019  0.1496053E+02  0.7818608E-02  0.1869275E+00
         -2   -1    0    0    0  501 -0.00000000000E+00  0.00000000000E+00  0.11998305066E+03  0.11998305069E+03  0.25500000000E-02 0. -1.
          2   -1    0    0  501    0  0.00000000000E+00 -0.00000000000E+00 -0.46634877180E+00  0.46635574346E+00  0.25500000000E-02 0.  1.
         31    1    1    2    0    0 -0.15029081380E+00  0.68646967768E+00  0.60081983634E+02  0.60545829843E+02  0.74470750000E+01 0. -1.
        -31    1    1    2    0    0  0.15029081380E+00 -0.68646967768E+00  0.59434718253E+02  0.59903576586E+02  0.74470750000E+01 0. -1.
<mgrwt>
<rscale>  0 0.14960531E+02</rscale>
<asrwt>0</asrwt>
<pdfrwt beam="2">  1        2 0.99050461E+00 0.14960531E+02</pdfrwt>
<pdfrwt beam="1">  1       -2 0.99595997E+00 0.14960531E+02</pdfrwt>
<totfact>-0.16068255E-13</totfact>
</mgrwt>
</event>
<event>
 4    1 -0.5167034E-019  0.1495021E+02  0.7818608E-02  0.1869592E+00
         -2   -1    0    0    0  501 -0.00000000000E+00  0.00000000000E+00  0.11959880868E+03  0.11959880871E+03  0.25500000000E-02 0.  1.
          2   -1    0    0  501    0  0.00000000000E+00 -0.00000000000E+00 -0.46720154857E+00  0.46720850751E+00  0.25500000000E-02 0. -1.
         31    1    1    2    0    0 -0.15985699506E+00  0.55285695283E+00  0.61935128431E+02  0.62383894275E+02  0.74470750000E+01 0.  1.
        -31    1    1    2    0    0  0.15985699506E+00 -0.55285695283E+00  0.57196478701E+02  0.57682122940E+02  0.74470750000E+01 0. -1.
<mgrwt>
<rscale>  0 0.14950206E+02</rscale>
<asrwt>0</asrwt>
<pdfrwt beam="2">  1        2 0.99229645E+00 0.14950206E+02</pdfrwt>
<pdfrwt beam="1">  1       -2 0.99278984E+00 0.14950206E+02</pdfrwt>
<totfact>-0.12330069E-13</totfact>
</mgrwt>
</event>
<event>
 4    1 -0.5167034E-019  0.1494673E+02  0.7818608E-02  0.1869698E+00
          2   -1    0    0  501    0  0.00000000000E+00  0.00000000000E+00  0.11947733652E+03  0.11947733654E+03  0.25500000000E-02 0. -1.
         -2   -1    0    0    0  501 -0.00000000000E+00 -0.00000000000E+00 -0.46745932135E+00  0.46746627645E+00  0.25500000000E-02 0.  1.
         31    1    1    2    0    0  0.50776226177E+00 -0.35469139419E+00  0.58758206390E+02  0.59231489706E+02  0.74470750000E+01 0.  1.
        -31    1    1    2    0    0 -0.50776226177E+00  0.35469139419E+00  0.60251670805E+02  0.60713313115E+02  0.74470750000E+01 0. -1.
<mgrwt>
<rscale>  0 0.14946734E+02</rscale>
<asrwt>0</asrwt>
<pdfrwt beam="1">  1        2 0.99178755E+00 0.14946734E+02</pdfrwt>
<pdfrwt beam="2">  1       -2 0.99283787E+00 0.14946734E+02</pdfrwt>
<totfact>-0.12927738E-13</totfact>
</mgrwt>
</event>
<event>
 4    1  0.5167034E-019  0.1493962E+02  0.7818608E-02  0.1869917E+00
          2   -1    0    0  501    0  0.00000000000E+00  0.00000000000E+00  0.12025925922E+03  0.12025925924E+03  0.25500000000E-02 0.  1.
         -2   -1    0    0    0  501 -0.00000000000E+00 -0.00000000000E+00 -0.46397772355E+00  0.46398473084E+00  0.25500000000E-02 0. -1.
         31    1    1    2    0    0  0.12473614520E+00  0.54625882429E+00  0.58615929953E+02  0.59089763311E+02  0.74470750000E+01 0. -1.
        -31    1    1    2    0    0 -0.12473614520E+00 -0.54625882429E+00  0.61179351539E+02  0.61633480663E+02  0.74470750000E+01 0. -1.
<mgrwt>
<rscale>  0 0.14939617E+02</rscale>
<asrwt>0</asrwt>
<pdfrwt beam="1">  1        2 0.99822425E+00 0.14939617E+02</pdfrwt>
<pdfrwt beam="2">  1       -2 0.98549680E+00 0.14939617E+02</pdfrwt>
<totfact> 0.20942982E-13</totfact>
</mgrwt>
</event>
<event>
 4    1  0.5167034E-019  0.1492158E+02  0.7818608E-02  0.1870471E+00
          2   -1    0    0  501    0  0.00000000000E+00  0.00000000000E+00  0.11978983982E+03  0.11978983985E+03  0.25500000000E-02 0. -1.
         -2   -1    0    0    0  501 -0.00000000000E+00 -0.00000000000E+00 -0.46467174550E+00  0.46467874233E+00  0.25500000000E-02 0.  1.
         31    1    1    2    0    0 -0.14075126275E+00  0.42969645408E+00  0.59666849820E+02  0.60131492111E+02  0.74470750000E+01 0.  1.
        -31    1    1    2    0    0  0.14075126275E+00 -0.42969645408E+00  0.59658318259E+02  0.60123026483E+02  0.74470750000E+01 0. -1.
<mgrwt>
<rscale>  0 0.14921579E+02</rscale>
<asrwt>0</asrwt>
<pdfrwt beam="1">  1        2 0.99434850E+00 0.14921579E+02</pdfrwt>
<pdfrwt beam="2">  1       -2 0.98695033E+00 0.14921579E+02</pdfrwt>
<totfact> 0.26677993E-13</totfact>
</mgrwt>
</event>
<event>
 4    1  0.5167034E-019  0.1492560E+02  0.7818608E-02  0.1870347E+00
          2   -1    0    0  501    0  0.00000000000E+00  0.00000000000E+00  0.12000807409E+03  0.12000807412E+03  0.25500000000E-02 0. -1.
         -2   -1    0    0    0  501 -0.00000000000E+00 -0.00000000000E+00 -0.46407669820E+00  0.46408370400E+00  0.25500000000E-02 0.  1.
         31    1    1    2    0    0 -0.46300642571E+00 -0.14167797248E+00  0.59764955239E+02  0.60229089719E+02  0.74470750000E+01 0.  1.
        -31    1    1    2    0    0  0.46300642571E+00  0.14167797248E+00  0.59779042154E+02  0.60243068103E+02  0.74470750000E+01 0. -1.
<mgrwt>
<rscale>  0 0.14925599E+02</rscale>
<asrwt>0</asrwt>
<pdfrwt beam="1">  1        2 0.99614809E+00 0.14925599E+02</pdfrwt>
<pdfrwt beam="2">  1       -2 0.98569828E+00 0.14925599E+02</pdfrwt>
<totfact> 0.34047835E-13</totfact>
</mgrwt>
</event>
<event>
 4    1  0.5167034E-019  0.1490143E+02  0.7818608E-02  0.1871091E+00
          2   -1    0    0  501    0  0.00000000000E+00  0.00000000000E+00  0.12001333287E+03  0.12001333290E+03  0.25500000000E-02 0.  1.
         -2   -1    0    0    0  501 -0.00000000000E+00 -0.00000000000E+00 -0.46255466365E+00  0.46256169249E+00  0.25500000000E-02 0. -1.
         31    1    1    2    0    0 -0.58729805317E-01  0.81866673878E-01  0.61472716857E+02  0.61922241523E+02  0.74470750000E+01 0.  1.
        -31    1    1    2    0    0  0.58729805317E-01 -0.81866673878E-01  0.58078061354E+02  0.58553653072E+02  0.74470750000E+01 0. -1.
<mgrwt>
<rscale>  0 0.14901430E+02</rscale>
<asrwt>0</asrwt>
<pdfrwt beam="1">  1        2 0.99617899E+00 0.14901430E+02</pdfrwt>
<pdfrwt beam="2">  1       -2 0.98247811E+00 0.14901430E+02</pdfrwt>
<totfact> 0.76681462E-13</totfact>
</mgrwt>
</event>
<event>
 4    1  0.5167034E-019  0.1492938E+02  0.7818608E-02  0.1870231E+00
          2   -1    0    0  501    0  0.00000000000E+00  0.00000000000E+00  0.11999184919E+03  0.11999184922E+03  0.25500000000E-02 0.  1.
         -2   -1    0    0    0  501 -0.00000000000E+00 -0.00000000000E+00 -0.46437475079E+00  0.46438175209E+00  0.25500000000E-02 0. -1.
         31    1    1    2    0    0  0.17086889611E+00  0.38799592910E+00  0.57440019716E+02  0.57922314595E+02  0.74470750000E+01 0. -1.
        -31    1    1    2    0    0 -0.17086889611E+00 -0.38799592910E+00  0.62087454721E+02  0.62533916372E+02  0.74470750000E+01 0.  1.
<mgrwt>
<rscale>  0 0.14929382E+02</rscale>
<asrwt>0</asrwt>
<pdfrwt beam="1">  1        2 0.99601640E+00 0.14929382E+02</pdfrwt>
<pdfrwt beam="2">  1       -2 0.98632838E+00 0.14929382E+02</pdfrwt>
<totfact> 0.28102079E-13</totfact>
</mgrwt>
</event>
<event>
 4    1 -0.5167034E-019  0.1497663E+02  0.7818608E-02  0.1868782E+00
          2   -1    0    0  501    0  0.00000000000E+00  0.00000000000E+00  0.11925938337E+03  0.11925938340E+03  0.25500000000E-02 0. -1.
         -2   -1    0    0    0  501 -0.00000000000E+00 -0.00000000000E+00 -0.47018917181E+00  0.47019608653E+00  0.25500000000E-02 0.  1.
         31    1    1    2    0    0 -0.22502003626E+00  0.46302737139E+00  0.54658739242E+02  0.55166128466E+02  0.74470750000E+01 0.  1.
        -31    1    1    2    0    0  0.22502003626E+00 -0.46302737139E+00  0.64130454956E+02  0.64563451017E+02  0.74470750000E+01 0. -1.
<mgrwt>
<rscale>  0 0.14976633E+02</rscale>
<asrwt>0</asrwt>
<pdfrwt beam="1">  1        2 0.99000793E+00 0.14976633E+02</pdfrwt>
<pdfrwt beam="2">  1       -2 0.99860584E+00 0.14976633E+02</pdfrwt>
<totfact>-0.78219854E-14</totfact>
</mgrwt>
</event>
<event>
 4    1 -0.5167034E-019  0.1494378E+02  0.7818608E-02  0.1869789E+00
         -2   -1    0    0    0  501 -0.00000000000E+00  0.00000000000E+00  0.12000820019E+03  0.12000820022E+03  0.25500000000E-02 0.  1.
          2   -1    0    0  501    0  0.00000000000E+00 -0.00000000000E+00 -0.46520759287E+00  0.46521458163E+00  0.25500000000E-02 0. -1.
         31    1    1    2    0    0 -0.54889518627E+00  0.23647626380E+00  0.60691229448E+02  0.61149337404E+02  0.74470750000E+01 0.  1.
        -31    1    1    2    0    0  0.54889518627E+00 -0.23647626380E+00  0.58851763147E+02  0.59324077393E+02  0.74470750000E+01 0. -1.
<mgrwt>
<rscale>  0 0.14943781E+02</rscale>
<asrwt>0</asrwt>
<pdfrwt beam="2">  1        2 0.98809099E+00 0.14943781E+02</pdfrwt>
<pdfrwt beam="1">  1       -2 0.99615848E+00 0.14943781E+02</pdfrwt>
<totfact>-0.20332806E-13</totfact>
</mgrwt>
</event>
<event>
 4    1  0.5167034E-019  0.1492354E+02  0.7818608E-02  0.1870411E+00
         -2   -1    0    0    0  501 -0.00000000000E+00  0.00000000000E+00  0.11862898561E+03  0.11862898563E+03  0.25500000000E-02 0. -1.
          2   -1    0    0  501    0  0.00000000000E+00 -0.00000000000E+00 -0.46934230293E+00  0.46934923012E+00  0.25500000000E-02 0.  1.
         31    1    1    2    0    0  0.29666960613E+00  0.37200328613E-01  0.61953853161E+02  0.62400546827E+02  0.74470750000E+01 0. -1.
        -31    1    1    2    0    0 -0.29666960613E+00 -0.37200328613E-01  0.56205790141E+02  0.56697788036E+02  0.74470750000E+01 0.  1.
<mgrwt>
<rscale>  0 0.14923541E+02</rscale>
<asrwt>0</asrwt>
<pdfrwt beam="2">  1        2 0.99679354E+00 0.14923541E+02</pdfrwt>
<pdfrwt beam="1">  1       -2 0.98478836E+00 0.14923541E+02</pdfrwt>
<totfact> 0.39678938E-13</totfact>
</mgrwt>
</event>
<event>
 4    1  0.5167034E-019  0.1494048E+02  0.7818608E-02  0.1869890E+00
          2   -1    0    0  501    0  0.00000000000E+00  0.00000000000E+00  0.11986511845E+03  0.11986511848E+03  0.25500000000E-02 0. -1.
         -2   -1    0    0    0  501 -0.00000000000E+00 -0.00000000000E+00 -0.46555738908E+00  0.46556437259E+00  0.25500000000E-02 0.  1.
         31    1    1    2    0    0  0.22973794566E+00  0.51403442590E+00  0.58338286984E+02  0.58814383149E+02  0.74470750000E+01 0.  1.
        -31    1    1    2    0    0 -0.22973794566E+00 -0.51403442590E+00  0.61061274076E+02  0.61516299700E+02  0.74470750000E+01 0.  1.
<mgrwt>
<rscale>  0 0.14940484E+02</rscale>
<asrwt>0</asrwt>
<pdfrwt beam="1">  1        2 0.99497828E+00 0.14940484E+02</pdfrwt>
<pdfrwt beam="2">  1       -2 0.98882651E+00 0.14940484E+02</pdfrwt>
<totfact> 0.85242134E-14</totfact>
</mgrwt>
</event>
<event>
 4    1 -0.5167034E-019  0.1498534E+02  0.7818608E-02  0.1868516E+00
         -2   -1    0    0    0  501 -0.00000000000E+00  0.00000000000E+00  0.12034249963E+03  0.12034249965E+03  0.25500000000E-02 0.  1.
          2   -1    0    0  501    0  0.00000000000E+00 -0.00000000000E+00 -0.46649901237E+00  0.46650598178E+00  0.25500000000E-02 0. -1.
         31    1    1    2    0    0  0.37283581152E+00  0.22158938233E+00  0.54277220650E+02  0.54787441225E+02  0.74470750000E+01 0. -1.
        -31    1    1    2    0    0 -0.37283581152E+00 -0.22158938233E+00  0.65598779966E+02  0.66021564412E+02  0.74470750000E+01 0.  1.
<mgrwt>
<rscale>  0 0.14985337E+02</rscale>
<asrwt>0</asrwt>
<pdfrwt beam="2">  1        2 0.99083394E+00 0.14985337E+02</pdfrwt>
<pdfrwt beam="1">  1       -2 0.99893338E+00 0.14985337E+02</pdfrwt>
<totfact>-0.57174733E-14</totfact>
</mgrwt>
</event>
<event>
 4    1  0.5167034E-019  0.1490252E+02  0.7818608E-02  0.1871058E+00
          2   -1    0    0  501    0  0.00000000000E+00  0.00000000000E+00  0.11961021318E+03  0.11961021320E+03  0.25500000000E-02 0.  1.
         -2   -1    0    0    0  501 -0.00000000000E+00 -0.00000000000E+00 -0.46418144605E+00  0.46418845026E+00  0.25500000000E-02 0. -1.
         31    1    1    2    0    0 -0.11724109799E-02 -0.23806616527E+00  0.58966789715E+02  0.59435661788E+02  0.74470750000E+01 0.  1.
        -31    1    1    2    0    0  0.11724109799E-02  0.23806616527E+00  0.60179242016E+02  0.60638739866E+02  0.74470750000E+01 0. -1.
<mgrwt>
<rscale>  0 0.14902518E+02</rscale>
<asrwt>0</asrwt>
<pdfrwt beam="1">  1        2 0.99285916E+00 0.14902518E+02</pdfrwt>
<pdfrwt beam="2">  1       -2 0.98590727E+00 0.14902518E+02</pdfrwt>
<totfact> 0.43872127E-13</totfact>
</mgrwt>
</event>
<event>
 4    1  0.5167034E-019  0.1491629E+02  0.7818608E-02  0.1870634E+00
          2   -1    0    0  501    0  0.00000000000E+00  0.00000000000E+00  0.12014887716E+03  0.12014887718E+03  0.25500000000E-02 0.  1.
         -2   -1    0    0    0  501 -0.00000000000E+00 -0.00000000000E+00 -0.46295502600E+00  0.46296204877E+00  0.25500000000E-02 0. -1.
         31    1    1    2    0    0  0.32788734725E+00  0.15507737433E+00  0.61322186601E+02  0.61773789383E+02  0.74470750000E+01 0.  1.
        -31    1    1    2    0    0 -0.32788734725E+00 -0.15507737433E+00  0.58363735530E+02  0.58838049850E+02  0.74470750000E+01 0.  1.
<mgrwt>
<rscale>  0 0.14916293E+02</rscale>
<asrwt>0</asrwt>
<pdfrwt beam="1">  1        2 0.99730307E+00 0.14916293E+02</pdfrwt>
<pdfrwt beam="2">  1       -2 0.98332947E+00 0.14916293E+02</pdfrwt>
<totfact> 0.50743524E-13</totfact>
</mgrwt>
</event>
<event>
 4    1  0.5167034E-019  0.1491437E+02  0.7818608E-02  0.1870693E+00
          2   -1    0    0  501    0  0.00000000000E+00  0.00000000000E+00  0.12031573713E+03  0.12031573715E+03  0.25500000000E-02 0. -1.
         -2   -1    0    0    0  501 -0.00000000000E+00 -0.00000000000E+00 -0.46219391364E+00  0.46220094797E+00  0.25500000000E-02 0.  1.
         31    1    1    2    0    0 -0.23115945163E+00 -0.21029691696E+00  0.58061707334E+02  0.58538179371E+02  0.74470750000E+01 0. -1.
        -31    1    1    2    0    0  0.23115945163E+00  0.21029691696E+00  0.61791835879E+02  0.62239758730E+02  0.74470750000E+01 0. -1.
<mgrwt>
<rscale>  0 0.14914373E+02</rscale>
<asrwt>0</asrwt>
<pdfrwt beam="1">  1        2 0.99867650E+00 0.14914373E+02</pdfrwt>
<pdfrwt beam="2">  1       -2 0.98172429E+00 0.14914373E+02</pdfrwt>
<totfact> 0.40587928E-13</totfact>
</mgrwt>
</event>
<event>
 4    1 -0.5167034E-019  0.1489909E+02  0.7818608E-02  0.1871163E+00
          2   -1    0    0  501    0  0.00000000000E+00  0.00000000000E+00  0.11798432262E+03  0.11798432265E+03  0.25500000000E-02 0. -1.
         -2   -1    0    0    0  501 -0.00000000000E+00 -0.00000000000E+00 -0.47036175371E+00  0.47036866590E+00  0.25500000000E-02 0.  1.
         31    1    1    2    0    0 -0.69755523841E-01  0.17749260348E+00  0.58921539302E+02  0.59390597650E+02  0.74470750000E+01 0.  1.
        -31    1    1    2    0    0  0.69755523841E-01 -0.17749260348E+00  0.58592421565E+02  0.59064093665E+02  0.74470750000E+01 0. -1.
<mgrwt>
<rscale>  0 0.14899090E+02</rscale>
<asrwt>0</asrwt>
<pdfrwt beam="1">  1        2 0.97946627E+00 0.14899090E+02</pdfrwt>
<pdfrwt beam="2">  1       -2 0.99892852E+00 0.14899090E+02</pdfrwt>
<totfact>-0.30228780E-13</totfact>
</mgrwt>
</event>
<event>
 4    1 -0.5167034E-019  0.1498554E+02  0.7818608E-02  0.1868510E+00
         -2   -1    0    0    0  501 -0.00000000000E+00  0.00000000000E+00  0.11986802713E+03  0.11986802716E+03  0.25500000000E-02 0. -1.
          2   -1    0    0  501    0  0.00000000000E+00 -0.00000000000E+00 -0.46835807153E+00  0.46836501329E+00  0.25500000000E-02 0.  1.
         31    1    1    2    0    0  0.57966125391E+00  0.98910875619E-01  0.64360520992E+02  0.64792602810E+02  0.74470750000E+01 0. -1.
        -31    1    1    2    0    0 -0.57966125391E+00 -0.98910875619E-01  0.55039148067E+02  0.55543789361E+02  0.74470750000E+01 0.  1.
<mgrwt>
<rscale>  0 0.14985537E+02</rscale>
<asrwt>0</asrwt>
<pdfrwt beam="2">  1        2 0.99475191E+00 0.14985537E+02</pdfrwt>
<pdfrwt beam="1">  1       -2 0.99502549E+00 0.14985537E+02</pdfrwt>
<totfact>-0.12218482E-13</totfact>
</mgrwt>
</event>
<event>
 4    1  0.5167034E-019  0.1490703E+02  0.7818608E-02  0.1870919E+00
         -2   -1    0    0    0  501 -0.00000000000E+00  0.00000000000E+00  0.11810274846E+03  0.11810274849E+03  0.25500000000E-02 0.  1.
          2   -1    0    0  501    0  0.00000000000E+00 -0.00000000000E+00 -0.47039133196E+00  0.47039824370E+00  0.25500000000E-02 0. -1.
         31    1    1    2    0    0 -0.17248302485E-01 -0.25037551619E+00  0.60261325279E+02  0.60720253917E+02  0.74470750000E+01 0. -1.
        -31    1    1    2    0    0  0.17248302485E-01  0.25037551619E+00  0.57371031847E+02  0.57852892812E+02  0.74470750000E+01 0. -1.
<mgrwt>
<rscale>  0 0.14907035E+02</rscale>
<asrwt>0</asrwt>
<pdfrwt beam="2">  1        2 0.99899506E+00 0.14907035E+02</pdfrwt>
<pdfrwt beam="1">  1       -2 0.98044574E+00 0.14907035E+02</pdfrwt>
<totfact> 0.40382155E-13</totfact>
</mgrwt>
</event>
<event>
 4    1 -0.5167034E-019  0.1496440E+02  0.7818608E-02  0.1869157E+00
         -2   -1    0    0    0  501 -0.00000000000E+00  0.00000000000E+00  0.11991207692E+03  0.11991207695E+03  0.25500000000E-02 0.  1.
          2   -1    0    0  501    0  0.00000000000E+00 -0.00000000000E+00 -0.46686601212E+00  0.46687297606E+00  0.25500000000E-02 0. -1.
         31    1    1    2    0    0  0.59878542722E+00 -0.36055631795E+00  0.61245158968E+02  0.61700218541E+02  0.74470750000E+01 0. -1.
        -31    1    1    2    0    0 -0.59878542722E+00  0.36055631795E+00  0.58200051940E+02  0.58678731383E+02  0.74470750000E+01 0. -1.
<mgrwt>
<rscale>  0 0.14964397E+02</rscale>
<asrwt>0</asrwt>
<pdfrwt beam="2">  1        2 0.99159666E+00 0.14964397E+02</pdfrwt>
<pdfrwt beam="1">  1       -2 0.99537738E+00 0.14964397E+02</pdfrwt>
<totfact>-0.15380092E-13</totfact>
</mgrwt>
</event>
<event>
 4    1 -0.5167034E-019  0.1491143E+02  0.7818608E-02  0.1870783E+00
          2   -1    0    0  501    0  0.00000000000E+00  0.00000000000E+00  0.11828395970E+03  0.11828395972E+03  0.25500000000E-02 0.  1.
         -2   -1    0    0    0  501 -0.00000000000E+00 -0.00000000000E+00 -0.46994752267E+00  0.46995444094E+00  0.25500000000E-02 0. -1.
         31    1    1    2    0    0  0.17809319387E+00  0.63773664198E-01  0.56478902223E+02  0.56968070940E+02  0.74470750000E+01 0. -1.
        -31    1    1    2    0    0 -0.17809319387E+00 -0.63773664198E-01  0.61335109949E+02  0.61785843223E+02  0.74470750000E+01 0.  1.
<mgrwt>
<rscale>  0 0.14911427E+02</rscale>
<asrwt>0</asrwt>
<pdfrwt beam="1">  1        2 0.98194045E+00 0.14911427E+02</pdfrwt>
<pdfrwt beam="2">  1       -2 0.99806233E+00 0.14911427E+02</pdfrwt>
<totfact>-0.33550312E-13</totfact>
</mgrwt>
</event>
<event>
 4    1 -0.5167034E-019  0.1499413E+02  0.7818608E-02  0.1868248E+00
         -2   -1    0    0    0  501 -0.00000000000E+00  0.00000000000E+00  0.11998952385E+03  0.11998952388E+03  0.25500000000E-02 0. -1.
          2   -1    0    0  501    0  0.00000000000E+00 -0.00000000000E+00 -0.46842052329E+00  0.46842746411E+00  0.25500000000E-02 0.  1.
         31    1    1    2    0    0 -0.34426590614E+00 -0.42387080149E+00  0.54378207382E+02  0.54888491960E+02  0.74470750000E+01 0.  1.
        -31    1    1    2    0    0  0.34426590614E+00  0.42387080149E+00  0.65142895946E+02  0.65569459383E+02  0.74470750000E+01 0. -1.
<mgrwt>
<rscale>  0 0.14994129E+02</rscale>
<asrwt>0</asrwt>
<pdfrwt beam="2">  1        2 0.99488795E+00 0.14994129E+02</pdfrwt>
<pdfrwt beam="1">  1       -2 0.99603062E+00 0.14994129E+02</pdfrwt>
<totfact>-0.11286058E-13</totfact>
</mgrwt>
</event>
<event>
 4    1 -0.5167034E-019  0.1493122E+02  0.7818608E-02  0.1870175E+00
          2   -1    0    0  501    0  0.00000000000E+00  0.00000000000E+00  0.11907262821E+03  0.11907262824E+03  0.25500000000E-02 0.  1.
         -2   -1    0    0    0  501 -0.00000000000E+00 -0.00000000000E+00 -0.46807479197E+00  0.46808173792E+00  0.25500000000E-02 0. -1.
         31    1    1    2    0    0  0.32298580730E+00  0.40919012149E+00  0.59847045814E+02  0.60310857854E+02  0.74470750000E+01 0. -1.
        -31    1    1    2    0    0 -0.32298580730E+00 -0.40919012149E+00  0.58757507603E+02  0.59229852120E+02  0.74470750000E+01 0. -1.
<mgrwt>
<rscale>  0 0.14931217E+02</rscale>
<asrwt>0</asrwt>
<pdfrwt beam="1">  1        2 0.98844623E+00 0.14931217E+02</pdfrwt>
<pdfrwt beam="2">  1       -2 0.99412677E+00 0.14931217E+02</pdfrwt>
<totfact>-0.20824859E-13</totfact>
</mgrwt>
</event>
<event>
 4    1  0.5167034E-019  0.1494328E+02  0.7818608E-02  0.1869804E+00
          2   -1    0    0  501    0  0.00000000000E+00  0.00000000000E+00  0.12028968965E+03  0.12028968968E+03  0.25500000000E-02 0. -1.
         -2   -1    0    0    0  501 -0.00000000000E+00 -0.00000000000E+00 -0.46408775513E+00  0.46409476075E+00  0.25500000000E-02 0.  1.
         31    1    1    2    0    0 -0.59332446146E+00 -0.28995818822E-01  0.60855035599E+02  0.61311884317E+02  0.74470750000E+01 0. -1.
        -31    1    1    2    0    0  0.59332446146E+00  0.28995818822E-01  0.58970566297E+02  0.59441900122E+02  0.74470750000E+01 0.  1.
<mgrwt>
<rscale>  0 0.14943279E+02</rscale>
<asrwt>0</asrwt>
<pdfrwt beam="1">  1        2 0.99847678E+00 0.14943279E+02</pdfrwt>
<pdfrwt beam="2">  1       -2 0.98573057E+00 0.14943279E+02</pdfrwt>
<totfact> 0.17174363E-13</totfact>
</mgrwt>
</event>
<event>
 4    1 -0.5167034E-019  0.1500502E+02  0.7818608E-02  0.1867915E+00
         -2   -1    0    0    0  501 -0.00000000000E+00  0.00000000000E+00  0.12018597231E+03  0.12018597234E+03  0.25500000000E-02 0. -1.
          2   -1    0    0  501    0  0.00000000000E+00 -0.00000000000E+00 -0.46833447989E+00  0.46834142199E+00  0.25500000000E-02 0.  1.
         31    1    1    2    0    0  0.39324300327E+00 -0.67190036818E+00  0.63652902919E+02  0.64091786262E+02  0.74470750000E+01 0. -1.
        -31    1    1    2    0    0 -0.39324300327E+00  0.67190036818E+00  0.56064734915E+02  0.56562527501E+02  0.74470750000E+01 0. -1.
<mgrwt>
<rscale>  0 0.15005020E+02</rscale>
<asrwt>0</asrwt>
<pdfrwt beam="2">  1        2 0.99471224E+00 0.15005020E+02</pdfrwt>
<pdfrwt beam="1">  1       -2 0.99765428E+00 0.15005020E+02</pdfrwt>
<totfact>-0.82654052E-14</totfact>
</mgrwt>
</event>
<event>
 4    1 -0.5167034E-019  0.1494553E+02  0.7818608E-02  0.1869735E+00
         -2   -1    0    0    0  501 -0.00000000000E+00  0.00000000000E+00  0.11956107634E+03  0.11956107637E+03  0.25500000000E-02 0.  1.
          2   -1    0    0  501    0  0.00000000000E+00 -0.00000000000E+00 -0.46705636658E+00  0.46706332768E+00  0.25500000000E-02 0. -1.
         31    1    1    2    0    0 -0.12333596197E+00 -0.75647715456E-01  0.64381142918E+02  0.64810581110E+02  0.74470750000E+01 0.  1.
        -31    1    1    2    0    0  0.12333596197E+00  0.75647715456E-01  0.54712877058E+02  0.55217558588E+02  0.74470750000E+01 0. -1.
<mgrwt>
<rscale>  0 0.14945525E+02</rscale>
<asrwt>0</asrwt>
<pdfrwt beam="2">  1        2 0.99198809E+00 0.14945525E+02</pdfrwt>
<pdfrwt beam="1">  1       -2 0.99247664E+00 0.14945525E+02</pdfrwt>
<totfact>-0.11690588E-13</totfact>
</mgrwt>
</event>
<event>
 4    1 -0.5167034E-019  0.1501153E+02  0.7818608E-02  0.1867717E+00
          2   -1    0    0  501    0  0.00000000000E+00  0.00000000000E+00  0.12011793257E+03  0.12011793260E+03  0.25500000000E-02 0.  1.
         -2   -1    0    0    0  501 -0.00000000000E+00 -0.00000000000E+00 -0.46900627006E+00  0.46901320222E+00  0.25500000000E-02 0. -1.
         31    1    1    2    0    0  0.79339531018E+00  0.34879003976E-01  0.63815673939E+02  0.64253636932E+02  0.74470750000E+01 0. -1.
        -31    1    1    2    0    0 -0.79339531018E+00 -0.34879003976E-01  0.55833252360E+02  0.56333308866E+02  0.74470750000E+01 0. -1.
<mgrwt>
<rscale>  0 0.15011527E+02</rscale>
<asrwt>0</asrwt>
<pdfrwt beam="1">  1        2 0.99709724E+00 0.15011527E+02</pdfrwt>
<pdfrwt beam="2">  1       -2 0.99613132E+00 0.15011527E+02</pdfrwt>
<totfact>-0.79619181E-14</totfact>
</mgrwt>
</event>
<event>
 4    1 -0.5167034E-019  0.1495538E+02  0.7818608E-02  0.1869433E+00
         -2   -1    0    0    0  501 -0.00000000000E+00  0.00000000000E+00  0.12031237343E+03  0.12031237346E+03  0.25500000000E-02 0. -1.
          2   -1    0    0  501    0  0.00000000000E+00 -0.00000000000E+00 -0.46475185400E+00  0.46475884961E+00  0.25500000000E-02 0.  1.
         31    1    1    2    0    0  0.89051723632E-01  0.51847326945E+00  0.63351542210E+02  0.63789917473E+02  0.74470750000E+01 0. -1.
        -31    1    1    2    0    0 -0.89051723632E-01 -0.51847326945E+00  0.56496079370E+02  0.56987214838E+02  0.74470750000E+01 0.  1.
<mgrwt>
<rscale>  0 0.14955377E+02</rscale>
<asrwt>0</asrwt>
<pdfrwt beam="2">  1        2 0.98713639E+00 0.14955377E+02</pdfrwt>
<pdfrwt beam="1">  1       -2 0.99866983E+00 0.14955377E+02</pdfrwt>
<totfact>-0.10538966E-13</totfact>
</mgrwt>
</event>
<event>
 4    1 -0.5167034E-019  0.1491208E+02  0.7818608E-02  0.1870763E+00
          2   -1    0    0  501    0  0.00000000000E+00  0.00000000000E+00  0.11829177641E+03  0.11829177643E+03  0.25500000000E-02 0.  1.
         -2   -1    0    0    0  501 -0.00000000000E+00 -0.00000000000E+00 -0.46995737025E+00  0.46996428838E+00  0.25500000000E-02 0. -1.
         31    1    1    2    0    0  0.28065528336E+00 -0.22066802415E+00  0.58288036100E+02  0.58762926579E+02  0.74470750000E+01 0.  1.
        -31    1    1    2    0    0 -0.28065528336E+00  0.22066802415E+00  0.59533782935E+02  0.59998814142E+02  0.74470750000E+01 0.  1.
<mgrwt>
<rscale>  0 0.14912076E+02</rscale>
<asrwt>0</asrwt>
<pdfrwt beam="1">  1        2 0.98200517E+00 0.14912076E+02</pdfrwt>
<pdfrwt beam="2">  1       -2 0.99808343E+00 0.14912076E+02</pdfrwt>
<totfact>-0.32891482E-13</totfact>
</mgrwt>
</event>
<event>
 4    1 -0.5167034E-019  0.1497627E+02  0.7818608E-02  0.1868794E+00
          2   -1    0    0  501    0  0.00000000000E+00  0.00000000000E+00  0.11933817392E+03  0.11933817395E+03  0.25500000000E-02 0. -1.
         -2   -1    0    0    0  501 -0.00000000000E+00 -0.00000000000E+00 -0.46985572478E+00  0.46986264441E+00  0.25500000000E-02 0.  1.
         31    1    1    2    0    0 -0.32071099205E+00 -0.97720418444E-01  0.53772826699E+02  0.54287090750E+02  0.74470750000E+01 0.  1.
        -31    1    1    2    0    0  0.32071099205E+00  0.97720418444E-01  0.65095491495E+02  0.65520945841E+02  0.74470750000E+01 0. -1.
<mgrwt>
<rscale>  0 0.14976267E+02</rscale>
<asrwt>0</asrwt>
<pdfrwt beam="1">  1        2 0.99065667E+00 0.14976267E+02</pdfrwt>
<pdfrwt beam="2">  1       -2 0.99790303E+00 0.14976267E+02</pdfrwt>
<totfact>-0.10387046E-13</totfact>
</mgrwt>
</event>
<event>
 4    1 -0.5167034E-019  0.1491102E+02  0.7818608E-02  0.1870796E+00
         -2   -1    0    0    0  501 -0.00000000000E+00  0.00000000000E+00  0.11972770308E+03  0.11972770311E+03  0.25500000000E-02 0. -1.
          2   -1    0    0  501    0  0.00000000000E+00 -0.00000000000E+00 -0.46425546350E+00  0.46426246659E+00  0.25500000000E-02 0.  1.
         31    1    1    2    0    0  0.17060543406E+00  0.14761410897E+00  0.61836865677E+02  0.62284089292E+02  0.74470750000E+01 0. -1.
        -31    1    1    2    0    0 -0.17060543406E+00 -0.14761410897E+00  0.57426581942E+02  0.57907876284E+02  0.74470750000E+01 0.  1.
<mgrwt>
<rscale>  0 0.14911024E+02</rscale>
<asrwt>0</asrwt>
<pdfrwt beam="2">  1        2 0.98606761E+00 0.14911024E+02</pdfrwt>
<pdfrwt beam="1">  1       -2 0.99383127E+00 0.14911024E+02</pdfrwt>
<totfact>-0.28349063E-13</totfact>
</mgrwt>
</event>
<event>
 4    1 -0.5167034E-019  0.1500336E+02  0.7818608E-02  0.1867966E+00
          2   -1    0    0  501    0  0.00000000000E+00  0.00000000000E+00  0.11997272658E+03  0.11997272661E+03  0.25500000000E-02 0.  1.
         -2   -1    0    0    0  501 -0.00000000000E+00 -0.00000000000E+00 -0.46906318612E+00  0.46907011743E+00  0.25500000000E-02 0. -1.
         31    1    1    2    0    0  0.76849613673E+00  0.21321063641E+00  0.56343742263E+02  0.56839354882E+02  0.74470750000E+01 0. -1.
        -31    1    1    2    0    0 -0.76849613673E+00 -0.21321063641E+00  0.63159921134E+02  0.63602441847E+02  0.74470750000E+01 0.  1.
<mgrwt>
<rscale>  0 0.15003361E+02</rscale>
<asrwt>0</asrwt>
<pdfrwt beam="1">  1        2 0.99589704E+00 0.15003361E+02</pdfrwt>
<pdfrwt beam="2">  1       -2 0.99624704E+00 0.15003361E+02</pdfrwt>
<totfact>-0.97620485E-14</totfact>
</mgrwt>
</event>
<event>
 4    1  0.5167034E-019  0.1492253E+02  0.7818608E-02  0.1870442E+00
          2   -1    0    0  501    0  0.00000000000E+00  0.00000000000E+00  0.11962757088E+03  0.11962757090E+03  0.25500000000E-02 0. -1.
         -2   -1    0    0    0  501 -0.00000000000E+00 -0.00000000000E+00 -0.46536128384E+00  0.46536827029E+00  0.25500000000E-02 0.  1.
         31    1    1    2    0    0 -0.11490812436E-01 -0.40457874444E+00  0.57823096231E+02  0.58302085725E+02  0.74470750000E+01 0.  1.
        -31    1    1    2    0    0  0.11490812436E-01  0.40457874444E+00  0.61339113362E+02  0.61790853450E+02  0.74470750000E+01 0.  1.
<mgrwt>
<rscale>  0 0.14922528E+02</rscale>
<asrwt>0</asrwt>
<pdfrwt beam="1">  1        2 0.99301245E+00 0.14922528E+02</pdfrwt>
<pdfrwt beam="2">  1       -2 0.98840402E+00 0.14922528E+02</pdfrwt>
<totfact> 0.13874306E-13</totfact>
</mgrwt>
</event>
<event>
 4    1 -0.5167034E-019  0.1494321E+02  0.7818608E-02  0.1869806E+00
         -2   -1    0    0    0  501 -0.00000000000E+00  0.00000000000E+00  0.12005366166E+03  0.12005366169E+03  0.25500000000E-02 0. -1.
          2   -1    0    0  501    0  0.00000000000E+00 -0.00000000000E+00 -0.46499576249E+00  0.46500275444E+00  0.25500000000E-02 0.  1.
         31    1    1    2    0    0  0.20498602767E+00  0.39879926993E+00  0.56519452853E+02  0.57009723179E+02  0.74470750000E+01 0.  1.
        -31    1    1    2    0    0 -0.20498602767E+00 -0.39879926993E+00  0.63069213043E+02  0.63508941260E+02  0.74470750000E+01 0. -1.
<mgrwt>
<rscale>  0 0.14943208E+02</rscale>
<asrwt>0</asrwt>
<pdfrwt beam="2">  1        2 0.98764426E+00 0.14943208E+02</pdfrwt>
<pdfrwt beam="1">  1       -2 0.99653264E+00 0.14943208E+02</pdfrwt>
<totfact>-0.20440679E-13</totfact>
</mgrwt>
</event>
<event>
 4    1 -0.5167034E-019  0.1499034E+02  0.7818608E-02  0.1868364E+00
          2   -1    0    0  501    0  0.00000000000E+00  0.00000000000E+00  0.11967719860E+03  0.11967719863E+03  0.25500000000E-02 0.  1.
         -2   -1    0    0    0  501 -0.00000000000E+00 -0.00000000000E+00 -0.46940537926E+00  0.46941230553E+00  0.25500000000E-02 0. -1.
         31    1    1    2    0    0 -0.26385838367E+00  0.82217960216E-01  0.53180777880E+02  0.53700376563E+02  0.74470750000E+01 0. -1.
        -31    1    1    2    0    0  0.26385838367E+00 -0.82217960216E-01  0.66027015342E+02  0.66446234371E+02  0.74470750000E+01 0.  1.
<mgrwt>
<rscale>  0 0.14990335E+02</rscale>
<asrwt>0</asrwt>
<pdfrwt beam="1">  1        2 0.99345624E+00 0.14990335E+02</pdfrwt>
<pdfrwt beam="2">  1       -2 0.99696139E+00 0.14990335E+02</pdfrwt>
<totfact>-0.11005015E-13</totfact>
</mgrwt>
</event>
<event>
 4    1 -0.5167034E-019  0.1489467E+02  0.7818608E-02  0.1871300E+00
         -2   -1    0    0    0  501 -0.00000000000E+00  0.00000000000E+00  0.11940832693E+03  0.11940832696E+03  0.25500000000E-02 0. -1.
          2   -1    0    0  501    0  0.00000000000E+00 -0.00000000000E+00 -0.46447691222E+00  0.46448391197E+00  0.25500000000E-02 0.  1.
         31    1    1    2    0    0 -0.44676976336E-01 -0.33009965063E-01  0.59702443376E+02  0.60165137387E+02  0.74470750000E+01 0.  1.
        -31    1    1    2    0    0  0.44676976336E-01  0.33009965063E-01  0.59241406641E+02  0.59707673482E+02  0.74470750000E+01 0.  1.
<mgrwt>
<rscale>  0 0.14894675E+02</rscale>
<asrwt>0</asrwt>
<pdfrwt beam="2">  1        2 0.98652594E+00 0.14894675E+02</pdfrwt>
<pdfrwt beam="1">  1       -2 0.99119227E+00 0.14894675E+02</pdfrwt>
<totfact>-0.11461683E-13</totfact>
</mgrwt>
</event>
<event>
 4    1 -0.5167034E-019  0.1499938E+02  0.7818608E-02  0.1868087E+00
          2   -1    0    0  501    0  0.00000000000E+00  0.00000000000E+00  0.11989344881E+03  0.11989344883E+03  0.25500000000E-02 0. -1.
         -2   -1    0    0    0  501 -0.00000000000E+00 -0.00000000000E+00 -0.46912449843E+00  0.46913142884E+00  0.25500000000E-02 0.  1.
         31    1    1    2    0    0 -0.52898465563E+00 -0.69891210518E+00  0.58631270445E+02  0.59108824239E+02  0.74470750000E+01 0. -1.
        -31    1    1    2    0    0  0.52898465563E+00  0.69891210518E+00  0.60793053864E+02  0.61253756024E+02  0.74470750000E+01 0.  1.
<mgrwt>
<rscale>  0 0.14999383E+02</rscale>
<asrwt>0</asrwt>
<pdfrwt beam="1">  1        2 0.99524203E+00 0.14999383E+02</pdfrwt>
<pdfrwt beam="2">  1       -2 0.99637419E+00 0.14999383E+02</pdfrwt>
<totfact>-0.10410855E-13</totfact>
</mgrwt>
</event>
<event>
 4    1 -0.5167034E-019  0.1494885E+02  0.7818608E-02  0.1869633E+00
         -2   -1    0    0    0  501 -0.00000000000E+00  0.00000000000E+00  0.11948464999E+03  0.11948465002E+03  0.25500000000E-02 0.  1.
          2   -1    0    0  501    0  0.00000000000E+00 -0.00000000000E+00 -0.46756335713E+00  0.46757031068E+00  0.25500000000E-02 0. -1.
         31    1    1    2    0    0  0.58966702320E+00 -0.24131076208E+00  0.59884792220E+02  0.60349425874E+02  0.74470750000E+01 0.  1.
        -31    1    1    2    0    0 -0.58966702320E+00  0.24131076208E+00  0.59132294417E+02  0.59602794458E+02  0.74470750000E+01 0. -1.
<mgrwt>
<rscale>  0 0.14948855E+02</rscale>
<asrwt>0</asrwt>
<pdfrwt beam="2">  1        2 0.99305821E+00 0.14948855E+02</pdfrwt>
<pdfrwt beam="1">  1       -2 0.99184888E+00 0.14948855E+02</pdfrwt>
<totfact>-0.87014122E-14</totfact>
</mgrwt>
</event>
<event>
 4    1 -0.5167034E-019  0.1492966E+02  0.7818608E-02  0.1870223E+00
         -2   -1    0    0    0  501 -0.00000000000E+00  0.00000000000E+00  0.11989163328E+03  0.11989163330E+03  0.25500000000E-02 0. -1.
          2   -1    0    0  501    0  0.00000000000E+00 -0.00000000000E+00 -0.46478014292E+00  0.46478713811E+00  0.25500000000E-02 0.  1.
         31    1    1    2    0    0  0.37710425262E+00  0.23274778597E+00  0.57605549346E+02  0.58086613093E+02  0.74470750000E+01 0.  1.
        -31    1    1    2    0    0 -0.37710425262E+00 -0.23274778597E+00  0.61821303786E+02  0.62269807347E+02  0.74470750000E+01 0. -1.
<mgrwt>
<rscale>  0 0.14929658E+02</rscale>
<asrwt>0</asrwt>
<pdfrwt beam="2">  1        2 0.98718291E+00 0.14929658E+02</pdfrwt>
<pdfrwt beam="1">  1       -2 0.99519109E+00 0.14929658E+02</pdfrwt>
<totfact>-0.24760403E-13</totfact>
</mgrwt>
</event>
<event>
 4    1  0.5167034E-019  0.1496957E+02  0.7818608E-02  0.1868998E+00
         -2   -1    0    0    0  501 -0.00000000000E+00  0.00000000000E+00  0.11905426233E+03  0.11905426236E+03  0.25500000000E-02 0.  1.
          2   -1    0    0  501    0  0.00000000000E+00 -0.00000000000E+00 -0.47055531253E+00  0.47056222187E+00  0.25500000000E-02 0. -1.
         31    1    1    2    0    0 -0.34350799583E+00  0.42994461575E-01  0.53975952133E+02  0.54488367392E+02  0.74470750000E+01 0. -1.
        -31    1    1    2    0    0  0.34350799583E+00 -0.42994461575E-01  0.64607754888E+02  0.65036457191E+02  0.74470750000E+01 0.  1.
<mgrwt>
<rscale>  0 0.14969573E+02</rscale>
<asrwt>0</asrwt>
<pdfrwt beam="2">  1        2 0.99937363E+00 0.14969573E+02</pdfrwt>
<pdfrwt beam="1">  1       -2 0.98831488E+00 0.14969573E+02</pdfrwt>
<totfact> 0.25006777E-14</totfact>
</mgrwt>
</event>
<event>
 4    1 -0.5167034E-019  0.1498832E+02  0.7818608E-02  0.1868425E+00
          2   -1    0    0  501    0  0.00000000000E+00  0.00000000000E+00  0.11943905580E+03  0.11943905583E+03  0.25500000000E-02 0.  1.
         -2   -1    0    0    0  501 -0.00000000000E+00 -0.00000000000E+00 -0.47021482688E+00  0.47022174122E+00  0.25500000000E-02 0. -1.
         31    1    1    2    0    0  0.35117980474E-03  0.67030873541E+00  0.55450939152E+02  0.55952791644E+02  0.74470750000E+01 0.  1.
        -31    1    1    2    0    0 -0.35117980474E-03 -0.67030873541E+00  0.63517901826E+02  0.63956485929E+02  0.74470750000E+01 0.  1.
<mgrwt>
<rscale>  0 0.14988320E+02</rscale>
<asrwt>0</asrwt>
<pdfrwt beam="1">  1        2 0.99149380E+00 0.14988320E+02</pdfrwt>
<pdfrwt beam="2">  1       -2 0.99866601E+00 0.14988320E+02</pdfrwt>
<totfact>-0.66296319E-14</totfact>
</mgrwt>
</event>
<event>
 4    1 -0.5167034E-019  0.1495502E+02  0.7818608E-02  0.1869444E+00
         -2   -1    0    0    0  501 -0.00000000000E+00  0.00000000000E+00  0.11944695182E+03  0.11944695185E+03  0.25500000000E-02 0. -1.
          2   -1    0    0  501    0  0.00000000000E+00 -0.00000000000E+00 -0.46809701858E+00  0.46810396421E+00  0.25500000000E-02 0.  1.
         31    1    1    2    0    0  0.21562255820E-01  0.49987217089E+00  0.55868554666E+02  0.56364924054E+02  0.74470750000E+01 0.  1.
        -31    1    1    2    0    0 -0.21562255820E-01 -0.49987217089E+00  0.63110300138E+02  0.63550131760E+02  0.74470750000E+01 0. -1.
<mgrwt>
<rscale>  0 0.14955023E+02</rscale>
<asrwt>0</asrwt>
<pdfrwt beam="2">  1        2 0.99418599E+00 0.14955023E+02</pdfrwt>
<pdfrwt beam="1">  1       -2 0.99154158E+00 0.14955023E+02</pdfrwt>
<totfact>-0.68349830E-14</totfact>
</mgrwt>
</event>
<event>
 4    1 -0.5167034E-019  0.1489827E+02  0.7818608E-02  0.1871189E+00
         -2   -1    0    0    0  501 -0.00000000000E+00  0.00000000000E+00  0.12019423092E+03  0.12019423095E+03  0.25500000000E-02 0. -1.
          2   -1    0    0  501    0  0.00000000000E+00 -0.00000000000E+00 -0.46166285553E+00  0.46166989795E+00  0.25500000000E-02 0.  1.
         31    1    1    2    0    0 -0.13276783814E+00 -0.76368623869E-01  0.59176574267E+02  0.59643518739E+02  0.74470750000E+01 0.  1.
        -31    1    1    2    0    0  0.13276783814E+00  0.76368623869E-01  0.60555993797E+02  0.61012382106E+02  0.74470750000E+01 0. -1.
<mgrwt>
<rscale>  0 0.14898274E+02</rscale>
<asrwt>0</asrwt>
<pdfrwt beam="2">  1        2 0.98059683E+00 0.14898274E+02</pdfrwt>
<pdfrwt beam="1">  1       -2 0.99766741E+00 0.14898274E+02</pdfrwt>
<totfact>-0.48620094E-13</totfact>
</mgrwt>
</event>
<event>
 4    1 -0.5167034E-019  0.1489666E+02  0.7818608E-02  0.1871238E+00
          2   -1    0    0  501    0  0.00000000000E+00  0.00000000000E+00  0.11821119587E+03  0.11821119590E+03  0.25500000000E-02 0. -1.
         -2   -1    0    0    0  501 -0.00000000000E+00 -0.00000000000E+00 -0.46930612979E+00  0.46931305752E+00  0.25500000000E-02 0.  1.
         31    1    1    2    0    0 -0.21607702113E-01 -0.38132955572E-01  0.59903713410E+02  0.60364855068E+02  0.74470750000E+01 0. -1.
        -31    1    1    2    0    0  0.21607702113E-01  0.38132955572E-01  0.57838176332E+02  0.58315653889E+02  0.74470750000E+01 0.  1.
<mgrwt>
<rscale>  0 0.14896664E+02</rscale>
<asrwt>0</asrwt>
<pdfrwt beam="1">  1        2 0.98133348E+00 0.14896664E+02</pdfrwt>
<pdfrwt beam="2">  1       -2 0.99670314E+00 0.14896664E+02</pdfrwt>
<totfact>-0.54482422E-13</totfact>
</mgrwt>
</event>
<event>
 4    1 -0.5167034E-019  0.1490729E+02  0.7818608E-02  0.1870911E+00
         -2   -1    0    0    0  501 -0.00000000000E+00  0.00000000000E+00  0.11963292623E+03  0.11963292626E+03  0.25500000000E-02 0.  1.
          2   -1    0    0  501    0  0.00000000000E+00 -0.00000000000E+00 -0.46439080752E+00  0.46439780857E+00  0.25500000000E-02 0. -1.
         31    1    1    2    0    0  0.10129714469E-01  0.74474735117E-01  0.62031548706E+02  0.62477016654E+02  0.74470750000E+01 0.  1.
        -31    1    1    2    0    0 -0.10129714469E-01 -0.74474735117E-01  0.57136986715E+02  0.57620307410E+02  0.74470750000E+01 0. -1.
<mgrwt>
<rscale>  0 0.14907294E+02</rscale>
<asrwt>0</asrwt>
<pdfrwt beam="2">  1        2 0.98635095E+00 0.14907294E+02</pdfrwt>
<pdfrwt beam="1">  1       -2 0.99304870E+00 0.14907294E+02</pdfrwt>
<totfact>-0.24602349E-13</totfact>
</mgrwt>
</event>
<event>
 4    1 -0.5167034E-019  0.1497369E+02  0.7818608E-02  0.1868872E+00
         -2   -1    0    0    0  501 -0.00000000000E+00  0.00000000000E+00  0.12023660472E+03  0.12023660475E+03  0.25500000000E-02 0. -1.
          2   -1    0    0  501    0  0.00000000000E+00 -0.00000000000E+00 -0.46618466559E+00  0.46619163970E+00  0.25500000000E-02 0.  1.
         31    1    1    2    0    0  0.41847432407E+00  0.47167176784E+00  0.56313156265E+02  0.56806936985E+02  0.74470750000E+01 0.  1.
        -31    1    1    2    0    0 -0.41847432407E+00 -0.47167176784E+00  0.63457263793E+02  0.63895859405E+02  0.74470750000E+01 0.  1.
<mgrwt>
<rscale>  0 0.14973695E+02</rscale>
<asrwt>0</asrwt>
<pdfrwt beam="2">  1        2 0.99016549E+00 0.14973695E+02</pdfrwt>
<pdfrwt beam="1">  1       -2 0.99805517E+00 0.14973695E+02</pdfrwt>
<totfact>-0.10217228E-13</totfact>
</mgrwt>
</event>
<event>
 4    1 -0.5167034E-019  0.1498121E+02  0.7818608E-02  0.1868642E+00
          2   -1    0    0  501    0  0.00000000000E+00  0.00000000000E+00  0.11946403703E+03  0.11946403706E+03  0.25500000000E-02 0.  1.
         -2   -1    0    0    0  501 -0.00000000000E+00 -0.00000000000E+00 -0.46967083155E+00  0.46967775390E+00  0.25500000000E-02 0. -1.
         31    1    1    2    0    0 -0.22179262838E+00  0.13419413349E+00  0.65610156428E+02  0.66031952513E+02  0.74470750000E+01 0.  1.
        -31    1    1    2    0    0  0.22179262838E+00 -0.13419413349E+00  0.53384209768E+02  0.53901762296E+02  0.74470750000E+01 0. -1.
<mgrwt>
<rscale>  0 0.14981214E+02</rscale>
<asrwt>0</asrwt>
<pdfrwt beam="1">  1        2 0.99169587E+00 0.14981214E+02</pdfrwt>
<pdfrwt beam="2">  1       -2 0.99751601E+00 0.14981214E+02</pdfrwt>
<totfact>-0.10879158E-13</totfact>
</mgrwt>
</event>
<event>
 4    1  0.5167034E-019  0.1489559E+02  0.7818608E-02  0.1871271E+00
         -2   -1    0    0    0  501 -0.00000000000E+00  0.00000000000E+00  0.11809398365E+03  0.11809398368E+03  0.25500000000E-02 0. -1.
          2   -1    0    0  501    0  0.00000000000E+00 -0.00000000000E+00 -0.46970412747E+00  0.46971104933E+00  0.25500000000E-02 0.  1.
         31    1    1    2    0    0 -0.77868071254E-02  0.90563827075E-01  0.59206526262E+02  0.59673109024E+02  0.74470750000E+01 0. -1.
        -31    1    1    2    0    0  0.77868071254E-02 -0.90563827075E-01  0.58417753260E+02  0.58890585703E+02  0.74470750000E+01 0.  1.
<mgrwt>
<rscale>  0 0.14895589E+02</rscale>
<asrwt>0</asrwt>
<pdfrwt beam="2">  1        2 0.99754112E+00 0.14895589E+02</pdfrwt>
<pdfrwt beam="1">  1       -2 0.98036758E+00 0.14895589E+02</pdfrwt>
<totfact> 0.85273272E-13</totfact>
</mgrwt>
</event>
<event>
 4    1  0.5167034E-019  0.1490746E+02  0.7818608E-02  0.1870906E+00
          2   -1    0    0  501    0  0.00000000000E+00  0.00000000000E+00  0.11980858084E+03  0.11980858087E+03  0.25500000000E-02 0.  1.
         -2   -1    0    0    0  501 -0.00000000000E+00 -0.00000000000E+00 -0.46372028418E+00  0.46372729536E+00  0.25500000000E-02 0. -1.
         31    1    1    2    0    0  0.90088218365E-01 -0.75167013315E-01  0.62030148547E+02  0.62475691439E+02  0.74470750000E+01 0.  1.
        -31    1    1    2    0    0 -0.90088218365E-01  0.75167013315E-01  0.57314712007E+02  0.57796616721E+02  0.74470750000E+01 0. -1.
<mgrwt>
<rscale>  0 0.14907460E+02</rscale>
<asrwt>0</asrwt>
<pdfrwt beam="1">  1        2 0.99449559E+00 0.14907460E+02</pdfrwt>
<pdfrwt beam="2">  1       -2 0.98493787E+00 0.14907460E+02</pdfrwt>
<totfact> 0.51788564E-13</totfact>
</mgrwt>
</event>
<event>
 4    1  0.5167034E-019  0.1492593E+02  0.7818608E-02  0.1870337E+00
         -2   -1    0    0    0  501 -0.00000000000E+00  0.00000000000E+00  0.11838392749E+03  0.11838392751E+03  0.25500000000E-02 0.  1.
          2   -1    0    0  501    0  0.00000000000E+00 -0.00000000000E+00 -0.47046430893E+00  0.47047121961E+00  0.25500000000E-02 0. -1.
         31    1    1    2    0    0 -0.11501859372E+00 -0.86057528634E-01  0.55253628732E+02  0.55753412894E+02  0.74470750000E+01 0. -1.
        -31    1    1    2    0    0  0.11501859372E+00  0.86057528634E-01  0.62659834446E+02  0.63100985841E+02  0.74470750000E+01 0.  1.
<mgrwt>
<rscale>  0 0.14925927E+02</rscale>
<asrwt>0</asrwt>
<pdfrwt beam="2">  1        2 0.99915885E+00 0.14925927E+02</pdfrwt>
<pdfrwt beam="1">  1       -2 0.98277133E+00 0.14925927E+02</pdfrwt>
<totfact> 0.21981215E-13</totfact>
</mgrwt>
</event>
<event>
 4    1  0.5167034E-019  0.1491748E+02  0.7818608E-02  0.1870597E+00
          2   -1    0    0  501    0  0.00000000000E+00  0.00000000000E+00  0.11980198708E+03  0.11980198711E+03  0.25500000000E-02 0. -1.
         -2   -1    0    0    0  501 -0.00000000000E+00 -0.00000000000E+00 -0.46436935524E+00  0.46437635662E+00  0.25500000000E-02 0.  1.
         31    1    1    2    0    0 -0.20531565730E+00 -0.36032036540E+00  0.60018634390E+02  0.60480305764E+02  0.74470750000E+01 0. -1.
        -31    1    1    2    0    0  0.20531565730E+00  0.36032036540E+00  0.59318983340E+02  0.59786057704E+02  0.74470750000E+01 0.  1.
<mgrwt>
<rscale>  0 0.14917479E+02</rscale>
<asrwt>0</asrwt>
<pdfrwt beam="1">  1        2 0.99444644E+00 0.14917479E+02</pdfrwt>
<pdfrwt beam="2">  1       -2 0.98631094E+00 0.14917479E+02</pdfrwt>
<totfact> 0.33775521E-13</totfact>
</mgrwt>
</event>
<event>
 4    1 -0.5167034E-019  0.1501625E+02  0.7818608E-02  0.1867573E+00
         -2   -1    0    0    0  501 -0.00000000000E+00  0.00000000000E+00  0.12021446557E+03  0.12021446560E+03  0.25500000000E-02 0. -1.
          2   -1    0    0  501    0  0.00000000000E+00 -0.00000000000E+00 -0.46892471058E+00  0.46893164394E+00  0.25500000000E-02 0.  1.
         31    1    1    2    0    0 -0.93343913630E+00  0.20333363351E+00  0.59717296476E+02  0.60187432888E+02  0.74470750000E+01 0. -1.
        -31    1    1    2    0    0  0.93343913630E+00 -0.20333363351E+00  0.60028244383E+02  0.60495964353E+02  0.74470750000E+01 0. -1.
<mgrwt>
<rscale>  0 0.15016252E+02</rscale>
<asrwt>0</asrwt>
<pdfrwt beam="2">  1        2 0.99596188E+00 0.15016252E+02</pdfrwt>
<pdfrwt beam="1">  1       -2 0.99789477E+00 0.15016252E+02</pdfrwt>
<totfact>-0.65733511E-14</totfact>
</mgrwt>
</event>
<event>
 4    1  0.5167034E-019  0.1491805E+02  0.7818608E-02  0.1870580E+00
         -2   -1    0    0    0  501 -0.00000000000E+00  0.00000000000E+00  0.11850129567E+03  0.11850129569E+03  0.25500000000E-02 0. -1.
          2   -1    0    0  501    0  0.00000000000E+00 -0.00000000000E+00 -0.46950206875E+00  0.46950899359E+00  0.25500000000E-02 0.  1.
         31    1    1    2    0    0  0.12608839921E+00  0.39973967926E+00  0.58625134191E+02  0.59097723942E+02  0.74470750000E+01 0.  1.
        -31    1    1    2    0    0 -0.12608839921E+00 -0.39973967926E+00  0.59406659406E+02  0.59873080745E+02  0.74470750000E+01 0. -1.
<mgrwt>
<rscale>  0 0.14918045E+02</rscale>
<asrwt>0</asrwt>
<pdfrwt beam="2">  1        2 0.99712727E+00 0.14918045E+02</pdfrwt>
<pdfrwt beam="1">  1       -2 0.98373385E+00 0.14918045E+02</pdfrwt>
<totfact> 0.48252665E-13</totfact>
</mgrwt>
</event>
<event>
 4    1 -0.5167034E-019  0.1503831E+02  0.7818608E-02  0.1866902E+00
          2   -1    0    0  501    0  0.00000000000E+00  0.00000000000E+00  0.12035010179E+03  0.12035010182E+03  0.25500000000E-02 0.  1.
         -2   -1    0    0    0  501 -0.00000000000E+00 -0.00000000000E+00 -0.46977316178E+00  0.46978008262E+00  0.25500000000E-02 0. -1.
         31    1    1    2    0    0  0.39578785401E+00  0.77881584131E+00  0.64453173719E+02  0.64887855032E+02  0.74470750000E+01 0. -1.
        -31    1    1    2    0    0 -0.39578785401E+00 -0.77881584131E+00  0.55427154909E+02  0.55932026867E+02  0.74470750000E+01 0. -1.
<mgrwt>
<rscale>  0 0.15038307E+02</rscale>
<asrwt>0</asrwt>
<pdfrwt beam="1">  1        2 0.99902332E+00 0.15038307E+02</pdfrwt>
<pdfrwt beam="2">  1       -2 0.99776126E+00 0.15038307E+02</pdfrwt>
<totfact>-0.23278962E-14</totfact>
</mgrwt>
</event>
<event>
 4    1 -0.5167034E-019  0.1492510E+02  0.7818608E-02  0.1870363E+00
         -2   -1    0    0    0  501 -0.00000000000E+00  0.00000000000E+00  0.11966461648E+03  0.11966461650E+03  0.25500000000E-02 0.  1.
          2   -1    0    0  501    0  0.00000000000E+00 -0.00000000000E+00 -0.46537774082E+00  0.46538472703E+00  0.25500000000E-02 0. -1.
         31    1    1    2    0    0 -0.42493413518E+00 -0.13775453885E+00  0.61021302147E+02  0.61475668252E+02  0.74470750000E+01 0.  1.
        -31    1    1    2    0    0  0.42493413518E+00  0.13775453885E+00  0.58177936588E+02  0.58654332977E+02  0.74470750000E+01 0. -1.
<mgrwt>
<rscale>  0 0.14925102E+02</rscale>
<asrwt>0</asrwt>
<pdfrwt beam="2">  1        2 0.98844002E+00 0.14925102E+02</pdfrwt>
<pdfrwt beam="1">  1       -2 0.99331890E+00 0.14925102E+02</pdfrwt>
<totfact>-0.19302091E-13</totfact>
</mgrwt>
</event>
<event>
 4    1 -0.5167034E-019  0.1492186E+02  0.7818608E-02  0.1870463E+00
          2   -1    0    0  501    0  0.00000000000E+00  0.00000000000E+00  0.11868567686E+03  0.11868567689E+03  0.25500000000E-02 0. -1.
         -2   -1    0    0    0  501 -0.00000000000E+00 -0.00000000000E+00 -0.46901219306E+00  0.46901912513E+00  0.25500000000E-02 0.  1.
         31    1    1    2    0    0  0.34068852366E+00 -0.10257396877E+00  0.56850779129E+02  0.57337567124E+02  0.74470750000E+01 0.  1.
        -31    1    1    2    0    0 -0.34068852366E+00  0.10257396877E+00  0.61365885541E+02  0.61817128891E+02  0.74470750000E+01 0.  1.
<mgrwt>
<rscale>  0 0.14921856E+02</rscale>
<asrwt>0</asrwt>
<pdfrwt beam="1">  1        2 0.98525439E+00 0.14921856E+02</pdfrwt>
<pdfrwt beam="2">  1       -2 0.99609709E+00 0.14921856E+02</pdfrwt>
<totfact>-0.30930628E-13</totfact>
</mgrwt>
</event>
<event>
 4    1 -0.5167034E-019  0.1499960E+02  0.7818608E-02  0.1868081E+00
         -2   -1    0    0    0  501 -0.00000000000E+00  0.00000000000E+00  0.11999812764E+03  0.11999812767E+03  0.25500000000E-02 0. -1.
          2   -1    0    0  501    0  0.00000000000E+00 -0.00000000000E+00 -0.46872883078E+00  0.46873576704E+00  0.25500000000E-02 0.  1.
         31    1    1    2    0    0  0.19973751260E-02 -0.72127463512E+00  0.63921134994E+02  0.64357522218E+02  0.74470750000E+01 0. -1.
        -31    1    1    2    0    0 -0.19973751260E-02  0.72127463512E+00  0.55608263816E+02  0.56109341217E+02  0.74470750000E+01 0.  1.
<mgrwt>
<rscale>  0 0.14999600E+02</rscale>
<asrwt>0</asrwt>
<pdfrwt beam="2">  1        2 0.99554049E+00 0.14999600E+02</pdfrwt>
<pdfrwt beam="1">  1       -2 0.99610431E+00 0.14999600E+02</pdfrwt>
<totfact>-0.10412212E-13</totfact>
</mgrwt>
</event>
<event>
 4    1  0.5167034E-019  0.1492380E+02  0.7818608E-02  0.1870403E+00
          2   -1    0    0  501    0  0.00000000000E+00  0.00000000000E+00  0.11987276604E+03  0.11987276607E+03  0.25500000000E-02 0.  1.
         -2   -1    0    0    0  501 -0.00000000000E+00 -0.00000000000E+00 -0.46448834460E+00  0.46449534419E+00  0.25500000000E-02 0. -1.
         31    1    1    2    0    0  0.38345476954E+00 -0.26513661394E+00  0.59216023140E+02  0.59684283170E+02  0.74470750000E+01 0. -1.
        -31    1    1    2    0    0 -0.38345476954E+00  0.26513661394E+00  0.60192254557E+02  0.60652978243E+02  0.74470750000E+01 0. -1.
<mgrwt>
<rscale>  0 0.14923796E+02</rscale>
<asrwt>0</asrwt>
<pdfrwt beam="1">  1        2 0.99503267E+00 0.14923796E+02</pdfrwt>
<pdfrwt beam="2">  1       -2 0.98656494E+00 0.14923796E+02</pdfrwt>
<totfact> 0.29093835E-13</totfact>
</mgrwt>
</event>
<event>
 4    1 -0.5167034E-019  0.1491777E+02  0.7818608E-02  0.1870588E+00
         -2   -1    0    0    0  501 -0.00000000000E+00  0.00000000000E+00  0.11968434254E+03  0.11968434257E+03  0.25500000000E-02 0. -1.
          2   -1    0    0  501    0  0.00000000000E+00 -0.00000000000E+00 -0.46484378807E+00  0.46485078230E+00  0.25500000000E-02 0.  1.
         31    1    1    2    0    0  0.12928837660E+00 -0.27587498620E+00  0.57286641654E+02  0.57769464776E+02  0.74470750000E+01 0.  1.
        -31    1    1    2    0    0 -0.12928837660E+00  0.27587498620E+00  0.61932857098E+02  0.62379728573E+02  0.74470750000E+01 0.  1.
<mgrwt>
<rscale>  0 0.14917767E+02</rscale>
<asrwt>0</asrwt>
<pdfrwt beam="2">  1        2 0.98731097E+00 0.14917767E+02</pdfrwt>
<pdfrwt beam="1">  1       -2 0.99347759E+00 0.14917767E+02</pdfrwt>
<totfact>-0.22810309E-13</totfact>
</mgrwt>
</event>
<event>
 4    1 -0.5167034E-019  0.1491760E+02  0.7818608E-02  0.1870594E+00
          2   -1    0    0  501    0  0.00000000000E+00  0.00000000000E+00  0.11859273242E+03  0.11859273245E+03  0.25500000000E-02 0.  1.
         -2   -1    0    0    0  501 -0.00000000000E+00 -0.00000000000E+00 -0.46911181175E+00  0.46911874235E+00  0.25500000000E-02 0. -1.
         31    1    1    2    0    0  0.37675366574E+00  0.95096711636E-01  0.60291889850E+02  0.60751311875E+02  0.74470750000E+01 0. -1.
        -31    1    1    2    0    0 -0.37675366574E+00 -0.95096711636E-01  0.57831730759E+02  0.58310539316E+02  0.74470750000E+01 0. -1.
<mgrwt>
<rscale>  0 0.14917596E+02</rscale>
<asrwt>0</asrwt>
<pdfrwt beam="1">  1        2 0.98448669E+00 0.14917596E+02</pdfrwt>
<pdfrwt beam="2">  1       -2 0.99630476E+00 0.14917596E+02</pdfrwt>
<totfact>-0.34138615E-13</totfact>
</mgrwt>
</event>
<event>
 4    1  0.5167034E-019  0.1491584E+02  0.7818608E-02  0.1870648E+00
         -2   -1    0    0    0  501 -0.00000000000E+00  0.00000000000E+00  0.11830766184E+03  0.11830766186E+03  0.25500000000E-02 0. -1.
          2   -1    0    0  501    0  0.00000000000E+00 -0.00000000000E+00 -0.47013121061E+00  0.47013812618E+00  0.25500000000E-02 0.  1.
         31    1    1    2    0    0 -0.86921671314E-01 -0.23433993512E+00  0.61426098921E+02  0.61876385037E+02  0.74470750000E+01 0. -1.
        -31    1    1    2    0    0  0.86921671314E-01  0.23433993512E+00  0.56411431706E+02  0.56901414954E+02  0.74470750000E+01 0.  1.
<mgrwt>
<rscale>  0 0.14915835E+02</rscale>
<asrwt>0</asrwt>
<pdfrwt beam="2">  1        2 0.99845169E+00 0.14915835E+02</pdfrwt>
<pdfrwt beam="1">  1       -2 0.98213795E+00 0.14915835E+02</pdfrwt>
<totfact> 0.42675620E-13</totfact>
</mgrwt>
</event>
<event>
 4    1  0.5167034E-019  0.1490000E+02  0.7818608E-02  0.1871136E+00
         -2   -1    0    0    0  501 -0.00000000000E+00  0.00000000000E+00  0.11870544403E+03  0.11870544406E+03  0.25500000000E-02 0.  1.
          2   -1    0    0  501    0  0.00000000000E+00 -0.00000000000E+00 -0.46756127453E+00  0.46756822812E+00  0.25500000000E-02 0. -1.
         31    1    1    2    0    0 -0.18473673591E+00  0.86168686147E-01  0.59477160036E+02  0.59941913922E+02  0.74470750000E+01 0. -1.
        -31    1    1    2    0    0  0.18473673591E+00 -0.86168686147E-01  0.58760722721E+02  0.59231098364E+02  0.74470750000E+01 0. -1.
<mgrwt>
<rscale>  0 0.14899998E+02</rscale>
<asrwt>0</asrwt>
<pdfrwt beam="2">  1        2 0.99302839E+00 0.14899998E+02</pdfrwt>
<pdfrwt beam="1">  1       -2 0.98540585E+00 0.14899998E+02</pdfrwt>
<totfact> 0.50750439E-13</totfact>
</mgrwt>
</event>
<event>
 4    1  0.5167034E-019  0.1490548E+02  0.7818608E-02  0.1870966E+00
          2   -1    0    0  501    0  0.00000000000E+00  0.00000000000E+00  0.12029541192E+03  0.12029541195E+03  0.25500000000E-02 0. -1.
         -2   -1    0    0    0  501 -0.00000000000E+00 -0.00000000000E+00 -0.46172107644E+00  0.46172811798E+00  0.25500000000E-02 0.  1.
         31    1    1    2    0    0 -0.26219888585E+00 -0.69761804311E-01  0.60759281364E+02  0.61214563732E+02  0.74470750000E+01 0. -1.
        -31    1    1    2    0    0  0.26219888585E+00  0.69761804311E-01  0.59074409478E+02  0.59542576331E+02  0.74470750000E+01 0.  1.
<mgrwt>
<rscale>  0 0.14905483E+02</rscale>
<asrwt>0</asrwt>
<pdfrwt beam="1">  1        2 0.99850452E+00 0.14905483E+02</pdfrwt>
<pdfrwt beam="2">  1       -2 0.98072318E+00 0.14905483E+02</pdfrwt>
<totfact> 0.54196290E-13</totfact>
</mgrwt>
</event>
<event>
 4    1 -0.5167034E-019  0.1500782E+02  0.7818608E-02  0.1867830E+00
          2   -1    0    0  501    0  0.00000000000E+00  0.00000000000E+00  0.12010676884E+03  0.12010676886E+03  0.25500000000E-02 0. -1.
         -2   -1    0    0    0  501 -0.00000000000E+00 -0.00000000000E+00 -0.46881818239E+00  0.46882511733E+00  0.25500000000E-02 0.  1.
         31    1    1    2    0    0 -0.29003451422E+00 -0.84047765280E+00  0.61773909379E+02  0.62227528705E+02  0.74470750000E+01 0.  1.
        -31    1    1    2    0    0  0.29003451422E+00  0.84047765280E+00  0.57864041275E+02  0.58348065276E+02  0.74470750000E+01 0. -1.
<mgrwt>
<rscale>  0 0.15007819E+02</rscale>
<asrwt>0</asrwt>
<pdfrwt beam="1">  1        2 0.99700337E+00 0.15007819E+02</pdfrwt>
<pdfrwt beam="2">  1       -2 0.99573303E+00 0.15007819E+02</pdfrwt>
<totfact>-0.84697304E-14</totfact>
</mgrwt>
</event>
<event>
 4    1 -0.5167034E-019  0.1491953E+02  0.7818608E-02  0.1870534E+00
         -2   -1    0    0    0  501 -0.00000000000E+00  0.00000000000E+00  0.12003542001E+03  0.12003542003E+03  0.25500000000E-02 0.  1.
          2   -1    0    0  501    0  0.00000000000E+00 -0.00000000000E+00 -0.46359400287E+00  0.46360101596E+00  0.25500000000E-02 0. -1.
         31    1    1    2    0    0 -0.35996483246E+00 -0.15126233722E+00  0.61334092703E+02  0.61785777560E+02  0.74470750000E+01 0.  1.
        -31    1    1    2    0    0  0.35996483246E+00  0.15126233722E+00  0.58237733301E+02  0.58713243489E+02  0.74470750000E+01 0. -1.
<mgrwt>
<rscale>  0 0.14919534E+02</rscale>
<asrwt>0</asrwt>
<pdfrwt beam="2">  1        2 0.98467786E+00 0.14919534E+02</pdfrwt>
<pdfrwt beam="1">  1       -2 0.99637021E+00 0.14919534E+02</pdfrwt>
<totfact>-0.32780840E-13</totfact>
</mgrwt>
</event>
<event>
 4    1  0.5167034E-019  0.1491881E+02  0.7818608E-02  0.1870556E+00
          2   -1    0    0  501    0  0.00000000000E+00  0.00000000000E+00  0.11997653938E+03  0.11997653940E+03  0.25500000000E-02 0.  1.
         -2   -1    0    0    0  501 -0.00000000000E+00 -0.00000000000E+00 -0.46377630647E+00  0.46378331680E+00  0.25500000000E-02 0. -1.
         31    1    1    2    0    0 -0.25755034790E+00  0.34247955812E+00  0.59657637387E+02  0.60122177681E+02  0.74470750000E+01 0. -1.
        -31    1    1    2    0    0  0.25755034790E+00 -0.34247955812E+00  0.59855125684E+02  0.60318145041E+02  0.74470750000E+01 0.  1.
<mgrwt>
<rscale>  0 0.14918807E+02</rscale>
<asrwt>0</asrwt>
<pdfrwt beam="1">  1        2 0.99588486E+00 0.14918807E+02</pdfrwt>
<pdfrwt beam="2">  1       -2 0.98506172E+00 0.14918807E+02</pdfrwt>
<totfact> 0.42848593E-13</totfact>
</mgrwt>
</event>
<event>
 4    1 -0.5167034E-019  0.1494781E+02  0.7818608E-02  0.1869665E+00
         -2   -1    0    0    0  501 -0.00000000000E+00  0.00000000000E+00  0.11996425053E+03  0.11996425055E+03  0.25500000000E-02 0. -1.
          2   -1    0    0  501    0  0.00000000000E+00 -0.00000000000E+00 -0.46562898963E+00  0.46563597207E+00  0.25500000000E-02 0.  1.
         31    1    1    2    0    0  0.35136897901E+00  0.50102383198E+00  0.61044503702E+02  0.61500120677E+02  0.74470750000E+01 0.  1.
        -31    1    1    2    0    0 -0.35136897901E+00 -0.50102383198E+00  0.58454117836E+02  0.58929765849E+02  0.74470750000E+01 0. -1.
<mgrwt>
<rscale>  0 0.14947810E+02</rscale>
<asrwt>0</asrwt>
<pdfrwt beam="2">  1        2 0.98898116E+00 0.14947810E+02</pdfrwt>
<pdfrwt beam="1">  1       -2 0.99579856E+00 0.14947810E+02</pdfrwt>
<totfact>-0.18993490E-13</totfact>
</mgrwt>
</event>
<event>
 4    1 -0.5167034E-019  0.1491693E+02  0.7818608E-02  0.1870614E+00
          2   -1    0    0  501    0  0.00000000000E+00  0.00000000000E+00  0.11891623626E+03  0.11891623629E+03  0.25500000000E-02 0.  1.
         -2   -1    0    0    0  501 -0.00000000000E+00 -0.00000000000E+00 -0.46779397649E+00  0.46780092661E+00  0.25500000000E-02 0. -1.
         31    1    1    2    0    0 -0.40961021920E-01 -0.38828271206E+00  0.60278350689E+02  0.60737887098E+02  0.74470750000E+01 0. -1.
        -31    1    1    2    0    0  0.40961021920E-01  0.38828271206E+00  0.58170091593E+02  0.58646150115E+02  0.74470750000E+01 0.  1.
<mgrwt>
<rscale>  0 0.14916932E+02</rscale>
<asrwt>0</asrwt>
<pdfrwt beam="1">  1        2 0.98715075E+00 0.14916932E+02</pdfrwt>
<pdfrwt beam="2">  1       -2 0.99352758E+00 0.14916932E+02</pdfrwt>
<totfact>-0.23462424E-13</totfact>
</mgrwt>
</event>
<event>
 4    1 -0.5167034E-019  0.1497708E+02  0.7818608E-02  0.1868769E+00
          2   -1    0    0  501    0  0.00000000000E+00  0.00000000000E+00  0.12010450368E+03  0.12010450370E+03  0.25500000000E-02 0.  1.
         -2   -1    0    0    0  501 -0.00000000000E+00 -0.00000000000E+00 -0.46690858127E+00  0.46691554457E+00  0.25500000000E-02 0. -1.
         31    1    1    2    0    0  0.19060219757E+00 -0.41514156644E+00  0.54659963819E+02  0.55166830999E+02  0.74470750000E+01 0. -1.
        -31    1    1    2    0    0 -0.19060219757E+00  0.41514156644E+00  0.64977631275E+02  0.65404588248E+02  0.74470750000E+01 0. -1.
<mgrwt>
<rscale>  0 0.14977082E+02</rscale>
<asrwt>0</asrwt>
<pdfrwt beam="1">  1        2 0.99696885E+00 0.14977082E+02</pdfrwt>
<pdfrwt beam="2">  1       -2 0.99169288E+00 0.14977082E+02</pdfrwt>
<totfact>-0.51098881E-14</totfact>
</mgrwt>
</event>
<event>
 4    1  0.5167034E-019  0.1493150E+02  0.7818608E-02  0.1870166E+00
          2   -1    0    0  501    0  0.00000000000E+00  0.00000000000E+00  0.12002967129E+03  0.12002967132E+03  0.25500000000E-02 0. -1.
         -2   -1    0    0    0  501 -0.00000000000E+00 -0.00000000000E+00 -0.46436004988E+00  0.46436705140E+00  0.25500000000E-02 0.  1.
         31    1    1    2    0    0  0.16500369905E+00 -0.47957287256E+00  0.60959439605E+02  0.61414732917E+02  0.74470750000E+01 0.  1.
        -31    1    1    2    0    0 -0.16500369905E+00  0.47957287256E+00  0.58605871635E+02  0.59079305451E+02  0.74470750000E+01 0. -1.
<mgrwt>
<rscale>  0 0.14931498E+02</rscale>
<asrwt>0</asrwt>
<pdfrwt beam="1">  1        2 0.99632901E+00 0.14931498E+02</pdfrwt>
<pdfrwt beam="2">  1       -2 0.98629848E+00 0.14931498E+02</pdfrwt>
<totfact> 0.27048621E-13</totfact>
</mgrwt>
</event>
<event>
 4    1 -0.5167034E-019  0.1499980E+02  0.7818608E-02  0.1868074E+00
         -2   -1    0    0    0  501 -0.00000000000E+00  0.00000000000E+00  0.12007967757E+03  0.12007967760E+03  0.25500000000E-02 0.  1.
          2   -1    0    0  501    0  0.00000000000E+00 -0.00000000000E+00 -0.46842326727E+00  0.46843020806E+00  0.25500000000E-02 0. -1.
         31    1    1    2    0    0 -0.37833231522E-01 -0.78696881450E+00  0.56503186291E+02  0.56997278342E+02  0.74470750000E+01 0.  1.
        -31    1    1    2    0    0  0.37833231522E-01  0.78696881450E+00  0.63108068016E+02  0.63550829468E+02  0.74470750000E+01 0.  1.
<mgrwt>
<rscale>  0 0.14999805E+02</rscale>
<asrwt>0</asrwt>
<pdfrwt beam="2">  1        2 0.99489666E+00 0.14999805E+02</pdfrwt>
<pdfrwt beam="1">  1       -2 0.99677610E+00 0.14999805E+02</pdfrwt>
<totfact>-0.10104407E-13</totfact>
</mgrwt>
</event>
<event>
 4    1 -0.5167034E-019  0.1490497E+02  0.7818608E-02  0.1870982E+00
         -2   -1    0    0    0  501 -0.00000000000E+00  0.00000000000E+00  0.12002892205E+03  0.12002892208E+03  0.25500000000E-02 0. -1.
          2   -1    0    0  501    0  0.00000000000E+00 -0.00000000000E+00 -0.46271466512E+00  0.46272169153E+00  0.25500000000E-02 0.  1.
         31    1    1    2    0    0  0.33402115674E-01  0.60734592787E-02  0.62062283453E+02  0.62507496399E+02  0.74470750000E+01 0. -1.
        -31    1    1    2    0    0 -0.33402115674E-01 -0.60734592787E-02  0.57503923932E+02  0.57984147370E+02  0.74470750000E+01 0.  1.
<mgrwt>
<rscale>  0 0.14904975E+02</rscale>
<asrwt>0</asrwt>
<pdfrwt beam="2">  1        2 0.98281714E+00 0.14904975E+02</pdfrwt>
<pdfrwt beam="1">  1       -2 0.99630921E+00 0.14904975E+02</pdfrwt>
<totfact>-0.45135227E-13</totfact>
</mgrwt>
</event>
<event>
 4    1 -0.5167034E-019  0.1490504E+02  0.7818608E-02  0.1870980E+00
          2   -1    0    0  501    0  0.00000000000E+00  0.00000000000E+00  0.11840750061E+03  0.11840750063E+03  0.25500000000E-02 0.  1.
         -2   -1    0    0    0  501 -0.00000000000E+00 -0.00000000000E+00 -0.46905538720E+00  0.46906231864E+00  0.25500000000E-02 0. -1.
         31    1    1    2    0    0 -0.27123528380E+00  0.42344070369E-01  0.58361714098E+02  0.58835567135E+02  0.74470750000E+01 0. -1.
        -31    1    1    2    0    0  0.27123528380E+00 -0.42344070369E-01  0.59576731122E+02  0.60040995818E+02  0.74470750000E+01 0. -1.
<mgrwt>
<rscale>  0 0.14905045E+02</rscale>
<asrwt>0</asrwt>
<pdfrwt beam="1">  1        2 0.98295460E+00 0.14905045E+02</pdfrwt>
<pdfrwt beam="2">  1       -2 0.99617926E+00 0.14905045E+02</pdfrwt>
<totfact>-0.44852974E-13</totfact>
</mgrwt>
</event>
<event>
 4    1 -0.5167034E-019  0.1499109E+02  0.7818608E-02  0.1868341E+00
          2   -1    0    0  501    0  0.00000000000E+00  0.00000000000E+00  0.11988044535E+03  0.11988044538E+03  0.25500000000E-02 0.  1.
         -2   -1    0    0    0  501 -0.00000000000E+00 -0.00000000000E+00 -0.46865644896E+00  0.46866338630E+00  0.25500000000E-02 0. -1.
         31    1    1    2    0    0  0.43755342103E+00  0.21338057028E+00  0.54102039759E+02  0.54614344420E+02  0.74470750000E+01 0. -1.
        -31    1    1    2    0    0 -0.43755342103E+00 -0.21338057028E+00  0.65309749147E+02  0.65734764348E+02  0.74470750000E+01 0.  1.
<mgrwt>
<rscale>  0 0.14991086E+02</rscale>
<asrwt>0</asrwt>
<pdfrwt beam="1">  1        2 0.99513064E+00 0.14991086E+02</pdfrwt>
<pdfrwt beam="2">  1       -2 0.99538356E+00 0.14991086E+02</pdfrwt>
<totfact>-0.11598086E-13</totfact>
</mgrwt>
</event>
<event>
 4    1 -0.5167034E-019  0.1500323E+02  0.7818608E-02  0.1867970E+00
          2   -1    0    0  501    0  0.00000000000E+00  0.00000000000E+00  0.12000105311E+03  0.12000105314E+03  0.25500000000E-02 0. -1.
         -2   -1    0    0    0  501 -0.00000000000E+00 -0.00000000000E+00 -0.46894455928E+00  0.46895149236E+00  0.25500000000E-02 0.  1.
         31    1    1    2    0    0  0.82609030760E+00  0.13960801658E+00  0.62470237419E+02  0.62918132560E+02  0.74470750000E+01 0.  1.
        -31    1    1    2    0    0 -0.82609030760E+00 -0.13960801658E+00  0.57061871135E+02  0.57551872073E+02  0.74470750000E+01 0. -1.
<mgrwt>
<rscale>  0 0.15003234E+02</rscale>
<asrwt>0</asrwt>
<pdfrwt beam="1">  1        2 0.99613029E+00 0.15003234E+02</pdfrwt>
<pdfrwt beam="2">  1       -2 0.99599699E+00 0.15003234E+02</pdfrwt>
<totfact>-0.97173677E-14</totfact>
</mgrwt>
</event>
<event>
 4    1 -0.5167034E-019  0.1497086E+02  0.7818608E-02  0.1868959E+00
          2   -1    0    0  501    0  0.00000000000E+00  0.00000000000E+00  0.11950830503E+03  0.11950830506E+03  0.25500000000E-02 0.  1.
         -2   -1    0    0    0  501 -0.00000000000E+00 -0.00000000000E+00 -0.46884806083E+00  0.46885499532E+00  0.25500000000E-02 0. -1.
         31    1    1    2    0    0  0.29715752674E+00 -0.66177231378E+00  0.61247558455E+02  0.61702905830E+02  0.74470750000E+01 0.  1.
        -31    1    1    2    0    0 -0.29715752674E+00  0.66177231378E+00  0.57791898517E+02  0.58274254224E+02  0.74470750000E+01 0.  1.
<mgrwt>
<rscale>  0 0.14970859E+02</rscale>
<asrwt>0</asrwt>
<pdfrwt beam="1">  1        2 0.99205510E+00 0.14970859E+02</pdfrwt>
<pdfrwt beam="2">  1       -2 0.99577685E+00 0.14970859E+02</pdfrwt>
<totfact>-0.14457195E-13</totfact>
</mgrwt>
</event>
<event>
 4    1 -0.5167034E-019  0.1490597E+02  0.7818608E-02  0.1870952E+00
          2   -1    0    0  501    0  0.00000000000E+00  0.00000000000E+00  0.11817769415E+03  0.11817769417E+03  0.25500000000E-02 0.  1.
         -2   -1    0    0    0  501 -0.00000000000E+00 -0.00000000000E+00 -0.47002561992E+00  0.47003253705E+00  0.25500000000E-02 0. -1.
         31    1    1    2    0    0 -0.51903094127E-02 -0.18770907789E+00  0.60682294872E+02  0.61137836882E+02  0.74470750000E+01 0.  1.
        -31    1    1    2    0    0  0.51903094127E-02  0.18770907789E+00  0.57025373655E+02  0.57509889830E+02  0.74470750000E+01 0. -1.
<mgrwt>
<rscale>  0 0.14905966E+02</rscale>
<asrwt>0</asrwt>
<pdfrwt beam="1">  1        2 0.98106242E+00 0.14905966E+02</pdfrwt>
<pdfrwt beam="2">  1       -2 0.99822398E+00 0.14905966E+02</pdfrwt>
<totfact>-0.36192901E-13</totfact>
</mgrwt>
</event>
<event>
 4    1 -0.5167034E-019  0.1500336E+02  0.7818608E-02  0.1867966E+00
          2   -1    0    0  501    0  0.00000000000E+00  0.00000000000E+00  0.11997764078E+03  0.11997764081E+03  0.25500000000E-02 0.  1.
         -2   -1    0    0    0  501 -0.00000000000E+00 -0.00000000000E+00 -0.46904369054E+00  0.46905062215E+00  0.25500000000E-02 0. -1.
         31    1    1    2    0    0 -0.78761695949E+00  0.36194293562E+00  0.61799548711E+02  0.62252666530E+02  0.74470750000E+01 0.  1.
        -31    1    1    2    0    0  0.78761695949E+00 -0.36194293562E+00  0.57709048377E+02  0.58194024898E+02  0.74470750000E+01 0. -1.
<mgrwt>
<rscale>  0 0.15003356E+02</rscale>
<asrwt>0</asrwt>
<pdfrwt beam="1">  1        2 0.99593752E+00 0.15003356E+02</pdfrwt>
<pdfrwt beam="2">  1       -2 0.99620595E+00 0.15003356E+02</pdfrwt>
<totfact>-0.97577842E-14</totfact>
</mgrwt>
</event>
<event>
 4    1 -0.5167034E-019  0.1496883E+02  0.7818608E-02  0.1869021E+00
          2   -1    0    0  501    0  0.00000000000E+00  0.00000000000E+00  0.11903898441E+03  0.11903898444E+03  0.25500000000E-02 0. -1.
         -2   -1    0    0    0  501 -0.00000000000E+00 -0.00000000000E+00 -0.47056887941E+00  0.47057578854E+00  0.25500000000E-02 0.  1.
         31    1    1    2    0    0 -0.61105675042E+00 -0.33928181313E+00  0.57186593228E+02  0.57673684411E+02  0.74470750000E+01 0.  1.
        -31    1    1    2    0    0  0.61105675042E+00  0.33928181313E+00  0.61381822301E+02  0.61835875813E+02  0.74470750000E+01 0. -1.
<mgrwt>
<rscale>  0 0.14968828E+02</rscale>
<asrwt>0</asrwt>
<pdfrwt beam="1">  1        2 0.98818866E+00 0.14968828E+02</pdfrwt>
<pdfrwt beam="2">  1       -2 0.99940182E+00 0.14968828E+02</pdfrwt>
<totfact>-0.43771330E-14</totfact>
</mgrwt>
</event>
<event>
 4    1 -0.5167034E-019  0.1491390E+02  0.7818608E-02  0.1870707E+00
          2   -1    0    0  501    0  0.00000000000E+00  0.00000000000E+00  0.11821350502E+03  0.11821350505E+03  0.25500000000E-02 0.  1.
         -2   -1    0    0    0  501 -0.00000000000E+00 -0.00000000000E+00 -0.47038356304E+00  0.47039047491E+00  0.25500000000E-02 0. -1.
         31    1    1    2    0    0 -0.10111544681E+00  0.27212949443E+00  0.60867348162E+02  0.61321915145E+02  0.74470750000E+01 0.  1.
        -31    1    1    2    0    0  0.10111544681E+00 -0.27212949443E+00  0.56875773297E+02  0.57361980379E+02  0.74470750000E+01 0.  1.
<mgrwt>
<rscale>  0 0.14913900E+02</rscale>
<asrwt>0</asrwt>
<pdfrwt beam="1">  1        2 0.98136149E+00 0.14913900E+02</pdfrwt>
<pdfrwt beam="2">  1       -2 0.99898234E+00 0.14913900E+02</pdfrwt>
<totfact>-0.21090587E-13</totfact>
</mgrwt>
</event>
<event>
 4    1  0.5167034E-019  0.1489464E+02  0.7818608E-02  0.1871301E+00
         -2   -1    0    0    0  501 -0.00000000000E+00  0.00000000000E+00  0.11805773433E+03  0.11805773436E+03  0.25500000000E-02 0. -1.
          2   -1    0    0  501    0  0.00000000000E+00 -0.00000000000E+00 -0.46978841669E+00  0.46979533731E+00  0.25500000000E-02 0.  1.
         31    1    1    2    0    0  0.19657341486E-01  0.20561624904E-01  0.59217501921E+02  0.59683936440E+02  0.74470750000E+01 0. -1.
        -31    1    1    2    0    0 -0.19657341486E-01 -0.20561624904E-01  0.58370443994E+02  0.58843593256E+02  0.74470750000E+01 0.  1.
<mgrwt>
<rscale>  0 0.14894639E+02</rscale>
<asrwt>0</asrwt>
<pdfrwt beam="2">  1        2 0.99771821E+00 0.14894639E+02</pdfrwt>
<pdfrwt beam="1">  1       -2 0.98006855E+00 0.14894639E+02</pdfrwt>
<totfact> 0.84930812E-13</totfact>
</mgrwt>
</event>
<event>
 4    1  0.5167034E-019  0.1489799E+02  0.7818608E-02  0.1871197E+00
          2   -1    0    0  501    0  0.00000000000E+00  0.00000000000E+00  0.11974117125E+03  0.11974117127E+03  0.25500000000E-02 0. -1.
         -2   -1    0    0    0  501 -0.00000000000E+00 -0.00000000000E+00 -0.46339185480E+00  0.46339887095E+00  0.25500000000E-02 0.  1.
         31    1    1    2    0    0 -0.43645193267E-01  0.85965281835E-01  0.58518389648E+02  0.58990424206E+02  0.74470750000E+01 0.  1.
        -31    1    1    2    0    0  0.43645193267E-01 -0.85965281835E-01  0.60759389745E+02  0.61214145940E+02  0.74470750000E+01 0. -1.
<mgrwt>
<rscale>  0 0.14897987E+02</rscale>
<asrwt>0</asrwt>
<pdfrwt beam="1">  1        2 0.99393549E+00 0.14897987E+02</pdfrwt>
<pdfrwt beam="2">  1       -2 0.98424086E+00 0.14897987E+02</pdfrwt>
<totfact> 0.65395905E-13</totfact>
</mgrwt>
</event>
<event>
 4    1 -0.5167034E-019  0.1501754E+02  0.7818608E-02  0.1867534E+00
         -2   -1    0    0    0  501 -0.00000000000E+00  0.00000000000E+00  0.12022730382E+03  0.12022730384E+03  0.25500000000E-02 0.  1.
          2   -1    0    0  501    0  0.00000000000E+00 -0.00000000000E+00 -0.46895531599E+00  0.46896224890E+00  0.25500000000E-02 0. -1.
         31    1    1    2    0    0  0.55144312859E+00  0.69518114268E+00  0.62836107397E+02  0.63282088187E+02  0.74470750000E+01 0.  1.
        -31    1    1    2    0    0 -0.55144312859E+00 -0.69518114268E+00  0.56922241102E+02  0.57414177904E+02  0.74470750000E+01 0. -1.
<mgrwt>
<rscale>  0 0.15017544E+02</rscale>
<asrwt>0</asrwt>
<pdfrwt beam="2">  1        2 0.99602704E+00 0.15017544E+02</pdfrwt>
<pdfrwt beam="1">  1       -2 0.99800117E+00 0.15017544E+02</pdfrwt>
<totfact>-0.62475268E-14</totfact>
</mgrwt>
</event>
<event>
 4    1 -0.5167034E-019  0.1493060E+02  0.7818608E-02  0.1870194E+00
         -2   -1    0    0    0  501 -0.00000000000E+00  0.00000000000E+00  0.11998131710E+03  0.11998131712E+03  0.25500000000E-02 0.  1.
          2   -1    0    0  501    0  0.00000000000E+00 -0.00000000000E+00 -0.46449112563E+00  0.46449812517E+00  0.25500000000E-02 0. -1.
         31    1    1    2    0    0 -0.23150825223E+00  0.26744013483E+00  0.62847510798E+02  0.63288179464E+02  0.74470750000E+01 0. -1.
        -31    1    1    2    0    0  0.23150825223E+00 -0.26744013483E+00  0.56669315173E+02  0.57157635785E+02  0.74470750000E+01 0. -1.
<mgrwt>
<rscale>  0 0.14930597E+02</rscale>
<asrwt>0</asrwt>
<pdfrwt beam="2">  1        2 0.98657427E+00 0.14930597E+02</pdfrwt>
<pdfrwt beam="1">  1       -2 0.99593027E+00 0.14930597E+02</pdfrwt>
<totfact>-0.25689781E-13</totfact>
</mgrwt>
</event>
<event>
 4    1 -0.5167034E-019  0.1501863E+02  0.7818608E-02  0.1867501E+00
         -2   -1    0    0    0  501 -0.00000000000E+00  0.00000000000E+00  0.12007966587E+03  0.12007966590E+03  0.25500000000E-02 0. -1.
          2   -1    0    0  501    0  0.00000000000E+00 -0.00000000000E+00 -0.46959983633E+00  0.46960675972E+00  0.25500000000E-02 0.  1.
         31    1    1    2    0    0 -0.84339989253E+00  0.14883344739E+00  0.63371336980E+02  0.63813155004E+02  0.74470750000E+01 0. -1.
        -31    1    1    2    0    0  0.84339989253E+00 -0.14883344739E+00  0.56238729052E+02  0.56736117652E+02  0.74470750000E+01 0.  1.
<mgrwt>
<rscale>  0 0.15018630E+02</rscale>
<asrwt>0</asrwt>
<pdfrwt beam="2">  1        2 0.99738584E+00 0.15018630E+02</pdfrwt>
<pdfrwt beam="1">  1       -2 0.99678573E+00 0.15018630E+02</pdfrwt>
<totfact>-0.66955203E-14</totfact>
</mgrwt>
</event>
<event>
 4    1  0.5167034E-019  0.1491896E+02  0.7818608E-02  0.1870552E+00
         -2   -1    0    0    0  501 -0.00000000000E+00  0.00000000000E+00  0.11833656427E+03  0.11833656430E+03  0.25500000000E-02 0. -1.
          2   -1    0    0  501    0  0.00000000000E+00 -0.00000000000E+00 -0.47021324635E+00  0.47022016072E+00  0.25500000000E-02 0.  1.
         31    1    1    2    0    0  0.38791550698E-01 -0.41466607584E+00  0.58080911431E+02  0.58557874376E+02  0.74470750000E+01 0. -1.
        -31    1    1    2    0    0 -0.38791550698E-01  0.41466607584E+00  0.59785439597E+02  0.60248910087E+02  0.74470750000E+01 0.  1.
<mgrwt>
<rscale>  0 0.14918959E+02</rscale>
<asrwt>0</asrwt>
<pdfrwt beam="2">  1        2 0.99862619E+00 0.14918959E+02</pdfrwt>
<pdfrwt beam="1">  1       -2 0.98237762E+00 0.14918959E+02</pdfrwt>
<totfact> 0.36764699E-13</totfact>
</mgrwt>
</event>
<event>
 4    1 -0.5167034E-019  0.1494719E+02  0.7818608E-02  0.1869684E+00
          2   -1    0    0  501    0  0.00000000000E+00  0.00000000000E+00  0.11935603050E+03  0.11935603052E+03  0.25500000000E-02 0.  1.
         -2   -1    0    0    0  501 -0.00000000000E+00 -0.00000000000E+00 -0.46796309656E+00  0.46797004417E+00  0.25500000000E-02 0. -1.
         31    1    1    2    0    0  0.43390537571E+00  0.41888210512E+00  0.60877469677E+02  0.61334239837E+02  0.74470750000E+01 0.  1.
        -31    1    1    2    0    0 -0.43390537571E+00 -0.41888210512E+00  0.58010597724E+02  0.58489760731E+02  0.74470750000E+01 0.  1.
<mgrwt>
<rscale>  0 0.14947192E+02</rscale>
<asrwt>0</asrwt>
<pdfrwt beam="1">  1        2 0.99078867E+00 0.14947192E+02</pdfrwt>
<pdfrwt beam="2">  1       -2 0.99389971E+00 0.14947192E+02</pdfrwt>
<totfact>-0.16164613E-13</totfact>
</mgrwt>
</event>
<event>
 4    1  0.5167034E-019  0.1492063E+02  0.7818608E-02  0.1870500E+00
         -2   -1    0    0    0  501 -0.00000000000E+00  0.00000000000E+00  0.11877411827E+03  0.11877411830E+03  0.25500000000E-02 0.  1.
          2   -1    0    0  501    0  0.00000000000E+00 -0.00000000000E+00 -0.46858569750E+00  0.46859263588E+00  0.25500000000E-02 0. -1.
         31    1    1    2    0    0 -0.68826004076E-01 -0.26271471834E+00  0.56343260655E+02  0.56833930915E+02  0.74470750000E+01 0. -1.
        -31    1    1    2    0    0  0.68826004076E-01  0.26271471834E+00  0.61962271920E+02  0.62408780020E+02  0.74470750000E+01 0.  1.
<mgrwt>
<rscale>  0 0.14920626E+02</rscale>
<asrwt>0</asrwt>
<pdfrwt beam="2">  1        2 0.99519778E+00 0.14920626E+02</pdfrwt>
<pdfrwt beam="1">  1       -2 0.98598216E+00 0.14920626E+02</pdfrwt>
<totfact> 0.35130195E-13</totfact>
</mgrwt>
</event>
<event>
 4    1 -0.5167034E-019  0.1497831E+02  0.7818608E-02  0.1868731E+00
         -2   -1    0    0    0  501 -0.00000000000E+00  0.00000000000E+00  0.11988700139E+03  0.11988700142E+03  0.25500000000E-02 0. -1.
          2   -1    0    0  501    0  0.00000000000E+00 -0.00000000000E+00 -0.46783212108E+00  0.46783907064E+00  0.25500000000E-02 0.  1.
         31    1    1    2    0    0  0.67054788289E+00 -0.39535511195E+00  0.58503120267E+02  0.58980335258E+02  0.74470750000E+01 0. -1.
        -31    1    1    2    0    0 -0.67054788289E+00  0.39535511195E+00  0.60916049004E+02  0.61374505232E+02  0.74470750000E+01 0. -1.
<mgrwt>
<rscale>  0 0.14978306E+02</rscale>
<asrwt>0</asrwt>
<pdfrwt beam="2">  1        2 0.99363981E+00 0.14978306E+02</pdfrwt>
<pdfrwt beam="1">  1       -2 0.99517803E+00 0.14978306E+02</pdfrwt>
<totfact>-0.13365850E-13</totfact>
</mgrwt>
</event>
<event>
 4    1 -0.5167034E-019  0.1495647E+02  0.7818608E-02  0.1869400E+00
          2   -1    0    0  501    0  0.00000000000E+00  0.00000000000E+00  0.11966525196E+03  0.11966525199E+03  0.25500000000E-02 0.  1.
         -2   -1    0    0    0  501 -0.00000000000E+00 -0.00000000000E+00 -0.46733349227E+00  0.46734044924E+00  0.25500000000E-02 0. -1.
         31    1    1    2    0    0 -0.63181820028E+00 -0.75432608851E-01  0.61569526081E+02  0.62021531360E+02  0.74470750000E+01 0.  1.
        -31    1    1    2    0    0  0.63181820028E+00  0.75432608851E-01  0.57628392386E+02  0.58111061076E+02  0.74470750000E+01 0.  1.
<mgrwt>
<rscale>  0 0.14956470E+02</rscale>
<asrwt>0</asrwt>
<pdfrwt beam="1">  1        2 0.99334033E+00 0.14956470E+02</pdfrwt>
<pdfrwt beam="2">  1       -2 0.99257774E+00 0.14956470E+02</pdfrwt>
<totfact>-0.10886422E-13</totfact>
</mgrwt>
</event>
<event>
 4    1 -0.5167034E-019  0.1501921E+02  0.7818608E-02  0.1867483E+00
         -2   -1    0    0    0  501 -0.00000000000E+00  0.00000000000E+00  0.11994520993E+03  0.11994520996E+03  0.25500000000E-02 0. -1.
          2   -1    0    0  501    0  0.00000000000E+00 -0.00000000000E+00 -0.47016250980E+00  0.47016942491E+00  0.25500000000E-02 0.  1.
         31    1    1    2    0    0 -0.76393273616E+00  0.48377040123E+00  0.62486995888E+02  0.62935691052E+02  0.74470750000E+01 0. -1.
        -31    1    1    2    0    0  0.76393273616E+00 -0.48377040123E+00  0.56988051532E+02  0.57479688330E+02  0.74470750000E+01 0. -1.
<mgrwt>
<rscale>  0 0.15019209E+02</rscale>
<asrwt>0</asrwt>
<pdfrwt beam="2">  1        2 0.99857186E+00 0.15019209E+02</pdfrwt>
<pdfrwt beam="1">  1       -2 0.99567861E+00 0.15019209E+02</pdfrwt>
<totfact>-0.48176567E-14</totfact>
</mgrwt>
</event>
<event>
 4    1 -0.5167034E-019  0.1492340E+02  0.7818608E-02  0.1870415E+00
         -2   -1    0    0    0  501 -0.00000000000E+00  0.00000000000E+00  0.12031027090E+03  0.12031027093E+03  0.25500000000E-02 0.  1.
          2   -1    0    0  501    0  0.00000000000E+00 -0.00000000000E+00 -0.46277453421E+00  0.46278155971E+00  0.25500000000E-02 0. -1.
         31    1    1    2    0    0 -0.10712504258E+00  0.12760017566E+00  0.56393627584E+02  0.56883459070E+02  0.74470750000E+01 0. -1.
        -31    1    1    2    0    0  0.10712504258E+00 -0.12760017566E+00  0.63453868781E+02  0.63889593416E+02  0.74470750000E+01 0.  1.
<mgrwt>
<rscale>  0 0.14923398E+02</rscale>
<asrwt>0</asrwt>
<pdfrwt beam="2">  1        2 0.98295264E+00 0.14923398E+02</pdfrwt>
<pdfrwt beam="1">  1       -2 0.99863610E+00 0.14923398E+02</pdfrwt>
<totfact>-0.20981173E-13</totfact>
</mgrwt>
</event>
<event>
 4    1 -0.5167034E-019  0.1490751E+02  0.7818608E-02  0.1870904E+00
         -2   -1    0    0    0  501 -0.00000000000E+00  0.00000000000E+00  0.12009735983E+03  0.12009735986E+03  0.25500000000E-02 0.  1.
          2   -1    0    0  501    0  0.00000000000E+00 -0.00000000000E+00 -0.46260855942E+00  0.46261558745E+00  0.25500000000E-02 0. -1.
         31    1    1    2    0    0  0.24915076088E+00  0.50821952676E-01  0.61328337226E+02  0.61779353605E+02  0.74470750000E+01 0. -1.
        -31    1    1    2    0    0 -0.24915076088E+00 -0.50821952676E-01  0.58306414049E+02  0.58780621843E+02  0.74470750000E+01 0.  1.
<mgrwt>
<rscale>  0 0.14907514E+02</rscale>
<asrwt>0</asrwt>
<pdfrwt beam="2">  1        2 0.98259479E+00 0.14907514E+02</pdfrwt>
<pdfrwt beam="1">  1       -2 0.99687423E+00 0.14907514E+02</pdfrwt>
<totfact>-0.42636580E-13</totfact>
</mgrwt>
</event>
<event>
 4    1  0.5167034E-019  0.1492299E+02  0.7818608E-02  0.1870428E+00
         -2   -1    0    0    0  501 -0.00000000000E+00  0.00000000000E+00  0.11827432907E+03  0.11827432909E+03  0.25500000000E-02 0. -1.
          2   -1    0    0  501    0  0.00000000000E+00 -0.00000000000E+00 -0.47071507167E+00  0.47072197866E+00  0.25500000000E-02 0.  1.
         31    1    1    2    0    0 -0.25635654751E+00  0.31373603876E+00  0.57107536740E+02  0.57592480651E+02  0.74470750000E+01 0.  1.
        -31    1    1    2    0    0  0.25635654751E+00 -0.31373603876E+00  0.60696077254E+02  0.61152570421E+02  0.74470750000E+01 0. -1.
<mgrwt>
<rscale>  0 0.14922992E+02</rscale>
<asrwt>0</asrwt>
<pdfrwt beam="2">  1        2 0.99968563E+00 0.14922992E+02</pdfrwt>
<pdfrwt beam="1">  1       -2 0.98186716E+00 0.14922992E+02</pdfrwt>
<totfact> 0.10483451E-13</totfact>
</mgrwt>
</event>
<event>
 4    1 -0.5167034E-019  0.1491466E+02  0.7818608E-02  0.1870684E+00
         -2   -1    0    0    0  501 -0.00000000000E+00  0.00000000000E+00  0.12023468026E+03  0.12023468028E+03  0.25500000000E-02 0.  1.
          2   -1    0    0  501    0  0.00000000000E+00 -0.00000000000E+00 -0.46252361003E+00  0.46253063935E+00  0.25500000000E-02 0. -1.
         31    1    1    2    0    0  0.34690623262E+00 -0.18037105925E+00  0.59891777796E+02  0.60354261252E+02  0.74470750000E+01 0.  1.
        -31    1    1    2    0    0 -0.34690623262E+00  0.18037105925E+00  0.59880378851E+02  0.60342949672E+02  0.74470750000E+01 0.  1.
<mgrwt>
<rscale>  0 0.14914664E+02</rscale>
<asrwt>0</asrwt>
<pdfrwt beam="2">  1        2 0.98241935E+00 0.14914664E+02</pdfrwt>
<pdfrwt beam="1">  1       -2 0.99800899E+00 0.14914664E+02</pdfrwt>
<totfact>-0.31629979E-13</totfact>
</mgrwt>
</event>
<event>
 4    1  0.5167034E-019  0.1489560E+02  0.7818608E-02  0.1871271E+00
         -2   -1    0    0    0  501 -0.00000000000E+00  0.00000000000E+00  0.11797504995E+03  0.11797504997E+03  0.25500000000E-02 0.  1.
          2   -1    0    0  501    0  0.00000000000E+00 -0.00000000000E+00 -0.47017861930E+00  0.47018553418E+00  0.25500000000E-02 0. -1.
         31    1    1    2    0    0 -0.12554812426E-01 -0.94478062153E-01  0.59084837418E+02  0.59552380494E+02  0.74470750000E+01 0.  1.
        -31    1    1    2    0    0  0.12554812426E-01  0.94478062153E-01  0.58420033909E+02  0.58892855014E+02  0.74470750000E+01 0.  1.
<mgrwt>
<rscale>  0 0.14895604E+02</rscale>
<asrwt>0</asrwt>
<pdfrwt beam="2">  1        2 0.99854083E+00 0.14895604E+02</pdfrwt>
<pdfrwt beam="1">  1       -2 0.97938808E+00 0.14895604E+02</pdfrwt>
<totfact> 0.66566449E-13</totfact>
</mgrwt>
</event>
<event>
 4    1 -0.5167034E-019  0.1498828E+02  0.7818608E-02  0.1868426E+00
         -2   -1    0    0    0  501 -0.00000000000E+00  0.00000000000E+00  0.12028900556E+03  0.12028900559E+03  0.25500000000E-02 0.  1.
          2   -1    0    0  501    0  0.00000000000E+00 -0.00000000000E+00 -0.46688989930E+00  0.46689686288E+00  0.25500000000E-02 0. -1.
         31    1    1    2    0    0 -0.10560855777E+00 -0.49191366749E+00  0.54505953994E+02  0.55014644224E+02  0.74470750000E+01 0. -1.
        -31    1    1    2    0    0  0.10560855777E+00  0.49191366749E+00  0.65316161671E+02  0.65741258230E+02  0.74470750000E+01 0.  1.
<mgrwt>
<rscale>  0 0.14988281E+02</rscale>
<asrwt>0</asrwt>
<pdfrwt beam="2">  1        2 0.99165925E+00 0.14988281E+02</pdfrwt>
<pdfrwt beam="1">  1       -2 0.99849429E+00 0.14988281E+02</pdfrwt>
<totfact>-0.72778591E-14</totfact>
</mgrwt>
</event>
<event>
 4    1 -0.5167034E-019  0.1496935E+02  0.7818608E-02  0.1869005E+00
          2   -1    0    0  501    0  0.00000000000E+00  0.00000000000E+00  0.11914654787E+03  0.11914654790E+03  0.25500000000E-02 0. -1.
         -2   -1    0    0    0  501 -0.00000000000E+00 -0.00000000000E+00 -0.47017666413E+00  0.47018357903E+00  0.25500000000E-02 0.  1.
         31    1    1    2    0    0  0.39998329578E+00 -0.35604868618E+00  0.63525980414E+02  0.63963238434E+02  0.74470750000E+01 0. -1.
        -31    1    1    2    0    0 -0.39998329578E+00  0.35604868618E+00  0.55150390796E+02  0.55653493047E+02  0.74470750000E+01 0.  1.
<mgrwt>
<rscale>  0 0.14969348E+02</rscale>
<asrwt>0</asrwt>
<pdfrwt beam="1">  1        2 0.98907483E+00 0.14969348E+02</pdfrwt>
<pdfrwt beam="2">  1       -2 0.99857567E+00 0.14969348E+02</pdfrwt>
<totfact>-0.87708038E-14</totfact>
</mgrwt>
</event>
<event>
 4    1 -0.5167034E-019  0.1492121E+02  0.7818608E-02  0.1870482E+00
          2   -1    0    0  501    0  0.00000000000E+00  0.00000000000E+00  0.11899045082E+03  0.11899045084E+03  0.25500000000E-02 0. -1.
         -2   -1    0    0    0  501 -0.00000000000E+00 -0.00000000000E+00 -0.46777044831E+00  0.46777739878E+00  0.25500000000E-02 0.  1.
         31    1    1    2    0    0  0.66937547418E-02 -0.43435689334E+00  0.58348645209E+02  0.58823566999E+02  0.74470750000E+01 0.  1.
        -31    1    1    2    0    0 -0.66937547418E-02  0.43435689334E+00  0.60174035158E+02  0.60634661242E+02  0.74470750000E+01 0.  1.
<mgrwt>
<rscale>  0 0.14921211E+02</rscale>
<asrwt>0</asrwt>
<pdfrwt beam="1">  1        2 0.98776421E+00 0.14921211E+02</pdfrwt>
<pdfrwt beam="2">  1       -2 0.99348024E+00 0.14921211E+02</pdfrwt>
<totfact>-0.21465242E-13</totfact>
</mgrwt>
</event>
<event>
 4    1 -0.5167034E-019  0.1498301E+02  0.7818608E-02  0.1868588E+00
         -2   -1    0    0    0  501 -0.00000000000E+00  0.00000000000E+00  0.11948056341E+03  0.11948056343E+03  0.25500000000E-02 0. -1.
          2   -1    0    0  501    0  0.00000000000E+00 -0.00000000000E+00 -0.46971824786E+00  0.46972516951E+00  0.25500000000E-02 0.  1.
         31    1    1    2    0    0  0.27325849930E+00 -0.48556015654E+00  0.64263648989E+02  0.64696104568E+02  0.74470750000E+01 0. -1.
        -31    1    1    2    0    0 -0.27325849930E+00  0.48556015654E+00  0.54747196168E+02  0.55254184034E+02  0.74470750000E+01 0. -1.
<mgrwt>
<rscale>  0 0.14983006E+02</rscale>
<asrwt>0</asrwt>
<pdfrwt beam="2">  1        2 0.99761686E+00 0.14983006E+02</pdfrwt>
<pdfrwt beam="1">  1       -2 0.99183291E+00 0.14983006E+02</pdfrwt>
<totfact>-0.46077758E-14</totfact>
</mgrwt>
</event>
<event>
 4    1  0.5167034E-019  0.1490420E+02  0.7818608E-02  0.1871006E+00
          2   -1    0    0  501    0  0.00000000000E+00  0.00000000000E+00  0.12025993874E+03  0.12025993876E+03  0.25500000000E-02 0.  1.
         -2   -1    0    0    0  501 -0.00000000000E+00 -0.00000000000E+00 -0.46177782668E+00  0.46178486735E+00  0.25500000000E-02 0. -1.
         31    1    1    2    0    0  0.13211040265E+00 -0.14429752155E+00  0.61448646119E+02  0.61898572769E+02  0.74470750000E+01 0.  1.
        -31    1    1    2    0    0 -0.13211040265E+00  0.14429752155E+00  0.58349514792E+02  0.58823150863E+02  0.74470750000E+01 0. -1.
<mgrwt>
<rscale>  0 0.14904201E+02</rscale>
<asrwt>0</asrwt>
<pdfrwt beam="1">  1        2 0.99821168E+00 0.14904201E+02</pdfrwt>
<pdfrwt beam="2">  1       -2 0.98084215E+00 0.14904201E+02</pdfrwt>
<totfact> 0.61416829E-13</totfact>
</mgrwt>
</event>
<event>
 4    1 -0.5167034E-019  0.1496045E+02  0.7818608E-02  0.1869278E+00
         -2   -1    0    0    0  501 -0.00000000000E+00  0.00000000000E+00  0.11968670507E+03  0.11968670509E+03  0.25500000000E-02 0. -1.
          2   -1    0    0  501    0  0.00000000000E+00 -0.00000000000E+00 -0.46749860944E+00  0.46750556396E+00  0.25500000000E-02 0.  1.
         31    1    1    2    0    0  0.37300682959E+00  0.23282836925E+00  0.55199475345E+02  0.55701295744E+02  0.74470750000E+01 0.  1.
        -31    1    1    2    0    0 -0.37300682959E+00 -0.23282836925E+00  0.64019731112E+02  0.64452914914E+02  0.74470750000E+01 0. -1.
<mgrwt>
<rscale>  0 0.14960453E+02</rscale>
<asrwt>0</asrwt>
<pdfrwt beam="2">  1        2 0.99292776E+00 0.14960453E+02</pdfrwt>
<pdfrwt beam="1">  1       -2 0.99351908E+00 0.14960453E+02</pdfrwt>
<totfact>-0.13263490E-13</totfact>
</mgrwt>
</event>
<event>
 4    1  0.5167034E-019  0.1492113E+02  0.7818608E-02  0.1870485E+00
          2   -1    0    0  501    0  0.00000000000E+00  0.00000000000E+00  0.11988365458E+03  0.11988365461E+03  0.25500000000E-02 0.  1.
         -2   -1    0    0    0  501 -0.00000000000E+00 -0.00000000000E+00 -0.46428039798E+00  0.46428740070E+00  0.25500000000E-02 0. -1.
         31    1    1    2    0    0 -0.70457473097E-01 -0.34777190894E+00  0.57497618897E+02  0.57978970450E+02  0.74470750000E+01 0. -1.
        -31    1    1    2    0    0  0.70457473097E-01  0.34777190894E+00  0.61921755289E+02  0.62368971562E+02  0.74470750000E+01 0. -1.
<mgrwt>
<rscale>  0 0.14921133E+02</rscale>
<asrwt>0</asrwt>
<pdfrwt beam="1">  1        2 0.99512099E+00 0.14921133E+02</pdfrwt>
<pdfrwt beam="2">  1       -2 0.98612532E+00 0.14921133E+02</pdfrwt>
<totfact> 0.33749399E-13</totfact>
</mgrwt>
</event>
<event>
 4    1  0.5167034E-019  0.1491596E+02  0.7818608E-02  0.1870644E+00
         -2   -1    0    0    0  501 -0.00000000000E+00  0.00000000000E+00  0.11872319248E+03  0.11872319251E+03  0.25500000000E-02 0.  1.
          2   -1    0    0  501    0  0.00000000000E+00 -0.00000000000E+00 -0.46849359545E+00  0.46850053519E+00  0.25500000000E-02 0. -1.
         31    1    1    2    0    0  0.19531219891E+00 -0.27523184421E+00  0.57364910619E+02  0.57847262647E+02  0.74470750000E+01 0. -1.
        -31    1    1    2    0    0 -0.19531219891E+00  0.27523184421E+00  0.60889788267E+02  0.61344430396E+02  0.74470750000E+01 0.  1.
<mgrwt>
<rscale>  0 0.14915961E+02</rscale>
<asrwt>0</asrwt>
<pdfrwt beam="2">  1        2 0.99500127E+00 0.14915961E+02</pdfrwt>
<pdfrwt beam="1">  1       -2 0.98556031E+00 0.14915961E+02</pdfrwt>
<totfact> 0.41075986E-13</totfact>
</mgrwt>
</event>
<event>
 4    1 -0.5167034E-019  0.1498046E+02  0.7818608E-02  0.1868665E+00
         -2   -1    0    0    0  501 -0.00000000000E+00  0.00000000000E+00  0.12014343973E+03  0.12014343975E+03  0.25500000000E-02 0. -1.
          2   -1    0    0  501    0  0.00000000000E+00 -0.00000000000E+00 -0.46696755959E+00  0.46697452201E+00  0.25500000000E-02 0.  1.
         31    1    1    2    0    0  0.65082493468E+00 -0.10921831720E+00  0.56156787833E+02  0.56652266041E+02  0.74470750000E+01 0.  1.
        -31    1    1    2    0    0 -0.65082493468E+00  0.10921831720E+00  0.63519684334E+02  0.63958148236E+02  0.74470750000E+01 0. -1.
<mgrwt>
<rscale>  0 0.14980455E+02</rscale>
<asrwt>0</asrwt>
<pdfrwt beam="2">  1        2 0.99181891E+00 0.14980455E+02</pdfrwt>
<pdfrwt beam="1">  1       -2 0.99729129E+00 0.14980455E+02</pdfrwt>
<totfact>-0.11470831E-13</totfact>
</mgrwt>
</event>
<event>
 4    1 -0.5167034E-019  0.1494195E+02  0.7818608E-02  0.1869845E+00
          2   -1    0    0  501    0  0.00000000000E+00  0.00000000000E+00  0.11957379290E+03  0.11957379292E+03  0.25500000000E-02 0. -1.
         -2   -1    0    0    0  501 -0.00000000000E+00 -0.00000000000E+00 -0.46678319398E+00  0.46679015915E+00  0.25500000000E-02 0.  1.
         31    1    1    2    0    0  0.30158976055E+00 -0.15183585643E+00  0.55597154781E+02  0.56094710591E+02  0.74470750000E+01 0.  1.
        -31    1    1    2    0    0 -0.30158976055E+00  0.15183585643E+00  0.63509854922E+02  0.63945872492E+02  0.74470750000E+01 0. -1.
<mgrwt>
<rscale>  0 0.14941949E+02</rscale>
<asrwt>0</asrwt>
<pdfrwt beam="1">  1        2 0.99257953E+00 0.14941949E+02</pdfrwt>
<pdfrwt beam="2">  1       -2 0.99141057E+00 0.14941949E+02</pdfrwt>
<totfact>-0.71204735E-14</totfact>
</mgrwt>
</event>
<event>
 4    1  0.5167034E-019  0.1489912E+02  0.7818608E-02  0.1871162E+00
          2   -1    0    0  501    0  0.00000000000E+00  0.00000000000E+00  0.12035147707E+03  0.12035147710E+03  0.25500000000E-02 0. -1.
         -2   -1    0    0    0  501 -0.00000000000E+00 -0.00000000000E+00 -0.46111222988E+00  0.46111928071E+00  0.25500000000E-02 0.  1.
         31    1    1    2    0    0  0.11734914195E+00 -0.94988278696E-01  0.60913005101E+02  0.61366732927E+02  0.74470750000E+01 0. -1.
        -31    1    1    2    0    0 -0.11734914195E+00  0.94988278696E-01  0.58977359737E+02  0.59445863449E+02  0.74470750000E+01 0.  1.
<mgrwt>
<rscale>  0 0.14899123E+02</rscale>
<asrwt>0</asrwt>
<pdfrwt beam="1">  1        2 0.99896308E+00 0.14899123E+02</pdfrwt>
<pdfrwt beam="2">  1       -2 0.97943665E+00 0.14899123E+02</pdfrwt>
<totfact> 0.49184371E-13</totfact>
</mgrwt>
</event>
<event>
 4    1  0.5167034E-019  0.1495147E+02  0.7818608E-02  0.1869553E+00
          2   -1    0    0  501    0  0.00000000000E+00  0.00000000000E+00  0.12006865031E+03  0.12006865033E+03  0.25500000000E-02 0.  1.
         -2   -1    0    0    0  501 -0.00000000000E+00 -0.00000000000E+00 -0.46545214869E+00  0.46545913378E+00  0.25500000000E-02 0. -1.
         31    1    1    2    0    0 -0.30561777173E-01  0.53220086091E+00  0.56747335753E+02  0.57236380152E+02  0.74470750000E+01 0.  1.
        -31    1    1    2    0    0  0.30561777173E-01 -0.53220086091E+00  0.62855862404E+02  0.63297729314E+02  0.74470750000E+01 0.  1.
<mgrwt>
<rscale>  0 0.14951473E+02</rscale>
<asrwt>0</asrwt>
<pdfrwt beam="1">  1        2 0.99666035E+00 0.14951473E+02</pdfrwt>
<pdfrwt beam="2">  1       -2 0.98861033E+00 0.14951473E+02</pdfrwt>
<totfact> 0.80324049E-14</totfact>
</mgrwt>
</event>
<event>
 4    1  0.5167034E-019  0.1490826E+02  0.7818608E-02  0.1870881E+00
          2   -1    0    0  501    0  0.00000000000E+00  0.00000000000E+00  0.11963156833E+03  0.11963156835E+03  0.25500000000E-02 0.  1.
         -2   -1    0    0    0  501 -0.00000000000E+00 -0.00000000000E+00 -0.46445631893E+00  0.46446331900E+00  0.25500000000E-02 0. -1.
         31    1    1    2    0    0 -0.27595123800E+00 -0.14624467520E+00  0.58881409318E+02  0.59351300120E+02  0.74470750000E+01 0. -1.
        -31    1    1    2    0    0  0.27595123800E+00  0.14624467520E+00  0.60285702690E+02  0.60744731553E+02  0.74470750000E+01 0.  1.
<mgrwt>
<rscale>  0 0.14908261E+02</rscale>
<asrwt>0</asrwt>
<pdfrwt beam="1">  1        2 0.99303802E+00 0.14908261E+02</pdfrwt>
<pdfrwt beam="2">  1       -2 0.98648951E+00 0.14908261E+02</pdfrwt>
<totfact> 0.35357628E-13</totfact>
</mgrwt>
</event>
<event>
 4    1  0.5167034E-019  0.1491109E+02  0.7818608E-02  0.1870794E+00
          2   -1    0    0  501    0  0.00000000000E+00  0.00000000000E+00  0.11995006021E+03  0.11995006023E+03  0.25500000000E-02 0.  1.
         -2   -1    0    0    0  501 -0.00000000000E+00 -0.00000000000E+00 -0.46339885292E+00  0.46340586896E+00  0.25500000000E-02 0. -1.
         31    1    1    2    0    0  0.16850997685E+00  0.26768858289E-02  0.57217701565E+02  0.57700543336E+02  0.74470750000E+01 0. -1.
        -31    1    1    2    0    0 -0.16850997685E+00 -0.26768858289E-02  0.62268959789E+02  0.62712922767E+02  0.74470750000E+01 0. -1.
<mgrwt>
<rscale>  0 0.14911089E+02</rscale>
<asrwt>0</asrwt>
<pdfrwt beam="1">  1        2 0.99566279E+00 0.14911089E+02</pdfrwt>
<pdfrwt beam="2">  1       -2 0.98426227E+00 0.14911089E+02</pdfrwt>
<totfact> 0.54755266E-13</totfact>
</mgrwt>
</event>
<event>
 4    1 -0.5167034E-019  0.1489518E+02  0.7818608E-02  0.1871284E+00
         -2   -1    0    0    0  501 -0.00000000000E+00  0.00000000000E+00  0.12038851595E+03  0.12038851597E+03  0.25500000000E-02 0. -1.
          2   -1    0    0  501    0  0.00000000000E+00 -0.00000000000E+00 -0.46072615039E+00  0.46073320713E+00  0.25500000000E-02 0.  1.
         31    1    1    2    0    0  0.65726443002E-01 -0.13261276120E-01  0.59508995248E+02  0.59973193489E+02  0.74470750000E+01 0.  1.
        -31    1    1    2    0    0 -0.65726443002E-01  0.13261276120E-01  0.60418794547E+02  0.60876055690E+02  0.74470750000E+01 0. -1.
<mgrwt>
<rscale>  0 0.14895176E+02</rscale>
<asrwt>0</asrwt>
<pdfrwt beam="2">  1        2 0.97862088E+00 0.14895176E+02</pdfrwt>
<pdfrwt beam="1">  1       -2 0.99926615E+00 0.14895176E+02</pdfrwt>
<totfact>-0.24363884E-13</totfact>
</mgrwt>
</event>
<event>
 4    1 -0.5167034E-019  0.1492423E+02  0.7818608E-02  0.1870390E+00
         -2   -1    0    0    0  501 -0.00000000000E+00  0.00000000000E+00  0.11978636260E+03  0.11978636263E+03  0.25500000000E-02 0. -1.
          2   -1    0    0  501    0  0.00000000000E+00 -0.00000000000E+00 -0.46485011446E+00  0.46485710860E+00  0.25500000000E-02 0.  1.
         31    1    1    2    0    0  0.17751375415E+00 -0.35656226293E+00  0.57597786081E+02  0.58078589302E+02  0.74470750000E+01 0.  1.
        -31    1    1    2    0    0 -0.17751375415E+00  0.35656226293E+00  0.61723726407E+02  0.62172630436E+02  0.74470750000E+01 0. -1.
<mgrwt>
<rscale>  0 0.14924225E+02</rscale>
<asrwt>0</asrwt>
<pdfrwt beam="2">  1        2 0.98732760E+00 0.14924225E+02</pdfrwt>
<pdfrwt beam="1">  1       -2 0.99432122E+00 0.14924225E+02</pdfrwt>
<totfact>-0.24282911E-13</totfact>
</mgrwt>
</event>
<event>
 4    1 -0.5167034E-019  0.1498023E+02  0.7818608E-02  0.1868672E+00
          2   -1    0    0  501    0  0.00000000000E+00  0.00000000000E+00  0.11929932169E+03  0.11929932171E+03  0.25500000000E-02 0.  1.
         -2   -1    0    0    0  501 -0.00000000000E+00 -0.00000000000E+00 -0.47025748524E+00  0.47026439895E+00  0.25500000000E-02 0. -1.
         31    1    1    2    0    0 -0.90448019193E-02  0.26885518597E+00  0.53375533348E+02  0.53893217116E+02  0.74470750000E+01 0. -1.
        -31    1    1    2    0    0  0.90448019193E-02 -0.26885518597E+00  0.65453530854E+02  0.65876368997E+02  0.74470750000E+01 0.  1.
<mgrwt>
<rscale>  0 0.14980229E+02</rscale>
<asrwt>0</asrwt>
<pdfrwt beam="1">  1        2 0.99033874E+00 0.14980229E+02</pdfrwt>
<pdfrwt beam="2">  1       -2 0.99875167E+00 0.14980229E+02</pdfrwt>
<totfact>-0.68790751E-14</totfact>
</mgrwt>
</event>
<event>
 4    1 -0.5167034E-019  0.1499198E+02  0.7818608E-02  0.1868313E+00
         -2   -1    0    0    0  501 -0.00000000000E+00  0.00000000000E+00  0.12005090567E+03  0.12005090570E+03  0.25500000000E-02 0.  1.
          2   -1    0    0  501    0  0.00000000000E+00 -0.00000000000E+00 -0.46804702884E+00  0.46805397521E+00  0.25500000000E-02 0. -1.
         31    1    1    2    0    0 -0.86970109056E-01 -0.69527740090E+00  0.55853278692E+02  0.56351917813E+02  0.74470750000E+01 0. -1.
        -31    1    1    2    0    0  0.86970109056E-01  0.69527740090E+00  0.63729579950E+02  0.64167041861E+02  0.74470750000E+01 0.  1.
<mgrwt>
<rscale>  0 0.14991983E+02</rscale>
<asrwt>0</asrwt>
<pdfrwt beam="2">  1        2 0.99409975E+00 0.14991983E+02</pdfrwt>
<pdfrwt beam="1">  1       -2 0.99653508E+00 0.14991983E+02</pdfrwt>
<totfact>-0.11323953E-13</totfact>
</mgrwt>
</event>
<event>
 4    1 -0.5167034E-019  0.1496084E+02  0.7818608E-02  0.1869266E+00
          2   -1    0    0  501    0  0.00000000000E+00  0.00000000000E+00  0.11939487775E+03  0.11939487778E+03  0.25500000000E-02 0.  1.
         -2   -1    0    0    0  501 -0.00000000000E+00 -0.00000000000E+00 -0.46866560879E+00  0.46867254599E+00  0.25500000000E-02 0. -1.
         31    1    1    2    0    0  0.56267412561E+00  0.28405596523E+00  0.56923543448E+02  0.57412072030E+02  0.74470750000E+01 0. -1.
        -31    1    1    2    0    0 -0.56267412561E+00 -0.28405596523E+00  0.62002668692E+02  0.62451478293E+02  0.74470750000E+01 0. -1.
<mgrwt>
<rscale>  0 0.14960841E+02</rscale>
<asrwt>0</asrwt>
<pdfrwt beam="1">  1        2 0.99111570E+00 0.14960841E+02</pdfrwt>
<pdfrwt beam="2">  1       -2 0.99538717E+00 0.14960841E+02</pdfrwt>
<totfact>-0.15960724E-13</totfact>
</mgrwt>
</event>
<event>
 4    1  0.5167034E-019  0.1491429E+02  0.7818608E-02  0.1870695E+00
          2   -1    0    0  501    0  0.00000000000E+00  0.00000000000E+00  0.11992317489E+03  0.11992317492E+03  0.25500000000E-02 0.  1.
         -2   -1    0    0    0  501 -0.00000000000E+00 -0.00000000000E+00 -0.46370160448E+00  0.46370861594E+00  0.25500000000E-02 0. -1.
         31    1    1    2    0    0  0.27727370855E+00 -0.26607371714E+00  0.60124378288E+02  0.60585043258E+02  0.74470750000E+01 0.  1.
        -31    1    1    2    0    0 -0.27727370855E+00  0.26607371714E+00  0.59335095000E+02  0.59801840278E+02  0.74470750000E+01 0.  1.
<mgrwt>
<rscale>  0 0.14914287E+02</rscale>
<asrwt>0</asrwt>
<pdfrwt beam="1">  1        2 0.99544298E+00 0.14914287E+02</pdfrwt>
<pdfrwt beam="2">  1       -2 0.98490198E+00 0.14914287E+02</pdfrwt>
<totfact> 0.47447497E-13</totfact>
</mgrwt>
</event>
<event>
 4    1 -0.5167034E-019  0.1497694E+02  0.7818608E-02  0.1868773E+00
         -2   -1    0    0    0  501 -0.00000000000E+00  0.00000000000E+00  0.11992164779E+03  0.11992164782E+03  0.25500000000E-02 0. -1.
          2   -1    0    0  501    0  0.00000000000E+00 -0.00000000000E+00 -0.46761174395E+00  0.46761869678E+00  0.25500000000E-02 0.  1.
         31    1    1    2    0    0  0.73300681887E+00 -0.18526882966E+00  0.57991014686E+02  0.58472115867E+02  0.74470750000E+01 0.  1.
        -31    1    1    2    0    0 -0.73300681887E+00  0.18526882966E+00  0.61463021363E+02  0.61917150650E+02  0.74470750000E+01 0.  1.
<mgrwt>
<rscale>  0 0.14976941E+02</rscale>
<asrwt>0</asrwt>
<pdfrwt beam="2">  1        2 0.99317468E+00 0.14976941E+02</pdfrwt>
<pdfrwt beam="1">  1       -2 0.99546269E+00 0.14976941E+02</pdfrwt>
<totfact>-0.13649196E-13</totfact>
</mgrwt>
</event>
<event>
 4    1  0.5167034E-019  0.1495484E+02  0.7818608E-02  0.1869450E+00
         -2   -1    0    0    0  501 -0.00000000000E+00  0.00000000000E+00  0.11909716450E+03  0.11909716453E+03  0.25500000000E-02 0. -1.
          2   -1    0    0  501    0  0.00000000000E+00 -0.00000000000E+00 -0.46946009128E+00  0.46946701673E+00  0.25500000000E-02 0.  1.
         31    1    1    2    0    0  0.49447935168E-01  0.66735306990E+00  0.58745682039E+02  0.59219607306E+02  0.74470750000E+01 0. -1.
        -31    1    1    2    0    0 -0.49447935168E-01 -0.66735306990E+00  0.59882022371E+02  0.60347024239E+02  0.74470750000E+01 0.  1.
<mgrwt>
<rscale>  0 0.14954836E+02</rscale>
<asrwt>0</asrwt>
<pdfrwt beam="2">  1        2 0.99705816E+00 0.14954836E+02</pdfrwt>
<pdfrwt beam="1">  1       -2 0.98866057E+00 0.14954836E+02</pdfrwt>
<totfact> 0.71057029E-14</totfact>
</mgrwt>
</event>
<event>
 4    1 -0.5167034E-019  0.1494176E+02  0.7818608E-02  0.1869851E+00
          2   -1    0    0  501    0  0.00000000000E+00  0.00000000000E+00  0.11878115415E+03  0.11878115418E+03  0.25500000000E-02 0. -1.
         -2   -1    0    0    0  501 -0.00000000000E+00 -0.00000000000E+00 -0.46988649684E+00  0.46989341601E+00  0.25500000000E-02 0.  1.
         31    1    1    2    0    0  0.33157099942E+00 -0.37766190527E+00  0.56599443471E+02  0.57089477972E+02  0.74470750000E+01 0.  1.
        -31    1    1    2    0    0 -0.33157099942E+00  0.37766190527E+00  0.61711824187E+02  0.62161569626E+02  0.74470750000E+01 0. -1.
<mgrwt>
<rscale>  0 0.14941764E+02</rscale>
<asrwt>0</asrwt>
<pdfrwt beam="1">  1        2 0.98605110E+00 0.14941764E+02</pdfrwt>
<pdfrwt beam="2">  1       -2 0.99794977E+00 0.14941764E+02</pdfrwt>
<totfact>-0.17824815E-13</totfact>
</mgrwt>
</event>
<event>
 4    1 -0.5167034E-019  0.1497523E+02  0.7818608E-02  0.1868825E+00
         -2   -1    0    0    0  501 -0.00000000000E+00  0.00000000000E+00  0.12003567651E+03  0.12003567654E+03  0.25500000000E-02 0. -1.
          2   -1    0    0  501    0  0.00000000000E+00 -0.00000000000E+00 -0.46706054133E+00  0.46706750236E+00  0.25500000000E-02 0.  1.
         31    1    1    2    0    0 -0.38298382816E+00  0.62536760980E+00  0.57691182564E+02  0.58174472348E+02  0.74470750000E+01 0.  1.
        -31    1    1    2    0    0  0.38298382816E+00 -0.62536760980E+00  0.61877433406E+02  0.62328271693E+02  0.74470750000E+01 0. -1.
<mgrwt>
<rscale>  0 0.14975226E+02</rscale>
<asrwt>0</asrwt>
<pdfrwt beam="2">  1        2 0.99201218E+00 0.14975226E+02</pdfrwt>
<pdfrwt beam="1">  1       -2 0.99640100E+00 0.14975226E+02</pdfrwt>
<totfact>-0.13491727E-13</totfact>
</mgrwt>
</event>
<event>
 4    1 -0.5167034E-019  0.1499857E+02  0.7818608E-02  0.1868112E+00
         -2   -1    0    0    0  501 -0.00000000000E+00  0.00000000000E+00  0.11988011916E+03  0.11988011919E+03  0.25500000000E-02 0. -1.
          2   -1    0    0  501    0  0.00000000000E+00 -0.00000000000E+00 -0.46912587600E+00  0.46913280639E+00  0.25500000000E-02 0.  1.
         31    1    1    2    0    0 -0.17129917306E+00  0.74540291833E+00  0.63252358207E+02  0.63693835759E+02  0.74470750000E+01 0. -1.
        -31    1    1    2    0    0  0.17129917306E+00 -0.74540291833E+00  0.56158635079E+02  0.56655416236E+02  0.74470750000E+01 0.  1.
<mgrwt>
<rscale>  0 0.14998571E+02</rscale>
<asrwt>0</asrwt>
<pdfrwt beam="2">  1        2 0.99637667E+00 0.14998571E+02</pdfrwt>
<pdfrwt beam="1">  1       -2 0.99513182E+00 0.14998571E+02</pdfrwt>
<totfact>-0.99103631E-14</totfact>
</mgrwt>
</event>
<event>
 4    1 -0.5167034E-019  0.1496950E+02  0.7818608E-02  0.1869001E+00
          2   -1    0    0  501    0  0.00000000000E+00  0.00000000000E+00  0.11908843349E+03  0.11908843352E+03  0.25500000000E-02 0.  1.
         -2   -1    0    0    0  501 -0.00000000000E+00 -0.00000000000E+00 -0.47041586598E+00  0.47042277737E+00  0.25500000000E-02 0. -1.
         31    1    1    2    0    0  0.31758050538E+00 -0.67157754616E+00  0.60135308914E+02  0.60599225886E+02  0.74470750000E+01 0.  1.
        -31    1    1    2    0    0 -0.31758050538E+00  0.67157754616E+00  0.58482708710E+02  0.58959630408E+02  0.74470750000E+01 0. -1.
<mgrwt>
<rscale>  0 0.14969503E+02</rscale>
<asrwt>0</asrwt>
<pdfrwt beam="1">  1        2 0.98859627E+00 0.14969503E+02</pdfrwt>
<pdfrwt beam="2">  1       -2 0.99907977E+00 0.14969503E+02</pdfrwt>
<totfact>-0.62468635E-14</totfact>
</mgrwt>
</event>
<event>
 4    1 -0.5167034E-019  0.1492797E+02  0.7818608E-02  0.1870274E+00
         -2   -1    0    0    0  501 -0.00000000000E+00  0.00000000000E+00  0.12021335639E+03  0.12021335641E+03  0.25500000000E-02 0.  1.
          2   -1    0    0  501    0  0.00000000000E+00 -0.00000000000E+00 -0.46343166117E+00  0.46343867671E+00  0.25500000000E-02 0. -1.
         31    1    1    2    0    0  0.27944982682E+00  0.41298030434E+00  0.60355218327E+02  0.60814964855E+02  0.74470750000E+01 0. -1.
        -31    1    1    2    0    0 -0.27944982682E+00 -0.41298030434E+00  0.59394706399E+02  0.59861830236E+02  0.74470750000E+01 0.  1.
<mgrwt>
<rscale>  0 0.14927974E+02</rscale>
<asrwt>0</asrwt>
<pdfrwt beam="2">  1        2 0.98433998E+00 0.14927974E+02</pdfrwt>
<pdfrwt beam="1">  1       -2 0.99784018E+00 0.14927974E+02</pdfrwt>
<totfact>-0.24432162E-13</totfact>
</mgrwt>
</event>
<event>
 4    1 -0.5167034E-019  0.1502194E+02  0.7818608E-02  0.1867400E+00
          2   -1    0    0  501    0  0.00000000000E+00  0.00000000000E+00  0.11990606620E+03  0.11990606623E+03  0.25500000000E-02 0. -1.
         -2   -1    0    0    0  501 -0.00000000000E+00 -0.00000000000E+00 -0.47048733540E+00  0.47049424574E+00  0.25500000000E-02 0.  1.
         31    1    1    2    0    0 -0.94323980252E+00  0.15617976640E+00  0.61353847015E+02  0.61811548783E+02  0.74470750000E+01 0. -1.
        -31    1    1    2    0    0  0.94323980252E+00 -0.15617976640E+00  0.58081731848E+02  0.58565011688E+02  0.74470750000E+01 0. -1.
<mgrwt>
<rscale>  0 0.15021944E+02</rscale>
<asrwt>0</asrwt>
<pdfrwt beam="1">  1        2 0.99535763E+00 0.15021944E+02</pdfrwt>
<pdfrwt beam="2">  1       -2 0.99925777E+00 0.15021944E+02</pdfrwt>
<totfact>-0.28282631E-14</totfact>
</mgrwt>
</event>
<event>
 4    1 -0.5167034E-019  0.1491051E+02  0.7818608E-02  0.1870812E+00
          2   -1    0    0  501    0  0.00000000000E+00  0.00000000000E+00  0.11911516518E+03  0.11911516521E+03  0.25500000000E-02 0.  1.
         -2   -1    0    0    0  501 -0.00000000000E+00 -0.00000000000E+00 -0.46661090661E+00  0.46661787435E+00  0.25500000000E-02 0. -1.
         31    1    1    2    0    0 -0.24556136557E+00 -0.24469631728E+00  0.58988708105E+02  0.59457941325E+02  0.74470750000E+01 0. -1.
        -31    1    1    2    0    0  0.24556136557E+00  0.24469631728E+00  0.59659846172E+02  0.60123841760E+02  0.74470750000E+01 0.  1.
<mgrwt>
<rscale>  0 0.14910514E+02</rscale>
<asrwt>0</asrwt>
<pdfrwt beam="1">  1        2 0.98878585E+00 0.14910514E+02</pdfrwt>
<pdfrwt beam="2">  1       -2 0.99103124E+00 0.14910514E+02</pdfrwt>
<totfact>-0.73414325E-14</totfact>
</mgrwt>
</event>
<event>
 4    1 -0.5167034E-019  0.1496800E+02  0.7818608E-02  0.1869047E+00
          2   -1    0    0  501    0  0.00000000000E+00  0.00000000000E+00  0.11935281884E+03  0.11935281887E+03  0.25500000000E-02 0. -1.
         -2   -1    0    0    0  501 -0.00000000000E+00 -0.00000000000E+00 -0.46927966060E+00  0.46928658872E+00  0.25500000000E-02 0.  1.
         31    1    1    2    0    0  0.54196221798E-01 -0.49678158517E+00  0.63838170490E+02  0.64273016630E+02  0.74470750000E+01 0.  1.
        -31    1    1    2    0    0 -0.54196221798E-01  0.49678158517E+00  0.55045368693E+02  0.55549088829E+02  0.74470750000E+01 0.  1.
<mgrwt>
<rscale>  0 0.14968001E+02</rscale>
<asrwt>0</asrwt>
<pdfrwt beam="1">  1        2 0.99077300E+00 0.14968001E+02</pdfrwt>
<pdfrwt beam="2">  1       -2 0.99668484E+00 0.14968001E+02</pdfrwt>
<totfact>-0.14196863E-13</totfact>
</mgrwt>
</event>
<event>
 4    1 -0.5167034E-019  0.1492073E+02  0.7818608E-02  0.1870497E+00
         -2   -1    0    0    0  501 -0.00000000000E+00  0.00000000000E+00  0.11977359609E+03  0.11977359612E+03  0.25500000000E-02 0.  1.
          2   -1    0    0  501    0  0.00000000000E+00 -0.00000000000E+00 -0.46468164653E+00  0.46468864320E+00  0.25500000000E-02 0. -1.
         31    1    1    2    0    0  0.10809978954E+00 -0.66831595167E-01  0.56217198856E+02  0.56708451974E+02  0.74470750000E+01 0. -1.
        -31    1    1    2    0    0 -0.10809978954E+00  0.66831595167E-01  0.63091715590E+02  0.63529832788E+02  0.74470750000E+01 0.  1.
<mgrwt>
<rscale>  0 0.14920726E+02</rscale>
<asrwt>0</asrwt>
<pdfrwt beam="2">  1        2 0.98697076E+00 0.14920726E+02</pdfrwt>
<pdfrwt beam="1">  1       -2 0.99421426E+00 0.14920726E+02</pdfrwt>
<totfact>-0.25416395E-13</totfact>
</mgrwt>
</event>
<event>
 4    1 -0.5167034E-019  0.1493461E+02  0.7818608E-02  0.1870070E+00
          2   -1    0    0  501    0  0.00000000000E+00  0.00000000000E+00  0.11920176312E+03  0.11920176315E+03  0.25500000000E-02 0.  1.
         -2   -1    0    0    0  501 -0.00000000000E+00 -0.00000000000E+00 -0.46778017916E+00  0.46778712949E+00  0.25500000000E-02 0. -1.
         31    1    1    2    0    0  0.19036833190E+00  0.34810037555E+00  0.56323147887E+02  0.56814728090E+02  0.74470750000E+01 0. -1.
        -31    1    1    2    0    0 -0.19036833190E+00 -0.34810037555E+00  0.62410835058E+02  0.62854822191E+02  0.74470750000E+01 0.  1.
<mgrwt>
<rscale>  0 0.14934609E+02</rscale>
<asrwt>0</asrwt>
<pdfrwt beam="1">  1        2 0.98951157E+00 0.14934609E+02</pdfrwt>
<pdfrwt beam="2">  1       -2 0.99350772E+00 0.14934609E+02</pdfrwt>
<totfact>-0.17538792E-13</totfact>
</mgrwt>
</event>
<event>
 4    1  0.5167034E-019  0.1492590E+02  0.7818608E-02  0.1870338E+00
         -2   -1    0    0    0  501 -0.00000000000E+00  0.00000000000E+00  0.11854179663E+03  0.11854179665E+03  0.25500000000E-02 0. -1.
          2   -1    0    0  501    0  0.00000000000E+00 -0.00000000000E+00 -0.46983587363E+00  0.46984279355E+00  0.25500000000E-02 0.  1.
         31    1    1    2    0    0 -0.97152395608E-01 -0.10312720525E+00  0.55325071023E+02  0.55824210551E+02  0.74470750000E+01 0.  1.
        -31    1    1    2    0    0  0.97152395608E-01  0.10312720525E+00  0.62746889730E+02  0.63187428897E+02  0.74470750000E+01 0. -1.
<mgrwt>
<rscale>  0 0.14925897E+02</rscale>
<asrwt>0</asrwt>
<pdfrwt beam="2">  1        2 0.99783474E+00 0.14925897E+02</pdfrwt>
<pdfrwt beam="1">  1       -2 0.98407150E+00 0.14925897E+02</pdfrwt>
<totfact> 0.36200958E-13</totfact>
</mgrwt>
</event>
<event>
 4    1 -0.5167034E-019  0.1500330E+02  0.7818608E-02  0.1867968E+00
          2   -1    0    0  501    0  0.00000000000E+00  0.00000000000E+00  0.11987992222E+03  0.11987992224E+03  0.25500000000E-02 0. -1.
         -2   -1    0    0    0  501 -0.00000000000E+00 -0.00000000000E+00 -0.46942272894E+00  0.46942965495E+00  0.25500000000E-02 0.  1.
         31    1    1    2    0    0 -0.22719284268E+00 -0.79499139011E+00  0.62622093224E+02  0.63068764961E+02  0.74470750000E+01 0. -1.
        -31    1    1    2    0    0  0.22719284268E+00  0.79499139011E+00  0.56788406262E+02  0.57280586936E+02  0.74470750000E+01 0.  1.
<mgrwt>
<rscale>  0 0.15003303E+02</rscale>
<asrwt>0</asrwt>
<pdfrwt beam="1">  1        2 0.99513265E+00 0.15003303E+02</pdfrwt>
<pdfrwt beam="2">  1       -2 0.99700468E+00 0.15003303E+02</pdfrwt>
<totfact>-0.94152462E-14</totfact>
</mgrwt>
</event>
<event>
 4    1 -0.5167034E-019  0.1493199E+02  0.7818608E-02  0.1870151E+00
         -2   -1    0    0    0  501 -0.00000000000E+00  0.00000000000E+00  0.12003841802E+03  0.12003841805E+03  0.25500000000E-02 0. -1.
          2   -1    0    0  501    0  0.00000000000E+00 -0.00000000000E+00 -0.46435650972E+00  0.46436351130E+00  0.25500000000E-02 0.  1.
         31    1    1    2    0    0 -0.33281573514E-01  0.43098231973E+00  0.57296190752E+02  0.57779747785E+02  0.74470750000E+01 0.  1.
        -31    1    1    2    0    0  0.33281573514E-01 -0.43098231973E+00  0.62277870762E+02  0.62723033776E+02  0.74470750000E+01 0. -1.
<mgrwt>
<rscale>  0 0.14931985E+02</rscale>
<asrwt>0</asrwt>
<pdfrwt beam="2">  1        2 0.98629126E+00 0.14931985E+02</pdfrwt>
<pdfrwt beam="1">  1       -2 0.99640131E+00 0.14931985E+02</pdfrwt>
<totfact>-0.25287883E-13</totfact>
</mgrwt>
</event>
<event>
 4    1 -0.5167034E-019  0.1489813E+02  0.7818608E-02  0.1871193E+00
          2   -1    0    0  501    0  0.00000000000E+00  0.00000000000E+00  0.11832477142E+03  0.11832477144E+03  0.25500000000E-02 0. -1.
         -2   -1    0    0    0  501 -0.00000000000E+00 -0.00000000000E+00 -0.46894773052E+00  0.46895466354E+00  0.25500000000E-02 0.  1.
         31    1    1    2    0    0  0.73863636495E-01 -0.64746011073E-01  0.60054793187E+02  0.60514847423E+02  0.74470750000E+01 0.  1.
        -31    1    1    2    0    0 -0.73863636495E-01  0.64746011073E-01  0.57801030499E+02  0.58278878684E+02  0.74470750000E+01 0.  1.
<mgrwt>
<rscale>  0 0.14898127E+02</rscale>
<asrwt>0</asrwt>
<pdfrwt beam="1">  1        2 0.98226964E+00 0.14898127E+02</pdfrwt>
<pdfrwt beam="2">  1       -2 0.99594877E+00 0.14898127E+02</pdfrwt>
<totfact>-0.51693732E-13</totfact>
</mgrwt>
</event>
<event>
 4    1  0.5167034E-019  0.1492375E+02  0.7818608E-02  0.1870404E+00
         -2   -1    0    0    0  501 -0.00000000000E+00  0.00000000000E+00  0.11846166135E+03  0.11846166138E+03  0.25500000000E-02 0.  1.
          2   -1    0    0  501    0  0.00000000000E+00 -0.00000000000E+00 -0.47001861973E+00  0.47002553696E+00  0.25500000000E-02 0. -1.
         31    1    1    2    0    0  0.27846592313E+00 -0.14922935872E+00  0.56225295132E+02  0.56717215653E+02  0.74470750000E+01 0. -1.
        -31    1    1    2    0    0 -0.27846592313E+00  0.14922935872E+00  0.61766347597E+02  0.62214471260E+02  0.74470750000E+01 0. -1.
<mgrwt>
<rscale>  0 0.14923753E+02</rscale>
<asrwt>0</asrwt>
<pdfrwt beam="2">  1        2 0.99821865E+00 0.14923753E+02</pdfrwt>
<pdfrwt beam="1">  1       -2 0.98341040E+00 0.14923753E+02</pdfrwt>
<totfact> 0.36394697E-13</totfact>
</mgrwt>
</event>
<event>
 4    1 -0.5167034E-019  0.1498697E+02  0.7818608E-02  0.1868466E+00
         -2   -1    0    0    0  501 -0.00000000000E+00  0.00000000000E+00  0.11996513010E+03  0.11996513013E+03  0.25500000000E-02 0.  1.
          2   -1    0    0  501    0  0.00000000000E+00 -0.00000000000E+00 -0.46806841856E+00  0.46807536461E+00  0.25500000000E-02 0. -1.
         31    1    1    2    0    0  0.52417344735E+00 -0.49698962436E+00  0.56419451951E+02  0.56913401243E+02  0.74470750000E+01 0. -1.
        -31    1    1    2    0    0 -0.52417344735E+00  0.49698962436E+00  0.63077609730E+02  0.63519804249E+02  0.74470750000E+01 0.  1.
<mgrwt>
<rscale>  0 0.14986969E+02</rscale>
<asrwt>0</asrwt>
<pdfrwt beam="2">  1        2 0.99414224E+00 0.14986969E+02</pdfrwt>
<pdfrwt beam="1">  1       -2 0.99582601E+00 0.14986969E+02</pdfrwt>
<totfact>-0.12327048E-13</totfact>
</mgrwt>
</event>
<event>
 4    1 -0.5167034E-019  0.1492432E+02  0.7818608E-02  0.1870387E+00
         -2   -1    0    0    0  501 -0.00000000000E+00  0.00000000000E+00  0.11982525294E+03  0.11982525297E+03  0.25500000000E-02 0.  1.
          2   -1    0    0  501    0  0.00000000000E+00 -0.00000000000E+00 -0.46470537319E+00  0.46471236951E+00  0.25500000000E-02 0. -1.
         31    1    1    2    0    0  0.45612909333E+00 -0.40403257597E-01  0.58684967895E+02  0.59157366989E+02  0.74470750000E+01 0. -1.
        -31    1    1    2    0    0 -0.45612909333E+00  0.40403257597E-01  0.60675579670E+02  0.61132598346E+02  0.74470750000E+01 0.  1.
<mgrwt>
<rscale>  0 0.14924324E+02</rscale>
<asrwt>0</asrwt>
<pdfrwt beam="2">  1        2 0.98702261E+00 0.14924324E+02</pdfrwt>
<pdfrwt beam="1">  1       -2 0.99464160E+00 0.14924324E+02</pdfrwt>
<totfact>-0.25525471E-13</totfact>
</mgrwt>
</event>
<event>
 4    1 -0.5167034E-019  0.1503111E+02  0.7818608E-02  0.1867121E+00
          2   -1    0    0  501    0  0.00000000000E+00  0.00000000000E+00  0.12032860496E+03  0.12032860499E+03  0.25500000000E-02 0.  1.
         -2   -1    0    0    0  501 -0.00000000000E+00 -0.00000000000E+00 -0.46940752214E+00  0.46941444838E+00  0.25500000000E-02 0. -1.
         31    1    1    2    0    0  0.71213039741E+00  0.70217019980E+00  0.61186835099E+02  0.61646475067E+02  0.74470750000E+01 0.  1.
        -31    1    1    2    0    0 -0.71213039741E+00 -0.70217019980E+00  0.58672362337E+02  0.59151544366E+02  0.74470750000E+01 0. -1.
<mgrwt>
<rscale>  0 0.15031111E+02</rscale>
<asrwt>0</asrwt>
<pdfrwt beam="1">  1        2 0.99884254E+00 0.15031111E+02</pdfrwt>
<pdfrwt beam="2">  1       -2 0.99698701E+00 0.15031111E+02</pdfrwt>
<totfact>-0.33433332E-14</totfact>
</mgrwt>
</event>
<event>
 4    1 -0.5167034E-019  0.1492653E+02  0.7818608E-02  0.1870319E+00
         -2   -1    0    0    0  501 -0.00000000000E+00  0.00000000000E+00  0.11969789240E+03  0.11969789242E+03  0.25500000000E-02 0. -1.
          2   -1    0    0  501    0  0.00000000000E+00 -0.00000000000E+00 -0.46533766379E+00  0.46534465060E+00  0.25500000000E-02 0.  1.
         31    1    1    2    0    0 -0.21198970980E+00  0.10275680467E+00  0.56144974875E+02  0.56637201806E+02  0.74470750000E+01 0.  1.
        -31    1    1    2    0    0  0.21198970980E+00 -0.10275680467E+00  0.63087579858E+02  0.63526035269E+02  0.74470750000E+01 0. -1.
<mgrwt>
<rscale>  0 0.14926535E+02</rscale>
<asrwt>0</asrwt>
<pdfrwt beam="2">  1        2 0.98835629E+00 0.14926535E+02</pdfrwt>
<pdfrwt beam="1">  1       -2 0.99359372E+00 0.14926535E+02</pdfrwt>
<totfact>-0.20171440E-13</totfact>
</mgrwt>
</event>
<event>
 4    1 -0.5167034E-019  0.1501515E+02  0.7818608E-02  0.1867607E+00
         -2   -1    0    0    0  501 -0.00000000000E+00  0.00000000000E+00  0.12035141234E+03  0.12035141236E+03  0.25500000000E-02 0. -1.
          2   -1    0    0  501    0  0.00000000000E+00 -0.00000000000E+00 -0.46832232652E+00  0.46832926881E+00  0.25500000000E-02 0.  1.
         31    1    1    2    0    0  0.46495065116E+00  0.82695308718E+00  0.59388855586E+02  0.59861466107E+02  0.74470750000E+01 0. -1.
        -31    1    1    2    0    0 -0.46495065116E+00 -0.82695308718E+00  0.60494234423E+02  0.60958275525E+02  0.74470750000E+01 0. -1.
<mgrwt>
<rscale>  0 0.15015149E+02</rscale>
<asrwt>0</asrwt>
<pdfrwt beam="2">  1        2 0.99469183E+00 0.15015149E+02</pdfrwt>
<pdfrwt beam="1">  1       -2 0.99902216E+00 0.15015149E+02</pdfrwt>
<totfact>-0.39187909E-14</totfact>
</mgrwt>
</event>
<event>
 4    1 -0.5167034E-019  0.1496343E+02  0.7818608E-02  0.1869187E+00
         -2   -1    0    0    0  501 -0.00000000000E+00  0.00000000000E+00  0.11950648438E+03  0.11950648441E+03  0.25500000000E-02 0. -1.
          2   -1    0    0  501    0  0.00000000000E+00 -0.00000000000E+00 -0.46838978417E+00  0.46839672545E+00  0.25500000000E-02 0.  1.
         31    1    1    2    0    0 -0.35254999704E+00 -0.59335990652E+00  0.57900689102E+02  0.58381718817E+02  0.74470750000E+01 0.  1.
        -31    1    1    2    0    0  0.35254999704E+00  0.59335990652E+00  0.61137405497E+02  0.61593162319E+02  0.74470750000E+01 0.  1.
<mgrwt>
<rscale>  0 0.14963427E+02</rscale>
<asrwt>0</asrwt>
<pdfrwt beam="2">  1        2 0.99480729E+00 0.14963427E+02</pdfrwt>
<pdfrwt beam="1">  1       -2 0.99203626E+00 0.14963427E+02</pdfrwt>
<totfact>-0.81440791E-14</totfact>
</mgrwt>
</event>
<event>
 4    1 -0.5167034E-019  0.1493306E+02  0.7818608E-02  0.1870118E+00
         -2   -1    0    0    0  501 -0.00000000000E+00  0.00000000000E+00  0.12001134724E+03  0.12001134727E+03  0.25500000000E-02 0.  1.
          2   -1    0    0  501    0  0.00000000000E+00 -0.00000000000E+00 -0.46452839900E+00  0.46453539798E+00  0.25500000000E-02 0. -1.
         31    1    1    2    0    0 -0.42777113400E+00 -0.21509619609E+00  0.57782107817E+02  0.58261995883E+02  0.74470750000E+01 0. -1.
        -31    1    1    2    0    0  0.42777113400E+00  0.21509619609E+00  0.61764711024E+02  0.62213886782E+02  0.74470750000E+01 0.  1.
<mgrwt>
<rscale>  0 0.14933064E+02</rscale>
<asrwt>0</asrwt>
<pdfrwt beam="2">  1        2 0.98665409E+00 0.14933064E+02</pdfrwt>
<pdfrwt beam="1">  1       -2 0.99617889E+00 0.14933064E+02</pdfrwt>
<totfact>-0.24690608E-13</totfact>
</mgrwt>
</event>
<event>
 4    1 -0.5167034E-019  0.1490759E+02  0.7818608E-02  0.1870901E+00
         -2   -1    0    0    0  501 -0.00000000000E+00  0.00000000000E+00  0.11963577263E+03  0.11963577265E+03  0.25500000000E-02 0.  1.
          2   -1    0    0  501    0  0.00000000000E+00 -0.00000000000E+00 -0.46439850573E+00  0.46440550667E+00  0.25500000000E-02 0. -1.
         31    1    1    2    0    0 -0.26517067279E+00  0.96157198968E-01  0.60742218596E+02  0.61197676489E+02  0.74470750000E+01 0.  1.
        -31    1    1    2    0    0  0.26517067279E+00 -0.96157198968E-01  0.58429155525E+02  0.58902501671E+02  0.74470750000E+01 0. -1.
<mgrwt>
<rscale>  0 0.14907595E+02</rscale>
<asrwt>0</asrwt>
<pdfrwt beam="2">  1        2 0.98636732E+00 0.14907595E+02</pdfrwt>
<pdfrwt beam="1">  1       -2 0.99307230E+00 0.14907595E+02</pdfrwt>
<totfact>-0.24642423E-13</totfact>
</mgrwt>
</event>
<event>
 4    1 -0.5167034E-019  0.1493946E+02  0.7818608E-02  0.1869921E+00
          2   -1    0    0  501    0  0.00000000000E+00  0.00000000000E+00  0.11949036137E+03  0.11949036139E+03  0.25500000000E-02 0. -1.
         -2   -1    0    0    0  501 -0.00000000000E+00 -0.00000000000E+00 -0.46695372256E+00  0.46696068519E+00  0.25500000000E-02 0.  1.
         31    1    1    2    0    0  0.29215756957E-01 -0.57062626730E+00  0.60372566281E+02  0.60832821349E+02  0.74470750000E+01 0. -1.
        -31    1    1    2    0    0 -0.29215756957E-01  0.57062626730E+00  0.58650841364E+02  0.59124500731E+02  0.74470750000E+01 0. -1.
<mgrwt>
<rscale>  0 0.14939463E+02</rscale>
<asrwt>0</asrwt>
<pdfrwt beam="1">  1        2 0.99189107E+00 0.14939463E+02</pdfrwt>
<pdfrwt beam="2">  1       -2 0.99176865E+00 0.14939463E+02</pdfrwt>
<totfact>-0.91267000E-14</totfact>
</mgrwt>
</event>
<event>
 4    1  0.5167034E-019  0.1490760E+02  0.7818608E-02  0.1870901E+00
         -2   -1    0    0    0  501 -0.00000000000E+00  0.00000000000E+00  0.11811229241E+03  0.11811229244E+03  0.25500000000E-02 0.  1.
          2   -1    0    0  501    0  0.00000000000E+00 -0.00000000000E+00 -0.47038895431E+00  0.47039586609E+00  0.25500000000E-02 0. -1.
         31    1    1    2    0    0 -0.94129327243E-01 -0.30017374274E+00  0.58541014189E+02  0.59013627519E+02  0.74470750000E+01 0. -1.
        -31    1    1    2    0    0  0.94129327243E-01  0.30017374274E+00  0.59100889269E+02  0.59569060787E+02  0.74470750000E+01 0.  1.
<mgrwt>
<rscale>  0 0.14907599E+02</rscale>
<asrwt>0</asrwt>
<pdfrwt beam="2">  1        2 0.99899036E+00 0.14907599E+02</pdfrwt>
<pdfrwt beam="1">  1       -2 0.98052463E+00 0.14907599E+02</pdfrwt>
<totfact> 0.39994585E-13</totfact>
</mgrwt>
</event>
<event>
 4    1  0.5167034E-019  0.1492504E+02  0.7818608E-02  0.1870365E+00
         -2   -1    0    0    0  501 -0.00000000000E+00  0.00000000000E+00  0.11872894956E+03  0.11872894959E+03  0.25500000000E-02 0. -1.
          2   -1    0    0  501    0  0.00000000000E+00 -0.00000000000E+00 -0.46904121471E+00  0.46904814635E+00  0.25500000000E-02 0.  1.
         31    1    1    2    0    0 -0.43540558264E+00  0.19921930956E+00  0.59381630543E+02  0.59848694542E+02  0.74470750000E+01 0.  1.
        -31    1    1    2    0    0  0.43540558264E+00 -0.19921930956E+00  0.58878277807E+02  0.59349303197E+02  0.74470750000E+01 0.  1.
<mgrwt>
<rscale>  0 0.14925037E+02</rscale>
<asrwt>0</asrwt>
<pdfrwt beam="2">  1        2 0.99615992E+00 0.14925037E+02</pdfrwt>
<pdfrwt beam="1">  1       -2 0.98561244E+00 0.14925037E+02</pdfrwt>
<totfact> 0.34915186E-13</totfact>
</mgrwt>
</event>
<event>
 4    1 -0.5167034E-019  0.1494297E+02  0.7818608E-02  0.1869814E+00
         -2   -1    0    0    0  501 -0.00000000000E+00  0.00000000000E+00  0.11978246413E+03  0.11978246415E+03  0.25500000000E-02 0.  1.
          2   -1    0    0  501    0  0.00000000000E+00 -0.00000000000E+00 -0.46603354505E+00  0.46604052143E+00  0.25500000000E-02 0. -1.
         31    1    1    2    0    0  0.49981896201E-01  0.35109736554E+00  0.63587126028E+02  0.64022709175E+02  0.74470750000E+01 0.  1.
        -31    1    1    2    0    0 -0.49981896201E-01 -0.35109736554E+00  0.55729304555E+02  0.56225795501E+02  0.74470750000E+01 0. -1.
<mgrwt>
<rscale>  0 0.14942967E+02</rscale>
<asrwt>0</asrwt>
<pdfrwt beam="2">  1        2 0.98983127E+00 0.14942967E+02</pdfrwt>
<pdfrwt beam="1">  1       -2 0.99429877E+00 0.14942967E+02</pdfrwt>
<totfact>-0.18042670E-13</totfact>
</mgrwt>
</event>
<event>
 4    1 -0.5167034E-019  0.1499902E+02  0.7818608E-02  0.1868098E+00
          2   -1    0    0  501    0  0.00000000000E+00  0.00000000000E+00  0.11974574824E+03  0.11974574827E+03  0.25500000000E-02 0. -1.
         -2   -1    0    0    0  501 -0.00000000000E+00 -0.00000000000E+00 -0.46968044930E+00  0.46968737151E+00  0.25500000000E-02 0.  1.
         31    1    1    2    0    0 -0.65193255227E+00 -0.34742486255E+00  0.63548184448E+02  0.63987314311E+02  0.74470750000E+01 0. -1.
        -31    1    1    2    0    0  0.65193255227E+00  0.34742486255E+00  0.55727883346E+02  0.56228121330E+02  0.74470750000E+01 0.  1.
<mgrwt>
<rscale>  0 0.14999021E+02</rscale>
<asrwt>0</asrwt>
<pdfrwt beam="1">  1        2 0.99402533E+00 0.14999021E+02</pdfrwt>
<pdfrwt beam="2">  1       -2 0.99754554E+00 0.14999021E+02</pdfrwt>
<totfact>-0.90802970E-14</totfact>
</mgrwt>
</event>
<event>
 4    1 -0.5167034E-019  0.1495331E+02  0.7818608E-02  0.1869496E+00
          2   -1    0    0  501    0  0.00000000000E+00  0.00000000000E+00  0.11952787831E+03  0.11952787834E+03  0.25500000000E-02 0. -1.
         -2   -1    0    0    0  501 -0.00000000000E+00 -0.00000000000E+00 -0.46767322587E+00  0.46768017778E+00  0.25500000000E-02 0.  1.
         31    1    1    2    0    0 -0.23262638553E+00  0.53927498971E+00  0.57036652995E+02  0.57523765901E+02  0.74470750000E+01 0.  1.
        -31    1    1    2    0    0  0.23262638553E+00 -0.53927498971E+00  0.62023552092E+02  0.62471792617E+02  0.74470750000E+01 0.  1.
<mgrwt>
<rscale>  0 0.14953315E+02</rscale>
<asrwt>0</asrwt>
<pdfrwt beam="1">  1        2 0.99220723E+00 0.14953315E+02</pdfrwt>
<pdfrwt beam="2">  1       -2 0.99329204E+00 0.14953315E+02</pdfrwt>
<totfact>-0.13562808E-13</totfact>
</mgrwt>
</event>
<event>
 4    1  0.5167034E-019  0.1491483E+02  0.7818608E-02  0.1870679E+00
          2   -1    0    0  501    0  0.00000000000E+00  0.00000000000E+00  0.11991914970E+03  0.11991914973E+03  0.25500000000E-02 0. -1.
         -2   -1    0    0    0  501 -0.00000000000E+00 -0.00000000000E+00 -0.46375080853E+00  0.46375781925E+00  0.25500000000E-02 0.  1.
         31    1    1    2    0    0  0.18229996277E+00  0.31577318892E+00  0.58553761919E+02  0.59026561029E+02  0.74470750000E+01 0. -1.
        -31    1    1    2    0    0 -0.18229996277E+00 -0.31577318892E+00  0.60901636975E+02  0.61356346519E+02  0.74470750000E+01 0. -1.
<mgrwt>
<rscale>  0 0.14914828E+02</rscale>
<asrwt>0</asrwt>
<pdfrwt beam="1">  1        2 0.99541011E+00 0.14914828E+02</pdfrwt>
<pdfrwt beam="2">  1       -2 0.98500596E+00 0.14914828E+02</pdfrwt>
<totfact> 0.46261674E-13</totfact>
</mgrwt>
</event>
<event>
 4    1 -0.5167034E-019  0.1492201E+02  0.7818608E-02  0.1870458E+00
         -2   -1    0    0    0  501 -0.00000000000E+00  0.00000000000E+00  0.11974379693E+03  0.11974379696E+03  0.25500000000E-02 0.  1.
          2   -1    0    0  501    0  0.00000000000E+00 -0.00000000000E+00 -0.46487734724E+00  0.46488434097E+00  0.25500000000E-02 0. -1.
         31    1    1    2    0    0  0.42317136938E+00  0.16649753181E+00  0.59878319085E+02  0.60341352470E+02  0.74470750000E+01 0. -1.
        -31    1    1    2    0    0 -0.42317136938E+00 -0.16649753181E+00  0.59400600497E+02  0.59867328827E+02  0.74470750000E+01 0. -1.
<mgrwt>
<rscale>  0 0.14922011E+02</rscale>
<asrwt>0</asrwt>
<pdfrwt beam="2">  1        2 0.98738386E+00 0.14922011E+02</pdfrwt>
<pdfrwt beam="1">  1       -2 0.99396948E+00 0.14922011E+02</pdfrwt>
<totfact>-0.23653632E-13</totfact>
</mgrwt>
</event>
<event>
 4    1  0.5167034E-019  0.1494394E+02  0.7818608E-02  0.1869784E+00
          2   -1    0    0  501    0  0.00000000000E+00  0.00000000000E+00  0.12024632522E+03  0.12024632524E+03  0.25500000000E-02 0.  1.
         -2   -1    0    0    0  501 -0.00000000000E+00 -0.00000000000E+00 -0.46429614554E+00  0.46430314803E+00  0.25500000000E-02 0. -1.
         31    1    1    2    0    0 -0.58974236995E+00 -0.10187930518E+00  0.58961986772E+02  0.59433433231E+02  0.74470750000E+01 0. -1.
        -31    1    1    2    0    0  0.58974236995E+00  0.10187930518E+00  0.60820042300E+02  0.61277195162E+02  0.74470750000E+01 0.  1.
<mgrwt>
<rscale>  0 0.14943939E+02</rscale>
<asrwt>0</asrwt>
<pdfrwt beam="1">  1        2 0.99811993E+00 0.14943939E+02</pdfrwt>
<pdfrwt beam="2">  1       -2 0.98617012E+00 0.14943939E+02</pdfrwt>
<totfact> 0.17610666E-13</totfact>
</mgrwt>
</event>
<event>
 4    1 -0.5167034E-019  0.1491515E+02  0.7818608E-02  0.1870669E+00
          2   -1    0    0  501    0  0.00000000000E+00  0.00000000000E+00  0.11859702727E+03  0.11859702729E+03  0.25500000000E-02 0.  1.
         -2   -1    0    0    0  501 -0.00000000000E+00 -0.00000000000E+00 -0.46894129232E+00  0.46894822544E+00  0.25500000000E-02 0. -1.
         31    1    1    2    0    0  0.96519012553E-01 -0.37762325256E+00  0.58521657931E+02  0.58994875102E+02  0.74470750000E+01 0. -1.
        -31    1    1    2    0    0 -0.96519012553E-01  0.37762325256E+00  0.59606428042E+02  0.60071100416E+02  0.74470750000E+01 0.  1.
<mgrwt>
<rscale>  0 0.14915154E+02</rscale>
<asrwt>0</asrwt>
<pdfrwt beam="1">  1        2 0.98452079E+00 0.14915154E+02</pdfrwt>
<pdfrwt beam="2">  1       -2 0.99594418E+00 0.14915154E+02</pdfrwt>
<totfact>-0.35436412E-13</totfact>
</mgrwt>
</event>
<event>
 4    1  0.5167034E-019  0.1490724E+02  0.7818608E-02  0.1870912E+00
          2   -1    0    0  501    0  0.00000000000E+00  0.00000000000E+00  0.11996896047E+03  0.11996896050E+03  0.25500000000E-02 0.  1.
         -2   -1    0    0    0  501 -0.00000000000E+00 -0.00000000000E+00 -0.46308687097E+00  0.46309389174E+00  0.25500000000E-02 0. -1.
         31    1    1    2    0    0 -0.11031775924E+00  0.29155223150E+00  0.59909619969E+02  0.60371505395E+02  0.74470750000E+01 0.  1.
        -31    1    1    2    0    0  0.11031775924E+00 -0.29155223150E+00  0.59596253630E+02  0.60060548994E+02  0.74470750000E+01 0. -1.
<mgrwt>
<rscale>  0 0.14907243E+02</rscale>
<asrwt>0</asrwt>
<pdfrwt beam="1">  1        2 0.99581649E+00 0.14907243E+02</pdfrwt>
<pdfrwt beam="2">  1       -2 0.98360277E+00 0.14907243E+02</pdfrwt>
<totfact> 0.63050677E-13</totfact>
</mgrwt>
</event>
<event>
 4    1 -0.5167034E-019  0.1499339E+02  0.7818608E-02  0.1868270E+00
          2   -1    0    0  501    0  0.00000000000E+00  0.00000000000E+00  0.11987600150E+03  0.11987600153E+03  0.25500000000E-02 0. -1.
         -2   -1    0    0    0  501 -0.00000000000E+00 -0.00000000000E+00 -0.46881817052E+00  0.46882510546E+00  0.25500000000E-02 0.  1.
         31    1    1    2    0    0 -0.18070153725E+00  0.78780158406E+00  0.62088106804E+02  0.62538349970E+02  0.74470750000E+01 0.  1.
        -31    1    1    2    0    0  0.18070153725E+00 -0.78780158406E+00  0.57319076529E+02  0.57806476666E+02  0.74470750000E+01 0.  1.
<mgrwt>
<rscale>  0 0.14993394E+02</rscale>
<asrwt>0</asrwt>
<pdfrwt beam="1">  1        2 0.99509523E+00 0.14993394E+02</pdfrwt>
<pdfrwt beam="2">  1       -2 0.99572555E+00 0.14993394E+02</pdfrwt>
<totfact>-0.11375907E-13</totfact>
</mgrwt>
</event>
<event>
 4    1  0.5167034E-019  0.1492004E+02  0.7818608E-02  0.1870518E+00
         -2   -1    0    0    0  501 -0.00000000000E+00  0.00000000000E+00  0.11898667894E+03  0.11898667896E+03  0.25500000000E-02 0. -1.
          2   -1    0    0  501    0  0.00000000000E+00 -0.00000000000E+00 -0.46771195006E+00  0.46771890140E+00  0.25500000000E-02 0.  1.
         31    1    1    2    0    0 -0.56269188299E-01  0.38176350826E+00  0.57578678085E+02  0.58059555680E+02  0.74470750000E+01 0.  1.
        -31    1    1    2    0    0  0.56269188299E-01 -0.38176350826E+00  0.60940288902E+02  0.61394842186E+02  0.74470750000E+01 0. -1.
<mgrwt>
<rscale>  0 0.14920041E+02</rscale>
<asrwt>0</asrwt>
<pdfrwt beam="2">  1        2 0.99335636E+00 0.14920041E+02</pdfrwt>
<pdfrwt beam="1">  1       -2 0.98773254E+00 0.14920041E+02</pdfrwt>
<totfact> 0.20133755E-13</totfact>
</mgrwt>
</event>
<event>
 4    1 -0.5167034E-019  0.1496201E+02  0.7818608E-02  0.1869230E+00
         -2   -1    0    0    0  501 -0.00000000000E+00  0.00000000000E+00  0.11997077326E+03  0.11997077329E+03  0.25500000000E-02 0. -1.
          2   -1    0    0  501    0  0.00000000000E+00 -0.00000000000E+00 -0.46648878761E+00  0.46649575718E+00  0.25500000000E-02 0.  1.
         31    1    1    2    0    0 -0.60419924566E+00 -0.93735260428E-01  0.56820156166E+02  0.57309361503E+02  0.74470750000E+01 0.  1.
        -31    1    1    2    0    0  0.60419924566E+00  0.93735260428E-01  0.62684128305E+02  0.63127907540E+02  0.74470750000E+01 0. -1.
<mgrwt>
<rscale>  0 0.14962011E+02</rscale>
<asrwt>0</asrwt>
<pdfrwt beam="2">  1        2 0.99080045E+00 0.14962011E+02</pdfrwt>
<pdfrwt beam="1">  1       -2 0.99585961E+00 0.14962011E+02</pdfrwt>
<totfact>-0.15820198E-13</totfact>
</mgrwt>
</event>
<event>
 4    1 -0.5167034E-019  0.1492481E+02  0.7818608E-02  0.1870372E+00
         -2   -1    0    0    0  501 -0.00000000000E+00  0.00000000000E+00  0.12030479430E+03  0.12030479433E+03  0.25500000000E-02 0. -1.
          2   -1    0    0  501    0  0.00000000000E+00 -0.00000000000E+00 -0.46288306904E+00  0.46289009290E+00  0.25500000000E-02 0.  1.
         31    1    1    2    0    0  0.33557757904E+00  0.31043216737E+00  0.61052980266E+02  0.61507189059E+02  0.74470750000E+01 0.  1.
        -31    1    1    2    0    0 -0.33557757904E+00 -0.31043216737E+00  0.58788930964E+02  0.59260495361E+02  0.74470750000E+01 0.  1.
<mgrwt>
<rscale>  0 0.14924809E+02</rscale>
<asrwt>0</asrwt>
<pdfrwt beam="2">  1        2 0.98318211E+00 0.14924809E+02</pdfrwt>
<pdfrwt beam="1">  1       -2 0.99859171E+00 0.14924809E+02</pdfrwt>
<totfact>-0.20759071E-13</totfact>
</mgrwt>
</event>
<event>
 4    1  0.5167034E-019  0.1490725E+02  0.7818608E-02  0.1870912E+00
          2   -1    0    0  501    0  0.00000000000E+00  0.00000000000E+00  0.11995836728E+03  0.11995836731E+03  0.25500000000E-02 0. -1.
         -2   -1    0    0    0  501 -0.00000000000E+00 -0.00000000000E+00 -0.46312847053E+00  0.46313549067E+00  0.25500000000E-02 0.  1.
         31    1    1    2    0    0  0.87060919390E-01 -0.16922186171E+00  0.57745668330E+02  0.58224199029E+02  0.74470750000E+01 0.  1.
        -31    1    1    2    0    0 -0.87060919390E-01  0.16922186171E+00  0.61749570478E+02  0.62197303767E+02  0.74470750000E+01 0. -1.
<mgrwt>
<rscale>  0 0.14907255E+02</rscale>
<asrwt>0</asrwt>
<pdfrwt beam="1">  1        2 0.99572924E+00 0.14907255E+02</pdfrwt>
<pdfrwt beam="2">  1       -2 0.98369046E+00 0.14907255E+02</pdfrwt>
<totfact> 0.62483007E-13</totfact>
</mgrwt>
</event>
<event>
 4    1 -0.5167034E-019  0.1493204E+02  0.7818608E-02  0.1870149E+00
          2   -1    0    0  501    0  0.00000000000E+00  0.00000000000E+00  0.11924936211E+03  0.11924936214E+03  0.25500000000E-02 0.  1.
         -2   -1    0    0    0  501 -0.00000000000E+00 -0.00000000000E+00 -0.46743276832E+00  0.46743972381E+00  0.25500000000E-02 0. -1.
         31    1    1    2    0    0  0.50297612977E+00  0.16845439429E+00  0.59667479496E+02  0.60132756442E+02  0.74470750000E+01 0. -1.
        -31    1    1    2    0    0 -0.50297612977E+00 -0.16845439429E+00  0.59114449845E+02  0.59584045418E+02  0.74470750000E+01 0.  1.
<mgrwt>
<rscale>  0 0.14932043E+02</rscale>
<asrwt>0</asrwt>
<pdfrwt beam="1">  1        2 0.98990228E+00 0.14932043E+02</pdfrwt>
<pdfrwt beam="2">  1       -2 0.99277430E+00 0.14932043E+02</pdfrwt>
<totfact>-0.14956574E-13</totfact>
</mgrwt>
</event>
<event>
 4    1  0.5167034E-019  0.1494249E+02  0.7818608E-02  0.1869829E+00
         -2   -1    0    0    0  501 -0.00000000000E+00  0.00000000000E+00  0.11904525214E+03  0.11904525217E+03  0.25500000000E-02 0. -1.
          2   -1    0    0  501    0  0.00000000000E+00 -0.00000000000E+00 -0.46888955770E+00  0.46889649158E+00  0.25500000000E-02 0.  1.
         31    1    1    2    0    0  0.20945536045E+00  0.55255599160E+00  0.60141259375E+02  0.60603458606E+02  0.74470750000E+01 0. -1.
        -31    1    1    2    0    0 -0.20945536045E+00 -0.55255599160E+00  0.58435103206E+02  0.58910690052E+02  0.74470750000E+01 0.  1.
<mgrwt>
<rscale>  0 0.14942489E+02</rscale>
<asrwt>0</asrwt>
<pdfrwt beam="2">  1        2 0.99584950E+00 0.14942489E+02</pdfrwt>
<pdfrwt beam="1">  1       -2 0.98822660E+00 0.14942489E+02</pdfrwt>
<totfact> 0.11940727E-13</totfact>
</mgrwt>
</event>
<event>
 4    1 -0.5167034E-019  0.1491186E+02  0.7818608E-02  0.1870770E+00
          2   -1    0    0  501    0  0.00000000000E+00  0.00000000000E+00  0.11880034885E+03  0.11880034887E+03  0.25500000000E-02 0. -1.
         -2   -1    0    0    0  501 -0.00000000000E+00 -0.00000000000E+00 -0.46793168843E+00  0.46793863651E+00  0.25500000000E-02 0.  1.
         31    1    1    2    0    0  0.68978523274E-01 -0.30541016987E+00  0.60638930907E+02  0.61095309976E+02  0.74470750000E+01 0. -1.
        -31    1    1    2    0    0 -0.68978523274E-01  0.30541016987E+00  0.57693486250E+02  0.58172977534E+02  0.74470750000E+01 0. -1.
<mgrwt>
<rscale>  0 0.14911856E+02</rscale>
<asrwt>0</asrwt>
<pdfrwt beam="1">  1        2 0.98619365E+00 0.14911856E+02</pdfrwt>
<pdfrwt beam="2">  1       -2 0.99381511E+00 0.14911856E+02</pdfrwt>
<totfact>-0.27771820E-13</totfact>
</mgrwt>
</event>
<event>
 4    1  0.5167034E-019  0.1496587E+02  0.7818608E-02  0.1869112E+00
         -2   -1    0    0    0  501 -0.00000000000E+00  0.00000000000E+00  0.11902386535E+03  0.11902386538E+03  0.25500000000E-02 0. -1.
          2   -1    0    0  501    0  0.00000000000E+00 -0.00000000000E+00 -0.47044235154E+00  0.47044926254E+00  0.25500000000E-02 0.  1.
         31    1    1    2    0    0  0.33093381846E+00  0.51529968825E+00  0.62473533422E+02  0.62918807643E+02  0.74470750000E+01 0. -1.
        -31    1    1    2    0    0 -0.33093381846E+00 -0.51529968825E+00  0.56079889576E+02  0.56575506996E+02  0.74470750000E+01 0. -1.
<mgrwt>
<rscale>  0 0.14965865E+02</rscale>
<asrwt>0</asrwt>
<pdfrwt beam="2">  1        2 0.99913366E+00 0.14965865E+02</pdfrwt>
<pdfrwt beam="1">  1       -2 0.98806260E+00 0.14965865E+02</pdfrwt>
<totfact> 0.39368392E-14</totfact>
</mgrwt>
</event>
<event>
 4    1 -0.5167034E-019  0.1496512E+02  0.7818608E-02  0.1869135E+00
         -2   -1    0    0    0  501 -0.00000000000E+00  0.00000000000E+00  0.11976598797E+03  0.11976598799E+03  0.25500000000E-02 0. -1.
          2   -1    0    0  501    0  0.00000000000E+00 -0.00000000000E+00 -0.46748064223E+00  0.46748759701E+00  0.25500000000E-02 0.  1.
         31    1    1    2    0    0  0.43213251953E+00  0.20698915461E+00  0.64051197480E+02  0.64484450898E+02  0.74470750000E+01 0. -1.
        -31    1    1    2    0    0 -0.43213251953E+00 -0.20698915461E+00  0.55247309845E+02  0.55749024693E+02  0.74470750000E+01 0.  1.
<mgrwt>
<rscale>  0 0.14965120E+02</rscale>
<asrwt>0</asrwt>
<pdfrwt beam="2">  1        2 0.99289231E+00 0.14965120E+02</pdfrwt>
<pdfrwt beam="1">  1       -2 0.99417450E+00 0.14965120E+02</pdfrwt>
<totfact>-0.14031363E-13</totfact>
</mgrwt>
</event>
<event>
 4    1 -0.5167034E-019  0.1497528E+02  0.7818608E-02  0.1868824E+00
          2   -1    0    0  501    0  0.00000000000E+00  0.00000000000E+00  0.11952178736E+03  0.11952178738E+03  0.25500000000E-02 0.  1.
         -2   -1    0    0    0  501 -0.00000000000E+00 -0.00000000000E+00 -0.46907204249E+00  0.46907897368E+00  0.25500000000E-02 0. -1.
         31    1    1    2    0    0 -0.27183574909E-01  0.77248908298E+00  0.60258184657E+02  0.60721538375E+02  0.74470750000E+01 0.  1.
        -31    1    1    2    0    0  0.27183574909E-01 -0.77248908298E+00  0.58794530655E+02  0.59269327981E+02  0.74470750000E+01 0. -1.
<mgrwt>
<rscale>  0 0.14975279E+02</rscale>
<asrwt>0</asrwt>
<pdfrwt beam="1">  1        2 0.99216844E+00 0.14975279E+02</pdfrwt>
<pdfrwt beam="2">  1       -2 0.99625114E+00 0.14975279E+02</pdfrwt>
<totfact>-0.13619030E-13</totfact>
</mgrwt>
</event>
<event>
 4    1  0.5167034E-019  0.1490401E+02  0.7818608E-02  0.1871012E+00
          2   -1    0    0  501    0  0.00000000000E+00  0.00000000000E+00  0.12026108287E+03  0.12026108290E+03  0.25500000000E-02 0. -1.
         -2   -1    0    0    0  501 -0.00000000000E+00 -0.00000000000E+00 -0.46176180951E+00  0.46176885043E+00  0.25500000000E-02 0.  1.
         31    1    1    2    0    0  0.26576287013E+00  0.49541891941E-01  0.60059933662E+02  0.60520472915E+02  0.74470750000E+01 0. -1.
        -31    1    1    2    0    0 -0.26576287013E+00 -0.49541891941E-01  0.59739387402E+02  0.60202378836E+02  0.74470750000E+01 0. -1.
<mgrwt>
<rscale>  0 0.14904013E+02</rscale>
<asrwt>0</asrwt>
<pdfrwt beam="1">  1        2 0.99822100E+00 0.14904013E+02</pdfrwt>
<pdfrwt beam="2">  1       -2 0.98080829E+00 0.14904013E+02</pdfrwt>
<totfact> 0.61532794E-13</totfact>
</mgrwt>
</event>
<event>
 4    1 -0.5167034E-019  0.1490015E+02  0.7818608E-02  0.1871131E+00
         -2   -1    0    0    0  501 -0.00000000000E+00  0.00000000000E+00  0.11974620979E+03  0.11974620982E+03  0.25500000000E-02 0.  1.
          2   -1    0    0  501    0  0.00000000000E+00 -0.00000000000E+00 -0.46350703306E+00  0.46351404746E+00  0.25500000000E-02 0. -1.
         31    1    1    2    0    0 -0.20429432893E+00  0.98665418129E-02  0.60073863241E+02  0.60534038394E+02  0.74470750000E+01 0. -1.
        -31    1    1    2    0    0  0.20429432893E+00 -0.98665418129E-02  0.59208839520E+02  0.59675685475E+02  0.74470750000E+01 0.  1.
<mgrwt>
<rscale>  0 0.14900152E+02</rscale>
<asrwt>0</asrwt>
<pdfrwt beam="2">  1        2 0.98448471E+00 0.14900152E+02</pdfrwt>
<pdfrwt beam="1">  1       -2 0.99397810E+00 0.14900152E+02</pdfrwt>
<totfact>-0.36911984E-13</totfact>
</mgrwt>
</event>
<event>
 4    1  0.5167034E-019  0.1489686E+02  0.7818608E-02  0.1871232E+00
         -2   -1    0    0    0  501 -0.00000000000E+00  0.00000000000E+00  0.11805333884E+03  0.11805333887E+03  0.25500000000E-02 0. -1.
          2   -1    0    0  501    0  0.00000000000E+00 -0.00000000000E+00 -0.46994593761E+00  0.46995285591E+00  0.25500000000E-02 0.  1.
         31    1    1    2    0    0  0.26709627752E-01  0.12556888600E+00  0.59275108991E+02  0.59741224903E+02  0.74470750000E+01 0.  1.
        -31    1    1    2    0    0 -0.26709627752E-01 -0.12556888600E+00  0.58308283914E+02  0.58782066823E+02  0.74470750000E+01 0.  1.
<mgrwt>
<rscale>  0 0.14896859E+02</rscale>
<asrwt>0</asrwt>
<pdfrwt beam="2">  1        2 0.99805126E+00 0.14896859E+02</pdfrwt>
<pdfrwt beam="1">  1       -2 0.98003350E+00 0.14896859E+02</pdfrwt>
<totfact> 0.75699235E-13</totfact>
</mgrwt>
</event>
<event>
 4    1 -0.5167034E-019  0.1494798E+02  0.7818608E-02  0.1869660E+00
          2   -1    0    0  501    0  0.00000000000E+00  0.00000000000E+00  0.11967583630E+03  0.11967583633E+03  0.25500000000E-02 0. -1.
         -2   -1    0    0    0  501 -0.00000000000E+00 -0.00000000000E+00 -0.46676160181E+00  0.46676856731E+00  0.25500000000E-02 0.  1.
         31    1    1    2    0    0 -0.52095892918E+00 -0.13173366954E+00  0.62304273394E+02  0.62750061045E+02  0.74470750000E+01 0. -1.
        -31    1    1    2    0    0  0.52095892918E+00  0.13173366954E+00  0.56904801303E+02  0.57392543848E+02  0.74470750000E+01 0.  1.
<mgrwt>
<rscale>  0 0.14947977E+02</rscale>
<asrwt>0</asrwt>
<pdfrwt beam="1">  1        2 0.99342312E+00 0.14947977E+02</pdfrwt>
<pdfrwt beam="2">  1       -2 0.99136817E+00 0.14947977E+02</pdfrwt>
<totfact>-0.65118436E-14</totfact>
</mgrwt>
</event>
<event>
 4    1  0.5167034E-019  0.1491946E+02  0.7818608E-02  0.1870536E+00
          2   -1    0    0  501    0  0.00000000000E+00  0.00000000000E+00  0.11958224644E+03  0.11958224646E+03  0.25500000000E-02 0.  1.
         -2   -1    0    0    0  501 -0.00000000000E+00 -0.00000000000E+00 -0.46534614990E+00  0.46535313658E+00  0.25500000000E-02 0. -1.
         31    1    1    2    0    0  0.24679374334E+00  0.25648267139E+00  0.57555848981E+02  0.58036724309E+02  0.74470750000E+01 0.  1.
        -31    1    1    2    0    0 -0.24679374334E+00 -0.25648267139E+00  0.61561051306E+02  0.62010875292E+02  0.74470750000E+01 0.  1.
<mgrwt>
<rscale>  0 0.14919458E+02</rscale>
<asrwt>0</asrwt>
<pdfrwt beam="1">  1        2 0.99263755E+00 0.14919458E+02</pdfrwt>
<pdfrwt beam="2">  1       -2 0.98837055E+00 0.14919458E+02</pdfrwt>
<totfact> 0.14578776E-13</totfact>
</mgrwt>
</event>
<event>
 4    1 -0.5167034E-019  0.1499290E+02  0.7818608E-02  0.1868285E+00
          2   -1    0    0  501    0  0.00000000000E+00  0.00000000000E+00  0.11989633716E+03  0.11989633719E+03  0.25500000000E-02 0. -1.
         -2   -1    0    0    0  501 -0.00000000000E+00 -0.00000000000E+00 -0.46870800935E+00  0.46871494592E+00  0.25500000000E-02 0.  1.
         31    1    1    2    0    0  0.56404333429E+00 -0.40296357592E+00  0.63786398190E+02  0.64223391725E+02  0.74470750000E+01 0. -1.
        -31    1    1    2    0    0 -0.56404333429E+00  0.40296357592E+00  0.55641230965E+02  0.56141660412E+02  0.74470750000E+01 0. -1.
<mgrwt>
<rscale>  0 0.14992904E+02</rscale>
<asrwt>0</asrwt>
<pdfrwt beam="1">  1        2 0.99526247E+00 0.14992904E+02</pdfrwt>
<pdfrwt beam="2">  1       -2 0.99549316E+00 0.14992904E+02</pdfrwt>
<totfact>-0.11359485E-13</totfact>
</mgrwt>
</event>
<event>
 4    1  0.5167034E-019  0.1493270E+02  0.7818608E-02  0.1870129E+00
          2   -1    0    0  501    0  0.00000000000E+00  0.00000000000E+00  0.12026985507E+03  0.12026985510E+03  0.25500000000E-02 0.  1.
         -2   -1    0    0    0  501 -0.00000000000E+00 -0.00000000000E+00 -0.46350728963E+00  0.46351430403E+00  0.25500000000E-02 0. -1.
         31    1    1    2    0    0 -0.31013122281E+00  0.31589520088E+00  0.57457729556E+02  0.57940017112E+02  0.74470750000E+01 0. -1.
        -31    1    1    2    0    0  0.31013122281E+00 -0.31589520088E+00  0.62348618223E+02  0.62793352287E+02  0.74470750000E+01 0.  1.
<mgrwt>
<rscale>  0 0.14932700E+02</rscale>
<asrwt>0</asrwt>
<pdfrwt beam="1">  1        2 0.99830797E+00 0.14932700E+02</pdfrwt>
<pdfrwt beam="2">  1       -2 0.98450178E+00 0.14932700E+02</pdfrwt>
<totfact> 0.26701667E-13</totfact>
</mgrwt>
</event>
<event>
 4    1 -0.5167034E-019  0.1501410E+02  0.7818608E-02  0.1867638E+00
         -2   -1    0    0    0  501 -0.00000000000E+00  0.00000000000E+00  0.12032568899E+03  0.12032568901E+03  0.25500000000E-02 0. -1.
          2   -1    0    0  501    0  0.00000000000E+00 -0.00000000000E+00 -0.46835728297E+00  0.46836422474E+00  0.25500000000E-02 0.  1.
         31    1    1    2    0    0  0.90868694602E+00  0.14686407096E+00  0.61720935300E+02  0.62175397557E+02  0.74470750000E+01 0. -1.
        -31    1    1    2    0    0 -0.90868694602E+00 -0.14686407096E+00  0.58136396402E+02  0.58618655680E+02  0.74470750000E+01 0.  1.
<mgrwt>
<rscale>  0 0.15014105E+02</rscale>
<asrwt>0</asrwt>
<pdfrwt beam="2">  1        2 0.99476497E+00 0.15014105E+02</pdfrwt>
<pdfrwt beam="1">  1       -2 0.99880975E+00 0.15014105E+02</pdfrwt>
<totfact>-0.46531979E-14</totfact>
</mgrwt>
</event>
<event>
 4    1 -0.5167034E-019  0.1490372E+02  0.7818608E-02  0.1871021E+00
         -2   -1    0    0    0  501 -0.00000000000E+00  0.00000000000E+00  0.11961651111E+03  0.11961651114E+03  0.25500000000E-02 0. -1.
          2   -1    0    0  501    0  0.00000000000E+00 -0.00000000000E+00 -0.46423201382E+00  0.46423901727E+00  0.25500000000E-02 0.  1.
         31    1    1    2    0    0 -0.20056777684E+00 -0.17332522239E+00  0.59836077845E+02  0.60298303516E+02  0.74470750000E+01 0. -1.
        -31    1    1    2    0    0  0.20056777684E+00  0.17332522239E+00  0.59316201250E+02  0.59782446637E+02  0.74470750000E+01 0. -1.
<mgrwt>
<rscale>  0 0.14903722E+02</rscale>
<asrwt>0</asrwt>
<pdfrwt beam="2">  1        2 0.98601446E+00 0.14903722E+02</pdfrwt>
<pdfrwt beam="1">  1       -2 0.99291166E+00 0.14903722E+02</pdfrwt>
<totfact>-0.25246331E-13</totfact>
</mgrwt>
</event>
<event>
 4    1  0.5167034E-019  0.1492491E+02  0.7818608E-02  0.1870369E+00
          2   -1    0    0  501    0  0.00000000000E+00  0.00000000000E+00  0.11985054853E+03  0.11985054856E+03  0.25500000000E-02 0. -1.
         -2   -1    0    0    0  501 -0.00000000000E+00 -0.00000000000E+00 -0.46464389133E+00  0.46465088857E+00  0.25500000000E-02 0.  1.
         31    1    1    2    0    0 -0.28676296696E+00 -0.30846813034E+00  0.61530098445E+02  0.61980556034E+02  0.74470750000E+01 0. -1.
        -31    1    1    2    0    0  0.28676296696E+00  0.30846813034E+00  0.57855806194E+02  0.58334643412E+02  0.74470750000E+01 0.  1.
<mgrwt>
<rscale>  0 0.14924912E+02</rscale>
<asrwt>0</asrwt>
<pdfrwt beam="1">  1        2 0.99485025E+00 0.14924912E+02</pdfrwt>
<pdfrwt beam="2">  1       -2 0.98689333E+00 0.14924912E+02</pdfrwt>
<totfact> 0.26069375E-13</totfact>
</mgrwt>
</event>
<event>
 4    1  0.5167034E-019  0.1491018E+02  0.7818608E-02  0.1870822E+00
         -2   -1    0    0    0  501 -0.00000000000E+00  0.00000000000E+00  0.11825923686E+03  0.11825923688E+03  0.25500000000E-02 0. -1.
          2   -1    0    0  501    0  0.00000000000E+00 -0.00000000000E+00 -0.46996736680E+00  0.46997428478E+00  0.25500000000E-02 0.  1.
         31    1    1    2    0    0  0.10518474384E+00  0.19295409280E+00  0.61019019203E+02  0.61472171962E+02  0.74470750000E+01 0. -1.
        -31    1    1    2    0    0 -0.10518474384E+00 -0.19295409280E+00  0.56770250285E+02  0.57257039206E+02  0.74470750000E+01 0.  1.
<mgrwt>
<rscale>  0 0.14910184E+02</rscale>
<asrwt>0</asrwt>
<pdfrwt beam="2">  1        2 0.99810348E+00 0.14910184E+02</pdfrwt>
<pdfrwt beam="1">  1       -2 0.98173619E+00 0.14910184E+02</pdfrwt>
<totfact> 0.54455621E-13</totfact>
</mgrwt>
</event>
<event>
 4    1  0.5167034E-019  0.1490825E+02  0.7818608E-02  0.1870881E+00
         -2   -1    0    0    0  501 -0.00000000000E+00  0.00000000000E+00  0.11883405888E+03  0.11883405891E+03  0.25500000000E-02 0.  1.
          2   -1    0    0  501    0  0.00000000000E+00 -0.00000000000E+00 -0.46757254860E+00  0.46757950202E+00  0.25500000000E-02 0. -1.
         31    1    1    2    0    0  0.32099945502E+00 -0.36484987041E-01  0.59389189277E+02  0.59855150997E+02  0.74470750000E+01 0. -1.
        -31    1    1    2    0    0 -0.32099945502E+00  0.36484987041E-01  0.58977297052E+02  0.59446487411E+02  0.74470750000E+01 0. -1.
<mgrwt>
<rscale>  0 0.14908247E+02</rscale>
<asrwt>0</asrwt>
<pdfrwt beam="2">  1        2 0.99305646E+00 0.14908247E+02</pdfrwt>
<pdfrwt beam="1">  1       -2 0.98646942E+00 0.14908247E+02</pdfrwt>
<totfact> 0.35573277E-13</totfact>
</mgrwt>
</event>
<event>
 4    1 -0.5167034E-019  0.1497485E+02  0.7818608E-02  0.1868837E+00
         -2   -1    0    0    0  501 -0.00000000000E+00  0.00000000000E+00  0.11992970841E+03  0.11992970844E+03  0.25500000000E-02 0. -1.
          2   -1    0    0  501    0  0.00000000000E+00 -0.00000000000E+00 -0.46744978187E+00  0.46745673711E+00  0.25500000000E-02 0.  1.
         31    1    1    2    0    0 -0.55380435129E+00 -0.42478858739E+00  0.62463126663E+02  0.62909365465E+02  0.74470750000E+01 0. -1.
        -31    1    1    2    0    0  0.55380435129E+00  0.42478858739E+00  0.56999131966E+02  0.57487799711E+02  0.74470750000E+01 0.  1.
<mgrwt>
<rscale>  0 0.14974850E+02</rscale>
<asrwt>0</asrwt>
<pdfrwt beam="2">  1        2 0.99283229E+00 0.14974850E+02</pdfrwt>
<pdfrwt beam="1">  1       -2 0.99552800E+00 0.14974850E+02</pdfrwt>
<totfact>-0.13933299E-13</totfact>
</mgrwt>
</event>
<event>
 4    1 -0.5167034E-019  0.1489784E+02  0.7818608E-02  0.1871202E+00
         -2   -1    0    0    0  501 -0.00000000000E+00  0.00000000000E+00  0.11990672012E+03  0.11990672015E+03  0.25500000000E-02 0. -1.
          2   -1    0    0  501    0  0.00000000000E+00 -0.00000000000E+00 -0.46274293350E+00  0.46274995948E+00  0.25500000000E-02 0.  1.
         31    1    1    2    0    0 -0.11466384713E+00  0.11032516287E+00  0.60098053800E+02  0.60557908782E+02  0.74470750000E+01 0. -1.
        -31    1    1    2    0    0  0.11466384713E+00 -0.11032516287E+00  0.59345923387E+02  0.59811561325E+02  0.74470750000E+01 0.  1.
<mgrwt>
<rscale>  0 0.14897840E+02</rscale>
<asrwt>0</asrwt>
<pdfrwt beam="2">  1        2 0.98287310E+00 0.14897840E+02</pdfrwt>
<pdfrwt beam="1">  1       -2 0.99529900E+00 0.14897840E+02</pdfrwt>
<totfact>-0.48976791E-13</totfact>
</mgrwt>
</event>
<event>
 4    1 -0.5167034E-019  0.1499419E+02  0.7818608E-02  0.1868246E+00
          2   -1    0    0  501    0  0.00000000000E+00  0.00000000000E+00  0.11984815468E+03  0.11984815471E+03  0.25500000000E-02 0. -1.
         -2   -1    0    0    0  501 -0.00000000000E+00 -0.00000000000E+00 -0.46897669150E+00  0.46898362410E+00  0.25500000000E-02 0.  1.
         31    1    1    2    0    0  0.47463650215E+00 -0.24962561229E+00  0.65131256521E+02  0.65557814903E+02  0.74470750000E+01 0. -1.
        -31    1    1    2    0    0 -0.47463650215E+00  0.24962561229E+00  0.54247921471E+02  0.54759323432E+02  0.74470750000E+01 0.  1.
<mgrwt>
<rscale>  0 0.14994187E+02</rscale>
<asrwt>0</asrwt>
<pdfrwt beam="1">  1        2 0.99486628E+00 0.14994187E+02</pdfrwt>
<pdfrwt beam="2">  1       -2 0.99606002E+00 0.14994187E+02</pdfrwt>
<totfact>-0.11273511E-13</totfact>
</mgrwt>
</event>
<event>
 4    1 -0.5167034E-019  0.1493309E+02  0.7818608E-02  0.1870117E+00
          2   -1    0    0  501    0  0.00000000000E+00  0.00000000000E+00  0.11905881762E+03  0.11905881765E+03  0.25500000000E-02 0. -1.
         -2   -1    0    0    0  501 -0.00000000000E+00 -0.00000000000E+00 -0.46824679403E+00  0.46825373743E+00  0.25500000000E-02 0.  1.
         31    1    1    2    0    0  0.80577318181E-02 -0.48492509612E+00  0.57415021600E+02  0.57898003840E+02  0.74470750000E+01 0.  1.
        -31    1    1    2    0    0 -0.80577318181E-02  0.48492509612E+00  0.61175549227E+02  0.61629067546E+02  0.74470750000E+01 0.  1.
<mgrwt>
<rscale>  0 0.14933094E+02</rscale>
<asrwt>0</asrwt>
<pdfrwt beam="1">  1        2 0.98833346E+00 0.14933094E+02</pdfrwt>
<pdfrwt beam="2">  1       -2 0.99449019E+00 0.14933094E+02</pdfrwt>
<totfact>-0.21404951E-13</totfact>
</mgrwt>
</event>
<event>
 4    1 -0.5167034E-019  0.1490888E+02  0.7818608E-02  0.1870862E+00
         -2   -1    0    0    0  501 -0.00000000000E+00  0.00000000000E+00  0.11976553172E+03  0.11976553174E+03  0.25500000000E-02 0.  1.
          2   -1    0    0  501    0  0.00000000000E+00 -0.00000000000E+00 -0.46397517775E+00  0.46398218508E+00  0.25500000000E-02 0. -1.
         31    1    1    2    0    0  0.50094314816E-01 -0.11850041631E+00  0.57189136055E+02  0.57672114237E+02  0.74470750000E+01 0. -1.
        -31    1    1    2    0    0 -0.50094314816E-01  0.11850041631E+00  0.62112420484E+02  0.62557399692E+02  0.74470750000E+01 0.  1.
<mgrwt>
<rscale>  0 0.14908877E+02</rscale>
<asrwt>0</asrwt>
<pdfrwt beam="2">  1        2 0.98547580E+00 0.14908877E+02</pdfrwt>
<pdfrwt beam="1">  1       -2 0.99414174E+00 0.14908877E+02</pdfrwt>
<totfact>-0.31749350E-13</totfact>
</mgrwt>
</event>
<event>
 4    1 -0.5167034E-019  0.1491191E+02  0.7818608E-02  0.1870768E+00
          2   -1    0    0  501    0  0.00000000000E+00  0.00000000000E+00  0.11849809394E+03  0.11849809397E+03  0.25500000000E-02 0.  1.
         -2   -1    0    0    0  501 -0.00000000000E+00 -0.00000000000E+00 -0.46912886777E+00  0.46913579812E+00  0.25500000000E-02 0. -1.
         31    1    1    2    0    0  0.30909234662E+00  0.11108087702E+00  0.57766048785E+02  0.58245027215E+02  0.74470750000E+01 0. -1.
        -31    1    1    2    0    0 -0.30909234662E+00 -0.11108087702E+00  0.60262916287E+02  0.60722202550E+02  0.74470750000E+01 0.  1.
<mgrwt>
<rscale>  0 0.14911913E+02</rscale>
<asrwt>0</asrwt>
<pdfrwt beam="1">  1        2 0.98370429E+00 0.14911913E+02</pdfrwt>
<pdfrwt beam="2">  1       -2 0.99633770E+00 0.14911913E+02</pdfrwt>
<totfact>-0.38711488E-13</totfact>
</mgrwt>
</event>
<event>
 4    1 -0.5167034E-019  0.1492347E+02  0.7818608E-02  0.1870413E+00
          2   -1    0    0  501    0  0.00000000000E+00  0.00000000000E+00  0.11866520082E+03  0.11866520084E+03  0.25500000000E-02 0. -1.
         -2   -1    0    0    0  501 -0.00000000000E+00 -0.00000000000E+00 -0.46919481448E+00  0.46920174385E+00  0.25500000000E-02 0.  1.
         31    1    1    2    0    0 -0.48275399581E-01 -0.34620129328E+00  0.56619414731E+02  0.57108136341E+02  0.74470750000E+01 0. -1.
        -31    1    1    2    0    0  0.48275399581E-01  0.34620129328E+00  0.61576591270E+02  0.62026266246E+02  0.74470750000E+01 0.  1.
<mgrwt>
<rscale>  0 0.14923473E+02</rscale>
<asrwt>0</asrwt>
<pdfrwt beam="1">  1        2 0.98508659E+00 0.14923473E+02</pdfrwt>
<pdfrwt beam="2">  1       -2 0.99648274E+00 0.14923473E+02</pdfrwt>
<totfact>-0.30161823E-13</totfact>
</mgrwt>
</event>
<event>
 4    1 -0.5167034E-019  0.1491478E+02  0.7818608E-02  0.1870680E+00
         -2   -1    0    0    0  501 -0.00000000000E+00  0.00000000000E+00  0.11994077452E+03  0.11994077455E+03  0.25500000000E-02 0.  1.
          2   -1    0    0  501    0  0.00000000000E+00 -0.00000000000E+00 -0.46366435687E+00  0.46367136890E+00  0.25500000000E-02 0. -1.
         31    1    1    2    0    0 -0.30119266874E+00 -0.21728090583E+00  0.58722796536E+02  0.59194287622E+02  0.74470750000E+01 0. -1.
        -31    1    1    2    0    0  0.30119266874E+00  0.21728090583E+00  0.60754313629E+02  0.61210158296E+02  0.74470750000E+01 0. -1.
<mgrwt>
<rscale>  0 0.14914783E+02</rscale>
<asrwt>0</asrwt>
<pdfrwt beam="2">  1        2 0.98482373E+00 0.14914783E+02</pdfrwt>
<pdfrwt beam="1">  1       -2 0.99558820E+00 0.14914783E+02</pdfrwt>
<totfact>-0.34770905E-13</totfact>
</mgrwt>
</event>
<event>
 4    1  0.5167034E-019  0.1492274E+02  0.7818608E-02  0.1870435E+00
         -2   -1    0    0    0  501 -0.00000000000E+00  0.00000000000E+00  0.11866320546E+03  0.11866320549E+03  0.25500000000E-02 0.  1.
          2   -1    0    0  501    0  0.00000000000E+00 -0.00000000000E+00 -0.46915666416E+00  0.46916359409E+00  0.25500000000E-02 0. -1.
         31    1    1    2    0    0 -0.17166325715E+00 -0.16588755928E-01  0.62515680662E+02  0.62957914500E+02  0.74470750000E+01 0.  1.
        -31    1    1    2    0    0  0.17166325715E+00  0.16588755928E-01  0.55678368134E+02  0.56174454582E+02  0.74470750000E+01 0. -1.
<mgrwt>
<rscale>  0 0.14922741E+02</rscale>
<asrwt>0</asrwt>
<pdfrwt beam="2">  1        2 0.99640197E+00 0.14922741E+02</pdfrwt>
<pdfrwt beam="1">  1       -2 0.98506978E+00 0.14922741E+02</pdfrwt>
<totfact> 0.39462669E-13</totfact>
</mgrwt>
</event>
<event>
 4    1 -0.5167034E-019  0.1490831E+02  0.7818608E-02  0.1870879E+00
          2   -1    0    0  501    0  0.00000000000E+00  0.00000000000E+00  0.11830068134E+03  0.11830068136E+03  0.25500000000E-02 0. -1.
         -2   -1    0    0    0  501 -0.00000000000E+00 -0.00000000000E+00 -0.46968493487E+00  0.46969185701E+00  0.25500000000E-02 0.  1.
         31    1    1    2    0    0  0.24490373950E+00 -0.21206636997E+00  0.59108100185E+02  0.59576265270E+02  0.74470750000E+01 0.  1.
        -31    1    1    2    0    0 -0.24490373950E+00  0.21206636997E+00  0.58722896216E+02  0.59194107950E+02  0.74470750000E+01 0.  1.
<mgrwt>
<rscale>  0 0.14908315E+02</rscale>
<asrwt>0</asrwt>
<pdfrwt beam="1">  1        2 0.98207655E+00 0.14908315E+02</pdfrwt>
<pdfrwt beam="2">  1       -2 0.99750743E+00 0.14908315E+02</pdfrwt>
<totfact>-0.39867439E-13</totfact>
</mgrwt>
</event>
<event>
 4    1  0.5167034E-019  0.1491412E+02  0.7818608E-02  0.1870701E+00
          2   -1    0    0  501    0  0.00000000000E+00  0.00000000000E+00  0.12001424103E+03  0.12001424106E+03  0.25500000000E-02 0.  1.
         -2   -1    0    0    0  501 -0.00000000000E+00 -0.00000000000E+00 -0.46333905988E+00  0.46334607682E+00  0.25500000000E-02 0. -1.
         31    1    1    2    0    0 -0.43750352450E-01  0.30470744164E+00  0.57897869652E+02  0.58375654146E+02  0.74470750000E+01 0. -1.
        -31    1    1    2    0    0  0.43750352450E-01 -0.30470744164E+00  0.61653032320E+02  0.62101932989E+02  0.74470750000E+01 0.  1.
<mgrwt>
<rscale>  0 0.14914115E+02</rscale>
<asrwt>0</asrwt>
<pdfrwt beam="1">  1        2 0.99619298E+00 0.14914115E+02</pdfrwt>
<pdfrwt beam="2">  1       -2 0.98413778E+00 0.14914115E+02</pdfrwt>
<totfact> 0.52403201E-13</totfact>
</mgrwt>
</event>
<event>
 4    1 -0.5167034E-019  0.1497662E+02  0.7818608E-02  0.1868783E+00
          2   -1    0    0  501    0  0.00000000000E+00  0.00000000000E+00  0.11969010867E+03  0.11969010870E+03  0.25500000000E-02 0.  1.
         -2   -1    0    0    0  501 -0.00000000000E+00 -0.00000000000E+00 -0.46849654752E+00  0.46850348722E+00  0.25500000000E-02 0. -1.
         31    1    1    2    0    0 -0.59134337475E+00 -0.11277127456E+00  0.55571357334E+02  0.56071357094E+02  0.74470750000E+01 0.  1.
        -31    1    1    2    0    0  0.59134337475E+00  0.11277127456E+00  0.63650254789E+02  0.64087255091E+02  0.74470750000E+01 0.  1.
<mgrwt>
<rscale>  0 0.14976625E+02</rscale>
<asrwt>0</asrwt>
<pdfrwt beam="1">  1        2 0.99355548E+00 0.14976625E+02</pdfrwt>
<pdfrwt beam="2">  1       -2 0.99503911E+00 0.14976625E+02</pdfrwt>
<totfact>-0.13508120E-13</totfact>
</mgrwt>
</event>
<event>
 4    1 -0.5167034E-019  0.1494905E+02  0.7818608E-02  0.1869627E+00
          2   -1    0    0  501    0  0.00000000000E+00  0.00000000000E+00  0.11928029676E+03  0.11928029679E+03  0.25500000000E-02 0. -1.
         -2   -1    0    0    0  501 -0.00000000000E+00 -0.00000000000E+00 -0.46837693274E+00  0.46838387422E+00  0.25500000000E-02 0.  1.
         31    1    1    2    0    0  0.30007737779E+00  0.54434488466E+00  0.60627992114E+02  0.61086812911E+02  0.74470750000E+01 0.  1.
        -31    1    1    2    0    0 -0.30007737779E+00 -0.54434488466E+00  0.58183927717E+02  0.58661867754E+02  0.74470750000E+01 0.  1.
<mgrwt>
<rscale>  0 0.14949054E+02</rscale>
<asrwt>0</asrwt>
<pdfrwt beam="1">  1        2 0.99016588E+00 0.14949054E+02</pdfrwt>
<pdfrwt beam="2">  1       -2 0.99477273E+00 0.14949054E+02</pdfrwt>
<totfact>-0.17625225E-13</totfact>
</mgrwt>
</event>
<event>
 4    1  0.5167034E-019  0.1490032E+02  0.7818608E-02  0.1871126E+00
          2   -1    0    0  501    0  0.00000000000E+00  0.00000000000E+00  0.12021612482E+03  0.12021612485E+03  0.25500000000E-02 0. -1.
         -2   -1    0    0    0  501 -0.00000000000E+00 -0.00000000000E+00 -0.46170538362E+00  0.46171242540E+00  0.25500000000E-02 0.  1.
         31    1    1    2    0    0 -0.15955676513E+00 -0.11454855996E+00  0.59182733532E+02  0.59649756530E+02  0.74470750000E+01 0.  1.
        -31    1    1    2    0    0  0.15955676513E+00  0.11454855996E+00  0.60571685909E+02  0.61028080747E+02  0.74470750000E+01 0.  1.
<mgrwt>
<rscale>  0 0.14900317E+02</rscale>
<asrwt>0</asrwt>
<pdfrwt beam="1">  1        2 0.99784879E+00 0.14900317E+02</pdfrwt>
<pdfrwt beam="2">  1       -2 0.98068750E+00 0.14900317E+02</pdfrwt>
<totfact> 0.72962757E-13</totfact>
</mgrwt>
</event>
<event>
 4    1  0.5167034E-019  0.1490815E+02  0.7818608E-02  0.1870884E+00
         -2   -1    0    0    0  501 -0.00000000000E+00  0.00000000000E+00  0.11857899804E+03  0.11857899807E+03  0.25500000000E-02 0. -1.
          2   -1    0    0  501    0  0.00000000000E+00 -0.00000000000E+00 -0.46857191370E+00  0.46857885228E+00  0.25500000000E-02 0.  1.
         31    1    1    2    0    0  0.11397284844E+00  0.29879567987E+00  0.58697385302E+02  0.59168777544E+02  0.74470750000E+01 0.  1.
        -31    1    1    2    0    0 -0.11397284844E+00 -0.29879567987E+00  0.59413040827E+02  0.59878799379E+02  0.74470750000E+01 0.  1.
<mgrwt>
<rscale>  0 0.14908146E+02</rscale>
<asrwt>0</asrwt>
<pdfrwt beam="2">  1        2 0.99516219E+00 0.14908146E+02</pdfrwt>
<pdfrwt beam="1">  1       -2 0.98436866E+00 0.14908146E+02</pdfrwt>
<totfact> 0.56521394E-13</totfact>
</mgrwt>
</event>
<event>
 4    1 -0.5167034E-019  0.1495231E+02  0.7818608E-02  0.1869527E+00
         -2   -1    0    0    0  501 -0.00000000000E+00  0.00000000000E+00  0.11998495537E+03  0.11998495540E+03  0.25500000000E-02 0. -1.
          2   -1    0    0  501    0  0.00000000000E+00 -0.00000000000E+00 -0.46582930124E+00  0.46583628068E+00  0.25500000000E-02 0.  1.
         31    1    1    2    0    0  0.64272967044E-01 -0.64410779033E+00  0.60746109549E+02  0.61204311590E+02  0.74470750000E+01 0. -1.
        -31    1    1    2    0    0 -0.64272967044E-01  0.64410779033E+00  0.58773016524E+02  0.59246480091E+02  0.74470750000E+01 0.  1.
<mgrwt>
<rscale>  0 0.14952315E+02</rscale>
<asrwt>0</asrwt>
<pdfrwt beam="2">  1        2 0.98940562E+00 0.14952315E+02</pdfrwt>
<pdfrwt beam="1">  1       -2 0.99597142E+00 0.14952315E+02</pdfrwt>
<totfact>-0.17839338E-13</totfact>
</mgrwt>
</event>
<event>
 4    1 -0.5167034E-019  0.1502110E+02  0.7818608E-02  0.1867425E+00
          2   -1    0    0  501    0  0.00000000000E+00  0.00000000000E+00  0.12036490726E+03  0.12036490729E+03  0.25500000000E-02 0. -1.
         -2   -1    0    0    0  501 -0.00000000000E+00 -0.00000000000E+00 -0.46864129531E+00  0.46864823286E+00  0.25500000000E-02 0.  1.
         31    1    1    2    0    0  0.87368549479E+00  0.71444266934E-01  0.56525493432E+02  0.57020687162E+02  0.74470750000E+01 0.  1.
        -31    1    1    2    0    0 -0.87368549479E+00 -0.71444266934E-01  0.63370772532E+02  0.63812868357E+02  0.74470750000E+01 0. -1.
<mgrwt>
<rscale>  0 0.15021103E+02</rscale>
<asrwt>0</asrwt>
<pdfrwt beam="1">  1        2 0.99913638E+00 0.15021103E+02</pdfrwt>
<pdfrwt beam="2">  1       -2 0.99536710E+00 0.15021103E+02</pdfrwt>
<totfact>-0.31645195E-14</totfact>
</mgrwt>
</event>
<event>
 4    1 -0.5167034E-019  0.1497910E+02  0.7818608E-02  0.1868707E+00
          2   -1    0    0  501    0  0.00000000000E+00  0.00000000000E+00  0.11941862961E+03  0.11941862964E+03  0.25500000000E-02 0. -1.
         -2   -1    0    0    0  501 -0.00000000000E+00 -0.00000000000E+00 -0.46971657438E+00  0.46972349606E+00  0.25500000000E-02 0.  1.
         31    1    1    2    0    0  0.21159746128E+00  0.85461827573E-01  0.53366817839E+02  0.53884397088E+02  0.74470750000E+01 0.  1.
        -31    1    1    2    0    0 -0.21159746128E+00 -0.85461827573E-01  0.65582095199E+02  0.66003956047E+02  0.74470750000E+01 0. -1.
<mgrwt>
<rscale>  0 0.14979096E+02</rscale>
<asrwt>0</asrwt>
<pdfrwt beam="1">  1        2 0.99132079E+00 0.14979096E+02</pdfrwt>
<pdfrwt beam="2">  1       -2 0.99761129E+00 0.14979096E+02</pdfrwt>
<totfact>-0.10876061E-13</totfact>
</mgrwt>
</event>
<event>
 4    1  0.5167034E-019  0.1491450E+02  0.7818608E-02  0.1870689E+00
          2   -1    0    0  501    0  0.00000000000E+00  0.00000000000E+00  0.12032847289E+03  0.12032847292E+03  0.25500000000E-02 0. -1.
         -2   -1    0    0    0  501 -0.00000000000E+00 -0.00000000000E+00 -0.46215259129E+00  0.46215962626E+00  0.25500000000E-02 0.  1.
         31    1    1    2    0    0  0.28590904108E+00 -0.20499961747E-01  0.62067513819E+02  0.62513337473E+02  0.74470750000E+01 0. -1.
        -31    1    1    2    0    0 -0.28590904108E+00  0.20499961747E-01  0.57798806480E+02  0.58277295071E+02  0.74470750000E+01 0.  1.
<mgrwt>
<rscale>  0 0.14914495E+02</rscale>
<asrwt>0</asrwt>
<pdfrwt beam="1">  1        2 0.99878146E+00 0.14914495E+02</pdfrwt>
<pdfrwt beam="2">  1       -2 0.98163725E+00 0.14914495E+02</pdfrwt>
<totfact> 0.38447781E-13</totfact>
</mgrwt>
</event>
<event>
 4    1 -0.5167034E-019  0.1498824E+02  0.7818608E-02  0.1868427E+00
          2   -1    0    0  501    0  0.00000000000E+00  0.00000000000E+00  0.11976923558E+03  0.11976923561E+03  0.25500000000E-02 0.  1.
         -2   -1    0    0    0  501 -0.00000000000E+00 -0.00000000000E+00 -0.46891378061E+00  0.46892071414E+00  0.25500000000E-02 0. -1.
         31    1    1    2    0    0 -0.52799635327E+00  0.54450854998E+00  0.62516530421E+02  0.62963090551E+02  0.74470750000E+01 0. -1.
        -31    1    1    2    0    0  0.52799635327E+00 -0.54450854998E+00  0.56783791378E+02  0.57275065771E+02  0.74470750000E+01 0. -1.
<mgrwt>
<rscale>  0 0.14988244E+02</rscale>
<asrwt>0</asrwt>
<pdfrwt beam="1">  1        2 0.99421320E+00 0.14988244E+02</pdfrwt>
<pdfrwt beam="2">  1       -2 0.99592437E+00 0.14988244E+02</pdfrwt>
<totfact>-0.12139290E-13</totfact>
</mgrwt>
</event>
<event>
 4    1 -0.5167034E-019  0.1498062E+02  0.7818608E-02  0.1868661E+00
          2   -1    0    0  501    0  0.00000000000E+00  0.00000000000E+00  0.11962848001E+03  0.11962848004E+03  0.25500000000E-02 0. -1.
         -2   -1    0    0    0  501 -0.00000000000E+00 -0.00000000000E+00 -0.46898794390E+00  0.46899487633E+00  0.25500000000E-02 0.  1.
         31    1    1    2    0    0 -0.12198489284E+00  0.54612778451E+00  0.64203678821E+02  0.64636556499E+02  0.74470750000E+01 0. -1.
        -31    1    1    2    0    0  0.12198489284E+00 -0.54612778451E+00  0.54955813246E+02  0.55460918415E+02  0.74470750000E+01 0.  1.
<mgrwt>
<rscale>  0 0.14980619E+02</rscale>
<asrwt>0</asrwt>
<pdfrwt beam="1">  1        2 0.99304995E+00 0.14980619E+02</pdfrwt>
<pdfrwt beam="2">  1       -2 0.99607670E+00 0.14980619E+02</pdfrwt>
<totfact>-0.13060693E-13</totfact>
</mgrwt>
</event>
<event>
 4    1 -0.5167034E-019  0.1494596E+02  0.7818608E-02  0.1869722E+00
          2   -1    0    0  501    0  0.00000000000E+00  0.00000000000E+00  0.11941797993E+03  0.11941797995E+03  0.25500000000E-02 0. -1.
         -2   -1    0    0    0  501 -0.00000000000E+00 -0.00000000000E+00 -0.46764303757E+00  0.46764998993E+00  0.25500000000E-02 0.  1.
         31    1    1    2    0    0 -0.27142687193E+00 -0.48197162355E+00  0.57199189054E+02  0.57684591735E+02  0.74470750000E+01 0.  1.
        -31    1    1    2    0    0  0.27142687193E+00  0.48197162355E+00  0.61751147834E+02  0.62201038207E+02  0.74470750000E+01 0. -1.
<mgrwt>
<rscale>  0 0.14945957E+02</rscale>
<asrwt>0</asrwt>
<pdfrwt beam="1">  1        2 0.99129827E+00 0.14945957E+02</pdfrwt>
<pdfrwt beam="2">  1       -2 0.99322462E+00 0.14945957E+02</pdfrwt>
<totfact>-0.14377023E-13</totfact>
</mgrwt>
</event>
<event>
 4    1 -0.5167034E-019  0.1501201E+02  0.7818608E-02  0.1867702E+00
         -2   -1    0    0    0  501 -0.00000000000E+00  0.00000000000E+00  0.11984002520E+03  0.11984002523E+03  0.25500000000E-02 0. -1.
          2   -1    0    0  501    0  0.00000000000E+00 -0.00000000000E+00 -0.47012412304E+00  0.47013103872E+00  0.25500000000E-02 0.  1.
         31    1    1    2    0    0  0.22932875929E+00 -0.13599728579E+00  0.66898192198E+02  0.67311946431E+02  0.74470750000E+01 0. -1.
        -31    1    1    2    0    0 -0.22932875929E+00  0.13599728579E+00  0.52471708878E+02  0.52998209834E+02  0.74470750000E+01 0.  1.
<mgrwt>
<rscale>  0 0.15012009E+02</rscale>
<asrwt>0</asrwt>
<pdfrwt beam="2">  1        2 0.99848723E+00 0.15012009E+02</pdfrwt>
<pdfrwt beam="1">  1       -2 0.99480855E+00 0.15012009E+02</pdfrwt>
<totfact>-0.52412677E-14</totfact>
</mgrwt>
</event>
<event>
 4    1 -0.5167034E-019  0.1495306E+02  0.7818608E-02  0.1869504E+00
          2   -1    0    0  501    0  0.00000000000E+00  0.00000000000E+00  0.11932380706E+03  0.11932380709E+03  0.25500000000E-02 0. -1.
         -2   -1    0    0    0  501 -0.00000000000E+00 -0.00000000000E+00 -0.46845737682E+00  0.46846431711E+00  0.25500000000E-02 0.  1.
         31    1    1    2    0    0 -0.64412849293E+00 -0.86402891217E-01  0.60479616711E+02  0.60939850103E+02  0.74470750000E+01 0. -1.
        -31    1    1    2    0    0  0.64412849293E+00  0.86402891217E-01  0.58375732975E+02  0.58852421304E+02  0.74470750000E+01 0.  1.
<mgrwt>
<rscale>  0 0.14953065E+02</rscale>
<asrwt>0</asrwt>
<pdfrwt beam="1">  1        2 0.99052631E+00 0.14953065E+02</pdfrwt>
<pdfrwt beam="2">  1       -2 0.99494433E+00 0.14953065E+02</pdfrwt>
<totfact>-0.17032993E-13</totfact>
</mgrwt>
</event>
<event>
 4    1 -0.5167034E-019  0.1493802E+02  0.7818608E-02  0.1869966E+00
         -2   -1    0    0    0  501 -0.00000000000E+00  0.00000000000E+00  0.12015919755E+03  0.12015919758E+03  0.25500000000E-02 0.  1.
          2   -1    0    0  501    0  0.00000000000E+00 -0.00000000000E+00 -0.46426480347E+00  0.46427180643E+00  0.25500000000E-02 0. -1.
         31    1    1    2    0    0 -0.29258767128E+00  0.17283731044E+00  0.56132086693E+02  0.56624955301E+02  0.74470750000E+01 0. -1.
        -31    1    1    2    0    0  0.29258767128E+00 -0.17283731044E+00  0.63562846057E+02  0.63998514086E+02  0.74470750000E+01 0.  1.
<mgrwt>
<rscale>  0 0.14938020E+02</rscale>
<asrwt>0</asrwt>
<pdfrwt beam="2">  1        2 0.98610105E+00 0.14938020E+02</pdfrwt>
<pdfrwt beam="1">  1       -2 0.99739924E+00 0.14938020E+02</pdfrwt>
<totfact>-0.21195370E-13</totfact>
</mgrwt>
</event>
<event>
 4    1 -0.5167034E-019  0.1494509E+02  0.7818608E-02  0.1869749E+00
         -2   -1    0    0    0  501 -0.00000000000E+00  0.00000000000E+00  0.12019970889E+03  0.12019970891E+03  0.25500000000E-02 0. -1.
          2   -1    0    0  501    0  0.00000000000E+00 -0.00000000000E+00 -0.46454792904E+00  0.46455492773E+00  0.25500000000E-02 0.  1.
         31    1    1    2    0    0 -0.39909786385E+00  0.15423372004E+00  0.56284428551E+02  0.56776569908E+02  0.74470750000E+01 0.  1.
        -31    1    1    2    0    0  0.39909786385E+00 -0.15423372004E+00  0.63450732405E+02  0.63887693932E+02  0.74470750000E+01 0. -1.
<mgrwt>
<rscale>  0 0.14945093E+02</rscale>
<asrwt>0</asrwt>
<pdfrwt beam="2">  1        2 0.98670137E+00 0.14945093E+02</pdfrwt>
<pdfrwt beam="1">  1       -2 0.99773656E+00 0.14945093E+02</pdfrwt>
<totfact>-0.17474454E-13</totfact>
</mgrwt>
</event>
<event>
 4    1 -0.5167034E-019  0.1492772E+02  0.7818608E-02  0.1870282E+00
          2   -1    0    0  501    0  0.00000000000E+00  0.00000000000E+00  0.11942111427E+03  0.11942111430E+03  0.25500000000E-02 0. -1.
         -2   -1    0    0    0  501 -0.00000000000E+00 -0.00000000000E+00 -0.46649044297E+00  0.46649741252E+00  0.25500000000E-02 0.  1.
         31    1    1    2    0    0  0.33170735083E-01 -0.24374955889E+00  0.55978546829E+02  0.56472268817E+02  0.74470750000E+01 0.  1.
        -31    1    1    2    0    0 -0.33170735083E-01  0.24374955889E+00  0.62976076997E+02  0.63415342892E+02  0.74470750000E+01 0. -1.
<mgrwt>
<rscale>  0 0.14927723E+02</rscale>
<asrwt>0</asrwt>
<pdfrwt beam="1">  1        2 0.99131465E+00 0.14927723E+02</pdfrwt>
<pdfrwt beam="2">  1       -2 0.99078629E+00 0.14927723E+02</pdfrwt>
<totfact>-0.43033941E-14</totfact>
</mgrwt>
</event>
<event>
 4    1  0.5167034E-019  0.1493082E+02  0.7818608E-02  0.1870187E+00
         -2   -1    0    0    0  501 -0.00000000000E+00  0.00000000000E+00  0.11842417201E+03  0.11842417204E+03  0.25500000000E-02 0.  1.
          2   -1    0    0  501    0  0.00000000000E+00 -0.00000000000E+00 -0.47061286676E+00  0.47061977525E+00  0.25500000000E-02 0. -1.
         31    1    1    2    0    0 -0.14171710367E+00  0.36735002095E+00  0.61716756408E+02  0.62165681669E+02  0.74470750000E+01 0.  1.
        -31    1    1    2    0    0  0.14171710367E+00 -0.36735002095E+00  0.56236802737E+02  0.56729110146E+02  0.74470750000E+01 0. -1.
<mgrwt>
<rscale>  0 0.14930821E+02</rscale>
<asrwt>0</asrwt>
<pdfrwt beam="2">  1        2 0.99947444E+00 0.14930821E+02</pdfrwt>
<pdfrwt beam="1">  1       -2 0.98310533E+00 0.14930821E+02</pdfrwt>
<totfact> 0.13221500E-13</totfact>
</mgrwt>
</event>
<event>
 4    1 -0.5167034E-019  0.1489962E+02  0.7818608E-02  0.1871147E+00
          2   -1    0    0  501    0  0.00000000000E+00  0.00000000000E+00  0.11844260767E+03  0.11844260770E+03  0.25500000000E-02 0. -1.
         -2   -1    0    0    0  501 -0.00000000000E+00 -0.00000000000E+00 -0.46857523920E+00  0.46858217773E+00  0.25500000000E-02 0.  1.
         31    1    1    2    0    0  0.35395100438E-01  0.19402698879E+00  0.59331400077E+02  0.59797264656E+02  0.74470750000E+01 0. -1.
        -31    1    1    2    0    0 -0.35395100438E-01 -0.19402698879E+00  0.58642632357E+02  0.59113925222E+02  0.74470750000E+01 0.  1.
<mgrwt>
<rscale>  0 0.14899622E+02</rscale>
<asrwt>0</asrwt>
<pdfrwt beam="1">  1        2 0.98324092E+00 0.14899622E+02</pdfrwt>
<pdfrwt beam="2">  1       -2 0.99516472E+00 0.14899622E+02</pdfrwt>
<totfact>-0.46278067E-13</totfact>
</mgrwt>
</event>
<event>
 4    1 -0.5167034E-019  0.1500353E+02  0.7818608E-02  0.1867961E+00
         -2   -1    0    0    0  501 -0.00000000000E+00  0.00000000000E+00  0.11959498838E+03  0.11959498840E+03  0.25500000000E-02 0.  1.
          2   -1    0    0  501    0  0.00000000000E+00 -0.00000000000E+00 -0.47055541118E+00  0.47056232052E+00  0.25500000000E-02 0. -1.
         31    1    1    2    0    0 -0.66028151933E-01  0.74383891519E+00  0.63641940536E+02  0.64080521044E+02  0.74470750000E+01 0.  1.
        -31    1    1    2    0    0  0.66028151933E-01 -0.74383891519E+00  0.55482492428E+02  0.55985029679E+02  0.74470750000E+01 0. -1.
<mgrwt>
<rscale>  0 0.15003531E+02</rscale>
<asrwt>0</asrwt>
<pdfrwt beam="2">  1        2 0.99939163E+00 0.15003531E+02</pdfrwt>
<pdfrwt beam="1">  1       -2 0.99278598E+00 0.15003531E+02</pdfrwt>
<totfact>-0.19325419E-14</totfact>
</mgrwt>
</event>
<event>
 4    1 -0.5167034E-019  0.1494399E+02  0.7818608E-02  0.1869783E+00
         -2   -1    0    0    0  501 -0.00000000000E+00  0.00000000000E+00  0.12008517234E+03  0.12008517237E+03  0.25500000000E-02 0. -1.
          2   -1    0    0  501    0  0.00000000000E+00 -0.00000000000E+00 -0.46492225902E+00  0.46492925208E+00  0.25500000000E-02 0.  1.
         31    1    1    2    0    0 -0.15369018615E+00 -0.29604593603E+00  0.55692874591E+02  0.56189558373E+02  0.74470750000E+01 0.  1.
        -31    1    1    2    0    0  0.15369018615E+00  0.29604593603E+00  0.63927375491E+02  0.64360543247E+02  0.74470750000E+01 0. -1.
<mgrwt>
<rscale>  0 0.14943988E+02</rscale>
<asrwt>0</asrwt>
<pdfrwt beam="2">  1        2 0.98748974E+00 0.14943988E+02</pdfrwt>
<pdfrwt beam="1">  1       -2 0.99679258E+00 0.14943988E+02</pdfrwt>
<totfact>-0.19942103E-13</totfact>
</mgrwt>
</event>
<event>
 4    1 -0.5167034E-019  0.1492208E+02  0.7818608E-02  0.1870456E+00
         -2   -1    0    0    0  501 -0.00000000000E+00  0.00000000000E+00  0.11977530813E+03  0.11977530816E+03  0.25500000000E-02 0.  1.
          2   -1    0    0  501    0  0.00000000000E+00 -0.00000000000E+00 -0.46475932131E+00  0.46476631682E+00  0.25500000000E-02 0. -1.
         31    1    1    2    0    0  0.33453381849E+00  0.20703772494E+00  0.61517487711E+02  0.61967854552E+02  0.74470750000E+01 0.  1.
        -31    1    1    2    0    0 -0.33453381849E+00 -0.20703772494E+00  0.57793061100E+02  0.58272219924E+02  0.74470750000E+01 0. -1.
<mgrwt>
<rscale>  0 0.14922079E+02</rscale>
<asrwt>0</asrwt>
<pdfrwt beam="2">  1        2 0.98713516E+00 0.14922079E+02</pdfrwt>
<pdfrwt beam="1">  1       -2 0.99422906E+00 0.14922079E+02</pdfrwt>
<totfact>-0.24848471E-13</totfact>
</mgrwt>
</event>
<event>
 4    1  0.5167034E-019  0.1490915E+02  0.7818608E-02  0.1870854E+00
          2   -1    0    0  501    0  0.00000000000E+00  0.00000000000E+00  0.11977177152E+03  0.11977177154E+03  0.25500000000E-02 0. -1.
         -2   -1    0    0    0  501 -0.00000000000E+00 -0.00000000000E+00 -0.46396800198E+00  0.46397500941E+00  0.25500000000E-02 0.  1.
         31    1    1    2    0    0  0.12623244763E+00  0.30407888069E+00  0.60121908716E+02  0.60582268300E+02  0.74470750000E+01 0.  1.
        -31    1    1    2    0    0 -0.12623244763E+00 -0.30407888069E+00  0.59185894799E+02  0.59653478254E+02  0.74470750000E+01 0. -1.
<mgrwt>
<rscale>  0 0.14909151E+02</rscale>
<asrwt>0</asrwt>
<pdfrwt beam="1">  1        2 0.99419328E+00 0.14909151E+02</pdfrwt>
<pdfrwt beam="2">  1       -2 0.98546082E+00 0.14909151E+02</pdfrwt>
<totfact> 0.45642986E-13</totfact>
</mgrwt>
</event>
<event>
 4    1 -0.5167034E-019  0.1495987E+02  0.7818608E-02  0.1869296E+00
          2   -1    0    0  501    0  0.00000000000E+00  0.00000000000E+00  0.11909043616E+03  0.11909043619E+03  0.25500000000E-02 0. -1.
         -2   -1    0    0    0  501 -0.00000000000E+00 -0.00000000000E+00 -0.46980273236E+00  0.46980965277E+00  0.25500000000E-02 0.  1.
         31    1    1    2    0    0 -0.13236536350E+00  0.54615047519E-01  0.64789389563E+02  0.65216136265E+02  0.74470750000E+01 0. -1.
        -31    1    1    2    0    0  0.13236536350E+00 -0.54615047519E-01  0.53831243870E+02  0.54344109580E+02  0.74470750000E+01 0.  1.
<mgrwt>
<rscale>  0 0.14959870E+02</rscale>
<asrwt>0</asrwt>
<pdfrwt beam="1">  1        2 0.98860776E+00 0.14959870E+02</pdfrwt>
<pdfrwt beam="2">  1       -2 0.99778278E+00 0.14959870E+02</pdfrwt>
<totfact>-0.13356277E-13</totfact>
</mgrwt>
</event>
<event>
 4    1 -0.5167034E-019  0.1492228E+02  0.7818608E-02  0.1870449E+00
          2   -1    0    0  501    0  0.00000000000E+00  0.00000000000E+00  0.11874542569E+03  0.11874542571E+03  0.25500000000E-02 0. -1.
         -2   -1    0    0    0  501 -0.00000000000E+00 -0.00000000000E+00 -0.46880288402E+00  0.46880981919E+00  0.25500000000E-02 0.  1.
         31    1    1    2    0    0 -0.14752271878E+00 -0.31662325936E+00  0.61503837288E+02  0.61954038936E+02  0.74470750000E+01 0. -1.
        -31    1    1    2    0    0  0.14752271878E+00  0.31662325936E+00  0.56772785514E+02  0.57260196597E+02  0.74470750000E+01 0.  1.
<mgrwt>
<rscale>  0 0.14922280E+02</rscale>
<asrwt>0</asrwt>
<pdfrwt beam="1">  1        2 0.98574671E+00 0.14922280E+02</pdfrwt>
<pdfrwt beam="2">  1       -2 0.99565629E+00 0.14922280E+02</pdfrwt>
<totfact>-0.29850614E-13</totfact>
</mgrwt>
</event>
<event>
 4    1 -0.5167034E-019  0.1493952E+02  0.7818608E-02  0.1869920E+00
         -2   -1    0    0    0  501 -0.00000000000E+00  0.00000000000E+00  0.12021459024E+03  0.12021459026E+03  0.25500000000E-02 0.  1.
          2   -1    0    0  501    0  0.00000000000E+00 -0.00000000000E+00 -0.46414377094E+00  0.46415077572E+00  0.25500000000E-02 0. -1.
         31    1    1    2    0    0 -0.28951703823E+00  0.41948993375E+00  0.57611132770E+02  0.58092696073E+02  0.74470750000E+01 0.  1.
        -31    1    1    2    0    0  0.28951703823E+00 -0.41948993375E+00  0.62139313695E+02  0.62586044966E+02  0.74470750000E+01 0.  1.
<mgrwt>
<rscale>  0 0.14939515E+02</rscale>
<asrwt>0</asrwt>
<pdfrwt beam="2">  1        2 0.98584672E+00 0.14939515E+02</pdfrwt>
<pdfrwt beam="1">  1       -2 0.99785627E+00 0.14939515E+02</pdfrwt>
<totfact>-0.19056703E-13</totfact>
</mgrwt>
</event>
<event>
 4    1  0.5167034E-019  0.1490613E+02  0.7818608E-02  0.1870947E+00
         -2   -1    0    0    0  501 -0.00000000000E+00  0.00000000000E+00  0.11884115733E+03  0.11884115735E+03  0.25500000000E-02 0.  1.
          2   -1    0    0  501    0  0.00000000000E+00 -0.00000000000E+00 -0.46741156658E+00  0.46741852239E+00  0.25500000000E-02 0. -1.
         31    1    1    2    0    0 -0.16815715552E-01  0.25465273989E+00  0.57944544014E+02  0.58421693212E+02  0.74470750000E+01 0.  1.
        -31    1    1    2    0    0  0.16815715552E-01 -0.25465273989E+00  0.60429201745E+02  0.60886882663E+02  0.74470750000E+01 0.  1.
<mgrwt>
<rscale>  0 0.14906126E+02</rscale>
<asrwt>0</asrwt>
<pdfrwt beam="2">  1        2 0.99271613E+00 0.14906126E+02</pdfrwt>
<pdfrwt beam="1">  1       -2 0.98652678E+00 0.14906126E+02</pdfrwt>
<totfact> 0.35687092E-13</totfact>
</mgrwt>
</event>
<event>
 4    1 -0.5167034E-019  0.1498592E+02  0.7818608E-02  0.1868498E+00
         -2   -1    0    0    0  501 -0.00000000000E+00  0.00000000000E+00  0.12032146773E+03  0.12032146776E+03  0.25500000000E-02 0.  1.
          2   -1    0    0  501    0  0.00000000000E+00 -0.00000000000E+00 -0.46661707829E+00  0.46662404594E+00  0.25500000000E-02 0. -1.
         31    1    1    2    0    0 -0.55455498613E+00 -0.97519544789E-01  0.64820291954E+02  0.65249108932E+02  0.74470750000E+01 0.  1.
        -31    1    1    2    0    0  0.55455498613E+00  0.97519544789E-01  0.55034558700E+02  0.55538982874E+02  0.74470750000E+01 0. -1.
<mgrwt>
<rscale>  0 0.14985923E+02</rscale>
<asrwt>0</asrwt>
<pdfrwt beam="2">  1        2 0.99108307E+00 0.14985923E+02</pdfrwt>
<pdfrwt beam="1">  1       -2 0.99876045E+00 0.14985923E+02</pdfrwt>
<totfact>-0.64149468E-14</totfact>
</mgrwt>
</event>
<event>
 4    1  0.5167034E-019  0.1491986E+02  0.7818608E-02  0.1870524E+00
         -2   -1    0    0    0  501 -0.00000000000E+00  0.00000000000E+00  0.11868411441E+03  0.11868411444E+03  0.25500000000E-02 0.  1.
          2   -1    0    0  501    0  0.00000000000E+00 -0.00000000000E+00 -0.46889303700E+00  0.46889997084E+00  0.25500000000E-02 0. -1.
         31    1    1    2    0    0  0.31897050367E+00  0.26911898805E+00  0.58051851036E+02  0.58529056903E+02  0.74470750000E+01 0. -1.
        -31    1    1    2    0    0 -0.31897050367E+00 -0.26911898805E+00  0.60163370335E+02  0.60623957503E+02  0.74470750000E+01 0.  1.
<mgrwt>
<rscale>  0 0.14919862E+02</rscale>
<asrwt>0</asrwt>
<pdfrwt beam="2">  1        2 0.99584498E+00 0.14919862E+02</pdfrwt>
<pdfrwt beam="1">  1       -2 0.98524049E+00 0.14919862E+02</pdfrwt>
<totfact> 0.40913518E-13</totfact>
</mgrwt>
</event>
<event>
 4    1 -0.5167034E-019  0.1496855E+02  0.7818608E-02  0.1869030E+00
          2   -1    0    0  501    0  0.00000000000E+00  0.00000000000E+00  0.11998212700E+03  0.11998212703E+03  0.25500000000E-02 0.  1.
         -2   -1    0    0    0  501 -0.00000000000E+00 -0.00000000000E+00 -0.46685230763E+00  0.46685927177E+00  0.25500000000E-02 0. -1.
         31    1    1    2    0    0  0.57264680643E+00  0.12421819349E+00  0.63463305398E+02  0.63901435138E+02  0.74470750000E+01 0.  1.
        -31    1    1    2    0    0 -0.57264680643E+00 -0.12421819349E+00  0.56051969292E+02  0.56547551160E+02  0.74470750000E+01 0. -1.
<mgrwt>
<rscale>  0 0.14968548E+02</rscale>
<asrwt>0</asrwt>
<pdfrwt beam="1">  1        2 0.99595649E+00 0.14968548E+02</pdfrwt>
<pdfrwt beam="2">  1       -2 0.99156991E+00 0.14968548E+02</pdfrwt>
<totfact>-0.57343620E-14</totfact>
</mgrwt>
</event>
<event>
 4    1 -0.5167034E-019  0.1495424E+02  0.7818608E-02  0.1869468E+00
         -2   -1    0    0    0  501 -0.00000000000E+00  0.00000000000E+00  0.11983193443E+03  0.11983193446E+03  0.25500000000E-02 0. -1.
          2   -1    0    0  501    0  0.00000000000E+00 -0.00000000000E+00 -0.46654398010E+00  0.46655094885E+00  0.25500000000E-02 0.  1.
         31    1    1    2    0    0 -0.26685726066E+00 -0.61002629518E+00  0.59112872890E+02  0.59583840193E+02  0.74470750000E+01 0.  1.
        -31    1    1    2    0    0  0.26685726066E+00  0.61002629518E+00  0.60252517563E+02  0.60714645215E+02  0.74470750000E+01 0. -1.
<mgrwt>
<rscale>  0 0.14954235E+02</rscale>
<asrwt>0</asrwt>
<pdfrwt beam="2">  1        2 0.99091277E+00 0.14954235E+02</pdfrwt>
<pdfrwt beam="1">  1       -2 0.99471205E+00 0.14954235E+02</pdfrwt>
<totfact>-0.16506826E-13</totfact>
</mgrwt>
</event>
<event>
 4    1 -0.5167034E-019  0.1493711E+02  0.7818608E-02  0.1869994E+00
         -2   -1    0    0    0  501 -0.00000000000E+00  0.00000000000E+00  0.12026308888E+03  0.12026308891E+03  0.25500000000E-02 0.  1.
          2   -1    0    0  501    0  0.00000000000E+00 -0.00000000000E+00 -0.46380715473E+00  0.46381416459E+00  0.25500000000E-02 0. -1.
         31    1    1    2    0    0 -0.27211255146E+00 -0.41811331991E+00  0.62061057591E+02  0.62508260729E+02  0.74470750000E+01 0.  1.
        -31    1    1    2    0    0  0.27211255146E+00  0.41811331991E+00  0.57738224134E+02  0.58218642342E+02  0.74470750000E+01 0. -1.
<mgrwt>
<rscale>  0 0.14937109E+02</rscale>
<asrwt>0</asrwt>
<pdfrwt beam="2">  1        2 0.98513603E+00 0.14937109E+02</pdfrwt>
<pdfrwt beam="1">  1       -2 0.99825450E+00 0.14937109E+02</pdfrwt>
<totfact>-0.18046601E-13</totfact>
</mgrwt>
</event>
<event>
 4    1 -0.5167034E-019  0.1493550E+02  0.7818608E-02  0.1870043E+00
         -2   -1    0    0    0  501 -0.00000000000E+00  0.00000000000E+00  0.12022489065E+03  0.12022489068E+03  0.25500000000E-02 0.  1.
          2   -1    0    0  501    0  0.00000000000E+00 -0.00000000000E+00 -0.46385460883E+00  0.46386161798E+00  0.25500000000E-02 0. -1.
         31    1    1    2    0    0 -0.13490115812E+00  0.47086693145E+00  0.57766313571E+02  0.58246423269E+02  0.74470750000E+01 0. -1.
        -31    1    1    2    0    0  0.13490115812E+00 -0.47086693145E+00  0.61994722471E+02  0.62442329027E+02  0.74470750000E+01 0.  1.
<mgrwt>
<rscale>  0 0.14935501E+02</rscale>
<asrwt>0</asrwt>
<pdfrwt beam="2">  1        2 0.98523523E+00 0.14935501E+02</pdfrwt>
<pdfrwt beam="1">  1       -2 0.99793905E+00 0.14935501E+02</pdfrwt>
<totfact>-0.20344766E-13</totfact>
</mgrwt>
</event>
<event>
 4    1 -0.5167034E-019  0.1501885E+02  0.7818608E-02  0.1867494E+00
         -2   -1    0    0    0  501 -0.00000000000E+00  0.00000000000E+00  0.12016112084E+03  0.12016112086E+03  0.25500000000E-02 0.  1.
          2   -1    0    0  501    0  0.00000000000E+00 -0.00000000000E+00 -0.46929533473E+00  0.46930226262E+00  0.25500000000E-02 0. -1.
         31    1    1    2    0    0 -0.15232196953E+00  0.52487309151E+00  0.66240528468E+02  0.66660072243E+02  0.74470750000E+01 0.  1.
        -31    1    1    2    0    0  0.15232196953E+00 -0.52487309151E+00  0.53451297036E+02  0.53970350884E+02  0.74470750000E+01 0. -1.
<mgrwt>
<rscale>  0 0.15018851E+02</rscale>
<asrwt>0</asrwt>
<pdfrwt beam="2">  1        2 0.99674426E+00 0.15018851E+02</pdfrwt>
<pdfrwt beam="1">  1       -2 0.99745674E+00 0.15018851E+02</pdfrwt>
<totfact>-0.66465484E-14</totfact>
</mgrwt>
</event>
<event>
 4    1 -0.5167034E-019  0.1493876E+02  0.7818608E-02  0.1869943E+00
          2   -1    0    0  501    0  0.00000000000E+00  0.00000000000E+00  0.11878064965E+03  0.11878064967E+03  0.25500000000E-02 0.  1.
         -2   -1    0    0    0  501 -0.00000000000E+00 -0.00000000000E+00 -0.46969971426E+00  0.46970663619E+00  0.25500000000E-02 0. -1.
         31    1    1    2    0    0 -0.36459213750E+00 -0.44163637477E+00  0.58604999766E+02  0.59079039377E+02  0.74470750000E+01 0.  1.
        -31    1    1    2    0    0  0.36459213750E+00  0.44163637477E+00  0.59705950166E+02  0.60171316932E+02  0.74470750000E+01 0. -1.
<mgrwt>
<rscale>  0 0.14938762E+02</rscale>
<asrwt>0</asrwt>
<pdfrwt beam="1">  1        2 0.98604538E+00 0.14938762E+02</pdfrwt>
<pdfrwt beam="2">  1       -2 0.99755463E+00 0.14938762E+02</pdfrwt>
<totfact>-0.20437263E-13</totfact>
</mgrwt>
</event>
<event>
 4    1  0.5167034E-019  0.1493387E+02  0.7818608E-02  0.1870093E+00
          2   -1    0    0  501    0  0.00000000000E+00  0.00000000000E+00  0.12031303774E+03  0.12031303777E+03  0.25500000000E-02 0. -1.
         -2   -1    0    0    0  501 -0.00000000000E+00 -0.00000000000E+00 -0.46341348078E+00  0.46342049660E+00  0.25500000000E-02 0.  1.
         31    1    1    2    0    0 -0.16581103859E+00  0.25319797329E+00  0.56266827255E+02  0.56758315496E+02  0.74470750000E+01 0.  1.
        -31    1    1    2    0    0  0.16581103859E+00 -0.25319797329E+00  0.63582797005E+02  0.64018142768E+02  0.74470750000E+01 0. -1.
<mgrwt>
<rscale>  0 0.14933869E+02</rscale>
<asrwt>0</asrwt>
<pdfrwt beam="1">  1        2 0.99866426E+00 0.14933869E+02</pdfrwt>
<pdfrwt beam="2">  1       -2 0.98430465E+00 0.14933869E+02</pdfrwt>
<totfact> 0.23080757E-13</totfact>
</mgrwt>
</event>
<event>
 4    1 -0.5167034E-019  0.1496324E+02  0.7818608E-02  0.1869192E+00
         -2   -1    0    0    0  501 -0.00000000000E+00  0.00000000000E+00  0.11973410432E+03  0.11973410435E+03  0.25500000000E-02 0. -1.
          2   -1    0    0  501    0  0.00000000000E+00 -0.00000000000E+00 -0.46748772169E+00  0.46749467636E+00  0.25500000000E-02 0.  1.
         31    1    1    2    0    0 -0.67198255743E+00  0.56361775123E-01  0.57649597980E+02  0.58132519389E+02  0.74470750000E+01 0.  1.
        -31    1    1    2    0    0  0.67198255743E+00 -0.56361775123E-01  0.61617018621E+02  0.62069079638E+02  0.74470750000E+01 0.  1.
<mgrwt>
<rscale>  0 0.14963241E+02</rscale>
<asrwt>0</asrwt>
<pdfrwt beam="2">  1        2 0.99290625E+00 0.14963241E+02</pdfrwt>
<pdfrwt beam="1">  1       -2 0.99391092E+00 0.14963241E+02</pdfrwt>
<totfact>-0.13788599E-13</totfact>
</mgrwt>
</event>
<event>
 4    1 -0.5167034E-019  0.1499918E+02  0.7818608E-02  0.1868093E+00
          2   -1    0    0  501    0  0.00000000000E+00  0.00000000000E+00  0.11986407492E+03  0.11986407494E+03  0.25500000000E-02 0. -1.
         -2   -1    0    0    0  501 -0.00000000000E+00 -0.00000000000E+00 -0.46922700737E+00  0.46923393627E+00  0.25500000000E-02 0.  1.
         31    1    1    2    0    0  0.78134742148E+00 -0.18989998139E+00  0.62681893715E+02  0.63127848780E+02  0.74470750000E+01 0. -1.
        -31    1    1    2    0    0 -0.78134742148E+00  0.18989998139E+00  0.56712954194E+02  0.57205460100E+02  0.74470750000E+01 0.  1.
<mgrwt>
<rscale>  0 0.14999184E+02</rscale>
<asrwt>0</asrwt>
<pdfrwt beam="1">  1        2 0.99499999E+00 0.14999184E+02</pdfrwt>
<pdfrwt beam="2">  1       -2 0.99659010E+00 0.14999184E+02</pdfrwt>
<totfact>-0.10333378E-13</totfact>
</mgrwt>
</event>
<event>
 4    1 -0.5167034E-019  0.1491798E+02  0.7818608E-02  0.1870582E+00
          2   -1    0    0  501    0  0.00000000000E+00  0.00000000000E+00  0.11892518148E+03  0.11892518151E+03  0.25500000000E-02 0.  1.
         -2   -1    0    0    0  501 -0.00000000000E+00 -0.00000000000E+00 -0.46782445114E+00  0.46783140081E+00  0.25500000000E-02 0. -1.
         31    1    1    2    0    0  0.92996653220E-01  0.13459746399E+00  0.62336940402E+02  0.62780409600E+02  0.74470750000E+01 0.  1.
        -31    1    1    2    0    0 -0.92996653220E-01 -0.13459746399E+00  0.56120416629E+02  0.56612603310E+02  0.74470750000E+01 0. -1.
<mgrwt>
<rscale>  0 0.14917979E+02</rscale>
<asrwt>0</asrwt>
<pdfrwt beam="1">  1        2 0.98722497E+00 0.14917979E+02</pdfrwt>
<pdfrwt beam="2">  1       -2 0.99359234E+00 0.14917979E+02</pdfrwt>
<totfact>-0.23388422E-13</totfact>
</mgrwt>
</event>
<event>
 4    1  0.5167034E-019  0.1490666E+02  0.7818608E-02  0.1870930E+00
          2   -1    0    0  501    0  0.00000000000E+00  0.00000000000E+00  0.11998208857E+03  0.11998208860E+03  0.25500000000E-02 0.  1.
         -2   -1    0    0    0  501 -0.00000000000E+00 -0.00000000000E+00 -0.46299999568E+00  0.46300701777E+00  0.25500000000E-02 0. -1.
         31    1    1    2    0    0  0.49361492601E-01  0.14160243823E+00  0.57610867308E+02  0.58090390305E+02  0.74470750000E+01 0. -1.
        -31    1    1    2    0    0 -0.49361492601E-01 -0.14160243823E+00  0.61908221270E+02  0.62354705313E+02  0.74470750000E+01 0.  1.
<mgrwt>
<rscale>  0 0.14906660E+02</rscale>
<asrwt>0</asrwt>
<pdfrwt beam="1">  1        2 0.99592432E+00 0.14906660E+02</pdfrwt>
<pdfrwt beam="2">  1       -2 0.98341937E+00 0.14906660E+02</pdfrwt>
<totfact> 0.64821047E-13</totfact>
</mgrwt>
</event>
<event>
 4    1 -0.5167034E-019  0.1493599E+02  0.7818608E-02  0.1870028E+00
          2   -1    0    0  501    0  0.00000000000E+00  0.00000000000E+00  0.11874167943E+03  0.11874167945E+03  0.25500000000E-02 0.  1.
         -2   -1    0    0    0  501 -0.00000000000E+00 -0.00000000000E+00 -0.46967923691E+00  0.46968615914E+00  0.25500000000E-02 0. -1.
         31    1    1    2    0    0 -0.35098080113E+00  0.14382912946E+00  0.55863442497E+02  0.56358912410E+02  0.74470750000E+01 0. -1.
        -31    1    1    2    0    0  0.35098080113E+00 -0.14382912946E+00  0.62408557693E+02  0.62852453204E+02  0.74470750000E+01 0. -1.
<mgrwt>
<rscale>  0 0.14935985E+02</rscale>
<asrwt>0</asrwt>
<pdfrwt beam="1">  1        2 0.98572298E+00 0.14935985E+02</pdfrwt>
<pdfrwt beam="2">  1       -2 0.99751002E+00 0.14935985E+02</pdfrwt>
<totfact>-0.21772148E-13</totfact>
</mgrwt>
</event>
<event>
 4    1 -0.5167034E-019  0.1493177E+02  0.7818608E-02  0.1870158E+00
          2   -1    0    0  501    0  0.00000000000E+00  0.00000000000E+00  0.11911550826E+03  0.11911550829E+03  0.25500000000E-02 0. -1.
         -2   -1    0    0    0  501 -0.00000000000E+00 -0.00000000000E+00 -0.46794098580E+00  0.46794793374E+00  0.25500000000E-02 0.  1.
         31    1    1    2    0    0 -0.11797825352E+00  0.43141087977E+00  0.61595832504E+02  0.62045995375E+02  0.74470750000E+01 0.  1.
        -31    1    1    2    0    0  0.11797825352E+00 -0.43141087977E+00  0.57051734774E+02  0.57537460850E+02  0.74470750000E+01 0. -1.
<mgrwt>
<rscale>  0 0.14931771E+02</rscale>
<asrwt>0</asrwt>
<pdfrwt beam="1">  1        2 0.98879968E+00 0.14931771E+02</pdfrwt>
<pdfrwt beam="2">  1       -2 0.99384510E+00 0.14931771E+02</pdfrwt>
<totfact>-0.19598273E-13</totfact>
</mgrwt>
</event>
<event>
 4    1  0.5167034E-019  0.1495283E+02  0.7818608E-02  0.1869511E+00
          2   -1    0    0  501    0  0.00000000000E+00  0.00000000000E+00  0.12025897434E+03  0.12025897437E+03  0.25500000000E-02 0.  1.
         -2   -1    0    0    0  501 -0.00000000000E+00 -0.00000000000E+00 -0.46480006799E+00  0.46480706288E+00  0.25500000000E-02 0. -1.
         31    1    1    2    0    0 -0.55149658273E+00 -0.10641805946E+00  0.57072421185E+02  0.57558975489E+02  0.74470750000E+01 0. -1.
        -31    1    1    2    0    0  0.55149658273E+00  0.10641805946E+00  0.62721753086E+02  0.63164805941E+02  0.74470750000E+01 0.  1.
<mgrwt>
<rscale>  0 0.14952833E+02</rscale>
<asrwt>0</asrwt>
<pdfrwt beam="1">  1        2 0.99822869E+00 0.14952833E+02</pdfrwt>
<pdfrwt beam="2">  1       -2 0.98723672E+00 0.14952833E+02</pdfrwt>
<totfact> 0.11073652E-13</totfact>
</mgrwt>
</event>
<event>
 4    1 -0.5167034E-019  0.1492414E+02  0.7818608E-02  0.1870392E+00
          2   -1    0    0  501    0  0.00000000000E+00  0.00000000000E+00  0.11884938252E+03  0.11884938254E+03  0.25500000000E-02 0. -1.
         -2   -1    0    0    0  501 -0.00000000000E+00 -0.00000000000E+00 -0.46850988288E+00  0.46851682238E+00  0.25500000000E-02 0.  1.
         31    1    1    2    0    0  0.93167179473E-01  0.25121489806E+00  0.56075368585E+02  0.56568345186E+02  0.74470750000E+01 0.  1.
        -31    1    1    2    0    0 -0.93167179473E-01 -0.25121489806E+00  0.62305504047E+02  0.62749554179E+02  0.74470750000E+01 0. -1.
<mgrwt>
<rscale>  0 0.14924145E+02</rscale>
<asrwt>0</asrwt>
<pdfrwt beam="1">  1        2 0.98660387E+00 0.14924145E+02</pdfrwt>
<pdfrwt beam="2">  1       -2 0.99503988E+00 0.14924145E+02</pdfrwt>
<totfact>-0.27033022E-13</totfact>
</mgrwt>
</event>
<event>
 4    1 -0.5167034E-019  0.1497686E+02  0.7818608E-02  0.1868775E+00
          2   -1    0    0  501    0  0.00000000000E+00  0.00000000000E+00  0.11996856490E+03  0.11996856492E+03  0.25500000000E-02 0. -1.
         -2   -1    0    0    0  501 -0.00000000000E+00 -0.00000000000E+00 -0.46742371291E+00  0.46743066854E+00  0.25500000000E-02 0.  1.
         31    1    1    2    0    0 -0.73610118037E+00  0.67678606587E-01  0.57604519802E+02  0.58088605191E+02  0.74470750000E+01 0.  1.
        -31    1    1    2    0    0  0.73610118037E+00 -0.67678606587E-01  0.61896621380E+02  0.62347390400E+02  0.74470750000E+01 0.  1.
<mgrwt>
<rscale>  0 0.14976858E+02</rscale>
<asrwt>0</asrwt>
<pdfrwt beam="1">  1        2 0.99584908E+00 0.14976858E+02</pdfrwt>
<pdfrwt beam="2">  1       -2 0.99277838E+00 0.14976858E+02</pdfrwt>
<totfact>-0.89512202E-14</totfact>
</mgrwt>
</event>
<event>
 4    1 -0.5167034E-019  0.1498679E+02  0.7818608E-02  0.1868472E+00
         -2   -1    0    0    0  501 -0.00000000000E+00  0.00000000000E+00  0.12005018675E+03  0.12005018678E+03  0.25500000000E-02 0. -1.
          2   -1    0    0  501    0  0.00000000000E+00 -0.00000000000E+00 -0.46772535692E+00  0.46773230807E+00  0.25500000000E-02 0.  1.
         31    1    1    2    0    0  0.26863118351E+00  0.24644752761E+00  0.65804247975E+02  0.66225303901E+02  0.74470750000E+01 0. -1.
        -31    1    1    2    0    0 -0.26863118351E+00 -0.24644752761E+00  0.53778213417E+02  0.54292615183E+02  0.74470750000E+01 0.  1.
<mgrwt>
<rscale>  0 0.14986786E+02</rscale>
<asrwt>0</asrwt>
<pdfrwt beam="2">  1        2 0.99341918E+00 0.14986786E+02</pdfrwt>
<pdfrwt beam="1">  1       -2 0.99652648E+00 0.14986786E+02</pdfrwt>
<totfact>-0.11956807E-13</totfact>
</mgrwt>
</event>
<event>
 4    1 -0.5167034E-019  0.1498830E+02  0.7818608E-02  0.1868426E+00
          2   -1    0    0  501    0  0.00000000000E+00  0.00000000000E+00  0.11989486511E+03  0.11989486514E+03  0.25500000000E-02 0. -1.
         -2   -1    0    0    0  501 -0.00000000000E+00 -0.00000000000E+00 -0.46842593109E+00  0.46843287184E+00  0.25500000000E-02 0.  1.
         31    1    1    2    0    0 -0.50990009795E+00 -0.31016028754E+00  0.54981638467E+02  0.55486896580E+02  0.74470750000E+01 0.  1.
        -31    1    1    2    0    0  0.50990009795E+00  0.31016028754E+00  0.64444800716E+02  0.64876401433E+02  0.74470750000E+01 0. -1.
<mgrwt>
<rscale>  0 0.14988300E+02</rscale>
<asrwt>0</asrwt>
<pdfrwt beam="1">  1        2 0.99524796E+00 0.14988300E+02</pdfrwt>
<pdfrwt beam="2">  1       -2 0.99489634E+00 0.14988300E+02</pdfrwt>
<totfact>-0.11634177E-13</totfact>
</mgrwt>
</event>
<event>
 4    1 -0.5167034E-019  0.1500544E+02  0.7818608E-02  0.1867902E+00
         -2   -1    0    0    0  501 -0.00000000000E+00  0.00000000000E+00  0.11988106321E+03  0.11988106323E+03  0.25500000000E-02 0. -1.
          2   -1    0    0  501    0  0.00000000000E+00 -0.00000000000E+00 -0.46955223702E+00  0.46955916112E+00  0.25500000000E-02 0.  1.
         31    1    1    2    0    0 -0.80525978838E+00  0.38191396615E+00  0.61261230033E+02  0.61718648177E+02  0.74470750000E+01 0. -1.
        -31    1    1    2    0    0  0.80525978838E+00 -0.38191396615E+00  0.58150280938E+02  0.58631974219E+02  0.74470750000E+01 0.  1.
<mgrwt>
<rscale>  0 0.15005444E+02</rscale>
<asrwt>0</asrwt>
<pdfrwt beam="2">  1        2 0.99727870E+00 0.15005444E+02</pdfrwt>
<pdfrwt beam="1">  1       -2 0.99514315E+00 0.15005444E+02</pdfrwt>
<totfact>-0.82003303E-14</totfact>
</mgrwt>
</event>
<event>
 4    1  0.5167034E-019  0.1491402E+02  0.7818608E-02  0.1870704E+00
         -2   -1    0    0    0  501 -0.00000000000E+00  0.00000000000E+00  0.11900321373E+03  0.11900321376E+03  0.25500000000E-02 0.  1.
          2   -1    0    0  501    0  0.00000000000E+00 -0.00000000000E+00 -0.46726928395E+00  0.46727624188E+00  0.25500000000E-02 0. -1.
         31    1    1    2    0    0 -0.24002346442E+00  0.16825969201E+00  0.61264450647E+02  0.61716106177E+02  0.74470750000E+01 0.  1.
        -31    1    1    2    0    0  0.24002346442E+00 -0.16825969201E+00  0.57271493802E+02  0.57754383824E+02  0.74470750000E+01 0.  1.
<mgrwt>
<rscale>  0 0.14914015E+02</rscale>
<asrwt>0</asrwt>
<pdfrwt beam="2">  1        2 0.99242043E+00 0.14914015E+02</pdfrwt>
<pdfrwt beam="1">  1       -2 0.98786560E+00 0.14914015E+02</pdfrwt>
<totfact> 0.20070823E-13</totfact>
</mgrwt>
</event>
<event>
 4    1 -0.5167034E-019  0.1498170E+02  0.7818608E-02  0.1868628E+00
          2   -1    0    0  501    0  0.00000000000E+00  0.00000000000E+00  0.11948608105E+03  0.11948608108E+03  0.25500000000E-02 0. -1.
         -2   -1    0    0    0  501 -0.00000000000E+00 -0.00000000000E+00 -0.46961450627E+00  0.46962142945E+00  0.25500000000E-02 0.  1.
         31    1    1    2    0    0  0.71888199762E+00  0.32001144624E+00  0.60999504112E+02  0.61457445656E+02  0.74470750000E+01 0. -1.
        -31    1    1    2    0    0 -0.71888199762E+00 -0.32001144624E+00  0.58016962433E+02  0.58498256852E+02  0.74470750000E+01 0.  1.
<mgrwt>
<rscale>  0 0.14981697E+02</rscale>
<asrwt>0</asrwt>
<pdfrwt beam="1">  1        2 0.99187768E+00 0.14981697E+02</pdfrwt>
<pdfrwt beam="2">  1       -2 0.99739757E+00 0.14981697E+02</pdfrwt>
<totfact>-0.11101936E-13</totfact>
</mgrwt>
</event>
<event>
 4    1 -0.5167034E-019  0.1491227E+02  0.7818608E-02  0.1870758E+00
         -2   -1    0    0    0  501 -0.00000000000E+00  0.00000000000E+00  0.11984355187E+03  0.11984355189E+03  0.25500000000E-02 0.  1.
          2   -1    0    0  501    0  0.00000000000E+00 -0.00000000000E+00 -0.46388396658E+00  0.46389097528E+00  0.25500000000E-02 0. -1.
         31    1    1    2    0    0 -0.43478632532E-01  0.22391660653E+00  0.62013695667E+02  0.62459662226E+02  0.74470750000E+01 0. -1.
        -31    1    1    2    0    0  0.43478632532E-01 -0.22391660653E+00  0.57365972233E+02  0.57847780643E+02  0.74470750000E+01 0. -1.
<mgrwt>
<rscale>  0 0.14912267E+02</rscale>
<asrwt>0</asrwt>
<pdfrwt beam="2">  1        2 0.98528530E+00 0.14912267E+02</pdfrwt>
<pdfrwt beam="1">  1       -2 0.99478611E+00 0.14912267E+02</pdfrwt>
<totfact>-0.33242490E-13</totfact>
</mgrwt>
</event>
<event>
 4    1  0.5167034E-019  0.1490492E+02  0.7818608E-02  0.1870984E+00
         -2   -1    0    0    0  501 -0.00000000000E+00  0.00000000000E+00  0.11862595892E+03  0.11862595894E+03  0.25500000000E-02 0.  1.
          2   -1    0    0  501    0  0.00000000000E+00 -0.00000000000E+00 -0.46818361429E+00  0.46819055863E+00  0.25500000000E-02 0. -1.
         31    1    1    2    0    0  0.24201864533E+00 -0.14481783239E+00  0.58871439781E+02  0.59341257934E+02  0.74470750000E+01 0.  1.
        -31    1    1    2    0    0 -0.24201864533E+00  0.14481783239E+00  0.59286335521E+02  0.59752891569E+02  0.74470750000E+01 0. -1.
<mgrwt>
<rscale>  0 0.14904918E+02</rscale>
<asrwt>0</asrwt>
<pdfrwt beam="2">  1        2 0.99434232E+00 0.14904918E+02</pdfrwt>
<pdfrwt beam="1">  1       -2 0.98475375E+00 0.14904918E+02</pdfrwt>
<totfact> 0.55235062E-13</totfact>
</mgrwt>
</event>
<event>
 4    1  0.5167034E-019  0.1491627E+02  0.7818608E-02  0.1870634E+00
          2   -1    0    0  501    0  0.00000000000E+00  0.00000000000E+00  0.11995827348E+03  0.11995827350E+03  0.25500000000E-02 0.  1.
         -2   -1    0    0    0  501 -0.00000000000E+00 -0.00000000000E+00 -0.46368910660E+00  0.46369611825E+00  0.25500000000E-02 0. -1.
         31    1    1    2    0    0  0.40171503357E+00 -0.57706297333E-01  0.59652650634E+02  0.60117072107E+02  0.74470750000E+01 0. -1.
        -31    1    1    2    0    0 -0.40171503357E+00  0.57706297333E-01  0.59841933736E+02  0.60304897515E+02  0.74470750000E+01 0. -1.
<mgrwt>
<rscale>  0 0.14916269E+02</rscale>
<asrwt>0</asrwt>
<pdfrwt beam="1">  1        2 0.99573310E+00 0.14916269E+02</pdfrwt>
<pdfrwt beam="2">  1       -2 0.98487665E+00 0.14916269E+02</pdfrwt>
<totfact> 0.46078441E-13</totfact>
</mgrwt>
</event>
<event>
 4    1 -0.5167034E-019  0.1492583E+02  0.7818608E-02  0.1870340E+00
         -2   -1    0    0    0  501 -0.00000000000E+00  0.00000000000E+00  0.11981704163E+03  0.11981704166E+03  0.25500000000E-02 0. -1.
          2   -1    0    0  501    0  0.00000000000E+00 -0.00000000000E+00 -0.46483105887E+00  0.46483805329E+00  0.25500000000E-02 0.  1.
         31    1    1    2    0    0  0.27556302636E+00 -0.40026759099E+00  0.59719826002E+02  0.60184322650E+02  0.74470750000E+01 0.  1.
        -31    1    1    2    0    0 -0.27556302636E+00  0.40026759099E+00  0.59632384572E+02  0.60097557062E+02  0.74470750000E+01 0.  1.
<mgrwt>
<rscale>  0 0.14925831E+02</rscale>
<asrwt>0</asrwt>
<pdfrwt beam="2">  1        2 0.98728826E+00 0.14925831E+02</pdfrwt>
<pdfrwt beam="1">  1       -2 0.99457474E+00 0.14925831E+02</pdfrwt>
<totfact>-0.24573355E-13</totfact>
</mgrwt>
</event>
<event>
 4    1 -0.5167034E-019  0.1492846E+02  0.7818608E-02  0.1870260E+00
          2   -1    0    0  501    0  0.00000000000E+00  0.00000000000E+00  0.11914872458E+03  0.11914872461E+03  0.25500000000E-02 0. -1.
         -2   -1    0    0    0  501 -0.00000000000E+00 -0.00000000000E+00 -0.46760285778E+00  0.46760981074E+00  0.25500000000E-02 0.  1.
         31    1    1    2    0    0 -0.30825316669E+00 -0.36206354574E+00  0.57960489659E+02  0.58438886005E+02  0.74470750000E+01 0. -1.
        -31    1    1    2    0    0  0.30825316669E+00  0.36206354574E+00  0.60720632064E+02  0.61177448413E+02  0.74470750000E+01 0. -1.
<mgrwt>
<rscale>  0 0.14928456E+02</rscale>
<asrwt>0</asrwt>
<pdfrwt beam="1">  1        2 0.98907154E+00 0.14928456E+02</pdfrwt>
<pdfrwt beam="2">  1       -2 0.99313086E+00 0.14928456E+02</pdfrwt>
<totfact>-0.17439324E-13</totfact>
</mgrwt>
</event>
<event>
 4    1  0.5167034E-019  0.1493327E+02  0.7818608E-02  0.1870112E+00
         -2   -1    0    0    0  501 -0.00000000000E+00  0.00000000000E+00  0.11866819812E+03  0.11866819815E+03  0.25500000000E-02 0.  1.
          2   -1    0    0  501    0  0.00000000000E+00 -0.00000000000E+00 -0.46979907782E+00  0.46980599828E+00  0.25500000000E-02 0. -1.
         31    1    1    2    0    0  0.15187621979E+00  0.91881374841E-01  0.55029707803E+02  0.55531605195E+02  0.74470750000E+01 0. -1.
        -31    1    1    2    0    0 -0.15187621979E+00 -0.91881374841E-01  0.63168691244E+02  0.63606398956E+02  0.74470750000E+01 0.  1.
<mgrwt>
<rscale>  0 0.14933268E+02</rscale>
<asrwt>0</asrwt>
<pdfrwt beam="2">  1        2 0.99776110E+00 0.14933268E+02</pdfrwt>
<pdfrwt beam="1">  1       -2 0.98511637E+00 0.14933268E+02</pdfrwt>
<totfact> 0.28084739E-13</totfact>
</mgrwt>
</event>
<event>
 4    1 -0.5167034E-019  0.1490360E+02  0.7818608E-02  0.1871025E+00
          2   -1    0    0  501    0  0.00000000000E+00  0.00000000000E+00  0.11871703779E+03  0.11871703781E+03  0.25500000000E-02 0.  1.
         -2   -1    0    0    0  501 -0.00000000000E+00 -0.00000000000E+00 -0.46774143209E+00  0.46774838299E+00  0.25500000000E-02 0. -1.
         31    1    1    2    0    0  0.19482221262E+00  0.17246110624E+00  0.58711537589E+02  0.59182525044E+02  0.74470750000E+01 0. -1.
        -31    1    1    2    0    0 -0.19482221262E+00 -0.17246110624E+00  0.59537758764E+02  0.60002261151E+02  0.74470750000E+01 0.  1.
<mgrwt>
<rscale>  0 0.14903596E+02</rscale>
<asrwt>0</asrwt>
<pdfrwt beam="1">  1        2 0.98550320E+00 0.14903596E+02</pdfrwt>
<pdfrwt beam="2">  1       -2 0.99340989E+00 0.14903596E+02</pdfrwt>
<totfact>-0.29615672E-13</totfact>
</mgrwt>
</event>
<event>
 4    1  0.5167034E-019  0.1491881E+02  0.7818608E-02  0.1870556E+00
         -2   -1    0    0    0  501 -0.00000000000E+00  0.00000000000E+00  0.11843411252E+03  0.11843411255E+03  0.25500000000E-02 0. -1.
          2   -1    0    0  501    0  0.00000000000E+00 -0.00000000000E+00 -0.46981688565E+00  0.46982380585E+00  0.25500000000E-02 0.  1.
         31    1    1    2    0    0 -0.30297673378E+00 -0.30270289495E+00  0.59143322637E+02  0.59611869309E+02  0.74470750000E+01 0. -1.
        -31    1    1    2    0    0  0.30297673378E+00  0.30270289495E+00  0.58820972995E+02  0.59292067042E+02  0.74470750000E+01 0.  1.
<mgrwt>
<rscale>  0 0.14918815E+02</rscale>
<asrwt>0</asrwt>
<pdfrwt beam="2">  1        2 0.99779100E+00 0.14918815E+02</pdfrwt>
<pdfrwt beam="1">  1       -2 0.98318094E+00 0.14918815E+02</pdfrwt>
<totfact> 0.45349339E-13</totfact>
</mgrwt>
</event>
<event>
 4    1 -0.5167034E-019  0.1489689E+02  0.7818608E-02  0.1871231E+00
         -2   -1    0    0    0  501 -0.00000000000E+00  0.00000000000E+00  0.12036150662E+03  0.12036150665E+03  0.25500000000E-02 0. -1.
          2   -1    0    0  501    0  0.00000000000E+00 -0.00000000000E+00 -0.46093551375E+00  0.46094256728E+00  0.25500000000E-02 0.  1.
         31    1    1    2    0    0  0.18109374967E-01 -0.10863189818E+00  0.59212902810E+02  0.59679468112E+02  0.74470750000E+01 0.  1.
        -31    1    1    2    0    0 -0.18109374967E-01  0.10863189818E+00  0.60687668300E+02  0.61142981106E+02  0.74470750000E+01 0. -1.
<mgrwt>
<rscale>  0 0.14896888E+02</rscale>
<asrwt>0</asrwt>
<pdfrwt beam="2">  1        2 0.97906304E+00 0.14896888E+02</pdfrwt>
<pdfrwt beam="1">  1       -2 0.99904455E+00 0.14896888E+02</pdfrwt>
<totfact>-0.29041300E-13</totfact>
</mgrwt>
</event>
<event>
 4    1 -0.5167034E-019  0.1491692E+02  0.7818608E-02  0.1870614E+00
         -2   -1    0    0    0  501 -0.00000000000E+00  0.00000000000E+00  0.11964202434E+03  0.11964202437E+03  0.25500000000E-02 0.  1.
          2   -1    0    0  501    0  0.00000000000E+00 -0.00000000000E+00 -0.46495540742E+00  0.46496239997E+00  0.25500000000E-02 0. -1.
         31    1    1    2    0    0 -0.21233926718E+00 -0.45500365802E-01  0.62407138780E+02  0.62850274900E+02  0.74470750000E+01 0.  1.
        -31    1    1    2    0    0  0.21233926718E+00  0.45500365802E-01  0.56769930152E+02  0.57256711866E+02  0.74470750000E+01 0. -1.
<mgrwt>
<rscale>  0 0.14916920E+02</rscale>
<asrwt>0</asrwt>
<pdfrwt beam="2">  1        2 0.98754577E+00 0.14916920E+02</pdfrwt>
<pdfrwt beam="1">  1       -2 0.99312860E+00 0.14916920E+02</pdfrwt>
<totfact>-0.21025651E-13</totfact>
</mgrwt>
</event>
<event>
 4    1 -0.5167034E-019  0.1490419E+02  0.7818608E-02  0.1871006E+00
          2   -1    0    0  501    0  0.00000000000E+00  0.00000000000E+00  0.11847398920E+03  0.11847398922E+03  0.25500000000E-02 0.  1.
         -2   -1    0    0    0  501 -0.00000000000E+00 -0.00000000000E+00 -0.46873842618E+00  0.46874536230E+00  0.25500000000E-02 0. -1.
         31    1    1    2    0    0 -0.13114230545E+00  0.23929437172E+00  0.58855642160E+02  0.59325542561E+02  0.74470750000E+01 0.  1.
        -31    1    1    2    0    0  0.13114230545E+00 -0.23929437172E+00  0.59149608611E+02  0.59617192026E+02  0.74470750000E+01 0.  1.
<mgrwt>
<rscale>  0 0.14904191E+02</rscale>
<asrwt>0</asrwt>
<pdfrwt beam="1">  1        2 0.98350175E+00 0.14904191E+02</pdfrwt>
<pdfrwt beam="2">  1       -2 0.99551096E+00 0.14904191E+02</pdfrwt>
<totfact>-0.43535201E-13</totfact>
</mgrwt>
</event>
<event>
 4    1 -0.5167034E-019  0.1491150E+02  0.7818608E-02  0.1870781E+00
         -2   -1    0    0    0  501 -0.00000000000E+00  0.00000000000E+00  0.12024543396E+03  0.12024543399E+03  0.25500000000E-02 0.  1.
          2   -1    0    0  501    0  0.00000000000E+00 -0.00000000000E+00 -0.46228589512E+00  0.46229292805E+00  0.25500000000E-02 0. -1.
         31    1    1    2    0    0 -0.24021612779E+00  0.25143994100E+00  0.59152213547E+02  0.59620166214E+02  0.74470750000E+01 0.  1.
        -31    1    1    2    0    0  0.24021612779E+00 -0.25143994100E+00  0.60630934520E+02  0.61087560703E+02  0.74470750000E+01 0.  1.
<mgrwt>
<rscale>  0 0.14911498E+02</rscale>
<asrwt>0</asrwt>
<pdfrwt beam="2">  1        2 0.98191671E+00 0.14911498E+02</pdfrwt>
<pdfrwt beam="1">  1       -2 0.99809594E+00 0.14911498E+02</pdfrwt>
<totfact>-0.33208114E-13</totfact>
</mgrwt>
</event>
<event>
 4    1 -0.5167034E-019  0.1492038E+02  0.7818608E-02  0.1870508E+00
          2   -1    0    0  501    0  0.00000000000E+00  0.00000000000E+00  0.11902745727E+03  0.11902745730E+03  0.25500000000E-02 0.  1.
         -2   -1    0    0    0  501 -0.00000000000E+00 -0.00000000000E+00 -0.46757266447E+00  0.46757961789E+00  0.25500000000E-02 0. -1.
         31    1    1    2    0    0 -0.14005392753E+00 -0.12540052900E+00  0.56075041746E+02  0.56567699028E+02  0.74470750000E+01 0.  1.
        -31    1    1    2    0    0  0.14005392753E+00  0.12540052900E+00  0.62484842858E+02  0.62927337886E+02  0.74470750000E+01 0.  1.
<mgrwt>
<rscale>  0 0.14920376E+02</rscale>
<asrwt>0</asrwt>
<pdfrwt beam="1">  1        2 0.98806857E+00 0.14920376E+02</pdfrwt>
<pdfrwt beam="2">  1       -2 0.99306303E+00 0.14920376E+02</pdfrwt>
<totfact>-0.19420559E-13</totfact>
</mgrwt>
</event>
<event>
 4    1 -0.5167034E-019  0.1499051E+02  0.7818608E-02  0.1868358E+00
         -2   -1    0    0    0  501 -0.00000000000E+00  0.00000000000E+00  0.11991356569E+03  0.11991356572E+03  0.25500000000E-02 0.  1.
          2   -1    0    0  501    0  0.00000000000E+00 -0.00000000000E+00 -0.46849120583E+00  0.46849814561E+00  0.25500000000E-02 0. -1.
         31    1    1    2    0    0 -0.42940825928E+00 -0.44702107419E+00  0.64375580800E+02  0.64807858695E+02  0.74470750000E+01 0.  1.
        -31    1    1    2    0    0  0.42940825928E+00  0.44702107419E+00  0.55069493689E+02  0.55574205172E+02  0.74470750000E+01 0. -1.
<mgrwt>
<rscale>  0 0.14990513E+02</rscale>
<asrwt>0</asrwt>
<pdfrwt beam="2">  1        2 0.99503504E+00 0.14990513E+02</pdfrwt>
<pdfrwt beam="1">  1       -2 0.99540313E+00 0.14990513E+02</pdfrwt>
<totfact>-0.11703704E-13</totfact>
</mgrwt>
</event>
<event>
 4    1 -0.5167034E-019  0.1493935E+02  0.7818608E-02  0.1869925E+00
          2   -1    0    0  501    0  0.00000000000E+00  0.00000000000E+00  0.11921394898E+03  0.11921394901E+03  0.25500000000E-02 0.  1.
         -2   -1    0    0    0  501 -0.00000000000E+00 -0.00000000000E+00 -0.46802957275E+00  0.46803651938E+00  0.25500000000E-02 0. -1.
         31    1    1    2    0    0 -0.23657322389E+00  0.45270339198E+00  0.61584942080E+02  0.62035674610E+02  0.74470750000E+01 0.  1.
        -31    1    1    2    0    0  0.23657322389E+00 -0.45270339198E+00  0.57160977329E+02  0.57646310918E+02  0.74470750000E+01 0. -1.
<mgrwt>
<rscale>  0 0.14939354E+02</rscale>
<asrwt>0</asrwt>
<pdfrwt beam="1">  1        2 0.98961439E+00 0.14939354E+02</pdfrwt>
<pdfrwt beam="2">  1       -2 0.99403572E+00 0.14939354E+02</pdfrwt>
<totfact>-0.18193262E-13</totfact>
</mgrwt>
</event>
<event>
 4    1 -0.5167034E-019  0.1501815E+02  0.7818608E-02  0.1867515E+00
         -2   -1    0    0    0  501 -0.00000000000E+00  0.00000000000E+00  0.12022050650E+03  0.12022050653E+03  0.25500000000E-02 0. -1.
          2   -1    0    0  501    0  0.00000000000E+00 -0.00000000000E+00 -0.46901944545E+00  0.46902637742E+00  0.25500000000E-02 0.  1.
         31    1    1    2    0    0 -0.81345930446E+00 -0.30643340281E+00  0.63205036796E+02  0.63648183163E+02  0.74470750000E+01 0. -1.
        -31    1    1    2    0    0  0.81345930446E+00  0.30643340281E+00  0.56546450262E+02  0.57041349745E+02  0.74470750000E+01 0.  1.
<mgrwt>
<rscale>  0 0.15018146E+02</rscale>
<asrwt>0</asrwt>
<pdfrwt beam="2">  1        2 0.99616250E+00 0.15018146E+02</pdfrwt>
<pdfrwt beam="1">  1       -2 0.99794550E+00 0.15018146E+02</pdfrwt>
<totfact>-0.62567827E-14</totfact>
</mgrwt>
</event>
<event>
 4    1  0.5167034E-019  0.1492540E+02  0.7818608E-02  0.1870353E+00
          2   -1    0    0  501    0  0.00000000000E+00  0.00000000000E+00  0.12009621805E+03  0.12009621807E+03  0.25500000000E-02 0. -1.
         -2   -1    0    0    0  501 -0.00000000000E+00 -0.00000000000E+00 -0.46372380401E+00  0.46373081513E+00  0.25500000000E-02 0.  1.
         31    1    1    2    0    0  0.35849626571E+00 -0.20827995431E+00  0.57820055215E+02  0.58299139027E+02  0.74470750000E+01 0.  1.
        -31    1    1    2    0    0 -0.35849626571E+00  0.20827995431E+00  0.61812439026E+02  0.62260809861E+02  0.74470750000E+01 0. -1.
<mgrwt>
<rscale>  0 0.14925401E+02</rscale>
<asrwt>0</asrwt>
<pdfrwt beam="1">  1        2 0.99687401E+00 0.14925401E+02</pdfrwt>
<pdfrwt beam="2">  1       -2 0.98495442E+00 0.14925401E+02</pdfrwt>
<totfact> 0.37264088E-13</totfact>
</mgrwt>
</event>
<event>
 4    1 -0.5167034E-019  0.1493936E+02  0.7818608E-02  0.1869925E+00
          2   -1    0    0  501    0  0.00000000000E+00  0.00000000000E+00  0.11929070405E+03  0.11929070408E+03  0.25500000000E-02 0.  1.
         -2   -1    0    0    0  501 -0.00000000000E+00 -0.00000000000E+00 -0.46772889256E+00  0.46773584365E+00  0.25500000000E-02 0. -1.
         31    1    1    2    0    0 -0.12137621743E+00  0.23642898830E+00  0.55272638209E+02  0.55772700235E+02  0.74470750000E+01 0. -1.
        -31    1    1    2    0    0  0.12137621743E+00 -0.23642898830E+00  0.63550336952E+02  0.63985739689E+02  0.74470750000E+01 0.  1.
<mgrwt>
<rscale>  0 0.14939361E+02</rscale>
<asrwt>0</asrwt>
<pdfrwt beam="1">  1        2 0.99024657E+00 0.14939361E+02</pdfrwt>
<pdfrwt beam="2">  1       -2 0.99340211E+00 0.14939361E+02</pdfrwt>
<totfact>-0.16115524E-13</totfact>
</mgrwt>
</event>
<event>
 4    1 -0.5167034E-019  0.1497246E+02  0.7818608E-02  0.1868910E+00
          2   -1    0    0  501    0  0.00000000000E+00  0.00000000000E+00  0.11977027023E+03  0.11977027026E+03  0.25500000000E-02 0. -1.
         -2   -1    0    0    0  501 -0.00000000000E+00 -0.00000000000E+00 -0.46792257779E+00  0.46792952600E+00  0.25500000000E-02 0.  1.
         31    1    1    2    0    0 -0.67014967570E+00  0.13183147830E+00  0.56889914333E+02  0.57379332159E+02  0.74470750000E+01 0. -1.
        -31    1    1    2    0    0  0.67014967570E+00 -0.13183147830E+00  0.62412433320E+02  0.62858867625E+02  0.74470750000E+01 0.  1.
<mgrwt>
<rscale>  0 0.14972459E+02</rscale>
<asrwt>0</asrwt>
<pdfrwt beam="1">  1        2 0.99421356E+00 0.14972459E+02</pdfrwt>
<pdfrwt beam="2">  1       -2 0.99382741E+00 0.14972459E+02</pdfrwt>
<totfact>-0.12395535E-13</totfact>
</mgrwt>
</event>
<event>
 4    1  0.5167034E-019  0.1491585E+02  0.7818608E-02  0.1870647E+00
          2   -1    0    0  501    0  0.00000000000E+00  0.00000000000E+00  0.11961035890E+03  0.11961035893E+03  0.25500000000E-02 0. -1.
         -2   -1    0    0    0  501 -0.00000000000E+00 -0.00000000000E+00 -0.46501158132E+00  0.46501857303E+00  0.25500000000E-02 0.  1.
         31    1    1    2    0    0 -0.13932344472E+00 -0.10369793768E+00  0.62492276116E+02  0.62934677758E+02  0.74470750000E+01 0. -1.
        -31    1    1    2    0    0  0.13932344472E+00  0.10369793768E+00  0.56653071204E+02  0.57140699743E+02  0.74470750000E+01 0.  1.
<mgrwt>
<rscale>  0 0.14915847E+02</rscale>
<asrwt>0</asrwt>
<pdfrwt beam="1">  1        2 0.99286723E+00 0.14915847E+02</pdfrwt>
<pdfrwt beam="2">  1       -2 0.98766360E+00 0.14915847E+02</pdfrwt>
<totfact> 0.21611595E-13</totfact>
</mgrwt>
</event>
<event>
 4    1 -0.5167034E-019  0.1500038E+02  0.7818608E-02  0.1868057E+00
          2   -1    0    0  501    0  0.00000000000E+00  0.00000000000E+00  0.11967753327E+03  0.11967753330E+03  0.25500000000E-02 0.  1.
         -2   -1    0    0    0  501 -0.00000000000E+00 -0.00000000000E+00 -0.47003325165E+00  0.47004016866E+00  0.25500000000E-02 0. -1.
         31    1    1    2    0    0  0.83877918593E+00 -0.17052856844E+00  0.61586530659E+02  0.62041053466E+02  0.74470750000E+01 0. -1.
        -31    1    1    2    0    0 -0.83877918593E+00  0.17052856844E+00  0.57620969362E+02  0.58106520002E+02  0.74470750000E+01 0. -1.
<mgrwt>
<rscale>  0 0.15000378E+02</rscale>
<asrwt>0</asrwt>
<pdfrwt beam="1">  1        2 0.99346420E+00 0.15000378E+02</pdfrwt>
<pdfrwt beam="2">  1       -2 0.99828969E+00 0.15000378E+02</pdfrwt>
<totfact>-0.71165597E-14</totfact>
</mgrwt>
</event>
<event>
 4    1 -0.5167034E-019  0.1494859E+02  0.7818608E-02  0.1869641E+00
          2   -1    0    0  501    0  0.00000000000E+00  0.00000000000E+00  0.11964188877E+03  0.11964188880E+03  0.25500000000E-02 0. -1.
         -2   -1    0    0    0  501 -0.00000000000E+00 -0.00000000000E+00 -0.46693226574E+00  0.46693922868E+00  0.25500000000E-02 0.  1.
         31    1    1    2    0    0 -0.44813814639E+00 -0.15299753833E+00  0.63014446227E+02  0.63454736588E+02  0.74470750000E+01 0. -1.
        -31    1    1    2    0    0  0.44813814639E+00  0.15299753833E+00  0.56160510281E+02  0.56654091442E+02  0.74470750000E+01 0.  1.
<mgrwt>
<rscale>  0 0.14948589E+02</rscale>
<asrwt>0</asrwt>
<pdfrwt beam="1">  1        2 0.99314383E+00 0.14948589E+02</pdfrwt>
<pdfrwt beam="2">  1       -2 0.99172814E+00 0.14948589E+02</pdfrwt>
<totfact>-0.81770362E-14</totfact>
</mgrwt>
</event>
<event>
 4    1  0.5167034E-019  0.1492227E+02  0.7818608E-02  0.1870450E+00
         -2   -1    0    0    0  501 -0.00000000000E+00  0.00000000000E+00  0.11852806920E+03  0.11852806923E+03  0.25500000000E-02 0. -1.
          2   -1    0    0  501    0  0.00000000000E+00 -0.00000000000E+00 -0.46966185073E+00  0.46966877321E+00  0.25500000000E-02 0.  1.
         31    1    1    2    0    0 -0.15435209098E+00 -0.24850969961E+00  0.56220884295E+02  0.56712717609E+02  0.74470750000E+01 0.  1.
        -31    1    1    2    0    0  0.15435209098E+00  0.24850969961E+00  0.61837523058E+02  0.62285020396E+02  0.74470750000E+01 0. -1.
<mgrwt>
<rscale>  0 0.14922269E+02</rscale>
<asrwt>0</asrwt>
<pdfrwt beam="2">  1        2 0.99746616E+00 0.14922269E+02</pdfrwt>
<pdfrwt beam="1">  1       -2 0.98395656E+00 0.14922269E+02</pdfrwt>
<totfact> 0.41850406E-13</totfact>
</mgrwt>
</event>
<event>
 4    1  0.5167034E-019  0.1489622E+02  0.7818608E-02  0.1871252E+00
         -2   -1    0    0    0  501 -0.00000000000E+00  0.00000000000E+00  0.11834101669E+03  0.11834101671E+03  0.25500000000E-02 0. -1.
          2   -1    0    0  501    0  0.00000000000E+00 -0.00000000000E+00 -0.46876308945E+00  0.46877002521E+00  0.25500000000E-02 0.  1.
         31    1    1    2    0    0  0.96210768374E-02 -0.97694585880E-01  0.58331256069E+02  0.58804795701E+02  0.74470750000E+01 0.  1.
        -31    1    1    2    0    0 -0.96210768374E-02  0.97694585880E-01  0.59540997528E+02  0.60004991038E+02  0.74470750000E+01 0. -1.
<mgrwt>
<rscale>  0 0.14896216E+02</rscale>
<asrwt>0</asrwt>
<pdfrwt beam="2">  1        2 0.99555873E+00 0.14896216E+02</pdfrwt>
<pdfrwt beam="1">  1       -2 0.98240244E+00 0.14896216E+02</pdfrwt>
<totfact> 0.84918388E-13</totfact>
</mgrwt>
</event>
<event>
 4    1 -0.5167034E-019  0.1492382E+02  0.7818608E-02  0.1870402E+00
          2   -1    0    0  501    0  0.00000000000E+00  0.00000000000E+00  0.11878722721E+03  0.11878722724E+03  0.25500000000E-02 0. -1.
         -2   -1    0    0    0  501 -0.00000000000E+00 -0.00000000000E+00 -0.46873490113E+00  0.46874183730E+00  0.25500000000E-02 0.  1.
         31    1    1    2    0    0 -0.47894421276E-01 -0.16442751450E+00  0.55658886414E+02  0.56155141289E+02  0.74470750000E+01 0.  1.
        -31    1    1    2    0    0  0.47894421276E-01  0.16442751450E+00  0.62659605894E+02  0.63100827785E+02  0.74470750000E+01 0. -1.
<mgrwt>
<rscale>  0 0.14923824E+02</rscale>
<asrwt>0</asrwt>
<pdfrwt beam="1">  1        2 0.98609179E+00 0.14923824E+02</pdfrwt>
<pdfrwt beam="2">  1       -2 0.99551385E+00 0.14923824E+02</pdfrwt>
<totfact>-0.28585385E-13</totfact>
</mgrwt>
</event>
<event>
 4    1  0.5167034E-019  0.1490905E+02  0.7818608E-02  0.1870856E+00
         -2   -1    0    0    0  501 -0.00000000000E+00  0.00000000000E+00  0.11888125062E+03  0.11888125064E+03  0.25500000000E-02 0.  1.
          2   -1    0    0  501    0  0.00000000000E+00 -0.00000000000E+00 -0.46743756764E+00  0.46744452306E+00  0.25500000000E-02 0. -1.
         31    1    1    2    0    0 -0.30070403157E+00 -0.54144655052E-01  0.58141934250E+02  0.58617717449E+02  0.74470750000E+01 0. -1.
        -31    1    1    2    0    0  0.30070403157E+00  0.54144655052E-01  0.60271878799E+02  0.60730977718E+02  0.74470750000E+01 0.  1.
<mgrwt>
<rscale>  0 0.14909055E+02</rscale>
<asrwt>0</asrwt>
<pdfrwt beam="2">  1        2 0.99277245E+00 0.14909055E+02</pdfrwt>
<pdfrwt beam="1">  1       -2 0.98685852E+00 0.14909055E+02</pdfrwt>
<totfact> 0.31257698E-13</totfact>
</mgrwt>
</event>
<event>
 4    1 -0.5167034E-019  0.1496326E+02  0.7818608E-02  0.1869192E+00
          2   -1    0    0  501    0  0.00000000000E+00  0.00000000000E+00  0.11907382976E+03  0.11907382979E+03  0.25500000000E-02 0. -1.
         -2   -1    0    0    0  501 -0.00000000000E+00 -0.00000000000E+00 -0.47008098363E+00  0.47008789994E+00  0.25500000000E-02 0.  1.
         31    1    1    2    0    0 -0.60514572844E+00  0.17518783210E+00  0.56546598421E+02  0.57038352108E+02  0.74470750000E+01 0.  1.
        -31    1    1    2    0    0  0.60514572844E+00 -0.17518783210E+00  0.62057150360E+02  0.62505565584E+02  0.74470750000E+01 0.  1.
<mgrwt>
<rscale>  0 0.14963256E+02</rscale>
<asrwt>0</asrwt>
<pdfrwt beam="1">  1        2 0.98847275E+00 0.14963256E+02</pdfrwt>
<pdfrwt beam="2">  1       -2 0.99837086E+00 0.14963256E+02</pdfrwt>
<totfact>-0.10555446E-13</totfact>
</mgrwt>
</event>
<event>
 4    1 -0.5167034E-019  0.1495089E+02  0.7818608E-02  0.1869571E+00
          2   -1    0    0  501    0  0.00000000000E+00  0.00000000000E+00  0.11908307714E+03  0.11908307717E+03  0.25500000000E-02 0. -1.
         -2   -1    0    0    0  501 -0.00000000000E+00 -0.00000000000E+00 -0.46926791839E+00  0.46927484668E+00  0.25500000000E-02 0.  1.
         31    1    1    2    0    0 -0.60337277500E+00 -0.30874940001E-01  0.57375404795E+02  0.57859839383E+02  0.74470750000E+01 0.  1.
        -31    1    1    2    0    0  0.60337277500E+00  0.30874940001E-01  0.61238404428E+02  0.61692512633E+02  0.74470750000E+01 0. -1.
<mgrwt>
<rscale>  0 0.14950891E+02</rscale>
<asrwt>0</asrwt>
<pdfrwt beam="1">  1        2 0.98854249E+00 0.14950891E+02</pdfrwt>
<pdfrwt beam="2">  1       -2 0.99665116E+00 0.14950891E+02</pdfrwt>
<totfact>-0.17892982E-13</totfact>
</mgrwt>
</event>
<event>
 4    1 -0.5167034E-019  0.1494946E+02  0.7818608E-02  0.1869615E+00
         -2   -1    0    0    0  501 -0.00000000000E+00  0.00000000000E+00  0.11993465567E+03  0.11993465570E+03  0.25500000000E-02 0.  1.
          2   -1    0    0  501    0  0.00000000000E+00 -0.00000000000E+00 -0.46584697694E+00  0.46585395611E+00  0.25500000000E-02 0. -1.
         31    1    1    2    0    0 -0.26268787328E+00 -0.55453261521E+00  0.61266352065E+02  0.61720347802E+02  0.74470750000E+01 0.  1.
        -31    1    1    2    0    0  0.26268787328E+00  0.55453261521E+00  0.58202456630E+02  0.58680161853E+02  0.74470750000E+01 0.  1.
<mgrwt>
<rscale>  0 0.14949464E+02</rscale>
<asrwt>0</asrwt>
<pdfrwt beam="2">  1        2 0.98944142E+00 0.14949464E+02</pdfrwt>
<pdfrwt beam="1">  1       -2 0.99555565E+00 0.14949464E+02</pdfrwt>
<totfact>-0.18419109E-13</totfact>
</mgrwt>
</event>
<event>
 4    1  0.5167034E-019  0.1490935E+02  0.7818608E-02  0.1870847E+00
         -2   -1    0    0    0  501 -0.00000000000E+00  0.00000000000E+00  0.11903691903E+03  0.11903691906E+03  0.25500000000E-02 0.  1.
          2   -1    0    0  501    0  0.00000000000E+00 -0.00000000000E+00 -0.46684471959E+00  0.46685168384E+00  0.25500000000E-02 0. -1.
         31    1    1    2    0    0 -0.17542304642E+00 -0.20373909660E+00  0.57662725448E+02  0.58142248967E+02  0.74470750000E+01 0. -1.
        -31    1    1    2    0    0  0.17542304642E+00  0.20373909660E+00  0.60907348866E+02  0.61361521777E+02  0.74470750000E+01 0.  1.
<mgrwt>
<rscale>  0 0.14909349E+02</rscale>
<asrwt>0</asrwt>
<pdfrwt beam="2">  1        2 0.99152334E+00 0.14909349E+02</pdfrwt>
<pdfrwt beam="1">  1       -2 0.98814079E+00 0.14909349E+02</pdfrwt>
<totfact> 0.18313084E-13</totfact>
</mgrwt>
</event>
<event>
 4    1  0.5167034E-019  0.1491435E+02  0.7818608E-02  0.1870694E+00
          2   -1    0    0  501    0  0.00000000000E+00  0.00000000000E+00  0.12045557159E+03  0.12045557162E+03  0.25500000000E-02 0. -1.
         -2   -1    0    0    0  501 -0.00000000000E+00 -0.00000000000E+00 -0.46165567886E+00  0.46166272139E+00  0.25500000000E-02 0.  1.
         31    1    1    2    0    0 -0.35483936315E+00  0.12483959709E+00  0.59227641548E+02  0.59695175226E+02  0.74470750000E+01 0.  1.
        -31    1    1    2    0    0  0.35483936315E+00 -0.12483959709E+00  0.60766274365E+02  0.61222059114E+02  0.74470750000E+01 0.  1.
<mgrwt>
<rscale>  0 0.14914346E+02</rscale>
<asrwt>0</asrwt>
<pdfrwt beam="1">  1        2 0.99982829E+00 0.14914346E+02</pdfrwt>
<pdfrwt beam="2">  1       -2 0.98058979E+00 0.14914346E+02</pdfrwt>
<totfact> 0.73765925E-14</totfact>
</mgrwt>
</event>
<event>
 4    1 -0.5167034E-019  0.1490794E+02  0.7818608E-02  0.1870891E+00
          2   -1    0    0  501    0  0.00000000000E+00  0.00000000000E+00  0.11871327580E+03  0.11871327583E+03  0.25500000000E-02 0. -1.
         -2   -1    0    0    0  501 -0.00000000000E+00 -0.00000000000E+00 -0.46802886725E+00  0.46803581388E+00  0.25500000000E-02 0.  1.
         31    1    1    2    0    0  0.21573109803E+00 -0.21525111300E+00  0.58328928243E+02  0.58803194378E+02  0.74470750000E+01 0.  1.
        -31    1    1    2    0    0 -0.21573109803E+00  0.21525111300E+00  0.59916318690E+02  0.60378117264E+02  0.74470750000E+01 0. -1.
<mgrwt>
<rscale>  0 0.14907938E+02</rscale>
<asrwt>0</asrwt>
<pdfrwt beam="1">  1        2 0.98547447E+00 0.14907938E+02</pdfrwt>
<pdfrwt beam="2">  1       -2 0.99401783E+00 0.14907938E+02</pdfrwt>
<totfact>-0.31526183E-13</totfact>
</mgrwt>
</event>
<event>
 4    1  0.5167034E-019  0.1493266E+02  0.7818608E-02  0.1870130E+00
          2   -1    0    0  501    0  0.00000000000E+00  0.00000000000E+00  0.12008181648E+03  0.12008181651E+03  0.25500000000E-02 0.  1.
         -2   -1    0    0    0  501 -0.00000000000E+00 -0.00000000000E+00 -0.46423081580E+00  0.46423781926E+00  0.25500000000E-02 0. -1.
         31    1    1    2    0    0  0.31015244607E+00  0.43691846717E+00  0.59883234887E+02  0.60346895851E+02  0.74470750000E+01 0.  1.
        -31    1    1    2    0    0 -0.31015244607E+00 -0.43691846717E+00  0.59734350777E+02  0.60199158475E+02  0.74470750000E+01 0.  1.
<mgrwt>
<rscale>  0 0.14932663E+02</rscale>
<asrwt>0</asrwt>
<pdfrwt beam="1">  1        2 0.99675912E+00 0.14932663E+02</pdfrwt>
<pdfrwt beam="2">  1       -2 0.98602670E+00 0.14932663E+02</pdfrwt>
<totfact> 0.27464976E-13</totfact>
</mgrwt>
</event>
<event>
 4    1 -0.5167034E-019  0.1492395E+02  0.7818608E-02  0.1870398E+00
         -2   -1    0    0    0  501 -0.00000000000E+00  0.00000000000E+00  0.11972704381E+03  0.11972704384E+03  0.25500000000E-02 0.  1.
          2   -1    0    0  501    0  0.00000000000E+00 -0.00000000000E+00 -0.46506326403E+00  0.46507025496E+00  0.25500000000E-02 0. -1.
         31    1    1    2    0    0 -0.40556700769E+00 -0.17882301987E+00  0.58340315217E+02  0.58815370167E+02  0.74470750000E+01 0. -1.
        -31    1    1    2    0    0  0.40556700769E+00  0.17882301987E+00  0.60921665328E+02  0.61376743924E+02  0.74470750000E+01 0.  1.
<mgrwt>
<rscale>  0 0.14923950E+02</rscale>
<asrwt>0</asrwt>
<pdfrwt beam="2">  1        2 0.98777668E+00 0.14923950E+02</pdfrwt>
<pdfrwt beam="1">  1       -2 0.99383249E+00 0.14923950E+02</pdfrwt>
<totfact>-0.22207310E-13</totfact>
</mgrwt>
</event>
<event>
 4    1  0.5167034E-019  0.1491655E+02  0.7818608E-02  0.1870626E+00
         -2   -1    0    0    0  501 -0.00000000000E+00  0.00000000000E+00  0.11888494029E+03  0.11888494032E+03  0.25500000000E-02 0. -1.
          2   -1    0    0  501    0  0.00000000000E+00 -0.00000000000E+00 -0.46789296981E+00  0.46789991847E+00  0.25500000000E-02 0.  1.
         31    1    1    2    0    0 -0.75915457892E-01 -0.34076699398E+00  0.60906488044E+02  0.61361071513E+02  0.74470750000E+01 0.  1.
        -31    1    1    2    0    0  0.75915457892E-01  0.34076699398E+00  0.57510559280E+02  0.57991768727E+02  0.74470750000E+01 0. -1.
<mgrwt>
<rscale>  0 0.14916547E+02</rscale>
<asrwt>0</asrwt>
<pdfrwt beam="2">  1        2 0.99373598E+00 0.14916547E+02</pdfrwt>
<pdfrwt beam="1">  1       -2 0.98689279E+00 0.14916547E+02</pdfrwt>
<totfact> 0.28715006E-13</totfact>
</mgrwt>
</event>
<event>
 4    1 -0.5167034E-019  0.1495015E+02  0.7818608E-02  0.1869594E+00
          2   -1    0    0  501    0  0.00000000000E+00  0.00000000000E+00  0.11872996781E+03  0.11872996783E+03  0.25500000000E-02 0. -1.
         -2   -1    0    0    0  501 -0.00000000000E+00 -0.00000000000E+00 -0.47061675043E+00  0.47062365886E+00  0.25500000000E-02 0.  1.
         31    1    1    2    0    0  0.25095887868E+00  0.59350901368E+00  0.58725815568E+02  0.59199624775E+02  0.74470750000E+01 0.  1.
        -31    1    1    2    0    0 -0.25095887868E+00 -0.59350901368E+00  0.59533535487E+02  0.60000966717E+02  0.74470750000E+01 0.  1.
<mgrwt>
<rscale>  0 0.14950147E+02</rscale>
<asrwt>0</asrwt>
<pdfrwt beam="1">  1        2 0.98563389E+00 0.14950147E+02</pdfrwt>
<pdfrwt beam="2">  1       -2 0.99949285E+00 0.14950147E+02</pdfrwt>
<totfact>-0.53781104E-14</totfact>
</mgrwt>
</event>
<event>
 4    1 -0.5167034E-019  0.1499608E+02  0.7818608E-02  0.1868188E+00
         -2   -1    0    0    0  501 -0.00000000000E+00  0.00000000000E+00  0.11958073307E+03  0.11958073310E+03  0.25500000000E-02 0.  1.
          2   -1    0    0  501    0  0.00000000000E+00 -0.00000000000E+00 -0.47014445823E+00  0.47015137360E+00  0.25500000000E-02 0. -1.
         31    1    1    2    0    0 -0.76124179513E+00 -0.41780637488E+00  0.60255872478E+02  0.60720533145E+02  0.74470750000E+01 0. -1.
        -31    1    1    2    0    0  0.76124179513E+00  0.41780637488E+00  0.58854716138E+02  0.59330351330E+02  0.74470750000E+01 0.  1.
<mgrwt>
<rscale>  0 0.14996084E+02</rscale>
<asrwt>0</asrwt>
<pdfrwt beam="2">  1        2 0.99852179E+00 0.14996084E+02</pdfrwt>
<pdfrwt beam="1">  1       -2 0.99266471E+00 0.14996084E+02</pdfrwt>
<totfact>-0.41499613E-14</totfact>
</mgrwt>
</event>
<event>
 4    1 -0.5167034E-019  0.1494711E+02  0.7818608E-02  0.1869687E+00
          2   -1    0    0  501    0  0.00000000000E+00  0.00000000000E+00  0.11917685540E+03  0.11917685543E+03  0.25500000000E-02 0. -1.
         -2   -1    0    0    0  501 -0.00000000000E+00 -0.00000000000E+00 -0.46866148682E+00  0.46866842408E+00  0.25500000000E-02 0.  1.
         31    1    1    2    0    0 -0.15954511026E-01 -0.19416492478E+00  0.64137725371E+02  0.64568914320E+02  0.74470750000E+01 0. -1.
        -31    1    1    2    0    0  0.15954511026E-01  0.19416492478E+00  0.54570468540E+02  0.55076609529E+02  0.74470750000E+01 0.  1.
<mgrwt>
<rscale>  0 0.14947109E+02</rscale>
<asrwt>0</asrwt>
<pdfrwt beam="1">  1        2 0.98931290E+00 0.14947109E+02</pdfrwt>
<pdfrwt beam="2">  1       -2 0.99537133E+00 0.14947109E+02</pdfrwt>
<totfact>-0.18877568E-13</totfact>
</mgrwt>
</event>
<event>
 4    1  0.5167034E-019  0.1492339E+02  0.7818608E-02  0.1870415E+00
          2   -1    0    0  501    0  0.00000000000E+00  0.00000000000E+00  0.12026173909E+03  0.12026173912E+03  0.25500000000E-02 0. -1.
         -2   -1    0    0    0  501 -0.00000000000E+00 -0.00000000000E+00 -0.46296088661E+00  0.46296790929E+00  0.25500000000E-02 0.  1.
         31    1    1    2    0    0 -0.90545269113E-01  0.41696952983E+00  0.61432556396E+02  0.61883761791E+02  0.74470750000E+01 0.  1.
        -31    1    1    2    0    0  0.90545269113E-01 -0.41696952983E+00  0.58366221811E+02  0.58840945239E+02  0.74470750000E+01 0.  1.
<mgrwt>
<rscale>  0 0.14923392E+02</rscale>
<asrwt>0</asrwt>
<pdfrwt beam="1">  1        2 0.99823634E+00 0.14923392E+02</pdfrwt>
<pdfrwt beam="2">  1       -2 0.98334542E+00 0.14923392E+02</pdfrwt>
<totfact> 0.36645403E-13</totfact>
</mgrwt>
</event>
<event>
 4    1 -0.5167034E-019  0.1493029E+02  0.7818608E-02  0.1870203E+00
          2   -1    0    0  501    0  0.00000000000E+00  0.00000000000E+00  0.11874821955E+03  0.11874821958E+03  0.25500000000E-02 0.  1.
         -2   -1    0    0    0  501 -0.00000000000E+00 -0.00000000000E+00 -0.46929533714E+00  0.46930226503E+00  0.25500000000E-02 0. -1.
         31    1    1    2    0    0 -0.79218062154E-01 -0.49433738770E+00  0.58043768668E+02  0.58521693860E+02  0.74470750000E+01 0. -1.
        -31    1    1    2    0    0  0.79218062154E-01  0.49433738770E+00  0.60235155547E+02  0.60695827985E+02  0.74470750000E+01 0.  1.
<mgrwt>
<rscale>  0 0.14930291E+02</rscale>
<asrwt>0</asrwt>
<pdfrwt beam="1">  1        2 0.98577388E+00 0.14930291E+02</pdfrwt>
<pdfrwt beam="2">  1       -2 0.99669813E+00 0.14930291E+02</pdfrwt>
<totfact>-0.26089458E-13</totfact>
</mgrwt>
</event>
<event>
 4    1  0.5167034E-019  0.1494985E+02  0.7818608E-02  0.1869603E+00
          2   -1    0    0  501    0  0.00000000000E+00  0.00000000000E+00  0.12024296045E+03  0.12024296048E+03  0.25500000000E-02 0. -1.
         -2   -1    0    0    0  501 -0.00000000000E+00 -0.00000000000E+00 -0.46467622101E+00  0.46468321776E+00  0.25500000000E-02 0.  1.
         31    1    1    2    0    0  0.35423437450E+00  0.50913415557E+00  0.61307136660E+02  0.61760898885E+02  0.74470750000E+01 0. -1.
        -31    1    1    2    0    0 -0.35423437450E+00 -0.50913415557E+00  0.58471147569E+02  0.58946744810E+02  0.74470750000E+01 0. -1.
<mgrwt>
<rscale>  0 0.14949845E+02</rscale>
<asrwt>0</asrwt>
<pdfrwt beam="1">  1        2 0.99809525E+00 0.14949845E+02</pdfrwt>
<pdfrwt beam="2">  1       -2 0.98697417E+00 0.14949845E+02</pdfrwt>
<totfact> 0.13132194E-13</totfact>
</mgrwt>
</event>
<event>
 4    1 -0.5167034E-019  0.1493960E+02  0.7818608E-02  0.1869917E+00
         -2   -1    0    0    0  501 -0.00000000000E+00  0.00000000000E+00  0.11987218636E+03  0.11987218639E+03  0.25500000000E-02 0.  1.
          2   -1    0    0  501    0  0.00000000000E+00 -0.00000000000E+00 -0.46547515647E+00  0.46548214121E+00  0.25500000000E-02 0. -1.
         31    1    1    2    0    0  0.69932575710E-01  0.47933595129E+00  0.57101134846E+02  0.57586744831E+02  0.74470750000E+01 0. -1.
        -31    1    1    2    0    0 -0.69932575710E-01 -0.47933595129E+00  0.62305576358E+02  0.62750923697E+02  0.74470750000E+01 0.  1.
<mgrwt>
<rscale>  0 0.14939605E+02</rscale>
<asrwt>0</asrwt>
<pdfrwt beam="2">  1        2 0.98865276E+00 0.14939605E+02</pdfrwt>
<pdfrwt beam="1">  1       -2 0.99503604E+00 0.14939605E+02</pdfrwt>
<totfact>-0.20585601E-13</totfact>
</mgrwt>
</event>
<event>
 4    1 -0.5167034E-019  0.1497365E+02  0.7818608E-02  0.1868874E+00
          2   -1    0    0  501    0  0.00000000000E+00  0.00000000000E+00  0.12016359037E+03  0.12016359040E+03  0.25500000000E-02 0.  1.
         -2   -1    0    0    0  501 -0.00000000000E+00 -0.00000000000E+00 -0.46646494989E+00  0.46647191982E+00  0.25500000000E-02 0. -1.
         31    1    1    2    0    0 -0.65027451819E-02  0.53237034264E+00  0.64335044595E+02  0.64766815188E+02  0.74470750000E+01 0.  1.
        -31    1    1    2    0    0  0.65027451819E-02 -0.53237034264E+00  0.55362080824E+02  0.55863247128E+02  0.74470750000E+01 0. -1.
<mgrwt>
<rscale>  0 0.14973647E+02</rscale>
<asrwt>0</asrwt>
<pdfrwt beam="1">  1        2 0.99745376E+00 0.14973647E+02</pdfrwt>
<pdfrwt beam="2">  1       -2 0.99075617E+00 0.14973647E+02</pdfrwt>
<totfact>-0.20249869E-14</totfact>
</mgrwt>
</event>
<event>
 4    1  0.5167034E-019  0.1491425E+02  0.7818608E-02  0.1870696E+00
          2   -1    0    0  501    0  0.00000000000E+00  0.00000000000E+00  0.12039773160E+03  0.12039773163E+03  0.25500000000E-02 0.  1.
         -2   -1    0    0    0  501 -0.00000000000E+00 -0.00000000000E+00 -0.46187166673E+00  0.46187870597E+00  0.25500000000E-02 0. -1.
         31    1    1    2    0    0 -0.12233235675E+00 -0.24910757524E-01  0.56999121828E+02  0.57483688129E+02  0.74470750000E+01 0. -1.
        -31    1    1    2    0    0  0.12233235675E+00  0.24910757524E-01  0.62936738104E+02  0.63375922202E+02  0.74470750000E+01 0.  1.
<mgrwt>
<rscale>  0 0.14914252E+02</rscale>
<asrwt>0</asrwt>
<pdfrwt beam="1">  1        2 0.99935182E+00 0.14914252E+02</pdfrwt>
<pdfrwt beam="2">  1       -2 0.98104500E+00 0.14914252E+02</pdfrwt>
<totfact> 0.24346173E-13</totfact>
</mgrwt>
</event>
<event>
 4    1  0.5167034E-019  0.1490333E+02  0.7818608E-02  0.1871033E+00
          2   -1    0    0  501    0  0.00000000000E+00  0.00000000000E+00  0.11981239130E+03  0.11981239133E+03  0.25500000000E-02 0. -1.
         -2   -1    0    0    0  501 -0.00000000000E+00 -0.00000000000E+00 -0.46344841062E+00  0.46345542592E+00  0.25500000000E-02 0.  1.
         31    1    1    2    0    0 -0.21797881494E+00  0.11492618131E+00  0.58969199844E+02  0.59438086940E+02  0.74470750000E+01 0.  1.
        -31    1    1    2    0    0  0.21797881494E+00 -0.11492618131E+00  0.60379743048E+02  0.60837759816E+02  0.74470750000E+01 0.  1.
<mgrwt>
<rscale>  0 0.14903327E+02</rscale>
<asrwt>0</asrwt>
<pdfrwt beam="1">  1        2 0.99452485E+00 0.14903327E+02</pdfrwt>
<pdfrwt beam="2">  1       -2 0.98436277E+00 0.14903327E+02</pdfrwt>
<totfact> 0.60291332E-13</totfact>
</mgrwt>
</event>
<event>
 4    1  0.5167034E-019  0.1491333E+02  0.7818608E-02  0.1870725E+00
          2   -1    0    0  501    0  0.00000000000E+00  0.00000000000E+00  0.12043257076E+03  0.12043257079E+03  0.25500000000E-02 0. -1.
         -2   -1    0    0    0  501 -0.00000000000E+00 -0.00000000000E+00 -0.46168116464E+00  0.46168820679E+00  0.25500000000E-02 0.  1.
         31    1    1    2    0    0  0.12990123076E+00 -0.31280098462E+00  0.58623367479E+02  0.59095455489E+02  0.74470750000E+01 0. -1.
        -31    1    1    2    0    0 -0.12990123076E+00  0.31280098462E+00  0.61347522117E+02  0.61798803506E+02  0.74470750000E+01 0. -1.
<mgrwt>
<rscale>  0 0.14913333E+02</rscale>
<asrwt>0</asrwt>
<pdfrwt beam="1">  1        2 0.99963832E+00 0.14913333E+02</pdfrwt>
<pdfrwt beam="2">  1       -2 0.98064300E+00 0.14913333E+02</pdfrwt>
<totfact> 0.15073879E-13</totfact>
</mgrwt>
</event>
<event>
 4    1  0.5167034E-019  0.1493984E+02  0.7818608E-02  0.1869910E+00
          2   -1    0    0  501    0  0.00000000000E+00  0.00000000000E+00  0.12031392192E+03  0.12031392195E+03  0.25500000000E-02 0. -1.
         -2   -1    0    0    0  501 -0.00000000000E+00 -0.00000000000E+00 -0.46378101416E+00  0.46378802442E+00  0.25500000000E-02 0.  1.
         31    1    1    2    0    0  0.19200359000E-01 -0.54129411891E+00  0.58164190134E+02  0.58641498173E+02  0.74470750000E+01 0. -1.
        -31    1    1    2    0    0 -0.19200359000E-01  0.54129411891E+00  0.61685950773E+02  0.62136211799E+02  0.74470750000E+01 0. -1.
<mgrwt>
<rscale>  0 0.14939844E+02</rscale>
<asrwt>0</asrwt>
<pdfrwt beam="1">  1        2 0.99867461E+00 0.14939844E+02</pdfrwt>
<pdfrwt beam="2">  1       -2 0.98508232E+00 0.14939844E+02</pdfrwt>
<totfact> 0.18575583E-13</totfact>
</mgrwt>
</event>
<event>
 4    1 -0.5167034E-019  0.1491457E+02  0.7818608E-02  0.1870687E+00
          2   -1    0    0  501    0  0.00000000000E+00  0.00000000000E+00  0.11846833823E+03  0.11846833826E+03  0.25500000000E-02 0.  1.
         -2   -1    0    0    0  501 -0.00000000000E+00 -0.00000000000E+00 -0.46941416794E+00  0.46942109408E+00  0.25500000000E-02 0. -1.
         31    1    1    2    0    0 -0.28024324872E+00  0.25991186546E+00  0.58375940671E+02  0.58850280082E+02  0.74470750000E+01 0.  1.
        -31    1    1    2    0    0  0.28024324872E+00 -0.25991186546E+00  0.59622983395E+02  0.60087479274E+02  0.74470750000E+01 0.  1.
<mgrwt>
<rscale>  0 0.14914574E+02</rscale>
<asrwt>0</asrwt>
<pdfrwt beam="1">  1        2 0.98346061E+00 0.14914574E+02</pdfrwt>
<pdfrwt beam="2">  1       -2 0.99694024E+00 0.14914574E+02</pdfrwt>
<totfact>-0.36343006E-13</totfact>
</mgrwt>
</event>
<event>
 4    1  0.5167034E-019  0.1493960E+02  0.7818608E-02  0.1869917E+00
         -2   -1    0    0    0  501 -0.00000000000E+00  0.00000000000E+00  0.11881882363E+03  0.11881882365E+03  0.25500000000E-02 0. -1.
          2   -1    0    0  501    0  0.00000000000E+00 -0.00000000000E+00 -0.46960174759E+00  0.46960867095E+00  0.25500000000E-02 0.  1.
         31    1    1    2    0    0  0.27547369476E+00 -0.34890534164E+00  0.62177064769E+02  0.62623030348E+02  0.74470750000E+01 0. -1.
        -31    1    1    2    0    0 -0.27547369476E+00  0.34890534164E+00  0.56172157111E+02  0.56665401977E+02  0.74470750000E+01 0.  1.
<mgrwt>
<rscale>  0 0.14939604E+02</rscale>
<asrwt>0</asrwt>
<pdfrwt beam="2">  1        2 0.99734865E+00 0.14939604E+02</pdfrwt>
<pdfrwt beam="1">  1       -2 0.98636022E+00 0.14939604E+02</pdfrwt>
<totfact> 0.21332387E-13</totfact>
</mgrwt>
</event>
<event>
 4    1 -0.5167034E-019  0.1498419E+02  0.7818608E-02  0.1868551E+00
          2   -1    0    0  501    0  0.00000000000E+00  0.00000000000E+00  0.11997532743E+03  0.11997532746E+03  0.25500000000E-02 0. -1.
         -2   -1    0    0    0  501 -0.00000000000E+00 -0.00000000000E+00 -0.46785500591E+00  0.46786195512E+00  0.25500000000E-02 0.  1.
         31    1    1    2    0    0  0.17190789149E+00 -0.34842699510E+00  0.53948539625E+02  0.54461498395E+02  0.74470750000E+01 0.  1.
        -31    1    1    2    0    0 -0.17190789149E+00  0.34842699510E+00  0.65558932802E+02  0.65981691021E+02  0.74470750000E+01 0. -1.
<mgrwt>
<rscale>  0 0.14984189E+02</rscale>
<asrwt>0</asrwt>
<pdfrwt beam="1">  1        2 0.99590856E+00 0.14984189E+02</pdfrwt>
<pdfrwt beam="2">  1       -2 0.99369107E+00 0.14984189E+02</pdfrwt>
<totfact>-0.10202152E-13</totfact>
</mgrwt>
</event>
<event>
 4    1  0.5167034E-019  0.1491841E+02  0.7818608E-02  0.1870568E+00
          2   -1    0    0  501    0  0.00000000000E+00  0.00000000000E+00  0.11961941982E+03  0.11961941985E+03  0.25500000000E-02 0. -1.
         -2   -1    0    0    0  501 -0.00000000000E+00 -0.00000000000E+00 -0.46513635735E+00  0.46514334718E+00  0.25500000000E-02 0.  1.
         31    1    1    2    0    0 -0.14212442084E+00  0.40012853908E+00  0.59391085777E+02  0.59857666995E+02  0.74470750000E+01 0.  1.
        -31    1    1    2    0    0  0.14212442084E+00 -0.40012853908E+00  0.59763197686E+02  0.60226896200E+02  0.74470750000E+01 0. -1.
<mgrwt>
<rscale>  0 0.14918413E+02</rscale>
<asrwt>0</asrwt>
<pdfrwt beam="1">  1        2 0.99294319E+00 0.14918413E+02</pdfrwt>
<pdfrwt beam="2">  1       -2 0.98792788E+00 0.14918413E+02</pdfrwt>
<totfact> 0.18682638E-13</totfact>
</mgrwt>
</event>
<event>
 4    1  0.5167034E-019  0.1489943E+02  0.7818608E-02  0.1871153E+00
          2   -1    0    0  501    0  0.00000000000E+00  0.00000000000E+00  0.12013625223E+03  0.12013625226E+03  0.25500000000E-02 0.  1.
         -2   -1    0    0    0  501 -0.00000000000E+00 -0.00000000000E+00 -0.46195728281E+00  0.46196432075E+00  0.25500000000E-02 0. -1.
         31    1    1    2    0    0  0.17468663651E+00 -0.93731443785E-01  0.59869119193E+02  0.60330835068E+02  0.74470750000E+01 0. -1.
        -31    1    1    2    0    0 -0.17468663651E+00  0.93731443785E-01  0.59805175758E+02  0.60267381514E+02  0.74470750000E+01 0.  1.
<mgrwt>
<rscale>  0 0.14899429E+02</rscale>
<asrwt>0</asrwt>
<pdfrwt beam="1">  1        2 0.99719043E+00 0.14899429E+02</pdfrwt>
<pdfrwt beam="2">  1       -2 0.98121799E+00 0.14899429E+02</pdfrwt>
<totfact> 0.80504348E-13</totfact>
</mgrwt>
</event>
<event>
 4    1 -0.5167034E-019  0.1490179E+02  0.7818608E-02  0.1871080E+00
          2   -1    0    0  501    0  0.00000000000E+00  0.00000000000E+00  0.11826398930E+03  0.11826398932E+03  0.25500000000E-02 0. -1.
         -2   -1    0    0    0  501 -0.00000000000E+00 -0.00000000000E+00 -0.46941948608E+00  0.46942641213E+00  0.25500000000E-02 0.  1.
         31    1    1    2    0    0  0.22738233511E-01 -0.23160602079E+00  0.58479495166E+02  0.58952221665E+02  0.74470750000E+01 0. -1.
        -31    1    1    2    0    0 -0.22738233511E-01  0.23160602079E+00  0.59315074644E+02  0.59781194070E+02  0.74470750000E+01 0. -1.
<mgrwt>
<rscale>  0 0.14901790E+02</rscale>
<asrwt>0</asrwt>
<pdfrwt beam="1">  1        2 0.98177095E+00 0.14901790E+02</pdfrwt>
<pdfrwt beam="2">  1       -2 0.99694469E+00 0.14901790E+02</pdfrwt>
<totfact>-0.48302310E-13</totfact>
</mgrwt>
</event>
<event>
 4    1  0.5167034E-019  0.1493497E+02  0.7818608E-02  0.1870059E+00
         -2   -1    0    0    0  501 -0.00000000000E+00  0.00000000000E+00  0.11862432592E+03  0.11862432595E+03  0.25500000000E-02 0.  1.
          2   -1    0    0  501    0  0.00000000000E+00 -0.00000000000E+00 -0.47007979852E+00  0.47008671485E+00  0.25500000000E-02 0. -1.
         31    1    1    2    0    0  0.40438977048E+00  0.30250283998E+00  0.60848537247E+02  0.61304636450E+02  0.74470750000E+01 0.  1.
        -31    1    1    2    0    0 -0.40438977048E+00 -0.30250283998E+00  0.57305708875E+02  0.57789776213E+02  0.74470750000E+01 0.  1.
<mgrwt>
<rscale>  0 0.14934967E+02</rscale>
<asrwt>0</asrwt>
<pdfrwt beam="2">  1        2 0.99835348E+00 0.14934967E+02</pdfrwt>
<pdfrwt beam="1">  1       -2 0.98475593E+00 0.14934967E+02</pdfrwt>
<totfact> 0.24395537E-13</totfact>
</mgrwt>
</event>
<event>
 4    1 -0.5167034E-019  0.1493266E+02  0.7818608E-02  0.1870130E+00
          2   -1    0    0  501    0  0.00000000000E+00  0.00000000000E+00  0.11883393855E+03  0.11883393858E+03  0.25500000000E-02 0.  1.
         -2   -1    0    0    0  501 -0.00000000000E+00 -0.00000000000E+00 -0.46910552709E+00  0.46911245779E+00  0.25500000000E-02 0. -1.
         31    1    1    2    0    0  0.80011462316E-02  0.38896944854E+00  0.62126434970E+02  0.62572391751E+02  0.74470750000E+01 0.  1.
        -31    1    1    2    0    0 -0.80011462316E-02 -0.38896944854E+00  0.56238398053E+02  0.56730659285E+02  0.74470750000E+01 0. -1.
<mgrwt>
<rscale>  0 0.14932658E+02</rscale>
<asrwt>0</asrwt>
<pdfrwt beam="1">  1        2 0.98648110E+00 0.14932658E+02</pdfrwt>
<pdfrwt beam="2">  1       -2 0.99629943E+00 0.14932658E+02</pdfrwt>
<totfact>-0.24935356E-13</totfact>
</mgrwt>
</event>
<event>
 4    1  0.5167034E-019  0.1493705E+02  0.7818608E-02  0.1869995E+00
          2   -1    0    0  501    0  0.00000000000E+00  0.00000000000E+00  0.11991523445E+03  0.11991523448E+03  0.25500000000E-02 0. -1.
         -2   -1    0    0    0  501 -0.00000000000E+00 -0.00000000000E+00 -0.46514906665E+00  0.46515605629E+00  0.25500000000E-02 0.  1.
         31    1    1    2    0    0 -0.15340670108E+00  0.11849274274E+00  0.64007657243E+02  0.64439713577E+02  0.74470750000E+01 0. -1.
        -31    1    1    2    0    0  0.15340670108E+00 -0.11849274274E+00  0.55442428145E+02  0.55940676961E+02  0.74470750000E+01 0.  1.
<mgrwt>
<rscale>  0 0.14937052E+02</rscale>
<asrwt>0</asrwt>
<pdfrwt beam="1">  1        2 0.99538929E+00 0.14937052E+02</pdfrwt>
<pdfrwt beam="2">  1       -2 0.98796421E+00 0.14937052E+02</pdfrwt>
<totfact> 0.14795442E-13</totfact>
</mgrwt>
</event>
<event>
 4    1  0.5167034E-019  0.1491280E+02  0.7818608E-02  0.1870741E+00
         -2   -1    0    0    0  501 -0.00000000000E+00  0.00000000000E+00  0.11857300080E+03  0.11857300083E+03  0.25500000000E-02 0. -1.
          2   -1    0    0  501    0  0.00000000000E+00 -0.00000000000E+00 -0.46888826610E+00  0.46889520001E+00  0.25500000000E-02 0.  1.
         31    1    1    2    0    0 -0.13607546890E-01 -0.15515034164E-01  0.56080761662E+02  0.56573060554E+02  0.74470750000E+01 0.  1.
        -31    1    1    2    0    0  0.13607546890E-01  0.15515034164E-01  0.62023350871E+02  0.62468835472E+02  0.74470750000E+01 0. -1.
<mgrwt>
<rscale>  0 0.14912800E+02</rscale>
<asrwt>0</asrwt>
<pdfrwt beam="2">  1        2 0.99583121E+00 0.14912800E+02</pdfrwt>
<pdfrwt beam="1">  1       -2 0.98432169E+00 0.14912800E+02</pdfrwt>
<totfact> 0.52738242E-13</totfact>
</mgrwt>
</event>
<event>
 4    1 -0.5167034E-019  0.1501833E+02  0.7818608E-02  0.1867510E+00
         -2   -1    0    0    0  501 -0.00000000000E+00  0.00000000000E+00  0.12004065261E+03  0.12004065264E+03  0.25500000000E-02 0. -1.
          2   -1    0    0  501    0  0.00000000000E+00 -0.00000000000E+00 -0.46973353653E+00  0.46974045796E+00  0.25500000000E-02 0.  1.
         31    1    1    2    0    0  0.86704213366E+00  0.26959487116E+00  0.57195618406E+02  0.57685545281E+02  0.74470750000E+01 0.  1.
        -31    1    1    2    0    0 -0.86704213366E+00 -0.26959487116E+00  0.62375300667E+02  0.62824847814E+02  0.74470750000E+01 0. -1.
<mgrwt>
<rscale>  0 0.15018327E+02</rscale>
<asrwt>0</asrwt>
<pdfrwt beam="2">  1        2 0.99766743E+00 0.15018327E+02</pdfrwt>
<pdfrwt beam="1">  1       -2 0.99646425E+00 0.15018327E+02</pdfrwt>
<totfact>-0.65088884E-14</totfact>
</mgrwt>
</event>
<event>
 4    1 -0.5167034E-019  0.1489516E+02  0.7818608E-02  0.1871285E+00
          2   -1    0    0  501    0  0.00000000000E+00  0.00000000000E+00  0.11796961337E+03  0.11796961339E+03  0.25500000000E-02 0. -1.
         -2   -1    0    0    0  501 -0.00000000000E+00 -0.00000000000E+00 -0.47017242829E+00  0.47017934326E+00  0.25500000000E-02 0.  1.
         31    1    1    2    0    0  0.44889479275E-01 -0.46595133284E-02  0.59339846532E+02  0.59805337130E+02  0.74470750000E+01 0.  1.
        -31    1    1    2    0    0 -0.44889479275E-01  0.46595133284E-02  0.58159594406E+02  0.58634455606E+02  0.74470750000E+01 0.  1.
<mgrwt>
<rscale>  0 0.14895163E+02</rscale>
<asrwt>0</asrwt>
<pdfrwt beam="1">  1        2 0.97934307E+00 0.14895163E+02</pdfrwt>
<pdfrwt beam="2">  1       -2 0.99852755E+00 0.14895163E+02</pdfrwt>
<totfact>-0.40933958E-13</totfact>
</mgrwt>
</event>
<event>
 4    1 -0.5167034E-019  0.1498375E+02  0.7818608E-02  0.1868565E+00
         -2   -1    0    0    0  501 -0.00000000000E+00  0.00000000000E+00  0.12019040602E+03  0.12019040605E+03  0.25500000000E-02 0.  1.
          2   -1    0    0  501    0  0.00000000000E+00 -0.00000000000E+00 -0.46699071777E+00  0.46699767984E+00  0.25500000000E-02 0. -1.
         31    1    1    2    0    0 -0.46875535959E+00 -0.30433518522E-01  0.65255362859E+02  0.65680605704E+02  0.74470750000E+01 0.  1.
        -31    1    1    2    0    0  0.46875535959E+00  0.30433518522E-01  0.54468052442E+02  0.54976798021E+02  0.74470750000E+01 0. -1.
<mgrwt>
<rscale>  0 0.14983755E+02</rscale>
<asrwt>0</asrwt>
<pdfrwt beam="2">  1        2 0.99186941E+00 0.14983755E+02</pdfrwt>
<pdfrwt beam="1">  1       -2 0.99767983E+00 0.14983755E+02</pdfrwt>
<totfact>-0.10205292E-13</totfact>
</mgrwt>
</event>
<event>
 4    1 -0.5167034E-019  0.1492998E+02  0.7818608E-02  0.1870213E+00
         -2   -1    0    0    0  501 -0.00000000000E+00  0.00000000000E+00  0.11959102448E+03  0.11959102451E+03  0.25500000000E-02 0.  1.
          2   -1    0    0  501    0  0.00000000000E+00 -0.00000000000E+00 -0.46596870696E+00  0.46597568431E+00  0.25500000000E-02 0. -1.
         31    1    1    2    0    0  0.10678321622E+00  0.26277855796E+00  0.63037224558E+02  0.63476224378E+02  0.74470750000E+01 0.  1.
        -31    1    1    2    0    0 -0.10678321622E+00 -0.26277855796E+00  0.56087831219E+02  0.56580775818E+02  0.74470750000E+01 0. -1.
<mgrwt>
<rscale>  0 0.14929983E+02</rscale>
<asrwt>0</asrwt>
<pdfrwt beam="2">  1        2 0.98968795E+00 0.14929983E+02</pdfrwt>
<pdfrwt beam="1">  1       -2 0.99271528E+00 0.14929983E+02</pdfrwt>
<totfact>-0.15077950E-13</totfact>
</mgrwt>
</event>
<event>
 4    1 -0.5167034E-019  0.1493830E+02  0.7818608E-02  0.1869957E+00
         -2   -1    0    0    0  501 -0.00000000000E+00  0.00000000000E+00  0.11970996045E+03  0.11970996048E+03  0.25500000000E-02 0.  1.
          2   -1    0    0  501    0  0.00000000000E+00 -0.00000000000E+00 -0.46602465822E+00  0.46603163473E+00  0.25500000000E-02 0. -1.
         31    1    1    2    0    0  0.20967515934E+00 -0.46281250874E+00  0.57476410533E+02  0.57959079124E+02  0.74470750000E+01 0. -1.
        -31    1    1    2    0    0 -0.20967515934E+00  0.46281250874E+00  0.61767525259E+02  0.62216912988E+02  0.74470750000E+01 0.  1.
<mgrwt>
<rscale>  0 0.14938302E+02</rscale>
<asrwt>0</asrwt>
<pdfrwt beam="2">  1        2 0.98981015E+00 0.14938302E+02</pdfrwt>
<pdfrwt beam="1">  1       -2 0.99369919E+00 0.14938302E+02</pdfrwt>
<totfact>-0.17370255E-13</totfact>
</mgrwt>
</event>
<event>
 4    1 -0.5167034E-019  0.1497397E+02  0.7818608E-02  0.1868864E+00
          2   -1    0    0  501    0  0.00000000000E+00  0.00000000000E+00  0.11957195936E+03  0.11957195939E+03  0.25500000000E-02 0.  1.
         -2   -1    0    0    0  501 -0.00000000000E+00 -0.00000000000E+00 -0.46879317903E+00  0.46880011434E+00  0.25500000000E-02 0. -1.
         31    1    1    2    0    0 -0.51730404937E-01 -0.23702147371E+00  0.53676123431E+02  0.54190811101E+02  0.74470750000E+01 0. -1.
        -31    1    1    2    0    0  0.51730404937E-01  0.23702147371E+00  0.65427042753E+02  0.65849948403E+02  0.74470750000E+01 0.  1.
<mgrwt>
<rscale>  0 0.14973969E+02</rscale>
<asrwt>0</asrwt>
<pdfrwt beam="1">  1        2 0.99258099E+00 0.14973969E+02</pdfrwt>
<pdfrwt beam="2">  1       -2 0.99566282E+00 0.14973969E+02</pdfrwt>
<totfact>-0.14050538E-13</totfact>
</mgrwt>
</event>
<event>
 4    1 -0.5167034E-019  0.1492295E+02  0.7818608E-02  0.1870429E+00
         -2   -1    0    0    0  501 -0.00000000000E+00  0.00000000000E+00  0.12004867642E+03  0.12004867644E+03  0.25500000000E-02 0.  1.
          2   -1    0    0  501    0  0.00000000000E+00 -0.00000000000E+00 -0.46375484309E+00  0.46376185374E+00  0.25500000000E-02 0. -1.
         31    1    1    2    0    0  0.89060987593E-01  0.53168761817E-01  0.56145930033E+02  0.56637753699E+02  0.74470750000E+01 0. -1.
        -31    1    1    2    0    0 -0.89060987593E-01 -0.53168761817E-01  0.63438991541E+02  0.63874684599E+02  0.74470750000E+01 0.  1.
<mgrwt>
<rscale>  0 0.14922946E+02</rscale>
<asrwt>0</asrwt>
<pdfrwt beam="2">  1        2 0.98501859E+00 0.14922946E+02</pdfrwt>
<pdfrwt beam="1">  1       -2 0.99648116E+00 0.14922946E+02</pdfrwt>
<totfact>-0.30502652E-13</totfact>
</mgrwt>
</event>
<event>
 4    1  0.5167034E-019  0.1491001E+02  0.7818608E-02  0.1870827E+00
          2   -1    0    0  501    0  0.00000000000E+00  0.00000000000E+00  0.11989063040E+03  0.11989063043E+03  0.25500000000E-02 0.  1.
         -2   -1    0    0    0  501 -0.00000000000E+00 -0.00000000000E+00 -0.46356121469E+00  0.46356822827E+00  0.25500000000E-02 0. -1.
         31    1    1    2    0    0 -0.85861078910E-01 -0.11610681626E-02  0.62400087040E+02  0.62842956345E+02  0.74470750000E+01 0. -1.
        -31    1    1    2    0    0  0.85861078910E-01  0.11610681626E-02  0.57026982143E+02  0.57511242309E+02  0.74470750000E+01 0. -1.
<mgrwt>
<rscale>  0 0.14910006E+02</rscale>
<asrwt>0</asrwt>
<pdfrwt beam="1">  1        2 0.99517272E+00 0.14910006E+02</pdfrwt>
<pdfrwt beam="2">  1       -2 0.98460392E+00 0.14910006E+02</pdfrwt>
<totfact> 0.53072640E-13</totfact>
</mgrwt>
</event>
<event>
 4    1 -0.5167034E-019  0.1494372E+02  0.7818608E-02  0.1869791E+00
          2   -1    0    0  501    0  0.00000000000E+00  0.00000000000E+00  0.11912514094E+03  0.11912514096E+03  0.25500000000E-02 0. -1.
         -2   -1    0    0    0  501 -0.00000000000E+00 -0.00000000000E+00 -0.46865256560E+00  0.46865950299E+00  0.25500000000E-02 0.  1.
         31    1    1    2    0    0  0.25246399927E+00 -0.50925239318E+00  0.57598473433E+02  0.58080686497E+02  0.74470750000E+01 0.  1.
        -31    1    1    2    0    0 -0.25246399927E+00  0.50925239318E+00  0.61058014936E+02  0.61513113968E+02  0.74470750000E+01 0. -1.
<mgrwt>
<rscale>  0 0.14943724E+02</rscale>
<asrwt>0</asrwt>
<pdfrwt beam="1">  1        2 0.98888522E+00 0.14943724E+02</pdfrwt>
<pdfrwt beam="2">  1       -2 0.99535077E+00 0.14943724E+02</pdfrwt>
<totfact>-0.19806896E-13</totfact>
</mgrwt>
</event>
<event>
 4    1 -0.5167034E-019  0.1498071E+02  0.7818608E-02  0.1868658E+00
          2   -1    0    0  501    0  0.00000000000E+00  0.00000000000E+00  0.11954001598E+03  0.11954001601E+03  0.25500000000E-02 0. -1.
         -2   -1    0    0    0  501 -0.00000000000E+00 -0.00000000000E+00 -0.46934053021E+00  0.46934745744E+00  0.25500000000E-02 0.  1.
         31    1    1    2    0    0  0.21636020982E+00  0.73255643628E-01  0.65710966317E+02  0.66132005855E+02  0.74470750000E+01 0. -1.
        -31    1    1    2    0    0 -0.21636020982E+00 -0.73255643628E-01  0.53359709133E+02  0.53877357610E+02  0.74470750000E+01 0.  1.
<mgrwt>
<rscale>  0 0.14980706E+02</rscale>
<asrwt>0</asrwt>
<pdfrwt beam="1">  1        2 0.99232138E+00 0.14980706E+02</pdfrwt>
<pdfrwt beam="2">  1       -2 0.99681973E+00 0.14980706E+02</pdfrwt>
<totfact>-0.12291592E-13</totfact>
</mgrwt>
</event>
<event>
 4    1 -0.5167034E-019  0.1500701E+02  0.7818608E-02  0.1867855E+00
         -2   -1    0    0    0  501 -0.00000000000E+00  0.00000000000E+00  0.11996637867E+03  0.11996637870E+03  0.25500000000E-02 0.  1.
          2   -1    0    0  501    0  0.00000000000E+00 -0.00000000000E+00 -0.46931625991E+00  0.46932318749E+00  0.25500000000E-02 0. -1.
         31    1    1    2    0    0 -0.66363515063E+00  0.35238023581E+00  0.63988147456E+02  0.64424424905E+02  0.74470750000E+01 0.  1.
        -31    1    1    2    0    0  0.66363515063E+00 -0.35238023581E+00  0.55508914959E+02  0.56011276984E+02  0.74470750000E+01 0. -1.
<mgrwt>
<rscale>  0 0.15007010E+02</rscale>
<asrwt>0</asrwt>
<pdfrwt beam="2">  1        2 0.99678224E+00 0.15007010E+02</pdfrwt>
<pdfrwt beam="1">  1       -2 0.99584665E+00 0.15007010E+02</pdfrwt>
<totfact>-0.87915411E-14</totfact>
</mgrwt>
</event>
<event>
 4    1 -0.5167034E-019  0.1498454E+02  0.7818608E-02  0.1868541E+00
          2   -1    0    0  501    0  0.00000000000E+00  0.00000000000E+00  0.11960492302E+03  0.11960492305E+03  0.25500000000E-02 0. -1.
         -2   -1    0    0    0  501 -0.00000000000E+00 -0.00000000000E+00 -0.46932587935E+00  0.46933280678E+00  0.25500000000E-02 0.  1.
         31    1    1    2    0    0 -0.40549976537E+00 -0.57847903060E+00  0.56205026622E+02  0.56700643838E+02  0.74470750000E+01 0.  1.
        -31    1    1    2    0    0  0.40549976537E+00  0.57847903060E+00  0.62930570521E+02  0.63373612018E+02  0.74470750000E+01 0.  1.
<mgrwt>
<rscale>  0 0.14984539E+02</rscale>
<asrwt>0</asrwt>
<pdfrwt beam="1">  1        2 0.99285796E+00 0.14984539E+02</pdfrwt>
<pdfrwt beam="2">  1       -2 0.99679085E+00 0.14984539E+02</pdfrwt>
<totfact>-0.11894168E-13</totfact>
</mgrwt>
</event>
<event>
 4    1 -0.5167034E-019  0.1497430E+02  0.7818608E-02  0.1868854E+00
         -2   -1    0    0    0  501 -0.00000000000E+00  0.00000000000E+00  0.11998270753E+03  0.11998270755E+03  0.25500000000E-02 0.  1.
          2   -1    0    0  501    0  0.00000000000E+00 -0.00000000000E+00 -0.46720913686E+00  0.46721609568E+00  0.25500000000E-02 0. -1.
         31    1    1    2    0    0  0.24060390556E+00  0.73385857641E+00  0.60124005502E+02  0.60588376792E+02  0.74470750000E+01 0.  1.
        -31    1    1    2    0    0 -0.24060390556E+00 -0.73385857641E+00  0.59391492889E+02  0.59861546858E+02  0.74470750000E+01 0. -1.
<mgrwt>
<rscale>  0 0.14974303E+02</rscale>
<asrwt>0</asrwt>
<pdfrwt beam="2">  1        2 0.99232486E+00 0.14974303E+02</pdfrwt>
<pdfrwt beam="1">  1       -2 0.99596424E+00 0.14974303E+02</pdfrwt>
<totfact>-0.13926786E-13</totfact>
</mgrwt>
</event>
<event>
 4    1 -0.5167034E-019  0.1498194E+02  0.7818608E-02  0.1868620E+00
          2   -1    0    0  501    0  0.00000000000E+00  0.00000000000E+00  0.11938731311E+03  0.11938731314E+03  0.25500000000E-02 0.  1.
         -2   -1    0    0    0  501 -0.00000000000E+00 -0.00000000000E+00 -0.47001819451E+00  0.47002511174E+00  0.25500000000E-02 0. -1.
         31    1    1    2    0    0  0.48537867757E+00  0.60966447465E+00  0.57698325415E+02  0.58182153320E+02  0.74470750000E+01 0.  1.
        -31    1    1    2    0    0 -0.48537867757E+00 -0.60966447465E+00  0.61218969500E+02  0.61675184929E+02  0.74470750000E+01 0. -1.
<mgrwt>
<rscale>  0 0.14981939E+02</rscale>
<asrwt>0</asrwt>
<pdfrwt beam="1">  1        2 0.99106433E+00 0.14981939E+02</pdfrwt>
<pdfrwt beam="2">  1       -2 0.99824834E+00 0.14981939E+02</pdfrwt>
<totfact>-0.86708672E-14</totfact>
</mgrwt>
</event>
<event>
 4    1 -0.5167034E-019  0.1499414E+02  0.7818608E-02  0.1868247E+00
          2   -1    0    0  501    0  0.00000000000E+00  0.00000000000E+00  0.12018508987E+03  0.12018508990E+03  0.25500000000E-02 0.  1.
         -2   -1    0    0    0  501 -0.00000000000E+00 -0.00000000000E+00 -0.46765917231E+00  0.46766612444E+00  0.25500000000E-02 0. -1.
         31    1    1    2    0    0  0.58516260736E+00 -0.56468771057E+00  0.62216635493E+02  0.62666019066E+02  0.74470750000E+01 0.  1.
        -31    1    1    2    0    0 -0.58516260736E+00  0.56468771057E+00  0.57500795203E+02  0.57986736954E+02  0.74470750000E+01 0. -1.
<mgrwt>
<rscale>  0 0.14994143E+02</rscale>
<asrwt>0</asrwt>
<pdfrwt beam="1">  1        2 0.99764140E+00 0.14994143E+02</pdfrwt>
<pdfrwt beam="2">  1       -2 0.99328348E+00 0.14994143E+02</pdfrwt>
<totfact>-0.67455925E-14</totfact>
</mgrwt>
</event>
<event>
 4    1 -0.5167034E-019  0.1496103E+02  0.7818608E-02  0.1869260E+00
          2   -1    0    0  501    0  0.00000000000E+00  0.00000000000E+00  0.11987443536E+03  0.11987443539E+03  0.25500000000E-02 0. -1.
         -2   -1    0    0    0  501 -0.00000000000E+00 -0.00000000000E+00 -0.46680249792E+00  0.46680946281E+00  0.25500000000E-02 0.  1.
         31    1    1    2    0    0  0.50196113412E+00 -0.39197995834E+00  0.57243364190E+02  0.57729258467E+02  0.74470750000E+01 0.  1.
        -31    1    1    2    0    0 -0.50196113412E+00  0.39197995834E+00  0.62164268674E+02  0.62611986385E+02  0.74470750000E+01 0. -1.
<mgrwt>
<rscale>  0 0.14961030E+02</rscale>
<asrwt>0</asrwt>
<pdfrwt beam="1">  1        2 0.99506561E+00 0.14961030E+02</pdfrwt>
<pdfrwt beam="2">  1       -2 0.99146108E+00 0.14961030E+02</pdfrwt>
<totfact>-0.59993528E-14</totfact>
</mgrwt>
</event>
<event>
 4    1  0.5167034E-019  0.1489660E+02  0.7818608E-02  0.1871240E+00
         -2   -1    0    0    0  501 -0.00000000000E+00  0.00000000000E+00  0.11824792152E+03  0.11824792155E+03  0.25500000000E-02 0.  1.
          2   -1    0    0  501    0  0.00000000000E+00 -0.00000000000E+00 -0.46915654964E+00  0.46916347958E+00  0.25500000000E-02 0. -1.
         31    1    1    2    0    0 -0.10374204958E+00  0.84149977927E-01  0.58724094588E+02  0.59194561025E+02  0.74470750000E+01 0.  1.
        -31    1    1    2    0    0  0.10374204958E+00 -0.84149977927E-01  0.59054670386E+02  0.59522524007E+02  0.74470750000E+01 0. -1.
<mgrwt>
<rscale>  0 0.14896604E+02</rscale>
<asrwt>0</asrwt>
<pdfrwt beam="2">  1        2 0.99638795E+00 0.14896604E+02</pdfrwt>
<pdfrwt beam="1">  1       -2 0.98163592E+00 0.14896604E+02</pdfrwt>
<totfact> 0.87713028E-13</totfact>
</mgrwt>
</event>
<event>
 4    1 -0.5167034E-019  0.1498981E+02  0.7818608E-02  0.1868380E+00
          2   -1    0    0  501    0  0.00000000000E+00  0.00000000000E+00  0.11978534883E+03  0.11978534885E+03  0.25500000000E-02 0. -1.
         -2   -1    0    0    0  501 -0.00000000000E+00 -0.00000000000E+00 -0.46894843069E+00  0.46895536371E+00  0.25500000000E-02 0.  1.
         31    1    1    2    0    0 -0.48702216062E+00 -0.67940008487E+00  0.60668791858E+02  0.61129861824E+02  0.74470750000E+01 0.  1.
        -31    1    1    2    0    0  0.48702216062E+00  0.67940008487E+00  0.58647608537E+02  0.59124442392E+02  0.74470750000E+01 0. -1.
<mgrwt>
<rscale>  0 0.14989806E+02</rscale>
<asrwt>0</asrwt>
<pdfrwt beam="1">  1        2 0.99434672E+00 0.14989806E+02</pdfrwt>
<pdfrwt beam="2">  1       -2 0.99599820E+00 0.14989806E+02</pdfrwt>
<totfact>-0.11910083E-13</totfact>
</mgrwt>
</event>
<event>
 4    1 -0.5167034E-019  0.1499734E+02  0.7818608E-02  0.1868150E+00
         -2   -1    0    0    0  501 -0.00000000000E+00  0.00000000000E+00  0.12040042186E+03  0.12040042189E+03  0.25500000000E-02 0. -1.
          2   -1    0    0  501    0  0.00000000000E+00 -0.00000000000E+00 -0.46702188063E+00  0.46702884225E+00  0.25500000000E-02 0.  1.
         31    1    1    2    0    0  0.25658123715E+00 -0.54106961400E-01  0.66720946912E+02  0.67135776188E+02  0.74470750000E+01 0. -1.
        -31    1    1    2    0    0 -0.25658123715E+00  0.54106961400E-01  0.53212453073E+02  0.53731674546E+02  0.74470750000E+01 0.  1.
<mgrwt>
<rscale>  0 0.14997340E+02</rscale>
<asrwt>0</asrwt>
<pdfrwt beam="2">  1        2 0.99194203E+00 0.14997340E+02</pdfrwt>
<pdfrwt beam="1">  1       -2 0.99941665E+00 0.14997340E+02</pdfrwt>
<totfact>-0.29816982E-14</totfact>
</mgrwt>
</event>
<event>
 4    1 -0.5167034E-019  0.1491569E+02  0.7818608E-02  0.1870652E+00
         -2   -1    0    0    0  501 -0.00000000000E+00  0.00000000000E+00  0.11968092295E+03  0.11968092297E+03  0.25500000000E-02 0.  1.
          2   -1    0    0  501    0  0.00000000000E+00 -0.00000000000E+00 -0.46472790013E+00  0.46473489611E+00  0.25500000000E-02 0. -1.
         31    1    1    2    0    0  0.37493489641E+00 -0.11515688044E-01  0.58473200397E+02  0.58946711524E+02  0.74470750000E+01 0.  1.
        -31    1    1    2    0    0 -0.37493489641E+00  0.11515688044E-01  0.60742994651E+02  0.61198946347E+02  0.74470750000E+01 0.  1.
<mgrwt>
<rscale>  0 0.14915695E+02</rscale>
<asrwt>0</asrwt>
<pdfrwt beam="2">  1        2 0.98706567E+00 0.14915695E+02</pdfrwt>
<pdfrwt beam="1">  1       -2 0.99344836E+00 0.14915695E+02</pdfrwt>
<totfact>-0.23521583E-13</totfact>
</mgrwt>
</event>
<event>
 4    1  0.5167034E-019  0.1491530E+02  0.7818608E-02  0.1870664E+00
         -2   -1    0    0    0  501 -0.00000000000E+00  0.00000000000E+00  0.11865337562E+03  0.11865337565E+03  0.25500000000E-02 0.  1.
          2   -1    0    0  501    0  0.00000000000E+00 -0.00000000000E+00 -0.46872791103E+00  0.46873484731E+00  0.25500000000E-02 0. -1.
         31    1    1    2    0    0  0.37789901199E+00 -0.12150022728E+00  0.59158004629E+02  0.59626219130E+02  0.74470750000E+01 0.  1.
        -31    1    1    2    0    0 -0.37789901199E+00  0.12150022728E+00  0.59026643082E+02  0.59495891367E+02  0.74470750000E+01 0. -1.
<mgrwt>
<rscale>  0 0.14915303E+02</rscale>
<asrwt>0</asrwt>
<pdfrwt beam="2">  1        2 0.99549465E+00 0.14915303E+02</pdfrwt>
<pdfrwt beam="1">  1       -2 0.98498496E+00 0.14915303E+02</pdfrwt>
<totfact> 0.46069838E-13</totfact>
</mgrwt>
</event>
<event>
 4    1 -0.5167034E-019  0.1496363E+02  0.7818608E-02  0.1869180E+00
         -2   -1    0    0    0  501 -0.00000000000E+00  0.00000000000E+00  0.11949351945E+03  0.11949351948E+03  0.25500000000E-02 0. -1.
          2   -1    0    0  501    0  0.00000000000E+00 -0.00000000000E+00 -0.46845314584E+00  0.46846008618E+00  0.25500000000E-02 0.  1.
         31    1    1    2    0    0 -0.52845055066E+00  0.47917499625E+00  0.60303663920E+02  0.60765941751E+02  0.74470750000E+01 0. -1.
        -31    1    1    2    0    0  0.52845055066E+00 -0.47917499625E+00  0.58721402386E+02  0.59196037814E+02  0.74470750000E+01 0. -1.
<mgrwt>
<rscale>  0 0.14963627E+02</rscale>
<asrwt>0</asrwt>
<pdfrwt beam="2">  1        2 0.99494091E+00 0.14963627E+02</pdfrwt>
<pdfrwt beam="1">  1       -2 0.99192958E+00 0.14963627E+02</pdfrwt>
<totfact>-0.77043998E-14</totfact>
</mgrwt>
</event>
<event>
 4    1  0.5167034E-019  0.1492805E+02  0.7818608E-02  0.1870272E+00
          2   -1    0    0  501    0  0.00000000000E+00  0.00000000000E+00  0.12000149090E+03  0.12000149092E+03  0.25500000000E-02 0. -1.
         -2   -1    0    0    0  501 -0.00000000000E+00 -0.00000000000E+00 -0.46425444022E+00  0.46426144333E+00  0.25500000000E-02 0.  1.
         31    1    1    2    0    0 -0.17894103708E+00 -0.41652536364E+00  0.58015248668E+02  0.58493021099E+02  0.74470750000E+01 0. -1.
        -31    1    1    2    0    0  0.17894103708E+00  0.41652536364E+00  0.61521987787E+02  0.61972731266E+02  0.74470750000E+01 0.  1.
<mgrwt>
<rscale>  0 0.14928047E+02</rscale>
<asrwt>0</asrwt>
<pdfrwt beam="1">  1        2 0.99609513E+00 0.14928047E+02</pdfrwt>
<pdfrwt beam="2">  1       -2 0.98607414E+00 0.14928047E+02</pdfrwt>
<totfact> 0.30345523E-13</totfact>
</mgrwt>
</event>
<event>
 4    1 -0.5167034E-019  0.1497569E+02  0.7818608E-02  0.1868811E+00
          2   -1    0    0  501    0  0.00000000000E+00  0.00000000000E+00  0.11952291119E+03  0.11952291121E+03  0.25500000000E-02 0.  1.
         -2   -1    0    0    0  501 -0.00000000000E+00 -0.00000000000E+00 -0.46909337574E+00  0.46910030661E+00  0.25500000000E-02 0. -1.
         31    1    1    2    0    0  0.82171211719E-01  0.61651401590E+00  0.63302599530E+02  0.63742175010E+02  0.74470750000E+01 0.  1.
        -31    1    1    2    0    0 -0.82171211719E-01 -0.61651401590E+00  0.55751218281E+02  0.56249836511E+02  0.74470750000E+01 0. -1.
<mgrwt>
<rscale>  0 0.14975690E+02</rscale>
<asrwt>0</asrwt>
<pdfrwt beam="1">  1        2 0.99217791E+00 0.14975690E+02</pdfrwt>
<pdfrwt beam="2">  1       -2 0.99629631E+00 0.14975690E+02</pdfrwt>
<totfact>-0.13528024E-13</totfact>
</mgrwt>
</event>
<event>
 4    1  0.5167034E-019  0.1490260E+02  0.7818608E-02  0.1871055E+00
          2   -1    0    0  501    0  0.00000000000E+00  0.00000000000E+00  0.11960979004E+03  0.11960979007E+03  0.25500000000E-02 0.  1.
         -2   -1    0    0    0  501 -0.00000000000E+00 -0.00000000000E+00 -0.46418845904E+00  0.46419546314E+00  0.25500000000E-02 0. -1.
         31    1    1    2    0    0  0.24110815581E+00 -0.64658641312E-01  0.59780784799E+02  0.60243368690E+02  0.74470750000E+01 0.  1.
        -31    1    1    2    0    0 -0.24110815581E+00  0.64658641312E-01  0.59364816786E+02  0.59830616844E+02  0.74470750000E+01 0. -1.
<mgrwt>
<rscale>  0 0.14902605E+02</rscale>
<asrwt>0</asrwt>
<pdfrwt beam="1">  1        2 0.99285572E+00 0.14902605E+02</pdfrwt>
<pdfrwt beam="2">  1       -2 0.98592210E+00 0.14902605E+02</pdfrwt>
<totfact> 0.43669157E-13</totfact>
</mgrwt>
</event>
<event>
 4    1 -0.5167034E-019  0.1495154E+02  0.7818608E-02  0.1869551E+00
          2   -1    0    0  501    0  0.00000000000E+00  0.00000000000E+00  0.11911030193E+03  0.11911030196E+03  0.25500000000E-02 0. -1.
         -2   -1    0    0    0  501 -0.00000000000E+00 -0.00000000000E+00 -0.46920130070E+00  0.46920822998E+00  0.25500000000E-02 0.  1.
         31    1    1    2    0    0  0.46011889069E+00  0.46488585511E+00  0.59166663840E+02  0.59637076255E+02  0.74470750000E+01 0.  1.
        -31    1    1    2    0    0 -0.46011889069E+00 -0.46488585511E+00  0.59474436794E+02  0.59942433937E+02  0.74470750000E+01 0.  1.
<mgrwt>
<rscale>  0 0.14951538E+02</rscale>
<asrwt>0</asrwt>
<pdfrwt beam="1">  1        2 0.98876706E+00 0.14951538E+02</pdfrwt>
<pdfrwt beam="2">  1       -2 0.99651113E+00 0.14951538E+02</pdfrwt>
<totfact>-0.17837014E-13</totfact>
</mgrwt>
</event>
<event>
 4    1 -0.5167034E-019  0.1492648E+02  0.7818608E-02  0.1870320E+00
         -2   -1    0    0    0  501 -0.00000000000E+00  0.00000000000E+00  0.12014456834E+03  0.12014456837E+03  0.25500000000E-02 0. -1.
          2   -1    0    0  501    0  0.00000000000E+00 -0.00000000000E+00 -0.46360440864E+00  0.46361142157E+00  0.25500000000E-02 0.  1.
         31    1    1    2    0    0 -0.44886380232E+00 -0.44417517538E-01  0.58273716364E+02  0.58749369329E+02  0.74470750000E+01 0. -1.
        -31    1    1    2    0    0  0.44886380232E+00  0.44417517538E-01  0.61407247572E+02  0.61858810464E+02  0.74470750000E+01 0. -1.
<mgrwt>
<rscale>  0 0.14926483E+02</rscale>
<asrwt>0</asrwt>
<pdfrwt beam="2">  1        2 0.98470332E+00 0.14926483E+02</pdfrwt>
<pdfrwt beam="1">  1       -2 0.99727282E+00 0.14926483E+02</pdfrwt>
<totfact>-0.27365924E-13</totfact>
</mgrwt>
</event>
<event>
 4    1  0.5167034E-019  0.1490680E+02  0.7818608E-02  0.1870926E+00
         -2   -1    0    0    0  501 -0.00000000000E+00  0.00000000000E+00  0.11821102024E+03  0.11821102027E+03  0.25500000000E-02 0.  1.
          2   -1    0    0  501    0  0.00000000000E+00 -0.00000000000E+00 -0.46994548502E+00  0.46995240332E+00  0.25500000000E-02 0. -1.
         31    1    1    2    0    0 -0.49354822426E-01 -0.22462617636E+00  0.57252003552E+02  0.57734770542E+02  0.74470750000E+01 0. -1.
        -31    1    1    2    0    0  0.49354822426E-01  0.22462617636E+00  0.60489071206E+02  0.60946202131E+02  0.74470750000E+01 0.  1.
<mgrwt>
<rscale>  0 0.14906797E+02</rscale>
<asrwt>0</asrwt>
<pdfrwt beam="2">  1        2 0.99805559E+00 0.14906797E+02</pdfrwt>
<pdfrwt beam="1">  1       -2 0.98133732E+00 0.14906797E+02</pdfrwt>
<totfact> 0.59927919E-13</totfact>
</mgrwt>
</event>
<event>
 4    1 -0.5167034E-019  0.1494562E+02  0.7818608E-02  0.1869732E+00
         -2   -1    0    0    0  501 -0.00000000000E+00  0.00000000000E+00  0.11984548910E+03  0.11984548912E+03  0.25500000000E-02 0. -1.
          2   -1    0    0  501    0  0.00000000000E+00 -0.00000000000E+00 -0.46595391566E+00  0.46596089323E+00  0.25500000000E-02 0.  1.
         31    1    1    2    0    0 -0.36633806136E+00 -0.14170135228E+00  0.55831773373E+02  0.56327614248E+02  0.74470750000E+01 0.  1.
        -31    1    1    2    0    0  0.36633806136E+00  0.14170135228E+00  0.63547761810E+02  0.63983835770E+02  0.74470750000E+01 0. -1.
<mgrwt>
<rscale>  0 0.14945621E+02</rscale>
<asrwt>0</asrwt>
<pdfrwt beam="2">  1        2 0.98966482E+00 0.14945621E+02</pdfrwt>
<pdfrwt beam="1">  1       -2 0.99481925E+00 0.14945621E+02</pdfrwt>
<totfact>-0.18497398E-13</totfact>
</mgrwt>
</event>
<event>
 4    1 -0.5167034E-019  0.1490179E+02  0.7818608E-02  0.1871080E+00
         -2   -1    0    0    0  501 -0.00000000000E+00  0.00000000000E+00  0.12026043077E+03  0.12026043080E+03  0.25500000000E-02 0.  1.
          2   -1    0    0  501    0  0.00000000000E+00 -0.00000000000E+00 -0.46162683736E+00  0.46163388033E+00  0.25500000000E-02 0. -1.
         31    1    1    2    0    0  0.70311870941E-01  0.15375561417E+00  0.58535166114E+02  0.59007229918E+02  0.74470750000E+01 0. -1.
        -31    1    1    2    0    0 -0.70311870941E-01 -0.15375561417E+00  0.61263637821E+02  0.61714834762E+02  0.74470750000E+01 0.  1.
<mgrwt>
<rscale>  0 0.14901794E+02</rscale>
<asrwt>0</asrwt>
<pdfrwt beam="2">  1        2 0.98052268E+00 0.14901794E+02</pdfrwt>
<pdfrwt beam="1">  1       -2 0.99821450E+00 0.14901794E+02</pdfrwt>
<totfact>-0.39769067E-13</totfact>
</mgrwt>
</event>
<event>
 4    1 -0.5167034E-019  0.1500974E+02  0.7818608E-02  0.1867772E+00
          2   -1    0    0  501    0  0.00000000000E+00  0.00000000000E+00  0.12014484477E+03  0.12014484480E+03  0.25500000000E-02 0. -1.
         -2   -1    0    0    0  501 -0.00000000000E+00 -0.00000000000E+00 -0.46878940331E+00  0.46879633868E+00  0.25500000000E-02 0.  1.
         31    1    1    2    0    0  0.91767217587E+00  0.14457051577E+00  0.60104670125E+02  0.60571390274E+02  0.74470750000E+01 0. -1.
        -31    1    1    2    0    0 -0.91767217587E+00 -0.14457051577E+00  0.59571385245E+02  0.60042250865E+02  0.74470750000E+01 0.  1.
<mgrwt>
<rscale>  0 0.15009737E+02</rscale>
<asrwt>0</asrwt>
<pdfrwt beam="1">  1        2 0.99731797E+00 0.15009737E+02</pdfrwt>
<pdfrwt beam="2">  1       -2 0.99567337E+00 0.15009737E+02</pdfrwt>
<totfact>-0.78824778E-14</totfact>
</mgrwt>
</event>
<event>
 4    1  0.5167034E-019  0.1490709E+02  0.7818608E-02  0.1870917E+00
          2   -1    0    0  501    0  0.00000000000E+00  0.00000000000E+00  0.11987422567E+03  0.11987422570E+03  0.25500000000E-02 0.  1.
         -2   -1    0    0    0  501 -0.00000000000E+00 -0.00000000000E+00 -0.46344336224E+00  0.46345037761E+00  0.25500000000E-02 0. -1.
         31    1    1    2    0    0  0.23222340014E+00 -0.19986610138E+00  0.59298732949E+02  0.59765312093E+02  0.74470750000E+01 0.  1.
        -31    1    1    2    0    0 -0.23222340014E+00  0.19986610138E+00  0.60112049361E+02  0.60572363984E+02  0.74470750000E+01 0. -1.
<mgrwt>
<rscale>  0 0.14907091E+02</rscale>
<asrwt>0</asrwt>
<pdfrwt beam="1">  1        2 0.99503610E+00 0.14907091E+02</pdfrwt>
<pdfrwt beam="2">  1       -2 0.98435405E+00 0.14907091E+02</pdfrwt>
<totfact> 0.57501348E-13</totfact>
</mgrwt>
</event>
<event>
 4    1 -0.5167034E-019  0.1500687E+02  0.7818608E-02  0.1867859E+00
         -2   -1    0    0    0  501 -0.00000000000E+00  0.00000000000E+00  0.12007492877E+03  0.12007492880E+03  0.25500000000E-02 0. -1.
          2   -1    0    0  501    0  0.00000000000E+00 -0.00000000000E+00 -0.46888339500E+00  0.46889032897E+00  0.25500000000E-02 0.  1.
         31    1    1    2    0    0  0.70636567756E+00  0.51808617515E+00  0.57599284829E+02  0.58085315740E+02  0.74470750000E+01 0.  1.
        -31    1    1    2    0    0 -0.70636567756E+00 -0.51808617515E+00  0.62006760550E+02  0.62458503390E+02  0.74470750000E+01 0. -1.
<mgrwt>
<rscale>  0 0.15006873E+02</rscale>
<asrwt>0</asrwt>
<pdfrwt beam="2">  1        2 0.99586997E+00 0.15006873E+02</pdfrwt>
<pdfrwt beam="1">  1       -2 0.99674064E+00 0.15006873E+02</pdfrwt>
<totfact>-0.90714809E-14</totfact>
</mgrwt>
</event>
<event>
 4    1  0.5167034E-019  0.1493154E+02  0.7818608E-02  0.1870165E+00
         -2   -1    0    0    0  501 -0.00000000000E+00  0.00000000000E+00  0.11878640521E+03  0.11878640524E+03  0.25500000000E-02 0. -1.
          2   -1    0    0  501    0  0.00000000000E+00 -0.00000000000E+00 -0.46922270021E+00  0.46922962917E+00  0.25500000000E-02 0.  1.
         31    1    1    2    0    0 -0.39713730008E+00  0.16440760971E+00  0.56709632883E+02  0.57198130526E+02  0.74470750000E+01 0. -1.
        -31    1    1    2    0    0  0.39713730008E+00 -0.16440760971E+00  0.61607549629E+02  0.62057504343E+02  0.74470750000E+01 0. -1.
<mgrwt>
<rscale>  0 0.14931536E+02</rscale>
<asrwt>0</asrwt>
<pdfrwt beam="2">  1        2 0.99654573E+00 0.14931536E+02</pdfrwt>
<pdfrwt beam="1">  1       -2 0.98608903E+00 0.14931536E+02</pdfrwt>
<totfact> 0.28013157E-13</totfact>
</mgrwt>
</event>
<event>
 4    1 -0.5167034E-019  0.1501251E+02  0.7818608E-02  0.1867687E+00
          2   -1    0    0  501    0  0.00000000000E+00  0.00000000000E+00  0.12004301610E+03  0.12004301613E+03  0.25500000000E-02 0. -1.
         -2   -1    0    0    0  501 -0.00000000000E+00 -0.00000000000E+00 -0.46936048865E+00  0.46936741558E+00  0.25500000000E-02 0.  1.
         31    1    1    2    0    0 -0.10516725051E+00 -0.48762097098E+00  0.66189238694E+02  0.66608731255E+02  0.74470750000E+01 0. -1.
        -31    1    1    2    0    0  0.10516725051E+00  0.48762097098E+00  0.53384416916E+02  0.53903652287E+02  0.74470750000E+01 0.  1.
<mgrwt>
<rscale>  0 0.15012510E+02</rscale>
<asrwt>0</asrwt>
<pdfrwt beam="1">  1        2 0.99648071E+00 0.15012510E+02</pdfrwt>
<pdfrwt beam="2">  1       -2 0.99687829E+00 0.15012510E+02</pdfrwt>
<totfact>-0.80272964E-14</totfact>
</mgrwt>
</event>
<event>
 4    1 -0.5167034E-019  0.1498229E+02  0.7818608E-02  0.1868610E+00
          2   -1    0    0  501    0  0.00000000000E+00  0.00000000000E+00  0.11978710148E+03  0.11978710150E+03  0.25500000000E-02 0.  1.
         -2   -1    0    0    0  501 -0.00000000000E+00 -0.00000000000E+00 -0.46847118058E+00  0.46847812066E+00  0.25500000000E-02 0. -1.
         31    1    1    2    0    0  0.37398449424E+00  0.69767348181E+00  0.61088058359E+02  0.61545401232E+02  0.74470750000E+01 0. -1.
        -31    1    1    2    0    0 -0.37398449424E+00 -0.69767348181E+00  0.58230571936E+02  0.58710178391E+02  0.74470750000E+01 0. -1.
<mgrwt>
<rscale>  0 0.14982286E+02</rscale>
<asrwt>0</asrwt>
<pdfrwt beam="1">  1        2 0.99435727E+00 0.14982286E+02</pdfrwt>
<pdfrwt beam="2">  1       -2 0.99498859E+00 0.14982286E+02</pdfrwt>
<totfact>-0.12677273E-13</totfact>
</mgrwt>
</event>
<event>
 4    1  0.5167034E-019  0.1495881E+02  0.7818608E-02  0.1869328E+00
          2   -1    0    0  501    0  0.00000000000E+00  0.00000000000E+00  0.12040510506E+03  0.12040510509E+03  0.25500000000E-02 0. -1.
         -2   -1    0    0    0  501 -0.00000000000E+00 -0.00000000000E+00 -0.46460704718E+00  0.46461404498E+00  0.25500000000E-02 0.  1.
         31    1    1    2    0    0  0.20196287530E+00  0.65308215999E+00  0.58972306925E+02  0.59444589455E+02  0.74470750000E+01 0.  1.
        -31    1    1    2    0    0 -0.20196287530E+00 -0.65308215999E+00  0.60968191088E+02  0.61425129678E+02  0.74470750000E+01 0. -1.
<mgrwt>
<rscale>  0 0.14958808E+02</rscale>
<asrwt>0</asrwt>
<pdfrwt beam="1">  1        2 0.99943541E+00 0.14958808E+02</pdfrwt>
<pdfrwt beam="2">  1       -2 0.98683293E+00 0.14958808E+02</pdfrwt>
<totfact> 0.47828891E-14</totfact>
</mgrwt>
</event>
<event>
 4    1 -0.5167034E-019  0.1497837E+02  0.7818608E-02  0.1868729E+00
          2   -1    0    0  501    0  0.00000000000E+00  0.00000000000E+00  0.11997629524E+03  0.11997629527E+03  0.25500000000E-02 0.  1.
         -2   -1    0    0    0  501 -0.00000000000E+00 -0.00000000000E+00 -0.46748820014E+00  0.46749515481E+00  0.25500000000E-02 0. -1.
         31    1    1    2    0    0 -0.57303299208E+00 -0.54266215010E+00  0.59123916395E+02  0.59596302443E+02  0.74470750000E+01 0. -1.
        -31    1    1    2    0    0  0.57303299208E+00  0.54266215010E+00  0.60384890650E+02  0.60847487983E+02  0.74470750000E+01 0. -1.
<mgrwt>
<rscale>  0 0.14978374E+02</rscale>
<asrwt>0</asrwt>
<pdfrwt beam="1">  1        2 0.99591353E+00 0.14978374E+02</pdfrwt>
<pdfrwt beam="2">  1       -2 0.99291506E+00 0.14978374E+02</pdfrwt>
<totfact>-0.91234827E-14</totfact>
</mgrwt>
</event>
<event>
 4    1  0.5167034E-019  0.1492337E+02  0.7818608E-02  0.1870416E+00
          2   -1    0    0  501    0  0.00000000000E+00  0.00000000000E+00  0.12019076328E+03  0.12019076330E+03  0.25500000000E-02 0. -1.
         -2   -1    0    0    0  501 -0.00000000000E+00 -0.00000000000E+00 -0.46323267055E+00  0.46323968911E+00  0.25500000000E-02 0.  1.
         31    1    1    2    0    0 -0.20545585302E+00  0.36677390505E+00  0.61501872259E+02  0.61952529832E+02  0.74470750000E+01 0.  1.
        -31    1    1    2    0    0  0.20545585302E+00 -0.36677390505E+00  0.58225658347E+02  0.58701473161E+02  0.74470750000E+01 0.  1.
<mgrwt>
<rscale>  0 0.14923366E+02</rscale>
<asrwt>0</asrwt>
<pdfrwt beam="1">  1        2 0.99765171E+00 0.14923366E+02</pdfrwt>
<pdfrwt beam="2">  1       -2 0.98391824E+00 0.14923366E+02</pdfrwt>
<totfact> 0.39957881E-13</totfact>
</mgrwt>
</event>
<event>
 4    1 -0.5167034E-019  0.1490838E+02  0.7818608E-02  0.1870877E+00
          2   -1    0    0  501    0  0.00000000000E+00  0.00000000000E+00  0.11910492279E+03  0.11910492281E+03  0.25500000000E-02 0. -1.
         -2   -1    0    0    0  501 -0.00000000000E+00 -0.00000000000E+00 -0.46651774353E+00  0.46652471266E+00  0.25500000000E-02 0.  1.
         31    1    1    2    0    0  0.16867008861E+00 -0.85397813082E-01  0.57192511298E+02  0.57675627582E+02  0.74470750000E+01 0.  1.
        -31    1    1    2    0    0 -0.16867008861E+00  0.85397813082E-01  0.61445893745E+02  0.61895819944E+02  0.74470750000E+01 0. -1.
<mgrwt>
<rscale>  0 0.14908384E+02</rscale>
<asrwt>0</asrwt>
<pdfrwt beam="1">  1        2 0.98870039E+00 0.14908384E+02</pdfrwt>
<pdfrwt beam="2">  1       -2 0.99083381E+00 0.14908384E+02</pdfrwt>
<totfact>-0.59112055E-14</totfact>
</mgrwt>
</event>
<event>
 4    1 -0.5167034E-019  0.1496744E+02  0.7818608E-02  0.1869064E+00
         -2   -1    0    0    0  501 -0.00000000000E+00  0.00000000000E+00  0.12017416746E+03  0.12017416748E+03  0.25500000000E-02 0.  1.
          2   -1    0    0  501    0  0.00000000000E+00 -0.00000000000E+00 -0.46603710932E+00  0.46604408564E+00  0.25500000000E-02 0. -1.
         31    1    1    2    0    0 -0.46162037945E+00  0.56328406208E+00  0.60896782351E+02  0.61354766799E+02  0.74470750000E+01 0.  1.
        -31    1    1    2    0    0  0.46162037945E+00 -0.56328406208E+00  0.58811347996E+02  0.59285444769E+02  0.74470750000E+01 0.  1.
<mgrwt>
<rscale>  0 0.14967437E+02</rscale>
<asrwt>0</asrwt>
<pdfrwt beam="2">  1        2 0.98985132E+00 0.14967437E+02</pdfrwt>
<pdfrwt beam="1">  1       -2 0.99753768E+00 0.14967437E+02</pdfrwt>
<totfact>-0.12647180E-13</totfact>
</mgrwt>
</event>
<event>
 4    1 -0.5167034E-019  0.1491200E+02  0.7818608E-02  0.1870766E+00
          2   -1    0    0  501    0  0.00000000000E+00  0.00000000000E+00  0.11850899290E+03  0.11850899293E+03  0.25500000000E-02 0.  1.
         -2   -1    0    0    0  501 -0.00000000000E+00 -0.00000000000E+00 -0.46909109951E+00  0.46909803041E+00  0.25500000000E-02 0. -1.
         31    1    1    2    0    0  0.30606537041E+00  0.70872649161E-01  0.60497682139E+02  0.60955124224E+02  0.74470750000E+01 0. -1.
        -31    1    1    2    0    0 -0.30606537041E+00 -0.70872649161E-01  0.57542219660E+02  0.58022966733E+02  0.74470750000E+01 0. -1.
<mgrwt>
<rscale>  0 0.14911999E+02</rscale>
<asrwt>0</asrwt>
<pdfrwt beam="1">  1        2 0.98379410E+00 0.14911999E+02</pdfrwt>
<pdfrwt beam="2">  1       -2 0.99625817E+00 0.14911999E+02</pdfrwt>
<totfact>-0.38547257E-13</totfact>
</mgrwt>
</event>
<event>
 4    1 -0.5167034E-019  0.1497671E+02  0.7818608E-02  0.1868780E+00
          2   -1    0    0  501    0  0.00000000000E+00  0.00000000000E+00  0.11953633656E+03  0.11953633658E+03  0.25500000000E-02 0.  1.
         -2   -1    0    0    0  501 -0.00000000000E+00 -0.00000000000E+00 -0.46910473503E+00  0.46911166574E+00  0.25500000000E-02 0. -1.
         31    1    1    2    0    0  0.36700748667E+00 -0.59041762053E+00  0.62458733149E+02  0.62904972460E+02  0.74470750000E+01 0.  1.
        -31    1    1    2    0    0 -0.36700748667E+00  0.59041762053E+00  0.56608498672E+02  0.57100475790E+02  0.74470750000E+01 0. -1.
<mgrwt>
<rscale>  0 0.14976712E+02</rscale>
<asrwt>0</asrwt>
<pdfrwt beam="1">  1        2 0.99228901E+00 0.14976712E+02</pdfrwt>
<pdfrwt beam="2">  1       -2 0.99632077E+00 0.14976712E+02</pdfrwt>
<totfact>-0.13375145E-13</totfact>
</mgrwt>
</event>
<event>
 4    1 -0.5167034E-019  0.1493154E+02  0.7818608E-02  0.1870165E+00
         -2   -1    0    0    0  501 -0.00000000000E+00  0.00000000000E+00  0.12026795413E+03  0.12026795415E+03  0.25500000000E-02 0.  1.
          2   -1    0    0  501    0  0.00000000000E+00 -0.00000000000E+00 -0.46344290181E+00  0.46344991719E+00  0.25500000000E-02 0. -1.
         31    1    1    2    0    0 -0.17304915763E+00 -0.85591478552E-01  0.55928280336E+02  0.56422236214E+02  0.74470750000E+01 0. -1.
        -31    1    1    2    0    0  0.17304915763E+00  0.85591478552E-01  0.63876230887E+02  0.64309167856E+02  0.74470750000E+01 0.  1.
<mgrwt>
<rscale>  0 0.14931544E+02</rscale>
<asrwt>0</asrwt>
<pdfrwt beam="2">  1        2 0.98436548E+00 0.14931544E+02</pdfrwt>
<pdfrwt beam="1">  1       -2 0.99829172E+00 0.14931544E+02</pdfrwt>
<totfact>-0.20101219E-13</totfact>
</mgrwt>
</event>
<event>
 4    1 -0.5167034E-019  0.1496154E+02  0.7818608E-02  0.1869244E+00
         -2   -1    0    0    0  501 -0.00000000000E+00  0.00000000000E+00  0.11951795895E+03  0.11951795898E+03  0.25500000000E-02 0.  1.
          2   -1    0    0  501    0  0.00000000000E+00 -0.00000000000E+00 -0.46822677677E+00  0.46823372047E+00  0.25500000000E-02 0. -1.
         31    1    1    2    0    0  0.68162206893E+00 -0.85561120977E-01  0.60938496743E+02  0.61395693991E+02  0.74470750000E+01 0. -1.
        -31    1    1    2    0    0 -0.68162206893E+00  0.85561120977E-01  0.58111235431E+02  0.58590498707E+02  0.74470750000E+01 0. -1.
<mgrwt>
<rscale>  0 0.14961541E+02</rscale>
<asrwt>0</asrwt>
<pdfrwt beam="2">  1        2 0.99446280E+00 0.14961541E+02</pdfrwt>
<pdfrwt beam="1">  1       -2 0.99212979E+00 0.14961541E+02</pdfrwt>
<totfact>-0.87026826E-14</totfact>
</mgrwt>
</event>
<event>
 4    1 -0.5167034E-019  0.1500861E+02  0.7818608E-02  0.1867806E+00
          2   -1    0    0  501    0  0.00000000000E+00  0.00000000000E+00  0.12007554186E+03  0.12007554189E+03  0.25500000000E-02 0. -1.
         -2   -1    0    0    0  501 -0.00000000000E+00 -0.00000000000E+00 -0.46898935992E+00  0.46899629233E+00  0.25500000000E-02 0.  1.
         31    1    1    2    0    0  0.76344537511E+00  0.34855852183E+00  0.62927419831E+02  0.63372102968E+02  0.74470750000E+01 0. -1.
        -31    1    1    2    0    0 -0.76344537511E+00 -0.34855852183E+00  0.56679132670E+02  0.57172435213E+02  0.74470750000E+01 0.  1.
<mgrwt>
<rscale>  0 0.15008607E+02</rscale>
<asrwt>0</asrwt>
<pdfrwt beam="1">  1        2 0.99674658E+00 0.15008607E+02</pdfrwt>
<pdfrwt beam="2">  1       -2 0.99609417E+00 0.15008607E+02</pdfrwt>
<totfact>-0.86291180E-14</totfact>
</mgrwt>
</event>
<event>
 4    1 -0.5167034E-019  0.1493300E+02  0.7818608E-02  0.1870120E+00
          2   -1    0    0  501    0  0.00000000000E+00  0.00000000000E+00  0.11880380680E+03  0.11880380683E+03  0.25500000000E-02 0. -1.
         -2   -1    0    0    0  501 -0.00000000000E+00 -0.00000000000E+00 -0.46924589834E+00  0.46925282695E+00  0.25500000000E-02 0.  1.
         31    1    1    2    0    0 -0.20126445980E+00 -0.48321708321E+00  0.58167069151E+02  0.58644188679E+02  0.74470750000E+01 0.  1.
        -31    1    1    2    0    0  0.20126445980E+00  0.48321708321E+00  0.60167491749E+02  0.60628870974E+02  0.74470750000E+01 0.  1.
<mgrwt>
<rscale>  0 0.14932999E+02</rscale>
<asrwt>0</asrwt>
<pdfrwt beam="1">  1        2 0.98623311E+00 0.14932999E+02</pdfrwt>
<pdfrwt beam="2">  1       -2 0.99659538E+00 0.14932999E+02</pdfrwt>
<totfact>-0.24747203E-13</totfact>
</mgrwt>
</event>
<event>
 4    1 -0.5167034E-019  0.1493392E+02  0.7818608E-02  0.1870092E+00
          2   -1    0    0  501    0  0.00000000000E+00  0.00000000000E+00  0.11925844955E+03  0.11925844958E+03  0.25500000000E-02 0.  1.
         -2   -1    0    0    0  501 -0.00000000000E+00 -0.00000000000E+00 -0.46751461413E+00  0.46752156841E+00  0.25500000000E-02 0. -1.
         31    1    1    2    0    0  0.40184485545E+00 -0.23216188083E+00  0.57111220572E+02  0.57596578194E+02  0.74470750000E+01 0. -1.
        -31    1    1    2    0    0 -0.40184485545E+00  0.23216188083E+00  0.61679714364E+02  0.62129392951E+02  0.74470750000E+01 0. -1.
<mgrwt>
<rscale>  0 0.14933919E+02</rscale>
<asrwt>0</asrwt>
<pdfrwt beam="1">  1        2 0.98997810E+00 0.14933919E+02</pdfrwt>
<pdfrwt beam="2">  1       -2 0.99294775E+00 0.14933919E+02</pdfrwt>
<totfact>-0.15379164E-13</totfact>
</mgrwt>
</event>
<event>
 4    1 -0.5167034E-019  0.1498374E+02  0.7818608E-02  0.1868565E+00
         -2   -1    0    0    0  501 -0.00000000000E+00  0.00000000000E+00  0.11948396649E+03  0.11948396651E+03  0.25500000000E-02 0. -1.
          2   -1    0    0  501    0  0.00000000000E+00 -0.00000000000E+00 -0.46975099644E+00  0.46975791761E+00  0.25500000000E-02 0.  1.
         31    1    1    2    0    0  0.30833518857E+00  0.61076886697E+00  0.63097094156E+02  0.63538730914E+02  0.74470750000E+01 0.  1.
        -31    1    1    2    0    0 -0.30833518857E+00 -0.61076886697E+00  0.55917121335E+02  0.56414993518E+02  0.74470750000E+01 0. -1.
<mgrwt>
<rscale>  0 0.14983742E+02</rscale>
<asrwt>0</asrwt>
<pdfrwt beam="2">  1        2 0.99768625E+00 0.14983742E+02</pdfrwt>
<pdfrwt beam="1">  1       -2 0.99186132E+00 0.14983742E+02</pdfrwt>
<totfact>-0.45647466E-14</totfact>
</mgrwt>
</event>
<event>
 4    1  0.5167034E-019  0.1493010E+02  0.7818608E-02  0.1870209E+00
         -2   -1    0    0    0  501 -0.00000000000E+00  0.00000000000E+00  0.11893363041E+03  0.11893363043E+03  0.25500000000E-02 0. -1.
          2   -1    0    0  501    0  0.00000000000E+00 -0.00000000000E+00 -0.46855157872E+00  0.46855851761E+00  0.25500000000E-02 0.  1.
         31    1    1    2    0    0  0.42153205260E+00 -0.29882184409E+00  0.59491235636E+02  0.59957760359E+02  0.74470750000E+01 0.  1.
        -31    1    1    2    0    0 -0.42153205260E+00  0.29882184409E+00  0.58973843192E+02  0.59444428593E+02  0.74470750000E+01 0.  1.
<mgrwt>
<rscale>  0 0.14930098E+02</rscale>
<asrwt>0</asrwt>
<pdfrwt beam="2">  1        2 0.99513085E+00 0.14930098E+02</pdfrwt>
<pdfrwt beam="1">  1       -2 0.98730084E+00 0.14930098E+02</pdfrwt>
<totfact> 0.21269846E-13</totfact>
</mgrwt>
</event>
<event>
 4    1 -0.5167034E-019  0.1492352E+02  0.7818608E-02  0.1870411E+00
          2   -1    0    0  501    0  0.00000000000E+00  0.00000000000E+00  0.11883981446E+03  0.11883981449E+03  0.25500000000E-02 0.  1.
         -2   -1    0    0    0  501 -0.00000000000E+00 -0.00000000000E+00 -0.46850856820E+00  0.46851550772E+00  0.25500000000E-02 0. -1.
         31    1    1    2    0    0 -0.25710289519E+00 -0.14092908703E+00  0.62101212294E+02  0.62546826117E+02  0.74470750000E+01 0.  1.
        -31    1    1    2    0    0  0.25710289519E+00  0.14092908703E+00  0.56270093597E+02  0.56761503877E+02  0.74470750000E+01 0. -1.
<mgrwt>
<rscale>  0 0.14923523E+02</rscale>
<asrwt>0</asrwt>
<pdfrwt beam="1">  1        2 0.98652475E+00 0.14923523E+02</pdfrwt>
<pdfrwt beam="2">  1       -2 0.99503678E+00 0.14923523E+02</pdfrwt>
<totfact>-0.27352846E-13</totfact>
</mgrwt>
</event>
<event>
 4    1 -0.5167034E-019  0.1490570E+02  0.7818608E-02  0.1870960E+00
          2   -1    0    0  501    0  0.00000000000E+00  0.00000000000E+00  0.11845449323E+03  0.11845449326E+03  0.25500000000E-02 0.  1.
         -2   -1    0    0    0  501 -0.00000000000E+00 -0.00000000000E+00 -0.46891057364E+00  0.46891750721E+00  0.25500000000E-02 0. -1.
         31    1    1    2    0    0 -0.13244980850E+00 -0.37635649837E-01  0.61059375191E+02  0.61511992198E+02  0.74470750000E+01 0.  1.
        -31    1    1    2    0    0  0.13244980850E+00  0.37635649837E-01  0.56926207466E+02  0.57411418568E+02  0.74470750000E+01 0.  1.
<mgrwt>
<rscale>  0 0.14905701E+02</rscale>
<asrwt>0</asrwt>
<pdfrwt beam="1">  1        2 0.98334197E+00 0.14905701E+02</pdfrwt>
<pdfrwt beam="2">  1       -2 0.99587448E+00 0.14905701E+02</pdfrwt>
<totfact>-0.43443784E-13</totfact>
</mgrwt>
</event>
<event>
 4    1 -0.5167034E-019  0.1495298E+02  0.7818608E-02  0.1869507E+00
         -2   -1    0    0    0  501 -0.00000000000E+00  0.00000000000E+00  0.11997894429E+03  0.11997894432E+03  0.25500000000E-02 0.  1.
          2   -1    0    0  501    0  0.00000000000E+00 -0.00000000000E+00 -0.46589391923E+00  0.46590089770E+00  0.25500000000E-02 0. -1.
         31    1    1    2    0    0 -0.23273795741E+00 -0.31360953596E+00  0.55445542741E+02  0.55944791123E+02  0.74470750000E+01 0. -1.
        -31    1    1    2    0    0  0.23273795741E+00  0.31360953596E+00  0.64067507631E+02  0.64500054093E+02  0.74470750000E+01 0.  1.
<mgrwt>
<rscale>  0 0.14952977E+02</rscale>
<asrwt>0</asrwt>
<pdfrwt beam="2">  1        2 0.98954214E+00 0.14952977E+02</pdfrwt>
<pdfrwt beam="1">  1       -2 0.99592225E+00 0.14952977E+02</pdfrwt>
<totfact>-0.17677136E-13</totfact>
</mgrwt>
</event>
<event>
 4    1 -0.5167034E-019  0.1491426E+02  0.7818608E-02  0.1870696E+00
         -2   -1    0    0    0  501 -0.00000000000E+00  0.00000000000E+00  0.12002931564E+03  0.12002931566E+03  0.25500000000E-02 0.  1.
          2   -1    0    0  501    0  0.00000000000E+00 -0.00000000000E+00 -0.46329015103E+00  0.46329716872E+00  0.25500000000E-02 0. -1.
         31    1    1    2    0    0  0.54711755469E-01  0.34125365396E-01  0.56698771942E+02  0.57185783406E+02  0.74470750000E+01 0. -1.
        -31    1    1    2    0    0 -0.54711755469E-01 -0.34125365396E-01  0.62867253542E+02  0.63306829425E+02  0.74470750000E+01 0.  1.
<mgrwt>
<rscale>  0 0.14914265E+02</rscale>
<asrwt>0</asrwt>
<pdfrwt beam="2">  1        2 0.98403478E+00 0.14914265E+02</pdfrwt>
<pdfrwt beam="1">  1       -2 0.99631723E+00 0.14914265E+02</pdfrwt>
<totfact>-0.36733347E-13</totfact>
</mgrwt>
</event>
<event>
 4    1 -0.5167034E-019  0.1491577E+02  0.7818608E-02  0.1870650E+00
          2   -1    0    0  501    0  0.00000000000E+00  0.00000000000E+00  0.11877694976E+03  0.11877694979E+03  0.25500000000E-02 0. -1.
         -2   -1    0    0    0  501 -0.00000000000E+00 -0.00000000000E+00 -0.46826940240E+00  0.46827634547E+00  0.25500000000E-02 0.  1.
         31    1    1    2    0    0 -0.78175658543E-01  0.23866415179E+00  0.61657406088E+02  0.62106020026E+02  0.74470750000E+01 0. -1.
        -31    1    1    2    0    0  0.78175658543E-01 -0.23866415179E+00  0.56651274275E+02  0.57139206111E+02  0.74470750000E+01 0.  1.
<mgrwt>
<rscale>  0 0.14915767E+02</rscale>
<asrwt>0</asrwt>
<pdfrwt beam="1">  1        2 0.98600296E+00 0.14915767E+02</pdfrwt>
<pdfrwt beam="2">  1       -2 0.99452877E+00 0.14915767E+02</pdfrwt>
<totfact>-0.29642624E-13</totfact>
</mgrwt>
</event>
<event>
 4    1 -0.5167034E-019  0.1494549E+02  0.7818608E-02  0.1869736E+00
         -2   -1    0    0    0  501 -0.00000000000E+00  0.00000000000E+00  0.11969500258E+03  0.11969500261E+03  0.25500000000E-02 0.  1.
          2   -1    0    0  501    0  0.00000000000E+00 -0.00000000000E+00 -0.46653184140E+00  0.46653881032E+00  0.25500000000E-02 0. -1.
         31    1    1    2    0    0  0.24262641860E+00 -0.43627113458E+00  0.56673049587E+02  0.57162423633E+02  0.74470750000E+01 0. -1.
        -31    1    1    2    0    0 -0.24262641860E+00  0.43627113458E+00  0.62555421153E+02  0.62999117786E+02  0.74470750000E+01 0.  1.
<mgrwt>
<rscale>  0 0.14945494E+02</rscale>
<asrwt>0</asrwt>
<pdfrwt beam="2">  1        2 0.99088270E+00 0.14945494E+02</pdfrwt>
<pdfrwt beam="1">  1       -2 0.99357970E+00 0.14945494E+02</pdfrwt>
<totfact>-0.15570255E-13</totfact>
</mgrwt>
</event>
<event>
 4    1  0.5167034E-019  0.1493050E+02  0.7818608E-02  0.1870197E+00
          2   -1    0    0  501    0  0.00000000000E+00  0.00000000000E+00  0.12000184956E+03  0.12000184959E+03  0.25500000000E-02 0.  1.
         -2   -1    0    0    0  501 -0.00000000000E+00 -0.00000000000E+00 -0.46440558283E+00  0.46441258366E+00  0.25500000000E-02 0. -1.
         31    1    1    2    0    0 -0.49941015626E-02 -0.32752911293E+00  0.63033470819E+02  0.63472708071E+02  0.74470750000E+01 0.  1.
        -31    1    1    2    0    0  0.49941015626E-02  0.32752911293E+00  0.56503973158E+02  0.56993554100E+02  0.74470750000E+01 0. -1.
<mgrwt>
<rscale>  0 0.14930499E+02</rscale>
<asrwt>0</asrwt>
<pdfrwt beam="1">  1        2 0.99609934E+00 0.14930499E+02</pdfrwt>
<pdfrwt beam="2">  1       -2 0.98639393E+00 0.14930499E+02</pdfrwt>
<totfact> 0.27109622E-13</totfact>
</mgrwt>
</event>
<event>
 4    1 -0.5167034E-019  0.1499881E+02  0.7818608E-02  0.1868105E+00
         -2   -1    0    0    0  501 -0.00000000000E+00  0.00000000000E+00  0.11987982269E+03  0.11987982272E+03  0.25500000000E-02 0.  1.
          2   -1    0    0  501    0  0.00000000000E+00 -0.00000000000E+00 -0.46914169473E+00  0.46914862489E+00  0.25500000000E-02 0. -1.
         31    1    1    2    0    0 -0.55086044724E+00 -0.28353919247E+00  0.54641538389E+02  0.55150163057E+02  0.74470750000E+01 0. -1.
        -31    1    1    2    0    0  0.55086044724E+00  0.28353919247E+00  0.64769142611E+02  0.65198808289E+02  0.74470750000E+01 0.  1.
<mgrwt>
<rscale>  0 0.14998806E+02</rscale>
<asrwt>0</asrwt>
<pdfrwt beam="2">  1        2 0.99641012E+00 0.14998806E+02</pdfrwt>
<pdfrwt beam="1">  1       -2 0.99512950E+00 0.14998806E+02</pdfrwt>
<totfact>-0.98545160E-14</totfact>
</mgrwt>
</event>
<event>
 4    1  0.5167034E-019  0.1491030E+02  0.7818608E-02  0.1870818E+00
         -2   -1    0    0    0  501 -0.00000000000E+00  0.00000000000E+00  0.11913485687E+03  0.11913485689E+03  0.25500000000E-02 0.  1.
          2   -1    0    0  501    0  0.00000000000E+00 -0.00000000000E+00 -0.46652029359E+00  0.46652726269E+00  0.25500000000E-02 0. -1.
         31    1    1    2    0    0 -0.70195581611E-01 -0.12219791158E+00  0.56791740654E+02  0.57278098714E+02  0.74470750000E+01 0.  1.
        -31    1    1    2    0    0  0.70195581611E-01  0.12219791158E+00  0.61876595918E+02  0.62323285442E+02  0.74470750000E+01 0.  1.
<mgrwt>
<rscale>  0 0.14910298E+02</rscale>
<asrwt>0</asrwt>
<pdfrwt beam="2">  1        2 0.99084018E+00 0.14910298E+02</pdfrwt>
<pdfrwt beam="1">  1       -2 0.98894793E+00 0.14910298E+02</pdfrwt>
<totfact> 0.10578126E-13</totfact>
</mgrwt>
</event>
<event>
 4    1 -0.5167034E-019  0.1490893E+02  0.7818608E-02  0.1870860E+00
          2   -1    0    0  501    0  0.00000000000E+00  0.00000000000E+00  0.11861394281E+03  0.11861394284E+03  0.25500000000E-02 0. -1.
         -2   -1    0    0    0  501 -0.00000000000E+00 -0.00000000000E+00 -0.46848338380E+00  0.46849032370E+00  0.25500000000E-02 0.  1.
         31    1    1    2    0    0 -0.27019097907E+00 -0.58836698459E-01  0.57606775505E+02  0.58086796908E+02  0.74470750000E+01 0. -1.
        -31    1    1    2    0    0  0.27019097907E+00  0.58836698459E-01  0.60538683919E+02  0.60995636251E+02  0.74470750000E+01 0. -1.
<mgrwt>
<rscale>  0 0.14908934E+02</rscale>
<asrwt>0</asrwt>
<pdfrwt beam="1">  1        2 0.98465688E+00 0.14908934E+02</pdfrwt>
<pdfrwt beam="2">  1       -2 0.99497607E+00 0.14908934E+02</pdfrwt>
<totfact>-0.36728243E-13</totfact>
</mgrwt>
</event>
<event>
 4    1 -0.5167034E-019  0.1491508E+02  0.7818608E-02  0.1870671E+00
         -2   -1    0    0    0  501 -0.00000000000E+00  0.00000000000E+00  0.12022715137E+03  0.12022715140E+03  0.25500000000E-02 0.  1.
          2   -1    0    0  501    0  0.00000000000E+00 -0.00000000000E+00 -0.46257836654E+00  0.46258539502E+00  0.25500000000E-02 0. -1.
         31    1    1    2    0    0 -0.33110828679E+00 -0.21477770362E+00  0.60001443471E+02  0.60463111951E+02  0.74470750000E+01 0. -1.
        -31    1    1    2    0    0  0.33110828679E+00  0.21477770362E+00  0.59763129536E+02  0.60226624844E+02  0.74470750000E+01 0. -1.
<mgrwt>
<rscale>  0 0.14915080E+02</rscale>
<asrwt>0</asrwt>
<pdfrwt beam="2">  1        2 0.98253497E+00 0.14915080E+02</pdfrwt>
<pdfrwt beam="1">  1       -2 0.99794719E+00 0.14915080E+02</pdfrwt>
<totfact>-0.31786917E-13</totfact>
</mgrwt>
</event>
<event>
 4    1 -0.5167034E-019  0.1501256E+02  0.7818608E-02  0.1867685E+00
          2   -1    0    0  501    0  0.00000000000E+00  0.00000000000E+00  0.11994982966E+03  0.11994982969E+03  0.25500000000E-02 0. -1.
         -2   -1    0    0    0  501 -0.00000000000E+00 -0.00000000000E+00 -0.46972849635E+00  0.46973541785E+00  0.25500000000E-02 0.  1.
         31    1    1    2    0    0  0.27134823518E+00  0.30003469929E+00  0.52925786664E+02  0.53448680721E+02  0.74470750000E+01 0.  1.
        -31    1    1    2    0    0 -0.27134823518E+00 -0.30003469929E+00  0.66554314499E+02  0.66970884384E+02  0.74470750000E+01 0. -1.
<mgrwt>
<rscale>  0 0.15012564E+02</rscale>
<asrwt>0</asrwt>
<pdfrwt beam="1">  1        2 0.99571322E+00 0.15012564E+02</pdfrwt>
<pdfrwt beam="2">  1       -2 0.99765382E+00 0.15012564E+02</pdfrwt>
<totfact>-0.73960506E-14</totfact>
</mgrwt>
</event>
<event>
 4    1  0.5167034E-019  0.1493368E+02  0.7818608E-02  0.1870099E+00
         -2   -1    0    0    0  501 -0.00000000000E+00  0.00000000000E+00  0.11878920045E+03  0.11878920048E+03  0.25500000000E-02 0.  1.
          2   -1    0    0  501    0  0.00000000000E+00 -0.00000000000E+00 -0.46934657516E+00  0.46935350229E+00  0.25500000000E-02 0. -1.
         31    1    1    2    0    0 -0.14414392514E+00  0.41305763055E+00  0.56592011624E+02  0.57081574083E+02  0.74470750000E+01 0. -1.
        -31    1    1    2    0    0  0.14414392514E+00 -0.41305763055E+00  0.61727842248E+02  0.62176979894E+02  0.74470750000E+01 0.  1.
<mgrwt>
<rscale>  0 0.14933683E+02</rscale>
<asrwt>0</asrwt>
<pdfrwt beam="2">  1        2 0.99680788E+00 0.14933683E+02</pdfrwt>
<pdfrwt beam="1">  1       -2 0.98611317E+00 0.14933683E+02</pdfrwt>
<totfact> 0.26408209E-13</totfact>
</mgrwt>
</event>
<event>
 4    1 -0.5167034E-019  0.1495075E+02  0.7818608E-02  0.1869575E+00
          2   -1    0    0  501    0  0.00000000000E+00  0.00000000000E+00  0.11926491329E+03  0.11926491332E+03  0.25500000000E-02 0.  1.
         -2   -1    0    0    0  501 -0.00000000000E+00 -0.00000000000E+00 -0.46854368565E+00  0.46855062465E+00  0.25500000000E-02 0. -1.
         31    1    1    2    0    0  0.53813790766E+00 -0.16836005062E+00  0.56810854587E+02  0.57299651504E+02  0.74470750000E+01 0.  1.
        -31    1    1    2    0    0 -0.53813790766E+00  0.16836005062E+00  0.61985515017E+02  0.62433812438E+02  0.74470750000E+01 0.  1.
<mgrwt>
<rscale>  0 0.14950751E+02</rscale>
<asrwt>0</asrwt>
<pdfrwt beam="1">  1        2 0.99004005E+00 0.14950751E+02</pdfrwt>
<pdfrwt beam="2">  1       -2 0.99512500E+00 0.14950751E+02</pdfrwt>
<totfact>-0.17728689E-13</totfact>
</mgrwt>
</event>
<event>
 4    1 -0.5167034E-019  0.1491631E+02  0.7818608E-02  0.1870633E+00
         -2   -1    0    0    0  501 -0.00000000000E+00  0.00000000000E+00  0.11944617452E+03  0.11944617455E+03  0.25500000000E-02 0.  1.
          2   -1    0    0  501    0  0.00000000000E+00 -0.00000000000E+00 -0.46567969528E+00  0.46568667695E+00  0.25500000000E-02 0. -1.
         31    1    1    2    0    0 -0.15111239232E+00 -0.34687763825E+00  0.60682437908E+02  0.61138861255E+02  0.74470750000E+01 0.  1.
        -31    1    1    2    0    0  0.15111239232E+00  0.34687763825E+00  0.58298056919E+02  0.58772999971E+02  0.74470750000E+01 0. -1.
<mgrwt>
<rscale>  0 0.14916310E+02</rscale>
<asrwt>0</asrwt>
<pdfrwt beam="2">  1        2 0.98907185E+00 0.14916310E+02</pdfrwt>
<pdfrwt beam="1">  1       -2 0.99151517E+00 0.14916310E+02</pdfrwt>
<totfact>-0.10287328E-13</totfact>
</mgrwt>
</event>
<event>
 4    1  0.5167034E-019  0.1494198E+02  0.7818608E-02  0.1869844E+00
         -2   -1    0    0    0  501 -0.00000000000E+00  0.00000000000E+00  0.11863357299E+03  0.11863357302E+03  0.25500000000E-02 0. -1.
          2   -1    0    0  501    0  0.00000000000E+00 -0.00000000000E+00 -0.47048447924E+00  0.47049138962E+00  0.25500000000E-02 0.  1.
         31    1    1    2    0    0  0.51833960611E+00  0.17932589403E-01  0.56720369133E+02  0.57209511431E+02  0.74470750000E+01 0. -1.
        -31    1    1    2    0    0 -0.51833960611E+00 -0.17932589403E-01  0.61442719382E+02  0.61894552980E+02  0.74470750000E+01 0. -1.
<mgrwt>
<rscale>  0 0.14941977E+02</rscale>
<asrwt>0</asrwt>
<pdfrwt beam="2">  1        2 0.99920984E+00 0.14941977E+02</pdfrwt>
<pdfrwt beam="1">  1       -2 0.98483574E+00 0.14941977E+02</pdfrwt>
<totfact> 0.12594254E-13</totfact>
</mgrwt>
</event>
<event>
 4    1 -0.5167034E-019  0.1490303E+02  0.7818608E-02  0.1871042E+00
         -2   -1    0    0    0  501 -0.00000000000E+00  0.00000000000E+00  0.11997181915E+03  0.11997181918E+03  0.25500000000E-02 0. -1.
          2   -1    0    0  501    0  0.00000000000E+00 -0.00000000000E+00 -0.46281416807E+00  0.46282119297E+00  0.25500000000E-02 0.  1.
         31    1    1    2    0    0  0.24966891896E-01 -0.24576279136E+00  0.60333513289E+02  0.60791880828E+02  0.74470750000E+01 0.  1.
        -31    1    1    2    0    0 -0.24966891896E-01  0.24576279136E+00  0.59175491691E+02  0.59642759541E+02  0.74470750000E+01 0. -1.
<mgrwt>
<rscale>  0 0.14903031E+02</rscale>
<asrwt>0</asrwt>
<pdfrwt beam="2">  1        2 0.98302587E+00 0.14903031E+02</pdfrwt>
<pdfrwt beam="1">  1       -2 0.99583787E+00 0.14903031E+02</pdfrwt>
<totfact>-0.45982826E-13</totfact>
</mgrwt>
</event>
<event>
 4    1  0.5167034E-019  0.1494606E+02  0.7818608E-02  0.1869719E+00
          2   -1    0    0  501    0  0.00000000000E+00  0.00000000000E+00  0.12036176898E+03  0.12036176900E+03  0.25500000000E-02 0. -1.
         -2   -1    0    0    0  501 -0.00000000000E+00 -0.00000000000E+00 -0.46398246314E+00  0.46398947036E+00  0.25500000000E-02 0.  1.
         31    1    1    2    0    0  0.25852622303E+00  0.42410692470E+00  0.56918194600E+02  0.57405457102E+02  0.74470750000E+01 0.  1.
        -31    1    1    2    0    0 -0.25852622303E+00 -0.42410692470E+00  0.62979591913E+02  0.63420301372E+02  0.74470750000E+01 0.  1.
<mgrwt>
<rscale>  0 0.14946060E+02</rscale>
<asrwt>0</asrwt>
<pdfrwt beam="1">  1        2 0.99907191E+00 0.14946060E+02</pdfrwt>
<pdfrwt beam="2">  1       -2 0.98551006E+00 0.14946060E+02</pdfrwt>
<totfact> 0.11975439E-13</totfact>
</mgrwt>
</event>
<event>
 4    1 -0.5167034E-019  0.1495088E+02  0.7818608E-02  0.1869571E+00
         -2   -1    0    0    0  501 -0.00000000000E+00  0.00000000000E+00  0.11970288709E+03  0.11970288712E+03  0.25500000000E-02 0.  1.
          2   -1    0    0  501    0  0.00000000000E+00 -0.00000000000E+00 -0.46683735473E+00  0.46684431909E+00  0.25500000000E-02 0. -1.
         31    1    1    2    0    0 -0.27508145705E+00  0.56045900988E+00  0.58147135602E+02  0.58625404807E+02  0.74470750000E+01 0. -1.
        -31    1    1    2    0    0  0.27508145705E+00 -0.56045900988E+00  0.61088914137E+02  0.61544326632E+02  0.74470750000E+01 0.  1.
<mgrwt>
<rscale>  0 0.14950879E+02</rscale>
<asrwt>0</asrwt>
<pdfrwt beam="2">  1        2 0.99152931E+00 0.14950879E+02</pdfrwt>
<pdfrwt beam="1">  1       -2 0.99364742E+00 0.14950879E+02</pdfrwt>
<totfact>-0.14894132E-13</totfact>
</mgrwt>
</event>
<event>
 4    1  0.5167034E-019  0.1491398E+02  0.7818608E-02  0.1870705E+00
          2   -1    0    0  501    0  0.00000000000E+00  0.00000000000E+00  0.12001309700E+03  0.12001309703E+03  0.25500000000E-02 0. -1.
         -2   -1    0    0    0  501 -0.00000000000E+00 -0.00000000000E+00 -0.46333509098E+00  0.46334210798E+00  0.25500000000E-02 0.  1.
         31    1    1    2    0    0 -0.77493969009E-01 -0.15990010109E+00  0.57021163815E+02  0.57505683391E+02  0.74470750000E+01 0.  1.
        -31    1    1    2    0    0  0.77493969009E-01  0.15990010109E+00  0.62528598092E+02  0.62970755743E+02  0.74470750000E+01 0. -1.
<mgrwt>
<rscale>  0 0.14913980E+02</rscale>
<asrwt>0</asrwt>
<pdfrwt beam="1">  1        2 0.99618349E+00 0.14913980E+02</pdfrwt>
<pdfrwt beam="2">  1       -2 0.98412935E+00 0.14913980E+02</pdfrwt>
<totfact> 0.52592538E-13</totfact>
</mgrwt>
</event>
<event>
 4    1  0.5167034E-019  0.1493070E+02  0.7818608E-02  0.1870191E+00
         -2   -1    0    0    0  501 -0.00000000000E+00  0.00000000000E+00  0.11897634434E+03  0.11897634436E+03  0.25500000000E-02 0. -1.
          2   -1    0    0  501    0  0.00000000000E+00 -0.00000000000E+00 -0.46842095496E+00  0.46842789578E+00  0.25500000000E-02 0.  1.
         31    1    1    2    0    0 -0.69079808617E-01 -0.35409421555E+00  0.62272266154E+02  0.62717016931E+02  0.74470750000E+01 0. -1.
        -31    1    1    2    0    0  0.69079808617E-01  0.35409421555E+00  0.56235657227E+02  0.56727755328E+02  0.74470750000E+01 0.  1.
<mgrwt>
<rscale>  0 0.14930697E+02</rscale>
<asrwt>0</asrwt>
<pdfrwt beam="2">  1        2 0.99485592E+00 0.14930697E+02</pdfrwt>
<pdfrwt beam="1">  1       -2 0.98765295E+00 0.14930697E+02</pdfrwt>
<totfact> 0.18494383E-13</totfact>
</mgrwt>
</event>
<event>
 4    1  0.5167034E-019  0.1493887E+02  0.7818608E-02  0.1869940E+00
         -2   -1    0    0    0  501 -0.00000000000E+00  0.00000000000E+00  0.11897796484E+03  0.11897796487E+03  0.25500000000E-02 0. -1.
          2   -1    0    0  501    0  0.00000000000E+00 -0.00000000000E+00 -0.46892779805E+00  0.46893473137E+00  0.25500000000E-02 0.  1.
         31    1    1    2    0    0 -0.29825231817E+00 -0.38183916462E+00  0.61767883476E+02  0.62217080539E+02  0.74470750000E+01 0. -1.
        -31    1    1    2    0    0  0.29825231817E+00  0.38183916462E+00  0.56741153564E+02  0.57229819058E+02  0.74470750000E+01 0.  1.
<mgrwt>
<rscale>  0 0.14938874E+02</rscale>
<asrwt>0</asrwt>
<pdfrwt beam="2">  1        2 0.99592819E+00 0.14938874E+02</pdfrwt>
<pdfrwt beam="1">  1       -2 0.98767054E+00 0.14938874E+02</pdfrwt>
<totfact> 0.16151223E-13</totfact>
</mgrwt>
</event>
<event>
 4    1 -0.5167034E-019  0.1491425E+02  0.7818608E-02  0.1870697E+00
          2   -1    0    0  501    0  0.00000000000E+00  0.00000000000E+00  0.11856720304E+03  0.11856720307E+03  0.25500000000E-02 0.  1.
         -2   -1    0    0    0  501 -0.00000000000E+00 -0.00000000000E+00 -0.46900225580E+00  0.46900918801E+00  0.25500000000E-02 0. -1.
         31    1    1    2    0    0  0.28082632188E+00  0.26078175506E+00  0.58619044778E+02  0.59091439374E+02  0.74470750000E+01 0.  1.
        -31    1    1    2    0    0 -0.28082632188E+00 -0.26078175506E+00  0.59479156009E+02  0.59944772884E+02  0.74470750000E+01 0.  1.
<mgrwt>
<rscale>  0 0.14914248E+02</rscale>
<asrwt>0</asrwt>
<pdfrwt beam="1">  1        2 0.98427469E+00 0.14914248E+02</pdfrwt>
<pdfrwt beam="2">  1       -2 0.99607216E+00 0.14914248E+02</pdfrwt>
<totfact>-0.36401084E-13</totfact>
</mgrwt>
</event>
<event>
 4    1  0.5167034E-019  0.1494463E+02  0.7818608E-02  0.1869763E+00
         -2   -1    0    0    0  501 -0.00000000000E+00  0.00000000000E+00  0.11915802737E+03  0.11915802739E+03  0.25500000000E-02 0. -1.
          2   -1    0    0  501    0  0.00000000000E+00 -0.00000000000E+00 -0.46858003278E+00  0.46858697124E+00  0.25500000000E-02 0.  1.
         31    1    1    2    0    0  0.36629778846E+00  0.49164516519E+00  0.59136923052E+02  0.59607134499E+02  0.74470750000E+01 0. -1.
        -31    1    1    2    0    0 -0.36629778846E+00 -0.49164516519E+00  0.59552524282E+02  0.60019479866E+02  0.74470750000E+01 0. -1.
<mgrwt>
<rscale>  0 0.14944630E+02</rscale>
<asrwt>0</asrwt>
<pdfrwt beam="2">  1        2 0.99519840E+00 0.14944630E+02</pdfrwt>
<pdfrwt beam="1">  1       -2 0.98915655E+00 0.14944630E+02</pdfrwt>
<totfact> 0.60187239E-14</totfact>
</mgrwt>
</event>
<event>
 4    1 -0.5167034E-019  0.1489623E+02  0.7818608E-02  0.1871252E+00
         -2   -1    0    0    0  501 -0.00000000000E+00  0.00000000000E+00  0.11981839183E+03  0.11981839186E+03  0.25500000000E-02 0. -1.
          2   -1    0    0  501    0  0.00000000000E+00 -0.00000000000E+00 -0.46298364870E+00  0.46299067103E+00  0.25500000000E-02 0.  1.
         31    1    1    2    0    0  0.82683483346E-01 -0.65493961659E-01  0.60208920823E+02  0.60667818476E+02  0.74470750000E+01 0.  1.
        -31    1    1    2    0    0 -0.82683483346E-01  0.65493961659E-01  0.59146487361E+02  0.59613564054E+02  0.74470750000E+01 0.  1.
<mgrwt>
<rscale>  0 0.14896225E+02</rscale>
<asrwt>0</asrwt>
<pdfrwt beam="2">  1        2 0.98337962E+00 0.14896225E+02</pdfrwt>
<pdfrwt beam="1">  1       -2 0.99457063E+00 0.14896225E+02</pdfrwt>
<totfact>-0.45484788E-13</totfact>
</mgrwt>
</event>
<event>
 4    1 -0.5167034E-019  0.1499047E+02  0.7818608E-02  0.1868359E+00
          2   -1    0    0  501    0  0.00000000000E+00  0.00000000000E+00  0.12017596434E+03  0.12017596436E+03  0.25500000000E-02 0.  1.
         -2   -1    0    0    0  501 -0.00000000000E+00 -0.00000000000E+00 -0.46746585987E+00  0.46747281487E+00  0.25500000000E-02 0. -1.
         31    1    1    2    0    0 -0.11366015406E+00 -0.74007090642E+00  0.63063699413E+02  0.63506296800E+02  0.74470750000E+01 0. -1.
        -31    1    1    2    0    0  0.11366015406E+00  0.74007090642E+00  0.56644799063E+02  0.57137140378E+02  0.74470750000E+01 0. -1.
<mgrwt>
<rscale>  0 0.14990475E+02</rscale>
<asrwt>0</asrwt>
<pdfrwt beam="1">  1        2 0.99756435E+00 0.14990475E+02</pdfrwt>
<pdfrwt beam="2">  1       -2 0.99287420E+00 0.14990475E+02</pdfrwt>
<totfact>-0.64391847E-14</totfact>
</mgrwt>
</event>
<event>
 4    1  0.5167034E-019  0.1494463E+02  0.7818608E-02  0.1869763E+00
         -2   -1    0    0    0  501 -0.00000000000E+00  0.00000000000E+00  0.11867594954E+03  0.11867594957E+03  0.25500000000E-02 0. -1.
          2   -1    0    0  501    0  0.00000000000E+00 -0.00000000000E+00 -0.47048360727E+00  0.47049051766E+00  0.25500000000E-02 0.  1.
         31    1    1    2    0    0  0.27062861793E+00  0.26909415972E+00  0.62933898643E+02  0.63374128601E+02  0.74470750000E+01 0. -1.
        -31    1    1    2    0    0 -0.27062861793E+00 -0.26909415972E+00  0.55271567287E+02  0.55772311481E+02  0.74470750000E+01 0.  1.
<mgrwt>
<rscale>  0 0.14944631E+02</rscale>
<asrwt>0</asrwt>
<pdfrwt beam="2">  1        2 0.99920940E+00 0.14944631E+02</pdfrwt>
<pdfrwt beam="1">  1       -2 0.98518613E+00 0.14944631E+02</pdfrwt>
<totfact> 0.11409858E-13</totfact>
</mgrwt>
</event>
<event>
 4    1  0.5167034E-019  0.1492813E+02  0.7818608E-02  0.1870270E+00
         -2   -1    0    0    0  501 -0.00000000000E+00  0.00000000000E+00  0.11914224330E+03  0.11914224332E+03  0.25500000000E-02 0. -1.
          2   -1    0    0  501    0  0.00000000000E+00 -0.00000000000E+00 -0.46760773986E+00  0.46761469275E+00  0.25500000000E-02 0.  1.
         31    1    1    2    0    0  0.29091557947E+00 -0.31751109203E+00  0.61424867401E+02  0.61876156203E+02  0.74470750000E+01 0.  1.
        -31    1    1    2    0    0 -0.29091557947E+00  0.31751109203E+00  0.57249768156E+02  0.57733701814E+02  0.74470750000E+01 0.  1.
<mgrwt>
<rscale>  0 0.14928128E+02</rscale>
<asrwt>0</asrwt>
<pdfrwt beam="2">  1        2 0.99314098E+00 0.14928128E+02</pdfrwt>
<pdfrwt beam="1">  1       -2 0.98901799E+00 0.14928128E+02</pdfrwt>
<totfact> 0.83174740E-14</totfact>
</mgrwt>
</event>
<event>
 4    1 -0.5167034E-019  0.1496487E+02  0.7818608E-02  0.1869142E+00
          2   -1    0    0  501    0  0.00000000000E+00  0.00000000000E+00  0.11981814764E+03  0.11981814767E+03  0.25500000000E-02 0.  1.
         -2   -1    0    0    0  501 -0.00000000000E+00 -0.00000000000E+00 -0.46726178203E+00  0.46726874006E+00  0.25500000000E-02 0. -1.
         31    1    1    2    0    0  0.13946363494E+00  0.12045421027E+00  0.65324719110E+02  0.65748093601E+02  0.74470750000E+01 0.  1.
        -31    1    1    2    0    0 -0.13946363494E+00 -0.12045421027E+00  0.54026166749E+02  0.54537322807E+02  0.74470750000E+01 0. -1.
<mgrwt>
<rscale>  0 0.14964874E+02</rscale>
<asrwt>0</asrwt>
<pdfrwt beam="1">  1        2 0.99460398E+00 0.14964874E+02</pdfrwt>
<pdfrwt beam="2">  1       -2 0.99243096E+00 0.14964874E+02</pdfrwt>
<totfact>-0.94468031E-14</totfact>
</mgrwt>
</event>
<event>
 4    1  0.5167034E-019  0.1493141E+02  0.7818608E-02  0.1870169E+00
         -2   -1    0    0    0  501 -0.00000000000E+00  0.00000000000E+00  0.11848604336E+03  0.11848604339E+03  0.25500000000E-02 0. -1.
          2   -1    0    0  501    0  0.00000000000E+00 -0.00000000000E+00 -0.47040397168E+00  0.47041088324E+00  0.25500000000E-02 0.  1.
         31    1    1    2    0    0  0.70763078882E-02 -0.49597646887E+00  0.57588257170E+02  0.58069891791E+02  0.74470750000E+01 0. -1.
        -31    1    1    2    0    0 -0.70763078882E-02  0.49597646887E+00  0.60427382222E+02  0.60886562483E+02  0.74470750000E+01 0.  1.
<mgrwt>
<rscale>  0 0.14931406E+02</rscale>
<asrwt>0</asrwt>
<pdfrwt beam="2">  1        2 0.99903462E+00 0.14931406E+02</pdfrwt>
<pdfrwt beam="1">  1       -2 0.98361519E+00 0.14931406E+02</pdfrwt>
<totfact> 0.20586452E-13</totfact>
</mgrwt>
</event>
<event>
 4    1  0.5167034E-019  0.1493449E+02  0.7818608E-02  0.1870074E+00
          2   -1    0    0  501    0  0.00000000000E+00  0.00000000000E+00  0.12032617620E+03  0.12032617623E+03  0.25500000000E-02 0. -1.
         -2   -1    0    0    0  501 -0.00000000000E+00 -0.00000000000E+00 -0.46340135017E+00  0.46340836617E+00  0.25500000000E-02 0.  1.
         31    1    1    2    0    0 -0.51660291171E+00  0.98563541314E-01  0.58672715424E+02  0.59145777995E+02  0.74470750000E+01 0.  1.
        -31    1    1    2    0    0  0.51660291171E+00 -0.98563541314E-01  0.61190059430E+02  0.61643806602E+02  0.74470750000E+01 0. -1.
<mgrwt>
<rscale>  0 0.14934489E+02</rscale>
<asrwt>0</asrwt>
<pdfrwt beam="1">  1        2 0.99877280E+00 0.14934489E+02</pdfrwt>
<pdfrwt beam="2">  1       -2 0.98427939E+00 0.14934489E+02</pdfrwt>
<totfact> 0.21601258E-13</totfact>
</mgrwt>
</event>
<event>
 4    1 -0.5167034E-019  0.1492719E+02  0.7818608E-02  0.1870298E+00
          2   -1    0    0  501    0  0.00000000000E+00  0.00000000000E+00  0.11848346374E+03  0.11848346376E+03  0.25500000000E-02 0. -1.
         -2   -1    0    0    0  501 -0.00000000000E+00 -0.00000000000E+00 -0.47014882267E+00  0.47015573798E+00  0.25500000000E-02 0.  1.
         31    1    1    2    0    0  0.23763248280E+00 -0.30827682967E+00  0.56552487860E+02  0.57042039874E+02  0.74470750000E+01 0.  1.
        -31    1    1    2    0    0 -0.23763248280E+00  0.30827682967E+00  0.61460827053E+02  0.61911579627E+02  0.74470750000E+01 0. -1.
<mgrwt>
<rscale>  0 0.14927193E+02</rscale>
<asrwt>0</asrwt>
<pdfrwt beam="1">  1        2 0.98359175E+00 0.14927193E+02</pdfrwt>
<pdfrwt beam="2">  1       -2 0.99849481E+00 0.14927193E+02</pdfrwt>
<totfact>-0.20530130E-13</totfact>
</mgrwt>
</event>
<event>
 4    1 -0.5167034E-019  0.1491723E+02  0.7818608E-02  0.1870605E+00
          2   -1    0    0  501    0  0.00000000000E+00  0.00000000000E+00  0.11850185268E+03  0.11850185271E+03  0.25500000000E-02 0. -1.
         -2   -1    0    0    0  501 -0.00000000000E+00 -0.00000000000E+00 -0.46944828580E+00  0.46945521143E+00  0.25500000000E-02 0.  1.
         31    1    1    2    0    0  0.20062729896E+00 -0.36077711350E+00  0.58700419410E+02  0.59172363282E+02  0.74470750000E+01 0. -1.
        -31    1    1    2    0    0 -0.20062729896E+00  0.36077711350E+00  0.59331984988E+02  0.59798944640E+02  0.74470750000E+01 0.  1.
<mgrwt>
<rscale>  0 0.14917226E+02</rscale>
<asrwt>0</asrwt>
<pdfrwt beam="1">  1        2 0.98373801E+00 0.14917226E+02</pdfrwt>
<pdfrwt beam="2">  1       -2 0.99701352E+00 0.14917226E+02</pdfrwt>
<totfact>-0.34149996E-13</totfact>
</mgrwt>
</event>
<event>
 4    1 -0.5167034E-019  0.1491003E+02  0.7818608E-02  0.1870826E+00
          2   -1    0    0  501    0  0.00000000000E+00  0.00000000000E+00  0.11899713501E+03  0.11899713504E+03  0.25500000000E-02 0. -1.
         -2   -1    0    0    0  501 -0.00000000000E+00 -0.00000000000E+00 -0.46704347152E+00  0.46705043281E+00  0.25500000000E-02 0.  1.
         31    1    1    2    0    0 -0.17027409357E-01  0.27532432748E-01  0.62008946001E+02  0.62454538332E+02  0.74470750000E+01 0. -1.
        -31    1    1    2    0    0  0.17027409357E-01 -0.27532432748E-01  0.56521145538E+02  0.57009647139E+02  0.74470750000E+01 0.  1.
<mgrwt>
<rscale>  0 0.14910031E+02</rscale>
<asrwt>0</asrwt>
<pdfrwt beam="1">  1        2 0.98781347E+00 0.14910031E+02</pdfrwt>
<pdfrwt beam="2">  1       -2 0.99194251E+00 0.14910031E+02</pdfrwt>
<totfact>-0.14769066E-13</totfact>
</mgrwt>
</event>
<event>
 4    1  0.5167034E-019  0.1493648E+02  0.7818608E-02  0.1870013E+00
          2   -1    0    0  501    0  0.00000000000E+00  0.00000000000E+00  0.12000749373E+03  0.12000749375E+03  0.25500000000E-02 0. -1.
         -2   -1    0    0    0  501 -0.00000000000E+00 -0.00000000000E+00 -0.46475590932E+00  0.46476290487E+00  0.25500000000E-02 0.  1.
         31    1    1    2    0    0  0.48461690417E+00  0.21325494273E+00  0.61288001073E+02  0.61741058728E+02  0.74470750000E+01 0. -1.
        -31    1    1    2    0    0 -0.48461690417E+00 -0.21325494273E+00  0.58254736744E+02  0.58731197930E+02  0.74470750000E+01 0.  1.
<mgrwt>
<rscale>  0 0.14936481E+02</rscale>
<asrwt>0</asrwt>
<pdfrwt beam="1">  1        2 0.99614891E+00 0.14936481E+02</pdfrwt>
<pdfrwt beam="2">  1       -2 0.98713532E+00 0.14936481E+02</pdfrwt>
<totfact> 0.20076806E-13</totfact>
</mgrwt>
</event>
<event>
 4    1  0.5167034E-019  0.1494065E+02  0.7818608E-02  0.1869885E+00
         -2   -1    0    0    0  501 -0.00000000000E+00  0.00000000000E+00  0.11889725005E+03  0.11889725008E+03  0.25500000000E-02 0. -1.
          2   -1    0    0  501    0  0.00000000000E+00 -0.00000000000E+00 -0.46935771770E+00  0.46936464467E+00  0.25500000000E-02 0.  1.
         31    1    1    2    0    0  0.10732976121E+00 -0.51802620734E+00  0.61281331405E+02  0.61734434278E+02  0.74470750000E+01 0. -1.
        -31    1    1    2    0    0 -0.10732976121E+00  0.51802620734E+00  0.57146560926E+02  0.57632180442E+02  0.74470750000E+01 0. -1.
<mgrwt>
<rscale>  0 0.14940650E+02</rscale>
<asrwt>0</asrwt>
<pdfrwt beam="2">  1        2 0.99683501E+00 0.14940650E+02</pdfrwt>
<pdfrwt beam="1">  1       -2 0.98700669E+00 0.14940650E+02</pdfrwt>
<totfact> 0.18749922E-13</totfact>
</mgrwt>
</event>
<event>
 4    1 -0.5167034E-019  0.1499366E+02  0.7818608E-02  0.1868262E+00
         -2   -1    0    0    0  501 -0.00000000000E+00  0.00000000000E+00  0.11987455860E+03  0.11987455863E+03  0.25500000000E-02 0.  1.
          2   -1    0    0  501    0  0.00000000000E+00 -0.00000000000E+00 -0.46884013887E+00  0.46884707349E+00  0.25500000000E-02 0. -1.
         31    1    1    2    0    0 -0.20600805422E+00 -0.70998330168E+00  0.63265138663E+02  0.63706225847E+02  0.74470750000E+01 0.  1.
        -31    1    1    2    0    0  0.20600805422E+00  0.70998330168E+00  0.56140579798E+02  0.56637179854E+02  0.74470750000E+01 0. -1.
<mgrwt>
<rscale>  0 0.14993655E+02</rscale>
<asrwt>0</asrwt>
<pdfrwt beam="2">  1        2 0.99577198E+00 0.14993655E+02</pdfrwt>
<pdfrwt beam="1">  1       -2 0.99508348E+00 0.14993655E+02</pdfrwt>
<totfact>-0.10871985E-13</totfact>
</mgrwt>
</event>
<event>
 4    1 -0.5167034E-019  0.1490769E+02  0.7818608E-02  0.1870899E+00
         -2   -1    0    0    0  501 -0.00000000000E+00  0.00000000000E+00  0.11956039512E+03  0.11956039514E+03  0.25500000000E-02 0. -1.
          2   -1    0    0  501    0  0.00000000000E+00 -0.00000000000E+00 -0.46469705134E+00  0.46470404778E+00  0.25500000000E-02 0.  1.
         31    1    1    2    0    0  0.23117272601E+00  0.18440409491E+00  0.58615407047E+02  0.59087327872E+02  0.74470750000E+01 0.  1.
        -31    1    1    2    0    0 -0.23117272601E+00 -0.18440409491E+00  0.60480291017E+02  0.60937771319E+02  0.74470750000E+01 0.  1.
<mgrwt>
<rscale>  0 0.14907687E+02</rscale>
<asrwt>0</asrwt>
<pdfrwt beam="2">  1        2 0.98699656E+00 0.14907687E+02</pdfrwt>
<pdfrwt beam="1">  1       -2 0.99245150E+00 0.14907687E+02</pdfrwt>
<totfact>-0.19603282E-13</totfact>
</mgrwt>
</event>
<event>
 4    1 -0.5167034E-019  0.1498109E+02  0.7818608E-02  0.1868646E+00
         -2   -1    0    0    0  501 -0.00000000000E+00  0.00000000000E+00  0.11954126009E+03  0.11954126011E+03  0.25500000000E-02 0.  1.
          2   -1    0    0  501    0  0.00000000000E+00 -0.00000000000E+00 -0.46935972781E+00  0.46936665475E+00  0.25500000000E-02 0. -1.
         31    1    1    2    0    0  0.34653850076E+00  0.51636829764E+00  0.55430699815E+02  0.55932174401E+02  0.74470750000E+01 0. -1.
        -31    1    1    2    0    0 -0.34653850076E+00 -0.51636829764E+00  0.63641200544E+02  0.64078452368E+02  0.74470750000E+01 0.  1.
<mgrwt>
<rscale>  0 0.14981091E+02</rscale>
<asrwt>0</asrwt>
<pdfrwt beam="2">  1        2 0.99686038E+00 0.14981091E+02</pdfrwt>
<pdfrwt beam="1">  1       -2 0.99233183E+00 0.14981091E+02</pdfrwt>
<totfact>-0.67184888E-14</totfact>
</mgrwt>
</event>
<event>
 4    1 -0.5167034E-019  0.1500886E+02  0.7818608E-02  0.1867798E+00
          2   -1    0    0  501    0  0.00000000000E+00  0.00000000000E+00  0.11982183778E+03  0.11982183781E+03  0.25500000000E-02 0. -1.
         -2   -1    0    0    0  501 -0.00000000000E+00 -0.00000000000E+00 -0.46999808241E+00  0.47000499994E+00  0.25500000000E-02 0.  1.
         31    1    1    2    0    0 -0.66124061550E+00 -0.23336973076E+00  0.54828336828E+02  0.55336219115E+02  0.74470750000E+01 0.  1.
        -31    1    1    2    0    0  0.66124061550E+00  0.23336973076E+00  0.64523502868E+02  0.64955623690E+02  0.74470750000E+01 0. -1.
<mgrwt>
<rscale>  0 0.15008858E+02</rscale>
<asrwt>0</asrwt>
<pdfrwt beam="1">  1        2 0.99465712E+00 0.15008858E+02</pdfrwt>
<pdfrwt beam="2">  1       -2 0.99821999E+00 0.15008858E+02</pdfrwt>
<totfact>-0.66681856E-14</totfact>
</mgrwt>
</event>
<event>
 4    1  0.5167034E-019  0.1494711E+02  0.7818608E-02  0.1869687E+00
          2   -1    0    0  501    0  0.00000000000E+00  0.00000000000E+00  0.12030772426E+03  0.12030772428E+03  0.25500000000E-02 0.  1.
         -2   -1    0    0    0  501 -0.00000000000E+00 -0.00000000000E+00 -0.46425620960E+00  0.46426321268E+00  0.25500000000E-02 0. -1.
         31    1    1    2    0    0  0.74608720400E-01 -0.60491464789E+00  0.61163481989E+02  0.61618194904E+02  0.74470750000E+01 0.  1.
        -31    1    1    2    0    0 -0.74608720400E-01  0.60491464789E+00  0.58679986058E+02  0.59153792592E+02  0.74470750000E+01 0. -1.
<mgrwt>
<rscale>  0 0.14947111E+02</rscale>
<asrwt>0</asrwt>
<pdfrwt beam="1">  1        2 0.99862729E+00 0.14947111E+02</pdfrwt>
<pdfrwt beam="2">  1       -2 0.98608756E+00 0.14947111E+02</pdfrwt>
<totfact> 0.13992778E-13</totfact>
</mgrwt>
</event>
<event>
 4    1  0.5167034E-019  0.1493268E+02  0.7818608E-02  0.1870130E+00
         -2   -1    0    0    0  501 -0.00000000000E+00  0.00000000000E+00  0.11855097379E+03  0.11855097382E+03  0.25500000000E-02 0. -1.
          2   -1    0    0  501    0  0.00000000000E+00 -0.00000000000E+00 -0.47022657651E+00  0.47023349068E+00  0.25500000000E-02 0.  1.
         31    1    1    2    0    0 -0.42598936602E-01 -0.92334019831E-01  0.63235058271E+02  0.63672143523E+02  0.74470750000E+01 0. -1.
        -31    1    1    2    0    0  0.42598936602E-01  0.92334019831E-01  0.54845688944E+02  0.55349063787E+02  0.74470750000E+01 0.  1.
<mgrwt>
<rscale>  0 0.14932680E+02</rscale>
<asrwt>0</asrwt>
<pdfrwt beam="2">  1        2 0.99866153E+00 0.14932680E+02</pdfrwt>
<pdfrwt beam="1">  1       -2 0.98415062E+00 0.14932680E+02</pdfrwt>
<totfact> 0.24042870E-13</totfact>
</mgrwt>
</event>
<event>
 4    1  0.5167034E-019  0.1491099E+02  0.7818608E-02  0.1870797E+00
         -2   -1    0    0    0  501 -0.00000000000E+00  0.00000000000E+00  0.11848593543E+03  0.11848593546E+03  0.25500000000E-02 0.  1.
          2   -1    0    0  501    0  0.00000000000E+00 -0.00000000000E+00 -0.46911898442E+00  0.46912591492E+00  0.25500000000E-02 0. -1.
         31    1    1    2    0    0  0.25727592391E+00  0.17726325531E+00  0.57676439187E+02  0.58156067409E+02  0.74470750000E+01 0.  1.
        -31    1    1    2    0    0 -0.25727592391E+00 -0.17726325531E+00  0.60340377260E+02  0.60798993964E+02  0.74470750000E+01 0. -1.
<mgrwt>
<rscale>  0 0.14910991E+02</rscale>
<asrwt>0</asrwt>
<pdfrwt beam="2">  1        2 0.99631639E+00 0.14910991E+02</pdfrwt>
<pdfrwt beam="1">  1       -2 0.98360368E+00 0.14910991E+02</pdfrwt>
<totfact> 0.58482117E-13</totfact>
</mgrwt>
</event>
<event>
 4    1  0.5167034E-019  0.1491255E+02  0.7818608E-02  0.1870749E+00
         -2   -1    0    0    0  501 -0.00000000000E+00  0.00000000000E+00  0.11860746270E+03  0.11860746272E+03  0.25500000000E-02 0. -1.
          2   -1    0    0  501    0  0.00000000000E+00 -0.00000000000E+00 -0.46873628024E+00  0.46874321639E+00  0.25500000000E-02 0.  1.
         31    1    1    2    0    0  0.26239110720E+00  0.20166532297E-02  0.56983219093E+02  0.57468382938E+02  0.74470750000E+01 0.  1.
        -31    1    1    2    0    0 -0.26239110720E+00 -0.20166532297E-02  0.61155507322E+02  0.61607823002E+02  0.74470750000E+01 0. -1.
<mgrwt>
<rscale>  0 0.14912550E+02</rscale>
<asrwt>0</asrwt>
<pdfrwt beam="2">  1        2 0.99551084E+00 0.14912550E+02</pdfrwt>
<pdfrwt beam="1">  1       -2 0.98460538E+00 0.14912550E+02</pdfrwt>
<totfact> 0.51027096E-13</totfact>
</mgrwt>
</event>
<event>
 4    1 -0.5167034E-019  0.1501654E+02  0.7818608E-02  0.1867564E+00
         -2   -1    0    0    0  501 -0.00000000000E+00  0.00000000000E+00  0.12032754803E+03  0.12032754805E+03  0.25500000000E-02 0. -1.
          2   -1    0    0  501    0  0.00000000000E+00 -0.00000000000E+00 -0.46850215947E+00  0.46850909909E+00  0.25500000000E-02 0.  1.
         31    1    1    2    0    0 -0.38530763612E+00 -0.80334566411E+00  0.62732145198E+02  0.63178910987E+02  0.74470750000E+01 0.  1.
        -31    1    1    2    0    0  0.38530763612E+00  0.80334566411E+00  0.57126900667E+02  0.57617146165E+02  0.74470750000E+01 0. -1.
<mgrwt>
<rscale>  0 0.15016542E+02</rscale>
<asrwt>0</asrwt>
<pdfrwt beam="2">  1        2 0.99507154E+00 0.15016542E+02</pdfrwt>
<pdfrwt beam="1">  1       -2 0.99882632E+00 0.15016542E+02</pdfrwt>
<totfact>-0.44550533E-14</totfact>
</mgrwt>
</event>
<event>
 4    1  0.5167034E-019  0.1497772E+02  0.7818608E-02  0.1868749E+00
          2   -1    0    0  501    0  0.00000000000E+00  0.00000000000E+00  0.12040091060E+03  0.12040091062E+03  0.25500000000E-02 0.  1.
         -2   -1    0    0    0  501 -0.00000000000E+00 -0.00000000000E+00 -0.46579887840E+00  0.46580585829E+00  0.25500000000E-02 0. -1.
         31    1    1    2    0    0 -0.17118771839E+00 -0.25345169613E+00  0.54089554619E+02  0.54600662889E+02  0.74470750000E+01 0. -1.
        -31    1    1    2    0    0  0.17118771839E+00  0.25345169613E+00  0.65845557099E+02  0.66266053592E+02  0.74470750000E+01 0.  1.
<mgrwt>
<rscale>  0 0.14977721E+02</rscale>
<asrwt>0</asrwt>
<pdfrwt beam="1">  1        2 0.99941058E+00 0.14977721E+02</pdfrwt>
<pdfrwt beam="2">  1       -2 0.98935447E+00 0.14977721E+02</pdfrwt>
<totfact> 0.91068324E-15</totfact>
</mgrwt>
</event>
<event>
 4    1 -0.5167034E-019  0.1500106E+02  0.7818608E-02  0.1868036E+00
         -2   -1    0    0    0  501 -0.00000000000E+00  0.00000000000E+00  0.12013564257E+03  0.12013564260E+03  0.25500000000E-02 0. -1.
          2   -1    0    0  501    0  0.00000000000E+00 -0.00000000000E+00 -0.46828358859E+00  0.46829053145E+00  0.25500000000E-02 0.  1.
         31    1    1    2    0    0  0.49797776356E+00 -0.64929631996E+00  0.62726589522E+02  0.63172411119E+02  0.74470750000E+01 0. -1.
        -31    1    1    2    0    0 -0.49797776356E+00  0.64929631996E+00  0.56940769465E+02  0.57431522014E+02  0.74470750000E+01 0.  1.
<mgrwt>
<rscale>  0 0.15001063E+02</rscale>
<asrwt>0</asrwt>
<pdfrwt beam="2">  1        2 0.99460295E+00 0.15001063E+02</pdfrwt>
<pdfrwt beam="1">  1       -2 0.99723770E+00 0.15001063E+02</pdfrwt>
<totfact>-0.94006103E-14</totfact>
</mgrwt>
</event>
<event>
 4    1  0.5167034E-019  0.1493336E+02  0.7818608E-02  0.1870109E+00
         -2   -1    0    0    0  501 -0.00000000000E+00  0.00000000000E+00  0.11896540658E+03  0.11896540661E+03  0.25500000000E-02 0.  1.
          2   -1    0    0  501    0  0.00000000000E+00 -0.00000000000E+00 -0.46863135956E+00  0.46863829726E+00  0.25500000000E-02 0. -1.
         31    1    1    2    0    0 -0.43966870047E+00  0.21313777868E+00  0.61101286685E+02  0.61555380730E+02  0.74470750000E+01 0.  1.
        -31    1    1    2    0    0  0.43966870047E+00 -0.21313777868E+00  0.57395488534E+02  0.57878664172E+02  0.74470750000E+01 0. -1.
<mgrwt>
<rscale>  0 0.14933363E+02</rscale>
<asrwt>0</asrwt>
<pdfrwt beam="2">  1        2 0.99530067E+00 0.14933363E+02</pdfrwt>
<pdfrwt beam="1">  1       -2 0.98756425E+00 0.14933363E+02</pdfrwt>
<totfact> 0.18439976E-13</totfact>
</mgrwt>
</event>
<event>
 4    1 -0.5167034E-019  0.1498535E+02  0.7818608E-02  0.1868516E+00
         -2   -1    0    0    0  501 -0.00000000000E+00  0.00000000000E+00  0.12031415049E+03  0.12031415051E+03  0.25500000000E-02 0.  1.
          2   -1    0    0  501    0  0.00000000000E+00 -0.00000000000E+00 -0.46661003265E+00  0.46661700040E+00  0.25500000000E-02 0. -1.
         31    1    1    2    0    0  0.80974578908E+00  0.14974223996E+00  0.59469611983E+02  0.59939734621E+02  0.74470750000E+01 0. -1.
        -31    1    1    2    0    0 -0.80974578908E+00 -0.14974223996E+00  0.60377928471E+02  0.60841032893E+02  0.74470750000E+01 0. -1.
<mgrwt>
<rscale>  0 0.14985354E+02</rscale>
<asrwt>0</asrwt>
<pdfrwt beam="2">  1        2 0.99106793E+00 0.14985354E+02</pdfrwt>
<pdfrwt beam="1">  1       -2 0.99869989E+00 0.14985354E+02</pdfrwt>
<totfact>-0.67014411E-14</totfact>
</mgrwt>
</event>
<event>
 4    1 -0.5167034E-019  0.1500453E+02  0.7818608E-02  0.1867930E+00
          2   -1    0    0  501    0  0.00000000000E+00  0.00000000000E+00  0.12006814792E+03  0.12006814795E+03  0.25500000000E-02 0. -1.
         -2   -1    0    0    0  501 -0.00000000000E+00 -0.00000000000E+00 -0.46876342277E+00  0.46877035852E+00  0.25500000000E-02 0.  1.
         31    1    1    2    0    0 -0.72142229928E-02  0.62837773173E+00  0.54531008991E+02  0.55040755611E+02  0.74470750000E+01 0.  1.
        -31    1    1    2    0    0  0.72142229928E-02 -0.62837773173E+00  0.65068375508E+02  0.65496162696E+02  0.74470750000E+01 0. -1.
<mgrwt>
<rscale>  0 0.15004529E+02</rscale>
<asrwt>0</asrwt>
<pdfrwt beam="1">  1        2 0.99668358E+00 0.15004529E+02</pdfrwt>
<pdfrwt beam="2">  1       -2 0.99561594E+00 0.15004529E+02</pdfrwt>
<totfact>-0.91385762E-14</totfact>
</mgrwt>
</event>
<event>
 4    1  0.5167034E-019  0.1492482E+02  0.7818608E-02  0.1870371E+00
          2   -1    0    0  501    0  0.00000000000E+00  0.00000000000E+00  0.12013009190E+03  0.12013009193E+03  0.25500000000E-02 0.  1.
         -2   -1    0    0    0  501 -0.00000000000E+00 -0.00000000000E+00 -0.46355699687E+00  0.46356401052E+00  0.25500000000E-02 0. -1.
         31    1    1    2    0    0  0.16096325782E-01  0.25988020299E+00  0.56592701416E+02  0.57081175325E+02  0.74470750000E+01 0. -1.
        -31    1    1    2    0    0 -0.16096325782E-01 -0.25988020299E+00  0.63073833492E+02  0.63512480618E+02  0.74470750000E+01 0.  1.
<mgrwt>
<rscale>  0 0.14924821E+02</rscale>
<asrwt>0</asrwt>
<pdfrwt beam="1">  1        2 0.99715272E+00 0.14924821E+02</pdfrwt>
<pdfrwt beam="2">  1       -2 0.98460255E+00 0.14924821E+02</pdfrwt>
<totfact> 0.38522051E-13</totfact>
</mgrwt>
</event>
<event>
 4    1 -0.5167034E-019  0.1498455E+02  0.7818608E-02  0.1868540E+00
          2   -1    0    0  501    0  0.00000000000E+00  0.00000000000E+00  0.12017914114E+03  0.12017914116E+03  0.25500000000E-02 0. -1.
         -2   -1    0    0    0  501 -0.00000000000E+00 -0.00000000000E+00 -0.46708416625E+00  0.46709112693E+00  0.25500000000E-02 0.  1.
         31    1    1    2    0    0 -0.25816716549E+00  0.58707033197E+00  0.63992645201E+02  0.64427702642E+02  0.74470750000E+01 0. -1.
        -31    1    1    2    0    0  0.25816716549E+00 -0.58707033197E+00  0.55719411768E+02  0.56218529648E+02  0.74470750000E+01 0.  1.
<mgrwt>
<rscale>  0 0.14984551E+02</rscale>
<asrwt>0</asrwt>
<pdfrwt beam="1">  1        2 0.99758746E+00 0.14984551E+02</pdfrwt>
<pdfrwt beam="2">  1       -2 0.99206675E+00 0.14984551E+02</pdfrwt>
<totfact>-0.51136428E-14</totfact>
</mgrwt>
</event>
<event>
 4    1 -0.5167034E-019  0.1492793E+02  0.7818608E-02  0.1870276E+00
          2   -1    0    0  501    0  0.00000000000E+00  0.00000000000E+00  0.11856712410E+03  0.11856712413E+03  0.25500000000E-02 0.  1.
         -2   -1    0    0    0  501 -0.00000000000E+00 -0.00000000000E+00 -0.46986360937E+00  0.46987052888E+00  0.25500000000E-02 0. -1.
         31    1    1    2    0    0  0.45340009823E+00 -0.84764124646E-02  0.60762986316E+02  0.61219319463E+02  0.74470750000E+01 0.  1.
        -31    1    1    2    0    0 -0.45340009823E+00  0.84764124646E-02  0.57334274179E+02  0.57817675197E+02  0.74470750000E+01 0.  1.
<mgrwt>
<rscale>  0 0.14927932E+02</rscale>
<asrwt>0</asrwt>
<pdfrwt beam="1">  1        2 0.98428116E+00 0.14927932E+02</pdfrwt>
<pdfrwt beam="2">  1       -2 0.99789426E+00 0.14927932E+02</pdfrwt>
<totfact>-0.24184149E-13</totfact>
</mgrwt>
</event>
<event>
 4    1  0.5167034E-019  0.1489983E+02  0.7818608E-02  0.1871141E+00
         -2   -1    0    0    0  501 -0.00000000000E+00  0.00000000000E+00  0.11824810931E+03  0.11824810933E+03  0.25500000000E-02 0.  1.
          2   -1    0    0  501    0  0.00000000000E+00 -0.00000000000E+00 -0.46935936316E+00  0.46936629010E+00  0.25500000000E-02 0. -1.
         31    1    1    2    0    0 -0.34963924635E-01 -0.19557165285E+00  0.59316467870E+02  0.59782453591E+02  0.74470750000E+01 0. -1.
        -31    1    1    2    0    0  0.34963924635E-01  0.19557165285E+00  0.58462282073E+02  0.58935022032E+02  0.74470750000E+01 0. -1.
<mgrwt>
<rscale>  0 0.14899835E+02</rscale>
<asrwt>0</asrwt>
<pdfrwt beam="2">  1        2 0.99681698E+00 0.14899835E+02</pdfrwt>
<pdfrwt beam="1">  1       -2 0.98163915E+00 0.14899835E+02</pdfrwt>
<totfact> 0.80879453E-13</totfact>
</mgrwt>
</event>
<event>
 4    1 -0.5167034E-019  0.1496512E+02  0.7818608E-02  0.1869135E+00
          2   -1    0    0  501    0  0.00000000000E+00  0.00000000000E+00  0.11946067943E+03  0.11946067945E+03  0.25500000000E-02 0.  1.
         -2   -1    0    0    0  501 -0.00000000000E+00 -0.00000000000E+00 -0.46867521317E+00  0.46868215022E+00  0.25500000000E-02 0. -1.
         31    1    1    2    0    0  0.17149935424E+00  0.52276482253E+00  0.63314669053E+02  0.63753501382E+02  0.74470750000E+01 0.  1.
        -31    1    1    2    0    0 -0.17149935424E+00 -0.52276482253E+00  0.55677335159E+02  0.56175860221E+02  0.74470750000E+01 0. -1.
<mgrwt>
<rscale>  0 0.14965116E+02</rscale>
<asrwt>0</asrwt>
<pdfrwt beam="1">  1        2 0.99165987E+00 0.14965116E+02</pdfrwt>
<pdfrwt beam="2">  1       -2 0.99540964E+00 0.14965116E+02</pdfrwt>
<totfact>-0.15280059E-13</totfact>
</mgrwt>
</event>
<event>
 4    1 -0.5167034E-019  0.1494103E+02  0.7818608E-02  0.1869873E+00
          2   -1    0    0  501    0  0.00000000000E+00  0.00000000000E+00  0.11876505018E+03  0.11876505021E+03  0.25500000000E-02 0.  1.
         -2   -1    0    0    0  501 -0.00000000000E+00 -0.00000000000E+00 -0.46990389185E+00  0.46991081076E+00  0.25500000000E-02 0. -1.
         31    1    1    2    0    0 -0.49060762259E+00 -0.32920114183E+00  0.59339455726E+02  0.59807850665E+02  0.74470750000E+01 0.  1.
        -31    1    1    2    0    0  0.49060762259E+00  0.32920114183E+00  0.58955690563E+02  0.59427110354E+02  0.74470750000E+01 0.  1.
<mgrwt>
<rscale>  0 0.14941027E+02</rscale>
<asrwt>0</asrwt>
<pdfrwt beam="1">  1        2 0.98591808E+00 0.14941027E+02</pdfrwt>
<pdfrwt beam="2">  1       -2 0.99798604E+00 0.14941027E+02</pdfrwt>
<totfact>-0.17935488E-13</totfact>
</mgrwt>
</event>
<event>
 4    1 -0.5167034E-019  0.1497125E+02  0.7818608E-02  0.1868947E+00
         -2   -1    0    0    0  501 -0.00000000000E+00  0.00000000000E+00  0.11972848666E+03  0.11972848669E+03  0.25500000000E-02 0. -1.
          2   -1    0    0  501    0  0.00000000000E+00 -0.00000000000E+00 -0.46801028467E+00  0.46801723158E+00  0.25500000000E-02 0.  1.
         31    1    1    2    0    0 -0.33792709784E+00  0.63071592783E+00  0.61655883075E+02  0.62108122183E+02  0.74470750000E+01 0. -1.
        -31    1    1    2    0    0  0.33792709784E+00 -0.63071592783E+00  0.57604593301E+02  0.58088381737E+02  0.74470750000E+01 0. -1.
<mgrwt>
<rscale>  0 0.14971250E+02</rscale>
<asrwt>0</asrwt>
<pdfrwt beam="2">  1        2 0.99401162E+00 0.14971250E+02</pdfrwt>
<pdfrwt beam="1">  1       -2 0.99386879E+00 0.14971250E+02</pdfrwt>
<totfact>-0.12646655E-13</totfact>
</mgrwt>
</event>
<event>
 4    1  0.5167034E-019  0.1489716E+02  0.7818608E-02  0.1871223E+00
          2   -1    0    0  501    0  0.00000000000E+00  0.00000000000E+00  0.12039443335E+03  0.12039443338E+03  0.25500000000E-02 0.  1.
         -2   -1    0    0    0  501 -0.00000000000E+00 -0.00000000000E+00 -0.46082645811E+00  0.46083351332E+00  0.25500000000E-02 0. -1.
         31    1    1    2    0    0 -0.19103432054E-02  0.28452501977E-01  0.61159912975E+02  0.61611644146E+02  0.74470750000E+01 0.  1.
        -31    1    1    2    0    0  0.19103432054E-02 -0.28452501977E-01  0.58773693918E+02  0.59243622745E+02  0.74470750000E+01 0. -1.
<mgrwt>
<rscale>  0 0.14897163E+02</rscale>
<asrwt>0</asrwt>
<pdfrwt beam="1">  1        2 0.99931590E+00 0.14897163E+02</pdfrwt>
<pdfrwt beam="2">  1       -2 0.97883331E+00 0.14897163E+02</pdfrwt>
<totfact> 0.37126412E-13</totfact>
</mgrwt>
</event>
<event>
 4    1 -0.5167034E-019  0.1495631E+02  0.7818608E-02  0.1869405E+00
         -2   -1    0    0    0  501 -0.00000000000E+00  0.00000000000E+00  0.12023478961E+03  0.12023478963E+03  0.25500000000E-02 0.  1.
          2   -1    0    0  501    0  0.00000000000E+00 -0.00000000000E+00 -0.46510977021E+00  0.46511676044E+00  0.25500000000E-02 0. -1.
         31    1    1    2    0    0 -0.32858947651E+00  0.59397233316E+00  0.60334068029E+02  0.60795719136E+02  0.74470750000E+01 0. -1.
        -31    1    1    2    0    0  0.32858947651E+00 -0.59397233316E+00  0.59435611806E+02  0.59904187257E+02  0.74470750000E+01 0.  1.
<mgrwt>
<rscale>  0 0.14956310E+02</rscale>
<asrwt>0</asrwt>
<pdfrwt beam="2">  1        2 0.98789121E+00 0.14956310E+02</pdfrwt>
<pdfrwt beam="1">  1       -2 0.99803128E+00 0.14956310E+02</pdfrwt>
<totfact>-0.13282701E-13</totfact>
</mgrwt>
</event>
<event>
 4    1 -0.5167034E-019  0.1491439E+02  0.7818608E-02  0.1870692E+00
         -2   -1    0    0    0  501 -0.00000000000E+00  0.00000000000E+00  0.12006945013E+03  0.12006945015E+03  0.25500000000E-02 0.  1.
          2   -1    0    0  501    0  0.00000000000E+00 -0.00000000000E+00 -0.46314304532E+00  0.46315006523E+00  0.25500000000E-02 0. -1.
         31    1    1    2    0    0 -0.87917940067E-01  0.34865080139E+00  0.60989323301E+02  0.61443354154E+02  0.74470750000E+01 0.  1.
        -31    1    1    2    0    0  0.87917940067E-01 -0.34865080139E+00  0.58616983780E+02  0.59089246064E+02  0.74470750000E+01 0.  1.
<mgrwt>
<rscale>  0 0.14914390E+02</rscale>
<asrwt>0</asrwt>
<pdfrwt beam="2">  1        2 0.98372479E+00 0.14914390E+02</pdfrwt>
<pdfrwt beam="1">  1       -2 0.99664787E+00 0.14914390E+02</pdfrwt>
<totfact>-0.36754468E-13</totfact>
</mgrwt>
</event>
<event>
 4    1 -0.5167034E-019  0.1498728E+02  0.7818608E-02  0.1868457E+00
         -2   -1    0    0    0  501 -0.00000000000E+00  0.00000000000E+00  0.11997950826E+03  0.11997950829E+03  0.25500000000E-02 0.  1.
          2   -1    0    0  501    0  0.00000000000E+00 -0.00000000000E+00 -0.46803191020E+00  0.46803885679E+00  0.25500000000E-02 0. -1.
         31    1    1    2    0    0  0.22281219616E+00  0.75364844615E+00  0.62001706682E+02  0.62452287298E+02  0.74470750000E+01 0.  1.
        -31    1    1    2    0    0 -0.22281219616E+00 -0.75364844615E+00  0.57509769666E+02  0.57995259844E+02  0.74470750000E+01 0. -1.
<mgrwt>
<rscale>  0 0.14987282E+02</rscale>
<asrwt>0</asrwt>
<pdfrwt beam="2">  1        2 0.99406547E+00 0.14987282E+02</pdfrwt>
<pdfrwt beam="1">  1       -2 0.99594459E+00 0.14987282E+02</pdfrwt>
<totfact>-0.12264085E-13</totfact>
</mgrwt>
</event>
<event>
 4    1  0.5167034E-019  0.1492592E+02  0.7818608E-02  0.1870338E+00
          2   -1    0    0  501    0  0.00000000000E+00  0.00000000000E+00  0.12010099731E+03  0.12010099734E+03  0.25500000000E-02 0. -1.
         -2   -1    0    0    0  501 -0.00000000000E+00 -0.00000000000E+00 -0.46373740243E+00  0.46374441335E+00  0.25500000000E-02 0.  1.
         31    1    1    2    0    0 -0.42148331683E+00 -0.22444246085E+00  0.59060883660E+02  0.59530453781E+02  0.74470750000E+01 0. -1.
        -31    1    1    2    0    0  0.42148331683E+00  0.22444246085E+00  0.60576376249E+02  0.61034287971E+02  0.74470750000E+01 0.  1.
<mgrwt>
<rscale>  0 0.14925917E+02</rscale>
<asrwt>0</asrwt>
<pdfrwt beam="1">  1        2 0.99691364E+00 0.14925917E+02</pdfrwt>
<pdfrwt beam="2">  1       -2 0.98498334E+00 0.14925917E+02</pdfrwt>
<totfact> 0.36650249E-13</totfact>
</mgrwt>
</event>
<event>
 4    1 -0.5167034E-019  0.1492613E+02  0.7818608E-02  0.1870331E+00
          2   -1    0    0  501    0  0.00000000000E+00  0.00000000000E+00  0.11869136531E+03  0.11869136534E+03  0.25500000000E-02 0.  1.
         -2   -1    0    0    0  501 -0.00000000000E+00 -0.00000000000E+00 -0.46925835900E+00  0.46926528743E+00  0.25500000000E-02 0. -1.
         31    1    1    2    0    0  0.12818177333E+00  0.44055589180E+00  0.60444145871E+02  0.60902908109E+02  0.74470750000E+01 0. -1.
        -31    1    1    2    0    0 -0.12818177333E+00 -0.44055589180E+00  0.57777961084E+02  0.58257722519E+02  0.74470750000E+01 0.  1.
<mgrwt>
<rscale>  0 0.14926129E+02</rscale>
<asrwt>0</asrwt>
<pdfrwt beam="1">  1        2 0.98530347E+00 0.14926129E+02</pdfrwt>
<pdfrwt beam="2">  1       -2 0.99661803E+00 0.14926129E+02</pdfrwt>
<totfact>-0.28496736E-13</totfact>
</mgrwt>
</event>
<event>
 4    1  0.5167034E-019  0.1490689E+02  0.7818608E-02  0.1870923E+00
         -2   -1    0    0    0  501 -0.00000000000E+00  0.00000000000E+00  0.11843613229E+03  0.11843613231E+03  0.25500000000E-02 0. -1.
          2   -1    0    0  501    0  0.00000000000E+00 -0.00000000000E+00 -0.46905780903E+00  0.46906474043E+00  0.25500000000E-02 0.  1.
         31    1    1    2    0    0  0.13697404269E+00  0.21767228604E+00  0.60335724099E+02  0.60794117081E+02  0.74470750000E+01 0. -1.
        -31    1    1    2    0    0 -0.13697404269E+00 -0.21767228604E+00  0.57631350378E+02  0.58111079972E+02  0.74470750000E+01 0.  1.
<mgrwt>
<rscale>  0 0.14906885E+02</rscale>
<asrwt>0</asrwt>
<pdfrwt beam="2">  1        2 0.99618533E+00 0.14906885E+02</pdfrwt>
<pdfrwt beam="1">  1       -2 0.98319136E+00 0.14906885E+02</pdfrwt>
<totfact> 0.65662567E-13</totfact>
</mgrwt>
</event>
<event>
 4    1 -0.5167034E-019  0.1494266E+02  0.7818608E-02  0.1869823E+00
         -2   -1    0    0    0  501 -0.00000000000E+00  0.00000000000E+00  0.11963942846E+03  0.11963942849E+03  0.25500000000E-02 0.  1.
          2   -1    0    0  501    0  0.00000000000E+00 -0.00000000000E+00 -0.46657165671E+00  0.46657862505E+00  0.25500000000E-02 0. -1.
         31    1    1    2    0    0  0.31254491520E+00  0.32305361471E+00  0.62799660046E+02  0.63241270354E+02  0.74470750000E+01 0. -1.
        -31    1    1    2    0    0 -0.31254491520E+00 -0.32305361471E+00  0.56373196759E+02  0.56864736761E+02  0.74470750000E+01 0. -1.
<mgrwt>
<rscale>  0 0.14942662E+02</rscale>
<asrwt>0</asrwt>
<pdfrwt beam="2">  1        2 0.99096514E+00 0.14942662E+02</pdfrwt>
<pdfrwt beam="1">  1       -2 0.99312050E+00 0.14942662E+02</pdfrwt>
<totfact>-0.14526365E-13</totfact>
</mgrwt>
</event>
<event>
 4    1  0.5167034E-019  0.1494091E+02  0.7818608E-02  0.1869877E+00
          2   -1    0    0  501    0  0.00000000000E+00  0.00000000000E+00  0.12029848794E+03  0.12029848797E+03  0.25500000000E-02 0.  1.
         -2   -1    0    0    0  501 -0.00000000000E+00 -0.00000000000E+00 -0.46390668109E+00  0.46391368945E+00  0.25500000000E-02 0. -1.
         31    1    1    2    0    0 -0.26206493740E+00 -0.52916071854E+00  0.59990452831E+02  0.60453800923E+02  0.74470750000E+01 0. -1.
        -31    1    1    2    0    0  0.26206493740E+00  0.52916071854E+00  0.59844128430E+02  0.60308600736E+02  0.74470750000E+01 0. -1.
<mgrwt>
<rscale>  0 0.14940910E+02</rscale>
<asrwt>0</asrwt>
<pdfrwt beam="1">  1        2 0.99854803E+00 0.14940910E+02</pdfrwt>
<pdfrwt beam="2">  1       -2 0.98534772E+00 0.14940910E+02</pdfrwt>
<totfact> 0.18568039E-13</totfact>
</mgrwt>
</event>
<event>
 4    1 -0.5167034E-019  0.1501729E+02  0.7818608E-02  0.1867541E+00
         -2   -1    0    0    0  501 -0.00000000000E+00  0.00000000000E+00  0.12003249323E+03  0.12003249325E+03  0.25500000000E-02 0. -1.
          2   -1    0    0  501    0  0.00000000000E+00 -0.00000000000E+00 -0.46970032098E+00  0.46970724289E+00  0.25500000000E-02 0.  1.
         31    1    1    2    0    0 -0.73315952361E+00  0.52811004080E+00  0.57189058452E+02  0.57678971522E+02  0.74470750000E+01 0.  1.
        -31    1    1    2    0    0  0.73315952361E+00 -0.52811004080E+00  0.62373734454E+02  0.62823228975E+02  0.74470750000E+01 0. -1.
<mgrwt>
<rscale>  0 0.15017286E+02</rscale>
<asrwt>0</asrwt>
<pdfrwt beam="2">  1        2 0.99759690E+00 0.15017286E+02</pdfrwt>
<pdfrwt beam="1">  1       -2 0.99639650E+00 0.15017286E+02</pdfrwt>
<totfact>-0.67215062E-14</totfact>
</mgrwt>
</event>
<event>
 4    1 -0.5167034E-019  0.1497324E+02  0.7818608E-02  0.1868886E+00
         -2   -1    0    0    0  501 -0.00000000000E+00  0.00000000000E+00  0.11995696856E+03  0.11995696859E+03  0.25500000000E-02 0. -1.
          2   -1    0    0  501    0  0.00000000000E+00 -0.00000000000E+00 -0.46724285491E+00  0.46724981323E+00  0.25500000000E-02 0.  1.
         31    1    1    2    0    0  0.76323695263E+00  0.43795963405E-01  0.59117626492E+02  0.59589740198E+02  0.74470750000E+01 0. -1.
        -31    1    1    2    0    0 -0.76323695263E+00 -0.43795963405E-01  0.60372099216E+02  0.60834478205E+02  0.74470750000E+01 0. -1.
<mgrwt>
<rscale>  0 0.14973237E+02</rscale>
<asrwt>0</asrwt>
<pdfrwt beam="2">  1        2 0.99239537E+00 0.14973237E+02</pdfrwt>
<pdfrwt beam="1">  1       -2 0.99575169E+00 0.14973237E+02</pdfrwt>
<totfact>-0.14136569E-13</totfact>
</mgrwt>
</event>
<event>
 4    1  0.5167034E-019  0.1489969E+02  0.7818608E-02  0.1871145E+00
         -2   -1    0    0    0  501 -0.00000000000E+00  0.00000000000E+00  0.11793137662E+03  0.11793137665E+03  0.25500000000E-02 0.  1.
          2   -1    0    0  501    0  0.00000000000E+00 -0.00000000000E+00 -0.47061055285E+00  0.47061746138E+00  0.25500000000E-02 0. -1.
         31    1    1    2    0    0 -0.14752100208E+00 -0.11619963406E+00  0.58116376014E+02  0.58591871039E+02  0.74470750000E+01 0.  1.
        -31    1    1    2    0    0  0.14752100208E+00  0.11619963406E+00  0.59344390054E+02  0.59810123071E+02  0.74470750000E+01 0.  1.
<mgrwt>
<rscale>  0 0.14899686E+02</rscale>
<asrwt>0</asrwt>
<pdfrwt beam="2">  1        2 0.99945302E+00 0.14899686E+02</pdfrwt>
<pdfrwt beam="1">  1       -2 0.97903053E+00 0.14899686E+02</pdfrwt>
<totfact> 0.29224182E-13</totfact>
</mgrwt>
</event>
<event>
 4    1  0.5167034E-019  0.1492339E+02  0.7818608E-02  0.1870415E+00
          2   -1    0    0  501    0  0.00000000000E+00  0.00000000000E+00  0.12027459838E+03  0.12027459841E+03  0.25500000000E-02 0. -1.
         -2   -1    0    0    0  501 -0.00000000000E+00 -0.00000000000E+00 -0.46291106559E+00  0.46291808902E+00  0.25500000000E-02 0.  1.
         31    1    1    2    0    0  0.56105129778E-02 -0.10677294300E+00  0.56229250913E+02  0.56720358040E+02  0.74470750000E+01 0.  1.
        -31    1    1    2    0    0 -0.56105129778E-02  0.10677294300E+00  0.63582436401E+02  0.64017158455E+02  0.74470750000E+01 0. -1.
<mgrwt>
<rscale>  0 0.14923387E+02</rscale>
<asrwt>0</asrwt>
<pdfrwt beam="1">  1        2 0.99834226E+00 0.14923387E+02</pdfrwt>
<pdfrwt beam="2">  1       -2 0.98324040E+00 0.14923387E+02</pdfrwt>
<totfact> 0.35691646E-13</totfact>
</mgrwt>
</event>
<event>
 4    1  0.5167034E-019  0.1489626E+02  0.7818608E-02  0.1871251E+00
         -2   -1    0    0    0  501 -0.00000000000E+00  0.00000000000E+00  0.11862150767E+03  0.11862150770E+03  0.25500000000E-02 0.  1.
          2   -1    0    0  501    0  0.00000000000E+00 -0.00000000000E+00 -0.46765752543E+00  0.46766447758E+00  0.25500000000E-02 0. -1.
         31    1    1    2    0    0  0.71885083222E-01 -0.39509033325E-01  0.58318415872E+02  0.58792034191E+02  0.74470750000E+01 0. -1.
        -31    1    1    2    0    0 -0.71885083222E-01  0.39509033325E-01  0.59835434272E+02  0.60297137983E+02  0.74470750000E+01 0.  1.
<mgrwt>
<rscale>  0 0.14896262E+02</rscale>
<asrwt>0</asrwt>
<pdfrwt beam="2">  1        2 0.99322925E+00 0.14896262E+02</pdfrwt>
<pdfrwt beam="1">  1       -2 0.98471260E+00 0.14896262E+02</pdfrwt>
<totfact> 0.60968361E-13</totfact>
</mgrwt>
</event>
<event>
 4    1  0.5167034E-019  0.1489599E+02  0.7818608E-02  0.1871259E+00
          2   -1    0    0  501    0  0.00000000000E+00  0.00000000000E+00  0.12027302342E+03  0.12027302345E+03  0.25500000000E-02 0.  1.
         -2   -1    0    0    0  501 -0.00000000000E+00 -0.00000000000E+00 -0.46121868045E+00  0.46122572965E+00  0.25500000000E-02 0. -1.
         31    1    1    2    0    0  0.84440433058E-01 -0.21678106422E-01  0.60537175965E+02  0.60993575071E+02  0.74470750000E+01 0.  1.
        -31    1    1    2    0    0 -0.84440433058E-01  0.21678106422E-01  0.59274628774E+02  0.59740674105E+02  0.74470750000E+01 0.  1.
<mgrwt>
<rscale>  0 0.14895985E+02</rscale>
<asrwt>0</asrwt>
<pdfrwt beam="1">  1        2 0.99831525E+00 0.14895985E+02</pdfrwt>
<pdfrwt beam="2">  1       -2 0.97965945E+00 0.14895985E+02</pdfrwt>
<totfact> 0.71719749E-13</totfact>
</mgrwt>
</event>
<event>
 4    1  0.5167034E-019  0.1490894E+02  0.7818608E-02  0.1870860E+00
         -2   -1    0    0    0  501 -0.00000000000E+00  0.00000000000E+00  0.11886192304E+03  0.11886192306E+03  0.25500000000E-02 0.  1.
          2   -1    0    0  501    0  0.00000000000E+00 -0.00000000000E+00 -0.46750629809E+00  0.46751325249E+00  0.25500000000E-02 0. -1.
         31    1    1    2    0    0 -0.63721940628E-01 -0.16309628649E+00  0.61454350094E+02  0.61904173789E+02  0.74470750000E+01 0.  1.
        -31    1    1    2    0    0  0.63721940628E-01  0.16309628649E+00  0.56940066643E+02  0.57425262527E+02  0.74470750000E+01 0. -1.
<mgrwt>
<rscale>  0 0.14908939E+02</rscale>
<asrwt>0</asrwt>
<pdfrwt beam="2">  1        2 0.99291722E+00 0.14908939E+02</pdfrwt>
<pdfrwt beam="1">  1       -2 0.98669927E+00 0.14908939E+02</pdfrwt>
<totfact> 0.32943732E-13</totfact>
</mgrwt>
</event>
<event>
 4    1  0.5167034E-019  0.1491422E+02  0.7818608E-02  0.1870698E+00
          2   -1    0    0  501    0  0.00000000000E+00  0.00000000000E+00  0.11980514430E+03  0.11980514433E+03  0.25500000000E-02 0.  1.
         -2   -1    0    0    0  501 -0.00000000000E+00 -0.00000000000E+00 -0.46415394425E+00  0.46416094888E+00  0.25500000000E-02 0. -1.
         31    1    1    2    0    0 -0.24340265379E-01  0.23832064183E+00  0.62118281652E+02  0.62563545540E+02  0.74470750000E+01 0.  1.
        -31    1    1    2    0    0  0.24340265379E-01 -0.23832064183E+00  0.57222708707E+02  0.57705759738E+02  0.74470750000E+01 0. -1.
<mgrwt>
<rscale>  0 0.14914215E+02</rscale>
<asrwt>0</asrwt>
<pdfrwt beam="1">  1        2 0.99447076E+00 0.14914215E+02</pdfrwt>
<pdfrwt beam="2">  1       -2 0.98585529E+00 0.14914215E+02</pdfrwt>
<totfact> 0.39357164E-13</totfact>
</mgrwt>
</event>
<event>
 4    1  0.5167034E-019  0.1492835E+02  0.7818608E-02  0.1870263E+00
          2   -1    0    0  501    0  0.00000000000E+00  0.00000000000E+00  0.12030592049E+03  0.12030592051E+03  0.25500000000E-02 0. -1.
         -2   -1    0    0    0  501 -0.00000000000E+00 -0.00000000000E+00 -0.46309842077E+00  0.46310544136E+00  0.25500000000E-02 0.  1.
         31    1    1    2    0    0  0.15066514642E+00  0.66519693578E-01  0.56059747648E+02  0.56552465528E+02  0.74470750000E+01 0.  1.
        -31    1    1    2    0    0 -0.15066514642E+00 -0.66519693578E-01  0.63783074417E+02  0.64216560426E+02  0.74470750000E+01 0. -1.
<mgrwt>
<rscale>  0 0.14928350E+02</rscale>
<asrwt>0</asrwt>
<pdfrwt beam="1">  1        2 0.99860280E+00 0.14928350E+02</pdfrwt>
<pdfrwt beam="2">  1       -2 0.98363780E+00 0.14928350E+02</pdfrwt>
<totfact> 0.28251085E-13</totfact>
</mgrwt>
</event>
<event>
 4    1  0.5167034E-019  0.1493018E+02  0.7818608E-02  0.1870207E+00
         -2   -1    0    0    0  501 -0.00000000000E+00  0.00000000000E+00  0.11843857813E+03  0.11843857816E+03  0.25500000000E-02 0.  1.
          2   -1    0    0  501    0  0.00000000000E+00 -0.00000000000E+00 -0.47051511996E+00  0.47052202989E+00  0.25500000000E-02 0. -1.
         31    1    1    2    0    0 -0.69533489960E-01  0.36963042622E+00  0.61824151638E+02  0.62272193741E+02  0.74470750000E+01 0.  1.
        -31    1    1    2    0    0  0.69533489960E-01 -0.36963042622E+00  0.56143911377E+02  0.56636906450E+02  0.74470750000E+01 0. -1.
<mgrwt>
<rscale>  0 0.14930178E+02</rscale>
<asrwt>0</asrwt>
<pdfrwt beam="2">  1        2 0.99926816E+00 0.14930178E+02</pdfrwt>
<pdfrwt beam="1">  1       -2 0.98322364E+00 0.14930178E+02</pdfrwt>
<totfact> 0.17525834E-13</totfact>
</mgrwt>
</event>
<event>
 4    1  0.5167034E-019  0.1492013E+02  0.7818608E-02  0.1870515E+00
          2   -1    0    0  501    0  0.00000000000E+00  0.00000000000E+00  0.11980902540E+03  0.11980902543E+03  0.25500000000E-02 0. -1.
         -2   -1    0    0    0  501 -0.00000000000E+00 -0.00000000000E+00 -0.46450743178E+00  0.46451443108E+00  0.25500000000E-02 0.  1.
         31    1    1    2    0    0 -0.27368774030E+00  0.20673066382E+00  0.61895102064E+02  0.62342443232E+02  0.74470750000E+01 0. -1.
        -31    1    1    2    0    0  0.27368774030E+00 -0.20673066382E+00  0.57449415907E+02  0.57931096629E+02  0.74470750000E+01 0.  1.
<mgrwt>
<rscale>  0 0.14920135E+02</rscale>
<asrwt>0</asrwt>
<pdfrwt beam="1">  1        2 0.99450578E+00 0.14920135E+02</pdfrwt>
<pdfrwt beam="2">  1       -2 0.98660330E+00 0.14920135E+02</pdfrwt>
<totfact> 0.30175422E-13</totfact>
</mgrwt>
</event>
<event>
 4    1 -0.5167034E-019  0.1495259E+02  0.7818608E-02  0.1869519E+00
         -2   -1    0    0    0  501 -0.00000000000E+00  0.00000000000E+00  0.12021573102E+03  0.12021573104E+03  0.25500000000E-02 0. -1.
          2   -1    0    0  501    0  0.00000000000E+00 -0.00000000000E+00 -0.46495201225E+00  0.46495900486E+00  0.25500000000E-02 0.  1.
         31    1    1    2    0    0 -0.15698592710E+00  0.61040562273E+00  0.58285527689E+02  0.58762733970E+02  0.74470750000E+01 0. -1.
        -31    1    1    2    0    0  0.15698592710E+00 -0.61040562273E+00  0.61465251315E+02  0.61917956078E+02  0.74470750000E+01 0. -1.
<mgrwt>
<rscale>  0 0.14952588E+02</rscale>
<asrwt>0</asrwt>
<pdfrwt beam="2">  1        2 0.98755683E+00 0.14952588E+02</pdfrwt>
<pdfrwt beam="1">  1       -2 0.99787238E+00 0.14952588E+02</pdfrwt>
<totfact>-0.14768846E-13</totfact>
</mgrwt>
</event>
<event>
 4    1 -0.5167034E-019  0.1499848E+02  0.7818608E-02  0.1868115E+00
         -2   -1    0    0    0  501 -0.00000000000E+00  0.00000000000E+00  0.11990128172E+03  0.11990128175E+03  0.25500000000E-02 0. -1.
          2   -1    0    0  501    0  0.00000000000E+00 -0.00000000000E+00 -0.46903745684E+00  0.46904438854E+00  0.25500000000E-02 0.  1.
         31    1    1    2    0    0  0.81435667923E+00  0.18945665976E-01  0.56980976877E+02  0.57471333617E+02  0.74470750000E+01 0. -1.
        -31    1    1    2    0    0 -0.81435667923E+00 -0.18945665976E-01  0.62451267385E+02  0.62898992518E+02  0.74470750000E+01 0.  1.
<mgrwt>
<rscale>  0 0.14998481E+02</rscale>
<asrwt>0</asrwt>
<pdfrwt beam="2">  1        2 0.99619029E+00 0.14998481E+02</pdfrwt>
<pdfrwt beam="1">  1       -2 0.99530608E+00 0.14998481E+02</pdfrwt>
<totfact>-0.10147287E-13</totfact>
</mgrwt>
</event>
<event>
 4    1  0.5167034E-019  0.1490139E+02  0.7818608E-02  0.1871093E+00
          2   -1    0    0  501    0  0.00000000000E+00  0.00000000000E+00  0.11998032878E+03  0.11998032881E+03  0.25500000000E-02 0. -1.
         -2   -1    0    0    0  501 -0.00000000000E+00 -0.00000000000E+00 -0.46267924604E+00  0.46268627299E+00  0.25500000000E-02 0.  1.
         31    1    1    2    0    0 -0.14499109634E+00  0.97285784268E-01  0.60995760595E+02  0.61448939971E+02  0.74470750000E+01 0. -1.
        -31    1    1    2    0    0  0.14499109634E+00 -0.97285784268E-01  0.58521888943E+02  0.58994075114E+02  0.74470750000E+01 0.  1.
<mgrwt>
<rscale>  0 0.14901387E+02</rscale>
<asrwt>0</asrwt>
<pdfrwt beam="1">  1        2 0.99590712E+00 0.14901387E+02</pdfrwt>
<pdfrwt beam="2">  1       -2 0.98274067E+00 0.14901387E+02</pdfrwt>
<totfact> 0.75534375E-13</totfact>
</mgrwt>
</event>
<event>
 4    1 -0.5167034E-019  0.1493114E+02  0.7818608E-02  0.1870177E+00
         -2   -1    0    0    0  501 -0.00000000000E+00  0.00000000000E+00  0.11956413114E+03  0.11956413117E+03  0.25500000000E-02 0. -1.
          2   -1    0    0  501    0  0.00000000000E+00 -0.00000000000E+00 -0.46614562155E+00  0.46615259625E+00  0.25500000000E-02 0.  1.
         31    1    1    2    0    0  0.45285382851E+00  0.86857758542E-01  0.57528525784E+02  0.58010368261E+02  0.74470750000E+01 0.  1.
        -31    1    1    2    0    0 -0.45285382851E+00 -0.86857758542E-01  0.61569459732E+02  0.62019915500E+02  0.74470750000E+01 0. -1.
<mgrwt>
<rscale>  0 0.14931137E+02</rscale>
<asrwt>0</asrwt>
<pdfrwt beam="2">  1        2 0.99006138E+00 0.14931137E+02</pdfrwt>
<pdfrwt beam="1">  1       -2 0.99249437E+00 0.14931137E+02</pdfrwt>
<totfact>-0.13768616E-13</totfact>
</mgrwt>
</event>
<event>
 4    1  0.5167034E-019  0.1491028E+02  0.7818608E-02  0.1870819E+00
          2   -1    0    0  501    0  0.00000000000E+00  0.00000000000E+00  0.11969958989E+03  0.11969958992E+03  0.25500000000E-02 0.  1.
         -2   -1    0    0    0  501 -0.00000000000E+00 -0.00000000000E+00 -0.46431828360E+00  0.46432528575E+00  0.25500000000E-02 0. -1.
         31    1    1    2    0    0 -0.23064278562E+00  0.23179641934E+00  0.60546316688E+02  0.61003461510E+02  0.74470750000E+01 0.  1.
        -31    1    1    2    0    0  0.23064278562E+00 -0.23179641934E+00  0.58688954924E+02  0.59160453698E+02  0.74470750000E+01 0. -1.
<mgrwt>
<rscale>  0 0.14910282E+02</rscale>
<asrwt>0</asrwt>
<pdfrwt beam="1">  1        2 0.99359933E+00 0.14910282E+02</pdfrwt>
<pdfrwt beam="2">  1       -2 0.98619963E+00 0.14910282E+02</pdfrwt>
<totfact> 0.37639531E-13</totfact>
</mgrwt>
</event>
<event>
 4    1  0.5167034E-019  0.1493989E+02  0.7818608E-02  0.1869908E+00
         -2   -1    0    0    0  501 -0.00000000000E+00  0.00000000000E+00  0.11869023466E+03  0.11869023468E+03  0.25500000000E-02 0. -1.
          2   -1    0    0  501    0  0.00000000000E+00 -0.00000000000E+00 -0.47012826161E+00  0.47013517723E+00  0.25500000000E-02 0.  1.
         31    1    1    2    0    0  0.53145935338E+00 -0.62222246724E-01  0.60977195440E+02  0.61432594040E+02  0.74470750000E+01 0. -1.
        -31    1    1    2    0    0 -0.53145935338E+00  0.62222246724E-01  0.57242910954E+02  0.57727775821E+02  0.74470750000E+01 0. -1.
<mgrwt>
<rscale>  0 0.14939886E+02</rscale>
<asrwt>0</asrwt>
<pdfrwt beam="2">  1        2 0.99845819E+00 0.14939886E+02</pdfrwt>
<pdfrwt beam="1">  1       -2 0.98530131E+00 0.14939886E+02</pdfrwt>
<totfact> 0.19792884E-13</totfact>
</mgrwt>
</event>
<event>
 4    1  0.5167034E-019  0.1494346E+02  0.7818608E-02  0.1869799E+00
         -2   -1    0    0    0  501 -0.00000000000E+00  0.00000000000E+00  0.11912162484E+03  0.11912162487E+03  0.25500000000E-02 0. -1.
          2   -1    0    0  501    0  0.00000000000E+00 -0.00000000000E+00 -0.46864987279E+00  0.46865681022E+00  0.25500000000E-02 0.  1.
         31    1    1    2    0    0  0.40651800195E+00  0.26689096073E+00  0.62226756991E+02  0.62672679050E+02  0.74470750000E+01 0. -1.
        -31    1    1    2    0    0 -0.40651800195E+00 -0.26689096073E+00  0.56426217974E+02  0.56917602625E+02  0.74470750000E+01 0.  1.
<mgrwt>
<rscale>  0 0.14943460E+02</rscale>
<asrwt>0</asrwt>
<pdfrwt beam="2">  1        2 0.99534496E+00 0.14943460E+02</pdfrwt>
<pdfrwt beam="1">  1       -2 0.98885612E+00 0.14943460E+02</pdfrwt>
<totfact> 0.79816452E-14</totfact>
</mgrwt>
</event>
<event>
 4    1  0.5167034E-019  0.1490929E+02  0.7818608E-02  0.1870849E+00
         -2   -1    0    0    0  501 -0.00000000000E+00  0.00000000000E+00  0.11820504755E+03  0.11820504757E+03  0.25500000000E-02 0.  1.
          2   -1    0    0  501    0  0.00000000000E+00 -0.00000000000E+00 -0.47012646434E+00  0.47013337999E+00  0.25500000000E-02 0. -1.
         31    1    1    2    0    0 -0.22627275895E+00  0.11357751841E+00  0.57110742133E+02  0.57594790495E+02  0.74470750000E+01 0. -1.
        -31    1    1    2    0    0  0.22627275895E+00 -0.11357751841E+00  0.60624178950E+02  0.61080390459E+02  0.74470750000E+01 0. -1.
<mgrwt>
<rscale>  0 0.14909290E+02</rscale>
<asrwt>0</asrwt>
<pdfrwt beam="2">  1        2 0.99843822E+00 0.14909290E+02</pdfrwt>
<pdfrwt beam="1">  1       -2 0.98128943E+00 0.14909290E+02</pdfrwt>
<totfact> 0.50671252E-13</totfact>
</mgrwt>
</event>
<event>
 4    1 -0.5167034E-019  0.1492081E+02  0.7818608E-02  0.1870495E+00
          2   -1    0    0  501    0  0.00000000000E+00  0.00000000000E+00  0.11832232481E+03  0.11832232483E+03  0.25500000000E-02 0. -1.
         -2   -1    0    0    0  501 -0.00000000000E+00 -0.00000000000E+00 -0.47038654426E+00  0.47039345608E+00  0.25500000000E-02 0.  1.
         31    1    1    2    0    0 -0.20112866756E+00 -0.35806961377E+00  0.57545863197E+02  0.58027182972E+02  0.74470750000E+01 0.  1.
        -31    1    1    2    0    0  0.20112866756E+00  0.35806961377E+00  0.60306075065E+02  0.60765535317E+02  0.74470750000E+01 0.  1.
<mgrwt>
<rscale>  0 0.14920810E+02</rscale>
<asrwt>0</asrwt>
<pdfrwt beam="1">  1        2 0.98226131E+00 0.14920810E+02</pdfrwt>
<pdfrwt beam="2">  1       -2 0.99899229E+00 0.14920810E+02</pdfrwt>
<totfact>-0.17960725E-13</totfact>
</mgrwt>
</event>
<event>
 4    1  0.5167034E-019  0.1491773E+02  0.7818608E-02  0.1870589E+00
         -2   -1    0    0    0  501 -0.00000000000E+00  0.00000000000E+00  0.11876968714E+03  0.11876968717E+03  0.25500000000E-02 0.  1.
          2   -1    0    0  501    0  0.00000000000E+00 -0.00000000000E+00 -0.46842142537E+00  0.46842836619E+00  0.25500000000E-02 0. -1.
         31    1    1    2    0    0 -0.23146712355E+00  0.18136600164E+00  0.61539000817E+02  0.61988660400E+02  0.74470750000E+01 0.  1.
        -31    1    1    2    0    0  0.23146712355E+00 -0.18136600164E+00  0.56762264902E+02  0.57249455137E+02  0.74470750000E+01 0. -1.
<mgrwt>
<rscale>  0 0.14917732E+02</rscale>
<asrwt>0</asrwt>
<pdfrwt beam="2">  1        2 0.99485013E+00 0.14917732E+02</pdfrwt>
<pdfrwt beam="1">  1       -2 0.98594417E+00 0.14917732E+02</pdfrwt>
<totfact> 0.36887125E-13</totfact>
</mgrwt>
</event>
<event>
 4    1 -0.5167034E-019  0.1491846E+02  0.7818608E-02  0.1870567E+00
          2   -1    0    0  501    0  0.00000000000E+00  0.00000000000E+00  0.11876310754E+03  0.11876310756E+03  0.25500000000E-02 0. -1.
         -2   -1    0    0    0  501 -0.00000000000E+00 -0.00000000000E+00 -0.46849281820E+00  0.46849975796E+00  0.25500000000E-02 0.  1.
         31    1    1    2    0    0  0.15231797821E+00 -0.32713522830E+00  0.57343577438E+02  0.57826248518E+02  0.74470750000E+01 0.  1.
        -31    1    1    2    0    0 -0.15231797821E+00  0.32713522830E+00  0.60951037280E+02  0.61405358803E+02  0.74470750000E+01 0. -1.
<mgrwt>
<rscale>  0 0.14918455E+02</rscale>
<asrwt>0</asrwt>
<pdfrwt beam="1">  1        2 0.98589035E+00 0.14918455E+02</pdfrwt>
<pdfrwt beam="2">  1       -2 0.99500094E+00 0.14918455E+02</pdfrwt>
<totfact>-0.30139313E-13</totfact>
</mgrwt>
</event>
<event>
 4    1 -0.5167034E-019  0.1496954E+02  0.7818608E-02  0.1868999E+00
         -2   -1    0    0    0  501 -0.00000000000E+00  0.00000000000E+00  0.12012171407E+03  0.12012171409E+03  0.25500000000E-02 0.  1.
          2   -1    0    0  501    0  0.00000000000E+00 -0.00000000000E+00 -0.46637159675E+00  0.46637856807E+00  0.25500000000E-02 0. -1.
         31    1    1    2    0    0 -0.63284937947E+00 -0.36819747036E+00  0.61146024979E+02  0.61602202595E+02  0.74470750000E+01 0. -1.
        -31    1    1    2    0    0  0.63284937947E+00  0.36819747036E+00  0.58509317490E+02  0.58985890066E+02  0.74470750000E+01 0. -1.
<mgrwt>
<rscale>  0 0.14969539E+02</rscale>
<asrwt>0</asrwt>
<pdfrwt beam="2">  1        2 0.99055733E+00 0.14969539E+02</pdfrwt>
<pdfrwt beam="1">  1       -2 0.99710672E+00 0.14969539E+02</pdfrwt>
<totfact>-0.13275193E-13</totfact>
</mgrwt>
</event>
<event>
 4    1 -0.5167034E-019  0.1499123E+02  0.7818608E-02  0.1868336E+00
         -2   -1    0    0    0  501 -0.00000000000E+00  0.00000000000E+00  0.12038896893E+03  0.12038896896E+03  0.25500000000E-02 0.  1.
          2   -1    0    0  501    0  0.00000000000E+00 -0.00000000000E+00 -0.46668565413E+00  0.46669262076E+00  0.25500000000E-02 0. -1.
         31    1    1    2    0    0  0.57731309200E+00 -0.55695975045E+00  0.62266955439E+02  0.62715836599E+02  0.74470750000E+01 0. -1.
        -31    1    1    2    0    0 -0.57731309200E+00  0.55695975045E+00  0.57655327835E+02  0.58139824978E+02  0.74470750000E+01 0.  1.
<mgrwt>
<rscale>  0 0.14991228E+02</rscale>
<asrwt>0</asrwt>
<pdfrwt beam="2">  1        2 0.99123030E+00 0.14991228E+02</pdfrwt>
<pdfrwt beam="1">  1       -2 0.99931917E+00 0.14991228E+02</pdfrwt>
<totfact>-0.36457880E-14</totfact>
</mgrwt>
</event>
<event>
 4    1 -0.5167034E-019  0.1492572E+02  0.7818608E-02  0.1870344E+00
         -2   -1    0    0    0  501 -0.00000000000E+00  0.00000000000E+00  0.11955931401E+03  0.11955931404E+03  0.25500000000E-02 0.  1.
          2   -1    0    0  501    0  0.00000000000E+00 -0.00000000000E+00 -0.46582633824E+00  0.46583331772E+00  0.25500000000E-02 0. -1.
         31    1    1    2    0    0 -0.16384029175E-01  0.18675468449E+00  0.63145042988E+02  0.63582942097E+02  0.74470750000E+01 0.  1.
        -31    1    1    2    0    0  0.16384029175E-01 -0.18675468449E+00  0.55948444688E+02  0.56442205262E+02  0.74470750000E+01 0. -1.
<mgrwt>
<rscale>  0 0.14925722E+02</rscale>
<asrwt>0</asrwt>
<pdfrwt beam="2">  1        2 0.98938573E+00 0.14925722E+02</pdfrwt>
<pdfrwt beam="1">  1       -2 0.99245190E+00 0.14925722E+02</pdfrwt>
<totfact>-0.14560955E-13</totfact>
</mgrwt>
</event>
<event>
 4    1 -0.5167034E-019  0.1499095E+02  0.7818608E-02  0.1868345E+00
         -2   -1    0    0    0  501 -0.00000000000E+00  0.00000000000E+00  0.12029606465E+03  0.12029606467E+03  0.25500000000E-02 0. -1.
          2   -1    0    0  501    0  0.00000000000E+00 -0.00000000000E+00 -0.46702896163E+00  0.46703592314E+00  0.25500000000E-02 0.  1.
         31    1    1    2    0    0  0.26794709595E+00  0.38912397120E+00  0.54218090057E+02  0.54729182605E+02  0.74470750000E+01 0. -1.
        -31    1    1    2    0    0 -0.26794709595E+00 -0.38912397120E+00  0.65610945628E+02  0.66033917992E+02  0.74470750000E+01 0. -1.
<mgrwt>
<rscale>  0 0.14990953E+02</rscale>
<asrwt>0</asrwt>
<pdfrwt beam="2">  1        2 0.99195369E+00 0.14990953E+02</pdfrwt>
<pdfrwt beam="1">  1       -2 0.99855381E+00 0.14990953E+02</pdfrwt>
<totfact>-0.68753481E-14</totfact>
</mgrwt>
</event>
<event>
 4    1 -0.5167034E-019  0.1498030E+02  0.7818608E-02  0.1868670E+00
          2   -1    0    0  501    0  0.00000000000E+00  0.00000000000E+00  0.11931870654E+03  0.11931870657E+03  0.25500000000E-02 0.  1.
         -2   -1    0    0    0  501 -0.00000000000E+00 -0.00000000000E+00 -0.47018527682E+00  0.47019219159E+00  0.25500000000E-02 0. -1.
         31    1    1    2    0    0  0.51832411586E+00  0.48993969187E+00  0.62358939922E+02  0.62806090589E+02  0.74470750000E+01 0.  1.
        -31    1    1    2    0    0 -0.51832411586E+00 -0.48993969187E+00  0.56489581340E+02  0.56982808169E+02  0.74470750000E+01 0. -1.
<mgrwt>
<rscale>  0 0.14980296E+02</rscale>
<asrwt>0</asrwt>
<pdfrwt beam="1">  1        2 0.99049843E+00 0.14980296E+02</pdfrwt>
<pdfrwt beam="2">  1       -2 0.99859955E+00 0.14980296E+02</pdfrwt>
<totfact>-0.75078993E-14</totfact>
</mgrwt>
</event>
<event>
 4    1  0.5167034E-019  0.1491726E+02  0.7818608E-02  0.1870604E+00
         -2   -1    0    0    0  501 -0.00000000000E+00  0.00000000000E+00  0.11880469274E+03  0.11880469277E+03  0.25500000000E-02 0.  1.
          2   -1    0    0  501    0  0.00000000000E+00 -0.00000000000E+00 -0.46825403918E+00  0.46826098247E+00  0.25500000000E-02 0. -1.
         31    1    1    2    0    0 -0.32884386777E+00 -0.79472276647E-01  0.61090711930E+02  0.61543874303E+02  0.74470750000E+01 0.  1.
        -31    1    1    2    0    0  0.32884386777E+00  0.79472276647E-01  0.57245726773E+02  0.57729079448E+02  0.74470750000E+01 0. -1.
<mgrwt>
<rscale>  0 0.14917264E+02</rscale>
<asrwt>0</asrwt>
<pdfrwt beam="2">  1        2 0.99449718E+00 0.14917264E+02</pdfrwt>
<pdfrwt beam="1">  1       -2 0.98623223E+00 0.14917264E+02</pdfrwt>
<totfact> 0.34570389E-13</totfact>
</mgrwt>
</event>
<event>
 4    1 -0.5167034E-019  0.1493000E+02  0.7818608E-02  0.1870212E+00
         -2   -1    0    0    0  501 -0.00000000000E+00  0.00000000000E+00  0.12007475984E+03  0.12007475986E+03  0.25500000000E-02 0. -1.
          2   -1    0    0  501    0  0.00000000000E+00 -0.00000000000E+00 -0.46409256032E+00  0.46409956587E+00  0.25500000000E-02 0.  1.
         31    1    1    2    0    0  0.40440093704E+00  0.32209082124E+00  0.59839494846E+02  0.60303327869E+02  0.74470750000E+01 0. -1.
        -31    1    1    2    0    0 -0.40440093704E+00 -0.32209082124E+00  0.59771172429E+02  0.60235531559E+02  0.74470750000E+01 0. -1.
<mgrwt>
<rscale>  0 0.14930000E+02</rscale>
<asrwt>0</asrwt>
<pdfrwt beam="2">  1        2 0.98573395E+00 0.14930000E+02</pdfrwt>
<pdfrwt beam="1">  1       -2 0.99669963E+00 0.14930000E+02</pdfrwt>
<totfact>-0.26245571E-13</totfact>
</mgrwt>
</event>
<event>
 4    1 -0.5167034E-019  0.1498275E+02  0.7818608E-02  0.1868595E+00
         -2   -1    0    0    0  501 -0.00000000000E+00  0.00000000000E+00  0.11998634412E+03  0.11998634415E+03  0.25500000000E-02 0.  1.
          2   -1    0    0  501    0  0.00000000000E+00 -0.00000000000E+00 -0.46772212015E+00  0.46772907134E+00  0.25500000000E-02 0. -1.
         31    1    1    2    0    0 -0.68135650899E+00  0.23605355922E-01  0.56191380744E+02  0.56686815044E+02  0.74470750000E+01 0. -1.
        -31    1    1    2    0    0  0.68135650899E+00 -0.23605355922E-01  0.63327241260E+02  0.63767258178E+02  0.74470750000E+01 0.  1.
<mgrwt>
<rscale>  0 0.14982748E+02</rscale>
<asrwt>0</asrwt>
<pdfrwt beam="2">  1        2 0.99341028E+00 0.14982748E+02</pdfrwt>
<pdfrwt beam="1">  1       -2 0.99599855E+00 0.14982748E+02</pdfrwt>
<totfact>-0.12831405E-13</totfact>
</mgrwt>
</event>
<event>
 4    1 -0.5167034E-019  0.1495537E+02  0.7818608E-02  0.1869434E+00
          2   -1    0    0  501    0  0.00000000000E+00  0.00000000000E+00  0.11944817683E+03  0.11944817686E+03  0.25500000000E-02 0. -1.
         -2   -1    0    0    0  501 -0.00000000000E+00 -0.00000000000E+00 -0.46811372305E+00  0.46812066842E+00  0.25500000000E-02 0.  1.
         31    1    1    2    0    0 -0.61586981054E+00 -0.20576418870E+00  0.60994142916E+02  0.61450516927E+02  0.74470750000E+01 0. -1.
        -31    1    1    2    0    0  0.61586981054E+00  0.20576418870E+00  0.57985920195E+02  0.58465780603E+02  0.74470750000E+01 0.  1.
<mgrwt>
<rscale>  0 0.14955367E+02</rscale>
<asrwt>0</asrwt>
<pdfrwt beam="1">  1        2 0.99155185E+00 0.14955367E+02</pdfrwt>
<pdfrwt beam="2">  1       -2 0.99422137E+00 0.14955367E+02</pdfrwt>
<totfact>-0.15505670E-13</totfact>
</mgrwt>
</event>
<event>
 4    1 -0.5167034E-019  0.1493094E+02  0.7818608E-02  0.1870183E+00
          2   -1    0    0  501    0  0.00000000000E+00  0.00000000000E+00  0.11935546038E+03  0.11935546041E+03  0.25500000000E-02 0. -1.
         -2   -1    0    0    0  501 -0.00000000000E+00 -0.00000000000E+00 -0.46694797976E+00  0.46695494247E+00  0.25500000000E-02 0.  1.
         31    1    1    2    0    0  0.25135542348E+00 -0.34897822862E+00  0.61842656507E+02  0.62290914709E+02  0.74470750000E+01 0.  1.
        -31    1    1    2    0    0 -0.25135542348E+00  0.34897822862E+00  0.57045855892E+02  0.57531500639E+02  0.74470750000E+01 0.  1.
<mgrwt>
<rscale>  0 0.14930936E+02</rscale>
<asrwt>0</asrwt>
<pdfrwt beam="1">  1        2 0.99077557E+00 0.14930936E+02</pdfrwt>
<pdfrwt beam="2">  1       -2 0.99175213E+00 0.14930936E+02</pdfrwt>
<totfact>-0.98868552E-14</totfact>
</mgrwt>
</event>
<event>
 4    1 -0.5167034E-019  0.1489657E+02  0.7818608E-02  0.1871241E+00
         -2   -1    0    0    0  501 -0.00000000000E+00  0.00000000000E+00  0.12005062970E+03  0.12005062973E+03  0.25500000000E-02 0. -1.
          2   -1    0    0  501    0  0.00000000000E+00 -0.00000000000E+00 -0.46210935584E+00  0.46211639146E+00  0.25500000000E-02 0.  1.
         31    1    1    2    0    0 -0.28481560346E-01  0.56602872694E-01  0.60751600746E+02  0.61206371681E+02  0.74470750000E+01 0. -1.
        -31    1    1    2    0    0  0.28481560346E-01 -0.56602872694E-01  0.58836919602E+02  0.59306374442E+02  0.74470750000E+01 0.  1.
<mgrwt>
<rscale>  0 0.14896569E+02</rscale>
<asrwt>0</asrwt>
<pdfrwt beam="2">  1        2 0.98153708E+00 0.14896569E+02</pdfrwt>
<pdfrwt beam="1">  1       -2 0.99648370E+00 0.14896569E+02</pdfrwt>
<totfact>-0.54617216E-13</totfact>
</mgrwt>
</event>
<event>
 4    1 -0.5167034E-019  0.1495462E+02  0.7818608E-02  0.1869456E+00
         -2   -1    0    0    0  501 -0.00000000000E+00  0.00000000000E+00  0.12002622941E+03  0.12002622943E+03  0.25500000000E-02 0.  1.
          2   -1    0    0  501    0  0.00000000000E+00 -0.00000000000E+00 -0.46581266692E+00  0.46581964660E+00  0.25500000000E-02 0. -1.
         31    1    1    2    0    0 -0.10392474781E+00  0.53180970985E+00  0.56581475998E+02  0.57072024443E+02  0.74470750000E+01 0. -1.
        -31    1    1    2    0    0  0.10392474781E+00 -0.53180970985E+00  0.62978940741E+02  0.63420024636E+02  0.74470750000E+01 0.  1.
<mgrwt>
<rscale>  0 0.14954619E+02</rscale>
<asrwt>0</asrwt>
<pdfrwt beam="2">  1        2 0.98937175E+00 0.14954619E+02</pdfrwt>
<pdfrwt beam="1">  1       -2 0.99631257E+00 0.14954619E+02</pdfrwt>
<totfact>-0.17181285E-13</totfact>
</mgrwt>
</event>
<event>
 4    1 -0.5167034E-019  0.1493552E+02  0.7818608E-02  0.1870042E+00
         -2   -1    0    0    0  501 -0.00000000000E+00  0.00000000000E+00  0.11959266915E+03  0.11959266918E+03  0.25500000000E-02 0. -1.
          2   -1    0    0  501    0  0.00000000000E+00 -0.00000000000E+00 -0.46630814913E+00  0.46631512140E+00  0.25500000000E-02 0.  1.
         31    1    1    2    0    0 -0.68603326334E-01  0.44594834017E+00  0.56958984256E+02  0.57445525412E+02  0.74470750000E+01 0.  1.
        -31    1    1    2    0    0  0.68603326334E-01 -0.44594834017E+00  0.62167376745E+02  0.62613458887E+02  0.74470750000E+01 0. -1.
<mgrwt>
<rscale>  0 0.14935522E+02</rscale>
<asrwt>0</asrwt>
<pdfrwt beam="2">  1        2 0.99040615E+00 0.14935522E+02</pdfrwt>
<pdfrwt beam="1">  1       -2 0.99273168E+00 0.14935522E+02</pdfrwt>
<totfact>-0.14136866E-13</totfact>
</mgrwt>
</event>
<event>
 4    1 -0.5167034E-019  0.1494435E+02  0.7818608E-02  0.1869772E+00
         -2   -1    0    0    0  501 -0.00000000000E+00  0.00000000000E+00  0.11967870093E+03  0.11967870096E+03  0.25500000000E-02 0.  1.
          2   -1    0    0  501    0  0.00000000000E+00 -0.00000000000E+00 -0.46652364956E+00  0.46653061860E+00  0.25500000000E-02 0. -1.
         31    1    1    2    0    0 -0.55907593596E+00  0.11842460113E+00  0.61364671230E+02  0.61817541131E+02  0.74470750000E+01 0. -1.
        -31    1    1    2    0    0  0.55907593596E+00 -0.11842460113E+00  0.57847506056E+02  0.58327690450E+02  0.74470750000E+01 0. -1.
<mgrwt>
<rscale>  0 0.14944345E+02</rscale>
<asrwt>0</asrwt>
<pdfrwt beam="2">  1        2 0.99086484E+00 0.14944345E+02</pdfrwt>
<pdfrwt beam="1">  1       -2 0.99344484E+00 0.14944345E+02</pdfrwt>
<totfact>-0.15349566E-13</totfact>
</mgrwt>
</event>
<event>
 4    1 -0.5167034E-019  0.1494567E+02  0.7818608E-02  0.1869731E+00
         -2   -1    0    0    0  501 -0.00000000000E+00  0.00000000000E+00  0.11945987910E+03  0.11945987913E+03  0.25500000000E-02 0.  1.
          2   -1    0    0  501    0  0.00000000000E+00 -0.00000000000E+00 -0.46746101258E+00  0.46746796766E+00  0.25500000000E-02 0. -1.
         31    1    1    2    0    0 -0.26466735864E+00 -0.38765206256E+00  0.56246590406E+02  0.56739388270E+02  0.74470750000E+01 0.  1.
        -31    1    1    2    0    0  0.26466735864E+00  0.38765206256E+00  0.62745827680E+02  0.63187958823E+02  0.74470750000E+01 0.  1.
<mgrwt>
<rscale>  0 0.14945669E+02</rscale>
<asrwt>0</asrwt>
<pdfrwt beam="2">  1        2 0.99284088E+00 0.14945669E+02</pdfrwt>
<pdfrwt beam="1">  1       -2 0.99164321E+00 0.14945669E+02</pdfrwt>
<totfact>-0.80064643E-14</totfact>
</mgrwt>
</event>
<event>
 4    1  0.5167034E-019  0.1492826E+02  0.7818608E-02  0.1870265E+00
          2   -1    0    0  501    0  0.00000000000E+00  0.00000000000E+00  0.11969313936E+03  0.11969313939E+03  0.25500000000E-02 0. -1.
         -2   -1    0    0    0  501 -0.00000000000E+00 -0.00000000000E+00 -0.46546400554E+00  0.46547099046E+00  0.25500000000E-02 0.  1.
         31    1    1    2    0    0  0.44301464428E+00  0.16956386763E+00  0.60992307867E+02  0.61447095610E+02  0.74470750000E+01 0.  1.
        -31    1    1    2    0    0 -0.44301464428E+00 -0.16956386763E+00  0.58235367489E+02  0.58711514769E+02  0.74470750000E+01 0. -1.
<mgrwt>
<rscale>  0 0.14928264E+02</rscale>
<asrwt>0</asrwt>
<pdfrwt beam="1">  1        2 0.99355546E+00 0.14928264E+02</pdfrwt>
<pdfrwt beam="2">  1       -2 0.98862344E+00 0.14928264E+02</pdfrwt>
<totfact> 0.11376101E-13</totfact>
</mgrwt>
</event>
<event>
 4    1  0.5167034E-019  0.1492303E+02  0.7818608E-02  0.1870426E+00
         -2   -1    0    0    0  501 -0.00000000000E+00  0.00000000000E+00  0.11847243298E+03  0.11847243301E+03  0.25500000000E-02 0. -1.
          2   -1    0    0  501    0  0.00000000000E+00 -0.00000000000E+00 -0.46993032207E+00  0.46993724060E+00  0.25500000000E-02 0.  1.
         31    1    1    2    0    0  0.13448602378E+00 -0.43334640201E+00  0.58228492348E+02  0.58704532387E+02  0.74470750000E+01 0. -1.
        -31    1    1    2    0    0 -0.13448602378E+00  0.43334640201E+00  0.59774010315E+02  0.60237837866E+02  0.74470750000E+01 0.  1.
<mgrwt>
<rscale>  0 0.14923029E+02</rscale>
<asrwt>0</asrwt>
<pdfrwt beam="2">  1        2 0.99803223E+00 0.14923029E+02</pdfrwt>
<pdfrwt beam="1">  1       -2 0.98349874E+00 0.14923029E+02</pdfrwt>
<totfact> 0.38586682E-13</totfact>
</mgrwt>
</event>
<event>
 4    1 -0.5167034E-019  0.1492177E+02  0.7818608E-02  0.1870465E+00
         -2   -1    0    0    0  501 -0.00000000000E+00  0.00000000000E+00  0.11966609679E+03  0.11966609682E+03  0.25500000000E-02 0.  1.
          2   -1    0    0  501    0  0.00000000000E+00 -0.00000000000E+00 -0.46516396549E+00  0.46517095491E+00  0.25500000000E-02 0. -1.
         31    1    1    2    0    0  0.10602053956E+00  0.62452094763E-01  0.63116261730E+02  0.63554201761E+02  0.74470750000E+01 0.  1.
        -31    1    1    2    0    0 -0.10602053956E+00 -0.62452094763E-01  0.56084671097E+02  0.56577066014E+02  0.74470750000E+01 0. -1.
<mgrwt>
<rscale>  0 0.14921766E+02</rscale>
<asrwt>0</asrwt>
<pdfrwt beam="2">  1        2 0.98798778E+00 0.14921766E+02</pdfrwt>
<pdfrwt beam="1">  1       -2 0.99332937E+00 0.14921766E+02</pdfrwt>
<totfact>-0.20449145E-13</totfact>
</mgrwt>
</event>
<event>
 4    1 -0.5167034E-019  0.1497132E+02  0.7818608E-02  0.1868945E+00
          2   -1    0    0  501    0  0.00000000000E+00  0.00000000000E+00  0.11961461096E+03  0.11961461099E+03  0.25500000000E-02 0. -1.
         -2   -1    0    0    0  501 -0.00000000000E+00 -0.00000000000E+00 -0.46846041740E+00  0.46846735763E+00  0.25500000000E-02 0.  1.
         31    1    1    2    0    0  0.49583424878E+00  0.48081270247E+00  0.57047195591E+02  0.57535367238E+02  0.74470750000E+01 0.  1.
        -31    1    1    2    0    0 -0.49583424878E+00 -0.48081270247E+00  0.62098954952E+02  0.62547711106E+02  0.74470750000E+01 0. -1.
<mgrwt>
<rscale>  0 0.14971323E+02</rscale>
<asrwt>0</asrwt>
<pdfrwt beam="1">  1        2 0.99293091E+00 0.14971323E+02</pdfrwt>
<pdfrwt beam="2">  1       -2 0.99496023E+00 0.14971323E+02</pdfrwt>
<totfact>-0.14164729E-13</totfact>
</mgrwt>
</event>
<event>
 4    1 -0.5167034E-019  0.1495286E+02  0.7818608E-02  0.1869510E+00
         -2   -1    0    0    0  501 -0.00000000000E+00  0.00000000000E+00  0.12012089743E+03  0.12012089746E+03  0.25500000000E-02 0. -1.
          2   -1    0    0  501    0  0.00000000000E+00 -0.00000000000E+00 -0.46533596411E+00  0.46534295095E+00  0.25500000000E-02 0.  1.
         31    1    1    2    0    0  0.62324935933E+00 -0.21985496820E+00  0.60117929731E+02  0.60581029846E+02  0.74470750000E+01 0. -1.
        -31    1    1    2    0    0 -0.62324935933E+00  0.21985496820E+00  0.59537631736E+02  0.60005210563E+02  0.74470750000E+01 0. -1.
<mgrwt>
<rscale>  0 0.14952859E+02</rscale>
<asrwt>0</asrwt>
<pdfrwt beam="2">  1        2 0.98836618E+00 0.14952859E+02</pdfrwt>
<pdfrwt beam="1">  1       -2 0.99709141E+00 0.14952859E+02</pdfrwt>
<totfact>-0.16736271E-13</totfact>
</mgrwt>
</event>
<event>
 4    1 -0.5167034E-019  0.1501109E+02  0.7818608E-02  0.1867730E+00
          2   -1    0    0  501    0  0.00000000000E+00  0.00000000000E+00  0.12011916064E+03  0.12011916067E+03  0.25500000000E-02 0. -1.
         -2   -1    0    0    0  501 -0.00000000000E+00 -0.00000000000E+00 -0.46897388428E+00  0.46898081692E+00  0.25500000000E-02 0.  1.
         31    1    1    2    0    0 -0.85784082588E+00  0.29292269710E+00  0.61666594406E+02  0.62121248267E+02  0.74470750000E+01 0. -1.
        -31    1    1    2    0    0  0.85784082588E+00 -0.29292269710E+00  0.57983592354E+02  0.58466893221E+02  0.74470750000E+01 0. -1.
<mgrwt>
<rscale>  0 0.15011085E+02</rscale>
<asrwt>0</asrwt>
<pdfrwt beam="1">  1        2 0.99710713E+00 0.15011085E+02</pdfrwt>
<pdfrwt beam="2">  1       -2 0.99606284E+00 0.15011085E+02</pdfrwt>
<totfact>-0.80067406E-14</totfact>
</mgrwt>
</event>
<event>
 4    1 -0.5167034E-019  0.1495385E+02  0.7818608E-02  0.1869480E+00
         -2   -1    0    0    0  501 -0.00000000000E+00  0.00000000000E+00  0.12011059799E+03  0.12011059802E+03  0.25500000000E-02 0.  1.
          2   -1    0    0  501    0  0.00000000000E+00 -0.00000000000E+00 -0.46543745294E+00  0.46544443825E+00  0.25500000000E-02 0. -1.
         31    1    1    2    0    0 -0.61051388069E+00  0.84291010787E-01  0.57756834299E+02  0.58238223415E+02  0.74470750000E+01 0.  1.
        -31    1    1    2    0    0  0.61051388069E+00 -0.84291010787E-01  0.61888326242E+02  0.62337819045E+02  0.74470750000E+01 0.  1.
<mgrwt>
<rscale>  0 0.14953848E+02</rscale>
<asrwt>0</asrwt>
<pdfrwt beam="2">  1        2 0.98858058E+00 0.14953848E+02</pdfrwt>
<pdfrwt beam="1">  1       -2 0.99700708E+00 0.14953848E+02</pdfrwt>
<totfact>-0.16620070E-13</totfact>
</mgrwt>
</event>
<event>
 4    1 -0.5167034E-019  0.1495307E+02  0.7818608E-02  0.1869504E+00
         -2   -1    0    0    0  501 -0.00000000000E+00  0.00000000000E+00  0.11961755702E+03  0.11961755705E+03  0.25500000000E-02 0. -1.
          2   -1    0    0  501    0  0.00000000000E+00 -0.00000000000E+00 -0.46730734683E+00  0.46731430419E+00  0.25500000000E-02 0.  1.
         31    1    1    2    0    0 -0.16846136252E+00  0.18568781299E+00  0.54645523390E+02  0.55151201364E+02  0.74470750000E+01 0.  1.
        -31    1    1    2    0    0  0.16846136252E+00 -0.18568781299E+00  0.64504726282E+02  0.64933669987E+02  0.74470750000E+01 0. -1.
<mgrwt>
<rscale>  0 0.14953071E+02</rscale>
<asrwt>0</asrwt>
<pdfrwt beam="2">  1        2 0.99252089E+00 0.14953071E+02</pdfrwt>
<pdfrwt beam="1">  1       -2 0.99294574E+00 0.14953071E+02</pdfrwt>
<totfact>-0.12520830E-13</totfact>
</mgrwt>
</event>
<event>
 4    1  0.5167034E-019  0.1495131E+02  0.7818608E-02  0.1869558E+00
          2   -1    0    0  501    0  0.00000000000E+00  0.00000000000E+00  0.12028349375E+03  0.12028349378E+03  0.25500000000E-02 0. -1.
         -2   -1    0    0    0  501 -0.00000000000E+00 -0.00000000000E+00 -0.46461085463E+00  0.46461785237E+00  0.25500000000E-02 0.  1.
         31    1    1    2    0    0 -0.55063819000E-01 -0.28120573906E+00  0.55169898227E+02  0.55670986205E+02  0.74470750000E+01 0.  1.
        -31    1    1    2    0    0  0.55063819000E-01  0.28120573906E+00  0.64648984668E+02  0.65077125423E+02  0.74470750000E+01 0. -1.
<mgrwt>
<rscale>  0 0.14951313E+02</rscale>
<asrwt>0</asrwt>
<pdfrwt beam="1">  1        2 0.99842987E+00 0.14951313E+02</pdfrwt>
<pdfrwt beam="2">  1       -2 0.98683715E+00 0.14951313E+02</pdfrwt>
<totfact> 0.11878907E-13</totfact>
</mgrwt>
</event>
<event>
 4    1 -0.5167034E-019  0.1494935E+02  0.7818608E-02  0.1869618E+00
         -2   -1    0    0    0  501 -0.00000000000E+00  0.00000000000E+00  0.11985859505E+03  0.11985859508E+03  0.25500000000E-02 0.  1.
          2   -1    0    0  501    0  0.00000000000E+00 -0.00000000000E+00 -0.46613557880E+00  0.46614255365E+00  0.25500000000E-02 0. -1.
         31    1    1    2    0    0 -0.28758007358E+00  0.52924533370E+00  0.57913676193E+02  0.58393626529E+02  0.74470750000E+01 0.  1.
        -31    1    1    2    0    0  0.28758007358E+00 -0.52924533370E+00  0.61478783277E+02  0.61931111101E+02  0.74470750000E+01 0. -1.
<mgrwt>
<rscale>  0 0.14949351E+02</rscale>
<asrwt>0</asrwt>
<pdfrwt beam="2">  1        2 0.99004958E+00 0.14949351E+02</pdfrwt>
<pdfrwt beam="1">  1       -2 0.99492912E+00 0.14949351E+02</pdfrwt>
<totfact>-0.17794208E-13</totfact>
</mgrwt>
</event>
<event>
 4    1 -0.5167034E-019  0.1496666E+02  0.7818608E-02  0.1869088E+00
          2   -1    0    0  501    0  0.00000000000E+00  0.00000000000E+00  0.11967457306E+03  0.11967457309E+03  0.25500000000E-02 0.  1.
         -2   -1    0    0    0  501 -0.00000000000E+00 -0.00000000000E+00 -0.46793421965E+00  0.46794116769E+00  0.25500000000E-02 0. -1.
         31    1    1    2    0    0  0.11377480117E+00  0.71798621130E+00  0.58692578453E+02  0.59167610568E+02  0.74470750000E+01 0.  1.
        -31    1    1    2    0    0 -0.11377480117E+00 -0.71798621130E+00  0.60514060389E+02  0.60974903688E+02  0.74470750000E+01 0. -1.
<mgrwt>
<rscale>  0 0.14966663E+02</rscale>
<asrwt>0</asrwt>
<pdfrwt beam="1">  1        2 0.99342237E+00 0.14966663E+02</pdfrwt>
<pdfrwt beam="2">  1       -2 0.99384895E+00 0.14966663E+02</pdfrwt>
<totfact>-0.13215511E-13</totfact>
</mgrwt>
</event>
<event>
 4    1 -0.5167034E-019  0.1499644E+02  0.7818608E-02  0.1868177E+00
         -2   -1    0    0    0  501 -0.00000000000E+00  0.00000000000E+00  0.11982949450E+03  0.11982949453E+03  0.25500000000E-02 0. -1.
          2   -1    0    0  501    0  0.00000000000E+00 -0.00000000000E+00 -0.46919090569E+00  0.46919783512E+00  0.25500000000E-02 0.  1.
         31    1    1    2    0    0 -0.32204894070E+00 -0.16368684144E+00  0.66066909708E+02  0.66486284250E+02  0.74470750000E+01 0. -1.
        -31    1    1    2    0    0  0.32204894070E+00  0.16368684144E+00  0.53293393885E+02  0.53812408112E+02  0.74470750000E+01 0.  1.
<mgrwt>
<rscale>  0 0.14996443E+02</rscale>
<asrwt>0</asrwt>
<pdfrwt beam="2">  1        2 0.99651260E+00 0.14996443E+02</pdfrwt>
<pdfrwt beam="1">  1       -2 0.99471376E+00 0.14996443E+02</pdfrwt>
<totfact>-0.97368605E-14</totfact>
</mgrwt>
</event>
<event>
 4    1 -0.5167034E-019  0.1494343E+02  0.7818608E-02  0.1869800E+00
          2   -1    0    0  501    0  0.00000000000E+00  0.00000000000E+00  0.11937609160E+03  0.11937609162E+03  0.25500000000E-02 0.  1.
         -2   -1    0    0    0  501 -0.00000000000E+00 -0.00000000000E+00 -0.46764892199E+00  0.46765587427E+00  0.25500000000E-02 0. -1.
         31    1    1    2    0    0 -0.10116123926E+00 -0.35599421065E+00  0.55602805479E+02  0.56100515762E+02  0.74470750000E+01 0. -1.
        -31    1    1    2    0    0  0.10116123926E+00  0.35599421065E+00  0.63305637195E+02  0.63743231737E+02  0.74470750000E+01 0.  1.
<mgrwt>
<rscale>  0 0.14943429E+02</rscale>
<asrwt>0</asrwt>
<pdfrwt beam="1">  1        2 0.99095195E+00 0.14943429E+02</pdfrwt>
<pdfrwt beam="2">  1       -2 0.99323571E+00 0.14943429E+02</pdfrwt>
<totfact>-0.14808362E-13</totfact>
</mgrwt>
</event>
<event>
 4    1 -0.5167034E-019  0.1492797E+02  0.7818608E-02  0.1870275E+00
         -2   -1    0    0    0  501 -0.00000000000E+00  0.00000000000E+00  0.11936722288E+03  0.11936722290E+03  0.25500000000E-02 0. -1.
          2   -1    0    0  501    0  0.00000000000E+00 -0.00000000000E+00 -0.46671636821E+00  0.46672333438E+00  0.25500000000E-02 0.  1.
         31    1    1    2    0    0  0.14898651831E+00 -0.40570912804E+00  0.57398406520E+02  0.57881109128E+02  0.74470750000E+01 0.  1.
        -31    1    1    2    0    0 -0.14898651831E+00  0.40570912804E+00  0.61502099989E+02  0.61952837110E+02  0.74470750000E+01 0. -1.
<mgrwt>
<rscale>  0 0.14927968E+02</rscale>
<asrwt>0</asrwt>
<pdfrwt beam="2">  1        2 0.99126252E+00 0.14927968E+02</pdfrwt>
<pdfrwt beam="1">  1       -2 0.99087091E+00 0.14927968E+02</pdfrwt>
<totfact>-0.48400661E-14</totfact>
</mgrwt>
</event>
<event>
 4    1  0.5167034E-019  0.1493449E+02  0.7818608E-02  0.1870074E+00
         -2   -1    0    0    0  501 -0.00000000000E+00  0.00000000000E+00  0.11845732330E+03  0.11845732333E+03  0.25500000000E-02 0. -1.
          2   -1    0    0  501    0  0.00000000000E+00 -0.00000000000E+00 -0.47071231840E+00  0.47071922543E+00  0.25500000000E-02 0.  1.
         31    1    1    2    0    0 -0.10538191448E+00 -0.26708400743E+00  0.55272055996E+02  0.55772229105E+02  0.74470750000E+01 0.  1.
        -31    1    1    2    0    0  0.10538191448E+00  0.26708400743E+00  0.62714554984E+02  0.63155813446E+02  0.74470750000E+01 0. -1.
<mgrwt>
<rscale>  0 0.14934488E+02</rscale>
<asrwt>0</asrwt>
<pdfrwt beam="2">  1        2 0.99968592E+00 0.14934488E+02</pdfrwt>
<pdfrwt beam="1">  1       -2 0.98338027E+00 0.14934488E+02</pdfrwt>
<totfact> 0.76012407E-14</totfact>
</mgrwt>
</event>
<event>
 4    1  0.5167034E-019  0.1495073E+02  0.7818608E-02  0.1869576E+00
         -2   -1    0    0    0  501 -0.00000000000E+00  0.00000000000E+00  0.11902463486E+03  0.11902463489E+03  0.25500000000E-02 0.  1.
          2   -1    0    0  501    0  0.00000000000E+00 -0.00000000000E+00 -0.46948827519E+00  0.46949520023E+00  0.25500000000E-02 0. -1.
         31    1    1    2    0    0  0.61175769076E+00  0.12651845244E-01  0.61024124620E+02  0.61479891991E+02  0.74470750000E+01 0. -1.
        -31    1    1    2    0    0 -0.61175769076E+00 -0.12651845244E-01  0.57531021963E+02  0.58014238095E+02  0.74470750000E+01 0.  1.
<mgrwt>
<rscale>  0 0.14950731E+02</rscale>
<asrwt>0</asrwt>
<pdfrwt beam="2">  1        2 0.99711540E+00 0.14950731E+02</pdfrwt>
<pdfrwt beam="1">  1       -2 0.98806107E+00 0.14950731E+02</pdfrwt>
<totfact> 0.10499169E-13</totfact>
</mgrwt>
</event>
<event>
 4    1 -0.5167034E-019  0.1502564E+02  0.7818608E-02  0.1867287E+00
          2   -1    0    0  501    0  0.00000000000E+00  0.00000000000E+00  0.12005401917E+03  0.12005401920E+03  0.25500000000E-02 0. -1.
         -2   -1    0    0    0  501 -0.00000000000E+00 -0.00000000000E+00 -0.47013855258E+00  0.47014546805E+00  0.25500000000E-02 0.  1.
         31    1    1    2    0    0 -0.66070500274E+00 -0.56770742980E+00  0.55989737042E+02  0.56489542421E+02  0.74470750000E+01 0. -1.
        -31    1    1    2    0    0  0.66070500274E+00  0.56770742980E+00  0.63594143578E+02  0.64034622247E+02  0.74470750000E+01 0. -1.
<mgrwt>
<rscale>  0 0.15025637E+02</rscale>
<asrwt>0</asrwt>
<pdfrwt beam="1">  1        2 0.99657812E+00 0.15025637E+02</pdfrwt>
<pdfrwt beam="2">  1       -2 0.99852471E+00 0.15025637E+02</pdfrwt>
<totfact>-0.44212050E-14</totfact>
</mgrwt>
</event>
<event>
 4    1  0.5167034E-019  0.1490816E+02  0.7818608E-02  0.1870884E+00
          2   -1    0    0  501    0  0.00000000000E+00  0.00000000000E+00  0.12012343900E+03  0.12012343902E+03  0.25500000000E-02 0.  1.
         -2   -1    0    0    0  501 -0.00000000000E+00 -0.00000000000E+00 -0.46254827788E+00  0.46255530682E+00  0.25500000000E-02 0. -1.
         31    1    1    2    0    0  0.29464356762E+00  0.12087753896E+00  0.60270735296E+02  0.60729909315E+02  0.74470750000E+01 0.  1.
        -31    1    1    2    0    0 -0.29464356762E+00 -0.12087753896E+00  0.59390155423E+02  0.59856085016E+02  0.74470750000E+01 0. -1.
<mgrwt>
<rscale>  0 0.14908161E+02</rscale>
<asrwt>0</asrwt>
<pdfrwt beam="1">  1        2 0.99708937E+00 0.14908161E+02</pdfrwt>
<pdfrwt beam="2">  1       -2 0.98246806E+00 0.14908161E+02</pdfrwt>
<totfact> 0.64533037E-13</totfact>
</mgrwt>
</event>
<event>
 4    1  0.5167034E-019  0.1489727E+02  0.7818608E-02  0.1871220E+00
          2   -1    0    0  501    0  0.00000000000E+00  0.00000000000E+00  0.12009876856E+03  0.12009876858E+03  0.25500000000E-02 0. -1.
         -2   -1    0    0    0  501 -0.00000000000E+00 -0.00000000000E+00 -0.46196747560E+00  0.46197451338E+00  0.25500000000E-02 0.  1.
         31    1    1    2    0    0 -0.56265051276E-01  0.24976560547E-01  0.58690181599E+02  0.59160798944E+02  0.74470750000E+01 0.  1.
        -31    1    1    2    0    0  0.56265051276E-01 -0.24976560547E-01  0.60946619484E+02  0.61399944154E+02  0.74470750000E+01 0. -1.
<mgrwt>
<rscale>  0 0.14897268E+02</rscale>
<asrwt>0</asrwt>
<pdfrwt beam="1">  1        2 0.99688058E+00 0.14897268E+02</pdfrwt>
<pdfrwt beam="2">  1       -2 0.98123839E+00 0.14897268E+02</pdfrwt>
<totfact> 0.86096727E-13</totfact>
</mgrwt>
</event>
<event>
 4    1  0.5167034E-019  0.1494531E+02  0.7818608E-02  0.1869742E+00
         -2   -1    0    0    0  501 -0.00000000000E+00  0.00000000000E+00  0.11907931231E+03  0.11907931233E+03  0.25500000000E-02 0. -1.
          2   -1    0    0  501    0  0.00000000000E+00 -0.00000000000E+00 -0.46893242732E+00  0.46893936057E+00  0.25500000000E-02 0.  1.
         31    1    1    2    0    0  0.44009515155E+00 -0.39789926550E+00  0.60682174493E+02  0.61140307775E+02  0.74470750000E+01 0.  1.
        -31    1    1    2    0    0 -0.44009515155E+00  0.39789926550E+00  0.57928205385E+02  0.58407943918E+02  0.74470750000E+01 0. -1.
<mgrwt>
<rscale>  0 0.14945309E+02</rscale>
<asrwt>0</asrwt>
<pdfrwt beam="2">  1        2 0.99594131E+00 0.14945309E+02</pdfrwt>
<pdfrwt beam="1">  1       -2 0.98850859E+00 0.14945309E+02</pdfrwt>
<totfact> 0.97542091E-14</totfact>
</mgrwt>
</event>
<event>
 4    1  0.5167034E-019  0.1491557E+02  0.7818608E-02  0.1870656E+00
          2   -1    0    0  501    0  0.00000000000E+00  0.00000000000E+00  0.11996462409E+03  0.11996462412E+03  0.25500000000E-02 0.  1.
         -2   -1    0    0    0  501 -0.00000000000E+00 -0.00000000000E+00 -0.46362099658E+00  0.46362800926E+00  0.25500000000E-02 0. -1.
         31    1    1    2    0    0  0.35150742264E+00 -0.89079550742E-01  0.61104522645E+02  0.61557721745E+02  0.74470750000E+01 0. -1.
        -31    1    1    2    0    0 -0.35150742264E+00  0.89079550742E-01  0.58396480449E+02  0.58870530383E+02  0.74470750000E+01 0. -1.
<mgrwt>
<rscale>  0 0.14915568E+02</rscale>
<asrwt>0</asrwt>
<pdfrwt beam="1">  1        2 0.99578505E+00 0.14915568E+02</pdfrwt>
<pdfrwt beam="2">  1       -2 0.98473274E+00 0.14915568E+02</pdfrwt>
<totfact> 0.47606375E-13</totfact>
</mgrwt>
</event>
<event>
 4    1  0.5167034E-019  0.1491251E+02  0.7818608E-02  0.1870750E+00
         -2   -1    0    0    0  501 -0.00000000000E+00  0.00000000000E+00  0.11920491860E+03  0.11920491863E+03  0.25500000000E-02 0. -1.
          2   -1    0    0  501    0  0.00000000000E+00 -0.00000000000E+00 -0.46638418537E+00  0.46639115650E+00  0.25500000000E-02 0.  1.
         31    1    1    2    0    0  0.78029416915E-01  0.35150007616E+00  0.58691144030E+02  0.59162817330E+02  0.74470750000E+01 0.  1.
        -31    1    1    2    0    0 -0.78029416915E-01 -0.35150007616E+00  0.60047390388E+02  0.60508492456E+02  0.74470750000E+01 0.  1.
<mgrwt>
<rscale>  0 0.14912506E+02</rscale>
<asrwt>0</asrwt>
<pdfrwt beam="2">  1        2 0.99055450E+00 0.14912506E+02</pdfrwt>
<pdfrwt beam="1">  1       -2 0.98952612E+00 0.14912506E+02</pdfrwt>
<totfact> 0.52549385E-14</totfact>
</mgrwt>
</event>
<event>
 4    1 -0.5167034E-019  0.1494957E+02  0.7818608E-02  0.1869611E+00
          2   -1    0    0  501    0  0.00000000000E+00  0.00000000000E+00  0.11897250085E+03  0.11897250088E+03  0.25500000000E-02 0.  1.
         -2   -1    0    0    0  501 -0.00000000000E+00 -0.00000000000E+00 -0.46962110624E+00  0.46962802932E+00  0.25500000000E-02 0. -1.
         31    1    1    2    0    0 -0.54892632181E+00 -0.24323801638E+00  0.61090828655E+02  0.61545988957E+02  0.74470750000E+01 0.  1.
        -31    1    1    2    0    0  0.54892632181E+00  0.24323801638E+00  0.57412051089E+02  0.57896139951E+02  0.74470750000E+01 0.  1.
<mgrwt>
<rscale>  0 0.14949570E+02</rscale>
<asrwt>0</asrwt>
<pdfrwt beam="1">  1        2 0.98763109E+00 0.14949570E+02</pdfrwt>
<pdfrwt beam="2">  1       -2 0.99739468E+00 0.14949570E+02</pdfrwt>
<totfact>-0.17035255E-13</totfact>
</mgrwt>
</event>
<event>
 4    1  0.5167034E-019  0.1490744E+02  0.7818608E-02  0.1870906E+00
         -2   -1    0    0    0  501 -0.00000000000E+00  0.00000000000E+00  0.11829194159E+03  0.11829194162E+03  0.25500000000E-02 0.  1.
          2   -1    0    0  501    0  0.00000000000E+00 -0.00000000000E+00 -0.46966480167E+00  0.46967172411E+00  0.25500000000E-02 0. -1.
         31    1    1    2    0    0 -0.17994792982E+00 -0.25768348129E+00  0.58781233976E+02  0.59251929723E+02  0.74470750000E+01 0. -1.
        -31    1    1    2    0    0  0.17994792982E+00  0.25768348129E+00  0.59041042816E+02  0.59509683623E+02  0.74470750000E+01 0. -1.
<mgrwt>
<rscale>  0 0.14907444E+02</rscale>
<asrwt>0</asrwt>
<pdfrwt beam="2">  1        2 0.99746455E+00 0.14907444E+02</pdfrwt>
<pdfrwt beam="1">  1       -2 0.98200411E+00 0.14907444E+02</pdfrwt>
<totfact> 0.64367081E-13</totfact>
</mgrwt>
</event>
<event>
 4    1 -0.5167034E-019  0.1489754E+02  0.7818608E-02  0.1871211E+00
          2   -1    0    0  501    0  0.00000000000E+00  0.00000000000E+00  0.11841799654E+03  0.11841799656E+03  0.25500000000E-02 0. -1.
         -2   -1    0    0    0  501 -0.00000000000E+00 -0.00000000000E+00 -0.46854186676E+00  0.46854880579E+00  0.25500000000E-02 0.  1.
         31    1    1    2    0    0  0.10902611388E+00 -0.11090036432E+00  0.59238393950E+02  0.59704861020E+02  0.74470750000E+01 0. -1.
        -31    1    1    2    0    0 -0.10902611388E+00  0.11090036432E+00  0.58711060721E+02  0.59181684351E+02  0.74470750000E+01 0. -1.
<mgrwt>
<rscale>  0 0.14897544E+02</rscale>
<asrwt>0</asrwt>
<pdfrwt beam="1">  1        2 0.98303714E+00 0.14897544E+02</pdfrwt>
<pdfrwt beam="2">  1       -2 0.99509330E+00 0.14897544E+02</pdfrwt>
<totfact>-0.48007973E-13</totfact>
</mgrwt>
</event>
<event>
 4    1 -0.5167034E-019  0.1495686E+02  0.7818608E-02  0.1869388E+00
         -2   -1    0    0    0  501 -0.00000000000E+00  0.00000000000E+00  0.12007760013E+03  0.12007760015E+03  0.25500000000E-02 0.  1.
          2   -1    0    0  501    0  0.00000000000E+00 -0.00000000000E+00 -0.46575309930E+00  0.46576007988E+00  0.25500000000E-02 0. -1.
         31    1    1    2    0    0  0.21020654246E+00  0.38700388695E+00  0.55586829435E+02  0.56085189592E+02  0.74470750000E+01 0. -1.
        -31    1    1    2    0    0 -0.21020654246E+00 -0.38700388695E+00  0.64025017592E+02  0.64458170642E+02  0.74470750000E+01 0.  1.
<mgrwt>
<rscale>  0 0.14956863E+02</rscale>
<asrwt>0</asrwt>
<pdfrwt beam="2">  1        2 0.98924735E+00 0.14956863E+02</pdfrwt>
<pdfrwt beam="1">  1       -2 0.99673684E+00 0.14956863E+02</pdfrwt>
<totfact>-0.16270103E-13</totfact>
</mgrwt>
</event>
<event>
 4    1 -0.5167034E-019  0.1497868E+02  0.7818608E-02  0.1868720E+00
          2   -1    0    0  501    0  0.00000000000E+00  0.00000000000E+00  0.11946951856E+03  0.11946951859E+03  0.25500000000E-02 0. -1.
         -2   -1    0    0    0  501 -0.00000000000E+00 -0.00000000000E+00 -0.46949045885E+00  0.46949738386E+00  0.25500000000E-02 0.  1.
         31    1    1    2    0    0 -0.46315868032E+00 -0.55914542639E+00  0.62083913816E+02  0.62533178716E+02  0.74470750000E+01 0. -1.
        -31    1    1    2    0    0  0.46315868032E+00  0.55914542639E+00  0.56916114288E+02  0.57405837258E+02  0.74470750000E+01 0.  1.
<mgrwt>
<rscale>  0 0.14978680E+02</rscale>
<asrwt>0</asrwt>
<pdfrwt beam="1">  1        2 0.99173970E+00 0.14978680E+02</pdfrwt>
<pdfrwt beam="2">  1       -2 0.99713460E+00 0.14978680E+02</pdfrwt>
<totfact>-0.11992567E-13</totfact>
</mgrwt>
</event>
<event>
 4    1 -0.5167034E-019  0.1491096E+02  0.7818608E-02  0.1870798E+00
          2   -1    0    0  501    0  0.00000000000E+00  0.00000000000E+00  0.11858778316E+03  0.11858778319E+03  0.25500000000E-02 0.  1.
         -2   -1    0    0    0  501 -0.00000000000E+00 -0.00000000000E+00 -0.46871416529E+00  0.46872110177E+00  0.25500000000E-02 0. -1.
         31    1    1    2    0    0  0.26123824675E+00  0.23460839371E+00  0.58704626295E+02  0.59176138443E+02  0.74470750000E+01 0. -1.
        -31    1    1    2    0    0 -0.26123824675E+00 -0.23460839371E+00  0.59414442704E+02  0.59880365851E+02  0.74470750000E+01 0. -1.
<mgrwt>
<rscale>  0 0.14910961E+02</rscale>
<asrwt>0</asrwt>
<pdfrwt beam="1">  1        2 0.98444248E+00 0.14910961E+02</pdfrwt>
<pdfrwt beam="2">  1       -2 0.99546340E+00 0.14910961E+02</pdfrwt>
<totfact>-0.37319456E-13</totfact>
</mgrwt>
</event>
<event>
 4    1  0.5167034E-019  0.1493749E+02  0.7818608E-02  0.1869982E+00
          2   -1    0    0  501    0  0.00000000000E+00  0.00000000000E+00  0.12023716406E+03  0.12023716409E+03  0.25500000000E-02 0. -1.
         -2   -1    0    0    0  501 -0.00000000000E+00 -0.00000000000E+00 -0.46393062312E+00  0.46393763112E+00  0.25500000000E-02 0.  1.
         31    1    1    2    0    0  0.34430729099E+00 -0.36503226896E+00  0.62045840645E+02  0.62493176135E+02  0.74470750000E+01 0. -1.
        -31    1    1    2    0    0 -0.34430729099E+00  0.36503226896E+00  0.57727392795E+02  0.58207925586E+02  0.74470750000E+01 0.  1.
<mgrwt>
<rscale>  0 0.14937487E+02</rscale>
<asrwt>0</asrwt>
<pdfrwt beam="1">  1        2 0.99804116E+00 0.14937487E+02</pdfrwt>
<pdfrwt beam="2">  1       -2 0.98539645E+00 0.14937487E+02</pdfrwt>
<totfact> 0.23338778E-13</totfact>
</mgrwt>
</event>
<event>
 4    1  0.5167034E-019  0.1494076E+02  0.7818608E-02  0.1869882E+00
          2   -1    0    0  501    0  0.00000000000E+00  0.00000000000E+00  0.12006439311E+03  0.12006439313E+03  0.25500000000E-02 0. -1.
         -2   -1    0    0    0  501 -0.00000000000E+00 -0.00000000000E+00 -0.46480188080E+00  0.46480887566E+00  0.25500000000E-02 0.  1.
         31    1    1    2    0    0  0.78251856207E-02 -0.53866391180E+00  0.57866494005E+02  0.58346210456E+02  0.74470750000E+01 0.  1.
        -31    1    1    2    0    0 -0.78251856207E-02  0.53866391180E+00  0.61733097220E+02  0.62182991553E+02  0.74470750000E+01 0. -1.
<mgrwt>
<rscale>  0 0.14940760E+02</rscale>
<asrwt>0</asrwt>
<pdfrwt beam="1">  1        2 0.99661977E+00 0.14940760E+02</pdfrwt>
<pdfrwt beam="2">  1       -2 0.98723439E+00 0.14940760E+02</pdfrwt>
<totfact> 0.17738441E-13</totfact>
</mgrwt>
</event>
<event>
 4    1 -0.5167034E-019  0.1498286E+02  0.7818608E-02  0.1868592E+00
         -2   -1    0    0    0  501 -0.00000000000E+00  0.00000000000E+00  0.12004336832E+03  0.12004336835E+03  0.25500000000E-02 0.  1.
          2   -1    0    0  501    0  0.00000000000E+00 -0.00000000000E+00 -0.46750698346E+00  0.46751393785E+00  0.25500000000E-02 0. -1.
         31    1    1    2    0    0  0.75652784601E+00 -0.29638440539E+00  0.60184384358E+02  0.60648818823E+02  0.74470750000E+01 0.  1.
        -31    1    1    2    0    0 -0.75652784601E+00  0.29638440539E+00  0.59391476983E+02  0.59862063465E+02  0.74470750000E+01 0.  1.
<mgrwt>
<rscale>  0 0.14982861E+02</rscale>
<asrwt>0</asrwt>
<pdfrwt beam="2">  1        2 0.99295696E+00 0.14982861E+02</pdfrwt>
<pdfrwt beam="1">  1       -2 0.99646829E+00 0.14982861E+02</pdfrwt>
<totfact>-0.12479680E-13</totfact>
</mgrwt>
</event>
<event>
 4    1 -0.5167034E-019  0.1495344E+02  0.7818608E-02  0.1869493E+00
         -2   -1    0    0    0  501 -0.00000000000E+00  0.00000000000E+00  0.11982525701E+03  0.11982525704E+03  0.25500000000E-02 0. -1.
          2   -1    0    0  501    0  0.00000000000E+00 -0.00000000000E+00 -0.46652011782E+00  0.46652708692E+00  0.25500000000E-02 0.  1.
         31    1    1    2    0    0 -0.67273256946E-01 -0.20830287193E-02  0.54356307077E+02  0.54864119196E+02  0.74470750000E+01 0.  1.
        -31    1    1    2    0    0  0.67273256946E-01  0.20830287193E-02  0.65002429819E+02  0.65427664932E+02  0.74470750000E+01 0. -1.
<mgrwt>
<rscale>  0 0.14953436E+02</rscale>
<asrwt>0</asrwt>
<pdfrwt beam="2">  1        2 0.99086207E+00 0.14953436E+02</pdfrwt>
<pdfrwt beam="1">  1       -2 0.99465664E+00 0.14953436E+02</pdfrwt>
<totfact>-0.16571749E-13</totfact>
</mgrwt>
</event>
<event>
 4    1 -0.5167034E-019  0.1493727E+02  0.7818608E-02  0.1869989E+00
          2   -1    0    0  501    0  0.00000000000E+00  0.00000000000E+00  0.11939757519E+03  0.11939757522E+03  0.25500000000E-02 0.  1.
         -2   -1    0    0    0  501 -0.00000000000E+00 -0.00000000000E+00 -0.46717932350E+00  0.46718628277E+00  0.25500000000E-02 0. -1.
         31    1    1    2    0    0  0.12788387191E+00 -0.11858790626E-01  0.63897450173E+02  0.64330082851E+02  0.74470750000E+01 0.  1.
        -31    1    1    2    0    0 -0.12788387191E+00  0.11858790626E-01  0.55032945692E+02  0.55534678648E+02  0.74470750000E+01 0. -1.
<mgrwt>
<rscale>  0 0.14937268E+02</rscale>
<asrwt>0</asrwt>
<pdfrwt beam="1">  1        2 0.99112571E+00 0.14937268E+02</pdfrwt>
<pdfrwt beam="2">  1       -2 0.99224293E+00 0.14937268E+02</pdfrwt>
<totfact>-0.11653089E-13</totfact>
</mgrwt>
</event>
<event>
 4    1  0.5167034E-019  0.1490639E+02  0.7818608E-02  0.1870939E+00
         -2   -1    0    0    0  501 -0.00000000000E+00  0.00000000000E+00  0.11837607859E+03  0.11837607862E+03  0.25500000000E-02 0. -1.
          2   -1    0    0  501    0  0.00000000000E+00 -0.00000000000E+00 -0.46926454828E+00  0.46927147662E+00  0.25500000000E-02 0.  1.
         31    1    1    2    0    0 -0.24006733982E+00 -0.64574806633E-01  0.57586776624E+02  0.58066837095E+02  0.74470750000E+01 0.  1.
        -31    1    1    2    0    0  0.24006733982E+00  0.64574806633E-01  0.60320037417E+02  0.60778512999E+02  0.74470750000E+01 0.  1.
<mgrwt>
<rscale>  0 0.14906389E+02</rscale>
<asrwt>0</asrwt>
<pdfrwt beam="2">  1        2 0.99662067E+00 0.14906389E+02</pdfrwt>
<pdfrwt beam="1">  1       -2 0.98269651E+00 0.14906389E+02</pdfrwt>
<totfact> 0.67880516E-13</totfact>
</mgrwt>
</event>
<event>
 4    1  0.5167034E-019  0.1490897E+02  0.7818608E-02  0.1870859E+00
          2   -1    0    0  501    0  0.00000000000E+00  0.00000000000E+00  0.12037478925E+03  0.12037478927E+03  0.25500000000E-02 0.  1.
         -2   -1    0    0    0  501 -0.00000000000E+00 -0.00000000000E+00 -0.46163240357E+00  0.46163944646E+00  0.25500000000E-02 0. -1.
         31    1    1    2    0    0  0.38948431829E-01 -0.32276730685E+00  0.60512737946E+02  0.60970124451E+02  0.74470750000E+01 0.  1.
        -31    1    1    2    0    0 -0.38948431829E-01  0.32276730685E+00  0.59400418895E+02  0.59866304268E+02  0.74470750000E+01 0. -1.
<mgrwt>
<rscale>  0 0.14908968E+02</rscale>
<asrwt>0</asrwt>
<pdfrwt beam="1">  1        2 0.99916014E+00 0.14908968E+02</pdfrwt>
<pdfrwt beam="2">  1       -2 0.98053802E+00 0.14908968E+02</pdfrwt>
<totfact> 0.33821256E-13</totfact>
</mgrwt>
</event>
<event>
 4    1  0.5167034E-019  0.1490866E+02  0.7818608E-02  0.1870869E+00
         -2   -1    0    0    0  501 -0.00000000000E+00  0.00000000000E+00  0.11882164653E+03  0.11882164655E+03  0.25500000000E-02 0.  1.
          2   -1    0    0  501    0  0.00000000000E+00 -0.00000000000E+00 -0.46764705600E+00  0.46765400830E+00  0.25500000000E-02 0. -1.
         31    1    1    2    0    0 -0.25559399349E+00  0.16489487520E+00  0.60175239962E+02  0.60635063694E+02  0.74470750000E+01 0. -1.
        -31    1    1    2    0    0  0.25559399349E+00 -0.16489487520E+00  0.58178759509E+02  0.58654236869E+02  0.74470750000E+01 0. -1.
<mgrwt>
<rscale>  0 0.14908656E+02</rscale>
<asrwt>0</asrwt>
<pdfrwt beam="2">  1        2 0.99321367E+00 0.14908656E+02</pdfrwt>
<pdfrwt beam="1">  1       -2 0.98636740E+00 0.14908656E+02</pdfrwt>
<totfact> 0.36500602E-13</totfact>
</mgrwt>
</event>
<event>
 4    1 -0.5167034E-019  0.1492362E+02  0.7818608E-02  0.1870408E+00
          2   -1    0    0  501    0  0.00000000000E+00  0.00000000000E+00  0.11910963170E+03  0.11910963173E+03  0.25500000000E-02 0. -1.
         -2   -1    0    0    0  501 -0.00000000000E+00 -0.00000000000E+00 -0.46745348562E+00  0.46746044081E+00  0.25500000000E-02 0.  1.
         31    1    1    2    0    0  0.20960847139E+00  0.38576855311E+00  0.58005682966E+02  0.58483424451E+02  0.74470750000E+01 0. -1.
        -31    1    1    2    0    0 -0.20960847139E+00 -0.38576855311E+00  0.60636495249E+02  0.61093667718E+02  0.74470750000E+01 0. -1.
<mgrwt>
<rscale>  0 0.14923623E+02</rscale>
<asrwt>0</asrwt>
<pdfrwt beam="1">  1        2 0.98874706E+00 0.14923623E+02</pdfrwt>
<pdfrwt beam="2">  1       -2 0.99281358E+00 0.14923623E+02</pdfrwt>
<totfact>-0.17053598E-13</totfact>
</mgrwt>
</event>
<event>
 4    1 -0.5167034E-019  0.1499025E+02  0.7818608E-02  0.1868366E+00
          2   -1    0    0  501    0  0.00000000000E+00  0.00000000000E+00  0.12022618283E+03  0.12022618285E+03  0.25500000000E-02 0. -1.
         -2   -1    0    0    0  501 -0.00000000000E+00 -0.00000000000E+00 -0.46725669815E+00  0.46726365626E+00  0.25500000000E-02 0.  1.
         31    1    1    2    0    0  0.13609324772E+00 -0.39617467157E+00  0.53949141797E+02  0.54462320025E+02  0.74470750000E+01 0.  1.
        -31    1    1    2    0    0 -0.13609324772E+00  0.39617467157E+00  0.65809784330E+02  0.66231126485E+02  0.74470750000E+01 0. -1.
<mgrwt>
<rscale>  0 0.14990252E+02</rscale>
<asrwt>0</asrwt>
<pdfrwt beam="1">  1        2 0.99797786E+00 0.14990252E+02</pdfrwt>
<pdfrwt beam="2">  1       -2 0.99243328E+00 0.14990252E+02</pdfrwt>
<totfact>-0.50365451E-14</totfact>
</mgrwt>
</event>
<event>
 4    1 -0.5167034E-019  0.1498854E+02  0.7818608E-02  0.1868418E+00
          2   -1    0    0  501    0  0.00000000000E+00  0.00000000000E+00  0.12018594281E+03  0.12018594283E+03  0.25500000000E-02 0. -1.
         -2   -1    0    0    0  501 -0.00000000000E+00 -0.00000000000E+00 -0.46730634139E+00  0.46731329877E+00  0.25500000000E-02 0.  1.
         31    1    1    2    0    0  0.61509504224E+00  0.21406285019E+00  0.64126295291E+02  0.64560551722E+02  0.74470750000E+01 0. -1.
        -31    1    1    2    0    0 -0.61509504224E+00 -0.21406285019E+00  0.55592341173E+02  0.56092704409E+02  0.74470750000E+01 0.  1.
<mgrwt>
<rscale>  0 0.14988539E+02</rscale>
<asrwt>0</asrwt>
<pdfrwt beam="1">  1        2 0.99764554E+00 0.14988539E+02</pdfrwt>
<pdfrwt beam="2">  1       -2 0.99253703E+00 0.14988539E+02</pdfrwt>
<totfact>-0.58137337E-14</totfact>
</mgrwt>
</event>
<event>
 4    1 -0.5167034E-019  0.1490541E+02  0.7818608E-02  0.1870969E+00
         -2   -1    0    0    0  501 -0.00000000000E+00  0.00000000000E+00  0.12004931024E+03  0.12004931027E+03  0.25500000000E-02 0. -1.
          2   -1    0    0  501    0  0.00000000000E+00 -0.00000000000E+00 -0.46266340996E+00  0.46267043715E+00  0.25500000000E-02 0.  1.
         31    1    1    2    0    0 -0.26200297070E+00 -0.82321288039E-01  0.59047917389E+02  0.59516307819E+02  0.74470750000E+01 0. -1.
        -31    1    1    2    0    0  0.26200297070E+00  0.82321288039E-01  0.60538729440E+02  0.60995672884E+02  0.74470750000E+01 0. -1.
<mgrwt>
<rscale>  0 0.14905415E+02</rscale>
<asrwt>0</asrwt>
<pdfrwt beam="2">  1        2 0.98270933E+00 0.14905415E+02</pdfrwt>
<pdfrwt beam="1">  1       -2 0.99647737E+00 0.14905415E+02</pdfrwt>
<totfact>-0.44853932E-13</totfact>
</mgrwt>
</event>
<event>
 4    1 -0.5167034E-019  0.1492762E+02  0.7818608E-02  0.1870285E+00
         -2   -1    0    0    0  501 -0.00000000000E+00  0.00000000000E+00  0.12032039231E+03  0.12032039233E+03  0.25500000000E-02 0. -1.
          2   -1    0    0  501    0  0.00000000000E+00 -0.00000000000E+00 -0.46299739052E+00  0.46300441264E+00  0.25500000000E-02 0.  1.
         31    1    1    2    0    0  0.14457499019E+00  0.33581241791E+00  0.62682766693E+02  0.63124653173E+02  0.74470750000E+01 0. -1.
        -31    1    1    2    0    0 -0.14457499019E+00 -0.33581241791E+00  0.57174628224E+02  0.57658743574E+02  0.74470750000E+01 0.  1.
<mgrwt>
<rscale>  0 0.14927619E+02</rscale>
<asrwt>0</asrwt>
<pdfrwt beam="2">  1        2 0.98342449E+00 0.14927619E+02</pdfrwt>
<pdfrwt beam="1">  1       -2 0.99872163E+00 0.14927619E+02</pdfrwt>
<totfact>-0.18295878E-13</totfact>
</mgrwt>
</event>
<event>
 4    1 -0.5167034E-019  0.1493187E+02  0.7818608E-02  0.1870155E+00
          2   -1    0    0  501    0  0.00000000000E+00  0.00000000000E+00  0.11880325745E+03  0.11880325748E+03  0.25500000000E-02 0.  1.
         -2   -1    0    0    0  501 -0.00000000000E+00 -0.00000000000E+00 -0.46917685848E+00  0.46918378812E+00  0.25500000000E-02 0. -1.
         31    1    1    2    0    0  0.17459095370E+00 -0.50071065508E+00  0.59119932505E+02  0.59589483456E+02  0.74470750000E+01 0. -1.
        -31    1    1    2    0    0 -0.17459095370E+00  0.50071065508E+00  0.59214148087E+02  0.59682957810E+02  0.74470750000E+01 0. -1.
<mgrwt>
<rscale>  0 0.14931866E+02</rscale>
<asrwt>0</asrwt>
<pdfrwt beam="1">  1        2 0.98622800E+00 0.14931866E+02</pdfrwt>
<pdfrwt beam="2">  1       -2 0.99644932E+00 0.14931866E+02</pdfrwt>
<totfact>-0.25348993E-13</totfact>
</mgrwt>
</event>
<event>
 4    1  0.5167034E-019  0.1493350E+02  0.7818608E-02  0.1870105E+00
         -2   -1    0    0    0  501 -0.00000000000E+00  0.00000000000E+00  0.11873305878E+03  0.11873305881E+03  0.25500000000E-02 0. -1.
          2   -1    0    0  501    0  0.00000000000E+00 -0.00000000000E+00 -0.46955716052E+00  0.46956408455E+00  0.25500000000E-02 0.  1.
         31    1    1    2    0    0  0.22562356445E+00 -0.48583868479E+00  0.59775347013E+02  0.60239837166E+02  0.74470750000E+01 0.  1.
        -31    1    1    2    0    0 -0.22562356445E+00  0.48583868479E+00  0.58488154606E+02  0.58962785725E+02  0.74470750000E+01 0.  1.
<mgrwt>
<rscale>  0 0.14933502E+02</rscale>
<asrwt>0</asrwt>
<pdfrwt beam="2">  1        2 0.99725150E+00 0.14933502E+02</pdfrwt>
<pdfrwt beam="1">  1       -2 0.98565069E+00 0.14933502E+02</pdfrwt>
<totfact> 0.27764813E-13</totfact>
</mgrwt>
</event>
<event>
 4    1 -0.5167034E-019  0.1494181E+02  0.7818608E-02  0.1869849E+00
          2   -1    0    0  501    0  0.00000000000E+00  0.00000000000E+00  0.11970100421E+03  0.11970100424E+03  0.25500000000E-02 0. -1.
         -2   -1    0    0    0  501 -0.00000000000E+00 -0.00000000000E+00 -0.46627864883E+00  0.46628562154E+00  0.25500000000E-02 0.  1.
         31    1    1    2    0    0 -0.18654261086E+00  0.56171371316E+00  0.59037610997E+02  0.59508392339E+02  0.74470750000E+01 0.  1.
        -31    1    1    2    0    0  0.18654261086E+00 -0.56171371316E+00  0.60197114564E+02  0.60658897520E+02  0.74470750000E+01 0. -1.
<mgrwt>
<rscale>  0 0.14941813E+02</rscale>
<asrwt>0</asrwt>
<pdfrwt beam="1">  1        2 0.99362723E+00 0.14941813E+02</pdfrwt>
<pdfrwt beam="2">  1       -2 0.99034722E+00 0.14941813E+02</pdfrwt>
<totfact>-0.11927221E-14</totfact>
</mgrwt>
</event>
<event>
 4    1 -0.5167034E-019  0.1492859E+02  0.7818608E-02  0.1870255E+00
         -2   -1    0    0    0  501 -0.00000000000E+00  0.00000000000E+00  0.12008793353E+03  0.12008793356E+03  0.25500000000E-02 0.  1.
          2   -1    0    0  501    0  0.00000000000E+00 -0.00000000000E+00 -0.46395414296E+00  0.46396115061E+00  0.25500000000E-02 0. -1.
         31    1    1    2    0    0  0.34616091358E+00  0.12252442566E+00  0.62632000525E+02  0.63074251921E+02  0.74470750000E+01 0.  1.
        -31    1    1    2    0    0 -0.34616091358E+00 -0.12252442566E+00  0.56991978864E+02  0.57477642788E+02  0.74470750000E+01 0. -1.
<mgrwt>
<rscale>  0 0.14928592E+02</rscale>
<asrwt>0</asrwt>
<pdfrwt beam="2">  1        2 0.98544151E+00 0.14928592E+02</pdfrwt>
<pdfrwt beam="1">  1       -2 0.99680741E+00 0.14928592E+02</pdfrwt>
<totfact>-0.26939629E-13</totfact>
</mgrwt>
</event>
<event>
 4    1  0.5167034E-019  0.1490734E+02  0.7818608E-02  0.1870909E+00
         -2   -1    0    0    0  501 -0.00000000000E+00  0.00000000000E+00  0.11826515353E+03  0.11826515355E+03  0.25500000000E-02 0. -1.
          2   -1    0    0  501    0  0.00000000000E+00 -0.00000000000E+00 -0.46976461202E+00  0.46977153299E+00  0.25500000000E-02 0.  1.
         31    1    1    2    0    0  0.23575149415E+00  0.18874455522E+00  0.58228117775E+02  0.58703184147E+02  0.74470750000E+01 0.  1.
        -31    1    1    2    0    0 -0.23575149415E+00 -0.18874455522E+00  0.59567271140E+02  0.60031740940E+02  0.74470750000E+01 0.  1.
<mgrwt>
<rscale>  0 0.14907340E+02</rscale>
<asrwt>0</asrwt>
<pdfrwt beam="2">  1        2 0.99767479E+00 0.14907340E+02</pdfrwt>
<pdfrwt beam="1">  1       -2 0.98178344E+00 0.14907340E+02</pdfrwt>
<totfact> 0.63094831E-13</totfact>
</mgrwt>
</event>
<event>
 4    1 -0.5167034E-019  0.1492006E+02  0.7818608E-02  0.1870518E+00
         -2   -1    0    0    0  501 -0.00000000000E+00  0.00000000000E+00  0.11973045755E+03  0.11973045758E+03  0.25500000000E-02 0.  1.
          2   -1    0    0  501    0  0.00000000000E+00 -0.00000000000E+00 -0.46480779151E+00  0.46481478628E+00  0.25500000000E-02 0. -1.
         31    1    1    2    0    0 -0.13808297079E+00 -0.26734544833E+00  0.57052341966E+02  0.57537111418E+02  0.74470750000E+01 0. -1.
        -31    1    1    2    0    0  0.13808297079E+00  0.26734544833E+00  0.62213307796E+02  0.62658160948E+02  0.74470750000E+01 0.  1.
<mgrwt>
<rscale>  0 0.14920063E+02</rscale>
<asrwt>0</asrwt>
<pdfrwt beam="2">  1        2 0.98723628E+00 0.14920063E+02</pdfrwt>
<pdfrwt beam="1">  1       -2 0.99385861E+00 0.14920063E+02</pdfrwt>
<totfact>-0.23941736E-13</totfact>
</mgrwt>
</event>
<event>
 4    1  0.5167034E-019  0.1490933E+02  0.7818608E-02  0.1870848E+00
          2   -1    0    0  501    0  0.00000000000E+00  0.00000000000E+00  0.11989479172E+03  0.11989479175E+03  0.25500000000E-02 0.  1.
         -2   -1    0    0    0  501 -0.00000000000E+00 -0.00000000000E+00 -0.46350290044E+00  0.46350991491E+00  0.25500000000E-02 0. -1.
         31    1    1    2    0    0 -0.14454576285E-01  0.19039118419E+00  0.61950242894E+02  0.62396538192E+02  0.74470750000E+01 0.  1.
        -31    1    1    2    0    0  0.14454576285E-01 -0.19039118419E+00  0.57481045928E+02  0.57961763472E+02  0.74470750000E+01 0. -1.
<mgrwt>
<rscale>  0 0.14909327E+02</rscale>
<asrwt>0</asrwt>
<pdfrwt beam="1">  1        2 0.99520665E+00 0.14909327E+02</pdfrwt>
<pdfrwt beam="2">  1       -2 0.98448067E+00 0.14909327E+02</pdfrwt>
<totfact> 0.54629776E-13</totfact>
</mgrwt>
</event>
<event>
 4    1 -0.5167034E-019  0.1491529E+02  0.7818608E-02  0.1870665E+00
         -2   -1    0    0    0  501 -0.00000000000E+00  0.00000000000E+00  0.12033589750E+03  0.12033589752E+03  0.25500000000E-02 0.  1.
          2   -1    0    0  501    0  0.00000000000E+00 -0.00000000000E+00 -0.46217323598E+00  0.46218027063E+00  0.25500000000E-02 0. -1.
         31    1    1    2    0    0 -0.19563330372E-02  0.39682906041E+00  0.59996641971E+02  0.60458361299E+02  0.74470750000E+01 0.  1.
        -31    1    1    2    0    0  0.19563330372E-02 -0.39682906041E+00  0.59877082290E+02  0.60339716495E+02  0.74470750000E+01 0. -1.
<mgrwt>
<rscale>  0 0.14915288E+02</rscale>
<asrwt>0</asrwt>
<pdfrwt beam="2">  1        2 0.98168116E+00 0.14915288E+02</pdfrwt>
<pdfrwt beam="1">  1       -2 0.99884303E+00 0.14915288E+02</pdfrwt>
<totfact>-0.22459973E-13</totfact>
</mgrwt>
</event>
<event>
 4    1 -0.5167034E-019  0.1500742E+02  0.7818608E-02  0.1867842E+00
          2   -1    0    0  501    0  0.00000000000E+00  0.00000000000E+00  0.12020819771E+03  0.12020819774E+03  0.25500000000E-02 0. -1.
         -2   -1    0    0    0  501 -0.00000000000E+00 -0.00000000000E+00 -0.46839776685E+00  0.46840470801E+00  0.25500000000E-02 0.  1.
         31    1    1    2    0    0 -0.79233559865E+00  0.41225408836E+00  0.61649818351E+02  0.62104402242E+02  0.74470750000E+01 0. -1.
        -31    1    1    2    0    0  0.79233559865E+00 -0.41225408836E+00  0.58089981592E+02  0.58572200203E+02  0.74470750000E+01 0. -1.
<mgrwt>
<rscale>  0 0.15007421E+02</rscale>
<asrwt>0</asrwt>
<pdfrwt beam="1">  1        2 0.99783858E+00 0.15007421E+02</pdfrwt>
<pdfrwt beam="2">  1       -2 0.99484685E+00 0.15007421E+02</pdfrwt>
<totfact>-0.69686284E-14</totfact>
</mgrwt>
</event>
<event>
 4    1 -0.5167034E-019  0.1497563E+02  0.7818608E-02  0.1868813E+00
          2   -1    0    0  501    0  0.00000000000E+00  0.00000000000E+00  0.11948285018E+03  0.11948285020E+03  0.25500000000E-02 0. -1.
         -2   -1    0    0    0  501 -0.00000000000E+00 -0.00000000000E+00 -0.46924679269E+00  0.46925372129E+00  0.25500000000E-02 0.  1.
         31    1    1    2    0    0 -0.68115235423E+00 -0.30194264193E+00  0.61355968506E+02  0.61810750968E+02  0.74470750000E+01 0. -1.
        -31    1    1    2    0    0  0.68115235423E+00  0.30194264193E+00  0.57657634879E+02  0.58141352958E+02  0.74470750000E+01 0.  1.
<mgrwt>
<rscale>  0 0.14975628E+02</rscale>
<asrwt>0</asrwt>
<pdfrwt beam="1">  1        2 0.99184792E+00 0.14975628E+02</pdfrwt>
<pdfrwt beam="2">  1       -2 0.99661956E+00 0.14975628E+02</pdfrwt>
<totfact>-0.13192943E-13</totfact>
</mgrwt>
</event>
<event>
 4    1  0.5167034E-019  0.1492050E+02  0.7818608E-02  0.1870504E+00
         -2   -1    0    0    0  501 -0.00000000000E+00  0.00000000000E+00  0.11866782104E+03  0.11866782107E+03  0.25500000000E-02 0. -1.
          2   -1    0    0  501    0  0.00000000000E+00 -0.00000000000E+00 -0.46899755449E+00  0.46900448677E+00  0.25500000000E-02 0.  1.
         31    1    1    2    0    0 -0.37640724247E+00  0.22987424873E+00  0.58753033973E+02  0.59224762149E+02  0.74470750000E+01 0. -1.
        -31    1    1    2    0    0  0.37640724247E+00 -0.22987424873E+00  0.59445789518E+02  0.59912063410E+02  0.74470750000E+01 0.  1.
<mgrwt>
<rscale>  0 0.14920500E+02</rscale>
<asrwt>0</asrwt>
<pdfrwt beam="2">  1        2 0.99606554E+00 0.14920500E+02</pdfrwt>
<pdfrwt beam="1">  1       -2 0.98510663E+00 0.14920500E+02</pdfrwt>
<totfact> 0.41211171E-13</totfact>
</mgrwt>
</event>
<event>
 4    1 -0.5167034E-019  0.1489859E+02  0.7818608E-02  0.1871179E+00
         -2   -1    0    0    0  501 -0.00000000000E+00  0.00000000000E+00  0.11973660820E+03  0.11973660822E+03  0.25500000000E-02 0.  1.
          2   -1    0    0  501    0  0.00000000000E+00 -0.00000000000E+00 -0.46344702468E+00  0.46345403999E+00  0.25500000000E-02 0. -1.
         31    1    1    2    0    0 -0.87747352248E-01  0.14452234624E+00  0.60176930197E+02  0.60636213934E+02  0.74470750000E+01 0.  1.
        -31    1    1    2    0    0  0.87747352248E-01 -0.14452234624E+00  0.59096230976E+02  0.59563848330E+02  0.74470750000E+01 0. -1.
<mgrwt>
<rscale>  0 0.14898590E+02</rscale>
<asrwt>0</asrwt>
<pdfrwt beam="2">  1        2 0.98435744E+00 0.14898590E+02</pdfrwt>
<pdfrwt beam="1">  1       -2 0.99389821E+00 0.14898590E+02</pdfrwt>
<totfact>-0.37479789E-13</totfact>
</mgrwt>
</event>
<event>
 4    1  0.5167034E-019  0.1492019E+02  0.7818608E-02  0.1870514E+00
          2   -1    0    0  501    0  0.00000000000E+00  0.00000000000E+00  0.12036198289E+03  0.12036198291E+03  0.25500000000E-02 0. -1.
         -2   -1    0    0    0  501 -0.00000000000E+00 -0.00000000000E+00 -0.46237707372E+00  0.46238410526E+00  0.25500000000E-02 0.  1.
         31    1    1    2    0    0 -0.41436751454E+00  0.14289735470E+00  0.60312113153E+02  0.60771720719E+02  0.74470750000E+01 0. -1.
        -31    1    1    2    0    0  0.41436751454E+00 -0.14289735470E+00  0.59587492660E+02  0.60052646300E+02  0.74470750000E+01 0.  1.
<mgrwt>
<rscale>  0 0.14920194E+02</rscale>
<asrwt>0</asrwt>
<pdfrwt beam="1">  1        2 0.99906040E+00 0.14920194E+02</pdfrwt>
<pdfrwt beam="2">  1       -2 0.98211328E+00 0.14920194E+02</pdfrwt>
<totfact> 0.27844030E-13</totfact>
</mgrwt>
</event>
<event>
 4    1 -0.5167034E-019  0.1494722E+02  0.7818608E-02  0.1869683E+00
         -2   -1    0    0    0  501 -0.00000000000E+00  0.00000000000E+00  0.12013706148E+03  0.12013706151E+03  0.25500000000E-02 0.  1.
          2   -1    0    0  501    0  0.00000000000E+00 -0.00000000000E+00 -0.46492240586E+00  0.46492939891E+00  0.25500000000E-02 0. -1.
         31    1    1    2    0    0 -0.59346937519E+00  0.19850039514E+00  0.60365195851E+02  0.60826042157E+02  0.74470750000E+01 0. -1.
        -31    1    1    2    0    0  0.59346937519E+00 -0.19850039514E+00  0.59306943223E+02  0.59775948749E+02  0.74470750000E+01 0. -1.
<mgrwt>
<rscale>  0 0.14947218E+02</rscale>
<asrwt>0</asrwt>
<pdfrwt beam="2">  1        2 0.98749170E+00 0.14947218E+02</pdfrwt>
<pdfrwt beam="1">  1       -2 0.99722164E+00 0.14947218E+02</pdfrwt>
<totfact>-0.18159140E-13</totfact>
</mgrwt>
</event>
<event>
 4    1 -0.5167034E-019  0.1489453E+02  0.7818608E-02  0.1871304E+00
         -2   -1    0    0    0  501 -0.00000000000E+00  0.00000000000E+00  0.12013914660E+03  0.12013914662E+03  0.25500000000E-02 0.  1.
          2   -1    0    0  501    0  0.00000000000E+00 -0.00000000000E+00 -0.46164255241E+00  0.46164959514E+00  0.25500000000E-02 0. -1.
         31    1    1    2    0    0 -0.27843962958E-01 -0.28875381845E-03  0.59470613788E+02  0.59935078258E+02  0.74470750000E+01 0. -1.
        -31    1    1    2    0    0  0.27843962958E-01  0.28875381845E-03  0.60206890256E+02  0.60665717961E+02  0.74470750000E+01 0.  1.
<mgrwt>
<rscale>  0 0.14894532E+02</rscale>
<asrwt>0</asrwt>
<pdfrwt beam="2">  1        2 0.98055215E+00 0.14894532E+02</pdfrwt>
<pdfrwt beam="1">  1       -2 0.99721176E+00 0.14894532E+02</pdfrwt>
<totfact>-0.55738155E-13</totfact>
</mgrwt>
</event>
<event>
 4    1 -0.5167034E-019  0.1495560E+02  0.7818608E-02  0.1869426E+00
         -2   -1    0    0    0  501 -0.00000000000E+00  0.00000000000E+00  0.12033302632E+03  0.12033302634E+03  0.25500000000E-02 0. -1.
          2   -1    0    0  501    0  0.00000000000E+00 -0.00000000000E+00 -0.46468602738E+00  0.46469302399E+00  0.25500000000E-02 0.  1.
         31    1    1    2    0    0 -0.64228093202E+00 -0.12421640934E+00  0.58520803885E+02  0.58996367413E+02  0.74470750000E+01 0. -1.
        -31    1    1    2    0    0  0.64228093202E+00  0.12421640934E+00  0.61347536405E+02  0.61801351956E+02  0.74470750000E+01 0. -1.
<mgrwt>
<rscale>  0 0.14955601E+02</rscale>
<asrwt>0</asrwt>
<pdfrwt beam="2">  1        2 0.98699777E+00 0.14955601E+02</pdfrwt>
<pdfrwt beam="1">  1       -2 0.99884006E+00 0.14955601E+02</pdfrwt>
<totfact>-0.95101808E-14</totfact>
</mgrwt>
</event>
<event>
 4    1  0.5167034E-019  0.1490327E+02  0.7818608E-02  0.1871035E+00
         -2   -1    0    0    0  501 -0.00000000000E+00  0.00000000000E+00  0.11841859280E+03  0.11841859283E+03  0.25500000000E-02 0.  1.
          2   -1    0    0  501    0  0.00000000000E+00 -0.00000000000E+00 -0.46889945222E+00  0.46890638596E+00  0.25500000000E-02 0. -1.
         31    1    1    2    0    0  0.25398276186E+00 -0.43459270853E-01  0.58665364389E+02  0.59136708573E+02  0.74470750000E+01 0. -1.
        -31    1    1    2    0    0 -0.25398276186E+00  0.43459270853E-01  0.59284328958E+02  0.59750790639E+02  0.74470750000E+01 0.  1.
<mgrwt>
<rscale>  0 0.14903265E+02</rscale>
<asrwt>0</asrwt>
<pdfrwt beam="2">  1        2 0.99584976E+00 0.14903265E+02</pdfrwt>
<pdfrwt beam="1">  1       -2 0.98304502E+00 0.14903265E+02</pdfrwt>
<totfact> 0.71266510E-13</totfact>
</mgrwt>
</event>
<event>
 4    1  0.5167034E-019  0.1493596E+02  0.7818608E-02  0.1870029E+00
         -2   -1    0    0    0  501 -0.00000000000E+00  0.00000000000E+00  0.11882250836E+03  0.11882250838E+03  0.25500000000E-02 0. -1.
          2   -1    0    0  501    0  0.00000000000E+00 -0.00000000000E+00 -0.46935809231E+00  0.46936501927E+00  0.25500000000E-02 0.  1.
         31    1    1    2    0    0 -0.38030315524E+00  0.39635723345E+00  0.59977857363E+02  0.60440913539E+02  0.74470750000E+01 0. -1.
        -31    1    1    2    0    0  0.38030315524E+00 -0.39635723345E+00  0.58375292902E+02  0.58850959865E+02  0.74470750000E+01 0.  1.
<mgrwt>
<rscale>  0 0.14935959E+02</rscale>
<asrwt>0</asrwt>
<pdfrwt beam="2">  1        2 0.99683334E+00 0.14935959E+02</pdfrwt>
<pdfrwt beam="1">  1       -2 0.98638867E+00 0.14935959E+02</pdfrwt>
<totfact> 0.23843240E-13</totfact>
</mgrwt>
</event>
<event>
 4    1  0.5167034E-019  0.1490669E+02  0.7818608E-02  0.1870929E+00
         -2   -1    0    0    0  501 -0.00000000000E+00  0.00000000000E+00  0.11834095495E+03  0.11834095497E+03  0.25500000000E-02 0. -1.
          2   -1    0    0  501    0  0.00000000000E+00 -0.00000000000E+00 -0.46942271232E+00  0.46942963833E+00  0.25500000000E-02 0.  1.
         31    1    1    2    0    0 -0.12516587111E+00 -0.21778440498E+00  0.60323658809E+02  0.60782117722E+02  0.74470750000E+01 0. -1.
        -31    1    1    2    0    0  0.12516587111E+00  0.21778440498E+00  0.57547873426E+02  0.58028266891E+02  0.74470750000E+01 0.  1.
<mgrwt>
<rscale>  0 0.14906689E+02</rscale>
<asrwt>0</asrwt>
<pdfrwt beam="2">  1        2 0.99695407E+00 0.14906689E+02</pdfrwt>
<pdfrwt beam="1">  1       -2 0.98240739E+00 0.14906689E+02</pdfrwt>
<totfact> 0.67390502E-13</totfact>
</mgrwt>
</event>
<event>
 4    1 -0.5167034E-019  0.1497434E+02  0.7818608E-02  0.1868853E+00
         -2   -1    0    0    0  501 -0.00000000000E+00  0.00000000000E+00  0.12020674790E+03  0.12020674792E+03  0.25500000000E-02 0. -1.
          2   -1    0    0  501    0  0.00000000000E+00 -0.00000000000E+00 -0.46634065930E+00  0.46634763108E+00  0.25500000000E-02 0.  1.
         31    1    1    2    0    0 -0.17492541051E+00  0.69202079742E+00  0.57462044875E+02  0.57947001812E+02  0.74470750000E+01 0.  1.
        -31    1    1    2    0    0  0.17492541051E+00 -0.69202079742E+00  0.62278362362E+02  0.62726093743E+02  0.74470750000E+01 0. -1.
<mgrwt>
<rscale>  0 0.14974340E+02</rscale>
<asrwt>0</asrwt>
<pdfrwt beam="2">  1        2 0.99049458E+00 0.14974340E+02</pdfrwt>
<pdfrwt beam="1">  1       -2 0.99780958E+00 0.14974340E+02</pdfrwt>
<totfact>-0.10901424E-13</totfact>
</mgrwt>
</event>
<event>
 4    1  0.5167034E-019  0.1489858E+02  0.7818608E-02  0.1871179E+00
          2   -1    0    0  501    0  0.00000000000E+00  0.00000000000E+00  0.12012458354E+03  0.12012458356E+03  0.25500000000E-02 0. -1.
         -2   -1    0    0    0  501 -0.00000000000E+00 -0.00000000000E+00 -0.46194948430E+00  0.46195652235E+00  0.25500000000E-02 0.  1.
         31    1    1    2    0    0 -0.14776311358E-01 -0.17537315722E+00  0.60194662001E+02  0.60653831153E+02  0.74470750000E+01 0. -1.
        -31    1    1    2    0    0  0.14776311358E-01  0.17537315722E+00  0.59467972052E+02  0.59932708934E+02  0.74470750000E+01 0.  1.
<mgrwt>
<rscale>  0 0.14898579E+02</rscale>
<asrwt>0</asrwt>
<pdfrwt beam="1">  1        2 0.99709388E+00 0.14898579E+02</pdfrwt>
<pdfrwt beam="2">  1       -2 0.98120113E+00 0.14898579E+02</pdfrwt>
<totfact> 0.82657468E-13</totfact>
</mgrwt>
</event>
<event>
 4    1  0.5167034E-019  0.1493945E+02  0.7818608E-02  0.1869922E+00
         -2   -1    0    0    0  501 -0.00000000000E+00  0.00000000000E+00  0.11901981192E+03  0.11901981194E+03  0.25500000000E-02 0. -1.
          2   -1    0    0  501    0  0.00000000000E+00 -0.00000000000E+00 -0.46879912442E+00  0.46880605964E+00  0.25500000000E-02 0.  1.
         31    1    1    2    0    0 -0.10317093907E+00  0.43986413500E+00  0.56350432136E+02  0.56842187261E+02  0.74470750000E+01 0.  1.
        -31    1    1    2    0    0  0.10317093907E+00 -0.43986413500E+00  0.62200580656E+02  0.62646430742E+02  0.74470750000E+01 0.  1.
<mgrwt>
<rscale>  0 0.14939451E+02</rscale>
<asrwt>0</asrwt>
<pdfrwt beam="2">  1        2 0.99565736E+00 0.14939451E+02</pdfrwt>
<pdfrwt beam="1">  1       -2 0.98801550E+00 0.14939451E+02</pdfrwt>
<totfact> 0.13905965E-13</totfact>
</mgrwt>
</event>
<event>
 4    1  0.5167034E-019  0.1490312E+02  0.7818608E-02  0.1871039E+00
         -2   -1    0    0    0  501 -0.00000000000E+00  0.00000000000E+00  0.11899696242E+03  0.11899696245E+03  0.25500000000E-02 0. -1.
          2   -1    0    0  501    0  0.00000000000E+00 -0.00000000000E+00 -0.46661140419E+00  0.46661837193E+00  0.25500000000E-02 0.  1.
         31    1    1    2    0    0  0.61078430790E-01 -0.13493085738E+00  0.60963635377E+02  0.61416982190E+02  0.74470750000E+01 0. -1.
        -31    1    1    2    0    0 -0.61078430790E-01  0.13493085738E+00  0.57566715638E+02  0.58046598628E+02  0.74470750000E+01 0.  1.
<mgrwt>
<rscale>  0 0.14903121E+02</rscale>
<asrwt>0</asrwt>
<pdfrwt beam="2">  1        2 0.99102845E+00 0.14903121E+02</pdfrwt>
<pdfrwt beam="1">  1       -2 0.98780847E+00 0.14903121E+02</pdfrwt>
<totfact> 0.22993512E-13</totfact>
</mgrwt>
</event>
<event>
 4    1 -0.5167034E-019  0.1496970E+02  0.7818608E-02  0.1868995E+00
          2   -1    0    0  501    0  0.00000000000E+00  0.00000000000E+00  0.11955331608E+03  0.11955331610E+03  0.25500000000E-02 0. -1.
         -2   -1    0    0    0  501 -0.00000000000E+00 -0.00000000000E+00 -0.46859897578E+00  0.46860591397E+00  0.25500000000E-02 0.  1.
         31    1    1    2    0    0 -0.10095230016E+00 -0.72971782984E+00  0.60714526040E+02  0.61173975495E+02  0.74470750000E+01 0. -1.
        -31    1    1    2    0    0  0.10095230016E+00  0.72971782984E+00  0.58370191060E+02  0.58847946523E+02  0.74470750000E+01 0. -1.
<mgrwt>
<rscale>  0 0.14969700E+02</rscale>
<asrwt>0</asrwt>
<pdfrwt beam="1">  1        2 0.99242523E+00 0.14969700E+02</pdfrwt>
<pdfrwt beam="2">  1       -2 0.99525137E+00 0.14969700E+02</pdfrwt>
<totfact>-0.14559359E-13</totfact>
</mgrwt>
</event>
<event>
 4    1 -0.5167034E-019  0.1493397E+02  0.7818608E-02  0.1870090E+00
         -2   -1    0    0    0  501 -0.00000000000E+00  0.00000000000E+00  0.11988940640E+03  0.11988940643E+03  0.25500000000E-02 0.  1.
          2   -1    0    0  501    0  0.00000000000E+00 -0.00000000000E+00 -0.46505718583E+00  0.46506417685E+00  0.25500000000E-02 0. -1.
         31    1    1    2    0    0  0.84428345034E-01  0.21014368990E+00  0.63706418001E+02  0.64140610452E+02  0.74470750000E+01 0.  1.
        -31    1    1    2    0    0 -0.84428345034E-01 -0.21014368990E+00  0.55717931217E+02  0.56213860156E+02  0.74470750000E+01 0. -1.
<mgrwt>
<rscale>  0 0.14933968E+02</rscale>
<asrwt>0</asrwt>
<pdfrwt beam="2">  1        2 0.98776899E+00 0.14933968E+02</pdfrwt>
<pdfrwt beam="1">  1       -2 0.99517497E+00 0.14933968E+02</pdfrwt>
<totfact>-0.22881942E-13</totfact>
</mgrwt>
</event>
<event>
 4    1 -0.5167034E-019  0.1497696E+02  0.7818608E-02  0.1868772E+00
          2   -1    0    0  501    0  0.00000000000E+00  0.00000000000E+00  0.11996261245E+03  0.11996261248E+03  0.25500000000E-02 0. -1.
         -2   -1    0    0    0  501 -0.00000000000E+00 -0.00000000000E+00 -0.46745345816E+00  0.46746041335E+00  0.25500000000E-02 0.  1.
         31    1    1    2    0    0 -0.65011124678E+00  0.35776600640E+00  0.57653958433E+02  0.58137668428E+02  0.74470750000E+01 0.  1.
        -31    1    1    2    0    0  0.65011124678E+00 -0.35776600640E+00  0.61841200558E+02  0.62292404462E+02  0.74470750000E+01 0. -1.
<mgrwt>
<rscale>  0 0.14976963E+02</rscale>
<asrwt>0</asrwt>
<pdfrwt beam="1">  1        2 0.99580010E+00 0.14976963E+02</pdfrwt>
<pdfrwt beam="2">  1       -2 0.99284112E+00 0.14976963E+02</pdfrwt>
<totfact>-0.91313426E-14</totfact>
</mgrwt>
</event>
<event>
 4    1 -0.5167034E-019  0.1497293E+02  0.7818608E-02  0.1868896E+00
         -2   -1    0    0    0  501 -0.00000000000E+00  0.00000000000E+00  0.11947411880E+03  0.11947411883E+03  0.25500000000E-02 0. -1.
          2   -1    0    0  501    0  0.00000000000E+00 -0.00000000000E+00 -0.46911176829E+00  0.46911869889E+00  0.25500000000E-02 0.  1.
         31    1    1    2    0    0  0.31978324978E+00 -0.84284498430E-01  0.65045757848E+02  0.65471512165E+02  0.74470750000E+01 0. -1.
        -31    1    1    2    0    0 -0.31978324978E+00  0.84284498430E-01  0.53959249186E+02  0.54471725363E+02  0.74470750000E+01 0.  1.
<mgrwt>
<rscale>  0 0.14972927E+02</rscale>
<asrwt>0</asrwt>
<pdfrwt beam="2">  1        2 0.99633362E+00 0.14972927E+02</pdfrwt>
<pdfrwt beam="1">  1       -2 0.99177461E+00 0.14972927E+02</pdfrwt>
<totfact>-0.60076692E-14</totfact>
</mgrwt>
</event>
<event>
 4    1 -0.5167034E-019  0.1491273E+02  0.7818608E-02  0.1870743E+00
          2   -1    0    0  501    0  0.00000000000E+00  0.00000000000E+00  0.11824771576E+03  0.11824771578E+03  0.25500000000E-02 0.  1.
         -2   -1    0    0    0  501 -0.00000000000E+00 -0.00000000000E+00 -0.47017344169E+00  0.47018035664E+00  0.25500000000E-02 0. -1.
         31    1    1    2    0    0 -0.16138293270E+00  0.30161742257E+00  0.57724090861E+02  0.58203493102E+02  0.74470750000E+01 0.  1.
        -31    1    1    2    0    0  0.16138293270E+00 -0.30161742257E+00  0.60053451454E+02  0.60514403038E+02  0.74470750000E+01 0.  1.
<mgrwt>
<rscale>  0 0.14912726E+02</rscale>
<asrwt>0</asrwt>
<pdfrwt beam="1">  1        2 0.98164263E+00 0.14912726E+02</pdfrwt>
<pdfrwt beam="2">  1       -2 0.99853902E+00 0.14912726E+02</pdfrwt>
<totfact>-0.27802116E-13</totfact>
</mgrwt>
</event>
<event>
 4    1 -0.5167034E-019  0.1500158E+02  0.7818608E-02  0.1868020E+00
         -2   -1    0    0    0  501 -0.00000000000E+00  0.00000000000E+00  0.12030892685E+03  0.12030892688E+03  0.25500000000E-02 0.  1.
          2   -1    0    0  501    0  0.00000000000E+00 -0.00000000000E+00 -0.46764147519E+00  0.46764842758E+00  0.25500000000E-02 0. -1.
         31    1    1    2    0    0 -0.37828157351E+00 -0.65513440943E+00  0.56054175828E+02  0.56551762589E+02  0.74470750000E+01 0.  1.
        -31    1    1    2    0    0  0.37828157351E+00  0.65513440943E+00  0.63787109551E+02  0.64224812720E+02  0.74470750000E+01 0.  1.
<mgrwt>
<rscale>  0 0.15001582E+02</rscale>
<asrwt>0</asrwt>
<pdfrwt beam="2">  1        2 0.99325000E+00 0.15001582E+02</pdfrwt>
<pdfrwt beam="1">  1       -2 0.99866523E+00 0.15001582E+02</pdfrwt>
<totfact>-0.58370425E-14</totfact>
</mgrwt>
</event>
<event>
 4    1  0.5167034E-019  0.1493583E+02  0.7818608E-02  0.1870033E+00
          2   -1    0    0  501    0  0.00000000000E+00  0.00000000000E+00  0.11982165092E+03  0.11982165095E+03  0.25500000000E-02 0.  1.
         -2   -1    0    0    0  501 -0.00000000000E+00 -0.00000000000E+00 -0.46543613721E+00  0.46544312254E+00  0.25500000000E-02 0. -1.
         31    1    1    2    0    0  0.52826727299E+00  0.14126115037E+00  0.58803224854E+02  0.59275435050E+02  0.74470750000E+01 0.  1.
        -31    1    1    2    0    0 -0.52826727299E+00 -0.14126115037E+00  0.60552989933E+02  0.61011659025E+02  0.74470750000E+01 0. -1.
<mgrwt>
<rscale>  0 0.14935829E+02</rscale>
<asrwt>0</asrwt>
<pdfrwt beam="1">  1        2 0.99461785E+00 0.14935829E+02</pdfrwt>
<pdfrwt beam="2">  1       -2 0.98856859E+00 0.14935829E+02</pdfrwt>
<totfact> 0.10858961E-13</totfact>
</mgrwt>
</event>
<event>
 4    1  0.5167034E-019  0.1491741E+02  0.7818608E-02  0.1870599E+00
          2   -1    0    0  501    0  0.00000000000E+00  0.00000000000E+00  0.11997024694E+03  0.11997024697E+03  0.25500000000E-02 0.  1.
         -2   -1    0    0    0  501 -0.00000000000E+00 -0.00000000000E+00 -0.46371383561E+00  0.46372084688E+00  0.25500000000E-02 0. -1.
         31    1    1    2    0    0 -0.10175734372E+00 -0.33678287580E+00  0.61551002074E+02  0.62000875475E+02  0.74470750000E+01 0.  1.
        -31    1    1    2    0    0  0.10175734372E+00  0.33678287580E+00  0.57955531035E+02  0.58433092343E+02  0.74470750000E+01 0. -1.
<mgrwt>
<rscale>  0 0.14917411E+02</rscale>
<asrwt>0</asrwt>
<pdfrwt beam="1">  1        2 0.99583231E+00 0.14917411E+02</pdfrwt>
<pdfrwt beam="2">  1       -2 0.98492935E+00 0.14917411E+02</pdfrwt>
<totfact> 0.44805761E-13</totfact>
</mgrwt>
</event>
<event>
 4    1  0.5167034E-019  0.1490867E+02  0.7818608E-02  0.1870868E+00
          2   -1    0    0  501    0  0.00000000000E+00  0.00000000000E+00  0.12007979780E+03  0.12007979783E+03  0.25500000000E-02 0. -1.
         -2   -1    0    0    0  501 -0.00000000000E+00 -0.00000000000E+00 -0.46274804413E+00  0.46275507004E+00  0.25500000000E-02 0.  1.
         31    1    1    2    0    0  0.29013519481E+00 -0.15409300431E+00  0.59940771022E+02  0.60402507231E+02  0.74470750000E+01 0. -1.
        -31    1    1    2    0    0 -0.29013519481E+00  0.15409300431E+00  0.59676278737E+02  0.60140045669E+02  0.74470750000E+01 0.  1.
<mgrwt>
<rscale>  0 0.14908671E+02</rscale>
<asrwt>0</asrwt>
<pdfrwt beam="1">  1        2 0.99673017E+00 0.14908671E+02</pdfrwt>
<pdfrwt beam="2">  1       -2 0.98288936E+00 0.14908671E+02</pdfrwt>
<totfact> 0.63758165E-13</totfact>
</mgrwt>
</event>
<event>
 4    1 -0.5167034E-019  0.1500010E+02  0.7818608E-02  0.1868066E+00
          2   -1    0    0  501    0  0.00000000000E+00  0.00000000000E+00  0.11961037749E+03  0.11961037751E+03  0.25500000000E-02 0.  1.
         -2   -1    0    0    0  501 -0.00000000000E+00 -0.00000000000E+00 -0.47027952477E+00  0.47028643816E+00  0.25500000000E-02 0. -1.
         31    1    1    2    0    0 -0.40022282770E+00 -0.51694469972E+00  0.64402455152E+02  0.64834886950E+02  0.74470750000E+01 0.  1.
        -31    1    1    2    0    0  0.40022282770E+00  0.51694469972E+00  0.54737642808E+02  0.55245777001E+02  0.74470750000E+01 0. -1.
<mgrwt>
<rscale>  0 0.15000097E+02</rscale>
<asrwt>0</asrwt>
<pdfrwt beam="1">  1        2 0.99291095E+00 0.15000097E+02</pdfrwt>
<pdfrwt beam="2">  1       -2 0.99880849E+00 0.15000097E+02</pdfrwt>
<totfact>-0.54064237E-14</totfact>
</mgrwt>
</event>
<event>
 4    1  0.5167034E-019  0.1493881E+02  0.7818608E-02  0.1869941E+00
         -2   -1    0    0    0  501 -0.00000000000E+00  0.00000000000E+00  0.11914542817E+03  0.11914542819E+03  0.25500000000E-02 0. -1.
          2   -1    0    0  501    0  0.00000000000E+00 -0.00000000000E+00 -0.46826492942E+00  0.46827187256E+00  0.25500000000E-02 0.  1.
         31    1    1    2    0    0 -0.11141229850E+00  0.43739200654E+00  0.62218752731E+02  0.62664470331E+02  0.74470750000E+01 0. -1.
        -31    1    1    2    0    0  0.11141229850E+00 -0.43739200654E+00  0.56458410507E+02  0.56949229736E+02  0.74470750000E+01 0.  1.
<mgrwt>
<rscale>  0 0.14938814E+02</rscale>
<asrwt>0</asrwt>
<pdfrwt beam="2">  1        2 0.99453138E+00 0.14938814E+02</pdfrwt>
<pdfrwt beam="1">  1       -2 0.98904976E+00 0.14938814E+02</pdfrwt>
<totfact> 0.72113385E-14</totfact>
</mgrwt>
</event>
<event>
 4    1 -0.5167034E-019  0.1496089E+02  0.7818608E-02  0.1869264E+00
         -2   -1    0    0    0  501 -0.00000000000E+00  0.00000000000E+00  0.12014140489E+03  0.12014140492E+03  0.25500000000E-02 0. -1.
          2   -1    0    0  501    0  0.00000000000E+00 -0.00000000000E+00 -0.46575639846E+00  0.46576337899E+00  0.25500000000E-02 0.  1.
         31    1    1    2    0    0  0.65955260274E+00 -0.20988504070E+00  0.58724776631E+02  0.59199133252E+02  0.74470750000E+01 0. -1.
        -31    1    1    2    0    0 -0.65955260274E+00  0.20988504070E+00  0.60950871865E+02  0.61408035048E+02  0.74470750000E+01 0. -1.
<mgrwt>
<rscale>  0 0.14960889E+02</rscale>
<asrwt>0</asrwt>
<pdfrwt beam="2">  1        2 0.98925636E+00 0.14960889E+02</pdfrwt>
<pdfrwt beam="1">  1       -2 0.99726445E+00 0.14960889E+02</pdfrwt>
<totfact>-0.14495767E-13</totfact>
</mgrwt>
</event>
<event>
 4    1  0.5167034E-019  0.1492580E+02  0.7818608E-02  0.1870341E+00
         -2   -1    0    0    0  501 -0.00000000000E+00  0.00000000000E+00  0.11839024427E+03  0.11839024430E+03  0.25500000000E-02 0.  1.
          2   -1    0    0  501    0  0.00000000000E+00 -0.00000000000E+00 -0.47043114384E+00  0.47043805500E+00  0.25500000000E-02 0. -1.
         31    1    1    2    0    0 -0.24543613790E+00 -0.41859472256E+00  0.58784728917E+02  0.59256550189E+02  0.74470750000E+01 0. -1.
        -31    1    1    2    0    0  0.24543613790E+00  0.41859472256E+00  0.59135084209E+02  0.59604132163E+02  0.74470750000E+01 0. -1.
<mgrwt>
<rscale>  0 0.14925799E+02</rscale>
<asrwt>0</asrwt>
<pdfrwt beam="2">  1        2 0.99908890E+00 0.14925799E+02</pdfrwt>
<pdfrwt beam="1">  1       -2 0.98282328E+00 0.14925799E+02</pdfrwt>
<totfact> 0.23362657E-13</totfact>
</mgrwt>
</event>
<event>
 4    1 -0.5167034E-019  0.1495905E+02  0.7818608E-02  0.1869321E+00
         -2   -1    0    0    0  501 -0.00000000000E+00  0.00000000000E+00  0.12012025946E+03  0.12012025949E+03  0.25500000000E-02 0.  1.
          2   -1    0    0  501    0  0.00000000000E+00 -0.00000000000E+00 -0.46572417108E+00  0.46573115209E+00  0.25500000000E-02 0. -1.
         31    1    1    2    0    0  0.42959191394E+00 -0.27839080187E+00  0.63628419951E+02  0.64064785976E+02  0.74470750000E+01 0.  1.
        -31    1    1    2    0    0 -0.42959191394E+00  0.27839080187E+00  0.56026115342E+02  0.56521204667E+02  0.74470750000E+01 0. -1.
<mgrwt>
<rscale>  0 0.14959055E+02</rscale>
<asrwt>0</asrwt>
<pdfrwt beam="2">  1        2 0.98918751E+00 0.14959055E+02</pdfrwt>
<pdfrwt beam="1">  1       -2 0.99708934E+00 0.14959055E+02</pdfrwt>
<totfact>-0.15233142E-13</totfact>
</mgrwt>
</event>
<event>
 4    1  0.5167034E-019  0.1490120E+02  0.7818608E-02  0.1871099E+00
         -2   -1    0    0    0  501 -0.00000000000E+00  0.00000000000E+00  0.11811815031E+03  0.11811815034E+03  0.25500000000E-02 0. -1.
          2   -1    0    0  501    0  0.00000000000E+00 -0.00000000000E+00 -0.46996162761E+00  0.46996854568E+00  0.25500000000E-02 0.  1.
         31    1    1    2    0    0 -0.72980563880E-01 -0.91012292403E-01  0.60393201968E+02  0.60850730311E+02  0.74470750000E+01 0. -1.
        -31    1    1    2    0    0  0.72980563880E-01  0.91012292403E-01  0.57254986718E+02  0.57737388576E+02  0.74470750000E+01 0.  1.
<mgrwt>
<rscale>  0 0.14901196E+02</rscale>
<asrwt>0</asrwt>
<pdfrwt beam="2">  1        2 0.99808663E+00 0.14901196E+02</pdfrwt>
<pdfrwt beam="1">  1       -2 0.98056954E+00 0.14901196E+02</pdfrwt>
<totfact> 0.68029532E-13</totfact>
</mgrwt>
</event>
<event>
 4    1  0.5167034E-019  0.1491420E+02  0.7818608E-02  0.1870698E+00
         -2   -1    0    0    0  501 -0.00000000000E+00  0.00000000000E+00  0.11830012012E+03  0.11830012015E+03  0.25500000000E-02 0.  1.
          2   -1    0    0  501    0  0.00000000000E+00 -0.00000000000E+00 -0.47005794772E+00  0.47006486437E+00  0.25500000000E-02 0. -1.
         31    1    1    2    0    0 -0.12016426758E+00  0.33453771135E+00  0.57706166388E+02  0.58185796550E+02  0.74470750000E+01 0. -1.
        -31    1    1    2    0    0  0.12016426758E+00 -0.33453771135E+00  0.60123895783E+02  0.60584388460E+02  0.74470750000E+01 0. -1.
<mgrwt>
<rscale>  0 0.14914198E+02</rscale>
<asrwt>0</asrwt>
<pdfrwt beam="2">  1        2 0.99829646E+00 0.14914198E+02</pdfrwt>
<pdfrwt beam="1">  1       -2 0.98207499E+00 0.14914198E+02</pdfrwt>
<totfact> 0.46740827E-13</totfact>
</mgrwt>
</event>
<event>
 4    1 -0.5167034E-019  0.1494115E+02  0.7818608E-02  0.1869870E+00
         -2   -1    0    0    0  501 -0.00000000000E+00  0.00000000000E+00  0.11941702207E+03  0.11941702209E+03  0.25500000000E-02 0. -1.
          2   -1    0    0  501    0  0.00000000000E+00 -0.00000000000E+00 -0.46734581424E+00  0.46735277103E+00  0.25500000000E-02 0.  1.
         31    1    1    2    0    0  0.10555663119E+00 -0.29327526261E+00  0.63513797309E+02  0.63949656194E+02  0.74470750000E+01 0. -1.
        -31    1    1    2    0    0 -0.10555663119E+00  0.29327526261E+00  0.55435878942E+02  0.55934718670E+02  0.74470750000E+01 0.  1.
<mgrwt>
<rscale>  0 0.14941146E+02</rscale>
<asrwt>0</asrwt>
<pdfrwt beam="2">  1        2 0.99259578E+00 0.14941146E+02</pdfrwt>
<pdfrwt beam="1">  1       -2 0.99128789E+00 0.14941146E+02</pdfrwt>
<totfact>-0.65320740E-14</totfact>
</mgrwt>
</event>
<event>
 4    1 -0.5167034E-019  0.1495742E+02  0.7818608E-02  0.1869371E+00
         -2   -1    0    0    0  501 -0.00000000000E+00  0.00000000000E+00  0.12014443094E+03  0.12014443096E+03  0.25500000000E-02 0. -1.
          2   -1    0    0  501    0  0.00000000000E+00 -0.00000000000E+00 -0.46552867866E+00  0.46553566260E+00  0.25500000000E-02 0.  1.
         31    1    1    2    0    0 -0.29943424619E-01 -0.81348084247E-01  0.65336056245E+02  0.65759156669E+02  0.74470750000E+01 0. -1.
        -31    1    1    2    0    0  0.29943424619E-01  0.81348084247E-01  0.54342846012E+02  0.54850809957E+02  0.74470750000E+01 0.  1.
<mgrwt>
<rscale>  0 0.14957420E+02</rscale>
<asrwt>0</asrwt>
<pdfrwt beam="2">  1        2 0.98877466E+00 0.14957420E+02</pdfrwt>
<pdfrwt beam="1">  1       -2 0.99728759E+00 0.14957420E+02</pdfrwt>
<totfact>-0.15203269E-13</totfact>
</mgrwt>
</event>
<event>
 4    1  0.5167034E-019  0.1491034E+02  0.7818608E-02  0.1870817E+00
         -2   -1    0    0    0  501 -0.00000000000E+00  0.00000000000E+00  0.11858531206E+03  0.11858531209E+03  0.25500000000E-02 0. -1.
          2   -1    0    0  501    0  0.00000000000E+00 -0.00000000000E+00 -0.46868463131E+00  0.46869156823E+00  0.25500000000E-02 0.  1.
         31    1    1    2    0    0  0.22309636426E+00  0.23211714089E+00  0.58018729677E+02  0.58495602995E+02  0.74470750000E+01 0. -1.
        -31    1    1    2    0    0 -0.22309636426E+00 -0.23211714089E+00  0.60097897753E+02  0.60558400662E+02  0.74470750000E+01 0.  1.
<mgrwt>
<rscale>  0 0.14910336E+02</rscale>
<asrwt>0</asrwt>
<pdfrwt beam="2">  1        2 0.99540085E+00 0.14910336E+02</pdfrwt>
<pdfrwt beam="1">  1       -2 0.98442180E+00 0.14910336E+02</pdfrwt>
<totfact> 0.54266922E-13</totfact>
</mgrwt>
</event>
<event>
 4    1 -0.5167034E-019  0.1501033E+02  0.7818608E-02  0.1867753E+00
          2   -1    0    0  501    0  0.00000000000E+00  0.00000000000E+00  0.12006337666E+03  0.12006337669E+03  0.25500000000E-02 0. -1.
         -2   -1    0    0    0  501 -0.00000000000E+00 -0.00000000000E+00 -0.46914476235E+00  0.46915169246E+00  0.25500000000E-02 0.  1.
         31    1    1    2    0    0  0.86077312982E+00  0.32582149658E+00  0.58619485590E+02  0.59097801202E+02  0.74470750000E+01 0. -1.
        -31    1    1    2    0    0 -0.86077312982E+00 -0.32582149658E+00  0.60974746306E+02  0.61434727176E+02  0.74470750000E+01 0. -1.
<mgrwt>
<rscale>  0 0.15010333E+02</rscale>
<asrwt>0</asrwt>
<pdfrwt beam="1">  1        2 0.99664728E+00 0.15010333E+02</pdfrwt>
<pdfrwt beam="2">  1       -2 0.99642255E+00 0.15010333E+02</pdfrwt>
<totfact>-0.84254069E-14</totfact>
</mgrwt>
</event>
<event>
 4    1 -0.5167034E-019  0.1490710E+02  0.7818608E-02  0.1870917E+00
          2   -1    0    0  501    0  0.00000000000E+00  0.00000000000E+00  0.11879192428E+03  0.11879192431E+03  0.25500000000E-02 0.  1.
         -2   -1    0    0    0  501 -0.00000000000E+00 -0.00000000000E+00 -0.46766669778E+00  0.46767364979E+00  0.25500000000E-02 0. -1.
         31    1    1    2    0    0  0.30748178630E+00 -0.43721644644E-01  0.59224326449E+02  0.59691508827E+02  0.74470750000E+01 0.  1.
        -31    1    1    2    0    0 -0.30748178630E+00  0.43721644644E-01  0.59099931133E+02  0.59568089130E+02  0.74470750000E+01 0.  1.
<mgrwt>
<rscale>  0 0.14907105E+02</rscale>
<asrwt>0</asrwt>
<pdfrwt beam="1">  1        2 0.98612180E+00 0.14907105E+02</pdfrwt>
<pdfrwt beam="2">  1       -2 0.99325425E+00 0.14907105E+02</pdfrwt>
<totfact>-0.26327242E-13</totfact>
</mgrwt>
</event>
<event>
 4    1 -0.5167034E-019  0.1496087E+02  0.7818608E-02  0.1869265E+00
         -2   -1    0    0    0  501 -0.00000000000E+00  0.00000000000E+00  0.12015329293E+03  0.12015329296E+03  0.25500000000E-02 0. -1.
          2   -1    0    0  501    0  0.00000000000E+00 -0.00000000000E+00 -0.46570934637E+00  0.46571632760E+00  0.25500000000E-02 0.  1.
         31    1    1    2    0    0 -0.14177086876E+00 -0.37709714048E+00  0.55172479141E+02  0.55674264089E+02  0.74470750000E+01 0.  1.
        -31    1    1    2    0    0  0.14177086876E+00  0.37709714048E+00  0.64515104447E+02  0.64944745200E+02  0.74470750000E+01 0. -1.
<mgrwt>
<rscale>  0 0.14960874E+02</rscale>
<asrwt>0</asrwt>
<pdfrwt beam="2">  1        2 0.98915719E+00 0.14960874E+02</pdfrwt>
<pdfrwt beam="1">  1       -2 0.99736236E+00 0.14960874E+02</pdfrwt>
<totfact>-0.14281293E-13</totfact>
</mgrwt>
</event>
<event>
 4    1 -0.5167034E-019  0.1494772E+02  0.7818608E-02  0.1869668E+00
          2   -1    0    0  501    0  0.00000000000E+00  0.00000000000E+00  0.11948317665E+03  0.11948317667E+03  0.25500000000E-02 0.  1.
         -2   -1    0    0    0  501 -0.00000000000E+00 -0.00000000000E+00 -0.46749828970E+00  0.46750524422E+00  0.25500000000E-02 0. -1.
         31    1    1    2    0    0  0.16270346696E+00  0.10482190960E+00  0.54678252848E+02  0.55183400771E+02  0.74470750000E+01 0. -1.
        -31    1    1    2    0    0 -0.16270346696E+00 -0.10482190960E+00  0.64337425508E+02  0.64767281147E+02  0.74470750000E+01 0.  1.
<mgrwt>
<rscale>  0 0.14947722E+02</rscale>
<asrwt>0</asrwt>
<pdfrwt beam="1">  1        2 0.99183616E+00 0.14947722E+02</pdfrwt>
<pdfrwt beam="2">  1       -2 0.99292050E+00 0.14947722E+02</pdfrwt>
<totfact>-0.13095658E-13</totfact>
</mgrwt>
</event>
<event>
 4    1  0.5167034E-019  0.1490101E+02  0.7818608E-02  0.1871104E+00
          2   -1    0    0  501    0  0.00000000000E+00  0.00000000000E+00  0.11967234814E+03  0.11967234816E+03  0.25500000000E-02 0. -1.
         -2   -1    0    0    0  501 -0.00000000000E+00 -0.00000000000E+00 -0.46384638751E+00  0.46385339678E+00  0.25500000000E-02 0.  1.
         31    1    1    2    0    0 -0.11522891051E+00 -0.19283866970E+00  0.59403740699E+02  0.59869138957E+02  0.74470750000E+01 0.  1.
        -31    1    1    2    0    0  0.11522891051E+00  0.19283866970E+00  0.59804761050E+02  0.60267062603E+02  0.74470750000E+01 0.  1.
<mgrwt>
<rscale>  0 0.14901008E+02</rscale>
<asrwt>0</asrwt>
<pdfrwt beam="1">  1        2 0.99337017E+00 0.14901008E+02</pdfrwt>
<pdfrwt beam="2">  1       -2 0.98520035E+00 0.14901008E+02</pdfrwt>
<totfact> 0.52608600E-13</totfact>
</mgrwt>
</event>
<event>
 4    1 -0.5167034E-019  0.1501845E+02  0.7818608E-02  0.1867506E+00
         -2   -1    0    0    0  501 -0.00000000000E+00  0.00000000000E+00  0.12006250000E+03  0.12006250003E+03  0.25500000000E-02 0.  1.
          2   -1    0    0  501    0  0.00000000000E+00 -0.00000000000E+00 -0.46965546566E+00  0.46966238824E+00  0.25500000000E-02 0. -1.
         31    1    1    2    0    0 -0.81997943942E+00  0.11274558674E+00  0.55828619071E+02  0.56329199456E+02  0.74470750000E+01 0.  1.
        -31    1    1    2    0    0  0.81997943942E+00 -0.11274558674E+00  0.63764225467E+02  0.64202962963E+02  0.74470750000E+01 0. -1.
<mgrwt>
<rscale>  0 0.15018446E+02</rscale>
<asrwt>0</asrwt>
<pdfrwt beam="2">  1        2 0.99750297E+00 0.15018446E+02</pdfrwt>
<pdfrwt beam="1">  1       -2 0.99664425E+00 0.15018446E+02</pdfrwt>
<totfact>-0.66458008E-14</totfact>
</mgrwt>
</event>
<event>
 4    1 -0.5167034E-019  0.1491125E+02  0.7818608E-02  0.1870789E+00
         -2   -1    0    0    0  501 -0.00000000000E+00  0.00000000000E+00  0.12009285497E+03  0.12009285500E+03  0.25500000000E-02 0. -1.
          2   -1    0    0  501    0  0.00000000000E+00 -0.00000000000E+00 -0.46285764557E+00  0.46286466982E+00  0.25500000000E-02 0.  1.
         31    1    1    2    0    0  0.61988187116E-01 -0.24009673448E+00  0.61890565315E+02  0.62337488641E+02  0.74470750000E+01 0. -1.
        -31    1    1    2    0    0 -0.61988187116E-01  0.24009673448E+00  0.57739432007E+02  0.58218231024E+02  0.74470750000E+01 0.  1.
<mgrwt>
<rscale>  0 0.14911247E+02</rscale>
<asrwt>0</asrwt>
<pdfrwt beam="2">  1        2 0.98312167E+00 0.14911247E+02</pdfrwt>
<pdfrwt beam="1">  1       -2 0.99683904E+00 0.14911247E+02</pdfrwt>
<totfact>-0.39275354E-13</totfact>
</mgrwt>
</event>
<event>
 4    1  0.5167034E-019  0.1491695E+02  0.7818608E-02  0.1870613E+00
         -2   -1    0    0    0  501 -0.00000000000E+00  0.00000000000E+00  0.11893468630E+03  0.11893468633E+03  0.25500000000E-02 0. -1.
          2   -1    0    0  501    0  0.00000000000E+00 -0.00000000000E+00 -0.46772255152E+00  0.46772950271E+00  0.25500000000E-02 0.  1.
         31    1    1    2    0    0  0.10447282089E+00 -0.35739936540E+00  0.60649090153E+02  0.61105725684E+02  0.74470750000E+01 0. -1.
        -31    1    1    2    0    0 -0.10447282089E+00  0.35739936540E+00  0.57817873599E+02  0.58296690150E+02  0.74470750000E+01 0.  1.
<mgrwt>
<rscale>  0 0.14916950E+02</rscale>
<asrwt>0</asrwt>
<pdfrwt beam="2">  1        2 0.99337709E+00 0.14916950E+02</pdfrwt>
<pdfrwt beam="1">  1       -2 0.98730272E+00 0.14916950E+02</pdfrwt>
<totfact> 0.24751515E-13</totfact>
</mgrwt>
</event>
<event>
 4    1  0.5167034E-019  0.1490564E+02  0.7818608E-02  0.1870962E+00
         -2   -1    0    0    0  501 -0.00000000000E+00  0.00000000000E+00  0.11889163299E+03  0.11889163301E+03  0.25500000000E-02 0.  1.
          2   -1    0    0  501    0  0.00000000000E+00 -0.00000000000E+00 -0.46718271306E+00  0.46718967228E+00  0.25500000000E-02 0. -1.
         31    1    1    2    0    0 -0.47773666741E-01 -0.26279862510E+00  0.58255954876E+02  0.58730627018E+02  0.74470750000E+01 0. -1.
        -31    1    1    2    0    0  0.47773666741E-01  0.26279862510E+00  0.60168495399E+02  0.60628195669E+02  0.74470750000E+01 0.  1.
<mgrwt>
<rscale>  0 0.14905641E+02</rscale>
<asrwt>0</asrwt>
<pdfrwt beam="2">  1        2 0.99223364E+00 0.14905641E+02</pdfrwt>
<pdfrwt beam="1">  1       -2 0.98694226E+00 0.14905641E+02</pdfrwt>
<totfact> 0.31401025E-13</totfact>
</mgrwt>
</event>
<event>
 4    1 -0.5167034E-019  0.1493063E+02  0.7818608E-02  0.1870193E+00
         -2   -1    0    0    0  501 -0.00000000000E+00  0.00000000000E+00  0.12020990037E+03  0.12020990039E+03  0.25500000000E-02 0. -1.
          2   -1    0    0  501    0  0.00000000000E+00 -0.00000000000E+00 -0.46360982475E+00  0.46361683760E+00  0.25500000000E-02 0.  1.
         31    1    1    2    0    0  0.24361728241E+00 -0.44269033166E+00  0.58829765794E+02  0.59301396219E+02  0.74470750000E+01 0. -1.
        -31    1    1    2    0    0 -0.24361728241E+00  0.44269033166E+00  0.60916524747E+02  0.61372121012E+02  0.74470750000E+01 0. -1.
<mgrwt>
<rscale>  0 0.14930628E+02</rscale>
<asrwt>0</asrwt>
<pdfrwt beam="2">  1        2 0.98471684E+00 0.14930628E+02</pdfrwt>
<pdfrwt beam="1">  1       -2 0.99781307E+00 0.14930628E+02</pdfrwt>
<totfact>-0.23186968E-13</totfact>
</mgrwt>
</event>
<event>
 4    1 -0.5167034E-019  0.1495343E+02  0.7818608E-02  0.1869493E+00
         -2   -1    0    0    0  501 -0.00000000000E+00  0.00000000000E+00  0.12004742424E+03  0.12004742426E+03  0.25500000000E-02 0.  1.
          2   -1    0    0  501    0  0.00000000000E+00 -0.00000000000E+00 -0.46565651773E+00  0.46566349975E+00  0.25500000000E-02 0. -1.
         31    1    1    2    0    0 -0.63472069842E+00 -0.77372738639E-01  0.61266072557E+02  0.61720332384E+02  0.74470750000E+01 0.  1.
        -31    1    1    2    0    0  0.63472069842E+00  0.77372738639E-01  0.58315695162E+02  0.58792755380E+02  0.74470750000E+01 0. -1.
<mgrwt>
<rscale>  0 0.14953433E+02</rscale>
<asrwt>0</asrwt>
<pdfrwt beam="2">  1        2 0.98904205E+00 0.14953433E+02</pdfrwt>
<pdfrwt beam="1">  1       -2 0.99648653E+00 0.14953433E+02</pdfrwt>
<totfact>-0.17357645E-13</totfact>
</mgrwt>
</event>
<event>
 4    1 -0.5167034E-019  0.1502629E+02  0.7818608E-02  0.1867267E+00
          2   -1    0    0  501    0  0.00000000000E+00  0.00000000000E+00  0.12030826789E+03  0.12030826792E+03  0.25500000000E-02 0. -1.
         -2   -1    0    0    0  501 -0.00000000000E+00 -0.00000000000E+00 -0.46918568345E+00  0.46919261296E+00  0.25500000000E-02 0.  1.
         31    1    1    2    0    0 -0.58488589150E+00  0.79874134723E+00  0.59185871227E+02  0.59660760624E+02  0.74470750000E+01 0.  1.
        -31    1    1    2    0    0  0.58488589150E+00 -0.79874134723E+00  0.60653210978E+02  0.61116699905E+02  0.74470750000E+01 0.  1.
<mgrwt>
<rscale>  0 0.15026289E+02</rscale>
<asrwt>0</asrwt>
<pdfrwt beam="1">  1        2 0.99867255E+00 0.15026289E+02</pdfrwt>
<pdfrwt beam="2">  1       -2 0.99651702E+00 0.15026289E+02</pdfrwt>
<totfact>-0.41054758E-14</totfact>
</mgrwt>
</event>
<event>
 4    1  0.5167034E-019  0.1490275E+02  0.7818608E-02  0.1871051E+00
          2   -1    0    0  501    0  0.00000000000E+00  0.00000000000E+00  0.12000889336E+03  0.12000889338E+03  0.25500000000E-02 0.  1.
         -2   -1    0    0    0  501 -0.00000000000E+00 -0.00000000000E+00 -0.46265350356E+00  0.46266053090E+00  0.25500000000E-02 0. -1.
         31    1    1    2    0    0 -0.12767679745E+00 -0.20910275898E+00  0.60284931351E+02  0.60743657277E+02  0.74470750000E+01 0. -1.
        -31    1    1    2    0    0  0.12767679745E+00  0.20910275898E+00  0.59261308502E+02  0.59727896637E+02  0.74470750000E+01 0.  1.
<mgrwt>
<rscale>  0 0.14902746E+02</rscale>
<asrwt>0</asrwt>
<pdfrwt beam="1">  1        2 0.99614310E+00 0.14902746E+02</pdfrwt>
<pdfrwt beam="2">  1       -2 0.98268710E+00 0.14902746E+02</pdfrwt>
<totfact> 0.73791663E-13</totfact>
</mgrwt>
</event>
<event>
 4    1 -0.5167034E-019  0.1498939E+02  0.7818608E-02  0.1868392E+00
         -2   -1    0    0    0  501 -0.00000000000E+00  0.00000000000E+00  0.11954129751E+03  0.11954129754E+03  0.25500000000E-02 0. -1.
          2   -1    0    0  501    0  0.00000000000E+00 -0.00000000000E+00 -0.46987986799E+00  0.46988678726E+00  0.25500000000E-02 0.  1.
         31    1    1    2    0    0 -0.34701390403E+00  0.73402579479E+00  0.61367188397E+02  0.61822730045E+02  0.74470750000E+01 0. -1.
        -31    1    1    2    0    0  0.34701390403E+00 -0.73402579479E+00  0.57704229248E+02  0.58188454281E+02  0.74470750000E+01 0. -1.
<mgrwt>
<rscale>  0 0.14989392E+02</rscale>
<asrwt>0</asrwt>
<pdfrwt beam="2">  1        2 0.99796075E+00 0.14989392E+02</pdfrwt>
<pdfrwt beam="1">  1       -2 0.99233644E+00 0.14989392E+02</pdfrwt>
<totfact>-0.49288777E-14</totfact>
</mgrwt>
</event>
<event>
 4    1  0.5167034E-019  0.1491639E+02  0.7818608E-02  0.1870631E+00
         -2   -1    0    0    0  501 -0.00000000000E+00  0.00000000000E+00  0.11831550671E+03  0.11831550674E+03  0.25500000000E-02 0. -1.
          2   -1    0    0  501    0  0.00000000000E+00 -0.00000000000E+00 -0.47013516652E+00  0.47014208204E+00  0.25500000000E-02 0.  1.
         31    1    1    2    0    0 -0.33508734783E+00 -0.63441640317E-01  0.60693692205E+02  0.61149812002E+02  0.74470750000E+01 0. -1.
        -31    1    1    2    0    0  0.33508734783E+00  0.63441640317E-01  0.57151679341E+02  0.57635836820E+02  0.74470750000E+01 0.  1.
<mgrwt>
<rscale>  0 0.14916393E+02</rscale>
<asrwt>0</asrwt>
<pdfrwt beam="2">  1        2 0.99846032E+00 0.14916393E+02</pdfrwt>
<pdfrwt beam="1">  1       -2 0.98220285E+00 0.14916393E+02</pdfrwt>
<totfact> 0.41924628E-13</totfact>
</mgrwt>
</event>
<event>
 4    1 -0.5167034E-019  0.1498279E+02  0.7818608E-02  0.1868594E+00
         -2   -1    0    0    0  501 -0.00000000000E+00  0.00000000000E+00  0.11994536889E+03  0.11994536892E+03  0.25500000000E-02 0.  1.
          2   -1    0    0  501    0  0.00000000000E+00 -0.00000000000E+00 -0.46788476014E+00  0.46789170892E+00  0.25500000000E-02 0. -1.
         31    1    1    2    0    0 -0.36805225022E+00  0.54613000989E+00  0.63579474068E+02  0.64017514551E+02  0.74470750000E+01 0. -1.
        -31    1    1    2    0    0  0.36805225022E+00 -0.54613000989E+00  0.55898010061E+02  0.56395746075E+02  0.74470750000E+01 0.  1.
<mgrwt>
<rscale>  0 0.14982794E+02</rscale>
<asrwt>0</asrwt>
<pdfrwt beam="2">  1        2 0.99375305E+00 0.14982794E+02</pdfrwt>
<pdfrwt beam="1">  1       -2 0.99566109E+00 0.14982794E+02</pdfrwt>
<totfact>-0.12895080E-13</totfact>
</mgrwt>
</event>
<event>
 4    1  0.5167034E-019  0.1493972E+02  0.7818608E-02  0.1869914E+00
         -2   -1    0    0    0  501 -0.00000000000E+00  0.00000000000E+00  0.11905749830E+03  0.11905749833E+03  0.25500000000E-02 0.  1.
          2   -1    0    0  501    0  0.00000000000E+00 -0.00000000000E+00 -0.46866744038E+00  0.46867437755E+00  0.25500000000E-02 0. -1.
         31    1    1    2    0    0 -0.27892050880E+00  0.49758395833E+00  0.58331794073E+02  0.58808014014E+02  0.74470750000E+01 0. -1.
        -31    1    1    2    0    0  0.27892050880E+00 -0.49758395833E+00  0.60257036790E+02  0.60718158695E+02  0.74470750000E+01 0.  1.
<mgrwt>
<rscale>  0 0.14939717E+02</rscale>
<asrwt>0</asrwt>
<pdfrwt beam="2">  1        2 0.99538002E+00 0.14939717E+02</pdfrwt>
<pdfrwt beam="1">  1       -2 0.98832602E+00 0.14939717E+02</pdfrwt>
<totfact> 0.11887177E-13</totfact>
</mgrwt>
</event>
<event>
 4    1 -0.5167034E-019  0.1500027E+02  0.7818608E-02  0.1868060E+00
         -2   -1    0    0    0  501 -0.00000000000E+00  0.00000000000E+00  0.11998711664E+03  0.11998711667E+03  0.25500000000E-02 0.  1.
          2   -1    0    0  501    0  0.00000000000E+00 -0.00000000000E+00 -0.46881342838E+00  0.46882036339E+00  0.25500000000E-02 0. -1.
         31    1    1    2    0    0 -0.34441760456E-01 -0.83556719021E+00  0.57300975551E+02  0.57788927001E+02  0.74470750000E+01 0. -1.
        -31    1    1    2    0    0  0.34441760456E-01  0.83556719021E+00  0.62217327663E+02  0.62667010032E+02  0.74470750000E+01 0.  1.
<mgrwt>
<rscale>  0 0.15000265E+02</rscale>
<asrwt>0</asrwt>
<pdfrwt beam="2">  1        2 0.99571911E+00 0.15000265E+02</pdfrwt>
<pdfrwt beam="1">  1       -2 0.99601397E+00 0.15000265E+02</pdfrwt>
<totfact>-0.10282551E-13</totfact>
</mgrwt>
</event>
<event>
 4    1 -0.5167034E-019  0.1492859E+02  0.7818608E-02  0.1870256E+00
         -2   -1    0    0    0  501 -0.00000000000E+00  0.00000000000E+00  0.12013378370E+03  0.12013378373E+03  0.25500000000E-02 0.  1.
          2   -1    0    0  501    0  0.00000000000E+00 -0.00000000000E+00 -0.46377667997E+00  0.46378369030E+00  0.25500000000E-02 0. -1.
         31    1    1    2    0    0  0.17210693672E+00  0.25168827525E+00  0.63104248495E+02  0.63542883724E+02  0.74470750000E+01 0. -1.
        -31    1    1    2    0    0 -0.17210693672E+00 -0.25168827525E+00  0.56565758527E+02  0.57054683696E+02  0.74470750000E+01 0. -1.
<mgrwt>
<rscale>  0 0.14928586E+02</rscale>
<asrwt>0</asrwt>
<pdfrwt beam="2">  1        2 0.98506748E+00 0.14928586E+02</pdfrwt>
<pdfrwt beam="1">  1       -2 0.99718507E+00 0.14928586E+02</pdfrwt>
<totfact>-0.26360971E-13</totfact>
</mgrwt>
</event>
<event>
 4    1 -0.5167034E-019  0.1500820E+02  0.7818608E-02  0.1867818E+00
          2   -1    0    0  501    0  0.00000000000E+00  0.00000000000E+00  0.11990460256E+03  0.11990460258E+03  0.25500000000E-02 0. -1.
         -2   -1    0    0    0  501 -0.00000000000E+00 -0.00000000000E+00 -0.46963267726E+00  0.46963960017E+00  0.25500000000E-02 0.  1.
         31    1    1    2    0    0  0.25014480844E+00 -0.82389658540E+00  0.57042488738E+02  0.57532997710E+02  0.74470750000E+01 0.  1.
        -31    1    1    2    0    0 -0.25014480844E+00  0.82389658540E+00  0.62392481141E+02  0.62841244474E+02  0.74470750000E+01 0.  1.
<mgrwt>
<rscale>  0 0.15008203E+02</rscale>
<asrwt>0</asrwt>
<pdfrwt beam="1">  1        2 0.99533846E+00 0.15008203E+02</pdfrwt>
<pdfrwt beam="2">  1       -2 0.99744964E+00 0.15008203E+02</pdfrwt>
<totfact>-0.82374904E-14</totfact>
</mgrwt>
</event>
<event>
 4    1  0.5167034E-019  0.1490489E+02  0.7818608E-02  0.1870985E+00
         -2   -1    0    0    0  501 -0.00000000000E+00  0.00000000000E+00  0.11839386062E+03  0.11839386065E+03  0.25500000000E-02 0.  1.
          2   -1    0    0  501    0  0.00000000000E+00 -0.00000000000E+00 -0.46909969251E+00  0.46910662329E+00  0.25500000000E-02 0. -1.
         31    1    1    2    0    0  0.94081811676E-01 -0.21923774420E+00  0.57750465211E+02  0.58229134243E+02  0.74470750000E+01 0. -1.
        -31    1    1    2    0    0 -0.94081811676E-01  0.21923774420E+00  0.60174295715E+02  0.60633833026E+02  0.74470750000E+01 0.  1.
<mgrwt>
<rscale>  0 0.14904890E+02</rscale>
<asrwt>0</asrwt>
<pdfrwt beam="2">  1        2 0.99627253E+00 0.14904890E+02</pdfrwt>
<pdfrwt beam="1">  1       -2 0.98284218E+00 0.14904890E+02</pdfrwt>
<totfact> 0.69929611E-13</totfact>
</mgrwt>
</event>
<event>
 4    1 -0.5167034E-019  0.1502005E+02  0.7818608E-02  0.1867457E+00
         -2   -1    0    0    0  501 -0.00000000000E+00  0.00000000000E+00  0.11987296962E+03  0.11987296965E+03  0.25500000000E-02 0.  1.
          2   -1    0    0  501    0  0.00000000000E+00 -0.00000000000E+00 -0.47049862979E+00  0.47050553996E+00  0.25500000000E-02 0. -1.
         31    1    1    2    0    0 -0.62473753371E+00  0.53185262693E+00  0.63852098922E+02  0.64290144089E+02  0.74470750000E+01 0.  1.
        -31    1    1    2    0    0  0.62473753371E+00 -0.53185262693E+00  0.55550372068E+02  0.56053331098E+02  0.74470750000E+01 0. -1.
<mgrwt>
<rscale>  0 0.15020051E+02</rscale>
<asrwt>0</asrwt>
<pdfrwt beam="2">  1        2 0.99928059E+00 0.15020051E+02</pdfrwt>
<pdfrwt beam="1">  1       -2 0.99508405E+00 0.15020051E+02</pdfrwt>
<totfact>-0.27088609E-14</totfact>
</mgrwt>
</event>
<event>
 4    1  0.5167034E-019  0.1490751E+02  0.7818608E-02  0.1870904E+00
          2   -1    0    0  501    0  0.00000000000E+00  0.00000000000E+00  0.12007474326E+03  0.12007474329E+03  0.25500000000E-02 0.  1.
         -2   -1    0    0    0  501 -0.00000000000E+00 -0.00000000000E+00 -0.46269541856E+00  0.46270244527E+00  0.25500000000E-02 0. -1.
         31    1    1    2    0    0 -0.23639197675E-01 -0.73181297912E-02  0.62349101384E+02  0.62792276450E+02  0.74470750000E+01 0.  1.
        -31    1    1    2    0    0  0.23639197675E-01  0.73181297912E-02  0.57262946459E+02  0.57745169284E+02  0.74470750000E+01 0. -1.
<mgrwt>
<rscale>  0 0.14907509E+02</rscale>
<asrwt>0</asrwt>
<pdfrwt beam="1">  1        2 0.99668794E+00 0.14907509E+02</pdfrwt>
<pdfrwt beam="2">  1       -2 0.98277786E+00 0.14907509E+02</pdfrwt>
<totfact> 0.65855885E-13</totfact>
</mgrwt>
</event>
<event>
 4    1 -0.5167034E-019  0.1491192E+02  0.7818608E-02  0.1870768E+00
         -2   -1    0    0    0  501 -0.00000000000E+00  0.00000000000E+00  0.12021214041E+03  0.12021214044E+03  0.25500000000E-02 0. -1.
          2   -1    0    0  501    0  0.00000000000E+00 -0.00000000000E+00 -0.46244003188E+00  0.46244706247E+00  0.25500000000E-02 0.  1.
         31    1    1    2    0    0 -0.29520034927E+00 -0.17032955864E+00  0.60906457965E+02  0.61360994966E+02  0.74470750000E+01 0.  1.
        -31    1    1    2    0    0  0.29520034927E+00  0.17032955864E+00  0.58843242414E+02  0.59313592534E+02  0.74470750000E+01 0. -1.
<mgrwt>
<rscale>  0 0.14911919E+02</rscale>
<asrwt>0</asrwt>
<pdfrwt beam="2">  1        2 0.98224180E+00 0.14911919E+02</pdfrwt>
<pdfrwt beam="1">  1       -2 0.99782192E+00 0.14911919E+02</pdfrwt>
<totfact>-0.35000847E-13</totfact>
</mgrwt>
</event>
<event>
 4    1 -0.5167034E-019  0.1492646E+02  0.7818608E-02  0.1870321E+00
          2   -1    0    0  501    0  0.00000000000E+00  0.00000000000E+00  0.11879835130E+03  0.11879835133E+03  0.25500000000E-02 0. -1.
         -2   -1    0    0    0  501 -0.00000000000E+00 -0.00000000000E+00 -0.46885656965E+00  0.46886350402E+00  0.25500000000E-02 0.  1.
         31    1    1    2    0    0  0.91736367203E-01 -0.24721210298E+00  0.55857225390E+02  0.56352090322E+02  0.74470750000E+01 0.  1.
        -31    1    1    2    0    0 -0.91736367203E-01  0.24721210298E+00  0.62472269340E+02  0.62915124508E+02  0.74470750000E+01 0. -1.
<mgrwt>
<rscale>  0 0.14926460E+02</rscale>
<asrwt>0</asrwt>
<pdfrwt beam="1">  1        2 0.98618478E+00 0.14926460E+02</pdfrwt>
<pdfrwt beam="2">  1       -2 0.99577160E+00 0.14926460E+02</pdfrwt>
<totfact>-0.27640761E-13</totfact>
</mgrwt>
</event>
<event>
 4    1 -0.5167034E-019  0.1490672E+02  0.7818608E-02  0.1870928E+00
         -2   -1    0    0    0  501 -0.00000000000E+00  0.00000000000E+00  0.11975102524E+03  0.11975102527E+03  0.25500000000E-02 0. -1.
          2   -1    0    0  501    0  0.00000000000E+00 -0.00000000000E+00 -0.46389690837E+00  0.46390391688E+00  0.25500000000E-02 0.  1.
         31    1    1    2    0    0  0.20165478063E+00 -0.21066721869E+00  0.60390645818E+02  0.60848780380E+02  0.74470750000E+01 0. -1.
        -31    1    1    2    0    0 -0.20165478063E+00  0.21066721869E+00  0.58896482518E+02  0.59366148809E+02  0.74470750000E+01 0.  1.
<mgrwt>
<rscale>  0 0.14906717E+02</rscale>
<asrwt>0</asrwt>
<pdfrwt beam="2">  1        2 0.98530974E+00 0.14906717E+02</pdfrwt>
<pdfrwt beam="1">  1       -2 0.99402114E+00 0.14906717E+02</pdfrwt>
<totfact>-0.32370829E-13</totfact>
</mgrwt>
</event>
<event>
 4    1 -0.5167034E-019  0.1493515E+02  0.7818608E-02  0.1870054E+00
          2   -1    0    0  501    0  0.00000000000E+00  0.00000000000E+00  0.11861222962E+03  0.11861222964E+03  0.25500000000E-02 0. -1.
         -2   -1    0    0    0  501 -0.00000000000E+00 -0.00000000000E+00 -0.47013909155E+00  0.47014600700E+00  0.25500000000E-02 0.  1.
         31    1    1    2    0    0 -0.11707359323E+00 -0.33984688034E+00  0.62421074197E+02  0.62864764631E+02  0.74470750000E+01 0. -1.
        -31    1    1    2    0    0  0.11707359323E+00  0.33984688034E+00  0.55721016328E+02  0.56217611020E+02  0.74470750000E+01 0.  1.
<mgrwt>
<rscale>  0 0.14935148E+02</rscale>
<asrwt>0</asrwt>
<pdfrwt beam="1">  1        2 0.98465640E+00 0.14935148E+02</pdfrwt>
<pdfrwt beam="2">  1       -2 0.99847851E+00 0.14935148E+02</pdfrwt>
<totfact>-0.17359600E-13</totfact>
</mgrwt>
</event>
<event>
 4    1  0.5167034E-019  0.1494865E+02  0.7818608E-02  0.1869639E+00
          2   -1    0    0  501    0  0.00000000000E+00  0.00000000000E+00  0.12028789170E+03  0.12028789173E+03  0.25500000000E-02 0. -1.
         -2   -1    0    0    0  501 -0.00000000000E+00 -0.00000000000E+00 -0.46442861996E+00  0.46443562044E+00  0.25500000000E-02 0.  1.
         31    1    1    2    0    0  0.17677127834E-01  0.41971555365E+00  0.63787093424E+02  0.64221715075E+02  0.74470750000E+01 0. -1.
        -31    1    1    2    0    0 -0.17677127834E-01 -0.41971555365E+00  0.56036369658E+02  0.56530612275E+02  0.74470750000E+01 0.  1.
<mgrwt>
<rscale>  0 0.14948654E+02</rscale>
<asrwt>0</asrwt>
<pdfrwt beam="1">  1        2 0.99846473E+00 0.14948654E+02</pdfrwt>
<pdfrwt beam="2">  1       -2 0.98645172E+00 0.14948654E+02</pdfrwt>
<totfact> 0.13515255E-13</totfact>
</mgrwt>
</event>
<event>
 4    1 -0.5167034E-019  0.1492800E+02  0.7818608E-02  0.1870274E+00
          2   -1    0    0  501    0  0.00000000000E+00  0.00000000000E+00  0.11912969424E+03  0.11912969426E+03  0.25500000000E-02 0. -1.
         -2   -1    0    0    0  501 -0.00000000000E+00 -0.00000000000E+00 -0.46764885223E+00  0.46765580451E+00  0.25500000000E-02 0.  1.
         31    1    1    2    0    0 -0.48446256668E+00 -0.12222734172E+00  0.58913757753E+02  0.59384673293E+02  0.74470750000E+01 0. -1.
        -31    1    1    2    0    0  0.48446256668E+00  0.12222734172E+00  0.59748287631E+02  0.60212676775E+02  0.74470750000E+01 0.  1.
<mgrwt>
<rscale>  0 0.14927998E+02</rscale>
<asrwt>0</asrwt>
<pdfrwt beam="1">  1        2 0.98891457E+00 0.14927998E+02</pdfrwt>
<pdfrwt beam="2">  1       -2 0.99322754E+00 0.14927998E+02</pdfrwt>
<totfact>-0.18019708E-13</totfact>
</mgrwt>
</event>
<event>
 4    1  0.5167034E-019  0.1490704E+02  0.7818608E-02  0.1870918E+00
         -2   -1    0    0    0  501 -0.00000000000E+00  0.00000000000E+00  0.11824905022E+03  0.11824905025E+03  0.25500000000E-02 0.  1.
          2   -1    0    0  501    0  0.00000000000E+00 -0.00000000000E+00 -0.46980978868E+00  0.46981670898E+00  0.25500000000E-02 0. -1.
         31    1    1    2    0    0 -0.24264536699E+00  0.10535403549E+00  0.57603710315E+02  0.58083701194E+02  0.74470750000E+01 0. -1.
        -31    1    1    2    0    0  0.24264536699E+00 -0.10535403549E+00  0.60175530118E+02  0.60635165764E+02  0.74470750000E+01 0.  1.
<mgrwt>
<rscale>  0 0.14907042E+02</rscale>
<asrwt>0</asrwt>
<pdfrwt beam="2">  1        2 0.99776981E+00 0.14907042E+02</pdfrwt>
<pdfrwt beam="1">  1       -2 0.98165066E+00 0.14907042E+02</pdfrwt>
<totfact> 0.62748233E-13</totfact>
</mgrwt>
</event>
<event>
 4    1 -0.5167034E-019  0.1494709E+02  0.7818608E-02  0.1869687E+00
          2   -1    0    0  501    0  0.00000000000E+00  0.00000000000E+00  0.11876564228E+03  0.11876564231E+03  0.25500000000E-02 0.  1.
         -2   -1    0    0    0  501 -0.00000000000E+00 -0.00000000000E+00 -0.47028278615E+00  0.47028969950E+00  0.25500000000E-02 0. -1.
         31    1    1    2    0    0  0.54680924659E+00  0.29517742944E+00  0.59895787310E+02  0.60360172246E+02  0.74470750000E+01 0.  1.
        -31    1    1    2    0    0 -0.54680924659E+00 -0.29517742944E+00  0.58399572183E+02  0.58875759759E+02  0.74470750000E+01 0. -1.
<mgrwt>
<rscale>  0 0.14947087E+02</rscale>
<asrwt>0</asrwt>
<pdfrwt beam="1">  1        2 0.98592611E+00 0.14947087E+02</pdfrwt>
<pdfrwt beam="2">  1       -2 0.99878757E+00 0.14947087E+02</pdfrwt>
<totfact>-0.11605100E-13</totfact>
</mgrwt>
</event>
<event>
 4    1 -0.5167034E-019  0.1495300E+02  0.7818608E-02  0.1869506E+00
         -2   -1    0    0    0  501 -0.00000000000E+00  0.00000000000E+00  0.12008457374E+03  0.12008457377E+03  0.25500000000E-02 0.  1.
          2   -1    0    0  501    0  0.00000000000E+00 -0.00000000000E+00 -0.46548555664E+00  0.46549254123E+00  0.25500000000E-02 0. -1.
         31    1    1    2    0    0  0.38088947188E+00 -0.16588619881E+00  0.55647399110E+02  0.56145031382E+02  0.74470750000E+01 0. -1.
        -31    1    1    2    0    0 -0.38088947188E+00  0.16588619881E+00  0.63971689072E+02  0.64405034926E+02  0.74470750000E+01 0.  1.
<mgrwt>
<rscale>  0 0.14953001E+02</rscale>
<asrwt>0</asrwt>
<pdfrwt beam="2">  1        2 0.98868152E+00 0.14953001E+02</pdfrwt>
<pdfrwt beam="1">  1       -2 0.99679229E+00 0.14953001E+02</pdfrwt>
<totfact>-0.17156889E-13</totfact>
</mgrwt>
</event>
<event>
 4    1  0.5167034E-019  0.1490095E+02  0.7818608E-02  0.1871106E+00
          2   -1    0    0  501    0  0.00000000000E+00  0.00000000000E+00  0.11978845545E+03  0.11978845547E+03  0.25500000000E-02 0. -1.
         -2   -1    0    0    0  501 -0.00000000000E+00 -0.00000000000E+00 -0.46339315884E+00  0.46340017496E+00  0.25500000000E-02 0.  1.
         31    1    1    2    0    0 -0.11536004301E+00  0.12221017520E+00  0.60870482844E+02  0.61324569717E+02  0.74470750000E+01 0.  1.
        -31    1    1    2    0    0  0.11536004301E+00 -0.12221017520E+00  0.58454579445E+02  0.58927285933E+02  0.74470750000E+01 0.  1.
<mgrwt>
<rscale>  0 0.14900950E+02</rscale>
<asrwt>0</asrwt>
<pdfrwt beam="1">  1        2 0.99432648E+00 0.14900950E+02</pdfrwt>
<pdfrwt beam="2">  1       -2 0.98424511E+00 0.14900950E+02</pdfrwt>
<totfact> 0.63238237E-13</totfact>
</mgrwt>
</event>
<event>
 4    1 -0.5167034E-019  0.1496569E+02  0.7818608E-02  0.1869117E+00
          2   -1    0    0  501    0  0.00000000000E+00  0.00000000000E+00  0.11961568247E+03  0.11961568250E+03  0.25500000000E-02 0. -1.
         -2   -1    0    0    0  501 -0.00000000000E+00 -0.00000000000E+00 -0.46810399086E+00  0.46811093638E+00  0.25500000000E-02 0.  1.
         31    1    1    2    0    0 -0.30560830389E+00  0.11626869554E+00  0.64818008556E+02  0.65245230278E+02  0.74470750000E+01 0. -1.
        -31    1    1    2    0    0  0.30560830389E+00 -0.11626869554E+00  0.54329569921E+02  0.54838563153E+02  0.74470750000E+01 0.  1.
<mgrwt>
<rscale>  0 0.14965694E+02</rscale>
<asrwt>0</asrwt>
<pdfrwt beam="1">  1        2 0.99293682E+00 0.14965694E+02</pdfrwt>
<pdfrwt beam="2">  1       -2 0.99420621E+00 0.14965694E+02</pdfrwt>
<totfact>-0.14008150E-13</totfact>
</mgrwt>
</event>
<event>
 4    1 -0.5167034E-019  0.1497943E+02  0.7818608E-02  0.1868697E+00
          2   -1    0    0  501    0  0.00000000000E+00  0.00000000000E+00  0.11979638212E+03  0.11979638215E+03  0.25500000000E-02 0.  1.
         -2   -1    0    0    0  501 -0.00000000000E+00 -0.00000000000E+00 -0.46825637377E+00  0.46826331703E+00  0.25500000000E-02 0. -1.
         31    1    1    2    0    0 -0.21067561415E-01 -0.79377704092E+00  0.59022436323E+02  0.59495692629E+02  0.74470750000E+01 0.  1.
        -31    1    1    2    0    0  0.21067561415E-01  0.79377704092E+00  0.60305689426E+02  0.60768952838E+02  0.74470750000E+01 0. -1.
<mgrwt>
<rscale>  0 0.14979431E+02</rscale>
<asrwt>0</asrwt>
<pdfrwt beam="1">  1        2 0.99443223E+00 0.14979431E+02</pdfrwt>
<pdfrwt beam="2">  1       -2 0.99453444E+00 0.14979431E+02</pdfrwt>
<totfact>-0.12600453E-13</totfact>
</mgrwt>
</event>
<event>
 4    1  0.5167034E-019  0.1494119E+02  0.7818608E-02  0.1869868E+00
          2   -1    0    0  501    0  0.00000000000E+00  0.00000000000E+00  0.11999178635E+03  0.11999178638E+03  0.25500000000E-02 0. -1.
         -2   -1    0    0    0  501 -0.00000000000E+00 -0.00000000000E+00 -0.46510989216E+00  0.46511688239E+00  0.25500000000E-02 0.  1.
         31    1    1    2    0    0  0.11206397775E+00  0.17858176811E+00  0.64226067446E+02  0.64656717481E+02  0.74470750000E+01 0. -1.
        -31    1    1    2    0    0 -0.11206397775E+00 -0.17858176811E+00  0.55300609016E+02  0.55800185783E+02  0.74470750000E+01 0.  1.
<mgrwt>
<rscale>  0 0.14941190E+02</rscale>
<asrwt>0</asrwt>
<pdfrwt beam="1">  1        2 0.99602196E+00 0.14941190E+02</pdfrwt>
<pdfrwt beam="2">  1       -2 0.98788376E+00 0.14941190E+02</pdfrwt>
<totfact> 0.14241345E-13</totfact>
</mgrwt>
</event>
<event>
 4    1 -0.5167034E-019  0.1503935E+02  0.7818608E-02  0.1866870E+00
         -2   -1    0    0    0  501 -0.00000000000E+00  0.00000000000E+00  0.12042035549E+03  0.12042035551E+03  0.25500000000E-02 0. -1.
          2   -1    0    0  501    0  0.00000000000E+00 -0.00000000000E+00 -0.46956394550E+00  0.46957086942E+00  0.25500000000E-02 0.  1.
         31    1    1    2    0    0  0.23923369727E+00 -0.93000026173E+00  0.63234783086E+02  0.63679029918E+02  0.74470750000E+01 0. -1.
        -31    1    1    2    0    0 -0.23923369727E+00  0.93000026173E+00  0.56716008454E+02  0.57210896464E+02  0.74470750000E+01 0. -1.
<mgrwt>
<rscale>  0 0.15039345E+02</rscale>
<asrwt>0</asrwt>
<pdfrwt beam="2">  1        2 0.99732090E+00 0.15039345E+02</pdfrwt>
<pdfrwt beam="1">  1       -2 0.99960249E+00 0.15039345E+02</pdfrwt>
<totfact>-0.11041229E-14</totfact>
</mgrwt>
</event>
<event>
 4    1 -0.5167034E-019  0.1491686E+02  0.7818608E-02  0.1870616E+00
          2   -1    0    0  501    0  0.00000000000E+00  0.00000000000E+00  0.11876293443E+03  0.11876293446E+03  0.25500000000E-02 0.  1.
         -2   -1    0    0    0  501 -0.00000000000E+00 -0.00000000000E+00 -0.46839354043E+00  0.46840048165E+00  0.25500000000E-02 0. -1.
         31    1    1    2    0    0 -0.25910633763E-01 -0.42421906518E-01  0.62411822325E+02  0.62854569945E+02  0.74470750000E+01 0.  1.
        -31    1    1    2    0    0  0.25910633763E-01  0.42421906518E-01  0.55882718566E+02  0.56376764996E+02  0.74470750000E+01 0. -1.
<mgrwt>
<rscale>  0 0.14916864E+02</rscale>
<asrwt>0</asrwt>
<pdfrwt beam="1">  1        2 0.98588810E+00 0.14916864E+02</pdfrwt>
<pdfrwt beam="2">  1       -2 0.99479092E+00 0.14916864E+02</pdfrwt>
<totfact>-0.30229988E-13</totfact>
</mgrwt>
</event>
<event>
 4    1 -0.5167034E-019  0.1494367E+02  0.7818608E-02  0.1869792E+00
         -2   -1    0    0    0  501 -0.00000000000E+00  0.00000000000E+00  0.11980853518E+03  0.11980853521E+03  0.25500000000E-02 0. -1.
          2   -1    0    0  501    0  0.00000000000E+00 -0.00000000000E+00 -0.46597620914E+00  0.46598318637E+00  0.25500000000E-02 0.  1.
         31    1    1    2    0    0  0.24854114661E+00  0.36483293710E+00  0.63033852625E+02  0.63473777094E+02  0.74470750000E+01 0.  1.
        -31    1    1    2    0    0 -0.24854114661E+00 -0.36483293710E+00  0.56308706347E+02  0.56800741300E+02  0.74470750000E+01 0.  1.
<mgrwt>
<rscale>  0 0.14943674E+02</rscale>
<asrwt>0</asrwt>
<pdfrwt beam="2">  1        2 0.98971080E+00 0.14943674E+02</pdfrwt>
<pdfrwt beam="1">  1       -2 0.99451387E+00 0.14943674E+02</pdfrwt>
<totfact>-0.18374222E-13</totfact>
</mgrwt>
</event>
<event>
 4    1 -0.5167034E-019  0.1497647E+02  0.7818608E-02  0.1868787E+00
         -2   -1    0    0    0  501 -0.00000000000E+00  0.00000000000E+00  0.11956185469E+03  0.11956185472E+03  0.25500000000E-02 0.  1.
          2   -1    0    0  501    0  0.00000000000E+00 -0.00000000000E+00 -0.46898966770E+00  0.46899660010E+00  0.25500000000E-02 0. -1.
         31    1    1    2    0    0  0.60291572187E+00 -0.11385417148E+00  0.63458818351E+02  0.63897237990E+02  0.74470750000E+01 0.  1.
        -31    1    1    2    0    0 -0.60291572187E+00  0.11385417148E+00  0.55634046670E+02  0.56133613326E+02  0.74470750000E+01 0. -1.
<mgrwt>
<rscale>  0 0.14976474E+02</rscale>
<asrwt>0</asrwt>
<pdfrwt beam="2">  1        2 0.99607817E+00 0.14976474E+02</pdfrwt>
<pdfrwt beam="1">  1       -2 0.99249906E+00 0.14976474E+02</pdfrwt>
<totfact>-0.80979479E-14</totfact>
</mgrwt>
</event>
<event>
 4    1  0.5167034E-019  0.1491128E+02  0.7818608E-02  0.1870788E+00
         -2   -1    0    0    0  501 -0.00000000000E+00  0.00000000000E+00  0.11851926962E+03  0.11851926965E+03  0.25500000000E-02 0. -1.
          2   -1    0    0  501    0  0.00000000000E+00 -0.00000000000E+00 -0.46900521513E+00  0.46901214731E+00  0.25500000000E-02 0.  1.
         31    1    1    2    0    0  0.48311996944E-01  0.33866342737E+00  0.59847340009E+02  0.60309867014E+02  0.74470750000E+01 0. -1.
        -31    1    1    2    0    0 -0.48311996944E-01 -0.33866342737E+00  0.58202924398E+02  0.58678414784E+02  0.74470750000E+01 0.  1.
<mgrwt>
<rscale>  0 0.14911280E+02</rscale>
<asrwt>0</asrwt>
<pdfrwt beam="2">  1        2 0.99607683E+00 0.14911280E+02</pdfrwt>
<pdfrwt beam="1">  1       -2 0.98387837E+00 0.14911280E+02</pdfrwt>
<totfact> 0.56876198E-13</totfact>
</mgrwt>
</event>
<event>
 4    1  0.5167034E-019  0.1493550E+02  0.7818608E-02  0.1870043E+00
          2   -1    0    0  501    0  0.00000000000E+00  0.00000000000E+00  0.12014927587E+03  0.12014927590E+03  0.25500000000E-02 0.  1.
         -2   -1    0    0    0  501 -0.00000000000E+00 -0.00000000000E+00 -0.46414659221E+00  0.46415359694E+00  0.25500000000E-02 0. -1.
         31    1    1    2    0    0  0.32994453025E+00 -0.36755667490E+00  0.57792984781E+02  0.58272909462E+02  0.74470750000E+01 0. -1.
        -31    1    1    2    0    0 -0.32994453025E+00  0.36755667490E+00  0.61892144502E+02  0.62340520036E+02  0.74470750000E+01 0.  1.
<mgrwt>
<rscale>  0 0.14935501E+02</rscale>
<asrwt>0</asrwt>
<pdfrwt beam="1">  1        2 0.99731622E+00 0.14935501E+02</pdfrwt>
<pdfrwt beam="2">  1       -2 0.98585063E+00 0.14935501E+02</pdfrwt>
<totfact> 0.25612567E-13</totfact>
</mgrwt>
</event>
<event>
 4    1  0.5167034E-019  0.1490588E+02  0.7818608E-02  0.1870954E+00
          2   -1    0    0  501    0  0.00000000000E+00  0.00000000000E+00  0.12001907826E+03  0.12001907829E+03  0.25500000000E-02 0.  1.
         -2   -1    0    0    0  501 -0.00000000000E+00 -0.00000000000E+00 -0.46280911650E+00  0.46281614148E+00  0.25500000000E-02 0. -1.
         31    1    1    2    0    0  0.14043777604E+00 -0.12495868045E+00  0.57933459165E+02  0.58410443881E+02  0.74470750000E+01 0. -1.
        -31    1    1    2    0    0 -0.14043777604E+00  0.12495868045E+00  0.61622809983E+02  0.62071450552E+02  0.74470750000E+01 0. -1.
<mgrwt>
<rscale>  0 0.14905885E+02</rscale>
<asrwt>0</asrwt>
<pdfrwt beam="1">  1        2 0.99622860E+00 0.14905885E+02</pdfrwt>
<pdfrwt beam="2">  1       -2 0.98301667E+00 0.14905885E+02</pdfrwt>
<totfact> 0.67796024E-13</totfact>
</mgrwt>
</event>
<event>
 4    1 -0.5167034E-019  0.1491483E+02  0.7818608E-02  0.1870679E+00
          2   -1    0    0  501    0  0.00000000000E+00  0.00000000000E+00  0.11840857108E+03  0.11840857110E+03  0.25500000000E-02 0.  1.
         -2   -1    0    0    0  501 -0.00000000000E+00 -0.00000000000E+00 -0.46966729728E+00  0.46967421968E+00  0.25500000000E-02 0. -1.
         31    1    1    2    0    0  0.45910937351E-01 -0.24494003199E+00  0.56551662582E+02  0.57040438026E+02  0.74470750000E+01 0. -1.
        -31    1    1    2    0    0 -0.45910937351E-01  0.24494003199E+00  0.61387241198E+02  0.61837807298E+02  0.74470750000E+01 0.  1.
<mgrwt>
<rscale>  0 0.14914831E+02</rscale>
<asrwt>0</asrwt>
<pdfrwt beam="1">  1        2 0.98296851E+00 0.14914831E+02</pdfrwt>
<pdfrwt beam="2">  1       -2 0.99747371E+00 0.14914831E+02</pdfrwt>
<totfact>-0.34624875E-13</totfact>
</mgrwt>
</event>
<event>
 4    1 -0.5167034E-019  0.1500537E+02  0.7818608E-02  0.1867905E+00
          2   -1    0    0  501    0  0.00000000000E+00  0.00000000000E+00  0.12023719815E+03  0.12023719818E+03  0.25500000000E-02 0. -1.
         -2   -1    0    0    0  501 -0.00000000000E+00 -0.00000000000E+00 -0.46815700509E+00  0.46816394982E+00  0.25500000000E-02 0.  1.
         31    1    1    2    0    0  0.27173750883E+00 -0.32505379625E+00  0.66379287992E+02  0.66797068061E+02  0.74470750000E+01 0. -1.
        -31    1    1    2    0    0 -0.27173750883E+00  0.32505379625E+00  0.53389753154E+02  0.53908294066E+02  0.74470750000E+01 0. -1.
<mgrwt>
<rscale>  0 0.15005373E+02</rscale>
<asrwt>0</asrwt>
<pdfrwt beam="1">  1        2 0.99807639E+00 0.15005373E+02</pdfrwt>
<pdfrwt beam="2">  1       -2 0.99433841E+00 0.15005373E+02</pdfrwt>
<totfact>-0.63240602E-14</totfact>
</mgrwt>
</event>
<event>
 4    1 -0.5167034E-019  0.1493609E+02  0.7818608E-02  0.1870025E+00
          2   -1    0    0  501    0  0.00000000000E+00  0.00000000000E+00  0.11856241102E+03  0.11856241105E+03  0.25500000000E-02 0.  1.
         -2   -1    0    0    0  501 -0.00000000000E+00 -0.00000000000E+00 -0.47039595674E+00  0.47040286842E+00  0.25500000000E-02 0. -1.
         31    1    1    2    0    0  0.23902345615E+00 -0.43347293522E+00  0.56971880215E+02  0.57458672907E+02  0.74470750000E+01 0. -1.
        -31    1    1    2    0    0 -0.23902345615E+00  0.43347293522E+00  0.61120134851E+02  0.61574141011E+02  0.74470750000E+01 0. -1.
<mgrwt>
<rscale>  0 0.14936089E+02</rscale>
<asrwt>0</asrwt>
<pdfrwt beam="1">  1        2 0.98424659E+00 0.14936089E+02</pdfrwt>
<pdfrwt beam="2">  1       -2 0.99902021E+00 0.14936089E+02</pdfrwt>
<totfact>-0.12531947E-13</totfact>
</mgrwt>
</event>
<event>
 4    1 -0.5167034E-019  0.1489683E+02  0.7818608E-02  0.1871233E+00
          2   -1    0    0  501    0  0.00000000000E+00  0.00000000000E+00  0.11836227470E+03  0.11836227473E+03  0.25500000000E-02 0. -1.
         -2   -1    0    0    0  501 -0.00000000000E+00 -0.00000000000E+00 -0.46871778336E+00  0.46872471978E+00  0.25500000000E-02 0.  1.
         31    1    1    2    0    0  0.80964730400E-01  0.87196953301E-01  0.59555964309E+02  0.60019879785E+02  0.74470750000E+01 0.  1.
        -31    1    1    2    0    0 -0.80964730400E-01 -0.87196953301E-01  0.58337592607E+02  0.58811119661E+02  0.74470750000E+01 0.  1.
<mgrwt>
<rscale>  0 0.14896834E+02</rscale>
<asrwt>0</asrwt>
<pdfrwt beam="1">  1        2 0.98257785E+00 0.14896834E+02</pdfrwt>
<pdfrwt beam="2">  1       -2 0.99546359E+00 0.14896834E+02</pdfrwt>
<totfact>-0.51036346E-13</totfact>
</mgrwt>
</event>
<event>
 4    1  0.5167034E-019  0.1490416E+02  0.7818608E-02  0.1871007E+00
          2   -1    0    0  501    0  0.00000000000E+00  0.00000000000E+00  0.12026491842E+03  0.12026491844E+03  0.25500000000E-02 0. -1.
         -2   -1    0    0    0  501 -0.00000000000E+00 -0.00000000000E+00 -0.46175598712E+00  0.46176302812E+00  0.25500000000E-02 0.  1.
         31    1    1    2    0    0 -0.62012925800E-01  0.10492928370E+00  0.57922561499E+02  0.58399459864E+02  0.74470750000E+01 0.  1.
        -31    1    1    2    0    0  0.62012925800E-01 -0.10492928370E+00  0.61880600931E+02  0.62327221609E+02  0.74470750000E+01 0. -1.
<mgrwt>
<rscale>  0 0.14904157E+02</rscale>
<asrwt>0</asrwt>
<pdfrwt beam="1">  1        2 0.99825267E+00 0.14904157E+02</pdfrwt>
<pdfrwt beam="2">  1       -2 0.98079609E+00 0.14904157E+02</pdfrwt>
<totfact> 0.60782723E-13</totfact>
</mgrwt>
</event>
<event>
 4    1  0.5167034E-019  0.1492175E+02  0.7818608E-02  0.1870466E+00
          2   -1    0    0  501    0  0.00000000000E+00  0.00000000000E+00  0.11995058299E+03  0.11995058302E+03  0.25500000000E-02 0.  1.
         -2   -1    0    0    0  501 -0.00000000000E+00 -0.00000000000E+00 -0.46405955763E+00  0.46406656368E+00  0.25500000000E-02 0. -1.
         31    1    1    2    0    0 -0.24204425239E+00 -0.22906903090E+00  0.62225987400E+02  0.62670914242E+02  0.74470750000E+01 0.  1.
        -31    1    1    2    0    0  0.24204425239E+00  0.22906903090E+00  0.57260536037E+02  0.57743735342E+02  0.74470750000E+01 0.  1.
<mgrwt>
<rscale>  0 0.14921748E+02</rscale>
<asrwt>0</asrwt>
<pdfrwt beam="1">  1        2 0.99567257E+00 0.14921748E+02</pdfrwt>
<pdfrwt beam="2">  1       -2 0.98566020E+00 0.14921748E+02</pdfrwt>
<totfact> 0.36852246E-13</totfact>
</mgrwt>
</event>
<event>
 4    1 -0.5167034E-019  0.1491041E+02  0.7818608E-02  0.1870815E+00
          2   -1    0    0  501    0  0.00000000000E+00  0.00000000000E+00  0.11858917662E+03  0.11858917665E+03  0.25500000000E-02 0. -1.
         -2   -1    0    0    0  501 -0.00000000000E+00 -0.00000000000E+00 -0.46867413378E+00  0.46868107085E+00  0.25500000000E-02 0.  1.
         31    1    1    2    0    0  0.67792700042E-01  0.28683991234E+00  0.60538967804E+02  0.60996003326E+02  0.74470750000E+01 0. -1.
        -31    1    1    2    0    0 -0.67792700042E-01 -0.28683991234E+00  0.57581534681E+02  0.58061854390E+02  0.74470750000E+01 0.  1.
<mgrwt>
<rscale>  0 0.14910412E+02</rscale>
<asrwt>0</asrwt>
<pdfrwt beam="1">  1        2 0.98445367E+00 0.14910412E+02</pdfrwt>
<pdfrwt beam="2">  1       -2 0.99537877E+00 0.14910412E+02</pdfrwt>
<totfact>-0.37429069E-13</totfact>
</mgrwt>
</event>
<event>
 4    1 -0.5167034E-019  0.1494291E+02  0.7818608E-02  0.1869816E+00
         -2   -1    0    0    0  501 -0.00000000000E+00  0.00000000000E+00  0.11960422408E+03  0.11960422411E+03  0.25500000000E-02 0. -1.
          2   -1    0    0  501    0  0.00000000000E+00 -0.00000000000E+00 -0.46672469006E+00  0.46673165610E+00  0.25500000000E-02 0.  1.
         31    1    1    2    0    0 -0.48098295494E+00  0.20500381931E+00  0.61984253356E+02  0.62432202919E+02  0.74470750000E+01 0. -1.
        -31    1    1    2    0    0  0.48098295494E+00 -0.20500381931E+00  0.57153246036E+02  0.57638752846E+02  0.74470750000E+01 0.  1.
<mgrwt>
<rscale>  0 0.14942913E+02</rscale>
<asrwt>0</asrwt>
<pdfrwt beam="2">  1        2 0.99128777E+00 0.14942913E+02</pdfrwt>
<pdfrwt beam="1">  1       -2 0.99283067E+00 0.14942913E+02</pdfrwt>
<totfact>-0.13412089E-13</totfact>
</mgrwt>
</event>
<event>
 4    1  0.5167034E-019  0.1492433E+02  0.7818608E-02  0.1870386E+00
         -2   -1    0    0    0  501 -0.00000000000E+00  0.00000000000E+00  0.11842495993E+03  0.11842495995E+03  0.25500000000E-02 0.  1.
          2   -1    0    0  501    0  0.00000000000E+00 -0.00000000000E+00 -0.47020086294E+00  0.47020777749E+00  0.25500000000E-02 0. -1.
         31    1    1    2    0    0  0.13090598850E+00  0.45254416882E+00  0.58535802407E+02  0.59009499423E+02  0.74470750000E+01 0.  1.
        -31    1    1    2    0    0 -0.13090598850E+00 -0.45254416882E+00  0.59418956655E+02  0.59885668308E+02  0.74470750000E+01 0.  1.
<mgrwt>
<rscale>  0 0.14924333E+02</rscale>
<asrwt>0</asrwt>
<pdfrwt beam="2">  1        2 0.99860294E+00 0.14924333E+02</pdfrwt>
<pdfrwt beam="1">  1       -2 0.98310843E+00 0.14924333E+02</pdfrwt>
<totfact> 0.31889961E-13</totfact>
</mgrwt>
</event>
<event>
 4    1 -0.5167034E-019  0.1489633E+02  0.7818608E-02  0.1871249E+00
         -2   -1    0    0    0  501 -0.00000000000E+00  0.00000000000E+00  0.12016801688E+03  0.12016801691E+03  0.25500000000E-02 0.  1.
          2   -1    0    0  501    0  0.00000000000E+00 -0.00000000000E+00 -0.46164322769E+00  0.46165027041E+00  0.25500000000E-02 0. -1.
         31    1    1    2    0    0  0.20167450302E-01 -0.66304286739E-01  0.60719649786E+02  0.61174664684E+02  0.74470750000E+01 0.  1.
        -31    1    1    2    0    0 -0.20167450302E-01  0.66304286739E-01  0.58986723864E+02  0.59455002491E+02  0.74470750000E+01 0. -1.
<mgrwt>
<rscale>  0 0.14896332E+02</rscale>
<asrwt>0</asrwt>
<pdfrwt beam="2">  1        2 0.98055448E+00 0.14896332E+02</pdfrwt>
<pdfrwt beam="1">  1       -2 0.99745049E+00 0.14896332E+02</pdfrwt>
<totfact>-0.52303224E-13</totfact>
</mgrwt>
</event>
<event>
 4    1 -0.5167034E-019  0.1500589E+02  0.7818608E-02  0.1867889E+00
         -2   -1    0    0    0  501 -0.00000000000E+00  0.00000000000E+00  0.12003127379E+03  0.12003127382E+03  0.25500000000E-02 0.  1.
          2   -1    0    0  501    0  0.00000000000E+00 -0.00000000000E+00 -0.46899222198E+00  0.46899915435E+00  0.25500000000E-02 0. -1.
         31    1    1    2    0    0  0.79315104747E-01  0.55776037644E+00  0.54002522727E+02  0.54516500020E+02  0.74470750000E+01 0. -1.
        -31    1    1    2    0    0 -0.79315104747E-01 -0.55776037644E+00  0.65559758842E+02  0.65983772952E+02  0.74470750000E+01 0.  1.
<mgrwt>
<rscale>  0 0.15005886E+02</rscale>
<asrwt>0</asrwt>
<pdfrwt beam="2">  1        2 0.99609880E+00 0.15005886E+02</pdfrwt>
<pdfrwt beam="1">  1       -2 0.99638057E+00 0.15005886E+02</pdfrwt>
<totfact>-0.93068867E-14</totfact>
</mgrwt>
</event>
<event>
 4    1 -0.5167034E-019  0.1500132E+02  0.7818608E-02  0.1868028E+00
         -2   -1    0    0    0  501 -0.00000000000E+00  0.00000000000E+00  0.11977472716E+03  0.11977472719E+03  0.25500000000E-02 0.  1.
          2   -1    0    0  501    0  0.00000000000E+00 -0.00000000000E+00 -0.46971077609E+00  0.46971769785E+00  0.25500000000E-02 0. -1.
         31    1    1    2    0    0 -0.54731960465E+00  0.27610731593E+00  0.54425889271E+02  0.54936437298E+02  0.74470750000E+01 0. -1.
        -31    1    1    2    0    0  0.54731960465E+00 -0.27610731593E+00  0.64879127115E+02  0.65308007589E+02  0.74470750000E+01 0.  1.
<mgrwt>
<rscale>  0 0.15001320E+02</rscale>
<asrwt>0</asrwt>
<pdfrwt beam="2">  1        2 0.99761065E+00 0.15001320E+02</pdfrwt>
<pdfrwt beam="1">  1       -2 0.99426520E+00 0.15001320E+02</pdfrwt>
<totfact>-0.74410515E-14</totfact>
</mgrwt>
</event>
<event>
 4    1 -0.5167034E-019  0.1498671E+02  0.7818608E-02  0.1868474E+00
          2   -1    0    0  501    0  0.00000000000E+00  0.00000000000E+00  0.11987621900E+03  0.11987621903E+03  0.25500000000E-02 0. -1.
         -2   -1    0    0    0  501 -0.00000000000E+00 -0.00000000000E+00 -0.46839946024E+00  0.46840640138E+00  0.25500000000E-02 0.  1.
         31    1    1    2    0    0 -0.75090449632E+00  0.29199648190E+00  0.58051778530E+02  0.58533042258E+02  0.74470750000E+01 0. -1.
        -31    1    1    2    0    0  0.75090449632E+00 -0.29199648190E+00  0.61356041010E+02  0.61811583170E+02  0.74470750000E+01 0. -1.
<mgrwt>
<rscale>  0 0.14986711E+02</rscale>
<asrwt>0</asrwt>
<pdfrwt beam="1">  1        2 0.99509356E+00 0.14986711E+02</pdfrwt>
<pdfrwt beam="2">  1       -2 0.99483974E+00 0.14986711E+02</pdfrwt>
<totfact>-0.11838072E-13</totfact>
</mgrwt>
</event>
<event>
 4    1 -0.5167034E-019  0.1496067E+02  0.7818608E-02  0.1869271E+00
          2   -1    0    0  501    0  0.00000000000E+00  0.00000000000E+00  0.11936153271E+03  0.11936153274E+03  0.25500000000E-02 0. -1.
         -2   -1    0    0    0  501 -0.00000000000E+00 -0.00000000000E+00 -0.46878597785E+00  0.46879291327E+00  0.25500000000E-02 0.  1.
         31    1    1    2    0    0 -0.57883689690E+00 -0.19574294778E+00  0.56635708878E+02  0.57126489597E+02  0.74470750000E+01 0.  1.
        -31    1    1    2    0    0  0.57883689690E+00  0.19574294778E+00  0.62257037855E+02  0.62703836055E+02  0.74470750000E+01 0. -1.
<mgrwt>
<rscale>  0 0.14960672E+02</rscale>
<asrwt>0</asrwt>
<pdfrwt beam="1">  1        2 0.99084097E+00 0.14960672E+02</pdfrwt>
<pdfrwt beam="2">  1       -2 0.99564073E+00 0.14960672E+02</pdfrwt>
<totfact>-0.16061214E-13</totfact>
</mgrwt>
</event>
<event>
 4    1 -0.5167034E-019  0.1491754E+02  0.7818608E-02  0.1870595E+00
         -2   -1    0    0    0  501 -0.00000000000E+00  0.00000000000E+00  0.12006457892E+03  0.12006457895E+03  0.25500000000E-02 0.  1.
          2   -1    0    0  501    0  0.00000000000E+00 -0.00000000000E+00 -0.46335747420E+00  0.46336449087E+00  0.25500000000E-02 0. -1.
         31    1    1    2    0    0 -0.23918018844E+00  0.19454779293E+00  0.57525909769E+02  0.58006760613E+02  0.74470750000E+01 0. -1.
        -31    1    1    2    0    0  0.23918018844E+00 -0.19454779293E+00  0.62075311679E+02  0.62521182827E+02  0.74470750000E+01 0.  1.
<mgrwt>
<rscale>  0 0.14917539E+02</rscale>
<asrwt>0</asrwt>
<pdfrwt beam="2">  1        2 0.98417833E+00 0.14917539E+02</pdfrwt>
<pdfrwt beam="1">  1       -2 0.99660937E+00 0.14917539E+02</pdfrwt>
<totfact>-0.34297825E-13</totfact>
</mgrwt>
</event>
<event>
 4    1  0.5167034E-019  0.1496229E+02  0.7818608E-02  0.1869221E+00
          2   -1    0    0  501    0  0.00000000000E+00  0.00000000000E+00  0.12007763440E+03  0.12007763443E+03  0.25500000000E-02 0.  1.
         -2   -1    0    0    0  501 -0.00000000000E+00 -0.00000000000E+00 -0.46609101814E+00  0.46609799366E+00  0.25500000000E-02 0. -1.
         31    1    1    2    0    0  0.47231892716E+00 -0.38519691281E+00  0.56822242430E+02  0.57311409185E+02  0.74470750000E+01 0. -1.
        -31    1    1    2    0    0 -0.47231892716E+00  0.38519691281E+00  0.62789300951E+02  0.63232323235E+02  0.74470750000E+01 0. -1.
<mgrwt>
<rscale>  0 0.14962290E+02</rscale>
<asrwt>0</asrwt>
<pdfrwt beam="1">  1        2 0.99673992E+00 0.14962290E+02</pdfrwt>
<pdfrwt beam="2">  1       -2 0.98996230E+00 0.14962290E+02</pdfrwt>
<totfact> 0.82272191E-15</totfact>
</mgrwt>
</event>
<event>
 4    1  0.5167034E-019  0.1491595E+02  0.7818608E-02  0.1870644E+00
          2   -1    0    0  501    0  0.00000000000E+00  0.00000000000E+00  0.11948204896E+03  0.11948204898E+03  0.25500000000E-02 0. -1.
         -2   -1    0    0    0  501 -0.00000000000E+00 -0.00000000000E+00 -0.46551760810E+00  0.46552459221E+00  0.25500000000E-02 0.  1.
         31    1    1    2    0    0  0.12914152492E+00 -0.18244139646E+00  0.56810687790E+02  0.57297147710E+02  0.74470750000E+01 0.  1.
        -31    1    1    2    0    0 -0.12914152492E+00  0.18244139646E+00  0.62205843557E+02  0.62650425865E+02  0.74470750000E+01 0. -1.
<mgrwt>
<rscale>  0 0.14915954E+02</rscale>
<asrwt>0</asrwt>
<pdfrwt beam="1">  1        2 0.99181046E+00 0.14915954E+02</pdfrwt>
<pdfrwt beam="2">  1       -2 0.98873008E+00 0.14915954E+02</pdfrwt>
<totfact> 0.11867887E-13</totfact>
</mgrwt>
</event>
<event>
 4    1  0.5167034E-019  0.1491314E+02  0.7818608E-02  0.1870731E+00
          2   -1    0    0  501    0  0.00000000000E+00  0.00000000000E+00  0.12038375748E+03  0.12038375751E+03  0.25500000000E-02 0.  1.
         -2   -1    0    0    0  501 -0.00000000000E+00 -0.00000000000E+00 -0.46185659133E+00  0.46186363080E+00  0.25500000000E-02 0. -1.
         31    1    1    2    0    0 -0.35943396872E+00  0.65871288837E-02  0.59062374322E+02  0.59531102986E+02  0.74470750000E+01 0.  1.
        -31    1    1    2    0    0  0.35943396872E+00 -0.65871288837E-02  0.60859526570E+02  0.61314518155E+02  0.74470750000E+01 0. -1.
<mgrwt>
<rscale>  0 0.14913143E+02</rscale>
<asrwt>0</asrwt>
<pdfrwt beam="1">  1        2 0.99923615E+00 0.14913143E+02</pdfrwt>
<pdfrwt beam="2">  1       -2 0.98101267E+00 0.14913143E+02</pdfrwt>
<totfact> 0.28493904E-13</totfact>
</mgrwt>
</event>
<event>
 4    1  0.5167034E-019  0.1492332E+02  0.7818608E-02  0.1870418E+00
          2   -1    0    0  501    0  0.00000000000E+00  0.00000000000E+00  0.11957143462E+03  0.11957143465E+03  0.25500000000E-02 0. -1.
         -2   -1    0    0    0  501 -0.00000000000E+00 -0.00000000000E+00 -0.46562889033E+00  0.46563587277E+00  0.25500000000E-02 0.  1.
         31    1    1    2    0    0 -0.44618498968E+00 -0.84163568345E-01  0.58699958846E+02  0.59172208503E+02  0.74470750000E+01 0. -1.
        -31    1    1    2    0    0  0.44618498968E+00  0.84163568345E-01  0.60405846888E+02  0.60864862021E+02  0.74470750000E+01 0. -1.
<mgrwt>
<rscale>  0 0.14923315E+02</rscale>
<asrwt>0</asrwt>
<pdfrwt beam="1">  1        2 0.99255048E+00 0.14923315E+02</pdfrwt>
<pdfrwt beam="2">  1       -2 0.98896839E+00 0.14923315E+02</pdfrwt>
<totfact> 0.91094064E-14</totfact>
</mgrwt>
</event>
<event>
 4    1 -0.5167034E-019  0.1498597E+02  0.7818608E-02  0.1868497E+00
          2   -1    0    0  501    0  0.00000000000E+00  0.00000000000E+00  0.12007675186E+03  0.12007675189E+03  0.25500000000E-02 0. -1.
         -2   -1    0    0    0  501 -0.00000000000E+00 -0.00000000000E+00 -0.46757072514E+00  0.46757767858E+00  0.25500000000E-02 0.  1.
         31    1    1    2    0    0 -0.31354015775E+00  0.29480945004E+00  0.54113067081E+02  0.54624794508E+02  0.74470750000E+01 0.  1.
        -31    1    1    2    0    0  0.31354015775E+00 -0.29480945004E+00  0.65496114052E+02  0.65919535056E+02  0.74470750000E+01 0. -1.
<mgrwt>
<rscale>  0 0.14985966E+02</rscale>
<asrwt>0</asrwt>
<pdfrwt beam="1">  1        2 0.99674486E+00 0.14985966E+02</pdfrwt>
<pdfrwt beam="2">  1       -2 0.99309288E+00 0.14985966E+02</pdfrwt>
<totfact>-0.81956704E-14</totfact>
</mgrwt>
</event>
<event>
 4    1  0.5167034E-019  0.1491661E+02  0.7818608E-02  0.1870624E+00
         -2   -1    0    0    0  501 -0.00000000000E+00  0.00000000000E+00  0.11816571660E+03  0.11816571662E+03  0.25500000000E-02 0. -1.
          2   -1    0    0  501    0  0.00000000000E+00 -0.00000000000E+00 -0.47074482983E+00  0.47075173638E+00  0.25500000000E-02 0.  1.
         31    1    1    2    0    0 -0.39492026862E+00 -0.90631338952E-01  0.59298050249E+02  0.59765222877E+02  0.74470750000E+01 0.  1.
        -31    1    1    2    0    0  0.39492026862E+00  0.90631338952E-01  0.58396921516E+02  0.58871245483E+02  0.74470750000E+01 0.  1.
<mgrwt>
<rscale>  0 0.14916610E+02</rscale>
<asrwt>0</asrwt>
<pdfrwt beam="2">  1        2 0.99974493E+00 0.14916610E+02</pdfrwt>
<pdfrwt beam="1">  1       -2 0.98096933E+00 0.14916610E+02</pdfrwt>
<totfact> 0.10144572E-13</totfact>
</mgrwt>
</event>
<event>
 4    1  0.5167034E-019  0.1492150E+02  0.7818608E-02  0.1870473E+00
         -2   -1    0    0    0  501 -0.00000000000E+00  0.00000000000E+00  0.11846334610E+03  0.11846334612E+03  0.25500000000E-02 0.  1.
          2   -1    0    0  501    0  0.00000000000E+00 -0.00000000000E+00 -0.46987027333E+00  0.46987719274E+00  0.25500000000E-02 0. -1.
         31    1    1    2    0    0  0.32309691835E+00  0.20870223622E+00  0.60881974550E+02  0.61336952153E+02  0.74470750000E+01 0.  1.
        -31    1    1    2    0    0 -0.32309691835E+00 -0.20870223622E+00  0.57111501272E+02  0.57596271162E+02  0.74470750000E+01 0. -1.
<mgrwt>
<rscale>  0 0.14921504E+02</rscale>
<asrwt>0</asrwt>
<pdfrwt beam="2">  1        2 0.99790490E+00 0.14921504E+02</pdfrwt>
<pdfrwt beam="1">  1       -2 0.98342310E+00 0.14921504E+02</pdfrwt>
<totfact> 0.41224026E-13</totfact>
</mgrwt>
</event>
<event>
 4    1  0.5167034E-019  0.1497362E+02  0.7818608E-02  0.1868874E+00
         -2   -1    0    0    0  501 -0.00000000000E+00  0.00000000000E+00  0.11907646216E+03  0.11907646219E+03  0.25500000000E-02 0. -1.
          2   -1    0    0  501    0  0.00000000000E+00 -0.00000000000E+00 -0.47072215161E+00  0.47072905850E+00  0.25500000000E-02 0.  1.
         31    1    1    2    0    0  0.73224035501E+00 -0.23083303157E+00  0.59805096509E+02  0.60271867022E+02  0.74470750000E+01 0.  1.
        -31    1    1    2    0    0 -0.73224035501E+00  0.23083303157E+00  0.58800643500E+02  0.59275324224E+02  0.74470750000E+01 0.  1.
<mgrwt>
<rscale>  0 0.14973623E+02</rscale>
<asrwt>0</asrwt>
<pdfrwt beam="2">  1        2 0.99972730E+00 0.14973623E+02</pdfrwt>
<pdfrwt beam="1">  1       -2 0.98849982E+00 0.14973623E+02</pdfrwt>
<totfact> 0.99754108E-15</totfact>
</mgrwt>
</event>
<event>
 4    1 -0.5167034E-019  0.1494729E+02  0.7818608E-02  0.1869681E+00
         -2   -1    0    0    0  501 -0.00000000000E+00  0.00000000000E+00  0.12024515952E+03  0.12024515954E+03  0.25500000000E-02 0.  1.
          2   -1    0    0  501    0  0.00000000000E+00 -0.00000000000E+00 -0.46450886964E+00  0.46451586892E+00  0.25500000000E-02 0. -1.
         31    1    1    2    0    0 -0.52255189509E+00 -0.23358687357E+00  0.57771817225E+02  0.58252634402E+02  0.74470750000E+01 0. -1.
        -31    1    1    2    0    0  0.52255189509E+00  0.23358687357E+00  0.62008833423E+02  0.62457041011E+02  0.74470750000E+01 0.  1.
<mgrwt>
<rscale>  0 0.14947290E+02</rscale>
<asrwt>0</asrwt>
<pdfrwt beam="2">  1        2 0.98662016E+00 0.14947290E+02</pdfrwt>
<pdfrwt beam="1">  1       -2 0.99811205E+00 0.14947290E+02</pdfrwt>
<totfact>-0.15309025E-13</totfact>
</mgrwt>
</event>
<event>
 4    1 -0.5167034E-019  0.1496941E+02  0.7818608E-02  0.1869004E+00
          2   -1    0    0  501    0  0.00000000000E+00  0.00000000000E+00  0.11986544643E+03  0.11986544645E+03  0.25500000000E-02 0. -1.
         -2   -1    0    0    0  501 -0.00000000000E+00 -0.00000000000E+00 -0.46736033675E+00  0.46736729332E+00  0.25500000000E-02 0.  1.
         31    1    1    2    0    0 -0.26933528771E+00  0.66055923987E+00  0.57848954262E+02  0.58330689309E+02  0.74470750000E+01 0.  1.
        -31    1    1    2    0    0  0.26933528771E+00 -0.66055923987E+00  0.61549131829E+02  0.62002124439E+02  0.74470750000E+01 0. -1.
<mgrwt>
<rscale>  0 0.14969406E+02</rscale>
<asrwt>0</asrwt>
<pdfrwt beam="1">  1        2 0.99499590E+00 0.14969406E+02</pdfrwt>
<pdfrwt beam="2">  1       -2 0.99264098E+00 0.14969406E+02</pdfrwt>
<totfact>-0.96020101E-14</totfact>
</mgrwt>
</event>
<event>
 4    1 -0.5167034E-019  0.1490597E+02  0.7818608E-02  0.1870951E+00
          2   -1    0    0  501    0  0.00000000000E+00  0.00000000000E+00  0.11824496065E+03  0.11824496067E+03  0.25500000000E-02 0. -1.
         -2   -1    0    0    0  501 -0.00000000000E+00 -0.00000000000E+00 -0.46975874917E+00  0.46976567022E+00  0.25500000000E-02 0.  1.
         31    1    1    2    0    0  0.19405039278E+00 -0.22003520972E+00  0.58529639477E+02  0.59002234656E+02  0.74470750000E+01 0.  1.
        -31    1    1    2    0    0 -0.19405039278E+00  0.22003520972E+00  0.59245562421E+02  0.59712491689E+02  0.74470750000E+01 0.  1.
<mgrwt>
<rscale>  0 0.14905974E+02</rscale>
<asrwt>0</asrwt>
<pdfrwt beam="1">  1        2 0.98161642E+00 0.14905974E+02</pdfrwt>
<pdfrwt beam="2">  1       -2 0.99766171E+00 0.14905974E+02</pdfrwt>
<totfact>-0.41077854E-13</totfact>
</mgrwt>
</event>
<event>
 4    1  0.5167034E-019  0.1491930E+02  0.7818608E-02  0.1870541E+00
          2   -1    0    0  501    0  0.00000000000E+00  0.00000000000E+00  0.11963121947E+03  0.11963121949E+03  0.25500000000E-02 0. -1.
         -2   -1    0    0    0  501 -0.00000000000E+00 -0.00000000000E+00 -0.46514576798E+00  0.46515275767E+00  0.25500000000E-02 0.  1.
         31    1    1    2    0    0 -0.68396624569E-01  0.41006889547E+00  0.60556227514E+02  0.61013838195E+02  0.74470750000E+01 0. -1.
        -31    1    1    2    0    0  0.68396624569E-01 -0.41006889547E+00  0.58609846183E+02  0.59082534055E+02  0.74470750000E+01 0.  1.
<mgrwt>
<rscale>  0 0.14919300E+02</rscale>
<asrwt>0</asrwt>
<pdfrwt beam="1">  1        2 0.99304083E+00 0.14919300E+02</pdfrwt>
<pdfrwt beam="2">  1       -2 0.98794817E+00 0.14919300E+02</pdfrwt>
<totfact> 0.18342727E-13</totfact>
</mgrwt>
</event>
<event>
 4    1  0.5167034E-019  0.1489808E+02  0.7818608E-02  0.1871195E+00
          2   -1    0    0  501    0  0.00000000000E+00  0.00000000000E+00  0.11988031017E+03  0.11988031020E+03  0.25500000000E-02 0.  1.
         -2   -1    0    0    0  501 -0.00000000000E+00 -0.00000000000E+00 -0.46285996320E+00  0.46286698741E+00  0.25500000000E-02 0. -1.
         31    1    1    2    0    0  0.14416522675E+00 -0.31142577238E-01  0.59007274089E+02  0.59475533414E+02  0.74470750000E+01 0. -1.
        -31    1    1    2    0    0 -0.14416522675E+00  0.31142577238E-01  0.60410176119E+02  0.60867643771E+02  0.74470750000E+01 0.  1.
<mgrwt>
<rscale>  0 0.14898083E+02</rscale>
<asrwt>0</asrwt>
<pdfrwt beam="1">  1        2 0.99508159E+00 0.14898083E+02</pdfrwt>
<pdfrwt beam="2">  1       -2 0.98311988E+00 0.14898083E+02</pdfrwt>
<totfact> 0.76891924E-13</totfact>
</mgrwt>
</event>
<event>
 4    1 -0.5167034E-019  0.1493343E+02  0.7818608E-02  0.1870107E+00
         -2   -1    0    0    0  501 -0.00000000000E+00  0.00000000000E+00  0.12031988549E+03  0.12031988552E+03  0.25500000000E-02 0. -1.
          2   -1    0    0  501    0  0.00000000000E+00 -0.00000000000E+00 -0.46335965053E+00  0.46336666716E+00  0.25500000000E-02 0.  1.
         31    1    1    2    0    0  0.21612823532E+00  0.44978131308E+00  0.58234294957E+02  0.58710655335E+02  0.74470750000E+01 0.  1.
        -31    1    1    2    0    0 -0.21612823532E+00 -0.44978131308E+00  0.61622230884E+02  0.62072596851E+02  0.74470750000E+01 0. -1.
<mgrwt>
<rscale>  0 0.14933426E+02</rscale>
<asrwt>0</asrwt>
<pdfrwt beam="2">  1        2 0.98419097E+00 0.14933426E+02</pdfrwt>
<pdfrwt beam="1">  1       -2 0.99872044E+00 0.14933426E+02</pdfrwt>
<totfact>-0.16105784E-13</totfact>
</mgrwt>
</event>
<event>
 4    1 -0.5167034E-019  0.1495689E+02  0.7818608E-02  0.1869387E+00
          2   -1    0    0  501    0  0.00000000000E+00  0.00000000000E+00  0.11957720019E+03  0.11957720022E+03  0.25500000000E-02 0.  1.
         -2   -1    0    0    0  501 -0.00000000000E+00 -0.00000000000E+00 -0.46770395263E+00  0.46771090409E+00  0.25500000000E-02 0. -1.
         31    1    1    2    0    0  0.19639656771E-01  0.55873947310E+00  0.56388302209E+02  0.56880683255E+02  0.74470750000E+01 0.  1.
        -31    1    1    2    0    0 -0.19639656771E-01 -0.55873947310E+00  0.62721194033E+02  0.63164227871E+02  0.74470750000E+01 0.  1.
<mgrwt>
<rscale>  0 0.14956891E+02</rscale>
<asrwt>0</asrwt>
<pdfrwt beam="1">  1        2 0.99261532E+00 0.14956891E+02</pdfrwt>
<pdfrwt beam="2">  1       -2 0.99335865E+00 0.14956891E+02</pdfrwt>
<totfact>-0.13293492E-13</totfact>
</mgrwt>
</event>
<event>
 4    1 -0.5167034E-019  0.1492489E+02  0.7818608E-02  0.1870369E+00
          2   -1    0    0  501    0  0.00000000000E+00  0.00000000000E+00  0.11888377592E+03  0.11888377595E+03  0.25500000000E-02 0. -1.
         -2   -1    0    0    0  501 -0.00000000000E+00 -0.00000000000E+00 -0.46842098855E+00  0.46842792937E+00  0.25500000000E-02 0.  1.
         31    1    1    2    0    0 -0.21798964860E+00 -0.40681518651E+00  0.58192122684E+02  0.58668518701E+02  0.74470750000E+01 0.  1.
        -31    1    1    2    0    0  0.21798964860E+00  0.40681518651E+00  0.60223232251E+02  0.60683685179E+02  0.74470750000E+01 0. -1.
<mgrwt>
<rscale>  0 0.14924888E+02</rscale>
<asrwt>0</asrwt>
<pdfrwt beam="1">  1        2 0.98688753E+00 0.14924888E+02</pdfrwt>
<pdfrwt beam="2">  1       -2 0.99485295E+00 0.14924888E+02</pdfrwt>
<totfact>-0.26021896E-13</totfact>
</mgrwt>
</event>
<event>
 4    1  0.5167034E-019  0.1489992E+02  0.7818608E-02  0.1871138E+00
         -2   -1    0    0    0  501 -0.00000000000E+00  0.00000000000E+00  0.11822811638E+03  0.11822811641E+03  0.25500000000E-02 0.  1.
          2   -1    0    0  501    0  0.00000000000E+00 -0.00000000000E+00 -0.46944396000E+00  0.46945088570E+00  0.25500000000E-02 0. -1.
         31    1    1    2    0    0  0.13962907170E+00 -0.59402418540E-01  0.60004163607E+02  0.60464713687E+02  0.74470750000E+01 0.  1.
        -31    1    1    2    0    0 -0.13962907170E+00  0.59402418540E-01  0.57754508812E+02  0.58232853606E+02  0.74470750000E+01 0. -1.
<mgrwt>
<rscale>  0 0.14899918E+02</rscale>
<asrwt>0</asrwt>
<pdfrwt beam="2">  1        2 0.99699526E+00 0.14899918E+02</pdfrwt>
<pdfrwt beam="1">  1       -2 0.98147453E+00 0.14899918E+02</pdfrwt>
<totfact> 0.80325246E-13</totfact>
</mgrwt>
</event>
<event>
 4    1  0.5167034E-019  0.1492590E+02  0.7818608E-02  0.1870338E+00
          2   -1    0    0  501    0  0.00000000000E+00  0.00000000000E+00  0.11989651860E+03  0.11989651863E+03  0.25500000000E-02 0.  1.
         -2   -1    0    0    0  501 -0.00000000000E+00 -0.00000000000E+00 -0.46452701533E+00  0.46453401433E+00  0.25500000000E-02 0. -1.
         31    1    1    2    0    0  0.47291098036E+00  0.11322243352E+00  0.59600650841E+02  0.60066071712E+02  0.74470750000E+01 0.  1.
        -31    1    1    2    0    0 -0.47291098036E+00 -0.11322243352E+00  0.59831340747E+02  0.60294980933E+02  0.74470750000E+01 0. -1.
<mgrwt>
<rscale>  0 0.14925896E+02</rscale>
<asrwt>0</asrwt>
<pdfrwt beam="1">  1        2 0.99522940E+00 0.14925896E+02</pdfrwt>
<pdfrwt beam="2">  1       -2 0.98664751E+00 0.14925896E+02</pdfrwt>
<totfact> 0.27606606E-13</totfact>
</mgrwt>
</event>
<event>
 4    1 -0.5167034E-019  0.1493375E+02  0.7818608E-02  0.1870097E+00
         -2   -1    0    0    0  501 -0.00000000000E+00  0.00000000000E+00  0.12003143289E+03  0.12003143292E+03  0.25500000000E-02 0. -1.
          2   -1    0    0  501    0  0.00000000000E+00 -0.00000000000E+00 -0.46449325941E+00  0.46450025892E+00  0.25500000000E-02 0.  1.
         31    1    1    2    0    0  0.15380814639E+00 -0.50724729946E+00  0.58817514401E+02  0.59289458449E+02  0.74470750000E+01 0.  1.
        -31    1    1    2    0    0 -0.15380814639E+00  0.50724729946E+00  0.60749425230E+02  0.61206474728E+02  0.74470750000E+01 0. -1.
<mgrwt>
<rscale>  0 0.14933749E+02</rscale>
<asrwt>0</asrwt>
<pdfrwt beam="2">  1        2 0.98658037E+00 0.14933749E+02</pdfrwt>
<pdfrwt beam="1">  1       -2 0.99634468E+00 0.14933749E+02</pdfrwt>
<totfact>-0.24418295E-13</totfact>
</mgrwt>
</event>
<event>
 4    1  0.5167034E-019  0.1489838E+02  0.7818608E-02  0.1871186E+00
         -2   -1    0    0    0  501 -0.00000000000E+00  0.00000000000E+00  0.11858015919E+03  0.11858015922E+03  0.25500000000E-02 0. -1.
          2   -1    0    0  501    0  0.00000000000E+00 -0.00000000000E+00 -0.46795338296E+00  0.46796033072E+00  0.25500000000E-02 0.  1.
         31    1    1    2    0    0  0.76363510150E-01 -0.40504084392E-01  0.60294111770E+02  0.60752335858E+02  0.74470750000E+01 0.  1.
        -31    1    1    2    0    0 -0.76363510150E-01  0.40504084392E-01  0.57818094042E+02  0.58295783695E+02  0.74470750000E+01 0.  1.
<mgrwt>
<rscale>  0 0.14898376E+02</rscale>
<asrwt>0</asrwt>
<pdfrwt beam="2">  1        2 0.99385376E+00 0.14898376E+02</pdfrwt>
<pdfrwt beam="1">  1       -2 0.98437315E+00 0.14898376E+02</pdfrwt>
<totfact> 0.63625565E-13</totfact>
</mgrwt>
</event>
<event>
 4    1  0.5167034E-019  0.1493468E+02  0.7818608E-02  0.1870068E+00
         -2   -1    0    0    0  501 -0.00000000000E+00  0.00000000000E+00  0.11900136832E+03  0.11900136834E+03  0.25500000000E-02 0. -1.
          2   -1    0    0  501    0  0.00000000000E+00 -0.00000000000E+00 -0.46857213622E+00  0.46857907480E+00  0.25500000000E-02 0.  1.
         31    1    1    2    0    0 -0.30326206803E+00  0.25775614425E+00  0.56232811862E+02  0.56725183668E+02  0.74470750000E+01 0.  1.
        -31    1    1    2    0    0  0.30326206803E+00 -0.25775614425E+00  0.62299984318E+02  0.62744763751E+02  0.74470750000E+01 0. -1.
<mgrwt>
<rscale>  0 0.14934677E+02</rscale>
<asrwt>0</asrwt>
<pdfrwt beam="2">  1        2 0.99517656E+00 0.14934677E+02</pdfrwt>
<pdfrwt beam="1">  1       -2 0.98786111E+00 0.14934677E+02</pdfrwt>
<totfact> 0.16043819E-13</totfact>
</mgrwt>
</event>
<event>
 4    1  0.5167034E-019  0.1490333E+02  0.7818608E-02  0.1871033E+00
          2   -1    0    0  501    0  0.00000000000E+00  0.00000000000E+00  0.12035970411E+03  0.12035970414E+03  0.25500000000E-02 0. -1.
         -2   -1    0    0    0  501 -0.00000000000E+00 -0.00000000000E+00 -0.46134142726E+00  0.46134847459E+00  0.25500000000E-02 0.  1.
         31    1    1    2    0    0  0.24616886928E+00 -0.48477377150E-01  0.60548759308E+02  0.61005525397E+02  0.74470750000E+01 0. -1.
        -31    1    1    2    0    0 -0.24616886928E+00  0.48477377150E-01  0.59349603374E+02  0.59815527214E+02  0.74470750000E+01 0. -1.
<mgrwt>
<rscale>  0 0.14903335E+02</rscale>
<asrwt>0</asrwt>
<pdfrwt beam="1">  1        2 0.99903300E+00 0.14903335E+02</pdfrwt>
<pdfrwt beam="2">  1       -2 0.97992187E+00 0.14903335E+02</pdfrwt>
<totfact> 0.42676015E-13</totfact>
</mgrwt>
</event>
<event>
 4    1 -0.5167034E-019  0.1495840E+02  0.7818608E-02  0.1869341E+00
          2   -1    0    0  501    0  0.00000000000E+00  0.00000000000E+00  0.11920280255E+03  0.11920280258E+03  0.25500000000E-02 0. -1.
         -2   -1    0    0    0  501 -0.00000000000E+00 -0.00000000000E+00 -0.46926762528E+00  0.46927455357E+00  0.25500000000E-02 0.  1.
         31    1    1    2    0    0 -0.67978131286E+00 -0.12537607934E+00  0.59695114625E+02  0.60161810627E+02  0.74470750000E+01 0.  1.
        -31    1    1    2    0    0  0.67978131286E+00  0.12537607934E+00  0.59038420300E+02  0.59510266504E+02  0.74470750000E+01 0. -1.
<mgrwt>
<rscale>  0 0.14958400E+02</rscale>
<asrwt>0</asrwt>
<pdfrwt beam="1">  1        2 0.98953246E+00 0.14958400E+02</pdfrwt>
<pdfrwt beam="2">  1       -2 0.99665447E+00 0.14958400E+02</pdfrwt>
<totfact>-0.16023708E-13</totfact>
</mgrwt>
</event>
<event>
 4    1 -0.5167034E-019  0.1499766E+02  0.7818608E-02  0.1868140E+00
          2   -1    0    0  501    0  0.00000000000E+00  0.00000000000E+00  0.11965858962E+03  0.11965858965E+03  0.25500000000E-02 0.  1.
         -2   -1    0    0    0  501 -0.00000000000E+00 -0.00000000000E+00 -0.46993756807E+00  0.46994448649E+00  0.25500000000E-02 0. -1.
         31    1    1    2    0    0  0.13393082441E+00 -0.66943858248E+00  0.55152868506E+02  0.55657559379E+02  0.74470750000E+01 0. -1.
        -31    1    1    2    0    0 -0.13393082441E+00  0.66943858248E+00  0.64035783550E+02  0.64470974759E+02  0.74470750000E+01 0.  1.
<mgrwt>
<rscale>  0 0.14997664E+02</rscale>
<asrwt>0</asrwt>
<pdfrwt beam="1">  1        2 0.99330677E+00 0.14997664E+02</pdfrwt>
<pdfrwt beam="2">  1       -2 0.99808665E+00 0.14997664E+02</pdfrwt>
<totfact>-0.79012399E-14</totfact>
</mgrwt>
</event>
<event>
 4    1  0.5167034E-019  0.1491068E+02  0.7818608E-02  0.1870806E+00
          2   -1    0    0  501    0  0.00000000000E+00  0.00000000000E+00  0.11996957045E+03  0.11996957048E+03  0.25500000000E-02 0.  1.
         -2   -1    0    0    0  501 -0.00000000000E+00 -0.00000000000E+00 -0.46329815536E+00  0.46330517293E+00  0.25500000000E-02 0. -1.
         31    1    1    2    0    0 -0.15986584390E+00 -0.19476377323E+00  0.61726440479E+02  0.62174559671E+02  0.74470750000E+01 0.  1.
        -31    1    1    2    0    0  0.15986584390E+00  0.19476377323E+00  0.57779831815E+02  0.58258315978E+02  0.74470750000E+01 0. -1.
<mgrwt>
<rscale>  0 0.14910681E+02</rscale>
<asrwt>0</asrwt>
<pdfrwt beam="1">  1        2 0.99582328E+00 0.14910681E+02</pdfrwt>
<pdfrwt beam="2">  1       -2 0.98404983E+00 0.14910681E+02</pdfrwt>
<totfact> 0.56546784E-13</totfact>
</mgrwt>
</event>
<event>
 4    1  0.5167034E-019  0.1493067E+02  0.7818608E-02  0.1870191E+00
         -2   -1    0    0    0  501 -0.00000000000E+00  0.00000000000E+00  0.11881409409E+03  0.11881409412E+03  0.25500000000E-02 0.  1.
          2   -1    0    0  501    0  0.00000000000E+00 -0.00000000000E+00 -0.46905911486E+00  0.46906604624E+00  0.25500000000E-02 0. -1.
         31    1    1    2    0    0 -0.21629940202E+00  0.46741412671E+00  0.59843860889E+02  0.60307643575E+02  0.74470750000E+01 0.  1.
        -31    1    1    2    0    0  0.21629940202E+00 -0.46741412671E+00  0.58501174089E+02  0.58975516592E+02  0.74470750000E+01 0. -1.
<mgrwt>
<rscale>  0 0.14930673E+02</rscale>
<asrwt>0</asrwt>
<pdfrwt beam="2">  1        2 0.99620059E+00 0.14930673E+02</pdfrwt>
<pdfrwt beam="1">  1       -2 0.98631663E+00 0.14930673E+02</pdfrwt>
<totfact> 0.27439972E-13</totfact>
</mgrwt>
</event>
<event>
 4    1  0.5167034E-019  0.1494972E+02  0.7818608E-02  0.1869607E+00
         -2   -1    0    0    0  501 -0.00000000000E+00  0.00000000000E+00  0.11905290162E+03  0.11905290165E+03  0.25500000000E-02 0. -1.
          2   -1    0    0  501    0  0.00000000000E+00 -0.00000000000E+00 -0.46931317487E+00  0.46932010249E+00  0.25500000000E-02 0.  1.
         31    1    1    2    0    0 -0.61518403036E+00 -0.10414300833E+00  0.58020429995E+02  0.58499730940E+02  0.74470750000E+01 0. -1.
        -31    1    1    2    0    0  0.61518403036E+00  0.10414300833E+00  0.60563158451E+02  0.61022490811E+02  0.74470750000E+01 0. -1.
<mgrwt>
<rscale>  0 0.14949717E+02</rscale>
<asrwt>0</asrwt>
<pdfrwt beam="2">  1        2 0.99674591E+00 0.14949717E+02</pdfrwt>
<pdfrwt beam="1">  1       -2 0.98829335E+00 0.14949717E+02</pdfrwt>
<totfact> 0.98634505E-14</totfact>
</mgrwt>
</event>
<event>
 4    1 -0.5167034E-019  0.1500318E+02  0.7818608E-02  0.1867971E+00
         -2   -1    0    0    0  501 -0.00000000000E+00  0.00000000000E+00  0.11972640742E+03  0.11972640745E+03  0.25500000000E-02 0. -1.
          2   -1    0    0  501    0  0.00000000000E+00 -0.00000000000E+00 -0.47001689741E+00  0.47002381466E+00  0.25500000000E-02 0.  1.
         31    1    1    2    0    0  0.85699836093E+00  0.25894376414E+00  0.58699848220E+02  0.59177129072E+02  0.74470750000E+01 0. -1.
        -31    1    1    2    0    0 -0.85699836093E+00 -0.25894376414E+00  0.60556542301E+02  0.61019302188E+02  0.74470750000E+01 0. -1.
<mgrwt>
<rscale>  0 0.15003180E+02</rscale>
<asrwt>0</asrwt>
<pdfrwt beam="2">  1        2 0.99825669E+00 0.15003180E+02</pdfrwt>
<pdfrwt beam="1">  1       -2 0.99386819E+00 0.15003180E+02</pdfrwt>
<totfact>-0.56923663E-14</totfact>
</mgrwt>
</event>
<event>
 4    1  0.5167034E-019  0.1491839E+02  0.7818608E-02  0.1870569E+00
          2   -1    0    0  501    0  0.00000000000E+00  0.00000000000E+00  0.11981012391E+03  0.11981012393E+03  0.25500000000E-02 0. -1.
         -2   -1    0    0    0  501 -0.00000000000E+00 -0.00000000000E+00 -0.46439432103E+00  0.46440132204E+00  0.25500000000E-02 0.  1.
         31    1    1    2    0    0 -0.24602830037E+00  0.25887862675E+00  0.61530484561E+02  0.61980537303E+02  0.74470750000E+01 0. -1.
        -31    1    1    2    0    0  0.24602830037E+00 -0.25887862675E+00  0.57815245024E+02  0.58293987951E+02  0.74470750000E+01 0.  1.
<mgrwt>
<rscale>  0 0.14918386E+02</rscale>
<asrwt>0</asrwt>
<pdfrwt beam="1">  1        2 0.99451393E+00 0.14918386E+02</pdfrwt>
<pdfrwt beam="2">  1       -2 0.98636402E+00 0.14918386E+02</pdfrwt>
<totfact> 0.32939967E-13</totfact>
</mgrwt>
</event>
<event>
 4    1 -0.5167034E-019  0.1491577E+02  0.7818608E-02  0.1870650E+00
          2   -1    0    0  501    0  0.00000000000E+00  0.00000000000E+00  0.11817656132E+03  0.11817656135E+03  0.25500000000E-02 0.  1.
         -2   -1    0    0    0  501 -0.00000000000E+00 -0.00000000000E+00 -0.47064846214E+00  0.47065537011E+00  0.25500000000E-02 0. -1.
         31    1    1    2    0    0  0.21998906383E+00  0.13987932243E-01  0.61521106041E+02  0.61970589843E+02  0.74470750000E+01 0.  1.
        -31    1    1    2    0    0 -0.21998906383E+00 -0.13987932243E-01  0.56184806816E+02  0.56676626874E+02  0.74470750000E+01 0. -1.
<mgrwt>
<rscale>  0 0.14915767E+02</rscale>
<asrwt>0</asrwt>
<pdfrwt beam="1">  1        2 0.98105820E+00 0.14915767E+02</pdfrwt>
<pdfrwt beam="2">  1       -2 0.99954145E+00 0.14915767E+02</pdfrwt>
<totfact>-0.10450484E-13</totfact>
</mgrwt>
</event>
<event>
 4    1 -0.5167034E-019  0.1494895E+02  0.7818608E-02  0.1869630E+00
         -2   -1    0    0    0  501 -0.00000000000E+00  0.00000000000E+00  0.12021958110E+03  0.12021958113E+03  0.25500000000E-02 0. -1.
          2   -1    0    0  501    0  0.00000000000E+00 -0.00000000000E+00 -0.46471091440E+00  0.46471791063E+00  0.25500000000E-02 0.  1.
         31    1    1    2    0    0  0.41349550880E-02 -0.48866875662E+00  0.56548470361E+02  0.57038822222E+02  0.74470750000E+01 0.  1.
        -31    1    1    2    0    0 -0.41349550880E-02  0.48866875662E+00  0.63206399828E+02  0.63645476819E+02  0.74470750000E+01 0. -1.
<mgrwt>
<rscale>  0 0.14948950E+02</rscale>
<asrwt>0</asrwt>
<pdfrwt beam="2">  1        2 0.98704684E+00 0.14948950E+02</pdfrwt>
<pdfrwt beam="1">  1       -2 0.99790222E+00 0.14948950E+02</pdfrwt>
<totfact>-0.15670353E-13</totfact>
</mgrwt>
</event>
<event>
 4    1 -0.5167034E-019  0.1498577E+02  0.7818608E-02  0.1868503E+00
          2   -1    0    0  501    0  0.00000000000E+00  0.00000000000E+00  0.12033916963E+03  0.12033916966E+03  0.25500000000E-02 0. -1.
         -2   -1    0    0    0  501 -0.00000000000E+00 -0.00000000000E+00 -0.46653879802E+00  0.46654576684E+00  0.25500000000E-02 0.  1.
         31    1    1    2    0    0  0.73656766766E+00 -0.29078508756E+00  0.58006630386E+02  0.58488077270E+02  0.74470750000E+01 0. -1.
        -31    1    1    2    0    0 -0.73656766766E+00  0.29078508756E+00  0.61866000450E+02  0.62317638159E+02  0.74470750000E+01 0. -1.
<mgrwt>
<rscale>  0 0.14985768E+02</rscale>
<asrwt>0</asrwt>
<pdfrwt beam="1">  1        2 0.99890618E+00 0.14985768E+02</pdfrwt>
<pdfrwt beam="2">  1       -2 0.99091801E+00 0.14985768E+02</pdfrwt>
<totfact>-0.12660195E-14</totfact>
</mgrwt>
</event>
<event>
 4    1  0.5167034E-019  0.1490796E+02  0.7818608E-02  0.1870890E+00
         -2   -1    0    0    0  501 -0.00000000000E+00  0.00000000000E+00  0.11881031150E+03  0.11881031153E+03  0.25500000000E-02 0.  1.
          2   -1    0    0  501    0  0.00000000000E+00 -0.00000000000E+00 -0.46764812267E+00  0.46765507496E+00  0.25500000000E-02 0. -1.
         31    1    1    2    0    0 -0.21523119341E+00 -0.14389489726E+00  0.60686855802E+02  0.61142623622E+02  0.74470750000E+01 0.  1.
        -31    1    1    2    0    0  0.21523119341E+00  0.14389489726E+00  0.57655807577E+02  0.58135342982E+02  0.74470750000E+01 0. -1.
<mgrwt>
<rscale>  0 0.14907962E+02</rscale>
<asrwt>0</asrwt>
<pdfrwt beam="2">  1        2 0.99321556E+00 0.14907962E+02</pdfrwt>
<pdfrwt beam="1">  1       -2 0.98627368E+00 0.14907962E+02</pdfrwt>
<totfact> 0.37736503E-13</totfact>
</mgrwt>
</event>
<event>
 4    1 -0.5167034E-019  0.1497924E+02  0.7818608E-02  0.1868703E+00
         -2   -1    0    0    0  501 -0.00000000000E+00  0.00000000000E+00  0.11967816084E+03  0.11967816086E+03  0.25500000000E-02 0. -1.
          2   -1    0    0  501    0  0.00000000000E+00 -0.00000000000E+00 -0.46870702634E+00  0.46871396293E+00  0.25500000000E-02 0.  1.
         31    1    1    2    0    0  0.62539155732E+00 -0.83406696925E-01  0.63512933991E+02  0.63951151526E+02  0.74470750000E+01 0. -1.
        -31    1    1    2    0    0 -0.62539155732E+00  0.83406696925E-01  0.55696519820E+02  0.56195723302E+02  0.74470750000E+01 0.  1.
<mgrwt>
<rscale>  0 0.14979241E+02</rscale>
<asrwt>0</asrwt>
<pdfrwt beam="2">  1        2 0.99548401E+00 0.14979241E+02</pdfrwt>
<pdfrwt beam="1">  1       -2 0.99345842E+00 0.14979241E+02</pdfrwt>
<totfact>-0.10509949E-13</totfact>
</mgrwt>
</event>
<event>
 4    1 -0.5167034E-019  0.1496020E+02  0.7818608E-02  0.1869285E+00
          2   -1    0    0  501    0  0.00000000000E+00  0.00000000000E+00  0.11966559553E+03  0.11966559556E+03  0.25500000000E-02 0. -1.
         -2   -1    0    0    0  501 -0.00000000000E+00 -0.00000000000E+00 -0.46756518580E+00  0.46757213932E+00  0.25500000000E-02 0.  1.
         31    1    1    2    0    0  0.34914298876E+00  0.59007933554E+00  0.58384751047E+02  0.58861771765E+02  0.74470750000E+01 0. -1.
        -31    1    1    2    0    0 -0.34914298876E+00 -0.59007933554E+00  0.60813279297E+02  0.61271395931E+02  0.74470750000E+01 0. -1.
<mgrwt>
<rscale>  0 0.14960199E+02</rscale>
<asrwt>0</asrwt>
<pdfrwt beam="1">  1        2 0.99334508E+00 0.14960199E+02</pdfrwt>
<pdfrwt beam="2">  1       -2 0.99306793E+00 0.14960199E+02</pdfrwt>
<totfact>-0.12061679E-13</totfact>
</mgrwt>
</event>
<event>
 4    1  0.5167034E-019  0.1490902E+02  0.7818608E-02  0.1870858E+00
         -2   -1    0    0    0  501 -0.00000000000E+00  0.00000000000E+00  0.11857962941E+03  0.11857962944E+03  0.25500000000E-02 0. -1.
          2   -1    0    0  501    0  0.00000000000E+00 -0.00000000000E+00 -0.46862428351E+00  0.46863122132E+00  0.25500000000E-02 0.  1.
         31    1    1    2    0    0 -0.28077519541E+00 -0.16468177626E+00  0.58500697488E+02  0.58973693181E+02  0.74470750000E+01 0. -1.
        -31    1    1    2    0    0  0.28077519541E+00  0.16468177626E+00  0.59610307640E+02  0.60074567479E+02  0.74470750000E+01 0.  1.
<mgrwt>
<rscale>  0 0.14909019E+02</rscale>
<asrwt>0</asrwt>
<pdfrwt beam="2">  1        2 0.99527300E+00 0.14909019E+02</pdfrwt>
<pdfrwt beam="1">  1       -2 0.98437431E+00 0.14909019E+02</pdfrwt>
<totfact> 0.55752444E-13</totfact>
</mgrwt>
</event>
<event>
 4    1 -0.5167034E-019  0.1497028E+02  0.7818608E-02  0.1868977E+00
          2   -1    0    0  501    0  0.00000000000E+00  0.00000000000E+00  0.11968118510E+03  0.11968118513E+03  0.25500000000E-02 0. -1.
         -2   -1    0    0    0  501 -0.00000000000E+00 -0.00000000000E+00 -0.46813459842E+00  0.46814154349E+00  0.25500000000E-02 0.  1.
         31    1    1    2    0    0 -0.38199039066E+00 -0.20194629404E+00  0.54648017574E+02  0.55154795347E+02  0.74470750000E+01 0.  1.
        -31    1    1    2    0    0  0.38199039066E+00  0.20194629404E+00  0.64565032926E+02  0.64994531322E+02  0.74470750000E+01 0. -1.
<mgrwt>
<rscale>  0 0.14970280E+02</rscale>
<asrwt>0</asrwt>
<pdfrwt beam="1">  1        2 0.99347870E+00 0.14970280E+02</pdfrwt>
<pdfrwt beam="2">  1       -2 0.99427309E+00 0.14970280E+02</pdfrwt>
<totfact>-0.13503887E-13</totfact>
</mgrwt>
</event>
<event>
 4    1 -0.5167034E-019  0.1493884E+02  0.7818608E-02  0.1869941E+00
          2   -1    0    0  501    0  0.00000000000E+00  0.00000000000E+00  0.11916365310E+03  0.11916365313E+03  0.25500000000E-02 0. -1.
         -2   -1    0    0    0  501 -0.00000000000E+00 -0.00000000000E+00 -0.46819506398E+00  0.46820200815E+00  0.25500000000E-02 0.  1.
         31    1    1    2    0    0  0.34331535172E+00  0.39569233953E+00  0.61291032532E+02  0.61744020218E+02  0.74470750000E+01 0. -1.
        -31    1    1    2    0    0 -0.34331535172E+00 -0.39569233953E+00  0.57404425505E+02  0.57887834917E+02  0.74470750000E+01 0.  1.
<mgrwt>
<rscale>  0 0.14938842E+02</rscale>
<asrwt>0</asrwt>
<pdfrwt beam="1">  1        2 0.98919988E+00 0.14938842E+02</pdfrwt>
<pdfrwt beam="2">  1       -2 0.99438418E+00 0.14938842E+02</pdfrwt>
<totfact>-0.19314082E-13</totfact>
</mgrwt>
</event>
<event>
 4    1 -0.5167034E-019  0.1490537E+02  0.7818608E-02  0.1870970E+00
         -2   -1    0    0    0  501 -0.00000000000E+00  0.00000000000E+00  0.11933767821E+03  0.11933767824E+03  0.25500000000E-02 0. -1.
          2   -1    0    0  501    0  0.00000000000E+00 -0.00000000000E+00 -0.46541957454E+00  0.46542656012E+00  0.25500000000E-02 0.  1.
         31    1    1    2    0    0  0.15901721619E+00 -0.83547288196E-01  0.57615323455E+02  0.58094893833E+02  0.74470750000E+01 0.  1.
        -31    1    1    2    0    0 -0.15901721619E+00  0.83547288196E-01  0.61256935180E+02  0.61708210964E+02  0.74470750000E+01 0. -1.
<mgrwt>
<rscale>  0 0.14905370E+02</rscale>
<asrwt>0</asrwt>
<pdfrwt beam="2">  1        2 0.98851804E+00 0.14905370E+02</pdfrwt>
<pdfrwt beam="1">  1       -2 0.99061589E+00 0.14905370E+02</pdfrwt>
<totfact>-0.42390794E-14</totfact>
</mgrwt>
</event>
<event>
 4    1 -0.5167034E-019  0.1498559E+02  0.7818608E-02  0.1868509E+00
          2   -1    0    0  501    0  0.00000000000E+00  0.00000000000E+00  0.11931694808E+03  0.11931694811E+03  0.25500000000E-02 0. -1.
         -2   -1    0    0    0  501 -0.00000000000E+00 -0.00000000000E+00 -0.47052430660E+00  0.47053121640E+00  0.25500000000E-02 0.  1.
         31    1    1    2    0    0  0.53493143629E+00 -0.62700306159E+00  0.59911353867E+02  0.60378046778E+02  0.74470750000E+01 0. -1.
        -31    1    1    2    0    0 -0.53493143629E+00  0.62700306159E+00  0.58935069906E+02  0.59409432546E+02  0.74470750000E+01 0. -1.
<mgrwt>
<rscale>  0 0.14985585E+02</rscale>
<asrwt>0</asrwt>
<pdfrwt beam="1">  1        2 0.99048669E+00 0.14985585E+02</pdfrwt>
<pdfrwt beam="2">  1       -2 0.99931670E+00 0.14985585E+02</pdfrwt>
<totfact>-0.38927102E-14</totfact>
</mgrwt>
</event>
<event>
 4    1  0.5167034E-019  0.1492274E+02  0.7818608E-02  0.1870435E+00
          2   -1    0    0  501    0  0.00000000000E+00  0.00000000000E+00  0.11981205332E+03  0.11981205335E+03  0.25500000000E-02 0.  1.
         -2   -1    0    0    0  501 -0.00000000000E+00 -0.00000000000E+00 -0.46465785207E+00  0.46466484910E+00  0.25500000000E-02 0. -1.
         31    1    1    2    0    0  0.32081045279E+00  0.59564372461E-01  0.57041648414E+02  0.57526646409E+02  0.74470750000E+01 0. -1.
        -31    1    1    2    0    0 -0.32081045279E+00 -0.59564372461E-01  0.62305747057E+02  0.62750071790E+02  0.74470750000E+01 0.  1.
<mgrwt>
<rscale>  0 0.14922739E+02</rscale>
<asrwt>0</asrwt>
<pdfrwt beam="1">  1        2 0.99453206E+00 0.14922739E+02</pdfrwt>
<pdfrwt beam="2">  1       -2 0.98692165E+00 0.14922739E+02</pdfrwt>
<totfact> 0.26557822E-13</totfact>
</mgrwt>
</event>
<event>
 4    1  0.5167034E-019  0.1493275E+02  0.7818608E-02  0.1870128E+00
          2   -1    0    0  501    0  0.00000000000E+00  0.00000000000E+00  0.11980318059E+03  0.11980318062E+03  0.25500000000E-02 0.  1.
         -2   -1    0    0    0  501 -0.00000000000E+00 -0.00000000000E+00 -0.46531569980E+00  0.46532268694E+00  0.25500000000E-02 0. -1.
         31    1    1    2    0    0 -0.49765234643E+00 -0.19926133253E+00  0.59836645904E+02  0.60300667343E+02  0.74470750000E+01 0. -1.
        -31    1    1    2    0    0  0.49765234643E+00  0.19926133253E+00  0.59501218990E+02  0.59967835964E+02  0.74470750000E+01 0. -1.
<mgrwt>
<rscale>  0 0.14932746E+02</rscale>
<asrwt>0</asrwt>
<pdfrwt beam="1">  1        2 0.99446413E+00 0.14932746E+02</pdfrwt>
<pdfrwt beam="2">  1       -2 0.98831319E+00 0.14932746E+02</pdfrwt>
<totfact> 0.13154938E-13</totfact>
</mgrwt>
</event>
<event>
 4    1 -0.5167034E-019  0.1490629E+02  0.7818608E-02  0.1870942E+00
         -2   -1    0    0    0  501 -0.00000000000E+00  0.00000000000E+00  0.12009577426E+03  0.12009577429E+03  0.25500000000E-02 0.  1.
          2   -1    0    0  501    0  0.00000000000E+00 -0.00000000000E+00 -0.46253894394E+00  0.46254597302E+00  0.25500000000E-02 0. -1.
         31    1    1    2    0    0 -0.17973364976E+00  0.19368521345E+00  0.58654294743E+02  0.59125756113E+02  0.74470750000E+01 0.  1.
        -31    1    1    2    0    0  0.17973364976E+00 -0.19368521345E+00  0.60978940572E+02  0.61432564145E+02  0.74470750000E+01 0.  1.
<mgrwt>
<rscale>  0 0.14906294E+02</rscale>
<asrwt>0</asrwt>
<pdfrwt beam="2">  1        2 0.98244744E+00 0.14906294E+02</pdfrwt>
<pdfrwt beam="1">  1       -2 0.99686054E+00 0.14906294E+02</pdfrwt>
<totfact>-0.43831902E-13</totfact>
</mgrwt>
</event>
<event>
 4    1 -0.5167034E-019  0.1498185E+02  0.7818608E-02  0.1868623E+00
         -2   -1    0    0    0  501 -0.00000000000E+00  0.00000000000E+00  0.12042017369E+03  0.12042017372E+03  0.25500000000E-02 0. -1.
          2   -1    0    0  501    0  0.00000000000E+00 -0.00000000000E+00 -0.46598115845E+00  0.46598813561E+00  0.25500000000E-02 0.  1.
         31    1    1    2    0    0  0.55144898942E+00  0.83672753386E-01  0.55245065260E+02  0.55747531414E+02  0.74470750000E+01 0.  1.
        -31    1    1    2    0    0 -0.55144898942E+00 -0.83672753386E-01  0.64709127272E+02  0.65138630439E+02  0.74470750000E+01 0. -1.
<mgrwt>
<rscale>  0 0.14981850E+02</rscale>
<asrwt>0</asrwt>
<pdfrwt beam="2">  1        2 0.98974075E+00 0.14981850E+02</pdfrwt>
<pdfrwt beam="1">  1       -2 0.99957137E+00 0.14981850E+02</pdfrwt>
<totfact>-0.26703842E-14</totfact>
</mgrwt>
</event>
<event>
 4    1 -0.5167034E-019  0.1493547E+02  0.7818608E-02  0.1870044E+00
          2   -1    0    0  501    0  0.00000000000E+00  0.00000000000E+00  0.11874407491E+03  0.11874407493E+03  0.25500000000E-02 0.  1.
         -2   -1    0    0    0  501 -0.00000000000E+00 -0.00000000000E+00 -0.46963735395E+00  0.46964427679E+00  0.25500000000E-02 0. -1.
         31    1    1    2    0    0  0.25237736885E+00  0.43943314241E+00  0.60945886116E+02  0.61401276504E+02  0.74470750000E+01 0. -1.
        -31    1    1    2    0    0 -0.25237736885E+00 -0.43943314241E+00  0.57328551438E+02  0.57812442708E+02  0.74470750000E+01 0.  1.
<mgrwt>
<rscale>  0 0.14935470E+02</rscale>
<asrwt>0</asrwt>
<pdfrwt beam="1">  1        2 0.98574244E+00 0.14935470E+02</pdfrwt>
<pdfrwt beam="2">  1       -2 0.99742150E+00 0.14935470E+02</pdfrwt>
<totfact>-0.22264894E-13</totfact>
</mgrwt>
</event>
<event>
 4    1  0.5167034E-019  0.1491403E+02  0.7818608E-02  0.1870703E+00
          2   -1    0    0  501    0  0.00000000000E+00  0.00000000000E+00  0.12026411735E+03  0.12026411738E+03  0.25500000000E-02 0. -1.
         -2   -1    0    0    0  501 -0.00000000000E+00 -0.00000000000E+00 -0.46237082418E+00  0.46237785582E+00  0.25500000000E-02 0.  1.
         31    1    1    2    0    0  0.19753403857E+00  0.32707289406E+00  0.59527921050E+02  0.59993152167E+02  0.74470750000E+01 0.  1.
        -31    1    1    2    0    0 -0.19753403857E+00 -0.32707289406E+00  0.60273825474E+02  0.60733343064E+02  0.74470750000E+01 0. -1.
<mgrwt>
<rscale>  0 0.14914026E+02</rscale>
<asrwt>0</asrwt>
<pdfrwt beam="1">  1        2 0.99825113E+00 0.14914026E+02</pdfrwt>
<pdfrwt beam="2">  1       -2 0.98209700E+00 0.14914026E+02</pdfrwt>
<totfact> 0.47533857E-13</totfact>
</mgrwt>
</event>
<event>
 4    1 -0.5167034E-019  0.1493234E+02  0.7818608E-02  0.1870140E+00
         -2   -1    0    0    0  501 -0.00000000000E+00  0.00000000000E+00  0.12033179420E+03  0.12033179422E+03  0.25500000000E-02 0. -1.
          2   -1    0    0  501    0  0.00000000000E+00 -0.00000000000E+00 -0.46324633169E+00  0.46325335004E+00  0.25500000000E-02 0.  1.
         31    1    1    2    0    0  0.41335520441E-01 -0.38289566190E+00  0.62922397194E+02  0.63362728101E+02  0.74470750000E+01 0. -1.
        -31    1    1    2    0    0 -0.41335520441E-01  0.38289566190E+00  0.56946150670E+02  0.57432319472E+02  0.74470750000E+01 0.  1.
<mgrwt>
<rscale>  0 0.14932339E+02</rscale>
<asrwt>0</asrwt>
<pdfrwt beam="2">  1        2 0.98395157E+00 0.14932339E+02</pdfrwt>
<pdfrwt beam="1">  1       -2 0.99881797E+00 0.14932339E+02</pdfrwt>
<totfact>-0.15613654E-13</totfact>
</mgrwt>
</event>
<event>
 4    1 -0.5167034E-019  0.1492915E+02  0.7818608E-02  0.1870238E+00
          2   -1    0    0  501    0  0.00000000000E+00  0.00000000000E+00  0.11888456384E+03  0.11888456386E+03  0.25500000000E-02 0.  1.
         -2   -1    0    0    0  501 -0.00000000000E+00 -0.00000000000E+00 -0.46868531330E+00  0.46869225020E+00  0.25500000000E-02 0. -1.
         31    1    1    2    0    0  0.24904646728E+00  0.17868829974E+00  0.55941023720E+02  0.56435370244E+02  0.74470750000E+01 0. -1.
        -31    1    1    2    0    0 -0.24904646728E+00 -0.17868829974E+00  0.62474854802E+02  0.62917885869E+02  0.74470750000E+01 0. -1.
<mgrwt>
<rscale>  0 0.14929148E+02</rscale>
<asrwt>0</asrwt>
<pdfrwt beam="1">  1        2 0.98689623E+00 0.14929148E+02</pdfrwt>
<pdfrwt beam="2">  1       -2 0.99541215E+00 0.14929148E+02</pdfrwt>
<totfact>-0.25523823E-13</totfact>
</mgrwt>
</event>
<event>
 4    1  0.5167034E-019  0.1492271E+02  0.7818608E-02  0.1870436E+00
         -2   -1    0    0    0  501 -0.00000000000E+00  0.00000000000E+00  0.11871179537E+03  0.11871179540E+03  0.25500000000E-02 0. -1.
          2   -1    0    0  501    0  0.00000000000E+00 -0.00000000000E+00 -0.46896299976E+00  0.46896993256E+00  0.25500000000E-02 0.  1.
         31    1    1    2    0    0 -0.16815366970E+00  0.44217797225E-01  0.62535110525E+02  0.62977211794E+02  0.74470750000E+01 0. -1.
        -31    1    1    2    0    0  0.16815366970E+00 -0.44217797225E-01  0.55707721848E+02  0.56203553539E+02  0.74470750000E+01 0.  1.
<mgrwt>
<rscale>  0 0.14922715E+02</rscale>
<asrwt>0</asrwt>
<pdfrwt beam="2">  1        2 0.99599389E+00 0.14922715E+02</pdfrwt>
<pdfrwt beam="1">  1       -2 0.98546995E+00 0.14922715E+02</pdfrwt>
<totfact> 0.37405145E-13</totfact>
</mgrwt>
</event>
<event>
 4    1  0.5167034E-019  0.1495236E+02  0.7818608E-02  0.1869526E+00
          2   -1    0    0  501    0  0.00000000000E+00  0.00000000000E+00  0.12028669196E+03  0.12028669199E+03  0.25500000000E-02 0.  1.
         -2   -1    0    0    0  501 -0.00000000000E+00 -0.00000000000E+00 -0.46466358079E+00  0.46467057774E+00  0.25500000000E-02 0. -1.
         31    1    1    2    0    0  0.10214148897E-01  0.44414483728E+00  0.63842282616E+02  0.64276693634E+02  0.74470750000E+01 0.  1.
        -31    1    1    2    0    0 -0.10214148897E-01 -0.44414483728E+00  0.55979745767E+02  0.56474668933E+02  0.74470750000E+01 0. -1.
<mgrwt>
<rscale>  0 0.14952360E+02</rscale>
<asrwt>0</asrwt>
<pdfrwt beam="1">  1        2 0.99845675E+00 0.14952360E+02</pdfrwt>
<pdfrwt beam="2">  1       -2 0.98694881E+00 0.14952360E+02</pdfrwt>
<totfact> 0.11191252E-13</totfact>
</mgrwt>
</event>
<event>
 4    1  0.5167034E-019  0.1493877E+02  0.7818608E-02  0.1869943E+00
         -2   -1    0    0    0  501 -0.00000000000E+00  0.00000000000E+00  0.11883599614E+03  0.11883599616E+03  0.25500000000E-02 0. -1.
          2   -1    0    0  501    0  0.00000000000E+00 -0.00000000000E+00 -0.46948143213E+00  0.46948835728E+00  0.25500000000E-02 0.  1.
         31    1    1    2    0    0 -0.39220173519E+00 -0.24040417584E-01  0.62556296115E+02  0.62999234200E+02  0.74470750000E+01 0. -1.
        -31    1    1    2    0    0  0.39220173519E+00  0.24040417584E-01  0.55810218590E+02  0.56306250321E+02  0.74470750000E+01 0. -1.
<mgrwt>
<rscale>  0 0.14938769E+02</rscale>
<asrwt>0</asrwt>
<pdfrwt beam="2">  1        2 0.99709470E+00 0.14938769E+02</pdfrwt>
<pdfrwt beam="1">  1       -2 0.98650122E+00 0.14938769E+02</pdfrwt>
<totfact> 0.21595480E-13</totfact>
</mgrwt>
</event>
<event>
 4    1  0.5167034E-019  0.1493770E+02  0.7818608E-02  0.1869976E+00
          2   -1    0    0  501    0  0.00000000000E+00  0.00000000000E+00  0.12041615928E+03  0.12041615931E+03  0.25500000000E-02 0. -1.
         -2   -1    0    0    0  501 -0.00000000000E+00 -0.00000000000E+00 -0.46325415779E+00  0.46326117603E+00  0.25500000000E-02 0.  1.
         31    1    1    2    0    0 -0.54302653919E-01 -0.55493105364E+00  0.59022770807E+02  0.59493338258E+02  0.74470750000E+01 0.  1.
        -31    1    1    2    0    0  0.54302653919E-01  0.55493105364E+00  0.60930134317E+02  0.61386082227E+02  0.74470750000E+01 0. -1.
<mgrwt>
<rscale>  0 0.14937699E+02</rscale>
<asrwt>0</asrwt>
<pdfrwt beam="1">  1        2 0.99951562E+00 0.14937699E+02</pdfrwt>
<pdfrwt beam="2">  1       -2 0.98397078E+00 0.14937699E+02</pdfrwt>
<totfact> 0.10000983E-13</totfact>
</mgrwt>
</event>
<event>
 4    1 -0.5167034E-019  0.1493246E+02  0.7818608E-02  0.1870136E+00
         -2   -1    0    0    0  501 -0.00000000000E+00  0.00000000000E+00  0.11969502010E+03  0.11969502012E+03  0.25500000000E-02 0.  1.
          2   -1    0    0  501    0  0.00000000000E+00 -0.00000000000E+00 -0.46571844110E+00  0.46572542220E+00  0.25500000000E-02 0. -1.
         31    1    1    2    0    0  0.52891543722E+00 -0.70788789154E-01  0.59371827854E+02  0.59839432078E+02  0.74470750000E+01 0. -1.
        -31    1    1    2    0    0 -0.52891543722E+00  0.70788789154E-01  0.59857473800E+02  0.60321313467E+02  0.74470750000E+01 0. -1.
<mgrwt>
<rscale>  0 0.14932461E+02</rscale>
<asrwt>0</asrwt>
<pdfrwt beam="2">  1        2 0.98916181E+00 0.14932461E+02</pdfrwt>
<pdfrwt beam="1">  1       -2 0.99357312E+00 0.14932461E+02</pdfrwt>
<totfact>-0.18337372E-13</totfact>
</mgrwt>
</event>
<event>
 4    1  0.5167034E-019  0.1493112E+02  0.7818608E-02  0.1870178E+00
          2   -1    0    0  501    0  0.00000000000E+00  0.00000000000E+00  0.12035175363E+03  0.12035175366E+03  0.25500000000E-02 0. -1.
         -2   -1    0    0    0  501 -0.00000000000E+00 -0.00000000000E+00 -0.46309400925E+00  0.46310102991E+00  0.25500000000E-02 0.  1.
         31    1    1    2    0    0  0.41606479597E+00  0.31020417377E+00  0.60588568115E+02  0.61046726766E+02  0.74470750000E+01 0.  1.
        -31    1    1    2    0    0 -0.41606479597E+00 -0.31020417377E+00  0.59300091507E+02  0.59768127923E+02  0.74470750000E+01 0. -1.
<mgrwt>
<rscale>  0 0.14931122E+02</rscale>
<asrwt>0</asrwt>
<pdfrwt beam="1">  1        2 0.99898175E+00 0.14931122E+02</pdfrwt>
<pdfrwt beam="2">  1       -2 0.98362991E+00 0.14931122E+02</pdfrwt>
<totfact> 0.21512437E-13</totfact>
</mgrwt>
</event>
<event>
 4    1  0.5167034E-019  0.1489618E+02  0.7818608E-02  0.1871253E+00
         -2   -1    0    0    0  501 -0.00000000000E+00  0.00000000000E+00  0.11794661916E+03  0.11794661918E+03  0.25500000000E-02 0.  1.
          2   -1    0    0  501    0  0.00000000000E+00 -0.00000000000E+00 -0.47032843909E+00  0.47033535176E+00  0.25500000000E-02 0. -1.
         31    1    1    2    0    0 -0.37274142470E-01  0.11410444806E+00  0.58952186095E+02  0.59420817738E+02  0.74470750000E+01 0.  1.
        -31    1    1    2    0    0  0.37274142470E-01 -0.11410444806E+00  0.58524104621E+02  0.58996136797E+02  0.74470750000E+01 0.  1.
<mgrwt>
<rscale>  0 0.14896182E+02</rscale>
<asrwt>0</asrwt>
<pdfrwt beam="2">  1        2 0.99885678E+00 0.14896182E+02</pdfrwt>
<pdfrwt beam="1">  1       -2 0.97915423E+00 0.14896182E+02</pdfrwt>
<totfact> 0.56070822E-13</totfact>
</mgrwt>
</event>
<event>
 4    1 -0.5167034E-019  0.1489563E+02  0.7818608E-02  0.1871270E+00
          2   -1    0    0  501    0  0.00000000000E+00  0.00000000000E+00  0.11820584148E+03  0.11820584151E+03  0.25500000000E-02 0. -1.
         -2   -1    0    0    0  501 -0.00000000000E+00 -0.00000000000E+00 -0.46926213019E+00  0.46926905857E+00  0.25500000000E-02 0.  1.
         31    1    1    2    0    0  0.36393648583E-02  0.26824500089E-01  0.58060546346E+02  0.58536199918E+02  0.74470750000E+01 0.  1.
        -31    1    1    2    0    0 -0.36393648583E-02 -0.26824500089E-01  0.59676033004E+02  0.60138910648E+02  0.74470750000E+01 0. -1.
<mgrwt>
<rscale>  0 0.14895629E+02</rscale>
<asrwt>0</asrwt>
<pdfrwt beam="1">  1        2 0.98128885E+00 0.14895629E+02</pdfrwt>
<pdfrwt beam="2">  1       -2 0.99660989E+00 0.14895629E+02</pdfrwt>
<totfact>-0.55790045E-13</totfact>
</mgrwt>
</event>
<event>
 4    1 -0.5167034E-019  0.1494180E+02  0.7818608E-02  0.1869850E+00
         -2   -1    0    0    0  501 -0.00000000000E+00  0.00000000000E+00  0.11933377651E+03  0.11933377654E+03  0.25500000000E-02 0.  1.
          2   -1    0    0  501    0  0.00000000000E+00 -0.00000000000E+00 -0.46771248465E+00  0.46771943599E+00  0.25500000000E-02 0. -1.
         31    1    1    2    0    0 -0.45620937406E+00 -0.37453754917E+00  0.60103075018E+02  0.60565559174E+02  0.74470750000E+01 0. -1.
        -31    1    1    2    0    0  0.45620937406E+00  0.37453754917E+00  0.58762989011E+02  0.59235936803E+02  0.74470750000E+01 0.  1.
<mgrwt>
<rscale>  0 0.14941796E+02</rscale>
<asrwt>0</asrwt>
<pdfrwt beam="2">  1        2 0.99336880E+00 0.14941796E+02</pdfrwt>
<pdfrwt beam="1">  1       -2 0.99060259E+00 0.14941796E+02</pdfrwt>
<totfact>-0.26969897E-14</totfact>
</mgrwt>
</event>
<event>
 4    1 -0.5167034E-019  0.1491971E+02  0.7818608E-02  0.1870528E+00
          2   -1    0    0  501    0  0.00000000000E+00  0.00000000000E+00  0.11897903806E+03  0.11897903809E+03  0.25500000000E-02 0.  1.
         -2   -1    0    0    0  501 -0.00000000000E+00 -0.00000000000E+00 -0.46772145402E+00  0.46772840522E+00  0.25500000000E-02 0. -1.
         31    1    1    2    0    0  0.31080728991E-01 -0.43385962894E+00  0.59548639107E+02  0.60014069565E+02  0.74470750000E+01 0.  1.
        -31    1    1    2    0    0 -0.31080728991E-01  0.43385962894E+00  0.58962677499E+02  0.59432696928E+02  0.74470750000E+01 0.  1.
<mgrwt>
<rscale>  0 0.14919714E+02</rscale>
<asrwt>0</asrwt>
<pdfrwt beam="1">  1        2 0.98766944E+00 0.14919714E+02</pdfrwt>
<pdfrwt beam="2">  1       -2 0.99337621E+00 0.14919714E+02</pdfrwt>
<totfact>-0.21451878E-13</totfact>
</mgrwt>
</event>
<event>
 4    1 -0.5167034E-019  0.1493675E+02  0.7818608E-02  0.1870005E+00
          2   -1    0    0  501    0  0.00000000000E+00  0.00000000000E+00  0.11882197199E+03  0.11882197202E+03  0.25500000000E-02 0.  1.
         -2   -1    0    0    0  501 -0.00000000000E+00 -0.00000000000E+00 -0.46940959387E+00  0.46941652007E+00  0.25500000000E-02 0. -1.
         31    1    1    2    0    0 -0.96028081110E-01 -0.29985952515E-01  0.54747286378E+02  0.55251555746E+02  0.74470750000E+01 0. -1.
        -31    1    1    2    0    0  0.96028081110E-01  0.29985952515E-01  0.63605276018E+02  0.64039832791E+02  0.74470750000E+01 0.  1.
<mgrwt>
<rscale>  0 0.14936745E+02</rscale>
<asrwt>0</asrwt>
<pdfrwt beam="1">  1        2 0.98638466E+00 0.14936745E+02</pdfrwt>
<pdfrwt beam="2">  1       -2 0.99694227E+00 0.14936745E+02</pdfrwt>
<totfact>-0.22666752E-13</totfact>
</mgrwt>
</event>
<event>
 4    1 -0.5167034E-019  0.1491806E+02  0.7818608E-02  0.1870579E+00
         -2   -1    0    0    0  501 -0.00000000000E+00  0.00000000000E+00  0.11988491026E+03  0.11988491029E+03  0.25500000000E-02 0.  1.
          2   -1    0    0  501    0  0.00000000000E+00 -0.00000000000E+00 -0.46408407641E+00  0.46409108209E+00  0.25500000000E-02 0. -1.
         31    1    1    2    0    0  0.40625288734E+00 -0.16691706672E-01  0.60625086010E+02  0.61082119313E+02  0.74470750000E+01 0. -1.
        -31    1    1    2    0    0 -0.40625288734E+00  0.16691706672E-01  0.58795740176E+02  0.59266882058E+02  0.74470750000E+01 0. -1.
<mgrwt>
<rscale>  0 0.14918056E+02</rscale>
<asrwt>0</asrwt>
<pdfrwt beam="2">  1        2 0.98570999E+00 0.14918056E+02</pdfrwt>
<pdfrwt beam="1">  1       -2 0.99512975E+00 0.14918056E+02</pdfrwt>
<totfact>-0.30891127E-13</totfact>
</mgrwt>
</event>
<event>
 4    1  0.5167034E-019  0.1491782E+02  0.7818608E-02  0.1870587E+00
         -2   -1    0    0    0  501 -0.00000000000E+00  0.00000000000E+00  0.11844081253E+03  0.11844081256E+03  0.25500000000E-02 0.  1.
          2   -1    0    0  501    0  0.00000000000E+00 -0.00000000000E+00 -0.46972789539E+00  0.46973481690E+00  0.25500000000E-02 0. -1.
         31    1    1    2    0    0  0.14983758070E+00  0.15244945564E+00  0.56103280983E+02  0.56595783900E+02  0.74470750000E+01 0. -1.
        -31    1    1    2    0    0 -0.14983758070E+00 -0.15244945564E+00  0.61867803649E+02  0.62314763472E+02  0.74470750000E+01 0.  1.
<mgrwt>
<rscale>  0 0.14917824E+02</rscale>
<asrwt>0</asrwt>
<pdfrwt beam="2">  1        2 0.99760297E+00 0.14917824E+02</pdfrwt>
<pdfrwt beam="1">  1       -2 0.98323560E+00 0.14917824E+02</pdfrwt>
<totfact> 0.47611791E-13</totfact>
</mgrwt>
</event>
<event>
 4    1 -0.5167034E-019  0.1496672E+02  0.7818608E-02  0.1869086E+00
          2   -1    0    0  501    0  0.00000000000E+00  0.00000000000E+00  0.11994578960E+03  0.11994578963E+03  0.25500000000E-02 0.  1.
         -2   -1    0    0    0  501 -0.00000000000E+00 -0.00000000000E+00 -0.46687980436E+00  0.46688676809E+00  0.25500000000E-02 0. -1.
         31    1    1    2    0    0  0.71198768104E+00  0.18557070079E+00  0.59578814315E+02  0.60046943337E+02  0.74470750000E+01 0. -1.
        -31    1    1    2    0    0 -0.71198768104E+00 -0.18557070079E+00  0.59900095480E+02  0.60365733057E+02  0.74470750000E+01 0.  1.
<mgrwt>
<rscale>  0 0.14966721E+02</rscale>
<asrwt>0</asrwt>
<pdfrwt beam="1">  1        2 0.99565626E+00 0.14966721E+02</pdfrwt>
<pdfrwt beam="2">  1       -2 0.99162692E+00 0.14966721E+02</pdfrwt>
<totfact>-0.61617202E-14</totfact>
</mgrwt>
</event>
<event>
 4    1  0.5167034E-019  0.1491052E+02  0.7818608E-02  0.1870811E+00
          2   -1    0    0  501    0  0.00000000000E+00  0.00000000000E+00  0.12043692760E+03  0.12043692763E+03  0.25500000000E-02 0.  1.
         -2   -1    0    0    0  501 -0.00000000000E+00 -0.00000000000E+00 -0.46149054369E+00  0.46149758874E+00  0.25500000000E-02 0. -1.
         31    1    1    2    0    0 -0.12400084998E+00 -0.30462732107E+00  0.59034157078E+02  0.59502931036E+02  0.74470750000E+01 0.  1.
        -31    1    1    2    0    0  0.12400084998E+00  0.30462732107E+00  0.60941279980E+02  0.61395494181E+02  0.74470750000E+01 0.  1.
<mgrwt>
<rscale>  0 0.14910524E+02</rscale>
<asrwt>0</asrwt>
<pdfrwt beam="1">  1        2 0.99967277E+00 0.14910524E+02</pdfrwt>
<pdfrwt beam="2">  1       -2 0.98023979E+00 0.14910524E+02</pdfrwt>
<totfact> 0.14686765E-13</totfact>
</mgrwt>
</event>
<event>
 4    1  0.5167034E-019  0.1490168E+02  0.7818608E-02  0.1871084E+00
         -2   -1    0    0    0  501 -0.00000000000E+00  0.00000000000E+00  0.11798245063E+03  0.11798245065E+03  0.25500000000E-02 0.  1.
          2   -1    0    0  501    0  0.00000000000E+00 -0.00000000000E+00 -0.47053246732E+00  0.47053937699E+00  0.25500000000E-02 0. -1.
         31    1    1    2    0    0  0.21152930704E+00 -0.36258481575E-01  0.59550819628E+02  0.60015040646E+02  0.74470750000E+01 0. -1.
        -31    1    1    2    0    0 -0.21152930704E+00  0.36258481575E-01  0.57961098531E+02  0.58437949384E+02  0.74470750000E+01 0. -1.
<mgrwt>
<rscale>  0 0.14901676E+02</rscale>
<asrwt>0</asrwt>
<pdfrwt beam="2">  1        2 0.99928956E+00 0.14901676E+02</pdfrwt>
<pdfrwt beam="1">  1       -2 0.97945220E+00 0.14901676E+02</pdfrwt>
<totfact> 0.34851171E-13</totfact>
</mgrwt>
</event>
<event>
 4    1 -0.5167034E-019  0.1499444E+02  0.7818608E-02  0.1868238E+00
         -2   -1    0    0    0  501 -0.00000000000E+00  0.00000000000E+00  0.11991102801E+03  0.11991102804E+03  0.25500000000E-02 0.  1.
          2   -1    0    0  501    0  0.00000000000E+00 -0.00000000000E+00 -0.46874681282E+00  0.46875374882E+00  0.25500000000E-02 0. -1.
         31    1    1    2    0    0  0.11189027603E+00 -0.71214743980E+00  0.63569129520E+02  0.64007912225E+02  0.74470750000E+01 0.  1.
        -31    1    1    2    0    0 -0.11189027603E+00  0.71214743980E+00  0.55873151682E+02  0.56371869566E+02  0.74470750000E+01 0. -1.
<mgrwt>
<rscale>  0 0.14994443E+02</rscale>
<asrwt>0</asrwt>
<pdfrwt beam="2">  1        2 0.99557572E+00 0.14994443E+02</pdfrwt>
<pdfrwt beam="1">  1       -2 0.99538426E+00 0.14994443E+02</pdfrwt>
<totfact>-0.11015813E-13</totfact>
</mgrwt>
</event>
<event>
 4    1 -0.5167034E-019  0.1492513E+02  0.7818608E-02  0.1870362E+00
          2   -1    0    0  501    0  0.00000000000E+00  0.00000000000E+00  0.11899712381E+03  0.11899712384E+03  0.25500000000E-02 0.  1.
         -2   -1    0    0    0  501 -0.00000000000E+00 -0.00000000000E+00 -0.46798975719E+00  0.46799670441E+00  0.25500000000E-02 0. -1.
         31    1    1    2    0    0 -0.10315193589E+00 -0.22814533292E+00  0.55981488307E+02  0.56475203849E+02  0.74470750000E+01 0. -1.
        -31    1    1    2    0    0  0.10315193589E+00  0.22814533292E+00  0.62547645748E+02  0.62989916695E+02  0.74470750000E+01 0.  1.
<mgrwt>
<rscale>  0 0.14925127E+02</rscale>
<asrwt>0</asrwt>
<pdfrwt beam="1">  1        2 0.98782120E+00 0.14925127E+02</pdfrwt>
<pdfrwt beam="2">  1       -2 0.99394440E+00 0.14925127E+02</pdfrwt>
<totfact>-0.22269626E-13</totfact>
</mgrwt>
</event>
<event>
 4    1  0.5167034E-019  0.1492465E+02  0.7818608E-02  0.1870377E+00
         -2   -1    0    0    0  501 -0.00000000000E+00  0.00000000000E+00  0.11894552052E+03  0.11894552054E+03  0.25500000000E-02 0.  1.
          2   -1    0    0  501    0  0.00000000000E+00 -0.00000000000E+00 -0.46816301795E+00  0.46816996259E+00  0.25500000000E-02 0. -1.
         31    1    1    2    0    0  0.32087964346E+00  0.12451606721E+00  0.61879237908E+02  0.62326699560E+02  0.74470750000E+01 0.  1.
        -31    1    1    2    0    0 -0.32087964346E+00 -0.12451606721E+00  0.56598119590E+02  0.57086990945E+02  0.74470750000E+01 0.  1.
<mgrwt>
<rscale>  0 0.14924652E+02</rscale>
<asrwt>0</asrwt>
<pdfrwt beam="2">  1        2 0.99430925E+00 0.14924652E+02</pdfrwt>
<pdfrwt beam="1">  1       -2 0.98739594E+00 0.14924652E+02</pdfrwt>
<totfact> 0.22027814E-13</totfact>
</mgrwt>
</event>
<event>
 4    1 -0.5167034E-019  0.1502864E+02  0.7818608E-02  0.1867196E+00
          2   -1    0    0  501    0  0.00000000000E+00  0.00000000000E+00  0.11995368926E+03  0.11995368929E+03  0.25500000000E-02 0.  1.
         -2   -1    0    0    0  501 -0.00000000000E+00 -0.00000000000E+00 -0.47071966206E+00  0.47072656899E+00  0.25500000000E-02 0. -1.
         31    1    1    2    0    0  0.24740119607E+00 -0.42550696683E-01  0.51960070120E+02  0.52491626292E+02  0.74470750000E+01 0. -1.
        -31    1    1    2    0    0 -0.24740119607E+00  0.42550696683E-01  0.67522899481E+02  0.67932789567E+02  0.74470750000E+01 0.  1.
<mgrwt>
<rscale>  0 0.15028636E+02</rscale>
<asrwt>0</asrwt>
<pdfrwt beam="1">  1        2 0.99575333E+00 0.15028636E+02</pdfrwt>
<pdfrwt beam="2">  1       -2 0.99975082E+00 0.15028636E+02</pdfrwt>
<totfact>-0.93869129E-15</totfact>
</mgrwt>
</event>
<event>
 4    1 -0.5167034E-019  0.1492653E+02  0.7818608E-02  0.1870319E+00
          2   -1    0    0  501    0  0.00000000000E+00  0.00000000000E+00  0.11859596737E+03  0.11859596740E+03  0.25500000000E-02 0. -1.
         -2   -1    0    0    0  501 -0.00000000000E+00 -0.00000000000E+00 -0.46966127937E+00  0.46966820186E+00  0.25500000000E-02 0.  1.
         31    1    1    2    0    0  0.79535631420E-01 -0.13505845114E+00  0.62777752231E+02  0.63218111866E+02  0.74470750000E+01 0. -1.
        -31    1    1    2    0    0 -0.79535631420E-01  0.13505845114E+00  0.55348553860E+02  0.55847523734E+02  0.74470750000E+01 0.  1.
<mgrwt>
<rscale>  0 0.14926533E+02</rscale>
<asrwt>0</asrwt>
<pdfrwt beam="1">  1        2 0.98451798E+00 0.14926533E+02</pdfrwt>
<pdfrwt beam="2">  1       -2 0.99746721E+00 0.14926533E+02</pdfrwt>
<totfact>-0.26763714E-13</totfact>
</mgrwt>
</event>
<event>
 4    1 -0.5167034E-019  0.1494377E+02  0.7818608E-02  0.1869789E+00
         -2   -1    0    0    0  501 -0.00000000000E+00  0.00000000000E+00  0.11993538184E+03  0.11993538187E+03  0.25500000000E-02 0.  1.
          2   -1    0    0  501    0  0.00000000000E+00 -0.00000000000E+00 -0.46548938583E+00  0.46549637036E+00  0.25500000000E-02 0. -1.
         31    1    1    2    0    0  0.15982874410E+00  0.13800073396E+00  0.55137878699E+02  0.55638917880E+02  0.74470750000E+01 0. -1.
        -31    1    1    2    0    0 -0.15982874410E+00 -0.13800073396E+00  0.64332013758E+02  0.64761960360E+02  0.74470750000E+01 0.  1.
<mgrwt>
<rscale>  0 0.14943771E+02</rscale>
<asrwt>0</asrwt>
<pdfrwt beam="2">  1        2 0.98868488E+00 0.14943771E+02</pdfrwt>
<pdfrwt beam="1">  1       -2 0.99555870E+00 0.14943771E+02</pdfrwt>
<totfact>-0.20020721E-13</totfact>
</mgrwt>
</event>
<event>
 4    1 -0.5167034E-019  0.1493695E+02  0.7818608E-02  0.1869999E+00
         -2   -1    0    0    0  501 -0.00000000000E+00  0.00000000000E+00  0.12012619981E+03  0.12012619983E+03  0.25500000000E-02 0. -1.
          2   -1    0    0  501    0  0.00000000000E+00 -0.00000000000E+00 -0.46432556366E+00  0.46433256570E+00  0.25500000000E-02 0.  1.
         31    1    1    2    0    0  0.32461554270E+00  0.46040556319E+00  0.60174851207E+02  0.60636531830E+02  0.74470750000E+01 0. -1.
        -31    1    1    2    0    0 -0.32461554270E+00 -0.46040556319E+00  0.59487023035E+02  0.59954000569E+02  0.74470750000E+01 0.  1.
<mgrwt>
<rscale>  0 0.14936946E+02</rscale>
<asrwt>0</asrwt>
<pdfrwt beam="2">  1        2 0.98622857E+00 0.14936946E+02</pdfrwt>
<pdfrwt beam="1">  1       -2 0.99712689E+00 0.14936946E+02</pdfrwt>
<totfact>-0.22278137E-13</totfact>
</mgrwt>
</event>
<event>
 4    1 -0.5167034E-019  0.1491560E+02  0.7818608E-02  0.1870655E+00
          2   -1    0    0  501    0  0.00000000000E+00  0.00000000000E+00  0.11854590605E+03  0.11854590608E+03  0.25500000000E-02 0.  1.
         -2   -1    0    0    0  501 -0.00000000000E+00 -0.00000000000E+00 -0.46917144007E+00  0.46917836979E+00  0.25500000000E-02 0. -1.
         31    1    1    2    0    0 -0.19596303623E+00  0.31212290945E+00  0.60274999207E+02  0.60734424157E+02  0.74470750000E+01 0. -1.
        -31    1    1    2    0    0  0.19596303623E+00 -0.31212290945E+00  0.57801735407E+02  0.58280660294E+02  0.74470750000E+01 0. -1.
<mgrwt>
<rscale>  0 0.14915598E+02</rscale>
<asrwt>0</asrwt>
<pdfrwt beam="1">  1        2 0.98409999E+00 0.14915598E+02</pdfrwt>
<pdfrwt beam="2">  1       -2 0.99642934E+00 0.14915598E+02</pdfrwt>
<totfact>-0.35756280E-13</totfact>
</mgrwt>
</event>
<event>
 4    1 -0.5167034E-019  0.1494549E+02  0.7818608E-02  0.1869737E+00
          2   -1    0    0  501    0  0.00000000000E+00  0.00000000000E+00  0.11878401276E+03  0.11878401279E+03  0.25500000000E-02 0.  1.
         -2   -1    0    0    0  501 -0.00000000000E+00 -0.00000000000E+00 -0.47010930684E+00  0.47011622273E+00  0.25500000000E-02 0. -1.
         31    1    1    2    0    0 -0.27465414529E-01  0.61821163177E+00  0.59190693691E+02  0.59660540441E+02  0.74470750000E+01 0.  1.
        -31    1    1    2    0    0  0.27465414529E-01 -0.61821163177E+00  0.59123209762E+02  0.59593588569E+02  0.74470750000E+01 0.  1.
<mgrwt>
<rscale>  0 0.14945485E+02</rscale>
<asrwt>0</asrwt>
<pdfrwt beam="1">  1        2 0.98607658E+00 0.14945485E+02</pdfrwt>
<pdfrwt beam="2">  1       -2 0.99842120E+00 0.14945485E+02</pdfrwt>
<totfact>-0.14296957E-13</totfact>
</mgrwt>
</event>
<event>
 4    1 -0.5167034E-019  0.1497662E+02  0.7818608E-02  0.1868783E+00
          2   -1    0    0  501    0  0.00000000000E+00  0.00000000000E+00  0.11994359085E+03  0.11994359088E+03  0.25500000000E-02 0. -1.
         -2   -1    0    0    0  501 -0.00000000000E+00 -0.00000000000E+00 -0.46750611347E+00  0.46751306787E+00  0.25500000000E-02 0.  1.
         31    1    1    2    0    0 -0.35237797520E+00 -0.42635515819E+00  0.55262263200E+02  0.55764528233E+02  0.74470750000E+01 0.  1.
        -31    1    1    2    0    0  0.35237797520E+00  0.42635515819E+00  0.64213821534E+02  0.64646575710E+02  0.74470750000E+01 0. -1.
<mgrwt>
<rscale>  0 0.14976619E+02</rscale>
<asrwt>0</asrwt>
<pdfrwt beam="1">  1        2 0.99564325E+00 0.14976619E+02</pdfrwt>
<pdfrwt beam="2">  1       -2 0.99295191E+00 0.14976619E+02</pdfrwt>
<totfact>-0.95276074E-14</totfact>
</mgrwt>
</event>
<event>
 4    1 -0.5167034E-019  0.1493730E+02  0.7818608E-02  0.1869988E+00
          2   -1    0    0  501    0  0.00000000000E+00  0.00000000000E+00  0.11882401445E+03  0.11882401448E+03  0.25500000000E-02 0. -1.
         -2   -1    0    0    0  501 -0.00000000000E+00 -0.00000000000E+00 -0.46943632826E+00  0.46944325407E+00  0.25500000000E-02 0.  1.
         31    1    1    2    0    0  0.26383621103E-01  0.42053145723E+00  0.62210550800E+02  0.62656117815E+02  0.74470750000E+01 0. -1.
        -31    1    1    2    0    0 -0.26383621103E-01 -0.42053145723E+00  0.56144027320E+02  0.56637339914E+02  0.74470750000E+01 0.  1.
<mgrwt>
<rscale>  0 0.14937299E+02</rscale>
<asrwt>0</asrwt>
<pdfrwt beam="1">  1        2 0.98640177E+00 0.14937299E+02</pdfrwt>
<pdfrwt beam="2">  1       -2 0.99699889E+00 0.14937299E+02</pdfrwt>
<totfact>-0.22338598E-13</totfact>
</mgrwt>
</event>
<event>
 4    1 -0.5167034E-019  0.1499250E+02  0.7818608E-02  0.1868298E+00
         -2   -1    0    0    0  501 -0.00000000000E+00  0.00000000000E+00  0.12034127240E+03  0.12034127243E+03  0.25500000000E-02 0.  1.
          2   -1    0    0  501    0  0.00000000000E+00 -0.00000000000E+00 -0.46694960009E+00  0.46695656278E+00  0.25500000000E-02 0. -1.
         31    1    1    2    0    0  0.74477771750E+00 -0.41848674438E+00  0.60505810992E+02  0.60968368149E+02  0.74470750000E+01 0.  1.
        -31    1    1    2    0    0 -0.74477771750E+00  0.41848674438E+00  0.59368511812E+02  0.59839860844E+02  0.74470750000E+01 0.  1.
<mgrwt>
<rscale>  0 0.14992496E+02</rscale>
<asrwt>0</asrwt>
<pdfrwt beam="2">  1        2 0.99178722E+00 0.14992496E+02</pdfrwt>
<pdfrwt beam="1">  1       -2 0.99892696E+00 0.14992496E+02</pdfrwt>
<totfact>-0.53335729E-14</totfact>
</mgrwt>
</event>
<event>
 4    1 -0.5167034E-019  0.1491237E+02  0.7818608E-02  0.1870754E+00
         -2   -1    0    0    0  501 -0.00000000000E+00  0.00000000000E+00  0.12010928245E+03  0.12010928248E+03  0.25500000000E-02 0. -1.
          2   -1    0    0  501    0  0.00000000000E+00 -0.00000000000E+00 -0.46286391970E+00  0.46287094385E+00  0.25500000000E-02 0.  1.
         31    1    1    2    0    0  0.28042169603E+00 -0.22155512471E+00  0.60547710835E+02  0.61005015666E+02  0.74470750000E+01 0. -1.
        -31    1    1    2    0    0 -0.28042169603E+00  0.22155512471E+00  0.59098707699E+02  0.59567137758E+02  0.74470750000E+01 0.  1.
<mgrwt>
<rscale>  0 0.14912368E+02</rscale>
<asrwt>0</asrwt>
<pdfrwt beam="2">  1        2 0.98313546E+00 0.14912368E+02</pdfrwt>
<pdfrwt beam="1">  1       -2 0.99697492E+00 0.14912368E+02</pdfrwt>
<totfact>-0.38111646E-13</totfact>
</mgrwt>
</event>
<event>
 4    1 -0.5167034E-019  0.1493937E+02  0.7818608E-02  0.1869924E+00
         -2   -1    0    0    0  501 -0.00000000000E+00  0.00000000000E+00  0.11975725220E+03  0.11975725223E+03  0.25500000000E-02 0.  1.
          2   -1    0    0  501    0  0.00000000000E+00 -0.00000000000E+00 -0.46590756270E+00  0.46591454097E+00  0.25500000000E-02 0. -1.
         31    1    1    2    0    0  0.32618234063E+00 -0.16702092684E+00  0.56019751324E+02  0.56513766070E+02  0.74470750000E+01 0. -1.
        -31    1    1    2    0    0 -0.32618234063E+00  0.16702092684E+00  0.63271593316E+02  0.63709400701E+02  0.74470750000E+01 0.  1.
<mgrwt>
<rscale>  0 0.14939375E+02</rscale>
<asrwt>0</asrwt>
<pdfrwt beam="2">  1        2 0.98956392E+00 0.14939375E+02</pdfrwt>
<pdfrwt beam="1">  1       -2 0.99408926E+00 0.14939375E+02</pdfrwt>
<totfact>-0.18346307E-13</totfact>
</mgrwt>
</event>
<event>
 4    1  0.5167034E-019  0.1492255E+02  0.7818608E-02  0.1870441E+00
          2   -1    0    0  501    0  0.00000000000E+00  0.00000000000E+00  0.11988421063E+03  0.11988421066E+03  0.25500000000E-02 0.  1.
         -2   -1    0    0    0  501 -0.00000000000E+00 -0.00000000000E+00 -0.46436651819E+00  0.46437351961E+00  0.25500000000E-02 0. -1.
         31    1    1    2    0    0  0.45327291234E+00 -0.68536110790E-01  0.60028135271E+02  0.60490049625E+02  0.74470750000E+01 0. -1.
        -31    1    1    2    0    0 -0.45327291234E+00  0.68536110790E-01  0.59391708844E+02  0.59858534554E+02  0.74470750000E+01 0.  1.
<mgrwt>
<rscale>  0 0.14922552E+02</rscale>
<asrwt>0</asrwt>
<pdfrwt beam="1">  1        2 0.99512630E+00 0.14922552E+02</pdfrwt>
<pdfrwt beam="2">  1       -2 0.98630755E+00 0.14922552E+02</pdfrwt>
<totfact> 0.31650267E-13</totfact>
</mgrwt>
</event>
<event>
 4    1 -0.5167034E-019  0.1493254E+02  0.7818608E-02  0.1870134E+00
         -2   -1    0    0    0  501 -0.00000000000E+00  0.00000000000E+00  0.11956718379E+03  0.11956718381E+03  0.25500000000E-02 0.  1.
          2   -1    0    0  501    0  0.00000000000E+00 -0.00000000000E+00 -0.46622109719E+00  0.46622807076E+00  0.25500000000E-02 0. -1.
         31    1    1    2    0    0  0.22616617715E+00  0.22853501361E+00  0.62987848551E+02  0.63427370831E+02  0.74470750000E+01 0. -1.
        -31    1    1    2    0    0 -0.22616617715E+00 -0.22853501361E+00  0.56113114140E+02  0.56606041055E+02  0.74470750000E+01 0. -1.
<mgrwt>
<rscale>  0 0.14932537E+02</rscale>
<asrwt>0</asrwt>
<pdfrwt beam="2">  1        2 0.99022116E+00 0.14932537E+02</pdfrwt>
<pdfrwt beam="1">  1       -2 0.99252023E+00 0.14932537E+02</pdfrwt>
<totfact>-0.13657861E-13</totfact>
</mgrwt>
</event>
<event>
 4    1 -0.5167034E-019  0.1493467E+02  0.7818608E-02  0.1870069E+00
         -2   -1    0    0    0  501 -0.00000000000E+00  0.00000000000E+00  0.11967585933E+03  0.11967585936E+03  0.25500000000E-02 0.  1.
          2   -1    0    0  501    0  0.00000000000E+00 -0.00000000000E+00 -0.46593097520E+00  0.46593795311E+00  0.25500000000E-02 0. -1.
         31    1    1    2    0    0 -0.49243327888E+00 -0.12710539368E+00  0.61283513262E+02  0.61736428226E+02  0.74470750000E+01 0.  1.
        -31    1    1    2    0    0  0.49243327888E+00  0.12710539368E+00  0.57926415097E+02  0.58405369088E+02  0.74470750000E+01 0. -1.
<mgrwt>
<rscale>  0 0.14934672E+02</rscale>
<asrwt>0</asrwt>
<pdfrwt beam="2">  1        2 0.98961085E+00 0.14934672E+02</pdfrwt>
<pdfrwt beam="1">  1       -2 0.99341644E+00 0.14934672E+02</pdfrwt>
<totfact>-0.17168269E-13</totfact>
</mgrwt>
</event>
<event>
 4    1 -0.5167034E-019  0.1490256E+02  0.7818608E-02  0.1871057E+00
          2   -1    0    0  501    0  0.00000000000E+00  0.00000000000E+00  0.11861004920E+03  0.11861004923E+03  0.25500000000E-02 0. -1.
         -2   -1    0    0    0  501 -0.00000000000E+00 -0.00000000000E+00 -0.46809824554E+00  0.46810519115E+00  0.25500000000E-02 0.  1.
         31    1    1    2    0    0  0.11318118605E+00  0.97970536870E-01  0.60673789600E+02  0.61129289859E+02  0.74470750000E+01 0.  1.
        -31    1    1    2    0    0 -0.11318118605E+00 -0.97970536870E-01  0.57468161359E+02  0.57948864564E+02  0.74470750000E+01 0.  1.
<mgrwt>
<rscale>  0 0.14902560E+02</rscale>
<asrwt>0</asrwt>
<pdfrwt beam="1">  1        2 0.98462150E+00 0.14902560E+02</pdfrwt>
<pdfrwt beam="2">  1       -2 0.99416120E+00 0.14902560E+02</pdfrwt>
<totfact>-0.36486092E-13</totfact>
</mgrwt>
</event>
<event>
 4    1 -0.5167034E-019  0.1496996E+02  0.7818608E-02  0.1868987E+00
          2   -1    0    0  501    0  0.00000000000E+00  0.00000000000E+00  0.11906920470E+03  0.11906920473E+03  0.25500000000E-02 0.  1.
         -2   -1    0    0    0  501 -0.00000000000E+00 -0.00000000000E+00 -0.47052061280E+00  0.47052752265E+00  0.25500000000E-02 0. -1.
         31    1    1    2    0    0 -0.61114647418E+00 -0.29964654729E+00  0.61858575933E+02  0.62308953053E+02  0.74470750000E+01 0.  1.
        -31    1    1    2    0    0  0.61114647418E+00  0.29964654729E+00  0.56740108153E+02  0.57230779196E+02  0.74470750000E+01 0.  1.
<mgrwt>
<rscale>  0 0.14969961E+02</rscale>
<asrwt>0</asrwt>
<pdfrwt beam="1">  1        2 0.98843814E+00 0.14969961E+02</pdfrwt>
<pdfrwt beam="2">  1       -2 0.99930072E+00 0.14969961E+02</pdfrwt>
<totfact>-0.49237698E-14</totfact>
</mgrwt>
</event>
<event>
 4    1 -0.5167034E-019  0.1494555E+02  0.7818608E-02  0.1869735E+00
          2   -1    0    0  501    0  0.00000000000E+00  0.00000000000E+00  0.11931393093E+03  0.11931393095E+03  0.25500000000E-02 0. -1.
         -2   -1    0    0    0  501 -0.00000000000E+00 -0.00000000000E+00 -0.46802524298E+00  0.46803218966E+00  0.25500000000E-02 0.  1.
         31    1    1    2    0    0 -0.55258280382E+00  0.23098409757E+00  0.60683093332E+02  0.61141274470E+02  0.74470750000E+01 0.  1.
        -31    1    1    2    0    0  0.55258280382E+00 -0.23098409757E+00  0.58162812350E+02  0.58640688672E+02  0.74470750000E+01 0.  1.
<mgrwt>
<rscale>  0 0.14945548E+02</rscale>
<asrwt>0</asrwt>
<pdfrwt beam="1">  1        2 0.99044108E+00 0.14945548E+02</pdfrwt>
<pdfrwt beam="2">  1       -2 0.99402981E+00 0.14945548E+02</pdfrwt>
<totfact>-0.16810991E-13</totfact>
</mgrwt>
</event>
<event>
 4    1  0.5167034E-019  0.1493830E+02  0.7818608E-02  0.1869957E+00
          2   -1    0    0  501    0  0.00000000000E+00  0.00000000000E+00  0.11968006245E+03  0.11968006247E+03  0.25500000000E-02 0.  1.
         -2   -1    0    0    0  501 -0.00000000000E+00 -0.00000000000E+00 -0.46614083763E+00  0.46614781240E+00  0.25500000000E-02 0. -1.
         31    1    1    2    0    0 -0.12655557939E+00 -0.16908234712E+00  0.63898050472E+02  0.64330897594E+02  0.74470750000E+01 0.  1.
        -31    1    1    2    0    0  0.12655557939E+00  0.16908234712E+00  0.55315871138E+02  0.55815312692E+02  0.74470750000E+01 0. -1.
<mgrwt>
<rscale>  0 0.14938298E+02</rscale>
<asrwt>0</asrwt>
<pdfrwt beam="1">  1        2 0.99345293E+00 0.14938298E+02</pdfrwt>
<pdfrwt beam="2">  1       -2 0.99005498E+00 0.14938298E+02</pdfrwt>
<totfact> 0.60015450E-15</totfact>
</mgrwt>
</event>
<event>
 4    1 -0.5167034E-019  0.1500811E+02  0.7818608E-02  0.1867821E+00
          2   -1    0    0  501    0  0.00000000000E+00  0.00000000000E+00  0.12011711184E+03  0.12011711187E+03  0.25500000000E-02 0. -1.
         -2   -1    0    0    0  501 -0.00000000000E+00 -0.00000000000E+00 -0.46879602460E+00  0.46880295986E+00  0.25500000000E-02 0.  1.
         31    1    1    2    0    0 -0.89417952057E-01  0.23133455799E+00  0.66967409635E+02  0.67380667780E+02  0.74470750000E+01 0. -1.
        -31    1    1    2    0    0  0.89417952057E-01 -0.23133455799E+00  0.52680906184E+02  0.53205247050E+02  0.74470750000E+01 0.  1.
<mgrwt>
<rscale>  0 0.15008110E+02</rscale>
<asrwt>0</asrwt>
<pdfrwt beam="1">  1        2 0.99708871E+00 0.15008110E+02</pdfrwt>
<pdfrwt beam="2">  1       -2 0.99568649E+00 0.15008110E+02</pdfrwt>
<totfact>-0.83364948E-14</totfact>
</mgrwt>
</event>
<event>
 4    1  0.5167034E-019  0.1490787E+02  0.7818608E-02  0.1870893E+00
          2   -1    0    0  501    0  0.00000000000E+00  0.00000000000E+00  0.11937668935E+03  0.11937668938E+03  0.25500000000E-02 0.  1.
         -2   -1    0    0    0  501 -0.00000000000E+00 -0.00000000000E+00 -0.46542334278E+00  0.46543032830E+00  0.25500000000E-02 0. -1.
         31    1    1    2    0    0 -0.99830725721E-01 -0.24483309771E+00  0.58011264949E+02  0.58487910686E+02  0.74470750000E+01 0. -1.
        -31    1    1    2    0    0  0.99830725721E-01  0.24483309771E+00  0.60900001058E+02  0.61354209019E+02  0.74470750000E+01 0. -1.
<mgrwt>
<rscale>  0 0.14907866E+02</rscale>
<asrwt>0</asrwt>
<pdfrwt beam="1">  1        2 0.99093849E+00 0.14907866E+02</pdfrwt>
<pdfrwt beam="2">  1       -2 0.98852726E+00 0.14907866E+02</pdfrwt>
<totfact> 0.14852469E-13</totfact>
</mgrwt>
</event>
<event>
 4    1 -0.5167034E-019  0.1491928E+02  0.7818608E-02  0.1870542E+00
         -2   -1    0    0    0  501 -0.00000000000E+00  0.00000000000E+00  0.11988554934E+03  0.11988554936E+03  0.25500000000E-02 0.  1.
          2   -1    0    0  501    0  0.00000000000E+00 -0.00000000000E+00 -0.46415793351E+00  0.46416493808E+00  0.25500000000E-02 0. -1.
         31    1    1    2    0    0  0.15454816960E+00 -0.26467840739E+00  0.62175816862E+02  0.62620963489E+02  0.74470750000E+01 0.  1.
        -31    1    1    2    0    0 -0.15454816960E+00  0.26467840739E+00  0.57245574542E+02  0.57728750813E+02  0.74470750000E+01 0. -1.
<mgrwt>
<rscale>  0 0.14919283E+02</rscale>
<asrwt>0</asrwt>
<pdfrwt beam="2">  1        2 0.98586628E+00 0.14919283E+02</pdfrwt>
<pdfrwt beam="1">  1       -2 0.99513564E+00 0.14919283E+02</pdfrwt>
<totfact>-0.30142184E-13</totfact>
</mgrwt>
</event>
<event>
 4    1  0.5167034E-019  0.1490346E+02  0.7818608E-02  0.1871029E+00
          2   -1    0    0  501    0  0.00000000000E+00  0.00000000000E+00  0.12009694585E+03  0.12009694588E+03  0.25500000000E-02 0. -1.
         -2   -1    0    0    0  501 -0.00000000000E+00 -0.00000000000E+00 -0.46235886833E+00  0.46236590015E+00  0.25500000000E-02 0.  1.
         31    1    1    2    0    0  0.23110219126E+00 -0.55853719468E-01  0.60734625771E+02  0.61189951965E+02  0.74470750000E+01 0. -1.
        -31    1    1    2    0    0 -0.23110219126E+00  0.55853719468E-01  0.58899961213E+02  0.59369359815E+02  0.74470750000E+01 0. -1.
<mgrwt>
<rscale>  0 0.14903464E+02</rscale>
<asrwt>0</asrwt>
<pdfrwt beam="1">  1        2 0.99686874E+00 0.14903464E+02</pdfrwt>
<pdfrwt beam="2">  1       -2 0.98206646E+00 0.14903464E+02</pdfrwt>
<totfact> 0.73572398E-13</totfact>
</mgrwt>
</event>
<event>
 4    1  0.5167034E-019  0.1492494E+02  0.7818608E-02  0.1870368E+00
         -2   -1    0    0    0  501 -0.00000000000E+00  0.00000000000E+00  0.11844034804E+03  0.11844034807E+03  0.25500000000E-02 0. -1.
          2   -1    0    0  501    0  0.00000000000E+00 -0.00000000000E+00 -0.47017784539E+00  0.47018476027E+00  0.25500000000E-02 0.  1.
         31    1    1    2    0    0 -0.64989440111E-01 -0.13262995535E+00  0.55354086592E+02  0.55852982399E+02  0.74470750000E+01 0.  1.
        -31    1    1    2    0    0  0.64989440111E-01  0.13262995535E+00  0.62616083603E+02  0.63057550429E+02  0.74470750000E+01 0. -1.
<mgrwt>
<rscale>  0 0.14924938E+02</rscale>
<asrwt>0</asrwt>
<pdfrwt beam="2">  1        2 0.99855476E+00 0.14924938E+02</pdfrwt>
<pdfrwt beam="1">  1       -2 0.98323548E+00 0.14924938E+02</pdfrwt>
<totfact> 0.31893602E-13</totfact>
</mgrwt>
</event>
<event>
 4    1 -0.5167034E-019  0.1491648E+02  0.7818608E-02  0.1870628E+00
          2   -1    0    0  501    0  0.00000000000E+00  0.00000000000E+00  0.11839911200E+03  0.11839911203E+03  0.25500000000E-02 0.  1.
         -2   -1    0    0    0  501 -0.00000000000E+00 -0.00000000000E+00 -0.46980886147E+00  0.46981578178E+00  0.25500000000E-02 0. -1.
         31    1    1    2    0    0 -0.20559266042E+00 -0.30835504581E+00  0.57605535037E+02  0.58086090798E+02  0.74470750000E+01 0.  1.
        -31    1    1    2    0    0  0.20559266042E+00  0.30835504581E+00  0.60323768100E+02  0.60782837010E+02  0.74470750000E+01 0.  1.
<mgrwt>
<rscale>  0 0.14916483E+02</rscale>
<asrwt>0</asrwt>
<pdfrwt beam="1">  1        2 0.98289146E+00 0.14916483E+02</pdfrwt>
<pdfrwt beam="2">  1       -2 0.99777286E+00 0.14916483E+02</pdfrwt>
<totfact>-0.31906516E-13</totfact>
</mgrwt>
</event>
<event>
 4    1 -0.5167034E-019  0.1498618E+02  0.7818608E-02  0.1868491E+00
          2   -1    0    0  501    0  0.00000000000E+00  0.00000000000E+00  0.12001041047E+03  0.12001041049E+03  0.25500000000E-02 0.  1.
         -2   -1    0    0    0  501 -0.00000000000E+00 -0.00000000000E+00 -0.46784243995E+00  0.46784938936E+00  0.25500000000E-02 0. -1.
         31    1    1    2    0    0  0.38643445147E+00 -0.21751239765E+00  0.54139106064E+02  0.54650694183E+02  0.74470750000E+01 0. -1.
        -31    1    1    2    0    0 -0.38643445147E+00  0.21751239765E+00  0.65403461963E+02  0.65827565700E+02  0.74470750000E+01 0.  1.
<mgrwt>
<rscale>  0 0.14986178E+02</rscale>
<asrwt>0</asrwt>
<pdfrwt beam="1">  1        2 0.99619855E+00 0.14986178E+02</pdfrwt>
<pdfrwt beam="2">  1       -2 0.99366561E+00 0.14986178E+02</pdfrwt>
<totfact>-0.97458752E-14</totfact>
</mgrwt>
</event>
<event>
 4    1  0.5167034E-019  0.1490202E+02  0.7818608E-02  0.1871073E+00
          2   -1    0    0  501    0  0.00000000000E+00  0.00000000000E+00  0.12025896623E+03  0.12025896626E+03  0.25500000000E-02 0.  1.
         -2   -1    0    0    0  501 -0.00000000000E+00 -0.00000000000E+00 -0.46164630515E+00  0.46165334782E+00  0.25500000000E-02 0. -1.
         31    1    1    2    0    0  0.50772811371E-01 -0.23293312640E+00  0.59557612908E+02  0.60021871156E+02  0.74470750000E+01 0.  1.
        -31    1    1    2    0    0 -0.50772811371E-01  0.23293312640E+00  0.60239707019E+02  0.60698748451E+02  0.74470750000E+01 0.  1.
<mgrwt>
<rscale>  0 0.14902018E+02</rscale>
<asrwt>0</asrwt>
<pdfrwt beam="1">  1        2 0.99820255E+00 0.14902018E+02</pdfrwt>
<pdfrwt beam="2">  1       -2 0.98056383E+00 0.14902018E+02</pdfrwt>
<totfact> 0.64798531E-13</totfact>
</mgrwt>
</event>
<event>
 4    1 -0.5167034E-019  0.1494537E+02  0.7818608E-02  0.1869740E+00
          2   -1    0    0  501    0  0.00000000000E+00  0.00000000000E+00  0.11903623895E+03  0.11903623898E+03  0.25500000000E-02 0.  1.
         -2   -1    0    0    0  501 -0.00000000000E+00 -0.00000000000E+00 -0.46910586686E+00  0.46911279755E+00  0.25500000000E-02 0. -1.
         31    1    1    2    0    0  0.47115875452E-02 -0.61702539507E+00  0.58990289127E+02  0.59461700950E+02  0.74470750000E+01 0. -1.
        -31    1    1    2    0    0 -0.47115875452E-02  0.61702539507E+00  0.59576843958E+02  0.60043650826E+02  0.74470750000E+01 0. -1.
<mgrwt>
<rscale>  0 0.14945369E+02</rscale>
<asrwt>0</asrwt>
<pdfrwt beam="1">  1        2 0.98815386E+00 0.14945369E+02</pdfrwt>
<pdfrwt beam="2">  1       -2 0.99630681E+00 0.14945369E+02</pdfrwt>
<totfact>-0.19789324E-13</totfact>
</mgrwt>
</event>
<event>
 4    1  0.5167034E-019  0.1490454E+02  0.7818608E-02  0.1870995E+00
          2   -1    0    0  501    0  0.00000000000E+00  0.00000000000E+00  0.11935673399E+03  0.11935673401E+03  0.25500000000E-02 0.  1.
         -2   -1    0    0    0  501 -0.00000000000E+00 -0.00000000000E+00 -0.46529363774E+00  0.46530062521E+00  0.25500000000E-02 0. -1.
         31    1    1    2    0    0 -0.79687744825E-01 -0.26257177293E+00  0.59816668619E+02  0.60279084803E+02  0.74470750000E+01 0. -1.
        -31    1    1    2    0    0  0.79687744825E-01  0.26257177293E+00  0.59074771729E+02  0.59542949834E+02  0.74470750000E+01 0.  1.
<mgrwt>
<rscale>  0 0.14904543E+02</rscale>
<asrwt>0</asrwt>
<pdfrwt beam="1">  1        2 0.99077242E+00 0.14904543E+02</pdfrwt>
<pdfrwt beam="2">  1       -2 0.98825221E+00 0.14904543E+02</pdfrwt>
<totfact> 0.18153507E-13</totfact>
</mgrwt>
</event>
<event>
 4    1  0.5167034E-019  0.1490809E+02  0.7818608E-02  0.1870886E+00
         -2   -1    0    0    0  501 -0.00000000000E+00  0.00000000000E+00  0.11840776387E+03  0.11840776390E+03  0.25500000000E-02 0.  1.
          2   -1    0    0  501    0  0.00000000000E+00 -0.00000000000E+00 -0.46924594495E+00  0.46925287357E+00  0.25500000000E-02 0. -1.
         31    1    1    2    0    0 -0.23696928104E+00  0.65197407501E-02  0.57228561268E+02  0.57711552984E+02  0.74470750000E+01 0. -1.
        -31    1    1    2    0    0  0.23696928104E+00 -0.65197407501E-02  0.60709956661E+02  0.61165463791E+02  0.74470750000E+01 0. -1.
<mgrwt>
<rscale>  0 0.14908089E+02</rscale>
<asrwt>0</asrwt>
<pdfrwt beam="2">  1        2 0.99658237E+00 0.14908089E+02</pdfrwt>
<pdfrwt beam="1">  1       -2 0.98295835E+00 0.14908089E+02</pdfrwt>
<totfact> 0.64611994E-13</totfact>
</mgrwt>
</event>
<event>
 4    1  0.5167034E-019  0.1495941E+02  0.7818608E-02  0.1869310E+00
          2   -1    0    0  501    0  0.00000000000E+00  0.00000000000E+00  0.12012084978E+03  0.12012084981E+03  0.25500000000E-02 0.  1.
         -2   -1    0    0    0  501 -0.00000000000E+00 -0.00000000000E+00 -0.46574414205E+00  0.46575112276E+00  0.25500000000E-02 0. -1.
         31    1    1    2    0    0 -0.60575742415E+00  0.89966562698E-01  0.57129341153E+02  0.57615931675E+02  0.74470750000E+01 0.  1.
        -31    1    1    2    0    0  0.60575742415E+00 -0.89966562698E-01  0.62525764489E+02  0.62970669259E+02  0.74470750000E+01 0.  1.
<mgrwt>
<rscale>  0 0.14959412E+02</rscale>
<asrwt>0</asrwt>
<pdfrwt beam="1">  1        2 0.99709439E+00 0.14959412E+02</pdfrwt>
<pdfrwt beam="2">  1       -2 0.98922978E+00 0.14959412E+02</pdfrwt>
<totfact> 0.40793144E-14</totfact>
</mgrwt>
</event>
<event>
 4    1 -0.5167034E-019  0.1494298E+02  0.7818608E-02  0.1869813E+00
          2   -1    0    0  501    0  0.00000000000E+00  0.00000000000E+00  0.11890312794E+03  0.11890312797E+03  0.25500000000E-02 0. -1.
         -2   -1    0    0    0  501 -0.00000000000E+00 -0.00000000000E+00 -0.46948110807E+00  0.46948803322E+00  0.25500000000E-02 0.  1.
         31    1    1    2    0    0  0.38083776253E+00 -0.46589126967E+00  0.59588878073E+02  0.60055436124E+02  0.74470750000E+01 0. -1.
        -31    1    1    2    0    0 -0.38083776253E+00  0.46589126967E+00  0.58844768762E+02  0.59317179878E+02  0.74470750000E+01 0. -1.
<mgrwt>
<rscale>  0 0.14942983E+02</rscale>
<asrwt>0</asrwt>
<pdfrwt beam="1">  1        2 0.98705631E+00 0.14942983E+02</pdfrwt>
<pdfrwt beam="2">  1       -2 0.99709623E+00 0.14942983E+02</pdfrwt>
<totfact>-0.19872674E-13</totfact>
</mgrwt>
</event>
<event>
 4    1 -0.5167034E-019  0.1493756E+02  0.7818608E-02  0.1869980E+00
          2   -1    0    0  501    0  0.00000000000E+00  0.00000000000E+00  0.11900671492E+03  0.11900671494E+03  0.25500000000E-02 0. -1.
         -2   -1    0    0    0  501 -0.00000000000E+00 -0.00000000000E+00 -0.46873185344E+00  0.46873878966E+00  0.25500000000E-02 0.  1.
         31    1    1    2    0    0  0.22546009008E+00  0.32497582238E+00  0.62540360166E+02  0.62983426529E+02  0.74470750000E+01 0. -1.
        -31    1    1    2    0    0 -0.22546009008E+00 -0.32497582238E+00  0.55997622896E+02  0.56492027204E+02  0.74470750000E+01 0. -1.
<mgrwt>
<rscale>  0 0.14937557E+02</rscale>
<asrwt>0</asrwt>
<pdfrwt beam="1">  1        2 0.98790664E+00 0.14937557E+02</pdfrwt>
<pdfrwt beam="2">  1       -2 0.99551462E+00 0.14937557E+02</pdfrwt>
<totfact>-0.22096722E-13</totfact>
</mgrwt>
</event>
<event>
 4    1 -0.5167034E-019  0.1498163E+02  0.7818608E-02  0.1868630E+00
          2   -1    0    0  501    0  0.00000000000E+00  0.00000000000E+00  0.11925410930E+03  0.11925410932E+03  0.25500000000E-02 0.  1.
         -2   -1    0    0    0  501 -0.00000000000E+00 -0.00000000000E+00 -0.47052380984E+00  0.47053071964E+00  0.25500000000E-02 0. -1.
         31    1    1    2    0    0 -0.15134805744E+00 -0.59955974574E+00  0.63552012411E+02  0.63989839706E+02  0.74470750000E+01 0.  1.
        -31    1    1    2    0    0  0.15134805744E+00  0.59955974574E+00  0.55231573075E+02  0.55734800337E+02  0.74470750000E+01 0. -1.
<mgrwt>
<rscale>  0 0.14981631E+02</rscale>
<asrwt>0</asrwt>
<pdfrwt beam="1">  1        2 0.98996709E+00 0.14981631E+02</pdfrwt>
<pdfrwt beam="2">  1       -2 0.99931358E+00 0.14981631E+02</pdfrwt>
<totfact>-0.41008795E-14</totfact>
</mgrwt>
</event>
<event>
 4    1 -0.5167034E-019  0.1497874E+02  0.7818608E-02  0.1868718E+00
          2   -1    0    0  501    0  0.00000000000E+00  0.00000000000E+00  0.11976833905E+03  0.11976833907E+03  0.25500000000E-02 0.  1.
         -2   -1    0    0    0  501 -0.00000000000E+00 -0.00000000000E+00 -0.46832249139E+00  0.46832943367E+00  0.25500000000E-02 0. -1.
         31    1    1    2    0    0 -0.36963346260E+00 -0.67907384398E+00  0.58171404862E+02  0.58651249261E+02  0.74470750000E+01 0. -1.
        -31    1    1    2    0    0  0.36963346260E+00  0.67907384398E+00  0.61128611692E+02  0.61585419245E+02  0.74470750000E+01 0.  1.
<mgrwt>
<rscale>  0 0.14978735E+02</rscale>
<asrwt>0</asrwt>
<pdfrwt beam="1">  1        2 0.99420090E+00 0.14978735E+02</pdfrwt>
<pdfrwt beam="2">  1       -2 0.99467341E+00 0.14978735E+02</pdfrwt>
<totfact>-0.12876290E-13</totfact>
</mgrwt>
</event>
<event>
 4    1  0.5167034E-019  0.1491208E+02  0.7818608E-02  0.1870763E+00
          2   -1    0    0  501    0  0.00000000000E+00  0.00000000000E+00  0.11981705597E+03  0.11981705600E+03  0.25500000000E-02 0.  1.
         -2   -1    0    0    0  501 -0.00000000000E+00 -0.00000000000E+00 -0.46397511871E+00  0.46398212604E+00  0.25500000000E-02 0. -1.
         31    1    1    2    0    0  0.14056945865E+00 -0.12169502286E+00  0.62215224792E+02  0.62659617709E+02  0.74470750000E+01 0.  1.
        -31    1    1    2    0    0 -0.14056945865E+00  0.12169502286E+00  0.57137856060E+02  0.57621420415E+02  0.74470750000E+01 0. -1.
<mgrwt>
<rscale>  0 0.14912083E+02</rscale>
<asrwt>0</asrwt>
<pdfrwt beam="1">  1        2 0.99456778E+00 0.14912083E+02</pdfrwt>
<pdfrwt beam="2">  1       -2 0.98547731E+00 0.14912083E+02</pdfrwt>
<totfact> 0.43948486E-13</totfact>
</mgrwt>
</event>
<event>
 4    1 -0.5167034E-019  0.1491067E+02  0.7818608E-02  0.1870807E+00
         -2   -1    0    0    0  501 -0.00000000000E+00  0.00000000000E+00  0.11969377055E+03  0.11969377058E+03  0.25500000000E-02 0.  1.
          2   -1    0    0  501    0  0.00000000000E+00 -0.00000000000E+00 -0.46436505133E+00  0.46437205277E+00  0.25500000000E-02 0. -1.
         31    1    1    2    0    0  0.21959034097E+00  0.14646649402E+00  0.57752017181E+02  0.58230782984E+02  0.74470750000E+01 0. -1.
        -31    1    1    2    0    0 -0.21959034097E+00 -0.14646649402E+00  0.61477388319E+02  0.61927359647E+02  0.74470750000E+01 0.  1.
<mgrwt>
<rscale>  0 0.14910671E+02</rscale>
<asrwt>0</asrwt>
<pdfrwt beam="2">  1        2 0.98629839E+00 0.14910671E+02</pdfrwt>
<pdfrwt beam="1">  1       -2 0.99355159E+00 0.14910671E+02</pdfrwt>
<totfact>-0.26637423E-13</totfact>
</mgrwt>
</event>
<event>
 4    1 -0.5167034E-019  0.1489623E+02  0.7818608E-02  0.1871252E+00
         -2   -1    0    0    0  501 -0.00000000000E+00  0.00000000000E+00  0.11984907957E+03  0.11984907959E+03  0.25500000000E-02 0. -1.
          2   -1    0    0  501    0  0.00000000000E+00 -0.00000000000E+00 -0.46286545949E+00  0.46287248361E+00  0.25500000000E-02 0.  1.
         31    1    1    2    0    0 -0.27500063748E-01 -0.11921941052E+00  0.59878673867E+02  0.60340115012E+02  0.74470750000E+01 0.  1.
        -31    1    1    2    0    0  0.27500063748E-01  0.11921941052E+00  0.59507540240E+02  0.59971837065E+02  0.74470750000E+01 0.  1.
<mgrwt>
<rscale>  0 0.14896231E+02</rscale>
<asrwt>0</asrwt>
<pdfrwt beam="2">  1        2 0.98313053E+00 0.14896231E+02</pdfrwt>
<pdfrwt beam="1">  1       -2 0.99482340E+00 0.14896231E+02</pdfrwt>
<totfact>-0.47485215E-13</totfact>
</mgrwt>
</event>
<event>
 4    1  0.5167034E-019  0.1491945E+02  0.7818608E-02  0.1870537E+00
         -2   -1    0    0    0  501 -0.00000000000E+00  0.00000000000E+00  0.11921752001E+03  0.11921752004E+03  0.25500000000E-02 0. -1.
          2   -1    0    0  501    0  0.00000000000E+00 -0.00000000000E+00 -0.46676912969E+00  0.46677609508E+00  0.25500000000E-02 0.  1.
         31    1    1    2    0    0 -0.10906797530E+00 -0.16781425286E+00  0.62466649037E+02  0.62909309529E+02  0.74470750000E+01 0. -1.
        -31    1    1    2    0    0  0.10906797530E+00  0.16781425286E+00  0.56284101842E+02  0.56774986602E+02  0.74470750000E+01 0.  1.
<mgrwt>
<rscale>  0 0.14919447E+02</rscale>
<asrwt>0</asrwt>
<pdfrwt beam="2">  1        2 0.99136929E+00 0.14919447E+02</pdfrwt>
<pdfrwt beam="1">  1       -2 0.98963350E+00 0.14919447E+02</pdfrwt>
<totfact> 0.40151738E-14</totfact>
</mgrwt>
</event>
<event>
 4    1  0.5167034E-019  0.1489521E+02  0.7818608E-02  0.1871283E+00
          2   -1    0    0  501    0  0.00000000000E+00  0.00000000000E+00  0.11948609204E+03  0.11948609207E+03  0.25500000000E-02 0. -1.
         -2   -1    0    0    0  501 -0.00000000000E+00 -0.00000000000E+00 -0.46420799405E+00  0.46421499786E+00  0.25500000000E-02 0.  1.
         31    1    1    2    0    0 -0.49264857051E-01 -0.36329966257E-01  0.58992302293E+02  0.59460528107E+02  0.74470750000E+01 0.  1.
        -31    1    1    2    0    0  0.49264857051E-01  0.36329966257E-01  0.60029581753E+02  0.60489778958E+02  0.74470750000E+01 0. -1.
<mgrwt>
<rscale>  0 0.14895210E+02</rscale>
<asrwt>0</asrwt>
<pdfrwt beam="1">  1        2 0.99183306E+00 0.14895210E+02</pdfrwt>
<pdfrwt beam="2">  1       -2 0.98595948E+00 0.14895210E+02</pdfrwt>
<totfact> 0.46443488E-13</totfact>
</mgrwt>
</event>
<event>
 4    1 -0.5167034E-019  0.1492663E+02  0.7818608E-02  0.1870316E+00
         -2   -1    0    0    0  501 -0.00000000000E+00  0.00000000000E+00  0.11969689785E+03  0.11969689788E+03  0.25500000000E-02 0. -1.
          2   -1    0    0  501    0  0.00000000000E+00 -0.00000000000E+00 -0.46534776836E+00  0.46535475502E+00  0.25500000000E-02 0.  1.
         31    1    1    2    0    0 -0.45932564577E+00  0.84559980523E-01  0.60864182821E+02  0.61319864701E+02  0.74470750000E+01 0. -1.
        -31    1    1    2    0    0  0.45932564577E+00 -0.84559980523E-01  0.58367367264E+02  0.58842387935E+02  0.74470750000E+01 0.  1.
<mgrwt>
<rscale>  0 0.14926635E+02</rscale>
<asrwt>0</asrwt>
<pdfrwt beam="2">  1        2 0.98837764E+00 0.14926635E+02</pdfrwt>
<pdfrwt beam="1">  1       -2 0.99358558E+00 0.14926635E+02</pdfrwt>
<totfact>-0.20101280E-13</totfact>
</mgrwt>
</event>
<event>
 4    1 -0.5167034E-019  0.1497523E+02  0.7818608E-02  0.1868825E+00
          2   -1    0    0  501    0  0.00000000000E+00  0.00000000000E+00  0.11946600159E+03  0.11946600162E+03  0.25500000000E-02 0.  1.
         -2   -1    0    0    0  501 -0.00000000000E+00 -0.00000000000E+00 -0.46928778680E+00  0.46929471480E+00  0.25500000000E-02 0. -1.
         31    1    1    2    0    0  0.63446930450E+00  0.25813896305E+00  0.62454497763E+02  0.62900655036E+02  0.74470750000E+01 0.  1.
        -31    1    1    2    0    0 -0.63446930450E+00 -0.25813896305E+00  0.56542216043E+02  0.57034641299E+02  0.74470750000E+01 0. -1.
<mgrwt>
<rscale>  0 0.14975227E+02</rscale>
<asrwt>0</asrwt>
<pdfrwt beam="1">  1        2 0.99170894E+00 0.14975227E+02</pdfrwt>
<pdfrwt beam="2">  1       -2 0.99670573E+00 0.14975227E+02</pdfrwt>
<totfact>-0.13131293E-13</totfact>
</mgrwt>
</event>
<event>
 4    1 -0.5167034E-019  0.1490202E+02  0.7818608E-02  0.1871073E+00
         -2   -1    0    0    0  501 -0.00000000000E+00  0.00000000000E+00  0.11985682903E+03  0.11985682905E+03  0.25500000000E-02 0. -1.
          2   -1    0    0  501    0  0.00000000000E+00 -0.00000000000E+00 -0.46319550374E+00  0.46320252286E+00  0.25500000000E-02 0.  1.
         31    1    1    2    0    0 -0.21172118236E+00 -0.11279135569E+00  0.59429713040E+02  0.59894968618E+02  0.74470750000E+01 0. -1.
        -31    1    1    2    0    0  0.21172118236E+00  0.11279135569E+00  0.59963920484E+02  0.60425062959E+02  0.74470750000E+01 0.  1.
<mgrwt>
<rscale>  0 0.14902022E+02</rscale>
<asrwt>0</asrwt>
<pdfrwt beam="2">  1        2 0.98382908E+00 0.14902022E+02</pdfrwt>
<pdfrwt beam="1">  1       -2 0.99489020E+00 0.14902022E+02</pdfrwt>
<totfact>-0.42192643E-13</totfact>
</mgrwt>
</event>
<event>
 4    1 -0.5167034E-019  0.1500003E+02  0.7818608E-02  0.1868068E+00
          2   -1    0    0  501    0  0.00000000000E+00  0.00000000000E+00  0.12006257882E+03  0.12006257885E+03  0.25500000000E-02 0. -1.
         -2   -1    0    0    0  501 -0.00000000000E+00 -0.00000000000E+00 -0.46850394067E+00  0.46851088027E+00  0.25500000000E-02 0.  1.
         31    1    1    2    0    0  0.58895948478E+00 -0.56492444907E+00  0.56953006296E+02  0.57443623364E+02  0.74470750000E+01 0. -1.
        -31    1    1    2    0    0 -0.58895948478E+00  0.56492444907E+00  0.62641068585E+02  0.63087466366E+02  0.74470750000E+01 0. -1.
<mgrwt>
<rscale>  0 0.15000028E+02</rscale>
<asrwt>0</asrwt>
<pdfrwt beam="1">  1        2 0.99663538E+00 0.15000028E+02</pdfrwt>
<pdfrwt beam="2">  1       -2 0.99506679E+00 0.15000028E+02</pdfrwt>
<totfact>-0.94782346E-14</totfact>
</mgrwt>
</event>
<event>
 4    1 -0.5167034E-019  0.1497419E+02  0.7818608E-02  0.1868857E+00
         -2   -1    0    0    0  501 -0.00000000000E+00  0.00000000000E+00  0.11988065186E+03  0.11988065189E+03  0.25500000000E-02 0. -1.
          2   -1    0    0  501    0  0.00000000000E+00 -0.00000000000E+00 -0.46759980414E+00  0.46760675715E+00  0.25500000000E-02 0.  1.
         31    1    1    2    0    0  0.42239129798E+00 -0.16313461921E+00  0.54670458674E+02  0.55177196422E+02  0.74470750000E+01 0.  1.
        -31    1    1    2    0    0 -0.42239129798E+00  0.16313461921E+00  0.64742593382E+02  0.65171062223E+02  0.74470750000E+01 0.  1.
<mgrwt>
<rscale>  0 0.14974190E+02</rscale>
<asrwt>0</asrwt>
<pdfrwt beam="2">  1        2 0.99314810E+00 0.14974190E+02</pdfrwt>
<pdfrwt beam="1">  1       -2 0.99512361E+00 0.14974190E+02</pdfrwt>
<totfact>-0.13888400E-13</totfact>
</mgrwt>
</event>
<event>
 4    1 -0.5167034E-019  0.1492095E+02  0.7818608E-02  0.1870490E+00
          2   -1    0    0  501    0  0.00000000000E+00  0.00000000000E+00  0.11917621630E+03  0.11917621633E+03  0.25500000000E-02 0. -1.
         -2   -1    0    0    0  501 -0.00000000000E+00 -0.00000000000E+00 -0.46702488936E+00  0.46703185093E+00  0.25500000000E-02 0.  1.
         31    1    1    2    0    0 -0.43154346413E-02  0.12494086479E-01  0.62936768235E+02  0.63375830540E+02  0.74470750000E+01 0. -1.
        -31    1    1    2    0    0  0.43154346413E-02 -0.12494086479E-01  0.55772423178E+02  0.56267417640E+02  0.74470750000E+01 0.  1.
<mgrwt>
<rscale>  0 0.14920949E+02</rscale>
<asrwt>0</asrwt>
<pdfrwt beam="1">  1        2 0.98929409E+00 0.14920949E+02</pdfrwt>
<pdfrwt beam="2">  1       -2 0.99190903E+00 0.14920949E+02</pdfrwt>
<totfact>-0.12213877E-13</totfact>
</mgrwt>
</event>
<event>
 4    1 -0.5167034E-019  0.1497582E+02  0.7818608E-02  0.1868807E+00
         -2   -1    0    0    0  501 -0.00000000000E+00  0.00000000000E+00  0.12025622113E+03  0.12025622115E+03  0.25500000000E-02 0. -1.
          2   -1    0    0  501    0  0.00000000000E+00 -0.00000000000E+00 -0.46624116661E+00  0.46624813988E+00  0.25500000000E-02 0.  1.
         31    1    1    2    0    0 -0.36315792289E+00 -0.32453848430E+00  0.64816182336E+02  0.65244414531E+02  0.74470750000E+01 0. -1.
        -31    1    1    2    0    0  0.36315792289E+00  0.32453848430E+00  0.54973797625E+02  0.55478054763E+02  0.74470750000E+01 0. -1.
<mgrwt>
<rscale>  0 0.14975824E+02</rscale>
<asrwt>0</asrwt>
<pdfrwt beam="2">  1        2 0.99028566E+00 0.14975824E+02</pdfrwt>
<pdfrwt beam="1">  1       -2 0.99821784E+00 0.14975824E+02</pdfrwt>
<totfact>-0.94047983E-14</totfact>
</mgrwt>
</event>
<event>
 4    1  0.5167034E-019  0.1490631E+02  0.7818608E-02  0.1870941E+00
         -2   -1    0    0    0  501 -0.00000000000E+00  0.00000000000E+00  0.11841066759E+03  0.11841066761E+03  0.25500000000E-02 0. -1.
          2   -1    0    0  501    0  0.00000000000E+00 -0.00000000000E+00 -0.46912258639E+00  0.46912951683E+00  0.25500000000E-02 0.  1.
         31    1    1    2    0    0 -0.31797306711E-01 -0.23594044319E+00  0.57501806220E+02  0.57982526019E+02  0.74470750000E+01 0.  1.
        -31    1    1    2    0    0  0.31797306711E-01  0.23594044319E+00  0.60439738780E+02  0.60897271112E+02  0.74470750000E+01 0. -1.
<mgrwt>
<rscale>  0 0.14906312E+02</rscale>
<asrwt>0</asrwt>
<pdfrwt beam="2">  1        2 0.99632151E+00 0.14906312E+02</pdfrwt>
<pdfrwt beam="1">  1       -2 0.98298134E+00 0.14906312E+02</pdfrwt>
<totfact> 0.67298643E-13</totfact>
</mgrwt>
</event>
<event>
 4    1 -0.5167034E-019  0.1502220E+02  0.7818608E-02  0.1867392E+00
         -2   -1    0    0    0  501 -0.00000000000E+00  0.00000000000E+00  0.12021246330E+03  0.12021246333E+03  0.25500000000E-02 0. -1.
          2   -1    0    0  501    0  0.00000000000E+00 -0.00000000000E+00 -0.46930430297E+00  0.46931123073E+00  0.25500000000E-02 0.  1.
         31    1    1    2    0    0  0.77726372339E+00  0.50864878706E+00  0.62345830238E+02  0.62795894265E+02  0.74470750000E+01 0. -1.
        -31    1    1    2    0    0 -0.77726372339E+00 -0.50864878706E+00  0.57397328761E+02  0.57885880295E+02  0.74470750000E+01 0.  1.
<mgrwt>
<rscale>  0 0.15022203E+02</rscale>
<asrwt>0</asrwt>
<pdfrwt beam="2">  1        2 0.99676489E+00 0.15022203E+02</pdfrwt>
<pdfrwt beam="1">  1       -2 0.99788135E+00 0.15022203E+02</pdfrwt>
<totfact>-0.57625459E-14</totfact>
</mgrwt>
</event>
<event>
 4    1 -0.5167034E-019  0.1493055E+02  0.7818608E-02  0.1870195E+00
         -2   -1    0    0    0  501 -0.00000000000E+00  0.00000000000E+00  0.11994377569E+03  0.11994377572E+03  0.25500000000E-02 0. -1.
          2   -1    0    0  501    0  0.00000000000E+00 -0.00000000000E+00 -0.46463384779E+00  0.46464084518E+00  0.25500000000E-02 0.  1.
         31    1    1    2    0    0 -0.26657954465E+00  0.44654837018E+00  0.59489079839E+02  0.59955650411E+02  0.74470750000E+01 0. -1.
        -31    1    1    2    0    0  0.26657954465E+00 -0.44654837018E+00  0.59990062007E+02  0.60452766155E+02  0.74470750000E+01 0. -1.
<mgrwt>
<rscale>  0 0.14930554E+02</rscale>
<asrwt>0</asrwt>
<pdfrwt beam="2">  1        2 0.98687505E+00 0.14930554E+02</pdfrwt>
<pdfrwt beam="1">  1       -2 0.99562103E+00 0.14930554E+02</pdfrwt>
<totfact>-0.25258810E-13</totfact>
</mgrwt>
</event>
<event>
 4    1 -0.5167034E-019  0.1498841E+02  0.7818608E-02  0.1868422E+00
         -2   -1    0    0    0  501 -0.00000000000E+00  0.00000000000E+00  0.11978835061E+03  0.11978835064E+03  0.25500000000E-02 0. -1.
          2   -1    0    0  501    0  0.00000000000E+00 -0.00000000000E+00 -0.46884913466E+00  0.46885606914E+00  0.25500000000E-02 0.  1.
         31    1    1    2    0    0 -0.67053196390E+00 -0.47536371151E+00  0.61015988341E+02  0.61474265697E+02  0.74470750000E+01 0. -1.
        -31    1    1    2    0    0  0.67053196390E+00  0.47536371151E+00  0.58303513138E+02  0.58782941013E+02  0.74470750000E+01 0. -1.
<mgrwt>
<rscale>  0 0.14988407E+02</rscale>
<asrwt>0</asrwt>
<pdfrwt beam="2">  1        2 0.99578822E+00 0.14988407E+02</pdfrwt>
<pdfrwt beam="1">  1       -2 0.99437072E+00 0.14988407E+02</pdfrwt>
<totfact>-0.10833664E-13</totfact>
</mgrwt>
</event>
<event>
 4    1 -0.5167034E-019  0.1489717E+02  0.7818608E-02  0.1871223E+00
         -2   -1    0    0    0  501 -0.00000000000E+00  0.00000000000E+00  0.12021347686E+03  0.12021347689E+03  0.25500000000E-02 0. -1.
          2   -1    0    0  501    0  0.00000000000E+00 -0.00000000000E+00 -0.46152074721E+00  0.46152779180E+00  0.25500000000E-02 0.  1.
         31    1    1    2    0    0 -0.11264148687E+00 -0.81443794136E-01  0.60333718875E+02  0.60791741878E+02  0.74470750000E+01 0. -1.
        -31    1    1    2    0    0  0.11264148687E+00  0.81443794136E-01  0.59418237240E+02  0.59883262804E+02  0.74470750000E+01 0.  1.
<mgrwt>
<rscale>  0 0.14897173E+02</rscale>
<asrwt>0</asrwt>
<pdfrwt beam="2">  1        2 0.98029674E+00 0.14897173E+02</pdfrwt>
<pdfrwt beam="1">  1       -2 0.99782537E+00 0.14897173E+02</pdfrwt>
<totfact>-0.48408290E-13</totfact>
</mgrwt>
</event>
<event>
 4    1  0.5167034E-019  0.1492366E+02  0.7818608E-02  0.1870407E+00
         -2   -1    0    0    0  501 -0.00000000000E+00  0.00000000000E+00  0.11831187931E+03  0.11831187934E+03  0.25500000000E-02 0. -1.
          2   -1    0    0  501    0  0.00000000000E+00 -0.00000000000E+00 -0.47060750191E+00  0.47061441048E+00  0.25500000000E-02 0.  1.
         31    1    1    2    0    0  0.13355277549E-01 -0.31442371397E+00  0.61688190338E+02  0.62136871453E+02  0.74470750000E+01 0. -1.
        -31    1    1    2    0    0 -0.13355277549E-01  0.31442371397E+00  0.56153081474E+02  0.56645622300E+02  0.74470750000E+01 0.  1.
<mgrwt>
<rscale>  0 0.14923655E+02</rscale>
<asrwt>0</asrwt>
<pdfrwt beam="2">  1        2 0.99945934E+00 0.14923655E+02</pdfrwt>
<pdfrwt beam="1">  1       -2 0.98217677E+00 0.14923655E+02</pdfrwt>
<totfact> 0.16531991E-13</totfact>
</mgrwt>
</event>
<event>
 4    1 -0.5167034E-019  0.1490099E+02  0.7818608E-02  0.1871105E+00
          2   -1    0    0  501    0  0.00000000000E+00  0.00000000000E+00  0.11873994126E+03  0.11873994129E+03  0.25500000000E-02 0. -1.
         -2   -1    0    0    0  501 -0.00000000000E+00 -0.00000000000E+00 -0.46748782296E+00  0.46749477763E+00  0.25500000000E-02 0.  1.
         31    1    1    2    0    0  0.68557431472E-01 -0.10913623957E+00  0.60619048021E+02  0.61074909086E+02  0.74470750000E+01 0. -1.
        -31    1    1    2    0    0 -0.68557431472E-01  0.10913623957E+00  0.57653405418E+02  0.58132526980E+02  0.74470750000E+01 0.  1.
<mgrwt>
<rscale>  0 0.14900992E+02</rscale>
<asrwt>0</asrwt>
<pdfrwt beam="1">  1        2 0.98569049E+00 0.14900992E+02</pdfrwt>
<pdfrwt beam="2">  1       -2 0.99287414E+00 0.14900992E+02</pdfrwt>
<totfact>-0.26352708E-13</totfact>
</mgrwt>
</event>
<event>
 4    1 -0.5167034E-019  0.1496164E+02  0.7818608E-02  0.1869241E+00
          2   -1    0    0  501    0  0.00000000000E+00  0.00000000000E+00  0.11908619656E+03  0.11908619659E+03  0.25500000000E-02 0. -1.
         -2   -1    0    0    0  501 -0.00000000000E+00 -0.00000000000E+00 -0.46993081599E+00  0.46993773451E+00  0.25500000000E-02 0.  1.
         31    1    1    2    0    0  0.11516681811E+00 -0.42338914475E-01  0.53721929705E+02  0.54235778904E+02  0.74470750000E+01 0.  1.
        -31    1    1    2    0    0 -0.11516681811E+00  0.42338914475E-01  0.64894336038E+02  0.65320355417E+02  0.74470750000E+01 0. -1.
<mgrwt>
<rscale>  0 0.14961643E+02</rscale>
<asrwt>0</asrwt>
<pdfrwt beam="1">  1        2 0.98857377E+00 0.14961643E+02</pdfrwt>
<pdfrwt beam="2">  1       -2 0.99805360E+00 0.14961643E+02</pdfrwt>
<totfact>-0.12092745E-13</totfact>
</mgrwt>
</event>
<event>
 4    1  0.5167034E-019  0.1491797E+02  0.7818608E-02  0.1870582E+00
          2   -1    0    0  501    0  0.00000000000E+00  0.00000000000E+00  0.12004565094E+03  0.12004565096E+03  0.25500000000E-02 0.  1.
         -2   -1    0    0    0  501 -0.00000000000E+00 -0.00000000000E+00 -0.46345723401E+00  0.46346424916E+00  0.25500000000E-02 0. -1.
         31    1    1    2    0    0 -0.20563279536E+00  0.36622721567E+00  0.59521187514E+02  0.59986724334E+02  0.74470750000E+01 0. -1.
        -31    1    1    2    0    0  0.20563279536E+00 -0.36622721567E+00  0.60061006187E+02  0.60522390877E+02  0.74470750000E+01 0.  1.
<mgrwt>
<rscale>  0 0.14917969E+02</rscale>
<asrwt>0</asrwt>
<pdfrwt beam="1">  1        2 0.99645368E+00 0.14917969E+02</pdfrwt>
<pdfrwt beam="2">  1       -2 0.98438881E+00 0.14917969E+02</pdfrwt>
<totfact> 0.47068929E-13</totfact>
</mgrwt>
</event>
<event>
 4    1  0.5167034E-019  0.1492603E+02  0.7818608E-02  0.1870334E+00
          2   -1    0    0  501    0  0.00000000000E+00  0.00000000000E+00  0.12017163473E+03  0.12017163476E+03  0.25500000000E-02 0.  1.
         -2   -1    0    0    0  501 -0.00000000000E+00 -0.00000000000E+00 -0.46347204014E+00  0.46347905507E+00  0.25500000000E-02 0. -1.
         31    1    1    2    0    0  0.21306823228E+00 -0.16937112366E+00  0.63123194564E+02  0.63561550506E+02  0.74470750000E+01 0.  1.
        -31    1    1    2    0    0 -0.21306823228E+00  0.16937112366E+00  0.56584968126E+02  0.57073563307E+02  0.74470750000E+01 0. -1.
<mgrwt>
<rscale>  0 0.14926033E+02</rscale>
<asrwt>0</asrwt>
<pdfrwt beam="1">  1        2 0.99749553E+00 0.14926033E+02</pdfrwt>
<pdfrwt beam="2">  1       -2 0.98442411E+00 0.14926033E+02</pdfrwt>
<totfact> 0.36874321E-13</totfact>
</mgrwt>
</event>
<event>
 4    1  0.5167034E-019  0.1491578E+02  0.7818608E-02  0.1870649E+00
         -2   -1    0    0    0  501 -0.00000000000E+00  0.00000000000E+00  0.11832841331E+03  0.11832841333E+03  0.25500000000E-02 0. -1.
          2   -1    0    0  501    0  0.00000000000E+00 -0.00000000000E+00 -0.47004550187E+00  0.47005241870E+00  0.25500000000E-02 0.  1.
         31    1    1    2    0    0  0.11597069424E+00 -0.28265817079E+00  0.56854099871E+02  0.57340569783E+02  0.74470750000E+01 0.  1.
        -31    1    1    2    0    0 -0.11597069424E+00  0.28265817079E+00  0.61004267932E+02  0.61457895968E+02  0.74470750000E+01 0. -1.
<mgrwt>
<rscale>  0 0.14915784E+02</rscale>
<asrwt>0</asrwt>
<pdfrwt beam="2">  1        2 0.99827108E+00 0.14915784E+02</pdfrwt>
<pdfrwt beam="1">  1       -2 0.98230883E+00 0.14915784E+02</pdfrwt>
<totfact> 0.45115077E-13</totfact>
</mgrwt>
</event>
<event>
 4    1 -0.5167034E-019  0.1490630E+02  0.7818608E-02  0.1870941E+00
         -2   -1    0    0    0  501 -0.00000000000E+00  0.00000000000E+00  0.12025255628E+03  0.12025255630E+03  0.25500000000E-02 0. -1.
          2   -1    0    0  501    0  0.00000000000E+00 -0.00000000000E+00 -0.46193612946E+00  0.46194316772E+00  0.25500000000E-02 0.  1.
         31    1    1    2    0    0 -0.71680725213E-01 -0.21094917830E+00  0.61532335224E+02  0.61981746037E+02  0.74470750000E+01 0. -1.
        -31    1    1    2    0    0  0.71680725213E-01  0.21094917830E+00  0.58258284924E+02  0.58732753434E+02  0.74470750000E+01 0.  1.
<mgrwt>
<rscale>  0 0.14906298E+02</rscale>
<asrwt>0</asrwt>
<pdfrwt beam="2">  1        2 0.98117687E+00 0.14906298E+02</pdfrwt>
<pdfrwt beam="1">  1       -2 0.99815194E+00 0.14906298E+02</pdfrwt>
<totfact>-0.36696101E-13</totfact>
</mgrwt>
</event>
<event>
 4    1  0.5167034E-019  0.1490217E+02  0.7818608E-02  0.1871068E+00
          2   -1    0    0  501    0  0.00000000000E+00  0.00000000000E+00  0.12021790875E+03  0.12021790878E+03  0.25500000000E-02 0. -1.
         -2   -1    0    0    0  501 -0.00000000000E+00 -0.00000000000E+00 -0.46181365661E+00  0.46182069673E+00  0.25500000000E-02 0.  1.
         31    1    1    2    0    0 -0.12779776932E+00  0.12931054898E+00  0.61201761443E+02  0.61653447457E+02  0.74470750000E+01 0.  1.
        -31    1    1    2    0    0  0.12779776932E+00 -0.12931054898E+00  0.58554333651E+02  0.59026282018E+02  0.74470750000E+01 0.  1.
<mgrwt>
<rscale>  0 0.14902174E+02</rscale>
<asrwt>0</asrwt>
<pdfrwt beam="1">  1        2 0.99786444E+00 0.14902174E+02</pdfrwt>
<pdfrwt beam="2">  1       -2 0.98091665E+00 0.14902174E+02</pdfrwt>
<totfact> 0.69635937E-13</totfact>
</mgrwt>
</event>
<event>
 4    1 -0.5167034E-019  0.1501340E+02  0.7818608E-02  0.1867660E+00
          2   -1    0    0  501    0  0.00000000000E+00  0.00000000000E+00  0.12006352866E+03  0.12006352869E+03  0.25500000000E-02 0. -1.
         -2   -1    0    0    0  501 -0.00000000000E+00 -0.00000000000E+00 -0.46933619033E+00  0.46934311761E+00  0.25500000000E-02 0.  1.
         31    1    1    2    0    0  0.58496624928E+00  0.58514901474E+00  0.63450368977E+02  0.63891257886E+02  0.74470750000E+01 0. -1.
        -31    1    1    2    0    0 -0.58496624928E+00 -0.58514901474E+00  0.56143823493E+02  0.56641613919E+02  0.74470750000E+01 0.  1.
<mgrwt>
<rscale>  0 0.15013404E+02</rscale>
<asrwt>0</asrwt>
<pdfrwt beam="1">  1        2 0.99665012E+00 0.15013404E+02</pdfrwt>
<pdfrwt beam="2">  1       -2 0.99682754E+00 0.15013404E+02</pdfrwt>
<totfact>-0.78587297E-14</totfact>
</mgrwt>
</event>
<event>
 4    1  0.5167034E-019  0.1492160E+02  0.7818608E-02  0.1870470E+00
         -2   -1    0    0    0  501 -0.00000000000E+00  0.00000000000E+00  0.11836521626E+03  0.11836521629E+03  0.25500000000E-02 0.  1.
          2   -1    0    0  501    0  0.00000000000E+00 -0.00000000000E+00 -0.47026594624E+00  0.47027285983E+00  0.25500000000E-02 0. -1.
         31    1    1    2    0    0 -0.42645972153E-01 -0.40424872794E+00  0.60527902552E+02  0.60985663472E+02  0.74470750000E+01 0.  1.
        -31    1    1    2    0    0  0.42645972153E-01  0.40424872794E+00  0.57367047762E+02  0.57849825675E+02  0.74470750000E+01 0.  1.
<mgrwt>
<rscale>  0 0.14921601E+02</rscale>
<asrwt>0</asrwt>
<pdfrwt beam="2">  1        2 0.99873862E+00 0.14921601E+02</pdfrwt>
<pdfrwt beam="1">  1       -2 0.98261497E+00 0.14921601E+02</pdfrwt>
<totfact> 0.32527534E-13</totfact>
</mgrwt>
</event>
<event>
 4    1 -0.5167034E-019  0.1492736E+02  0.7818608E-02  0.1870293E+00
          2   -1    0    0  501    0  0.00000000000E+00  0.00000000000E+00  0.11899726788E+03  0.11899726791E+03  0.25500000000E-02 0. -1.
         -2   -1    0    0    0  501 -0.00000000000E+00 -0.00000000000E+00 -0.46812936834E+00  0.46813631349E+00  0.25500000000E-02 0.  1.
         31    1    1    2    0    0  0.31354935850E+00 -0.16512015098E+00  0.62060262897E+02  0.62506485542E+02  0.74470750000E+01 0. -1.
        -31    1    1    2    0    0 -0.31354935850E+00  0.16512015098E+00  0.56468875616E+02  0.56958918681E+02  0.74470750000E+01 0.  1.
<mgrwt>
<rscale>  0 0.14927362E+02</rscale>
<asrwt>0</asrwt>
<pdfrwt beam="1">  1        2 0.98782355E+00 0.14927362E+02</pdfrwt>
<pdfrwt beam="2">  1       -2 0.99423976E+00 0.14927362E+02</pdfrwt>
<totfact>-0.22644864E-13</totfact>
</mgrwt>
</event>
<event>
 4    1  0.5167034E-019  0.1492162E+02  0.7818608E-02  0.1870470E+00
          2   -1    0    0  501    0  0.00000000000E+00  0.00000000000E+00  0.11992422203E+03  0.11992422206E+03  0.25500000000E-02 0.  1.
         -2   -1    0    0    0  501 -0.00000000000E+00 -0.00000000000E+00 -0.46415354075E+00  0.46416054538E+00  0.25500000000E-02 0. -1.
         31    1    1    2    0    0 -0.35750371529E+00 -0.24323562561E+00  0.58654317104E+02  0.59126769009E+02  0.74470750000E+01 0. -1.
        -31    1    1    2    0    0  0.35750371529E+00  0.24323562561E+00  0.60805751389E+02  0.61261613597E+02  0.74470750000E+01 0.  1.
<mgrwt>
<rscale>  0 0.14921619E+02</rscale>
<asrwt>0</asrwt>
<pdfrwt beam="1">  1        2 0.99545538E+00 0.14921619E+02</pdfrwt>
<pdfrwt beam="2">  1       -2 0.98585821E+00 0.14921619E+02</pdfrwt>
<totfact> 0.35532801E-13</totfact>
</mgrwt>
</event>
<event>
 4    1 -0.5167034E-019  0.1496685E+02  0.7818608E-02  0.1869082E+00
         -2   -1    0    0    0  501 -0.00000000000E+00  0.00000000000E+00  0.11994205771E+03  0.11994205774E+03  0.25500000000E-02 0.  1.
          2   -1    0    0  501    0  0.00000000000E+00 -0.00000000000E+00 -0.46690215613E+00  0.46690911953E+00  0.25500000000E-02 0. -1.
         31    1    1    2    0    0 -0.72112160539E+00  0.12694555654E+00  0.59085550962E+02  0.59557513296E+02  0.74470750000E+01 0.  1.
        -31    1    1    2    0    0  0.72112160539E+00 -0.12694555654E+00  0.60389604594E+02  0.60851453562E+02  0.74470750000E+01 0. -1.
<mgrwt>
<rscale>  0 0.14966847E+02</rscale>
<asrwt>0</asrwt>
<pdfrwt beam="2">  1        2 0.99167409E+00 0.14966847E+02</pdfrwt>
<pdfrwt beam="1">  1       -2 0.99562558E+00 0.14966847E+02</pdfrwt>
<totfact>-0.15052605E-13</totfact>
</mgrwt>
</event>
<event>
 4    1 -0.5167034E-019  0.1498144E+02  0.7818608E-02  0.1868635E+00
         -2   -1    0    0    0  501 -0.00000000000E+00  0.00000000000E+00  0.11986823240E+03  0.11986823243E+03  0.25500000000E-02 0. -1.
          2   -1    0    0  501    0  0.00000000000E+00 -0.00000000000E+00 -0.46810128567E+00  0.46810823123E+00  0.25500000000E-02 0.  1.
         31    1    1    2    0    0  0.29410205766E+00  0.67235073681E+00  0.62405142927E+02  0.62852202359E+02  0.74470750000E+01 0. -1.
        -31    1    1    2    0    0 -0.29410205766E+00 -0.67235073681E+00  0.56994988186E+02  0.57484138299E+02  0.74470750000E+01 0.  1.
<mgrwt>
<rscale>  0 0.14981441E+02</rscale>
<asrwt>0</asrwt>
<pdfrwt beam="2">  1        2 0.99420865E+00 0.14981441E+02</pdfrwt>
<pdfrwt beam="1">  1       -2 0.99502506E+00 0.14981441E+02</pdfrwt>
<totfact>-0.12829478E-13</totfact>
</mgrwt>
</event>
<event>
 4    1  0.5167034E-019  0.1491537E+02  0.7818608E-02  0.1870662E+00
          2   -1    0    0  501    0  0.00000000000E+00  0.00000000000E+00  0.11977538556E+03  0.11977538558E+03  0.25500000000E-02 0. -1.
         -2   -1    0    0    0  501 -0.00000000000E+00 -0.00000000000E+00 -0.46434105682E+00  0.46434805862E+00  0.25500000000E-02 0.  1.
         31    1    1    2    0    0  0.11432813569E+00  0.37293157663E+00  0.59032294796E+02  0.59501452956E+02  0.74470750000E+01 0.  1.
        -31    1    1    2    0    0 -0.11432813569E+00 -0.37293157663E+00  0.60278749703E+02  0.60738280686E+02  0.74470750000E+01 0. -1.
<mgrwt>
<rscale>  0 0.14915368E+02</rscale>
<asrwt>0</asrwt>
<pdfrwt beam="1">  1        2 0.99422625E+00 0.14915368E+02</pdfrwt>
<pdfrwt beam="2">  1       -2 0.98625022E+00 0.14915368E+02</pdfrwt>
<totfact> 0.35173775E-13</totfact>
</mgrwt>
</event>
<event>
 4    1  0.5167034E-019  0.1492766E+02  0.7818608E-02  0.1870284E+00
         -2   -1    0    0    0  501 -0.00000000000E+00  0.00000000000E+00  0.11850456644E+03  0.11850456646E+03  0.25500000000E-02 0.  1.
          2   -1    0    0  501    0  0.00000000000E+00 -0.00000000000E+00 -0.47009479770E+00  0.47010171381E+00  0.25500000000E-02 0. -1.
         31    1    1    2    0    0  0.27907224487E+00  0.16618511463E+00  0.55988937455E+02  0.56482966832E+02  0.74470750000E+01 0. -1.
        -31    1    1    2    0    0 -0.27907224487E+00 -0.16618511463E+00  0.62045534184E+02  0.62491701345E+02  0.74470750000E+01 0.  1.
<mgrwt>
<rscale>  0 0.14927665E+02</rscale>
<asrwt>0</asrwt>
<pdfrwt beam="2">  1        2 0.99838123E+00 0.14927665E+02</pdfrwt>
<pdfrwt beam="1">  1       -2 0.98376580E+00 0.14927665E+02</pdfrwt>
<totfact> 0.30979504E-13</totfact>
</mgrwt>
</event>
<event>
 4    1 -0.5167034E-019  0.1497077E+02  0.7818608E-02  0.1868962E+00
         -2   -1    0    0    0  501 -0.00000000000E+00  0.00000000000E+00  0.11966471694E+03  0.11966471696E+03  0.25500000000E-02 0.  1.
          2   -1    0    0  501    0  0.00000000000E+00 -0.00000000000E+00 -0.46822967648E+00  0.46823662014E+00  0.25500000000E-02 0. -1.
         31    1    1    2    0    0  0.37065700875E+00  0.83454443310E-01  0.64846249128E+02  0.65273572778E+02  0.74470750000E+01 0.  1.
        -31    1    1    2    0    0 -0.37065700875E+00 -0.83454443310E-01  0.54350238131E+02  0.54859380805E+02  0.74470750000E+01 0. -1.
<mgrwt>
<rscale>  0 0.14970770E+02</rscale>
<asrwt>0</asrwt>
<pdfrwt beam="2">  1        2 0.99447370E+00 0.14970770E+02</pdfrwt>
<pdfrwt beam="1">  1       -2 0.99334331E+00 0.14970770E+02</pdfrwt>
<totfact>-0.11494481E-13</totfact>
</mgrwt>
</event>
<event>
 4    1 -0.5167034E-019  0.1504349E+02  0.7818608E-02  0.1866744E+00
          2   -1    0    0  501    0  0.00000000000E+00  0.00000000000E+00  0.12021311645E+03  0.12021311647E+03  0.25500000000E-02 0. -1.
         -2   -1    0    0    0  501 -0.00000000000E+00 -0.00000000000E+00 -0.47063243543E+00  0.47063934363E+00  0.25500000000E-02 0.  1.
         31    1    1    2    0    0  0.92663432084E+00 -0.49499230086E+00  0.60820986960E+02  0.61284215336E+02  0.74470750000E+01 0.  1.
        -31    1    1    2    0    0 -0.92663432084E+00  0.49499230086E+00  0.58921497050E+02  0.59399540480E+02  0.74470750000E+01 0. -1.
<mgrwt>
<rscale>  0 0.15043485E+02</rscale>
<asrwt>0</asrwt>
<pdfrwt beam="1">  1        2 0.99789773E+00 0.15043485E+02</pdfrwt>
<pdfrwt beam="2">  1       -2 0.99957472E+00 0.15043485E+02</pdfrwt>
<totfact>-0.98550831E-15</totfact>
</mgrwt>
</event>
<event>
 4    1 -0.5167034E-019  0.1499484E+02  0.7818608E-02  0.1868226E+00
         -2   -1    0    0    0  501 -0.00000000000E+00  0.00000000000E+00  0.11991421912E+03  0.11991421915E+03  0.25500000000E-02 0.  1.
          2   -1    0    0  501    0  0.00000000000E+00 -0.00000000000E+00 -0.46875934881E+00  0.46876628462E+00  0.25500000000E-02 0. -1.
         31    1    1    2    0    0 -0.37402382849E+00  0.70858191177E+00  0.62390517937E+02  0.62838504411E+02  0.74470750000E+01 0.  1.
        -31    1    1    2    0    0  0.37402382849E+00 -0.70858191177E+00  0.57054941836E+02  0.57544481022E+02  0.74470750000E+01 0.  1.
<mgrwt>
<rscale>  0 0.14994843E+02</rscale>
<asrwt>0</asrwt>
<pdfrwt beam="2">  1        2 0.99560235E+00 0.14994843E+02</pdfrwt>
<pdfrwt beam="1">  1       -2 0.99541075E+00 0.14994843E+02</pdfrwt>
<totfact>-0.10963386E-13</totfact>
</mgrwt>
</event>
<event>
 4    1  0.5167034E-019  0.1494362E+02  0.7818608E-02  0.1869794E+00
         -2   -1    0    0    0  501 -0.00000000000E+00  0.00000000000E+00  0.11912523688E+03  0.11912523691E+03  0.25500000000E-02 0. -1.
          2   -1    0    0  501    0  0.00000000000E+00 -0.00000000000E+00 -0.46864595507E+00  0.46865289256E+00  0.25500000000E-02 0.  1.
         31    1    1    2    0    0  0.52133850800E+00  0.11142392719E+00  0.56997212528E+02  0.57484131473E+02  0.74470750000E+01 0.  1.
        -31    1    1    2    0    0 -0.52133850800E+00 -0.11142392719E+00  0.61659378400E+02  0.62109758330E+02  0.74470750000E+01 0.  1.
<mgrwt>
<rscale>  0 0.14943624E+02</rscale>
<asrwt>0</asrwt>
<pdfrwt beam="2">  1        2 0.99533679E+00 0.14943624E+02</pdfrwt>
<pdfrwt beam="1">  1       -2 0.98888596E+00 0.14943624E+02</pdfrwt>
<totfact> 0.77785011E-14</totfact>
</mgrwt>
</event>
<event>
 4    1 -0.5167034E-019  0.1490102E+02  0.7818608E-02  0.1871104E+00
          2   -1    0    0  501    0  0.00000000000E+00  0.00000000000E+00  0.11814394026E+03  0.11814394029E+03  0.25500000000E-02 0.  1.
         -2   -1    0    0    0  501 -0.00000000000E+00 -0.00000000000E+00 -0.46984814121E+00  0.46985506095E+00  0.25500000000E-02 0. -1.
         31    1    1    2    0    0 -0.19192111315E+00 -0.10935113390E+00  0.59227441364E+02  0.59694200120E+02  0.74470750000E+01 0. -1.
        -31    1    1    2    0    0  0.19192111315E+00  0.10935113390E+00  0.58446650759E+02  0.58919595233E+02  0.74470750000E+01 0. -1.
<mgrwt>
<rscale>  0 0.14901023E+02</rscale>
<asrwt>0</asrwt>
<pdfrwt beam="1">  1        2 0.98078185E+00 0.14901023E+02</pdfrwt>
<pdfrwt beam="2">  1       -2 0.99784743E+00 0.14901023E+02</pdfrwt>
<totfact>-0.44316213E-13</totfact>
</mgrwt>
</event>
<event>
 4    1 -0.5167034E-019  0.1492526E+02  0.7818608E-02  0.1870358E+00
          2   -1    0    0  501    0  0.00000000000E+00  0.00000000000E+00  0.11900059086E+03  0.11900059089E+03  0.25500000000E-02 0. -1.
         -2   -1    0    0    0  501 -0.00000000000E+00 -0.00000000000E+00 -0.46798452629E+00  0.46799147358E+00  0.25500000000E-02 0.  1.
         31    1    1    2    0    0 -0.43856708054E+00  0.98413971899E-01  0.57882219284E+02  0.58361050896E+02  0.74470750000E+01 0.  1.
        -31    1    1    2    0    0  0.43856708054E+00 -0.98413971899E-01  0.60650387050E+02  0.61107531465E+02  0.74470750000E+01 0. -1.
<mgrwt>
<rscale>  0 0.14925261E+02</rscale>
<asrwt>0</asrwt>
<pdfrwt beam="1">  1        2 0.98784983E+00 0.14925261E+02</pdfrwt>
<pdfrwt beam="2">  1       -2 0.99393345E+00 0.14925261E+02</pdfrwt>
<totfact>-0.22169166E-13</totfact>
</mgrwt>
</event>
<event>
 4    1 -0.5167034E-019  0.1501799E+02  0.7818608E-02  0.1867520E+00
         -2   -1    0    0    0  501 -0.00000000000E+00  0.00000000000E+00  0.11983439117E+03  0.11983439120E+03  0.25500000000E-02 0. -1.
          2   -1    0    0  501    0  0.00000000000E+00 -0.00000000000E+00 -0.47052095119E+00  0.47052786103E+00  0.25500000000E-02 0.  1.
         31    1    1    2    0    0  0.76030496628E+00 -0.58948767440E+00  0.59865235419E+02  0.60334326028E+02  0.74470750000E+01 0.  1.
        -31    1    1    2    0    0 -0.76030496628E+00  0.58948767440E+00  0.59498634802E+02  0.59970593033E+02  0.74470750000E+01 0. -1.
<mgrwt>
<rscale>  0 0.15017990E+02</rscale>
<asrwt>0</asrwt>
<pdfrwt beam="2">  1        2 0.99932655E+00 0.15017990E+02</pdfrwt>
<pdfrwt beam="1">  1       -2 0.99476524E+00 0.15017990E+02</pdfrwt>
<totfact>-0.25607526E-14</totfact>
</mgrwt>
</event>
<event>
 4    1 -0.5167034E-019  0.1490186E+02  0.7818608E-02  0.1871078E+00
          2   -1    0    0  501    0  0.00000000000E+00  0.00000000000E+00  0.11881360377E+03  0.11881360380E+03  0.25500000000E-02 0. -1.
         -2   -1    0    0    0  501 -0.00000000000E+00 -0.00000000000E+00 -0.46725255321E+00  0.46725951139E+00  0.25500000000E-02 0.  1.
         31    1    1    2    0    0  0.13783891586E+00 -0.11511622815E-01  0.60740044914E+02  0.61195025242E+02  0.74470750000E+01 0. -1.
        -31    1    1    2    0    0 -0.13783891586E+00  0.11511622815E-01  0.57606306306E+02  0.58085838070E+02  0.74470750000E+01 0.  1.
<mgrwt>
<rscale>  0 0.14901862E+02</rscale>
<asrwt>0</asrwt>
<pdfrwt beam="1">  1        2 0.98629763E+00 0.14901862E+02</pdfrwt>
<pdfrwt beam="2">  1       -2 0.99237884E+00 0.14901862E+02</pdfrwt>
<totfact>-0.21277159E-13</totfact>
</mgrwt>
</event>
<event>
 4    1 -0.5167034E-019  0.1495002E+02  0.7818608E-02  0.1869597E+00
          2   -1    0    0  501    0  0.00000000000E+00  0.00000000000E+00  0.11930415929E+03  0.11930415932E+03  0.25500000000E-02 0. -1.
         -2   -1    0    0    0  501 -0.00000000000E+00 -0.00000000000E+00 -0.46834378477E+00  0.46835072673E+00  0.25500000000E-02 0.  1.
         31    1    1    2    0    0 -0.24895815207E+00 -0.59533747948E+00  0.59248727616E+02  0.59718397978E+02  0.74470750000E+01 0. -1.
        -31    1    1    2    0    0  0.24895815207E+00  0.59533747948E+00  0.59587087894E+02  0.60054112071E+02  0.74470750000E+01 0.  1.
<mgrwt>
<rscale>  0 0.14950021E+02</rscale>
<asrwt>0</asrwt>
<pdfrwt beam="1">  1        2 0.99036291E+00 0.14950021E+02</pdfrwt>
<pdfrwt beam="2">  1       -2 0.99470339E+00 0.14950021E+02</pdfrwt>
<totfact>-0.17309371E-13</totfact>
</mgrwt>
</event>
<event>
 4    1  0.5167034E-019  0.1491030E+02  0.7818608E-02  0.1870818E+00
         -2   -1    0    0    0  501 -0.00000000000E+00  0.00000000000E+00  0.11852229192E+03  0.11852229195E+03  0.25500000000E-02 0. -1.
          2   -1    0    0  501    0  0.00000000000E+00 -0.00000000000E+00 -0.46893144546E+00  0.46893837873E+00  0.25500000000E-02 0.  1.
         31    1    1    2    0    0  0.15830898988E+00  0.15173371466E+00  0.56881834153E+02  0.57367674413E+02  0.74470750000E+01 0.  1.
        -31    1    1    2    0    0 -0.15830898988E+00 -0.15173371466E+00  0.61171526320E+02  0.61623555912E+02  0.74470750000E+01 0. -1.
<mgrwt>
<rscale>  0 0.14910298E+02</rscale>
<asrwt>0</asrwt>
<pdfrwt beam="2">  1        2 0.99592088E+00 0.14910298E+02</pdfrwt>
<pdfrwt beam="1">  1       -2 0.98390275E+00 0.14910298E+02</pdfrwt>
<totfact> 0.57840067E-13</totfact>
</mgrwt>
</event>
<event>
 4    1 -0.5167034E-019  0.1494299E+02  0.7818608E-02  0.1869813E+00
          2   -1    0    0  501    0  0.00000000000E+00  0.00000000000E+00  0.11905403587E+03  0.11905403589E+03  0.25500000000E-02 0.  1.
         -2   -1    0    0    0  501 -0.00000000000E+00 -0.00000000000E+00 -0.46888611485E+00  0.46889304878E+00  0.25500000000E-02 0. -1.
         31    1    1    2    0    0  0.28066048991E+00  0.50481718091E+00  0.57891938469E+02  0.58371817485E+02  0.74470750000E+01 0. -1.
        -31    1    1    2    0    0 -0.28066048991E+00 -0.50481718091E+00  0.60693211283E+02  0.61151111458E+02  0.74470750000E+01 0. -1.
<mgrwt>
<rscale>  0 0.14942985E+02</rscale>
<asrwt>0</asrwt>
<pdfrwt beam="1">  1        2 0.98829920E+00 0.14942985E+02</pdfrwt>
<pdfrwt beam="2">  1       -2 0.99584251E+00 0.14942985E+02</pdfrwt>
<totfact>-0.20495146E-13</totfact>
</mgrwt>
</event>
<event>
 4    1  0.5167034E-019  0.1492416E+02  0.7818608E-02  0.1870392E+00
         -2   -1    0    0    0  501 -0.00000000000E+00  0.00000000000E+00  0.11843105066E+03  0.11843105069E+03  0.25500000000E-02 0.  1.
          2   -1    0    0  501    0  0.00000000000E+00 -0.00000000000E+00 -0.47016558950E+00  0.47017250457E+00  0.25500000000E-02 0. -1.
         31    1    1    2    0    0  0.26771426578E+00  0.37227110034E+00  0.58056997615E+02  0.58534469800E+02  0.74470750000E+01 0. -1.
        -31    1    1    2    0    0 -0.26771426578E+00 -0.37227110034E+00  0.59903887458E+02  0.60366753394E+02  0.74470750000E+01 0. -1.
<mgrwt>
<rscale>  0 0.14924157E+02</rscale>
<asrwt>0</asrwt>
<pdfrwt beam="2">  1        2 0.99852853E+00 0.14924157E+02</pdfrwt>
<pdfrwt beam="1">  1       -2 0.98315850E+00 0.14924157E+02</pdfrwt>
<totfact> 0.32942679E-13</totfact>
</mgrwt>
</event>
<event>
 4    1 -0.5167034E-019  0.1494090E+02  0.7818608E-02  0.1869877E+00
          2   -1    0    0  501    0  0.00000000000E+00  0.00000000000E+00  0.11955764249E+03  0.11955764252E+03  0.25500000000E-02 0.  1.
         -2   -1    0    0    0  501 -0.00000000000E+00 -0.00000000000E+00 -0.46678101163E+00  0.46678797683E+00  0.25500000000E-02 0. -1.
         31    1    1    2    0    0  0.18964147444E-01 -0.36941761579E+00  0.63243373285E+02  0.63681394611E+02  0.74470750000E+01 0.  1.
        -31    1    1    2    0    0 -0.18964147444E-01  0.36941761579E+00  0.55847488196E+02  0.56343035886E+02  0.74470750000E+01 0. -1.
<mgrwt>
<rscale>  0 0.14940905E+02</rscale>
<asrwt>0</asrwt>
<pdfrwt beam="1">  1        2 0.99244597E+00 0.14940905E+02</pdfrwt>
<pdfrwt beam="2">  1       -2 0.99140543E+00 0.14940905E+02</pdfrwt>
<totfact>-0.71648994E-14</totfact>
</mgrwt>
</event>
<event>
 4    1 -0.5167034E-019  0.1498488E+02  0.7818608E-02  0.1868530E+00
          2   -1    0    0  501    0  0.00000000000E+00  0.00000000000E+00  0.12017765739E+03  0.12017765742E+03  0.25500000000E-02 0.  1.
         -2   -1    0    0    0  501 -0.00000000000E+00 -0.00000000000E+00 -0.46711029515E+00  0.46711725545E+00  0.25500000000E-02 0. -1.
         31    1    1    2    0    0 -0.73869398546E+00  0.12562925194E+00  0.62600509591E+02  0.63046365308E+02  0.74470750000E+01 0.  1.
        -31    1    1    2    0    0  0.73869398546E+00 -0.12562925194E+00  0.57110037509E+02  0.57598409369E+02  0.74470750000E+01 0.  1.
<mgrwt>
<rscale>  0 0.14984878E+02</rscale>
<asrwt>0</asrwt>
<pdfrwt beam="1">  1        2 0.99757541E+00 0.14984878E+02</pdfrwt>
<pdfrwt beam="2">  1       -2 0.99212199E+00 0.14984878E+02</pdfrwt>
<totfact>-0.52361690E-14</totfact>
</mgrwt>
</event>
<event>
 4    1  0.5167034E-019  0.1493615E+02  0.7818608E-02  0.1870023E+00
         -2   -1    0    0    0  501 -0.00000000000E+00  0.00000000000E+00  0.11876905168E+03  0.11876905171E+03  0.25500000000E-02 0. -1.
          2   -1    0    0  501    0  0.00000000000E+00 -0.00000000000E+00 -0.46958127600E+00  0.46958819967E+00  0.25500000000E-02 0.  1.
         31    1    1    2    0    0 -0.12547827199E+00  0.34371207185E+00  0.55769064064E+02  0.56265276285E+02  0.74470750000E+01 0.  1.
        -31    1    1    2    0    0  0.12547827199E+00 -0.34371207185E+00  0.62530406340E+02  0.62973363622E+02  0.74470750000E+01 0. -1.
<mgrwt>
<rscale>  0 0.14936149E+02</rscale>
<asrwt>0</asrwt>
<pdfrwt beam="2">  1        2 0.99730370E+00 0.14936149E+02</pdfrwt>
<pdfrwt beam="1">  1       -2 0.98594850E+00 0.14936149E+02</pdfrwt>
<totfact> 0.24883795E-13</totfact>
</mgrwt>
</event>
<event>
 4    1 -0.5167034E-019  0.1494725E+02  0.7818608E-02  0.1869682E+00
         -2   -1    0    0    0  501 -0.00000000000E+00  0.00000000000E+00  0.12025896433E+03  0.12025896436E+03  0.25500000000E-02 0. -1.
          2   -1    0    0  501    0  0.00000000000E+00 -0.00000000000E+00 -0.46445336139E+00  0.46446036150E+00  0.25500000000E-02 0.  1.
         31    1    1    2    0    0  0.52709868751E+00  0.30265158269E-01  0.57129559331E+02  0.57615312413E+02  0.74470750000E+01 0.  1.
        -31    1    1    2    0    0 -0.52709868751E+00 -0.30265158269E-01  0.62664951640E+02  0.63108112309E+02  0.74470750000E+01 0. -1.
<mgrwt>
<rscale>  0 0.14947255E+02</rscale>
<asrwt>0</asrwt>
<pdfrwt beam="2">  1        2 0.98650315E+00 0.14947255E+02</pdfrwt>
<pdfrwt beam="1">  1       -2 0.99822574E+00 0.14947255E+02</pdfrwt>
<totfact>-0.14796708E-13</totfact>
</mgrwt>
</event>
<event>
 4    1  0.5167034E-019  0.1489898E+02  0.7818608E-02  0.1871167E+00
         -2   -1    0    0    0  501 -0.00000000000E+00  0.00000000000E+00  0.11846530653E+03  0.11846530655E+03  0.25500000000E-02 0.  1.
          2   -1    0    0  501    0  0.00000000000E+00 -0.00000000000E+00 -0.46844481829E+00  0.46845175875E+00  0.25500000000E-02 0. -1.
         31    1    1    2    0    0 -0.10043460569E-01 -0.69819936921E-01  0.57593579007E+02  0.58073093981E+02  0.74470750000E+01 0. -1.
        -31    1    1    2    0    0  0.10043460569E-01  0.69819936921E-01  0.60403282701E+02  0.60860664331E+02  0.74470750000E+01 0.  1.
<mgrwt>
<rscale>  0 0.14898976E+02</rscale>
<asrwt>0</asrwt>
<pdfrwt beam="2">  1        2 0.99488957E+00 0.14898976E+02</pdfrwt>
<pdfrwt beam="1">  1       -2 0.98342753E+00 0.14898976E+02</pdfrwt>
<totfact> 0.73147339E-13</totfact>
</mgrwt>
</event>
<event>
 4    1 -0.5167034E-019  0.1497300E+02  0.7818608E-02  0.1868894E+00
         -2   -1    0    0    0  501 -0.00000000000E+00  0.00000000000E+00  0.12006089631E+03  0.12006089634E+03  0.25500000000E-02 0. -1.
          2   -1    0    0  501    0  0.00000000000E+00 -0.00000000000E+00 -0.46682336851E+00  0.46683033309E+00  0.25500000000E-02 0.  1.
         31    1    1    2    0    0  0.12804462498E+00  0.52953737688E+00  0.55447813054E+02  0.55948330661E+02  0.74470750000E+01 0.  1.
        -31    1    1    2    0    0 -0.12804462498E+00 -0.52953737688E+00  0.64146259887E+02  0.64579396008E+02  0.74470750000E+01 0. -1.
<mgrwt>
<rscale>  0 0.14972996E+02</rscale>
<asrwt>0</asrwt>
<pdfrwt beam="2">  1        2 0.99151120E+00 0.14972996E+02</pdfrwt>
<pdfrwt beam="1">  1       -2 0.99660757E+00 0.14972996E+02</pdfrwt>
<totfact>-0.13559139E-13</totfact>
</mgrwt>
</event>
<event>
 4    1  0.5167034E-019  0.1493687E+02  0.7818608E-02  0.1870001E+00
         -2   -1    0    0    0  501 -0.00000000000E+00  0.00000000000E+00  0.11854188092E+03  0.11854188095E+03  0.25500000000E-02 0. -1.
          2   -1    0    0  501    0  0.00000000000E+00 -0.00000000000E+00 -0.47052682552E+00  0.47053373527E+00  0.25500000000E-02 0.  1.
         31    1    1    2    0    0  0.13737465017E+00  0.19877813910E+00  0.54971082868E+02  0.55473752913E+02  0.74470750000E+01 0.  1.
        -31    1    1    2    0    0 -0.13737465017E+00 -0.19877813910E+00  0.63100271228E+02  0.63538661771E+02  0.74470750000E+01 0. -1.
<mgrwt>
<rscale>  0 0.14936874E+02</rscale>
<asrwt>0</asrwt>
<pdfrwt beam="2">  1        2 0.99929636E+00 0.14936874E+02</pdfrwt>
<pdfrwt beam="1">  1       -2 0.98407791E+00 0.14936874E+02</pdfrwt>
<totfact> 0.13809388E-13</totfact>
</mgrwt>
</event>
<event>
 4    1 -0.5167034E-019  0.1490736E+02  0.7818608E-02  0.1870909E+00
          2   -1    0    0  501    0  0.00000000000E+00  0.00000000000E+00  0.11861421028E+03  0.11861421031E+03  0.25500000000E-02 0. -1.
         -2   -1    0    0    0  501 -0.00000000000E+00 -0.00000000000E+00 -0.46838317736E+00  0.46839011874E+00  0.25500000000E-02 0.  1.
         31    1    1    2    0    0  0.22265143412E+00  0.12784622979E+00  0.60512365476E+02  0.60969428567E+02  0.74470750000E+01 0. -1.
        -31    1    1    2    0    0 -0.22265143412E+00 -0.12784622979E+00  0.57633461627E+02  0.58113171859E+02  0.74470750000E+01 0.  1.
<mgrwt>
<rscale>  0 0.14907356E+02</rscale>
<asrwt>0</asrwt>
<pdfrwt beam="1">  1        2 0.98465826E+00 0.14907356E+02</pdfrwt>
<pdfrwt beam="2">  1       -2 0.99476409E+00 0.14907356E+02</pdfrwt>
<totfact>-0.36801774E-13</totfact>
</mgrwt>
</event>
<event>
 4    1  0.5167034E-019  0.1493362E+02  0.7818608E-02  0.1870101E+00
         -2   -1    0    0    0  501 -0.00000000000E+00  0.00000000000E+00  0.11866352639E+03  0.11866352642E+03  0.25500000000E-02 0. -1.
          2   -1    0    0  501    0  0.00000000000E+00 -0.00000000000E+00 -0.46983974593E+00  0.46984666579E+00  0.25500000000E-02 0.  1.
         31    1    1    2    0    0  0.32339682087E-01 -0.12134347467E+00  0.54886410486E+02  0.55389464270E+02  0.74470750000E+01 0.  1.
        -31    1    1    2    0    0 -0.32339682087E-01  0.12134347467E+00  0.63307276157E+02  0.63743908812E+02  0.74470750000E+01 0. -1.
<mgrwt>
<rscale>  0 0.14933620E+02</rscale>
<asrwt>0</asrwt>
<pdfrwt beam="2">  1        2 0.99784698E+00 0.14933620E+02</pdfrwt>
<pdfrwt beam="1">  1       -2 0.98507808E+00 0.14933620E+02</pdfrwt>
<totfact> 0.27565890E-13</totfact>
</mgrwt>
</event>
<event>
 4    1 -0.5167034E-019  0.1497952E+02  0.7818608E-02  0.1868694E+00
          2   -1    0    0  501    0  0.00000000000E+00  0.00000000000E+00  0.11969692694E+03  0.11969692696E+03  0.25500000000E-02 0.  1.
         -2   -1    0    0    0  501 -0.00000000000E+00 -0.00000000000E+00 -0.46865120562E+00  0.46865814303E+00  0.25500000000E-02 0. -1.
         31    1    1    2    0    0  0.47516704938E+00  0.25242839277E+00  0.54881179395E+02  0.55386751861E+02  0.74470750000E+01 0.  1.
        -31    1    1    2    0    0 -0.47516704938E+00 -0.25242839277E+00  0.64347096335E+02  0.64778833245E+02  0.74470750000E+01 0.  1.
<mgrwt>
<rscale>  0 0.14979523E+02</rscale>
<asrwt>0</asrwt>
<pdfrwt beam="1">  1        2 0.99361313E+00 0.14979523E+02</pdfrwt>
<pdfrwt beam="2">  1       -2 0.99536652E+00 0.14979523E+02</pdfrwt>
<totfact>-0.13283003E-13</totfact>
</mgrwt>
</event>
<event>
 4    1 -0.5167034E-019  0.1491020E+02  0.7818608E-02  0.1870821E+00
         -2   -1    0    0    0  501 -0.00000000000E+00  0.00000000000E+00  0.12028124122E+03  0.12028124125E+03  0.25500000000E-02 0. -1.
          2   -1    0    0  501    0  0.00000000000E+00 -0.00000000000E+00 -0.46206770400E+00  0.46207474026E+00  0.25500000000E-02 0.  1.
         31    1    1    2    0    0 -0.28692319260E+00 -0.17157836765E+00  0.60625394334E+02  0.61081986938E+02  0.74470750000E+01 0. -1.
        -31    1    1    2    0    0  0.28692319260E+00  0.17157836765E+00  0.59193779181E+02  0.59661329049E+02  0.74470750000E+01 0. -1.
<mgrwt>
<rscale>  0 0.14910198E+02</rscale>
<asrwt>0</asrwt>
<pdfrwt beam="2">  1        2 0.98145616E+00 0.14910198E+02</pdfrwt>
<pdfrwt beam="1">  1       -2 0.99839022E+00 0.14910198E+02</pdfrwt>
<totfact>-0.31187793E-13</totfact>
</mgrwt>
</event>
<event>
 4    1  0.5167034E-019  0.1495073E+02  0.7818608E-02  0.1869576E+00
         -2   -1    0    0    0  501 -0.00000000000E+00  0.00000000000E+00  0.11905659795E+03  0.11905659798E+03  0.25500000000E-02 0.  1.
          2   -1    0    0  501    0  0.00000000000E+00 -0.00000000000E+00 -0.46936201620E+00  0.46936894310E+00  0.25500000000E-02 0. -1.
         31    1    1    2    0    0  0.49533998014E-01  0.15281522280E+00  0.64326624457E+02  0.64756461811E+02  0.74470750000E+01 0.  1.
        -31    1    1    2    0    0 -0.49533998014E-01 -0.15281522280E+00  0.54260611478E+02  0.54769505111E+02  0.74470750000E+01 0. -1.
<mgrwt>
<rscale>  0 0.14950727E+02</rscale>
<asrwt>0</asrwt>
<pdfrwt beam="2">  1        2 0.99684935E+00 0.14950727E+02</pdfrwt>
<pdfrwt beam="1">  1       -2 0.98832432E+00 0.14950727E+02</pdfrwt>
<totfact> 0.94640541E-14</totfact>
</mgrwt>
</event>
<event>
 4    1  0.5167034E-019  0.1491694E+02  0.7818608E-02  0.1870614E+00
          2   -1    0    0  501    0  0.00000000000E+00  0.00000000000E+00  0.12007341752E+03  0.12007341754E+03  0.25500000000E-02 0.  1.
         -2   -1    0    0    0  501 -0.00000000000E+00 -0.00000000000E+00 -0.46328639416E+00  0.46329341190E+00  0.25500000000E-02 0. -1.
         31    1    1    2    0    0  0.20856475828E+00 -0.32709686272E+00  0.58679940340E+02  0.59151879226E+02  0.74470750000E+01 0.  1.
        -31    1    1    2    0    0 -0.20856475828E+00  0.32709686272E+00  0.60930190781E+02  0.61384831729E+02  0.74470750000E+01 0.  1.
<mgrwt>
<rscale>  0 0.14916944E+02</rscale>
<asrwt>0</asrwt>
<pdfrwt beam="1">  1        2 0.99668186E+00 0.14916944E+02</pdfrwt>
<pdfrwt beam="2">  1       -2 0.98402822E+00 0.14916944E+02</pdfrwt>
<totfact> 0.49444225E-13</totfact>
</mgrwt>
</event>
<event>
 4    1 -0.5167034E-019  0.1495052E+02  0.7818608E-02  0.1869582E+00
          2   -1    0    0  501    0  0.00000000000E+00  0.00000000000E+00  0.11938470160E+03  0.11938470163E+03  0.25500000000E-02 0.  1.
         -2   -1    0    0    0  501 -0.00000000000E+00 -0.00000000000E+00 -0.46805916807E+00  0.46806611425E+00  0.25500000000E-02 0. -1.
         31    1    1    2    0    0  0.17726010188E+00 -0.58641951233E+00  0.57752324045E+02  0.58233711608E+02  0.74470750000E+01 0. -1.
        -31    1    1    2    0    0 -0.17726010188E+00  0.58641951233E+00  0.61164318385E+02  0.61619056132E+02  0.74470750000E+01 0.  1.
<mgrwt>
<rscale>  0 0.14950521E+02</rscale>
<asrwt>0</asrwt>
<pdfrwt beam="1">  1        2 0.99102654E+00 0.14950521E+02</pdfrwt>
<pdfrwt beam="2">  1       -2 0.99410389E+00 0.14950521E+02</pdfrwt>
<totfact>-0.16064466E-13</totfact>
</mgrwt>
</event>
<event>
 4    1  0.5167034E-019  0.1490405E+02  0.7818608E-02  0.1871011E+00
         -2   -1    0    0    0  501 -0.00000000000E+00  0.00000000000E+00  0.11826809369E+03  0.11826809372E+03  0.25500000000E-02 0.  1.
          2   -1    0    0  501    0  0.00000000000E+00 -0.00000000000E+00 -0.46954568499E+00  0.46955260918E+00  0.25500000000E-02 0. -1.
         31    1    1    2    0    0  0.22660582252E+00  0.74071945753E-01  0.57862889057E+02  0.58340635006E+02  0.74470750000E+01 0. -1.
        -31    1    1    2    0    0 -0.22660582252E+00 -0.74071945753E-01  0.59935658946E+02  0.60397011318E+02  0.74470750000E+01 0.  1.
<mgrwt>
<rscale>  0 0.14904051E+02</rscale>
<asrwt>0</asrwt>
<pdfrwt beam="2">  1        2 0.99721178E+00 0.14904051E+02</pdfrwt>
<pdfrwt beam="1">  1       -2 0.98180594E+00 0.14904051E+02</pdfrwt>
<totfact> 0.71596766E-13</totfact>
</mgrwt>
</event>
<event>
 4    1  0.5167034E-019  0.1491020E+02  0.7818608E-02  0.1870821E+00
         -2   -1    0    0    0  501 -0.00000000000E+00  0.00000000000E+00  0.11817925476E+03  0.11817925479E+03  0.25500000000E-02 0.  1.
          2   -1    0    0  501    0  0.00000000000E+00 -0.00000000000E+00 -0.47028668344E+00  0.47029359672E+00  0.25500000000E-02 0. -1.
         31    1    1    2    0    0 -0.78580902202E-01 -0.11079250550E+00  0.56323445122E+02  0.56813799789E+02  0.74470750000E+01 0. -1.
        -31    1    1    2    0    0  0.78580902202E-01  0.11079250550E+00  0.61385522954E+02  0.61835748595E+02  0.74470750000E+01 0.  1.
<mgrwt>
<rscale>  0 0.14910203E+02</rscale>
<asrwt>0</asrwt>
<pdfrwt beam="2">  1        2 0.99877627E+00 0.14910203E+02</pdfrwt>
<pdfrwt beam="1">  1       -2 0.98107748E+00 0.14910203E+02</pdfrwt>
<totfact> 0.42869313E-13</totfact>
</mgrwt>
</event>
<event>
 4    1 -0.5167034E-019  0.1496311E+02  0.7818608E-02  0.1869196E+00
         -2   -1    0    0    0  501 -0.00000000000E+00  0.00000000000E+00  0.11966077103E+03  0.11966077106E+03  0.25500000000E-02 0.  1.
          2   -1    0    0  501    0  0.00000000000E+00 -0.00000000000E+00 -0.46776598121E+00  0.46777293174E+00  0.25500000000E-02 0. -1.
         31    1    1    2    0    0 -0.49949525216E+00 -0.43288760009E+00  0.61836443216E+02  0.62286768441E+02  0.74470750000E+01 0.  1.
        -31    1    1    2    0    0  0.49949525216E+00  0.43288760009E+00  0.57356561832E+02  0.57841775547E+02  0.74470750000E+01 0. -1.
<mgrwt>
<rscale>  0 0.14963109E+02</rscale>
<asrwt>0</asrwt>
<pdfrwt beam="2">  1        2 0.99349258E+00 0.14963109E+02</pdfrwt>
<pdfrwt beam="1">  1       -2 0.99330685E+00 0.14963109E+02</pdfrwt>
<totfact>-0.12384408E-13</totfact>
</mgrwt>
</event>
<event>
 4    1  0.5167034E-019  0.1492270E+02  0.7818608E-02  0.1870436E+00
          2   -1    0    0  501    0  0.00000000000E+00  0.00000000000E+00  0.12012566493E+03  0.12012566496E+03  0.25500000000E-02 0.  1.
         -2   -1    0    0    0  501 -0.00000000000E+00 -0.00000000000E+00 -0.46344245440E+00  0.46344946978E+00  0.25500000000E-02 0. -1.
         31    1    1    2    0    0  0.26585997659E+00  0.25757417798E+00  0.57606207596E+02  0.58086754993E+02  0.74470750000E+01 0.  1.
        -31    1    1    2    0    0 -0.26585997659E+00 -0.25757417798E+00  0.62056014878E+02  0.62502359432E+02  0.74470750000E+01 0.  1.
<mgrwt>
<rscale>  0 0.14922702E+02</rscale>
<asrwt>0</asrwt>
<pdfrwt beam="1">  1        2 0.99711517E+00 0.14922702E+02</pdfrwt>
<pdfrwt beam="2">  1       -2 0.98436006E+00 0.14922702E+02</pdfrwt>
<totfact> 0.41426129E-13</totfact>
</mgrwt>
</event>
<event>
 4    1  0.5167034E-019  0.1492149E+02  0.7818608E-02  0.1870474E+00
          2   -1    0    0  501    0  0.00000000000E+00  0.00000000000E+00  0.11997272767E+03  0.11997272769E+03  0.25500000000E-02 0. -1.
         -2   -1    0    0    0  501 -0.00000000000E+00 -0.00000000000E+00 -0.46395769112E+00  0.46396469871E+00  0.25500000000E-02 0.  1.
         31    1    1    2    0    0  0.19163278450E+00 -0.59368587745E-01  0.63018245094E+02  0.63457059406E+02  0.74470750000E+01 0. -1.
        -31    1    1    2    0    0 -0.19163278450E+00  0.59368587745E-01  0.56490524880E+02  0.56979632985E+02  0.74470750000E+01 0.  1.
<mgrwt>
<rscale>  0 0.14921487E+02</rscale>
<asrwt>0</asrwt>
<pdfrwt beam="1">  1        2 0.99585484E+00 0.14921487E+02</pdfrwt>
<pdfrwt beam="2">  1       -2 0.98544537E+00 0.14921487E+02</pdfrwt>
<totfact> 0.38435336E-13</totfact>
</mgrwt>
</event>
<event>
 4    1 -0.5167034E-019  0.1491469E+02  0.7818608E-02  0.1870683E+00
          2   -1    0    0  501    0  0.00000000000E+00  0.00000000000E+00  0.11844579628E+03  0.11844579631E+03  0.25500000000E-02 0.  1.
         -2   -1    0    0    0  501 -0.00000000000E+00 -0.00000000000E+00 -0.46951051687E+00  0.46951744159E+00  0.25500000000E-02 0. -1.
         31    1    1    2    0    0  0.18430816231E+00 -0.13893469859E+00  0.61506435744E+02  0.61956063758E+02  0.74470750000E+01 0.  1.
        -31    1    1    2    0    0 -0.18430816231E+00  0.13893469859E+00  0.56469850020E+02  0.56959249992E+02  0.74470750000E+01 0. -1.
<mgrwt>
<rscale>  0 0.14914685E+02</rscale>
<asrwt>0</asrwt>
<pdfrwt beam="1">  1        2 0.98327501E+00 0.14914685E+02</pdfrwt>
<pdfrwt beam="2">  1       -2 0.99714330E+00 0.14914685E+02</pdfrwt>
<totfact>-0.35844694E-13</totfact>
</mgrwt>
</event>
<event>
 4    1  0.5167034E-019  0.1489944E+02  0.7818608E-02  0.1871153E+00
         -2   -1    0    0    0  501 -0.00000000000E+00  0.00000000000E+00  0.11857875360E+03  0.11857875363E+03  0.25500000000E-02 0.  1.
          2   -1    0    0  501    0  0.00000000000E+00 -0.00000000000E+00 -0.46802600508E+00  0.46803295176E+00  0.25500000000E-02 0. -1.
         31    1    1    2    0    0  0.45949007306E-01  0.19152595512E+00  0.58853879116E+02  0.59323492872E+02  0.74470750000E+01 0. -1.
        -31    1    1    2    0    0 -0.45949007306E-01 -0.19152595512E+00  0.59256848483E+02  0.59723293711E+02  0.74470750000E+01 0.  1.
<mgrwt>
<rscale>  0 0.14899444E+02</rscale>
<asrwt>0</asrwt>
<pdfrwt beam="2">  1        2 0.99400735E+00 0.14899444E+02</pdfrwt>
<pdfrwt beam="1">  1       -2 0.98436212E+00 0.14899444E+02</pdfrwt>
<totfact> 0.63028791E-13</totfact>
</mgrwt>
</event>
<event>
 4    1 -0.5167034E-019  0.1494320E+02  0.7818608E-02  0.1869807E+00
         -2   -1    0    0    0  501 -0.00000000000E+00  0.00000000000E+00  0.11962569380E+03  0.11962569383E+03  0.25500000000E-02 0.  1.
          2   -1    0    0  501    0  0.00000000000E+00 -0.00000000000E+00 -0.46665908953E+00  0.46666605656E+00  0.25500000000E-02 0. -1.
         31    1    1    2    0    0  0.18894830528E+00 -0.51808094518E+00  0.57581622041E+02  0.58063811727E+02  0.74470750000E+01 0.  1.
        -31    1    1    2    0    0 -0.18894830528E+00  0.51808094518E+00  0.61577412673E+02  0.62028548161E+02  0.74470750000E+01 0.  1.
<mgrwt>
<rscale>  0 0.14943204E+02</rscale>
<asrwt>0</asrwt>
<pdfrwt beam="2">  1        2 0.99114968E+00 0.14943204E+02</pdfrwt>
<pdfrwt beam="1">  1       -2 0.99300766E+00 0.14943204E+02</pdfrwt>
<totfact>-0.14033703E-13</totfact>
</mgrwt>
</event>
<event>
 4    1 -0.5167034E-019  0.1489532E+02  0.7818608E-02  0.1871280E+00
          2   -1    0    0  501    0  0.00000000000E+00  0.00000000000E+00  0.11836966818E+03  0.11836966821E+03  0.25500000000E-02 0. -1.
         -2   -1    0    0    0  501 -0.00000000000E+00 -0.00000000000E+00 -0.46859328438E+00  0.46860022265E+00  0.25500000000E-02 0.  1.
         31    1    1    2    0    0 -0.89434898703E-01  0.23325333384E-01  0.59056607035E+02  0.59524367306E+02  0.74470750000E+01 0. -1.
        -31    1    1    2    0    0  0.89434898703E-01 -0.23325333384E-01  0.58844467861E+02  0.59313901124E+02  0.74470750000E+01 0. -1.
<mgrwt>
<rscale>  0 0.14895321E+02</rscale>
<asrwt>0</asrwt>
<pdfrwt beam="1">  1        2 0.98263795E+00 0.14895321E+02</pdfrwt>
<pdfrwt beam="2">  1       -2 0.99520047E+00 0.14895321E+02</pdfrwt>
<totfact>-0.51175933E-13</totfact>
</mgrwt>
</event>
<event>
 4    1 -0.5167034E-019  0.1497813E+02  0.7818608E-02  0.1868737E+00
          2   -1    0    0  501    0  0.00000000000E+00  0.00000000000E+00  0.11967085417E+03  0.11967085420E+03  0.25500000000E-02 0.  1.
         -2   -1    0    0    0  501 -0.00000000000E+00 -0.00000000000E+00 -0.46866606475E+00  0.46867300194E+00  0.25500000000E-02 0. -1.
         31    1    1    2    0    0  0.25669852402E+00 -0.14059354663E+00  0.53698708892E+02  0.54213429364E+02  0.74470750000E+01 0. -1.
        -31    1    1    2    0    0 -0.25669852402E+00  0.14059354663E+00  0.65503479217E+02  0.65926097839E+02  0.74470750000E+01 0.  1.
<mgrwt>
<rscale>  0 0.14978129E+02</rscale>
<asrwt>0</asrwt>
<pdfrwt beam="1">  1        2 0.99339767E+00 0.14978129E+02</pdfrwt>
<pdfrwt beam="2">  1       -2 0.99539711E+00 0.14978129E+02</pdfrwt>
<totfact>-0.13477791E-13</totfact>
</mgrwt>
</event>
<event>
 4    1 -0.5167034E-019  0.1491632E+02  0.7818608E-02  0.1870633E+00
          2   -1    0    0  501    0  0.00000000000E+00  0.00000000000E+00  0.11884711709E+03  0.11884711712E+03  0.25500000000E-02 0. -1.
         -2   -1    0    0    0  501 -0.00000000000E+00 -0.00000000000E+00 -0.46802781818E+00  0.46803476483E+00  0.25500000000E-02 0.  1.
         31    1    1    2    0    0 -0.28380582322E-01 -0.33288955526E+00  0.61041887963E+02  0.61495387087E+02  0.74470750000E+01 0. -1.
        -31    1    1    2    0    0  0.28380582322E-01  0.33288955526E+00  0.57337201308E+02  0.57819764794E+02  0.74470750000E+01 0. -1.
<mgrwt>
<rscale>  0 0.14916323E+02</rscale>
<asrwt>0</asrwt>
<pdfrwt beam="1">  1        2 0.98658116E+00 0.14916323E+02</pdfrwt>
<pdfrwt beam="2">  1       -2 0.99402001E+00 0.14916323E+02</pdfrwt>
<totfact>-0.26608051E-13</totfact>
</mgrwt>
</event>
<event>
 4    1  0.5167034E-019  0.1490828E+02  0.7818608E-02  0.1870880E+00
         -2   -1    0    0    0  501 -0.00000000000E+00  0.00000000000E+00  0.11849131539E+03  0.11849131542E+03  0.25500000000E-02 0.  1.
          2   -1    0    0  501    0  0.00000000000E+00 -0.00000000000E+00 -0.46892694557E+00  0.46893387891E+00  0.25500000000E-02 0. -1.
         31    1    1    2    0    0  0.68066793365E-02 -0.17113053076E+00  0.61209921352E+02  0.61661517415E+02  0.74470750000E+01 0.  1.
        -31    1    1    2    0    0 -0.68066793365E-02  0.17113053076E+00  0.56812467095E+02  0.57298731883E+02  0.74470750000E+01 0. -1.
<mgrwt>
<rscale>  0 0.14908278E+02</rscale>
<asrwt>0</asrwt>
<pdfrwt beam="2">  1        2 0.99591033E+00 0.14908278E+02</pdfrwt>
<pdfrwt beam="1">  1       -2 0.98364657E+00 0.14908278E+02</pdfrwt>
<totfact> 0.61597993E-13</totfact>
</mgrwt>
</event>
<event>
 4    1  0.5167034E-019  0.1492000E+02  0.7818608E-02  0.1870520E+00
          2   -1    0    0  501    0  0.00000000000E+00  0.00000000000E+00  0.12009077373E+03  0.12009077376E+03  0.25500000000E-02 0.  1.
         -2   -1    0    0    0  501 -0.00000000000E+00 -0.00000000000E+00 -0.46340931428E+00  0.46341633016E+00  0.25500000000E-02 0. -1.
         31    1    1    2    0    0 -0.31702836251E+00  0.61974849161E-01  0.62215149663E+02  0.62660099916E+02  0.74470750000E+01 0.  1.
        -31    1    1    2    0    0  0.31702836251E+00 -0.61974849161E-01  0.57412214755E+02  0.57894090173E+02  0.74470750000E+01 0.  1.
<mgrwt>
<rscale>  0 0.14920001E+02</rscale>
<asrwt>0</asrwt>
<pdfrwt beam="1">  1        2 0.99682639E+00 0.14920001E+02</pdfrwt>
<pdfrwt beam="2">  1       -2 0.98428884E+00 0.14920001E+02</pdfrwt>
<totfact> 0.44983830E-13</totfact>
</mgrwt>
</event>
<event>
 4    1  0.5167034E-019  0.1493692E+02  0.7818608E-02  0.1870000E+00
         -2   -1    0    0    0  501 -0.00000000000E+00  0.00000000000E+00  0.11895087519E+03  0.11895087522E+03  0.25500000000E-02 0. -1.
          2   -1    0    0  501    0  0.00000000000E+00 -0.00000000000E+00 -0.46891158061E+00  0.46891851417E+00  0.25500000000E-02 0.  1.
         31    1    1    2    0    0 -0.34572463815E+00  0.25520642016E+00  0.62170631087E+02  0.62616538963E+02  0.74470750000E+01 0. -1.
        -31    1    1    2    0    0  0.34572463815E+00 -0.25520642016E+00  0.56311332525E+02  0.56803254772E+02  0.74470750000E+01 0.  1.
<mgrwt>
<rscale>  0 0.14936915E+02</rscale>
<asrwt>0</asrwt>
<pdfrwt beam="2">  1        2 0.99589299E+00 0.14936915E+02</pdfrwt>
<pdfrwt beam="1">  1       -2 0.98744641E+00 0.14936915E+02</pdfrwt>
<totfact> 0.18113894E-13</totfact>
</mgrwt>
</event>
<event>
 4    1 -0.5167034E-019  0.1496978E+02  0.7818608E-02  0.1868992E+00
         -2   -1    0    0    0  501 -0.00000000000E+00  0.00000000000E+00  0.11987170031E+03  0.11987170033E+03  0.25500000000E-02 0.  1.
          2   -1    0    0  501    0  0.00000000000E+00 -0.00000000000E+00 -0.46735902879E+00  0.46736598538E+00  0.25500000000E-02 0. -1.
         31    1    1    2    0    0 -0.18509908872E+00 -0.98810185352E-01  0.65502323834E+02  0.65924634082E+02  0.74470750000E+01 0.  1.
        -31    1    1    2    0    0  0.18509908872E+00  0.98810185352E-01  0.53902017442E+02  0.54414432236E+02  0.74470750000E+01 0. -1.
<mgrwt>
<rscale>  0 0.14969775E+02</rscale>
<asrwt>0</asrwt>
<pdfrwt beam="2">  1        2 0.99263842E+00 0.14969775E+02</pdfrwt>
<pdfrwt beam="1">  1       -2 0.99504760E+00 0.14969775E+02</pdfrwt>
<totfact>-0.14437367E-13</totfact>
</mgrwt>
</event>
<event>
 4    1 -0.5167034E-019  0.1494955E+02  0.7818608E-02  0.1869612E+00
         -2   -1    0    0    0  501 -0.00000000000E+00  0.00000000000E+00  0.12000474330E+03  0.12000474333E+03  0.25500000000E-02 0.  1.
          2   -1    0    0  501    0  0.00000000000E+00 -0.00000000000E+00 -0.46558009927E+00  0.46558708244E+00  0.25500000000E-02 0. -1.
         31    1    1    2    0    0 -0.35361006607E+00 -0.51677699920E+00  0.60943408002E+02  0.61399918595E+02  0.74470750000E+01 0.  1.
        -31    1    1    2    0    0  0.35361006607E+00  0.51677699920E+00  0.58595755198E+02  0.59070411814E+02  0.74470750000E+01 0.  1.
<mgrwt>
<rscale>  0 0.14949547E+02</rscale>
<asrwt>0</asrwt>
<pdfrwt beam="2">  1        2 0.98887901E+00 0.14949547E+02</pdfrwt>
<pdfrwt beam="1">  1       -2 0.99613298E+00 0.14949547E+02</pdfrwt>
<totfact>-0.18556010E-13</totfact>
</mgrwt>
</event>
<event>
 4    1 -0.5167034E-019  0.1498359E+02  0.7818608E-02  0.1868570E+00
          2   -1    0    0  501    0  0.00000000000E+00  0.00000000000E+00  0.11969098940E+03  0.11969098943E+03  0.25500000000E-02 0.  1.
         -2   -1    0    0    0  501 -0.00000000000E+00 -0.00000000000E+00 -0.46892878768E+00  0.46893572098E+00  0.25500000000E-02 0. -1.
         31    1    1    2    0    0  0.43163526895E+00  0.52456641528E+00  0.63255806947E+02  0.63696291238E+02  0.74470750000E+01 0.  1.
        -31    1    1    2    0    0 -0.43163526895E+00 -0.52456641528E+00  0.55966253665E+02  0.56463633910E+02  0.74470750000E+01 0. -1.
<mgrwt>
<rscale>  0 0.14983587E+02</rscale>
<asrwt>0</asrwt>
<pdfrwt beam="1">  1        2 0.99356633E+00 0.14983587E+02</pdfrwt>
<pdfrwt beam="2">  1       -2 0.99595358E+00 0.14983587E+02</pdfrwt>
<totfact>-0.12742208E-13</totfact>
</mgrwt>
</event>
<event>
 4    1 -0.5167034E-019  0.1494635E+02  0.7818608E-02  0.1869710E+00
         -2   -1    0    0    0  501 -0.00000000000E+00  0.00000000000E+00  0.11980682121E+03  0.11980682124E+03  0.25500000000E-02 0. -1.
          2   -1    0    0  501    0  0.00000000000E+00 -0.00000000000E+00 -0.46614973720E+00  0.46615671184E+00  0.25500000000E-02 0.  1.
         31    1    1    2    0    0 -0.12387036415E+00  0.59874106380E+00  0.58665961033E+02  0.59139899769E+02  0.74470750000E+01 0. -1.
        -31    1    1    2    0    0  0.12387036415E+00 -0.59874106380E+00  0.60674710442E+02  0.61133078182E+02  0.74470750000E+01 0.  1.
<mgrwt>
<rscale>  0 0.14946349E+02</rscale>
<asrwt>0</asrwt>
<pdfrwt beam="2">  1        2 0.99007788E+00 0.14946349E+02</pdfrwt>
<pdfrwt beam="1">  1       -2 0.99450113E+00 0.14946349E+02</pdfrwt>
<totfact>-0.17726214E-13</totfact>
</mgrwt>
</event>
<event>
 4    1 -0.5167034E-019  0.1499970E+02  0.7818608E-02  0.1868078E+00
         -2   -1    0    0    0  501 -0.00000000000E+00  0.00000000000E+00  0.11994203879E+03  0.11994203882E+03  0.25500000000E-02 0.  1.
          2   -1    0    0  501    0  0.00000000000E+00 -0.00000000000E+00 -0.46895425736E+00  0.46896119029E+00  0.25500000000E-02 0. -1.
         31    1    1    2    0    0 -0.61914404078E+00  0.60660227506E+00  0.58181658696E+02  0.58662727863E+02  0.74470750000E+01 0. -1.
        -31    1    1    2    0    0  0.61914404078E+00 -0.60660227506E+00  0.61291425835E+02  0.61748272143E+02  0.74470750000E+01 0.  1.
<mgrwt>
<rscale>  0 0.14999700E+02</rscale>
<asrwt>0</asrwt>
<pdfrwt beam="2">  1        2 0.99601560E+00 0.14999700E+02</pdfrwt>
<pdfrwt beam="1">  1       -2 0.99564240E+00 0.14999700E+02</pdfrwt>
<totfact>-0.10209476E-13</totfact>
</mgrwt>
</event>
<event>
 4    1 -0.5167034E-019  0.1497270E+02  0.7818608E-02  0.1868903E+00
         -2   -1    0    0    0  501 -0.00000000000E+00  0.00000000000E+00  0.11986630820E+03  0.11986630823E+03  0.25500000000E-02 0.  1.
          2   -1    0    0  501    0  0.00000000000E+00 -0.00000000000E+00 -0.46756270041E+00  0.46756965398E+00  0.25500000000E-02 0. -1.
         31    1    1    2    0    0  0.25013815019E+00 -0.72377362908E+00  0.59622562511E+02  0.60090725606E+02  0.74470750000E+01 0. -1.
        -31    1    1    2    0    0 -0.25013815019E+00  0.72377362908E+00  0.59776182987E+02  0.60243152274E+02  0.74470750000E+01 0. -1.
<mgrwt>
<rscale>  0 0.14972700E+02</rscale>
<asrwt>0</asrwt>
<pdfrwt beam="2">  1        2 0.99306914E+00 0.14972700E+02</pdfrwt>
<pdfrwt beam="1">  1       -2 0.99500470E+00 0.14972700E+02</pdfrwt>
<totfact>-0.14012092E-13</totfact>
</mgrwt>
</event>
<event>
 4    1 -0.5167034E-019  0.1492477E+02  0.7818608E-02  0.1870373E+00
         -2   -1    0    0    0  501 -0.00000000000E+00  0.00000000000E+00  0.11954124735E+03  0.11954124738E+03  0.25500000000E-02 0. -1.
          2   -1    0    0  501    0  0.00000000000E+00 -0.00000000000E+00 -0.46583738112E+00  0.46584436044E+00  0.25500000000E-02 0.  1.
         31    1    1    2    0    0  0.24140871422E-01 -0.46471506805E+00  0.60408679247E+02  0.60867758273E+02  0.74470750000E+01 0.  1.
        -31    1    1    2    0    0 -0.24140871422E-01  0.46471506805E+00  0.58666730721E+02  0.59139333463E+02  0.74470750000E+01 0. -1.
<mgrwt>
<rscale>  0 0.14924772E+02</rscale>
<asrwt>0</asrwt>
<pdfrwt beam="2">  1        2 0.98940851E+00 0.14924772E+02</pdfrwt>
<pdfrwt beam="1">  1       -2 0.99230260E+00 0.14924772E+02</pdfrwt>
<totfact>-0.13906353E-13</totfact>
</mgrwt>
</event>
<event>
 4    1 -0.5167034E-019  0.1495057E+02  0.7818608E-02  0.1869581E+00
         -2   -1    0    0    0  501 -0.00000000000E+00  0.00000000000E+00  0.12031973225E+03  0.12031973227E+03  0.25500000000E-02 0. -1.
          2   -1    0    0  501    0  0.00000000000E+00 -0.00000000000E+00 -0.46442487645E+00  0.46443187699E+00  0.25500000000E-02 0.  1.
         31    1    1    2    0    0 -0.61514567527E+00  0.18573676787E+00  0.60653532203E+02  0.61112378428E+02  0.74470750000E+01 0. -1.
        -31    1    1    2    0    0  0.61514567527E+00 -0.18573676787E+00  0.59201775165E+02  0.59671785721E+02  0.74470750000E+01 0.  1.
<mgrwt>
<rscale>  0 0.14950572E+02</rscale>
<asrwt>0</asrwt>
<pdfrwt beam="2">  1        2 0.98644480E+00 0.14950572E+02</pdfrwt>
<pdfrwt beam="1">  1       -2 0.99872798E+00 0.14950572E+02</pdfrwt>
<totfact>-0.11196091E-13</totfact>
</mgrwt>
</event>
<event>
 4    1 -0.5167034E-019  0.1497513E+02  0.7818608E-02  0.1868828E+00
          2   -1    0    0  501    0  0.00000000000E+00  0.00000000000E+00  0.11979565107E+03  0.11979565110E+03  0.25500000000E-02 0.  1.
         -2   -1    0    0    0  501 -0.00000000000E+00 -0.00000000000E+00 -0.46799024556E+00  0.46799719277E+00  0.25500000000E-02 0. -1.
         31    1    1    2    0    0  0.58680962556E+00  0.50636068157E+00  0.59159556125E+02  0.59631474522E+02  0.74470750000E+01 0.  1.
        -31    1    1    2    0    0 -0.58680962556E+00 -0.50636068157E+00  0.60168104704E+02  0.60632173773E+02  0.74470750000E+01 0. -1.
<mgrwt>
<rscale>  0 0.14975128E+02</rscale>
<asrwt>0</asrwt>
<pdfrwt beam="1">  1        2 0.99442399E+00 0.14975128E+02</pdfrwt>
<pdfrwt beam="2">  1       -2 0.99397139E+00 0.14975128E+02</pdfrwt>
<totfact>-0.12306756E-13</totfact>
</mgrwt>
</event>
<event>
 4    1  0.5167034E-019  0.1491493E+02  0.7818608E-02  0.1870676E+00
         -2   -1    0    0    0  501 -0.00000000000E+00  0.00000000000E+00  0.11850523960E+03  0.11850523963E+03  0.25500000000E-02 0. -1.
          2   -1    0    0  501    0  0.00000000000E+00 -0.00000000000E+00 -0.46929048198E+00  0.46929740994E+00  0.25500000000E-02 0.  1.
         31    1    1    2    0    0  0.18193128187E+00 -0.30497860274E+00  0.60370702291E+02  0.60829324607E+02  0.74470750000E+01 0. -1.
        -31    1    1    2    0    0 -0.18193128187E+00  0.30497860274E+00  0.57665246831E+02  0.58145212435E+02  0.74470750000E+01 0.  1.
<mgrwt>
<rscale>  0 0.14914931E+02</rscale>
<asrwt>0</asrwt>
<pdfrwt beam="2">  1        2 0.99667982E+00 0.14914931E+02</pdfrwt>
<pdfrwt beam="1">  1       -2 0.98376471E+00 0.14914931E+02</pdfrwt>
<totfact> 0.52741402E-13</totfact>
</mgrwt>
</event>
<event>
 4    1 -0.5167034E-019  0.1499195E+02  0.7818608E-02  0.1868314E+00
          2   -1    0    0  501    0  0.00000000000E+00  0.00000000000E+00  0.12008400481E+03  0.12008400484E+03  0.25500000000E-02 0. -1.
         -2   -1    0    0    0  501 -0.00000000000E+00 -0.00000000000E+00 -0.46791569946E+00  0.46792264777E+00  0.25500000000E-02 0.  1.
         31    1    1    2    0    0 -0.72773795728E+00  0.59779159566E-01  0.56234410742E+02  0.56730071864E+02  0.74470750000E+01 0. -1.
        -31    1    1    2    0    0  0.72773795728E+00 -0.59779159566E-01  0.63381678368E+02  0.63821855621E+02  0.74470750000E+01 0.  1.
<mgrwt>
<rscale>  0 0.14991946E+02</rscale>
<asrwt>0</asrwt>
<pdfrwt beam="1">  1        2 0.99680768E+00 0.14991946E+02</pdfrwt>
<pdfrwt beam="2">  1       -2 0.99382297E+00 0.14991946E+02</pdfrwt>
<totfact>-0.88605046E-14</totfact>
</mgrwt>
</event>
<event>
 4    1 -0.5167034E-019  0.1499068E+02  0.7818608E-02  0.1868353E+00
         -2   -1    0    0    0  501 -0.00000000000E+00  0.00000000000E+00  0.12029533374E+03  0.12029533376E+03  0.25500000000E-02 0.  1.
          2   -1    0    0  501    0  0.00000000000E+00 -0.00000000000E+00 -0.46701475894E+00  0.46702172066E+00  0.25500000000E-02 0. -1.
         31    1    1    2    0    0  0.39360736619E+00  0.75004943354E+00  0.60403600554E+02  0.60866833225E+02  0.74470750000E+01 0.  1.
        -31    1    1    2    0    0 -0.39360736619E+00 -0.75004943354E+00  0.59424718422E+02  0.59895522258E+02  0.74470750000E+01 0.  1.
<mgrwt>
<rscale>  0 0.14990680E+02</rscale>
<asrwt>0</asrwt>
<pdfrwt beam="2">  1        2 0.99192362E+00 0.14990680E+02</pdfrwt>
<pdfrwt beam="1">  1       -2 0.99854765E+00 0.14990680E+02</pdfrwt>
<totfact>-0.69161187E-14</totfact>
</mgrwt>
</event>
<event>
 4    1  0.5167034E-019  0.1492827E+02  0.7818608E-02  0.1870265E+00
          2   -1    0    0  501    0  0.00000000000E+00  0.00000000000E+00  0.11981558757E+03  0.11981558760E+03  0.25500000000E-02 0. -1.
         -2   -1    0    0    0  501 -0.00000000000E+00 -0.00000000000E+00 -0.46498867950E+00  0.46499567155E+00  0.25500000000E-02 0.  1.
         31    1    1    2    0    0  0.26983314078E+00  0.13404041043E+00  0.62934360614E+02  0.63374154422E+02  0.74470750000E+01 0. -1.
        -31    1    1    2    0    0 -0.26983314078E+00 -0.13404041043E+00  0.56416238276E+02  0.56906428846E+02  0.74470750000E+01 0.  1.
<mgrwt>
<rscale>  0 0.14928270E+02</rscale>
<asrwt>0</asrwt>
<pdfrwt beam="1">  1        2 0.99456402E+00 0.14928270E+02</pdfrwt>
<pdfrwt beam="2">  1       -2 0.98762170E+00 0.14928270E+02</pdfrwt>
<totfact> 0.19315359E-13</totfact>
</mgrwt>
</event>
<event>
 4    1  0.5167034E-019  0.1491810E+02  0.7818608E-02  0.1870578E+00
          2   -1    0    0  501    0  0.00000000000E+00  0.00000000000E+00  0.11984088508E+03  0.11984088511E+03  0.25500000000E-02 0.  1.
         -2   -1    0    0    0  501 -0.00000000000E+00 -0.00000000000E+00 -0.46425738660E+00  0.46426438967E+00  0.25500000000E-02 0. -1.
         31    1    1    2    0    0 -0.41482903065E+00 -0.79862447978E-01  0.59746359678E+02  0.60210172579E+02  0.74470750000E+01 0. -1.
        -31    1    1    2    0    0  0.41482903065E+00  0.79862447978E-01  0.59630268015E+02  0.60094976918E+02  0.74470750000E+01 0.  1.
<mgrwt>
<rscale>  0 0.14918102E+02</rscale>
<asrwt>0</asrwt>
<pdfrwt beam="1">  1        2 0.99476715E+00 0.14918102E+02</pdfrwt>
<pdfrwt beam="2">  1       -2 0.98607528E+00 0.14918102E+02</pdfrwt>
<totfact> 0.35587334E-13</totfact>
</mgrwt>
</event>
<event>
 4    1  0.5167034E-019  0.1491931E+02  0.7818608E-02  0.1870541E+00
          2   -1    0    0  501    0  0.00000000000E+00  0.00000000000E+00  0.11942233769E+03  0.11942233771E+03  0.25500000000E-02 0. -1.
         -2   -1    0    0    0  501 -0.00000000000E+00 -0.00000000000E+00 -0.46596005870E+00  0.46596703617E+00  0.25500000000E-02 0.  1.
         31    1    1    2    0    0 -0.28374812151E+00 -0.12196766334E+00  0.61917471157E+02  0.62364473458E+02  0.74470750000E+01 0. -1.
        -31    1    1    2    0    0  0.28374812151E+00  0.12196766334E+00  0.57038906471E+02  0.57523831293E+02  0.74470750000E+01 0. -1.
<mgrwt>
<rscale>  0 0.14919311E+02</rscale>
<asrwt>0</asrwt>
<pdfrwt beam="1">  1        2 0.99132039E+00 0.14919311E+02</pdfrwt>
<pdfrwt beam="2">  1       -2 0.98966423E+00 0.14919311E+02</pdfrwt>
<totfact> 0.37763195E-14</totfact>
</mgrwt>
</event>
<event>
 4    1 -0.5167034E-019  0.1493975E+02  0.7818608E-02  0.1869913E+00
         -2   -1    0    0    0  501 -0.00000000000E+00  0.00000000000E+00  0.11995581117E+03  0.11995581120E+03  0.25500000000E-02 0.  1.
          2   -1    0    0  501    0  0.00000000000E+00 -0.00000000000E+00 -0.46515949177E+00  0.46516648126E+00  0.25500000000E-02 0. -1.
         31    1    1    2    0    0  0.21278623619E+00 -0.38951697590E+00  0.56696398671E+02  0.57185116506E+02  0.74470750000E+01 0. -1.
        -31    1    1    2    0    0 -0.21278623619E+00  0.38951697590E+00  0.62794253010E+02  0.63235861175E+02  0.74470750000E+01 0.  1.
<mgrwt>
<rscale>  0 0.14939747E+02</rscale>
<asrwt>0</asrwt>
<pdfrwt beam="2">  1        2 0.98798756E+00 0.14939747E+02</pdfrwt>
<pdfrwt beam="1">  1       -2 0.99572490E+00 0.14939747E+02</pdfrwt>
<totfact>-0.21533312E-13</totfact>
</mgrwt>
</event>
<event>
 4    1  0.5167034E-019  0.1490918E+02  0.7818608E-02  0.1870853E+00
          2   -1    0    0  501    0  0.00000000000E+00  0.00000000000E+00  0.12034412719E+03  0.12034412722E+03  0.25500000000E-02 0.  1.
         -2   -1    0    0    0  501 -0.00000000000E+00 -0.00000000000E+00 -0.46176294555E+00  0.46176998645E+00  0.25500000000E-02 0. -1.
         31    1    1    2    0    0 -0.15825633920E+00 -0.26198845180E+00  0.58845761290E+02  0.59315902006E+02  0.74470750000E+01 0. -1.
        -31    1    1    2    0    0  0.15825633920E+00  0.26198845180E+00  0.61036602953E+02  0.61489995195E+02  0.74470750000E+01 0. -1.
<mgrwt>
<rscale>  0 0.14909176E+02</rscale>
<asrwt>0</asrwt>
<pdfrwt beam="1">  1        2 0.99890768E+00 0.14909176E+02</pdfrwt>
<pdfrwt beam="2">  1       -2 0.98081329E+00 0.14909176E+02</pdfrwt>
<totfact> 0.40734066E-13</totfact>
</mgrwt>
</event>
<event>
 4    1  0.5167034E-019  0.1490133E+02  0.7818608E-02  0.1871094E+00
          2   -1    0    0  501    0  0.00000000000E+00  0.00000000000E+00  0.11933193818E+03  0.11933193821E+03  0.25500000000E-02 0. -1.
         -2   -1    0    0    0  501 -0.00000000000E+00 -0.00000000000E+00 -0.46518984084E+00  0.46519682987E+00  0.25500000000E-02 0.  1.
         31    1    1    2    0    0  0.22904977065E+00 -0.28635111405E-01  0.59551465805E+02  0.60015742012E+02  0.74470750000E+01 0. -1.
        -31    1    1    2    0    0 -0.22904977065E+00  0.28635111405E-01  0.59315282536E+02  0.59781393026E+02  0.74470750000E+01 0. -1.
<mgrwt>
<rscale>  0 0.14901332E+02</rscale>
<asrwt>0</asrwt>
<pdfrwt beam="1">  1        2 0.99056653E+00 0.14901332E+02</pdfrwt>
<pdfrwt beam="2">  1       -2 0.98803182E+00 0.14901332E+02</pdfrwt>
<totfact> 0.21120242E-13</totfact>
</mgrwt>
</event>
<event>
 4    1  0.5167034E-019  0.1490314E+02  0.7818608E-02  0.1871039E+00
          2   -1    0    0  501    0  0.00000000000E+00  0.00000000000E+00  0.11980911577E+03  0.11980911580E+03  0.25500000000E-02 0. -1.
         -2   -1    0    0    0  501 -0.00000000000E+00 -0.00000000000E+00 -0.46344928649E+00  0.46345630177E+00  0.25500000000E-02 0.  1.
         31    1    1    2    0    0 -0.22084700533E+00  0.33909148049E-01  0.58619871655E+02  0.59091439331E+02  0.74470750000E+01 0.  1.
        -31    1    1    2    0    0  0.22084700533E+00 -0.33909148049E-01  0.60725794827E+02  0.61181132767E+02  0.74470750000E+01 0. -1.
<mgrwt>
<rscale>  0 0.14903137E+02</rscale>
<asrwt>0</asrwt>
<pdfrwt beam="1">  1        2 0.99449778E+00 0.14903137E+02</pdfrwt>
<pdfrwt beam="2">  1       -2 0.98436452E+00 0.14903137E+02</pdfrwt>
<totfact> 0.60411616E-13</totfact>
</mgrwt>
</event>
<event>
 4    1 -0.5167034E-019  0.1495455E+02  0.7818608E-02  0.1869459E+00
          2   -1    0    0  501    0  0.00000000000E+00  0.00000000000E+00  0.11902905983E+03  0.11902905985E+03  0.25500000000E-02 0.  1.
         -2   -1    0    0    0  501 -0.00000000000E+00 -0.00000000000E+00 -0.46971070344E+00  0.46971762520E+00  0.25500000000E-02 0. -1.
         31    1    1    2    0    0 -0.41526081825E+00  0.48624933608E+00  0.60914033994E+02  0.61370899809E+02  0.74470750000E+01 0. -1.
        -31    1    1    2    0    0  0.41526081825E+00 -0.48624933608E+00  0.57645315129E+02  0.58127877669E+02  0.74470750000E+01 0. -1.
<mgrwt>
<rscale>  0 0.14954550E+02</rscale>
<asrwt>0</asrwt>
<pdfrwt beam="1">  1        2 0.98809950E+00 0.14954550E+02</pdfrwt>
<pdfrwt beam="2">  1       -2 0.99758608E+00 0.14954550E+02</pdfrwt>
<totfact>-0.15160360E-13</totfact>
</mgrwt>
</event>
<event>
 4    1 -0.5167034E-019  0.1498381E+02  0.7818608E-02  0.1868563E+00
          2   -1    0    0  501    0  0.00000000000E+00  0.00000000000E+00  0.12001142875E+03  0.12001142878E+03  0.25500000000E-02 0.  1.
         -2   -1    0    0    0  501 -0.00000000000E+00 -0.00000000000E+00 -0.46769032933E+00  0.46769728099E+00  0.25500000000E-02 0. -1.
         31    1    1    2    0    0 -0.60825148120E+00  0.24710460706E+00  0.55843891849E+02  0.56342082083E+02  0.74470750000E+01 0. -1.
        -31    1    1    2    0    0  0.60825148120E+00 -0.24710460706E+00  0.63699846574E+02  0.64137043977E+02  0.74470750000E+01 0. -1.
<mgrwt>
<rscale>  0 0.14983805E+02</rscale>
<asrwt>0</asrwt>
<pdfrwt beam="1">  1        2 0.99620571E+00 0.14983805E+02</pdfrwt>
<pdfrwt beam="2">  1       -2 0.99334383E+00 0.14983805E+02</pdfrwt>
<totfact>-0.93720550E-14</totfact>
</mgrwt>
</event>
<event>
 4    1 -0.5167034E-019  0.1493210E+02  0.7818608E-02  0.1870147E+00
         -2   -1    0    0    0  501 -0.00000000000E+00  0.00000000000E+00  0.12042435528E+03  0.12042435531E+03  0.25500000000E-02 0. -1.
          2   -1    0    0  501    0  0.00000000000E+00 -0.00000000000E+00 -0.46287569832E+00  0.46288272229E+00  0.25500000000E-02 0.  1.
         31    1    1    2    0    0 -0.30149618792E+00  0.43031017526E+00  0.60655216084E+02  0.61112930146E+02  0.74470750000E+01 0. -1.
        -31    1    1    2    0    0  0.30149618792E+00 -0.43031017526E+00  0.59306263502E+02  0.59774307888E+02  0.74470750000E+01 0. -1.
<mgrwt>
<rscale>  0 0.14932104E+02</rscale>
<asrwt>0</asrwt>
<pdfrwt beam="2">  1        2 0.98317026E+00 0.14932104E+02</pdfrwt>
<pdfrwt beam="1">  1       -2 0.99958026E+00 0.14932104E+02</pdfrwt>
<totfact>-0.67195560E-14</totfact>
</mgrwt>
</event>
<event>
 4    1 -0.5167034E-019  0.1490861E+02  0.7818608E-02  0.1870870E+00
         -2   -1    0    0    0  501 -0.00000000000E+00  0.00000000000E+00  0.11995599231E+03  0.11995599234E+03  0.25500000000E-02 0.  1.
          2   -1    0    0  501    0  0.00000000000E+00 -0.00000000000E+00 -0.46322200776E+00  0.46322902648E+00  0.25500000000E-02 0. -1.
         31    1    1    2    0    0  0.14934749075E-01  0.37164774524E-01  0.57114799077E+02  0.57598270842E+02  0.74470750000E+01 0. -1.
        -31    1    1    2    0    0 -0.14934749075E-01 -0.37164774524E-01  0.62377971224E+02  0.62820950521E+02  0.74470750000E+01 0.  1.
<mgrwt>
<rscale>  0 0.14908612E+02</rscale>
<asrwt>0</asrwt>
<pdfrwt beam="2">  1        2 0.98388829E+00 0.14908612E+02</pdfrwt>
<pdfrwt beam="1">  1       -2 0.99571038E+00 0.14908612E+02</pdfrwt>
<totfact>-0.40214195E-13</totfact>
</mgrwt>
</event>
<event>
 4    1 -0.5167034E-019  0.1498904E+02  0.7818608E-02  0.1868403E+00
         -2   -1    0    0    0  501 -0.00000000000E+00  0.00000000000E+00  0.12019106638E+03  0.12019106641E+03  0.25500000000E-02 0.  1.
          2   -1    0    0  501    0  0.00000000000E+00 -0.00000000000E+00 -0.46731758170E+00  0.46732453891E+00  0.25500000000E-02 0. -1.
         31    1    1    2    0    0 -0.82947626615E+00 -0.81885708826E-01  0.60819683835E+02  0.61279585541E+02  0.74470750000E+01 0. -1.
        -31    1    1    2    0    0  0.82947626615E+00  0.81885708826E-01  0.58904064961E+02  0.59378805403E+02  0.74470750000E+01 0.  1.
<mgrwt>
<rscale>  0 0.14989039E+02</rscale>
<asrwt>0</asrwt>
<pdfrwt beam="2">  1        2 0.99256097E+00 0.14989039E+02</pdfrwt>
<pdfrwt beam="1">  1       -2 0.99768800E+00 0.14989039E+02</pdfrwt>
<totfact>-0.96811117E-14</totfact>
</mgrwt>
</event>
<event>
 4    1 -0.5167034E-019  0.1492283E+02  0.7818608E-02  0.1870432E+00
          2   -1    0    0  501    0  0.00000000000E+00  0.00000000000E+00  0.11859280950E+03  0.11859280953E+03  0.25500000000E-02 0.  1.
         -2   -1    0    0    0  501 -0.00000000000E+00 -0.00000000000E+00 -0.46944098408E+00  0.46944790982E+00  0.25500000000E-02 0. -1.
         31    1    1    2    0    0  0.26611083181E+00 -0.16063632982E+00  0.56330345085E+02  0.56821328059E+02  0.74470750000E+01 0. -1.
        -31    1    1    2    0    0 -0.26611083181E+00  0.16063632982E+00  0.61793023433E+02  0.62240929380E+02  0.74470750000E+01 0.  1.
<mgrwt>
<rscale>  0 0.14922833E+02</rscale>
<asrwt>0</asrwt>
<pdfrwt beam="1">  1        2 0.98449005E+00 0.14922833E+02</pdfrwt>
<pdfrwt beam="2">  1       -2 0.99700109E+00 0.14922833E+02</pdfrwt>
<totfact>-0.30214103E-13</totfact>
</mgrwt>
</event>
<event>
 4    1 -0.5167034E-019  0.1491443E+02  0.7818608E-02  0.1870691E+00
          2   -1    0    0  501    0  0.00000000000E+00  0.00000000000E+00  0.11856938811E+03  0.11856938814E+03  0.25500000000E-02 0.  1.
         -2   -1    0    0    0  501 -0.00000000000E+00 -0.00000000000E+00 -0.46900481584E+00  0.46901174802E+00  0.25500000000E-02 0. -1.
         31    1    1    2    0    0  0.29014448520E+00 -0.18985491219E+00  0.57647786597E+02  0.58127845774E+02  0.74470750000E+01 0. -1.
        -31    1    1    2    0    0 -0.29014448520E+00  0.18985491219E+00  0.60452596701E+02  0.60910554115E+02  0.74470750000E+01 0. -1.
<mgrwt>
<rscale>  0 0.14914426E+02</rscale>
<asrwt>0</asrwt>
<pdfrwt beam="1">  1        2 0.98429278E+00 0.14914426E+02</pdfrwt>
<pdfrwt beam="2">  1       -2 0.99607764E+00 0.14914426E+02</pdfrwt>
<totfact>-0.36269319E-13</totfact>
</mgrwt>
</event>
<event>
 4    1 -0.5167034E-019  0.1495176E+02  0.7818608E-02  0.1869544E+00
         -2   -1    0    0    0  501 -0.00000000000E+00  0.00000000000E+00  0.11956634894E+03  0.11956634897E+03  0.25500000000E-02 0. -1.
          2   -1    0    0  501    0  0.00000000000E+00 -0.00000000000E+00 -0.46742541495E+00  0.46743237055E+00  0.25500000000E-02 0.  1.
         31    1    1    2    0    0  0.54115090593E+00  0.10718861820E+00  0.62393593349E+02  0.62838871336E+02  0.74470750000E+01 0. -1.
        -31    1    1    2    0    0 -0.54115090593E+00 -0.10718861820E+00  0.56705330181E+02  0.57194910007E+02  0.74470750000E+01 0.  1.
<mgrwt>
<rscale>  0 0.14951758E+02</rscale>
<asrwt>0</asrwt>
<pdfrwt beam="2">  1        2 0.99276902E+00 0.14951758E+02</pdfrwt>
<pdfrwt beam="1">  1       -2 0.99252329E+00 0.14951758E+02</pdfrwt>
<totfact>-0.11189020E-13</totfact>
</mgrwt>
</event>
<event>
 4    1 -0.5167034E-019  0.1490137E+02  0.7818608E-02  0.1871093E+00
          2   -1    0    0  501    0  0.00000000000E+00  0.00000000000E+00  0.11832344431E+03  0.11832344434E+03  0.25500000000E-02 0.  1.
         -2   -1    0    0    0  501 -0.00000000000E+00 -0.00000000000E+00 -0.46915719808E+00  0.46916412801E+00  0.25500000000E-02 0. -1.
         31    1    1    2    0    0 -0.18587603879E+00 -0.90721299541E-01  0.59763342364E+02  0.60225898057E+02  0.74470750000E+01 0.  1.
        -31    1    1    2    0    0  0.18587603879E+00  0.90721299541E-01  0.58090944749E+02  0.58566710409E+02  0.74470750000E+01 0. -1.
<mgrwt>
<rscale>  0 0.14901370E+02</rscale>
<asrwt>0</asrwt>
<pdfrwt beam="1">  1        2 0.98226040E+00 0.14901370E+02</pdfrwt>
<pdfrwt beam="2">  1       -2 0.99639183E+00 0.14901370E+02</pdfrwt>
<totfact>-0.49016566E-13</totfact>
</mgrwt>
</event>
<event>
 4    1 -0.5167034E-019  0.1493443E+02  0.7818608E-02  0.1870076E+00
          2   -1    0    0  501    0  0.00000000000E+00  0.00000000000E+00  0.11895298686E+03  0.11895298689E+03  0.25500000000E-02 0. -1.
         -2   -1    0    0    0  501 -0.00000000000E+00 -0.00000000000E+00 -0.46874734639E+00  0.46875428238E+00  0.25500000000E-02 0.  1.
         31    1    1    2    0    0 -0.32370172829E+00 -0.21351139583E+00  0.56144953187E+02  0.56638017835E+02  0.74470750000E+01 0.  1.
        -31    1    1    2    0    0  0.32370172829E+00  0.21351139583E+00  0.62339286330E+02  0.62783723337E+02  0.74470750000E+01 0. -1.
<mgrwt>
<rscale>  0 0.14934432E+02</rscale>
<asrwt>0</asrwt>
<pdfrwt beam="1">  1        2 0.98746251E+00 0.14934432E+02</pdfrwt>
<pdfrwt beam="2">  1       -2 0.99554563E+00 0.14934432E+02</pdfrwt>
<totfact>-0.23389026E-13</totfact>
</mgrwt>
</event>
<event>
 4    1  0.5167034E-019  0.1490040E+02  0.7818608E-02  0.1871123E+00
         -2   -1    0    0    0  501 -0.00000000000E+00  0.00000000000E+00  0.11854261854E+03  0.11854261857E+03  0.25500000000E-02 0.  1.
          2   -1    0    0  501    0  0.00000000000E+00 -0.00000000000E+00 -0.46822908143E+00  0.46823602509E+00  0.25500000000E-02 0. -1.
         31    1    1    2    0    0 -0.16620328908E+00  0.13709559016E+00  0.59141766842E+02  0.59609176559E+02  0.74470750000E+01 0. -1.
        -31    1    1    2    0    0  0.16620328908E+00 -0.13709559016E+00  0.58932622617E+02  0.59401678035E+02  0.74470750000E+01 0. -1.
<mgrwt>
<rscale>  0 0.14900405E+02</rscale>
<asrwt>0</asrwt>
<pdfrwt beam="2">  1        2 0.99443575E+00 0.14900405E+02</pdfrwt>
<pdfrwt beam="1">  1       -2 0.98406501E+00 0.14900405E+02</pdfrwt>
<totfact> 0.65538490E-13</totfact>
</mgrwt>
</event>
<event>
 4    1 -0.5167034E-019  0.1492060E+02  0.7818608E-02  0.1870501E+00
         -2   -1    0    0    0  501 -0.00000000000E+00  0.00000000000E+00  0.12039725613E+03  0.12039725616E+03  0.25500000000E-02 0.  1.
          2   -1    0    0  501    0  0.00000000000E+00 -0.00000000000E+00 -0.46226673080E+00  0.46227376402E+00  0.25500000000E-02 0. -1.
         31    1    1    2    0    0 -0.19252228160E+00 -0.23019752473E+00  0.57316732230E+02  0.57799280059E+02  0.74470750000E+01 0. -1.
        -31    1    1    2    0    0  0.19252228160E+00  0.23019752473E+00  0.62618257171E+02  0.63060249864E+02  0.74470750000E+01 0.  1.
<mgrwt>
<rscale>  0 0.14920600E+02</rscale>
<asrwt>0</asrwt>
<pdfrwt beam="2">  1        2 0.98188090E+00 0.14920600E+02</pdfrwt>
<pdfrwt beam="1">  1       -2 0.99935115E+00 0.14920600E+02</pdfrwt>
<totfact>-0.12692201E-13</totfact>
</mgrwt>
</event>
<event>
 4    1  0.5167034E-019  0.1491967E+02  0.7818608E-02  0.1870530E+00
         -2   -1    0    0    0  501 -0.00000000000E+00  0.00000000000E+00  0.11839773003E+03  0.11839773006E+03  0.25500000000E-02 0.  1.
          2   -1    0    0  501    0  0.00000000000E+00 -0.00000000000E+00 -0.47001536942E+00  0.47002228670E+00  0.25500000000E-02 0. -1.
         31    1    1    2    0    0  0.25058110850E+00 -0.32444167549E+00  0.60150572287E+02  0.60611206272E+02  0.74470750000E+01 0.  1.
        -31    1    1    2    0    0 -0.25058110850E+00  0.32444167549E+00  0.57777142374E+02  0.58256546072E+02  0.74470750000E+01 0. -1.
<mgrwt>
<rscale>  0 0.14919674E+02</rscale>
<asrwt>0</asrwt>
<pdfrwt beam="2">  1        2 0.99820965E+00 0.14919674E+02</pdfrwt>
<pdfrwt beam="1">  1       -2 0.98288174E+00 0.14919674E+02</pdfrwt>
<totfact> 0.41121742E-13</totfact>
</mgrwt>
</event>
<event>
 4    1 -0.5167034E-019  0.1491695E+02  0.7818608E-02  0.1870613E+00
          2   -1    0    0  501    0  0.00000000000E+00  0.00000000000E+00  0.11884474369E+03  0.11884474372E+03  0.25500000000E-02 0. -1.
         -2   -1    0    0    0  501 -0.00000000000E+00 -0.00000000000E+00 -0.46807666720E+00  0.46808361313E+00  0.25500000000E-02 0.  1.
         31    1    1    2    0    0  0.12533785454E+00  0.56715688414E-01  0.62296594086E+02  0.62740285997E+02  0.74470750000E+01 0. -1.
        -31    1    1    2    0    0 -0.12533785454E+00 -0.56715688414E-01  0.56080072937E+02  0.56572541334E+02  0.74470750000E+01 0.  1.
<mgrwt>
<rscale>  0 0.14916952E+02</rscale>
<asrwt>0</asrwt>
<pdfrwt beam="1">  1        2 0.98656194E+00 0.14916952E+02</pdfrwt>
<pdfrwt beam="2">  1       -2 0.99412327E+00 0.14916952E+02</pdfrwt>
<totfact>-0.26847880E-13</totfact>
</mgrwt>
</event>
<event>
 4    1 -0.5167034E-019  0.1494956E+02  0.7818608E-02  0.1869611E+00
          2   -1    0    0  501    0  0.00000000000E+00  0.00000000000E+00  0.11935610860E+03  0.11935610863E+03  0.25500000000E-02 0. -1.
         -2   -1    0    0    0  501 -0.00000000000E+00 -0.00000000000E+00 -0.46811131945E+00  0.46811826487E+00  0.25500000000E-02 0.  1.
         31    1    1    2    0    0 -0.15394999295E+00  0.61758133079E+00  0.58712463309E+02  0.59186293862E+02  0.74470750000E+01 0.  1.
        -31    1    1    2    0    0  0.15394999295E+00 -0.61758133079E+00  0.60175533974E+02  0.60637933032E+02  0.74470750000E+01 0. -1.
<mgrwt>
<rscale>  0 0.14949564E+02</rscale>
<asrwt>0</asrwt>
<pdfrwt beam="1">  1        2 0.99079054E+00 0.14949564E+02</pdfrwt>
<pdfrwt beam="2">  1       -2 0.99421329E+00 0.14949564E+02</pdfrwt>
<totfact>-0.16474590E-13</totfact>
</mgrwt>
</event>
<event>
 4    1  0.5167034E-019  0.1492806E+02  0.7818608E-02  0.1870272E+00
          2   -1    0    0  501    0  0.00000000000E+00  0.00000000000E+00  0.12001716962E+03  0.12001716964E+03  0.25500000000E-02 0.  1.
         -2   -1    0    0    0  501 -0.00000000000E+00 -0.00000000000E+00 -0.46419477569E+00  0.46420177970E+00  0.25500000000E-02 0. -1.
         31    1    1    2    0    0  0.10630022544E+00 -0.46309718406E+00  0.58448310448E+02  0.58922743308E+02  0.74470750000E+01 0.  1.
        -31    1    1    2    0    0 -0.10630022544E+00  0.46309718406E+00  0.61104664395E+02  0.61558628116E+02  0.74470750000E+01 0.  1.
<mgrwt>
<rscale>  0 0.14928063E+02</rscale>
<asrwt>0</asrwt>
<pdfrwt beam="1">  1        2 0.99622428E+00 0.14928063E+02</pdfrwt>
<pdfrwt beam="2">  1       -2 0.98594840E+00 0.14928063E+02</pdfrwt>
<totfact> 0.31024242E-13</totfact>
</mgrwt>
</event>
<event>
 4    1  0.5167034E-019  0.1494781E+02  0.7818608E-02  0.1869665E+00
         -2   -1    0    0    0  501 -0.00000000000E+00  0.00000000000E+00  0.11873484466E+03  0.11873484469E+03  0.25500000000E-02 0. -1.
          2   -1    0    0  501    0  0.00000000000E+00 -0.00000000000E+00 -0.47045031054E+00  0.47045722142E+00  0.25500000000E-02 0.  1.
         31    1    1    2    0    0  0.65514800973E-01 -0.32962847325E+00  0.63407333539E+02  0.63844042946E+02  0.74470750000E+01 0. -1.
        -31    1    1    2    0    0 -0.65514800973E-01  0.32962847325E+00  0.54857060810E+02  0.55361258963E+02  0.74470750000E+01 0.  1.
<mgrwt>
<rscale>  0 0.14947810E+02</rscale>
<asrwt>0</asrwt>
<pdfrwt beam="2">  1        2 0.99914093E+00 0.14947810E+02</pdfrwt>
<pdfrwt beam="1">  1       -2 0.98567284E+00 0.14947810E+02</pdfrwt>
<totfact> 0.10618606E-13</totfact>
</mgrwt>
</event>
<event>
 4    1  0.5167034E-019  0.1491870E+02  0.7818608E-02  0.1870560E+00
          2   -1    0    0  501    0  0.00000000000E+00  0.00000000000E+00  0.11999897183E+03  0.11999897186E+03  0.25500000000E-02 0.  1.
         -2   -1    0    0    0  501 -0.00000000000E+00 -0.00000000000E+00 -0.46368274822E+00  0.46368975996E+00  0.25500000000E-02 0. -1.
         31    1    1    2    0    0  0.20152150722E+00  0.24298357403E+00  0.62098103675E+02  0.62543849082E+02  0.74470750000E+01 0.  1.
        -31    1    1    2    0    0 -0.20152150722E+00 -0.24298357403E+00  0.57437185407E+02  0.57918812535E+02  0.74470750000E+01 0. -1.
<mgrwt>
<rscale>  0 0.14918697E+02</rscale>
<asrwt>0</asrwt>
<pdfrwt beam="1">  1        2 0.99606957E+00 0.14918697E+02</pdfrwt>
<pdfrwt beam="2">  1       -2 0.98486448E+00 0.14918697E+02</pdfrwt>
<totfact> 0.44098893E-13</totfact>
</mgrwt>
</event>
<event>
 4    1 -0.5167034E-019  0.1494321E+02  0.7818608E-02  0.1869806E+00
         -2   -1    0    0    0  501 -0.00000000000E+00  0.00000000000E+00  0.11966636730E+03  0.11966636733E+03  0.25500000000E-02 0.  1.
          2   -1    0    0  501    0  0.00000000000E+00 -0.00000000000E+00 -0.46650077294E+00  0.46650774233E+00  0.25500000000E-02 0. -1.
         31    1    1    2    0    0  0.35140376477E+00 -0.90688222089E-01  0.63490803585E+02  0.63927089523E+02  0.74470750000E+01 0. -1.
        -31    1    1    2    0    0 -0.35140376477E+00  0.90688222089E-01  0.55709062943E+02  0.56205785548E+02  0.74470750000E+01 0. -1.
<mgrwt>
<rscale>  0 0.14943209E+02</rscale>
<asrwt>0</asrwt>
<pdfrwt beam="2">  1        2 0.99081605E+00 0.14943209E+02</pdfrwt>
<pdfrwt beam="1">  1       -2 0.99334266E+00 0.14943209E+02</pdfrwt>
<totfact>-0.15208202E-13</totfact>
</mgrwt>
</event>
<event>
 4    1  0.5167034E-019  0.1491763E+02  0.7818608E-02  0.1870592E+00
          2   -1    0    0  501    0  0.00000000000E+00  0.00000000000E+00  0.11992753180E+03  0.11992753183E+03  0.25500000000E-02 0. -1.
         -2   -1    0    0    0  501 -0.00000000000E+00 -0.00000000000E+00 -0.46389273280E+00  0.46389974137E+00  0.25500000000E-02 0.  1.
         31    1    1    2    0    0 -0.31520154504E+00 -0.27279270087E+00  0.59447624456E+02  0.59913710847E+02  0.74470750000E+01 0.  1.
        -31    1    1    2    0    0  0.31520154504E+00  0.27279270087E+00  0.60016014614E+02  0.60477720725E+02  0.74470750000E+01 0. -1.
<mgrwt>
<rscale>  0 0.14917632E+02</rscale>
<asrwt>0</asrwt>
<pdfrwt beam="1">  1        2 0.99548059E+00 0.14917632E+02</pdfrwt>
<pdfrwt beam="2">  1       -2 0.98530650E+00 0.14917632E+02</pdfrwt>
<totfact> 0.42050240E-13</totfact>
</mgrwt>
</event>
<event>
 4    1 -0.5167034E-019  0.1492503E+02  0.7818608E-02  0.1870365E+00
          2   -1    0    0  501    0  0.00000000000E+00  0.00000000000E+00  0.11874054440E+03  0.11874054442E+03  0.25500000000E-02 0. -1.
         -2   -1    0    0    0  501 -0.00000000000E+00 -0.00000000000E+00 -0.46899472816E+00  0.46900166049E+00  0.25500000000E-02 0.  1.
         31    1    1    2    0    0  0.95073100678E-01  0.59314422960E-01  0.55409744850E+02  0.55908061203E+02  0.74470750000E+01 0.  1.
        -31    1    1    2    0    0 -0.95073100678E-01 -0.59314422960E-01  0.62861804819E+02  0.63301484882E+02  0.74470750000E+01 0. -1.
<mgrwt>
<rscale>  0 0.14925027E+02</rscale>
<asrwt>0</asrwt>
<pdfrwt beam="1">  1        2 0.98570793E+00 0.14925027E+02</pdfrwt>
<pdfrwt beam="2">  1       -2 0.99606196E+00 0.14925027E+02</pdfrwt>
<totfact>-0.28902246E-13</totfact>
</mgrwt>
</event>
<event>
 4    1 -0.5167034E-019  0.1495902E+02  0.7818608E-02  0.1869322E+00
          2   -1    0    0  501    0  0.00000000000E+00  0.00000000000E+00  0.11910942825E+03  0.11910942827E+03  0.25500000000E-02 0. -1.
         -2   -1    0    0    0  501 -0.00000000000E+00 -0.00000000000E+00 -0.46967444095E+00  0.46968136325E+00  0.25500000000E-02 0.  1.
         31    1    1    2    0    0 -0.88075562425E-01 -0.62125983994E+00  0.61723633002E+02  0.62174428169E+02  0.74470750000E+01 0. -1.
        -31    1    1    2    0    0  0.88075562425E-01  0.62125983994E+00  0.56916120803E+02  0.57404681467E+02  0.74470750000E+01 0.  1.
<mgrwt>
<rscale>  0 0.14959020E+02</rscale>
<asrwt>0</asrwt>
<pdfrwt beam="1">  1        2 0.98876374E+00 0.14959020E+02</pdfrwt>
<pdfrwt beam="2">  1       -2 0.99751201E+00 0.14959020E+02</pdfrwt>
<totfact>-0.14308156E-13</totfact>
</mgrwt>
</event>
<event>
 4    1 -0.5167034E-019  0.1490563E+02  0.7818608E-02  0.1870962E+00
         -2   -1    0    0    0  501 -0.00000000000E+00  0.00000000000E+00  0.12030754186E+03  0.12030754189E+03  0.25500000000E-02 0. -1.
          2   -1    0    0  501    0  0.00000000000E+00 -0.00000000000E+00 -0.46168364149E+00  0.46169068360E+00  0.25500000000E-02 0.  1.
         31    1    1    2    0    0  0.14194966614E+00 -0.24792094282E+00  0.59416273447E+02  0.59881834398E+02  0.74470750000E+01 0.  1.
        -31    1    1    2    0    0 -0.14194966614E+00  0.24792094282E+00  0.60429584772E+02  0.60887398173E+02  0.74470750000E+01 0.  1.
<mgrwt>
<rscale>  0 0.14905630E+02</rscale>
<asrwt>0</asrwt>
<pdfrwt beam="2">  1        2 0.98064435E+00 0.14905630E+02</pdfrwt>
<pdfrwt beam="1">  1       -2 0.99860451E+00 0.14905630E+02</pdfrwt>
<totfact>-0.31563431E-13</totfact>
</mgrwt>
</event>
<event>
 4    1 -0.5167034E-019  0.1498318E+02  0.7818608E-02  0.1868582E+00
          2   -1    0    0  501    0  0.00000000000E+00  0.00000000000E+00  0.11954924633E+03  0.11954924636E+03  0.25500000000E-02 0.  1.
         -2   -1    0    0    0  501 -0.00000000000E+00 -0.00000000000E+00 -0.46945921791E+00  0.46946614338E+00  0.25500000000E-02 0. -1.
         31    1    1    2    0    0  0.78242677695E+00 -0.38187135478E-01  0.61354823907E+02  0.61810088114E+02  0.74470750000E+01 0.  1.
        -31    1    1    2    0    0 -0.78242677695E+00  0.38187135478E-01  0.57724963205E+02  0.58208624387E+02  0.74470750000E+01 0. -1.
<mgrwt>
<rscale>  0 0.14983179E+02</rscale>
<asrwt>0</asrwt>
<pdfrwt beam="1">  1        2 0.99239869E+00 0.14983179E+02</pdfrwt>
<pdfrwt beam="2">  1       -2 0.99707112E+00 0.14983179E+02</pdfrwt>
<totfact>-0.11597722E-13</totfact>
</mgrwt>
</event>
<event>
 4    1 -0.5167034E-019  0.1501359E+02  0.7818608E-02  0.1867654E+00
          2   -1    0    0  501    0  0.00000000000E+00  0.00000000000E+00  0.12027576440E+03  0.12027576443E+03  0.25500000000E-02 0.  1.
         -2   -1    0    0    0  501 -0.00000000000E+00 -0.00000000000E+00 -0.46851948822E+00  0.46852642758E+00  0.25500000000E-02 0. -1.
         31    1    1    2    0    0  0.10071120163E+00 -0.22791772020E+00  0.52572538356E+02  0.53097954805E+02  0.74470750000E+01 0. -1.
        -31    1    1    2    0    0 -0.10071120163E+00  0.22791772020E+00  0.67234706560E+02  0.67646336054E+02  0.74470750000E+01 0.  1.
<mgrwt>
<rscale>  0 0.15013589E+02</rscale>
<asrwt>0</asrwt>
<pdfrwt beam="1">  1        2 0.99839828E+00 0.15013589E+02</pdfrwt>
<pdfrwt beam="2">  1       -2 0.99510654E+00 0.15013589E+02</pdfrwt>
<totfact>-0.54664135E-14</totfact>
</mgrwt>
</event>
<event>
 4    1 -0.5167034E-019  0.1497386E+02  0.7818608E-02  0.1868867E+00
          2   -1    0    0  501    0  0.00000000000E+00  0.00000000000E+00  0.11927747438E+03  0.11927747441E+03  0.25500000000E-02 0. -1.
         -2   -1    0    0    0  501 -0.00000000000E+00 -0.00000000000E+00 -0.46994367282E+00  0.46995059115E+00  0.25500000000E-02 0.  1.
         31    1    1    2    0    0 -0.69791965607E+00 -0.25958947421E+00  0.61017231421E+02  0.61474514515E+02  0.74470750000E+01 0.  1.
        -31    1    1    2    0    0  0.69791965607E+00  0.25958947421E+00  0.57790299286E+02  0.58272910483E+02  0.74470750000E+01 0.  1.
<mgrwt>
<rscale>  0 0.14973859E+02</rscale>
<asrwt>0</asrwt>
<pdfrwt beam="1">  1        2 0.99015549E+00 0.14973859E+02</pdfrwt>
<pdfrwt beam="2">  1       -2 0.99808709E+00 0.14973859E+02</pdfrwt>
<totfact>-0.10089976E-13</totfact>
</mgrwt>
</event>
<event>
 4    1 -0.5167034E-019  0.1497637E+02  0.7818608E-02  0.1868791E+00
          2   -1    0    0  501    0  0.00000000000E+00  0.00000000000E+00  0.11972780955E+03  0.11972780958E+03  0.25500000000E-02 0. -1.
         -2   -1    0    0    0  501 -0.00000000000E+00 -0.00000000000E+00 -0.46833294288E+00  0.46833988501E+00  0.25500000000E-02 0.  1.
         31    1    1    2    0    0  0.73897467951E+00  0.91535320068E-01  0.61587551840E+02  0.62040631283E+02  0.74470750000E+01 0. -1.
        -31    1    1    2    0    0 -0.73897467951E+00 -0.91535320068E-01  0.57671924770E+02  0.58155518183E+02  0.74470750000E+01 0. -1.
<mgrwt>
<rscale>  0 0.14976368E+02</rscale>
<asrwt>0</asrwt>
<pdfrwt beam="1">  1        2 0.99386586E+00 0.14976368E+02</pdfrwt>
<pdfrwt beam="2">  1       -2 0.99469421E+00 0.14976368E+02</pdfrwt>
<totfact>-0.13233890E-13</totfact>
</mgrwt>
</event>
<event>
 4    1 -0.5167034E-019  0.1494336E+02  0.7818608E-02  0.1869802E+00
         -2   -1    0    0    0  501 -0.00000000000E+00  0.00000000000E+00  0.11997542576E+03  0.11997542579E+03  0.25500000000E-02 0. -1.
          2   -1    0    0  501    0  0.00000000000E+00 -0.00000000000E+00 -0.46530847881E+00  0.46531546606E+00  0.25500000000E-02 0.  1.
         31    1    1    2    0    0  0.11175849181E+00  0.50417325429E+00  0.62308870656E+02  0.62754449795E+02  0.74470750000E+01 0.  1.
        -31    1    1    2    0    0 -0.11175849181E+00 -0.50417325429E+00  0.57201246629E+02  0.57686291462E+02  0.74470750000E+01 0.  1.
<mgrwt>
<rscale>  0 0.14943360E+02</rscale>
<asrwt>0</asrwt>
<pdfrwt beam="2">  1        2 0.98830340E+00 0.14943360E+02</pdfrwt>
<pdfrwt beam="1">  1       -2 0.99588832E+00 0.14943360E+02</pdfrwt>
<totfact>-0.20395700E-13</totfact>
</mgrwt>
</event>
<event>
 4    1 -0.5167034E-019  0.1494253E+02  0.7818608E-02  0.1869827E+00
          2   -1    0    0  501    0  0.00000000000E+00  0.00000000000E+00  0.11903893649E+03  0.11903893652E+03  0.25500000000E-02 0. -1.
         -2   -1    0    0    0  501 -0.00000000000E+00 -0.00000000000E+00 -0.46891686763E+00  0.46892380112E+00  0.25500000000E-02 0.  1.
         31    1    1    2    0    0 -0.53855007927E+00  0.25319805929E+00  0.59940132530E+02  0.60403911788E+02  0.74470750000E+01 0.  1.
        -31    1    1    2    0    0  0.53855007927E+00 -0.25319805929E+00  0.58629887093E+02  0.59103948532E+02  0.74470750000E+01 0. -1.
<mgrwt>
<rscale>  0 0.14942527E+02</rscale>
<asrwt>0</asrwt>
<pdfrwt beam="1">  1        2 0.98817460E+00 0.14942527E+02</pdfrwt>
<pdfrwt beam="2">  1       -2 0.99590707E+00 0.14942527E+02</pdfrwt>
<totfact>-0.20685952E-13</totfact>
</mgrwt>
</event>
<event>
 4    1 -0.5167034E-019  0.1496634E+02  0.7818608E-02  0.1869097E+00
         -2   -1    0    0    0  501 -0.00000000000E+00  0.00000000000E+00  0.12002035255E+03  0.12002035258E+03  0.25500000000E-02 0. -1.
          2   -1    0    0  501    0  0.00000000000E+00 -0.00000000000E+00 -0.46656580643E+00  0.46657277485E+00  0.25500000000E-02 0.  1.
         31    1    1    2    0    0  0.51902450155E+00  0.51889423774E+00  0.59649529578E+02  0.60117085280E+02  0.74470750000E+01 0.  1.
        -31    1    1    2    0    0 -0.51902450155E+00 -0.51889423774E+00  0.59904257165E+02  0.60369840072E+02  0.74470750000E+01 0. -1.
<mgrwt>
<rscale>  0 0.14966337E+02</rscale>
<asrwt>0</asrwt>
<pdfrwt beam="2">  1        2 0.99096498E+00 0.14966337E+02</pdfrwt>
<pdfrwt beam="1">  1       -2 0.99627020E+00 0.14966337E+02</pdfrwt>
<totfact>-0.14895764E-13</totfact>
</mgrwt>
</event>
<event>
 4    1 -0.5167034E-019  0.1501101E+02  0.7818608E-02  0.1867733E+00
         -2   -1    0    0    0  501 -0.00000000000E+00  0.00000000000E+00  0.11979020673E+03  0.11979020676E+03  0.25500000000E-02 0. -1.
          2   -1    0    0  501    0  0.00000000000E+00 -0.00000000000E+00 -0.47025686272E+00  0.47026377644E+00  0.25500000000E-02 0.  1.
         31    1    1    2    0    0 -0.30050856228E+00  0.80213918229E+00  0.62656800080E+02  0.63103623153E+02  0.74470750000E+01 0. -1.
        -31    1    1    2    0    0  0.30050856228E+00 -0.80213918229E+00  0.56663149788E+02  0.57156847382E+02  0.74470750000E+01 0.  1.
<mgrwt>
<rscale>  0 0.15011007E+02</rscale>
<asrwt>0</asrwt>
<pdfrwt beam="2">  1        2 0.99876642E+00 0.15011007E+02</pdfrwt>
<pdfrwt beam="1">  1       -2 0.99439771E+00 0.15011007E+02</pdfrwt>
<totfact>-0.43858851E-14</totfact>
</mgrwt>
</event>
