<event>
 4    1  0.4996155E-019  0.1489551E+02  0.7818608E-02  0.1871274E+00
          2   -1    0    0  501    0  0.00000000000E+00  0.00000000000E+00  0.12014859249E+03  0.12014859252E+03  0.25500000000E-02 0. -1.
         -2   -1    0    0    0  501 -0.00000000000E+00 -0.00000000000E+00 -0.46166718066E+00  0.46167422301E+00  0.25500000000E-02 0.  1.
         31    1    1    2    0    0 -0.35903351686E-02 -0.68690763575E-01  0.59246750245E+02  0.59712989140E+02  0.74470750000E+01 0.  1.
        -31    1    1    2    0    0  0.35903351686E-02  0.68690763575E-01  0.60440175064E+02  0.60897277601E+02  0.74470750000E+01 0. -1.
<mgrwt>
<rscale>  0 0.14895515E+02</rscale>
<asrwt>0</asrwt>
<pdfrwt beam="1">  1        2 0.99729007E+00 0.14895515E+02</pdfrwt>
<pdfrwt beam="2">  1       -2 0.98060456E+00 0.14895515E+02</pdfrwt>
<totfact> 0.87716256E-13</totfact>
</mgrwt>
</event>
<event>
 4    1 -0.4996155E-019  0.1492441E+02  0.7818608E-02  0.1870384E+00
          2   -1    0    0  501    0  0.00000000000E+00  0.00000000000E+00  0.11879426393E+03  0.11879426395E+03  0.25500000000E-02 0.  1.
         -2   -1    0    0    0  501 -0.00000000000E+00 -0.00000000000E+00 -0.46874390294E+00  0.46875083898E+00  0.25500000000E-02 0. -1.
         31    1    1    2    0    0  0.24233926660E+00  0.14524368008E+00  0.62213575639E+02  0.62658341375E+02  0.74470750000E+01 0.  1.
        -31    1    1    2    0    0 -0.24233926660E+00 -0.14524368008E+00  0.56111944385E+02  0.56604673418E+02  0.74470750000E+01 0. -1.
<mgrwt>
<rscale>  0 0.14924410E+02</rscale>
<asrwt>0</asrwt>
<pdfrwt beam="1">  1        2 0.98615005E+00 0.14924410E+02</pdfrwt>
<pdfrwt beam="2">  1       -2 0.99553312E+00 0.14924410E+02</pdfrwt>
<totfact>-0.28296874E-13</totfact>
</mgrwt>
</event>
<event>
 4    1 -0.4996155E-019  0.1491685E+02  0.7818608E-02  0.1870617E+00
         -2   -1    0    0    0  501 -0.00000000000E+00  0.00000000000E+00  0.11954989373E+03  0.11954989375E+03  0.25500000000E-02 0.  1.
          2   -1    0    0  501    0  0.00000000000E+00 -0.00000000000E+00 -0.46530916704E+00  0.46531615428E+00  0.25500000000E-02 0. -1.
         31    1    1    2    0    0  0.87774953066E-01  0.36263331363E+00  0.58149936565E+02  0.58626045884E+02  0.74470750000E+01 0. -1.
        -31    1    1    2    0    0 -0.87774953066E-01 -0.36263331363E+00  0.60934647995E+02  0.61389164025E+02  0.74470750000E+01 0.  1.
<mgrwt>
<rscale>  0 0.14916847E+02</rscale>
<asrwt>0</asrwt>
<pdfrwt beam="2">  1        2 0.98829127E+00 0.14916847E+02</pdfrwt>
<pdfrwt beam="1">  1       -2 0.99236973E+00 0.14916847E+02</pdfrwt>
<totfact>-0.16119852E-13</totfact>
</mgrwt>
</event>
<event>
 4    1  0.4996155E-019  0.1493584E+02  0.7818608E-02  0.1870033E+00
         -2   -1    0    0    0  501 -0.00000000000E+00  0.00000000000E+00  0.11926700120E+03  0.11926700123E+03  0.25500000000E-02 0. -1.
          2   -1    0    0  501    0  0.00000000000E+00 -0.00000000000E+00 -0.46760119387E+00  0.46760814686E+00  0.25500000000E-02 0.  1.
         31    1    1    2    0    0 -0.39630123155E+00 -0.18452010117E+00  0.62174203455E+02  0.62620137366E+02  0.74470750000E+01 0. -1.
        -31    1    1    2    0    0  0.39630123155E+00  0.18452010117E+00  0.56625196552E+02  0.57114472010E+02  0.74470750000E+01 0.  1.
<mgrwt>
<rscale>  0 0.14935837E+02</rscale>
<asrwt>0</asrwt>
<pdfrwt beam="2">  1        2 0.99313119E+00 0.14935837E+02</pdfrwt>
<pdfrwt beam="1">  1       -2 0.99004952E+00 0.14935837E+02</pdfrwt>
<totfact> 0.65015385E-15</totfact>
</mgrwt>
</event>
<event>
 4    1 -0.4996155E-019  0.1491035E+02  0.7818608E-02  0.1870817E+00
          2   -1    0    0  501    0  0.00000000000E+00  0.00000000000E+00  0.11848698412E+03  0.11848698415E+03  0.25500000000E-02 0.  1.
         -2   -1    0    0    0  501 -0.00000000000E+00 -0.00000000000E+00 -0.46907436710E+00  0.46908129825E+00  0.25500000000E-02 0. -1.
         31    1    1    2    0    0 -0.28903745039E+00 -0.17439788661E+00  0.58354088253E+02  0.58828330752E+02  0.74470750000E+01 0.  1.
        -31    1    1    2    0    0  0.28903745039E+00  0.17439788661E+00  0.59663821505E+02  0.60127734697E+02  0.74470750000E+01 0.  1.
<mgrwt>
<rscale>  0 0.14910348E+02</rscale>
<asrwt>0</asrwt>
<pdfrwt beam="1">  1        2 0.98361198E+00 0.14910348E+02</pdfrwt>
<pdfrwt beam="2">  1       -2 0.99622204E+00 0.14910348E+02</pdfrwt>
<totfact>-0.39930660E-13</totfact>
</mgrwt>
</event>
<event>
 4    1 -0.4996155E-019  0.1498959E+02  0.7818608E-02  0.1868386E+00
          2   -1    0    0  501    0  0.00000000000E+00  0.00000000000E+00  0.11987239870E+03  0.11987239873E+03  0.25500000000E-02 0. -1.
         -2   -1    0    0    0  501 -0.00000000000E+00 -0.00000000000E+00 -0.46859459214E+00  0.46860153039E+00  0.25500000000E-02 0.  1.
         31    1    1    2    0    0  0.32407858568E+00  0.58285811724E+00  0.63860379595E+02  0.64296592122E+02  0.74470750000E+01 0. -1.
        -31    1    1    2    0    0 -0.32407858568E+00 -0.58285811724E+00  0.55543424513E+02  0.56044408135E+02  0.74470750000E+01 0.  1.
<mgrwt>
<rscale>  0 0.14989593E+02</rscale>
<asrwt>0</asrwt>
<pdfrwt beam="1">  1        2 0.99506359E+00 0.14989593E+02</pdfrwt>
<pdfrwt beam="2">  1       -2 0.99525243E+00 0.14989593E+02</pdfrwt>
<totfact>-0.11754163E-13</totfact>
</mgrwt>
</event>
<event>
 4    1 -0.4996155E-019  0.1491295E+02  0.7818608E-02  0.1870736E+00
         -2   -1    0    0    0  501 -0.00000000000E+00  0.00000000000E+00  0.11989797205E+03  0.11989797207E+03  0.25500000000E-02 0. -1.
          2   -1    0    0  501    0  0.00000000000E+00 -0.00000000000E+00 -0.46371607059E+00  0.46372308183E+00  0.25500000000E-02 0.  1.
         31    1    1    2    0    0 -0.38147639971E-01 -0.22116125163E+00  0.57299256129E+02  0.57781606472E+02  0.74470750000E+01 0.  1.
        -31    1    1    2    0    0  0.38147639971E-01  0.22116125163E+00  0.62134999846E+02  0.62580088682E+02  0.74470750000E+01 0. -1.
<mgrwt>
<rscale>  0 0.14912953E+02</rscale>
<asrwt>0</asrwt>
<pdfrwt beam="2">  1        2 0.98493179E+00 0.14912953E+02</pdfrwt>
<pdfrwt beam="1">  1       -2 0.99523471E+00 0.14912953E+02</pdfrwt>
<totfact>-0.34844016E-13</totfact>
</mgrwt>
</event>
<event>
 4    1 -0.4996155E-019  0.1491752E+02  0.7818608E-02  0.1870596E+00
          2   -1    0    0  501    0  0.00000000000E+00  0.00000000000E+00  0.11916149933E+03  0.11916149936E+03  0.25500000000E-02 0. -1.
         -2   -1    0    0    0  501 -0.00000000000E+00 -0.00000000000E+00 -0.46686809690E+00  0.46687506080E+00  0.25500000000E-02 0.  1.
         31    1    1    2    0    0 -0.14730371459E+00 -0.38733188875E+00  0.58948750015E+02  0.59418732558E+02  0.74470750000E+01 0.  1.
        -31    1    1    2    0    0  0.14730371459E+00  0.38733188875E+00  0.59745881222E+02  0.60209641864E+02  0.74470750000E+01 0.  1.
<mgrwt>
<rscale>  0 0.14917523E+02</rscale>
<asrwt>0</asrwt>
<pdfrwt beam="1">  1        2 0.98917110E+00 0.14917523E+02</pdfrwt>
<pdfrwt beam="2">  1       -2 0.99157685E+00 0.14917523E+02</pdfrwt>
<totfact>-0.10541607E-13</totfact>
</mgrwt>
</event>
<event>
 4    1  0.4996155E-019  0.1490868E+02  0.7818608E-02  0.1870868E+00
          2   -1    0    0  501    0  0.00000000000E+00  0.00000000000E+00  0.11991886524E+03  0.11991886527E+03  0.25500000000E-02 0.  1.
         -2   -1    0    0    0  501 -0.00000000000E+00 -0.00000000000E+00 -0.46336989098E+00  0.46337690746E+00  0.25500000000E-02 0. -1.
         31    1    1    2    0    0 -0.14214740439E+00 -0.74872473551E-01  0.62046696943E+02  0.62492218230E+02  0.74470750000E+01 0.  1.
        -31    1    1    2    0    0  0.14214740439E+00  0.74872473551E-01  0.57408798408E+02  0.57890023946E+02  0.74470750000E+01 0. -1.
<mgrwt>
<rscale>  0 0.14908684E+02</rscale>
<asrwt>0</asrwt>
<pdfrwt beam="1">  1        2 0.99540461E+00 0.14908684E+02</pdfrwt>
<pdfrwt beam="2">  1       -2 0.98420001E+00 0.14908684E+02</pdfrwt>
<totfact> 0.57420188E-13</totfact>
</mgrwt>
</event>
<event>
 4    1 -0.4996155E-019  0.1493554E+02  0.7818608E-02  0.1870042E+00
         -2   -1    0    0    0  501 -0.00000000000E+00  0.00000000000E+00  0.12031067983E+03  0.12031067986E+03  0.25500000000E-02 0. -1.
          2   -1    0    0  501    0  0.00000000000E+00 -0.00000000000E+00 -0.46352615986E+00  0.46353317397E+00  0.25500000000E-02 0.  1.
         31    1    1    2    0    0  0.28310270365E+00  0.22162124187E+00  0.56498703462E+02  0.56988522371E+02  0.74470750000E+01 0. -1.
        -31    1    1    2    0    0 -0.28310270365E+00 -0.22162124187E+00  0.63348450213E+02  0.63785690665E+02  0.74470750000E+01 0. -1.
<mgrwt>
<rscale>  0 0.14935538E+02</rscale>
<asrwt>0</asrwt>
<pdfrwt beam="2">  1        2 0.98454299E+00 0.14935538E+02</pdfrwt>
<pdfrwt beam="1">  1       -2 0.99864569E+00 0.14935538E+02</pdfrwt>
<totfact>-0.15978066E-13</totfact>
</mgrwt>
</event>
<event>
 4    1 -0.4996155E-019  0.1496587E+02  0.7818608E-02  0.1869112E+00
          2   -1    0    0  501    0  0.00000000000E+00  0.00000000000E+00  0.11972668932E+03  0.11972668935E+03  0.25500000000E-02 0. -1.
         -2   -1    0    0    0  501 -0.00000000000E+00 -0.00000000000E+00 -0.46768123619E+00  0.46768818799E+00  0.25500000000E-02 0.  1.
         31    1    1    2    0    0  0.27160793920E+00  0.66832834270E+00  0.58646349625E+02  0.59121685396E+02  0.74470750000E+01 0.  1.
        -31    1    1    2    0    0 -0.27160793920E+00 -0.66832834270E+00  0.60612658458E+02  0.61072692138E+02  0.74470750000E+01 0. -1.
<mgrwt>
<rscale>  0 0.14965874E+02</rscale>
<asrwt>0</asrwt>
<pdfrwt beam="1">  1        2 0.99385121E+00 0.14965874E+02</pdfrwt>
<pdfrwt beam="2">  1       -2 0.99331542E+00 0.14965874E+02</pdfrwt>
<totfact>-0.12062589E-13</totfact>
</mgrwt>
</event>
<event>
 4    1 -0.4996155E-019  0.1496840E+02  0.7818608E-02  0.1869034E+00
          2   -1    0    0  501    0  0.00000000000E+00  0.00000000000E+00  0.11968094517E+03  0.11968094520E+03  0.25500000000E-02 0. -1.
         -2   -1    0    0    0  501 -0.00000000000E+00 -0.00000000000E+00 -0.46801769309E+00  0.46802463989E+00  0.25500000000E-02 0.  1.
         31    1    1    2    0    0  0.65906741944E+00  0.23386780327E+00  0.61656513188E+02  0.62108563086E+02  0.74470750000E+01 0. -1.
        -31    1    1    2    0    0 -0.65906741944E+00 -0.23386780327E+00  0.57556414292E+02  0.58040406754E+02  0.74470750000E+01 0.  1.
<mgrwt>
<rscale>  0 0.14968396E+02</rscale>
<asrwt>0</asrwt>
<pdfrwt beam="1">  1        2 0.99347575E+00 0.14968396E+02</pdfrwt>
<pdfrwt beam="2">  1       -2 0.99402575E+00 0.14968396E+02</pdfrwt>
<totfact>-0.13332849E-13</totfact>
</mgrwt>
</event>
<event>
 4    1 -0.4996155E-019  0.1499778E+02  0.7818608E-02  0.1868136E+00
         -2   -1    0    0    0  501 -0.00000000000E+00  0.00000000000E+00  0.11976173850E+03  0.11976173853E+03  0.25500000000E-02 0. -1.
          2   -1    0    0  501    0  0.00000000000E+00 -0.00000000000E+00 -0.46954016116E+00  0.46954708543E+00  0.25500000000E-02 0.  1.
         31    1    1    2    0    0  0.35210667830E+00 -0.80628046978E+00  0.59491788264E+02  0.59962537173E+02  0.74470750000E+01 0. -1.
        -31    1    1    2    0    0 -0.35210667830E+00  0.80628046978E+00  0.59800410075E+02  0.60268748440E+02  0.74470750000E+01 0. -1.
<mgrwt>
<rscale>  0 0.14997782E+02</rscale>
<asrwt>0</asrwt>
<pdfrwt beam="2">  1        2 0.99724928E+00 0.14997782E+02</pdfrwt>
<pdfrwt beam="1">  1       -2 0.99415639E+00 0.14997782E+02</pdfrwt>
<totfact>-0.81921341E-14</totfact>
</mgrwt>
</event>
<event>
 4    1 -0.4996155E-019  0.1490348E+02  0.7818608E-02  0.1871028E+00
         -2   -1    0    0    0  501 -0.00000000000E+00  0.00000000000E+00  0.11950083499E+03  0.11950083501E+03  0.25500000000E-02 0. -1.
          2   -1    0    0  501    0  0.00000000000E+00 -0.00000000000E+00 -0.46466602123E+00  0.46467301814E+00  0.25500000000E-02 0.  1.
         31    1    1    2    0    0 -0.93967852579E-01  0.24560862054E+00  0.59661908478E+02  0.60125463847E+02  0.74470750000E+01 0. -1.
        -31    1    1    2    0    0  0.93967852579E-01 -0.24560862054E+00  0.59374260488E+02  0.59840044185E+02  0.74470750000E+01 0. -1.
<mgrwt>
<rscale>  0 0.14903476E+02</rscale>
<asrwt>0</asrwt>
<pdfrwt beam="2">  1        2 0.98692900E+00 0.14903476E+02</pdfrwt>
<pdfrwt beam="1">  1       -2 0.99195876E+00 0.14903476E+02</pdfrwt>
<totfact>-0.16784659E-13</totfact>
</mgrwt>
</event>
<event>
 4    1 -0.4996155E-019  0.1497849E+02  0.7818608E-02  0.1868726E+00
         -2   -1    0    0    0  501 -0.00000000000E+00  0.00000000000E+00  0.12032174032E+03  0.12032174035E+03  0.25500000000E-02 0.  1.
          2   -1    0    0  501    0  0.00000000000E+00 -0.00000000000E+00 -0.46615340354E+00  0.46616037812E+00  0.25500000000E-02 0. -1.
         31    1    1    2    0    0 -0.68003869882E+00  0.34213263612E+00  0.58117801553E+02  0.58597929066E+02  0.74470750000E+01 0. -1.
        -31    1    1    2    0    0  0.68003869882E+00 -0.34213263612E+00  0.61737785368E+02  0.62189971664E+02  0.74470750000E+01 0.  1.
<mgrwt>
<rscale>  0 0.14978493E+02</rscale>
<asrwt>0</asrwt>
<pdfrwt beam="2">  1        2 0.99010206E+00 0.14978493E+02</pdfrwt>
<pdfrwt beam="1">  1       -2 0.99875887E+00 0.14978493E+02</pdfrwt>
<totfact>-0.69943408E-14</totfact>
</mgrwt>
</event>
<event>
 4    1  0.4996155E-019  0.1494999E+02  0.7818608E-02  0.1869599E+00
          2   -1    0    0  501    0  0.00000000000E+00  0.00000000000E+00  0.12019528053E+03  0.12019528056E+03  0.25500000000E-02 0.  1.
         -2   -1    0    0    0  501 -0.00000000000E+00 -0.00000000000E+00 -0.46486936067E+00  0.46487635451E+00  0.25500000000E-02 0. -1.
         31    1    1    2    0    0  0.47360811583E+00 -0.30503605798E+00  0.62407854146E+02  0.62853134662E+02  0.74470750000E+01 0.  1.
        -31    1    1    2    0    0 -0.47360811583E+00  0.30503605798E+00  0.57322557026E+02  0.57807022252E+02  0.74470750000E+01 0.  1.
<mgrwt>
<rscale>  0 0.14949987E+02</rscale>
<asrwt>0</asrwt>
<pdfrwt beam="1">  1        2 0.99770260E+00 0.14949987E+02</pdfrwt>
<pdfrwt beam="2">  1       -2 0.98738131E+00 0.14949987E+02</pdfrwt>
<totfact> 0.12690708E-13</totfact>
</mgrwt>
</event>
<event>
 4    1  0.4996155E-019  0.1492240E+02  0.7818608E-02  0.1870446E+00
         -2   -1    0    0    0  501 -0.00000000000E+00  0.00000000000E+00  0.11903304762E+03  0.11903304765E+03  0.25500000000E-02 0.  1.
          2   -1    0    0  501    0  0.00000000000E+00 -0.00000000000E+00 -0.46767787061E+00  0.46768482246E+00  0.25500000000E-02 0. -1.
         31    1    1    2    0    0  0.30303185146E-01  0.32137498673E+00  0.56670348117E+02  0.57158476904E+02  0.74470750000E+01 0. -1.
        -31    1    1    2    0    0 -0.30303185146E-01 -0.32137498673E+00  0.61895021630E+02  0.62342255564E+02  0.74470750000E+01 0. -1.
<mgrwt>
<rscale>  0 0.14922405E+02</rscale>
<asrwt>0</asrwt>
<pdfrwt beam="2">  1        2 0.99328578E+00 0.14922405E+02</pdfrwt>
<pdfrwt beam="1">  1       -2 0.98811567E+00 0.14922405E+02</pdfrwt>
<totfact> 0.16352417E-13</totfact>
</mgrwt>
</event>
<event>
 4    1 -0.4996155E-019  0.1492480E+02  0.7818608E-02  0.1870372E+00
         -2   -1    0    0    0  501 -0.00000000000E+00  0.00000000000E+00  0.11999189606E+03  0.11999189609E+03  0.25500000000E-02 0.  1.
          2   -1    0    0  501    0  0.00000000000E+00 -0.00000000000E+00 -0.46408940785E+00  0.46409641345E+00  0.25500000000E-02 0. -1.
         31    1    1    2    0    0 -0.47047567315E+00 -0.81403237579E-01  0.59584945926E+02  0.60050417825E+02  0.74470750000E+01 0. -1.
        -31    1    1    2    0    0  0.47047567315E+00  0.81403237579E-01  0.59942860727E+02  0.60405574677E+02  0.74470750000E+01 0.  1.
<mgrwt>
<rscale>  0 0.14924797E+02</rscale>
<asrwt>0</asrwt>
<pdfrwt beam="2">  1        2 0.98572466E+00 0.14924797E+02</pdfrwt>
<pdfrwt beam="1">  1       -2 0.99601442E+00 0.14924797E+02</pdfrwt>
<totfact>-0.28978899E-13</totfact>
</mgrwt>
</event>
<event>
 4    1 -0.4996155E-019  0.1496251E+02  0.7818608E-02  0.1869215E+00
         -2   -1    0    0    0  501 -0.00000000000E+00  0.00000000000E+00  0.11967001369E+03  0.11967001371E+03  0.25500000000E-02 0. -1.
          2   -1    0    0  501    0  0.00000000000E+00 -0.00000000000E+00 -0.46769210425E+00  0.46769905589E+00  0.25500000000E-02 0.  1.
         31    1    1    2    0    0  0.61706376468E+00  0.14437574841E+00  0.62247181306E+02  0.62694275007E+02  0.74470750000E+01 0. -1.
        -31    1    1    2    0    0 -0.61706376468E+00 -0.14437574841E+00  0.56955140277E+02  0.57443437763E+02  0.74470750000E+01 0.  1.
<mgrwt>
<rscale>  0 0.14962505E+02</rscale>
<asrwt>0</asrwt>
<pdfrwt beam="2">  1        2 0.99333658E+00 0.14962505E+02</pdfrwt>
<pdfrwt beam="1">  1       -2 0.99338267E+00 0.14962505E+02</pdfrwt>
<totfact>-0.12659260E-13</totfact>
</mgrwt>
</event>
<event>
 4    1 -0.4996155E-019  0.1490288E+02  0.7818608E-02  0.1871047E+00
          2   -1    0    0  501    0  0.00000000000E+00  0.00000000000E+00  0.11803868656E+03  0.11803868658E+03  0.25500000000E-02 0. -1.
         -2   -1    0    0    0  501 -0.00000000000E+00 -0.00000000000E+00 -0.47038453852E+00  0.47039145036E+00  0.25500000000E-02 0.  1.
         31    1    1    2    0    0 -0.19513310361E+00  0.19646389888E-01  0.60080983832E+02  0.60541077024E+02  0.74470750000E+01 0.  1.
        -31    1    1    2    0    0  0.19513310361E+00 -0.19646389888E-01  0.57487318185E+02  0.57968001010E+02  0.74470750000E+01 0.  1.
<mgrwt>
<rscale>  0 0.14902884E+02</rscale>
<asrwt>0</asrwt>
<pdfrwt beam="1">  1        2 0.97991597E+00 0.14902884E+02</pdfrwt>
<pdfrwt beam="2">  1       -2 0.99897854E+00 0.14902884E+02</pdfrwt>
<totfact>-0.26895870E-13</totfact>
</mgrwt>
</event>
<event>
 4    1 -0.4996155E-019  0.1493838E+02  0.7818608E-02  0.1869955E+00
         -2   -1    0    0    0  501 -0.00000000000E+00  0.00000000000E+00  0.11977516734E+03  0.11977516736E+03  0.25500000000E-02 0. -1.
          2   -1    0    0  501    0  0.00000000000E+00 -0.00000000000E+00 -0.46577576012E+00  0.46578274035E+00  0.25500000000E-02 0.  1.
         31    1    1    2    0    0 -0.54068501992E+00  0.86360508562E-02  0.61212362917E+02  0.61666074261E+02  0.74470750000E+01 0. -1.
        -31    1    1    2    0    0  0.54068501992E+00 -0.86360508562E-02  0.58097028659E+02  0.58574875842E+02  0.74470750000E+01 0.  1.
<mgrwt>
<rscale>  0 0.14938379E+02</rscale>
<asrwt>0</asrwt>
<pdfrwt beam="2">  1        2 0.98928564E+00 0.14938379E+02</pdfrwt>
<pdfrwt beam="1">  1       -2 0.99423630E+00 0.14938379E+02</pdfrwt>
<totfact>-0.19030435E-13</totfact>
</mgrwt>
</event>
<event>
 4    1  0.4996155E-019  0.1491090E+02  0.7818608E-02  0.1870800E+00
         -2   -1    0    0    0  501 -0.00000000000E+00  0.00000000000E+00  0.11885172954E+03  0.11885172957E+03  0.25500000000E-02 0.  1.
          2   -1    0    0  501    0  0.00000000000E+00 -0.00000000000E+00 -0.46766935790E+00  0.46767630988E+00  0.25500000000E-02 0. -1.
         31    1    1    2    0    0 -0.19430783835E+00 -0.26887953771E+00  0.58220150422E+02  0.58695441841E+02  0.74470750000E+01 0. -1.
        -31    1    1    2    0    0  0.19430783835E+00  0.26887953771E+00  0.60163909761E+02  0.60623964037E+02  0.74470750000E+01 0.  1.
<mgrwt>
<rscale>  0 0.14910899E+02</rscale>
<asrwt>0</asrwt>
<pdfrwt beam="2">  1        2 0.99326184E+00 0.14910899E+02</pdfrwt>
<pdfrwt beam="1">  1       -2 0.98661633E+00 0.14910899E+02</pdfrwt>
<totfact> 0.33170825E-13</totfact>
</mgrwt>
</event>
<event>
 4    1 -0.4996155E-019  0.1492240E+02  0.7818608E-02  0.1870446E+00
          2   -1    0    0  501    0  0.00000000000E+00  0.00000000000E+00  0.11892979694E+03  0.11892979697E+03  0.25500000000E-02 0. -1.
         -2   -1    0    0    0  501 -0.00000000000E+00 -0.00000000000E+00 -0.46808336421E+00  0.46809031003E+00  0.25500000000E-02 0.  1.
         31    1    1    2    0    0 -0.38593712032E+00  0.13002739783E+00  0.60922419381E+02  0.61377243046E+02  0.74470750000E+01 0. -1.
        -31    1    1    2    0    0  0.38593712032E+00 -0.13002739783E+00  0.57539294197E+02  0.58020644234E+02  0.74470750000E+01 0.  1.
<mgrwt>
<rscale>  0 0.14922396E+02</rscale>
<asrwt>0</asrwt>
<pdfrwt beam="1">  1        2 0.98726527E+00 0.14922396E+02</pdfrwt>
<pdfrwt beam="2">  1       -2 0.99414023E+00 0.14922396E+02</pdfrwt>
<totfact>-0.24295410E-13</totfact>
</mgrwt>
</event>
<event>
 4    1 -0.4996155E-019  0.1494198E+02  0.7818608E-02  0.1869844E+00
          2   -1    0    0  501    0  0.00000000000E+00  0.00000000000E+00  0.11963650505E+03  0.11963650507E+03  0.25500000000E-02 0.  1.
         -2   -1    0    0    0  501 -0.00000000000E+00 -0.00000000000E+00 -0.46654050971E+00  0.46654747850E+00  0.25500000000E-02 0. -1.
         31    1    1    2    0    0 -0.13064269388E+00  0.34975976566E+00  0.63332523144E+02  0.63769952276E+02  0.74470750000E+01 0.  1.
        -31    1    1    2    0    0  0.13064269388E+00 -0.34975976566E+00  0.55837441391E+02  0.56333100275E+02  0.74470750000E+01 0. -1.
<mgrwt>
<rscale>  0 0.14941981E+02</rscale>
<asrwt>0</asrwt>
<pdfrwt beam="1">  1        2 0.99309607E+00 0.14941981E+02</pdfrwt>
<pdfrwt beam="2">  1       -2 0.99089915E+00 0.14941981E+02</pdfrwt>
<totfact>-0.43767981E-14</totfact>
</mgrwt>
</event>
<event>
 4    1  0.4996155E-019  0.1493069E+02  0.7818608E-02  0.1870191E+00
         -2   -1    0    0    0  501 -0.00000000000E+00  0.00000000000E+00  0.11884102285E+03  0.11884102287E+03  0.25500000000E-02 0.  1.
          2   -1    0    0  501    0  0.00000000000E+00 -0.00000000000E+00 -0.46895377976E+00  0.46896071270E+00  0.25500000000E-02 0. -1.
         31    1    1    2    0    0  0.34397178025E+00  0.25253289849E+00  0.61587922707E+02  0.62037998347E+02  0.74470750000E+01 0.  1.
        -31    1    1    2    0    0 -0.34397178025E+00 -0.25253289849E+00  0.56784146360E+02  0.57271985240E+02  0.74470750000E+01 0.  1.
<mgrwt>
<rscale>  0 0.14930688E+02</rscale>
<asrwt>0</asrwt>
<pdfrwt beam="2">  1        2 0.99597865E+00 0.14930688E+02</pdfrwt>
<pdfrwt beam="1">  1       -2 0.98653842E+00 0.14930688E+02</pdfrwt>
<totfact> 0.26169544E-13</totfact>
</mgrwt>
</event>
<event>
 4    1  0.4996155E-019  0.1494823E+02  0.7818608E-02  0.1869652E+00
          2   -1    0    0  501    0  0.00000000000E+00  0.00000000000E+00  0.12018633169E+03  0.12018633171E+03  0.25500000000E-02 0.  1.
         -2   -1    0    0    0  501 -0.00000000000E+00 -0.00000000000E+00 -0.46479474263E+00  0.46480173760E+00  0.25500000000E-02 0. -1.
         31    1    1    2    0    0  0.58147538907E+00  0.11275488761E+00  0.58008850757E+02  0.58487917722E+02  0.74470750000E+01 0.  1.
        -31    1    1    2    0    0 -0.58147538907E+00 -0.11275488761E+00  0.61712686188E+02  0.62163215730E+02  0.74470750000E+01 0.  1.
<mgrwt>
<rscale>  0 0.14948230E+02</rscale>
<asrwt>0</asrwt>
<pdfrwt beam="1">  1        2 0.99762799E+00 0.14948230E+02</pdfrwt>
<pdfrwt beam="2">  1       -2 0.98722315E+00 0.14948230E+02</pdfrwt>
<totfact> 0.13960713E-13</totfact>
</mgrwt>
</event>
<event>
 4    1  0.4996155E-019  0.1490019E+02  0.7818608E-02  0.1871129E+00
         -2   -1    0    0    0  501 -0.00000000000E+00  0.00000000000E+00  0.11840307751E+03  0.11840307754E+03  0.25500000000E-02 0. -1.
          2   -1    0    0  501    0  0.00000000000E+00 -0.00000000000E+00 -0.46876769884E+00  0.46877463452E+00  0.25500000000E-02 0.  1.
         31    1    1    2    0    0 -0.12515491134E+00 -0.15593574316E+00  0.58400429451E+02  0.58873670396E+02  0.74470750000E+01 0. -1.
        -31    1    1    2    0    0  0.12515491134E+00  0.15593574316E+00  0.59533880365E+02  0.59998181781E+02  0.74470750000E+01 0. -1.
<mgrwt>
<rscale>  0 0.14900195E+02</rscale>
<asrwt>0</asrwt>
<pdfrwt beam="2">  1        2 0.99557054E+00 0.14900195E+02</pdfrwt>
<pdfrwt beam="1">  1       -2 0.98291564E+00 0.14900195E+02</pdfrwt>
<totfact> 0.76045618E-13</totfact>
</mgrwt>
</event>
<event>
 4    1  0.4996155E-019  0.1495783E+02  0.7818608E-02  0.1869358E+00
         -2   -1    0    0    0  501 -0.00000000000E+00  0.00000000000E+00  0.11893177527E+03  0.11893177530E+03  0.25500000000E-02 0.  1.
          2   -1    0    0  501    0  0.00000000000E+00 -0.00000000000E+00 -0.47030098802E+00  0.47030790109E+00  0.25500000000E-02 0. -1.
         31    1    1    2    0    0 -0.13691116593E+00 -0.67412614753E+00  0.58871168175E+02  0.59344305195E+02  0.74470750000E+01 0. -1.
        -31    1    1    2    0    0  0.13691116593E+00  0.67412614753E+00  0.59590306105E+02  0.60057778002E+02  0.74470750000E+01 0.  1.
<mgrwt>
<rscale>  0 0.14957827E+02</rscale>
<asrwt>0</asrwt>
<pdfrwt beam="2">  1        2 0.99883158E+00 0.14957827E+02</pdfrwt>
<pdfrwt beam="1">  1       -2 0.98729997E+00 0.14957827E+02</pdfrwt>
<totfact> 0.75911118E-14</totfact>
</mgrwt>
</event>
<event>
 4    1  0.4996155E-019  0.1491381E+02  0.7818608E-02  0.1870710E+00
          2   -1    0    0  501    0  0.00000000000E+00  0.00000000000E+00  0.11995248298E+03  0.11995248300E+03  0.25500000000E-02 0.  1.
         -2   -1    0    0    0  501 -0.00000000000E+00 -0.00000000000E+00 -0.46355846078E+00  0.46356547441E+00  0.25500000000E-02 0. -1.
         31    1    1    2    0    0 -0.30473138155E+00  0.81236610186E-01  0.61495369514E+02  0.61945450667E+02  0.74470750000E+01 0. -1.
        -31    1    1    2    0    0  0.30473138155E+00 -0.81236610186E-01  0.57993555003E+02  0.58470597813E+02  0.74470750000E+01 0.  1.
<mgrwt>
<rscale>  0 0.14913807E+02</rscale>
<asrwt>0</asrwt>
<pdfrwt beam="1">  1        2 0.99568414E+00 0.14913807E+02</pdfrwt>
<pdfrwt beam="2">  1       -2 0.98460004E+00 0.14913807E+02</pdfrwt>
<totfact> 0.49999897E-13</totfact>
</mgrwt>
</event>
<event>
 4    1  0.4996155E-019  0.1490695E+02  0.7818608E-02  0.1870921E+00
          2   -1    0    0  501    0  0.00000000000E+00  0.00000000000E+00  0.12009832034E+03  0.12009832037E+03  0.25500000000E-02 0. -1.
         -2   -1    0    0    0  501 -0.00000000000E+00 -0.00000000000E+00 -0.46256963330E+00  0.46257666192E+00  0.25500000000E-02 0.  1.
         31    1    1    2    0    0 -0.77816603336E-01  0.21745114203E+00  0.61475231179E+02  0.61925086314E+02  0.74470750000E+01 0. -1.
        -31    1    1    2    0    0  0.77816603336E-01 -0.21745114203E+00  0.58160519527E+02  0.58635810714E+02  0.74470750000E+01 0.  1.
<mgrwt>
<rscale>  0 0.14906946E+02</rscale>
<asrwt>0</asrwt>
<pdfrwt beam="1">  1        2 0.99688185E+00 0.14906946E+02</pdfrwt>
<pdfrwt beam="2">  1       -2 0.98251245E+00 0.14906946E+02</pdfrwt>
<totfact> 0.66971731E-13</totfact>
</mgrwt>
</event>
<event>
 4    1 -0.4996155E-019  0.1490754E+02  0.7818608E-02  0.1870903E+00
         -2   -1    0    0    0  501 -0.00000000000E+00  0.00000000000E+00  0.11989529472E+03  0.11989529475E+03  0.25500000000E-02 0. -1.
          2   -1    0    0  501    0  0.00000000000E+00 -0.00000000000E+00 -0.46339003614E+00  0.46339705232E+00  0.25500000000E-02 0.  1.
         31    1    1    2    0    0 -0.30462028346E+00  0.61529358606E-01  0.59258994965E+02  0.59725907190E+02  0.74470750000E+01 0. -1.
        -31    1    1    2    0    0  0.30462028346E+00 -0.61529358606E-01  0.60172909722E+02  0.60632784612E+02  0.74470750000E+01 0.  1.
<mgrwt>
<rscale>  0 0.14907543E+02</rscale>
<asrwt>0</asrwt>
<pdfrwt beam="2">  1        2 0.98424189E+00 0.14907543E+02</pdfrwt>
<pdfrwt beam="1">  1       -2 0.99520987E+00 0.14907543E+02</pdfrwt>
<totfact>-0.39065879E-13</totfact>
</mgrwt>
</event>
<event>
 4    1 -0.4996155E-019  0.1492080E+02  0.7818608E-02  0.1870495E+00
         -2   -1    0    0    0  501 -0.00000000000E+00  0.00000000000E+00  0.11997075513E+03  0.11997075516E+03  0.25500000000E-02 0. -1.
          2   -1    0    0  501    0  0.00000000000E+00 -0.00000000000E+00 -0.46392265866E+00  0.46392966678E+00  0.25500000000E-02 0.  1.
         31    1    1    2    0    0  0.27418379403E+00 -0.34087431341E+00  0.60441976842E+02  0.60900598212E+02  0.74470750000E+01 0. -1.
        -31    1    1    2    0    0 -0.27418379403E+00  0.34087431341E+00  0.59064855634E+02  0.59534086615E+02  0.74470750000E+01 0. -1.
<mgrwt>
<rscale>  0 0.14920801E+02</rscale>
<asrwt>0</asrwt>
<pdfrwt beam="2">  1        2 0.98537119E+00 0.14920801E+02</pdfrwt>
<pdfrwt beam="1">  1       -2 0.99583824E+00 0.14920801E+02</pdfrwt>
<totfact>-0.31189736E-13</totfact>
</mgrwt>
</event>
<event>
 4    1 -0.4996155E-019  0.1501658E+02  0.7818608E-02  0.1867563E+00
          2   -1    0    0  501    0  0.00000000000E+00  0.00000000000E+00  0.11978906227E+03  0.11978906229E+03  0.25500000000E-02 0. -1.
         -2   -1    0    0    0  501 -0.00000000000E+00 -0.00000000000E+00 -0.47061069434E+00  0.47061760286E+00  0.25500000000E-02 0.  1.
         31    1    1    2    0    0 -0.27369758062E+00  0.25913043241E-01  0.66998762952E+02  0.67411933254E+02  0.74470750000E+01 0. -1.
        -31    1    1    2    0    0  0.27369758062E+00 -0.25913043241E-01  0.52319688620E+02  0.52847746642E+02  0.74470750000E+01 0.  1.
<mgrwt>
<rscale>  0 0.15016582E+02</rscale>
<asrwt>0</asrwt>
<pdfrwt beam="1">  1        2 0.99439117E+00 0.15016582E+02</pdfrwt>
<pdfrwt beam="2">  1       -2 0.99951493E+00 0.15016582E+02</pdfrwt>
<totfact>-0.20774047E-14</totfact>
</mgrwt>
</event>
<event>
 4    1  0.4996155E-019  0.1492394E+02  0.7818608E-02  0.1870398E+00
          2   -1    0    0  501    0  0.00000000000E+00  0.00000000000E+00  0.11971791764E+03  0.11971791767E+03  0.25500000000E-02 0. -1.
         -2   -1    0    0    0  501 -0.00000000000E+00 -0.00000000000E+00 -0.46509789233E+00  0.46510488274E+00  0.25500000000E-02 0.  1.
         31    1    1    2    0    0  0.43747779409E+00  0.10265227570E+00  0.58484055951E+02  0.58957999041E+02  0.74470750000E+01 0. -1.
        -31    1    1    2    0    0 -0.43747779409E+00 -0.10265227570E+00  0.60768763796E+02  0.61225023509E+02  0.74470750000E+01 0. -1.
<mgrwt>
<rscale>  0 0.14923937E+02</rscale>
<asrwt>0</asrwt>
<pdfrwt beam="1">  1        2 0.99375732E+00 0.14923937E+02</pdfrwt>
<pdfrwt beam="2">  1       -2 0.98784965E+00 0.14923937E+02</pdfrwt>
<totfact> 0.18358884E-13</totfact>
</mgrwt>
</event>
<event>
 4    1 -0.4996155E-019  0.1494281E+02  0.7818608E-02  0.1869819E+00
         -2   -1    0    0    0  501 -0.00000000000E+00  0.00000000000E+00  0.11980987212E+03  0.11980987215E+03  0.25500000000E-02 0. -1.
          2   -1    0    0  501    0  0.00000000000E+00 -0.00000000000E+00 -0.46591720643E+00  0.46592418455E+00  0.25500000000E-02 0.  1.
         31    1    1    2    0    0  0.38884266334E+00  0.27634944920E+00  0.62633867375E+02  0.63076840727E+02  0.74470750000E+01 0. -1.
        -31    1    1    2    0    0 -0.38884266334E+00 -0.27634944920E+00  0.56710087540E+02  0.57198955607E+02  0.74470750000E+01 0.  1.
<mgrwt>
<rscale>  0 0.14942811E+02</rscale>
<asrwt>0</asrwt>
<pdfrwt beam="2">  1        2 0.98958601E+00 0.14942811E+02</pdfrwt>
<pdfrwt beam="1">  1       -2 0.99452444E+00 0.14942811E+02</pdfrwt>
<totfact>-0.18610999E-13</totfact>
</mgrwt>
</event>
<event>
 4    1 -0.4996155E-019  0.1490327E+02  0.7818608E-02  0.1871035E+00
          2   -1    0    0  501    0  0.00000000000E+00  0.00000000000E+00  0.11894379906E+03  0.11894379908E+03  0.25500000000E-02 0.  1.
         -2   -1    0    0    0  501 -0.00000000000E+00 -0.00000000000E+00 -0.46682899441E+00  0.46683595890E+00  0.25500000000E-02 0. -1.
         31    1    1    2    0    0  0.10432520345E+00 -0.23699613391E+00  0.59472712907E+02  0.59937713983E+02  0.74470750000E+01 0. -1.
        -31    1    1    2    0    0 -0.10432520345E+00  0.23699613391E+00  0.59004257154E+02  0.59472921059E+02  0.74470750000E+01 0. -1.
<mgrwt>
<rscale>  0 0.14903266E+02</rscale>
<asrwt>0</asrwt>
<pdfrwt beam="1">  1        2 0.98737068E+00 0.14903266E+02</pdfrwt>
<pdfrwt beam="2">  1       -2 0.99148704E+00 0.14903266E+02</pdfrwt>
<totfact>-0.12497487E-13</totfact>
</mgrwt>
</event>
<event>
 4    1  0.4996155E-019  0.1492169E+02  0.7818608E-02  0.1870468E+00
         -2   -1    0    0    0  501 -0.00000000000E+00  0.00000000000E+00  0.11875692032E+03  0.11875692034E+03  0.25500000000E-02 0.  1.
          2   -1    0    0  501    0  0.00000000000E+00 -0.00000000000E+00 -0.46872058247E+00  0.46872751885E+00  0.25500000000E-02 0. -1.
         31    1    1    2    0    0  0.91445782113E-01 -0.41297425102E+00  0.60442135780E+02  0.60900653640E+02  0.74470750000E+01 0. -1.
        -31    1    1    2    0    0 -0.91445782113E-01  0.41297425102E+00  0.57846063953E+02  0.58324994222E+02  0.74470750000E+01 0. -1.
<mgrwt>
<rscale>  0 0.14921693E+02</rscale>
<asrwt>0</asrwt>
<pdfrwt beam="2">  1        2 0.99548256E+00 0.14921693E+02</pdfrwt>
<pdfrwt beam="1">  1       -2 0.98584107E+00 0.14921693E+02</pdfrwt>
<totfact> 0.35615161E-13</totfact>
</mgrwt>
</event>
<event>
 4    1 -0.4996155E-019  0.1498005E+02  0.7818608E-02  0.1868678E+00
         -2   -1    0    0    0  501 -0.00000000000E+00  0.00000000000E+00  0.11973452996E+03  0.11973452998E+03  0.25500000000E-02 0.  1.
          2   -1    0    0  501    0  0.00000000000E+00 -0.00000000000E+00 -0.46853684963E+00  0.46854378873E+00  0.25500000000E-02 0. -1.
         31    1    1    2    0    0  0.30895322348E+00 -0.19301663704E+00  0.53909170726E+02  0.54422332934E+02  0.74470750000E+01 0. -1.
        -31    1    1    2    0    0 -0.30895322348E+00  0.19301663704E+00  0.65356822380E+02  0.65780740838E+02  0.74470750000E+01 0.  1.
<mgrwt>
<rscale>  0 0.14980048E+02</rscale>
<asrwt>0</asrwt>
<pdfrwt beam="2">  1        2 0.99512581E+00 0.14980048E+02</pdfrwt>
<pdfrwt beam="1">  1       -2 0.99392312E+00 0.14980048E+02</pdfrwt>
<totfact>-0.11456217E-13</totfact>
</mgrwt>
</event>
<event>
 4    1 -0.4996155E-019  0.1492684E+02  0.7818608E-02  0.1870309E+00
         -2   -1    0    0    0  501 -0.00000000000E+00  0.00000000000E+00  0.11999718528E+03  0.11999718531E+03  0.25500000000E-02 0. -1.
          2   -1    0    0  501    0  0.00000000000E+00 -0.00000000000E+00 -0.46419609498E+00  0.46420309897E+00  0.25500000000E-02 0.  1.
         31    1    1    2    0    0 -0.15622972834E+00  0.27533666727E+00  0.62823613390E+02  0.63264251702E+02  0.74470750000E+01 0. -1.
        -31    1    1    2    0    0  0.15622972834E+00 -0.27533666727E+00  0.56709375800E+02  0.57197136709E+02  0.74470750000E+01 0.  1.
<mgrwt>
<rscale>  0 0.14926841E+02</rscale>
<asrwt>0</asrwt>
<pdfrwt beam="2">  1        2 0.98595056E+00 0.14926841E+02</pdfrwt>
<pdfrwt beam="1">  1       -2 0.99605904E+00 0.14926841E+02</pdfrwt>
<totfact>-0.27841851E-13</totfact>
</mgrwt>
</event>
<event>
 4    1 -0.4996155E-019  0.1494571E+02  0.7818608E-02  0.1869730E+00
         -2   -1    0    0    0  501 -0.00000000000E+00  0.00000000000E+00  0.12001834324E+03  0.12001834326E+03  0.25500000000E-02 0.  1.
          2   -1    0    0  501    0  0.00000000000E+00 -0.00000000000E+00 -0.46528845066E+00  0.46529543821E+00  0.25500000000E-02 0. -1.
         31    1    1    2    0    0  0.19988157133E+00 -0.20467794658E+00  0.55340550546E+02  0.55840104822E+02  0.74470750000E+01 0. -1.
        -31    1    1    2    0    0 -0.19988157133E+00  0.20467794658E+00  0.64212504239E+02  0.64643533879E+02  0.74470750000E+01 0.  1.
<mgrwt>
<rscale>  0 0.14945711E+02</rscale>
<asrwt>0</asrwt>
<pdfrwt beam="2">  1        2 0.98826239E+00 0.14945711E+02</pdfrwt>
<pdfrwt beam="1">  1       -2 0.99624302E+00 0.14945711E+02</pdfrwt>
<totfact>-0.19690805E-13</totfact>
</mgrwt>
</event>
<event>
 4    1 -0.4996155E-019  0.1498827E+02  0.7818608E-02  0.1868427E+00
         -2   -1    0    0    0  501 -0.00000000000E+00  0.00000000000E+00  0.12024115207E+03  0.12024115210E+03  0.25500000000E-02 0. -1.
          2   -1    0    0  501    0  0.00000000000E+00 -0.00000000000E+00 -0.46707527669E+00  0.46708223750E+00  0.25500000000E-02 0.  1.
         31    1    1    2    0    0 -0.45509200544E+00  0.61768017317E+00  0.57161575823E+02  0.57649746870E+02  0.74470750000E+01 0. -1.
        -31    1    1    2    0    0  0.45509200544E+00 -0.61768017317E+00  0.62612500975E+02  0.63058487469E+02  0.74470750000E+01 0. -1.
<mgrwt>
<rscale>  0 0.14988274E+02</rscale>
<asrwt>0</asrwt>
<pdfrwt beam="2">  1        2 0.99204993E+00 0.14988274E+02</pdfrwt>
<pdfrwt beam="1">  1       -2 0.99810014E+00 0.14988274E+02</pdfrwt>
<totfact>-0.85999319E-14</totfact>
</mgrwt>
</event>
<event>
 4    1 -0.4996155E-019  0.1495495E+02  0.7818608E-02  0.1869446E+00
          2   -1    0    0  501    0  0.00000000000E+00  0.00000000000E+00  0.11899402228E+03  0.11899402231E+03  0.25500000000E-02 0. -1.
         -2   -1    0    0    0  501 -0.00000000000E+00 -0.00000000000E+00 -0.46987397564E+00  0.46988089500E+00  0.25500000000E-02 0.  1.
         31    1    1    2    0    0 -0.18955145895E+00 -0.42465369433E+00  0.63154433593E+02  0.63593692054E+02  0.74470750000E+01 0. -1.
        -31    1    1    2    0    0  0.18955145895E+00  0.42465369433E+00  0.55369714711E+02  0.55870211149E+02  0.74470750000E+01 0.  1.
<mgrwt>
<rscale>  0 0.14954947E+02</rscale>
<asrwt>0</asrwt>
<pdfrwt beam="1">  1        2 0.98781114E+00 0.14954947E+02</pdfrwt>
<pdfrwt beam="2">  1       -2 0.99793032E+00 0.14954947E+02</pdfrwt>
<totfact>-0.13970881E-13</totfact>
</mgrwt>
</event>
<event>
 4    1 -0.4996155E-019  0.1492908E+02  0.7818608E-02  0.1870240E+00
         -2   -1    0    0    0  501 -0.00000000000E+00  0.00000000000E+00  0.12017717211E+03  0.12017717214E+03  0.25500000000E-02 0. -1.
          2   -1    0    0  501    0  0.00000000000E+00 -0.00000000000E+00 -0.46363998447E+00  0.46364699687E+00  0.25500000000E-02 0.  1.
         31    1    1    2    0    0  0.10675040791E+00 -0.40035934763E+00  0.62264252106E+02  0.62709390841E+02  0.74470750000E+01 0. -1.
        -31    1    1    2    0    0 -0.10675040791E+00  0.40035934763E+00  0.57449280020E+02  0.57931428294E+02  0.74470750000E+01 0.  1.
<mgrwt>
<rscale>  0 0.14929081E+02</rscale>
<asrwt>0</asrwt>
<pdfrwt beam="2">  1        2 0.98477962E+00 0.14929081E+02</pdfrwt>
<pdfrwt beam="1">  1       -2 0.99754270E+00 0.14929081E+02</pdfrwt>
<totfact>-0.25076277E-13</totfact>
</mgrwt>
</event>
<event>
 4    1 -0.4996155E-019  0.1494897E+02  0.7818608E-02  0.1869630E+00
          2   -1    0    0  501    0  0.00000000000E+00  0.00000000000E+00  0.11965917378E+03  0.11965917381E+03  0.25500000000E-02 0.  1.
         -2   -1    0    0    0  501 -0.00000000000E+00 -0.00000000000E+00 -0.46688878683E+00  0.46689575043E+00  0.25500000000E-02 0. -1.
         31    1    1    2    0    0 -0.63696305184E+00  0.28939831249E-01  0.59994772535E+02  0.60458566118E+02  0.74470750000E+01 0.  1.
        -31    1    1    2    0    0  0.63696305184E+00 -0.28939831249E-01  0.59197512457E+02  0.59667503439E+02  0.74470750000E+01 0.  1.
<mgrwt>
<rscale>  0 0.14948973E+02</rscale>
<asrwt>0</asrwt>
<pdfrwt beam="1">  1        2 0.99328639E+00 0.14948973E+02</pdfrwt>
<pdfrwt beam="2">  1       -2 0.99163671E+00 0.14948973E+02</pdfrwt>
<totfact>-0.77256219E-14</totfact>
</mgrwt>
</event>
<event>
 4    1 -0.4996155E-019  0.1489537E+02  0.7818608E-02  0.1871278E+00
         -2   -1    0    0    0  501 -0.00000000000E+00  0.00000000000E+00  0.11977836079E+03  0.11977836081E+03  0.25500000000E-02 0. -1.
          2   -1    0    0  501    0  0.00000000000E+00 -0.00000000000E+00 -0.46308548879E+00  0.46309250958E+00  0.25500000000E-02 0.  1.
         31    1    1    2    0    0 -0.66949772669E-01 -0.53973459297E-02  0.59109723132E+02  0.59577032540E+02  0.74470750000E+01 0.  1.
        -31    1    1    2    0    0  0.66949772669E-01  0.53973459297E-02  0.60205552165E+02  0.60664420783E+02  0.74470750000E+01 0. -1.
<mgrwt>
<rscale>  0 0.14895374E+02</rscale>
<asrwt>0</asrwt>
<pdfrwt beam="2">  1        2 0.98359383E+00 0.14895374E+02</pdfrwt>
<pdfrwt beam="1">  1       -2 0.99424046E+00 0.14895374E+02</pdfrwt>
<totfact>-0.43454113E-13</totfact>
</mgrwt>
</event>
<event>
 4    1 -0.4996155E-019  0.1497570E+02  0.7818608E-02  0.1868811E+00
         -2   -1    0    0    0  501 -0.00000000000E+00  0.00000000000E+00  0.12016444110E+03  0.12016444112E+03  0.25500000000E-02 0.  1.
          2   -1    0    0  501    0  0.00000000000E+00 -0.00000000000E+00 -0.46658973833E+00  0.46659670639E+00  0.25500000000E-02 0. -1.
         31    1    1    2    0    0 -0.24798783655E+00 -0.71733601111E+00  0.58387369881E+02  0.58865269528E+02  0.74470750000E+01 0. -1.
        -31    1    1    2    0    0  0.24798783655E+00  0.71733601111E+00  0.61310481477E+02  0.61765768302E+02  0.74470750000E+01 0. -1.
<mgrwt>
<rscale>  0 0.14975703E+02</rscale>
<asrwt>0</asrwt>
<pdfrwt beam="2">  1        2 0.99102022E+00 0.14975703E+02</pdfrwt>
<pdfrwt beam="1">  1       -2 0.99746182E+00 0.14975703E+02</pdfrwt>
<totfact>-0.11651072E-13</totfact>
</mgrwt>
</event>
<event>
 4    1  0.4996155E-019  0.1492256E+02  0.7818608E-02  0.1870441E+00
         -2   -1    0    0    0  501 -0.00000000000E+00  0.00000000000E+00  0.11902615950E+03  0.11902615953E+03  0.25500000000E-02 0.  1.
          2   -1    0    0  501    0  0.00000000000E+00 -0.00000000000E+00 -0.46771438252E+00  0.46772133383E+00  0.25500000000E-02 0. -1.
         31    1    1    2    0    0 -0.31882077948E+00 -0.13219596808E+00  0.61716154702E+02  0.62164795502E+02  0.74470750000E+01 0. -1.
        -31    1    1    2    0    0  0.31882077948E+00  0.13219596808E+00  0.56842290417E+02  0.57329085361E+02  0.74470750000E+01 0. -1.
<mgrwt>
<rscale>  0 0.14922555E+02</rscale>
<asrwt>0</asrwt>
<pdfrwt beam="2">  1        2 0.99336279E+00 0.14922555E+02</pdfrwt>
<pdfrwt beam="1">  1       -2 0.98805901E+00 0.14922555E+02</pdfrwt>
<totfact> 0.16814706E-13</totfact>
</mgrwt>
</event>
<event>
 4    1 -0.4996155E-019  0.1497627E+02  0.7818608E-02  0.1868793E+00
          2   -1    0    0  501    0  0.00000000000E+00  0.00000000000E+00  0.11969827414E+03  0.11969827417E+03  0.25500000000E-02 0. -1.
         -2   -1    0    0    0  501 -0.00000000000E+00 -0.00000000000E+00 -0.46844240372E+00  0.46844934422E+00  0.25500000000E-02 0.  1.
         31    1    1    2    0    0 -0.35752636579E+00  0.31110429896E-01  0.54030167103E+02  0.54542155038E+02  0.74470750000E+01 0.  1.
        -31    1    1    2    0    0  0.35752636579E+00 -0.31110429896E-01  0.65199664632E+02  0.65624568472E+02  0.74470750000E+01 0. -1.
<mgrwt>
<rscale>  0 0.14976270E+02</rscale>
<asrwt>0</asrwt>
<pdfrwt beam="1">  1        2 0.99362255E+00 0.14976270E+02</pdfrwt>
<pdfrwt beam="2">  1       -2 0.99492483E+00 0.14976270E+02</pdfrwt>
<totfact>-0.13469725E-13</totfact>
</mgrwt>
</event>
<event>
 4    1 -0.4996155E-019  0.1493203E+02  0.7818608E-02  0.1870150E+00
         -2   -1    0    0    0  501 -0.00000000000E+00  0.00000000000E+00  0.11976781336E+03  0.11976781339E+03  0.25500000000E-02 0.  1.
          2   -1    0    0  501    0  0.00000000000E+00 -0.00000000000E+00 -0.46540823709E+00  0.46541522284E+00  0.25500000000E-02 0. -1.
         31    1    1    2    0    0 -0.50825303800E+00  0.64638977995E-02  0.58402241498E+02  0.58877322468E+02  0.74470750000E+01 0.  1.
        -31    1    1    2    0    0  0.50825303800E+00 -0.64638977995E-02  0.60900163627E+02  0.61355906145E+02  0.74470750000E+01 0.  1.
<mgrwt>
<rscale>  0 0.14932026E+02</rscale>
<asrwt>0</asrwt>
<pdfrwt beam="2">  1        2 0.98850784E+00 0.14932026E+02</pdfrwt>
<pdfrwt beam="1">  1       -2 0.99417246E+00 0.14932026E+02</pdfrwt>
<totfact>-0.20720605E-13</totfact>
</mgrwt>
</event>
<event>
 4    1 -0.4996155E-019  0.1493676E+02  0.7818608E-02  0.1870005E+00
         -2   -1    0    0    0  501 -0.00000000000E+00  0.00000000000E+00  0.12015194354E+03  0.12015194356E+03  0.25500000000E-02 0.  1.
          2   -1    0    0  501    0  0.00000000000E+00 -0.00000000000E+00 -0.46421438506E+00  0.46422138877E+00  0.25500000000E-02 0. -1.
         31    1    1    2    0    0  0.52330570157E+00 -0.17836354558E+00  0.58955743153E+02  0.59426797316E+02  0.74470750000E+01 0. -1.
        -31    1    1    2    0    0 -0.52330570157E+00  0.17836354558E+00  0.60731985998E+02  0.61189367636E+02  0.74470750000E+01 0. -1.
<mgrwt>
<rscale>  0 0.14936758E+02</rscale>
<asrwt>0</asrwt>
<pdfrwt beam="2">  1        2 0.98599415E+00 0.14936758E+02</pdfrwt>
<pdfrwt beam="1">  1       -2 0.99733884E+00 0.14936758E+02</pdfrwt>
<totfact>-0.21900773E-13</totfact>
</mgrwt>
</event>
<event>
 4    1 -0.4996155E-019  0.1495743E+02  0.7818608E-02  0.1869370E+00
          2   -1    0    0  501    0  0.00000000000E+00  0.00000000000E+00  0.11972478676E+03  0.11972478679E+03  0.25500000000E-02 0. -1.
         -2   -1    0    0    0  501 -0.00000000000E+00 -0.00000000000E+00 -0.46716089047E+00  0.46716785001E+00  0.25500000000E-02 0.  1.
         31    1    1    2    0    0 -0.15153262869E+00 -0.31520889127E+00  0.64382149382E+02  0.64812363048E+02  0.74470750000E+01 0. -1.
        -31    1    1    2    0    0  0.15153262869E+00  0.31520889127E+00  0.54875476492E+02  0.55379591593E+02  0.74470750000E+01 0.  1.
<mgrwt>
<rscale>  0 0.14957427E+02</rscale>
<asrwt>0</asrwt>
<pdfrwt beam="1">  1        2 0.99383117E+00 0.14957427E+02</pdfrwt>
<pdfrwt beam="2">  1       -2 0.99221450E+00 0.14957427E+02</pdfrwt>
<totfact>-0.94429267E-14</totfact>
</mgrwt>
</event>
<event>
 4    1  0.4996155E-019  0.1490236E+02  0.7818608E-02  0.1871063E+00
          2   -1    0    0  501    0  0.00000000000E+00  0.00000000000E+00  0.11999943309E+03  0.11999943312E+03  0.25500000000E-02 0. -1.
         -2   -1    0    0    0  501 -0.00000000000E+00 -0.00000000000E+00 -0.46266630660E+00  0.46267333375E+00  0.25500000000E-02 0.  1.
         31    1    1    2    0    0 -0.86155206086E-01 -0.31625543203E-01  0.61625292325E+02  0.62073698158E+02  0.74470750000E+01 0. -1.
        -31    1    1    2    0    0  0.86155206086E-01  0.31625543203E-01  0.57911474460E+02  0.58388408293E+02  0.74470750000E+01 0.  1.
<mgrwt>
<rscale>  0 0.14902365E+02</rscale>
<asrwt>0</asrwt>
<pdfrwt beam="1">  1        2 0.99606498E+00 0.14902365E+02</pdfrwt>
<pdfrwt beam="2">  1       -2 0.98271389E+00 0.14902365E+02</pdfrwt>
<totfact> 0.74247683E-13</totfact>
</mgrwt>
</event>
<event>
 4    1 -0.4996155E-019  0.1495828E+02  0.7818608E-02  0.1869344E+00
         -2   -1    0    0    0  501 -0.00000000000E+00  0.00000000000E+00  0.11969119529E+03  0.11969119532E+03  0.25500000000E-02 0. -1.
          2   -1    0    0  501    0  0.00000000000E+00 -0.00000000000E+00 -0.46734515815E+00  0.46735211495E+00  0.25500000000E-02 0.  1.
         31    1    1    2    0    0  0.22078205957E+00  0.33800397745E+00  0.64124697558E+02  0.64556941953E+02  0.74470750000E+01 0. -1.
        -31    1    1    2    0    0 -0.22078205957E+00 -0.33800397745E+00  0.55099152575E+02  0.55601605480E+02  0.74470750000E+01 0.  1.
<mgrwt>
<rscale>  0 0.14958278E+02</rscale>
<asrwt>0</asrwt>
<pdfrwt beam="2">  1        2 0.99260326E+00 0.14958278E+02</pdfrwt>
<pdfrwt beam="1">  1       -2 0.99355494E+00 0.14958278E+02</pdfrwt>
<totfact>-0.13630965E-13</totfact>
</mgrwt>
</event>
<event>
 4    1 -0.4996155E-019  0.1498772E+02  0.7818608E-02  0.1868444E+00
         -2   -1    0    0    0  501 -0.00000000000E+00  0.00000000000E+00  0.11974205149E+03  0.11974205152E+03  0.25500000000E-02 0. -1.
          2   -1    0    0  501    0  0.00000000000E+00 -0.00000000000E+00 -0.46898734276E+00  0.46899427520E+00  0.25500000000E-02 0.  1.
         31    1    1    2    0    0  0.59455446285E-01  0.51805809452E+00  0.64878125101E+02  0.65306216869E+02  0.74470750000E+01 0. -1.
        -31    1    1    2    0    0 -0.59455446285E-01 -0.51805809452E+00  0.54394939047E+02  0.54904828923E+02  0.74470750000E+01 0. -1.
<mgrwt>
<rscale>  0 0.14987718E+02</rscale>
<asrwt>0</asrwt>
<pdfrwt beam="2">  1        2 0.99607911E+00 0.14987718E+02</pdfrwt>
<pdfrwt beam="1">  1       -2 0.99398903E+00 0.14987718E+02</pdfrwt>
<totfact>-0.10198918E-13</totfact>
</mgrwt>
</event>
<event>
 4    1 -0.4996155E-019  0.1490227E+02  0.7818608E-02  0.1871066E+00
         -2   -1    0    0    0  501 -0.00000000000E+00  0.00000000000E+00  0.12035064731E+03  0.12035064734E+03  0.25500000000E-02 0.  1.
          2   -1    0    0  501    0  0.00000000000E+00 -0.00000000000E+00 -0.46131019590E+00  0.46131724371E+00  0.25500000000E-02 0. -1.
         31    1    1    2    0    0  0.18824600439E+00  0.10153674141E-01  0.61225010958E+02  0.61676546860E+02  0.74470750000E+01 0. -1.
        -31    1    1    2    0    0 -0.18824600439E+00 -0.10153674141E-01  0.58664326158E+02  0.59135417723E+02  0.74470750000E+01 0. -1.
<mgrwt>
<rscale>  0 0.14902269E+02</rscale>
<asrwt>0</asrwt>
<pdfrwt beam="2">  1        2 0.97985551E+00 0.14902269E+02</pdfrwt>
<pdfrwt beam="1">  1       -2 0.99895785E+00 0.14902269E+02</pdfrwt>
<totfact>-0.27665723E-13</totfact>
</mgrwt>
</event>
<event>
 4    1  0.4996155E-019  0.1492391E+02  0.7818608E-02  0.1870399E+00
          2   -1    0    0  501    0  0.00000000000E+00  0.00000000000E+00  0.12015615868E+03  0.12015615870E+03  0.25500000000E-02 0.  1.
         -2   -1    0    0    0  501 -0.00000000000E+00 -0.00000000000E+00 -0.46340010968E+00  0.46340712570E+00  0.25500000000E-02 0. -1.
         31    1    1    2    0    0  0.12999131018E+00  0.34432120311E+00  0.62222369467E+02  0.62667516649E+02  0.74470750000E+01 0.  1.
        -31    1    1    2    0    0 -0.12999131018E+00 -0.34432120311E+00  0.57470389101E+02  0.57952049181E+02  0.74470750000E+01 0. -1.
<mgrwt>
<rscale>  0 0.14923914E+02</rscale>
<asrwt>0</asrwt>
<pdfrwt beam="1">  1        2 0.99736696E+00 0.14923914E+02</pdfrwt>
<pdfrwt beam="2">  1       -2 0.98427143E+00 0.14923914E+02</pdfrwt>
<totfact> 0.39759430E-13</totfact>
</mgrwt>
</event>
<event>
 4    1 -0.4996155E-019  0.1500311E+02  0.7818608E-02  0.1867974E+00
         -2   -1    0    0    0  501 -0.00000000000E+00  0.00000000000E+00  0.12027136242E+03  0.12027136245E+03  0.25500000000E-02 0. -1.
          2   -1    0    0  501    0  0.00000000000E+00 -0.00000000000E+00 -0.46788287900E+00  0.46788982780E+00  0.25500000000E-02 0.  1.
         31    1    1    2    0    0 -0.73598649488E+00 -0.29436070518E+00  0.56430221958E+02  0.56925013839E+02  0.74470750000E+01 0.  1.
        -31    1    1    2    0    0  0.73598649488E+00  0.29436070518E+00  0.63373257587E+02  0.63814238439E+02  0.74470750000E+01 0. -1.
<mgrwt>
<rscale>  0 0.15003111E+02</rscale>
<asrwt>0</asrwt>
<pdfrwt beam="2">  1        2 0.99375954E+00 0.15003111E+02</pdfrwt>
<pdfrwt beam="1">  1       -2 0.99835661E+00 0.15003111E+02</pdfrwt>
<totfact>-0.67277566E-14</totfact>
</mgrwt>
</event>
<event>
 4    1 -0.4996155E-019  0.1492057E+02  0.7818608E-02  0.1870502E+00
          2   -1    0    0  501    0  0.00000000000E+00  0.00000000000E+00  0.11870022433E+03  0.11870022436E+03  0.25500000000E-02 0.  1.
         -2   -1    0    0    0  501 -0.00000000000E+00 -0.00000000000E+00 -0.46887382934E+00  0.46888076346E+00  0.25500000000E-02 0. -1.
         31    1    1    2    0    0 -0.28835310879E-01 -0.24487733647E+00  0.62062409662E+02  0.62508098799E+02  0.74470750000E+01 0.  1.
        -31    1    1    2    0    0  0.28835310879E-01  0.24487733647E+00  0.56168940838E+02  0.56661006321E+02  0.74470750000E+01 0. -1.
<mgrwt>
<rscale>  0 0.14920569E+02</rscale>
<asrwt>0</asrwt>
<pdfrwt beam="1">  1        2 0.98537354E+00 0.14920569E+02</pdfrwt>
<pdfrwt beam="2">  1       -2 0.99580488E+00 0.14920569E+02</pdfrwt>
<totfact>-0.31272917E-13</totfact>
</mgrwt>
</event>
<event>
 4    1 -0.4996155E-019  0.1499915E+02  0.7818608E-02  0.1868094E+00
          2   -1    0    0  501    0  0.00000000000E+00  0.00000000000E+00  0.12007248173E+03  0.12007248176E+03  0.25500000000E-02 0. -1.
         -2   -1    0    0    0  501 -0.00000000000E+00 -0.00000000000E+00 -0.46841059003E+00  0.46841753101E+00  0.25500000000E-02 0.  1.
         31    1    1    2    0    0 -0.75191644657E+00 -0.46781351730E+00  0.59624485565E+02  0.60094279534E+02  0.74470750000E+01 0.  1.
        -31    1    1    2    0    0  0.75191644657E+00  0.46781351730E+00  0.59979585576E+02  0.60446619755E+02  0.74470750000E+01 0.  1.
<mgrwt>
<rscale>  0 0.14999152E+02</rscale>
<asrwt>0</asrwt>
<pdfrwt beam="1">  1        2 0.99671649E+00 0.14999152E+02</pdfrwt>
<pdfrwt beam="2">  1       -2 0.99486961E+00 0.14999152E+02</pdfrwt>
<totfact>-0.93645927E-14</totfact>
</mgrwt>
</event>
<event>
 4    1  0.4996155E-019  0.1490931E+02  0.7818608E-02  0.1870849E+00
          2   -1    0    0  501    0  0.00000000000E+00  0.00000000000E+00  0.11970598062E+03  0.11970598064E+03  0.25500000000E-02 0. -1.
         -2   -1    0    0    0  501 -0.00000000000E+00 -0.00000000000E+00 -0.46423294280E+00  0.46423994624E+00  0.25500000000E-02 0.  1.
         31    1    1    2    0    0  0.33473431700E-01 -0.32463569033E+00  0.58973692709E+02  0.59442929492E+02  0.74470750000E+01 0.  1.
        -31    1    1    2    0    0 -0.33473431700E-01  0.32463569033E+00  0.60268054964E+02  0.60727291097E+02  0.74470750000E+01 0.  1.
<mgrwt>
<rscale>  0 0.14909310E+02</rscale>
<asrwt>0</asrwt>
<pdfrwt beam="1">  1        2 0.99365146E+00 0.14909310E+02</pdfrwt>
<pdfrwt beam="2">  1       -2 0.98601927E+00 0.14909310E+02</pdfrwt>
<totfact> 0.39875157E-13</totfact>
</mgrwt>
</event>
<event>
 4    1 -0.4996155E-019  0.1495547E+02  0.7818608E-02  0.1869430E+00
          2   -1    0    0  501    0  0.00000000000E+00  0.00000000000E+00  0.11900812363E+03  0.11900812366E+03  0.25500000000E-02 0. -1.
         -2   -1    0    0    0  501 -0.00000000000E+00 -0.00000000000E+00 -0.46985100964E+00  0.46985792933E+00  0.25500000000E-02 0.  1.
         31    1    1    2    0    0 -0.23040767173E+00 -0.51696953992E+00  0.62228604471E+02  0.62675182375E+02  0.74470750000E+01 0. -1.
        -31    1    1    2    0    0  0.23040767173E+00  0.51696953992E+00  0.56309668149E+02  0.56802799212E+02  0.74470750000E+01 0. -1.
<mgrwt>
<rscale>  0 0.14955468E+02</rscale>
<asrwt>0</asrwt>
<pdfrwt beam="1">  1        2 0.98792755E+00 0.14955468E+02</pdfrwt>
<pdfrwt beam="2">  1       -2 0.99788220E+00 0.14955468E+02</pdfrwt>
<totfact>-0.14014268E-13</totfact>
</mgrwt>
</event>
<event>
 4    1 -0.4996155E-019  0.1499595E+02  0.7818608E-02  0.1868192E+00
         -2   -1    0    0    0  501 -0.00000000000E+00  0.00000000000E+00  0.11995687229E+03  0.11995687232E+03  0.25500000000E-02 0. -1.
          2   -1    0    0  501    0  0.00000000000E+00 -0.00000000000E+00 -0.46866213808E+00  0.46866907532E+00  0.25500000000E-02 0.  1.
         31    1    1    2    0    0  0.28915815376E+00  0.50776448269E+00  0.54544060219E+02  0.55053200346E+02  0.74470750000E+01 0.  1.
        -31    1    1    2    0    0 -0.28915815376E+00 -0.50776448269E+00  0.64944149936E+02  0.65372341049E+02  0.74470750000E+01 0. -1.
<mgrwt>
<rscale>  0 0.14995955E+02</rscale>
<asrwt>0</asrwt>
<pdfrwt beam="2">  1        2 0.99539807E+00 0.14995955E+02</pdfrwt>
<pdfrwt beam="1">  1       -2 0.99576263E+00 0.14995955E+02</pdfrwt>
<totfact>-0.10963796E-13</totfact>
</mgrwt>
</event>
<event>
 4    1  0.4996155E-019  0.1490649E+02  0.7818608E-02  0.1870936E+00
         -2   -1    0    0    0  501 -0.00000000000E+00  0.00000000000E+00  0.11839429447E+03  0.11839429450E+03  0.25500000000E-02 0. -1.
          2   -1    0    0  501    0  0.00000000000E+00 -0.00000000000E+00 -0.46919846789E+00  0.46920539721E+00  0.25500000000E-02 0.  1.
         31    1    1    2    0    0  0.19845075610E-01  0.13708834846E+00  0.61112881970E+02  0.61565107454E+02  0.74470750000E+01 0. -1.
        -31    1    1    2    0    0 -0.19845075610E-01 -0.13708834846E+00  0.56812214032E+02  0.57298392441E+02  0.74470750000E+01 0.  1.
<mgrwt>
<rscale>  0 0.14906487E+02</rscale>
<asrwt>0</asrwt>
<pdfrwt beam="2">  1        2 0.99648149E+00 0.14906487E+02</pdfrwt>
<pdfrwt beam="1">  1       -2 0.98284658E+00 0.14906487E+02</pdfrwt>
<totfact> 0.67425563E-13</totfact>
</mgrwt>
</event>
<event>
 4    1 -0.4996155E-019  0.1492528E+02  0.7818608E-02  0.1870357E+00
         -2   -1    0    0    0  501 -0.00000000000E+00  0.00000000000E+00  0.11945078958E+03  0.11945078960E+03  0.25500000000E-02 0. -1.
          2   -1    0    0  501    0  0.00000000000E+00 -0.00000000000E+00 -0.46622218829E+00  0.46622916184E+00  0.25500000000E-02 0.  1.
         31    1    1    2    0    0  0.57784165426E-02 -0.47901760649E+00  0.59081741693E+02  0.59551159676E+02  0.74470750000E+01 0.  1.
        -31    1    1    2    0    0 -0.57784165426E-02  0.47901760649E+00  0.59902825695E+02  0.60365859089E+02  0.74470750000E+01 0.  1.
<mgrwt>
<rscale>  0 0.14925284E+02</rscale>
<asrwt>0</asrwt>
<pdfrwt beam="2">  1        2 0.99021972E+00 0.14925284E+02</pdfrwt>
<pdfrwt beam="1">  1       -2 0.99155781E+00 0.14925284E+02</pdfrwt>
<totfact>-0.93869314E-14</totfact>
</mgrwt>
</event>
<event>
 4    1 -0.4996155E-019  0.1499591E+02  0.7818608E-02  0.1868193E+00
          2   -1    0    0  501    0  0.00000000000E+00  0.00000000000E+00  0.12002171607E+03  0.12002171610E+03  0.25500000000E-02 0. -1.
         -2   -1    0    0    0  501 -0.00000000000E+00 -0.00000000000E+00 -0.46840584397E+00  0.46841278501E+00  0.25500000000E-02 0.  1.
         31    1    1    2    0    0  0.71738246193E+00  0.49344617717E+00  0.60156953490E+02  0.60622405973E+02  0.74470750000E+01 0. -1.
        -31    1    1    2    0    0 -0.71738246193E+00 -0.49344617717E+00  0.59396356735E+02  0.59867722908E+02  0.74470750000E+01 0.  1.
<mgrwt>
<rscale>  0 0.14995905E+02</rscale>
<asrwt>0</asrwt>
<pdfrwt beam="1">  1        2 0.99629669E+00 0.14995905E+02</pdfrwt>
<pdfrwt beam="2">  1       -2 0.99485793E+00 0.14995905E+02</pdfrwt>
<totfact>-0.10100675E-13</totfact>
</mgrwt>
</event>
<event>
 4    1 -0.4996155E-019  0.1493177E+02  0.7818608E-02  0.1870158E+00
         -2   -1    0    0    0  501 -0.00000000000E+00  0.00000000000E+00  0.12014767744E+03  0.12014767747E+03  0.25500000000E-02 0.  1.
          2   -1    0    0  501    0  0.00000000000E+00 -0.00000000000E+00 -0.46392090951E+00  0.46392791765E+00  0.25500000000E-02 0. -1.
         31    1    1    2    0    0 -0.29206465304E+00  0.39309599557E+00  0.58212465494E+02  0.58688924774E+02  0.74470750000E+01 0. -1.
        -31    1    1    2    0    0  0.29206465304E+00 -0.39309599557E+00  0.61471291035E+02  0.61922680609E+02  0.74470750000E+01 0. -1.
<mgrwt>
<rscale>  0 0.14931771E+02</rscale>
<asrwt>0</asrwt>
<pdfrwt beam="2">  1        2 0.98537308E+00 0.14931771E+02</pdfrwt>
<pdfrwt beam="1">  1       -2 0.99730114E+00 0.14931771E+02</pdfrwt>
<totfact>-0.24379308E-13</totfact>
</mgrwt>
</event>
<event>
 4    1  0.4996155E-019  0.1490383E+02  0.7818608E-02  0.1871018E+00
          2   -1    0    0  501    0  0.00000000000E+00  0.00000000000E+00  0.11947771943E+03  0.11947771945E+03  0.25500000000E-02 0. -1.
         -2   -1    0    0    0  501 -0.00000000000E+00 -0.00000000000E+00 -0.46477781564E+00  0.46478481087E+00  0.25500000000E-02 0.  1.
         31    1    1    2    0    0 -0.76011890833E-01  0.22503747059E+00  0.60513852752E+02  0.60970826800E+02  0.74470750000E+01 0. -1.
        -31    1    1    2    0    0  0.76011890833E-01 -0.22503747059E+00  0.58499088858E+02  0.58971677465E+02  0.74470750000E+01 0.  1.
<mgrwt>
<rscale>  0 0.14903827E+02</rscale>
<asrwt>0</asrwt>
<pdfrwt beam="1">  1        2 0.99176854E+00 0.14903827E+02</pdfrwt>
<pdfrwt beam="2">  1       -2 0.98716478E+00 0.14903827E+02</pdfrwt>
<totfact> 0.29570793E-13</totfact>
</mgrwt>
</event>
<event>
 4    1 -0.4996155E-019  0.1496719E+02  0.7818608E-02  0.1869071E+00
          2   -1    0    0  501    0  0.00000000000E+00  0.00000000000E+00  0.11921066246E+03  0.11921066249E+03  0.25500000000E-02 0. -1.
         -2   -1    0    0    0  501 -0.00000000000E+00 -0.00000000000E+00 -0.46978830915E+00  0.46979522977E+00  0.25500000000E-02 0.  1.
         31    1    1    2    0    0  0.34019073833E+00 -0.13660205415E+00  0.64495958470E+02  0.64925510971E+02  0.74470750000E+01 0. -1.
        -31    1    1    2    0    0 -0.34019073833E+00  0.13660205415E+00  0.54244915684E+02  0.54754946749E+02  0.74470750000E+01 0.  1.
<mgrwt>
<rscale>  0 0.14967190E+02</rscale>
<asrwt>0</asrwt>
<pdfrwt beam="1">  1        2 0.98960176E+00 0.14967190E+02</pdfrwt>
<pdfrwt beam="2">  1       -2 0.99775623E+00 0.14967190E+02</pdfrwt>
<totfact>-0.12086720E-13</totfact>
</mgrwt>
</event>
<event>
 4    1 -0.4996155E-019  0.1496121E+02  0.7818608E-02  0.1869255E+00
         -2   -1    0    0    0  501 -0.00000000000E+00  0.00000000000E+00  0.11966691164E+03  0.11966691166E+03  0.25500000000E-02 0. -1.
          2   -1    0    0  501    0  0.00000000000E+00 -0.00000000000E+00 -0.46762303357E+00  0.46762998623E+00  0.25500000000E-02 0.  1.
         31    1    1    2    0    0 -0.31101971563E+00 -0.38390752682E+00  0.63665413001E+02  0.64101387325E+02  0.74470750000E+01 0. -1.
        -31    1    1    2    0    0  0.31101971563E+00  0.38390752682E+00  0.55533875601E+02  0.56033154325E+02  0.74470750000E+01 0. -1.
<mgrwt>
<rscale>  0 0.14961206E+02</rscale>
<asrwt>0</asrwt>
<pdfrwt beam="2">  1        2 0.99319035E+00 0.14961206E+02</pdfrwt>
<pdfrwt beam="1">  1       -2 0.99335644E+00 0.14961206E+02</pdfrwt>
<totfact>-0.12751001E-13</totfact>
</mgrwt>
</event>
<event>
 4    1  0.4996155E-019  0.1490349E+02  0.7818608E-02  0.1871028E+00
         -2   -1    0    0    0  501 -0.00000000000E+00  0.00000000000E+00  0.11818359718E+03  0.11818359721E+03  0.25500000000E-02 0.  1.
          2   -1    0    0  501    0  0.00000000000E+00 -0.00000000000E+00 -0.46984619934E+00  0.46985311910E+00  0.25500000000E-02 0. -1.
         31    1    1    2    0    0 -0.11597302165E+00 -0.15020183804E-01  0.60739632179E+02  0.61194570990E+02  0.74470750000E+01 0.  1.
        -31    1    1    2    0    0  0.11597302165E+00  0.15020183804E-01  0.56974118806E+02  0.57458879341E+02  0.74470750000E+01 0. -1.
<mgrwt>
<rscale>  0 0.14903493E+02</rscale>
<asrwt>0</asrwt>
<pdfrwt beam="2">  1        2 0.99784465E+00 0.14903493E+02</pdfrwt>
<pdfrwt beam="1">  1       -2 0.98110974E+00 0.14903493E+02</pdfrwt>
<totfact> 0.67700026E-13</totfact>
</mgrwt>
</event>
<event>
 4    1  0.4996155E-019  0.1492260E+02  0.7818608E-02  0.1870440E+00
          2   -1    0    0  501    0  0.00000000000E+00  0.00000000000E+00  0.11954089172E+03  0.11954089175E+03  0.25500000000E-02 0. -1.
         -2   -1    0    0    0  501 -0.00000000000E+00 -0.00000000000E+00 -0.46570324285E+00  0.46571022417E+00  0.25500000000E-02 0.  1.
         31    1    1    2    0    0 -0.17731821663E+00 -0.10507253970E+00  0.62849402026E+02  0.63289404667E+02  0.74470750000E+01 0. -1.
        -31    1    1    2    0    0  0.17731821663E+00  0.10507253970E+00  0.56225786453E+02  0.56717197307E+02  0.74470750000E+01 0.  1.
<mgrwt>
<rscale>  0 0.14922601E+02</rscale>
<asrwt>0</asrwt>
<pdfrwt beam="1">  1        2 0.99229855E+00 0.14922601E+02</pdfrwt>
<pdfrwt beam="2">  1       -2 0.98912471E+00 0.14922601E+02</pdfrwt>
<totfact> 0.79041269E-14</totfact>
</mgrwt>
</event>
<event>
 4    1 -0.4996155E-019  0.1490406E+02  0.7818608E-02  0.1871010E+00
          2   -1    0    0  501    0  0.00000000000E+00  0.00000000000E+00  0.11860171769E+03  0.11860171772E+03  0.25500000000E-02 0.  1.
         -2   -1    0    0    0  501 -0.00000000000E+00 -0.00000000000E+00 -0.46822557111E+00  0.46823251482E+00  0.25500000000E-02 0. -1.
         31    1    1    2    0    0 -0.27156127411E+00  0.98646969081E-02  0.59052606933E+02  0.59520947191E+02  0.74470750000E+01 0. -1.
        -31    1    1    2    0    0  0.27156127411E+00 -0.98646969081E-02  0.59080885186E+02  0.59549003042E+02  0.74470750000E+01 0. -1.
<mgrwt>
<rscale>  0 0.14904063E+02</rscale>
<asrwt>0</asrwt>
<pdfrwt beam="1">  1        2 0.98455366E+00 0.14904063E+02</pdfrwt>
<pdfrwt beam="2">  1       -2 0.99443028E+00 0.14904063E+02</pdfrwt>
<totfact>-0.37283229E-13</totfact>
</mgrwt>
</event>
<event>
 4    1 -0.4996155E-019  0.1490285E+02  0.7818608E-02  0.1871048E+00
          2   -1    0    0  501    0  0.00000000000E+00  0.00000000000E+00  0.11804775884E+03  0.11804775886E+03  0.25500000000E-02 0. -1.
         -2   -1    0    0    0  501 -0.00000000000E+00 -0.00000000000E+00 -0.47034604836E+00  0.47035296077E+00  0.25500000000E-02 0.  1.
         31    1    1    2    0    0 -0.20954619067E+00  0.69988793659E-01  0.59793838154E+02  0.60256209765E+02  0.74470750000E+01 0. -1.
        -31    1    1    2    0    0  0.20954619067E+00 -0.69988793659E-01  0.57783574634E+02  0.58261902059E+02  0.74470750000E+01 0.  1.
<mgrwt>
<rscale>  0 0.14902846E+02</rscale>
<asrwt>0</asrwt>
<pdfrwt beam="1">  1        2 0.97999067E+00 0.14902846E+02</pdfrwt>
<pdfrwt beam="2">  1       -2 0.99889743E+00 0.14902846E+02</pdfrwt>
<totfact>-0.28485538E-13</totfact>
</mgrwt>
</event>
<event>
 4    1 -0.4996155E-019  0.1492969E+02  0.7818608E-02  0.1870222E+00
         -2   -1    0    0    0  501 -0.00000000000E+00  0.00000000000E+00  0.11986092223E+03  0.11986092226E+03  0.25500000000E-02 0.  1.
          2   -1    0    0  501    0  0.00000000000E+00 -0.00000000000E+00 -0.46490100200E+00  0.46490799537E+00  0.25500000000E-02 0. -1.
         31    1    1    2    0    0 -0.20180435316E+00 -0.46109479417E+00  0.60567008748E+02  0.61025198141E+02  0.74470750000E+01 0. -1.
        -31    1    1    2    0    0  0.20180435316E+00  0.46109479417E+00  0.58829012485E+02  0.59300632116E+02  0.74470750000E+01 0.  1.
<mgrwt>
<rscale>  0 0.14929687E+02</rscale>
<asrwt>0</asrwt>
<pdfrwt beam="2">  1        2 0.98743764E+00 0.14929687E+02</pdfrwt>
<pdfrwt beam="1">  1       -2 0.99493815E+00 0.14929687E+02</pdfrwt>
<totfact>-0.24066718E-13</totfact>
</mgrwt>
</event>
<event>
 4    1 -0.4996155E-019  0.1492999E+02  0.7818608E-02  0.1870213E+00
          2   -1    0    0  501    0  0.00000000000E+00  0.00000000000E+00  0.11853650836E+03  0.11853650839E+03  0.25500000000E-02 0. -1.
         -2   -1    0    0    0  501 -0.00000000000E+00 -0.00000000000E+00 -0.47011432139E+00  0.47012123721E+00  0.25500000000E-02 0.  1.
         31    1    1    2    0    0 -0.46123825674E+00 -0.23259713418E+00  0.58882986116E+02  0.59354290680E+02  0.74470750000E+01 0. -1.
        -31    1    1    2    0    0  0.46123825674E+00  0.23259713418E+00  0.59183407926E+02  0.59652338948E+02  0.74470750000E+01 0. -1.
<mgrwt>
<rscale>  0 0.14929986E+02</rscale>
<asrwt>0</asrwt>
<pdfrwt beam="1">  1        2 0.98403008E+00 0.14929986E+02</pdfrwt>
<pdfrwt beam="2">  1       -2 0.99842359E+00 0.14929986E+02</pdfrwt>
<totfact>-0.19851637E-13</totfact>
</mgrwt>
</event>
<event>
 4    1 -0.4996155E-019  0.1491713E+02  0.7818608E-02  0.1870608E+00
          2   -1    0    0  501    0  0.00000000000E+00  0.00000000000E+00  0.11883822746E+03  0.11883822749E+03  0.25500000000E-02 0. -1.
         -2   -1    0    0    0  501 -0.00000000000E+00 -0.00000000000E+00 -0.46811318618E+00  0.46812013157E+00  0.25500000000E-02 0.  1.
         31    1    1    2    0    0  0.36526394673E+00 -0.70780555036E-02  0.60739281078E+02  0.61195201280E+02  0.74470750000E+01 0. -1.
        -31    1    1    2    0    0 -0.36526394673E+00  0.70780555036E-02  0.57630833195E+02  0.58111146337E+02  0.74470750000E+01 0.  1.
<mgrwt>
<rscale>  0 0.14917125E+02</rscale>
<asrwt>0</asrwt>
<pdfrwt beam="1">  1        2 0.98650836E+00 0.14917125E+02</pdfrwt>
<pdfrwt beam="2">  1       -2 0.99420031E+00 0.14917125E+02</pdfrwt>
<totfact>-0.27168277E-13</totfact>
</mgrwt>
</event>
<event>
 4    1  0.4996155E-019  0.1489441E+02  0.7818608E-02  0.1871308E+00
         -2   -1    0    0    0  501 -0.00000000000E+00  0.00000000000E+00  0.11897198056E+03  0.11897198059E+03  0.25500000000E-02 0.  1.
          2   -1    0    0  501    0  0.00000000000E+00 -0.00000000000E+00 -0.46616401170E+00  0.46617098612E+00  0.25500000000E-02 0. -1.
         31    1    1    2    0    0 -0.27809549023E-02 -0.43889268710E-01  0.59282718336E+02  0.59748653151E+02  0.74470750000E+01 0. -1.
        -31    1    1    2    0    0  0.27809549023E-02  0.43889268710E-01  0.59223098214E+02  0.59689498424E+02  0.74470750000E+01 0.  1.
<mgrwt>
<rscale>  0 0.14894412E+02</rscale>
<asrwt>0</asrwt>
<pdfrwt beam="2">  1        2 0.99008115E+00 0.14894412E+02</pdfrwt>
<pdfrwt beam="1">  1       -2 0.98759820E+00 0.14894412E+02</pdfrwt>
<totfact> 0.27834745E-13</totfact>
</mgrwt>
</event>
<event>
 4    1  0.4996155E-019  0.1491296E+02  0.7818608E-02  0.1870736E+00
         -2   -1    0    0    0  501 -0.00000000000E+00  0.00000000000E+00  0.11835327239E+03  0.11835327242E+03  0.25500000000E-02 0.  1.
          2   -1    0    0  501    0  0.00000000000E+00 -0.00000000000E+00 -0.46976888162E+00  0.46977580252E+00  0.25500000000E-02 0. -1.
         31    1    1    2    0    0 -0.18166022505E+00 -0.32426091940E+00  0.59300353258E+02  0.59767290119E+02  0.74470750000E+01 0. -1.
        -31    1    1    2    0    0  0.18166022505E+00  0.32426091940E+00  0.58583150255E+02  0.59055758106E+02  0.74470750000E+01 0.  1.
<mgrwt>
<rscale>  0 0.14912960E+02</rscale>
<asrwt>0</asrwt>
<pdfrwt beam="2">  1        2 0.99768676E+00 0.14912960E+02</pdfrwt>
<pdfrwt beam="1">  1       -2 0.98251210E+00 0.14912960E+02</pdfrwt>
<totfact> 0.54256393E-13</totfact>
</mgrwt>
</event>
<event>
 4    1 -0.4996155E-019  0.1493854E+02  0.7818608E-02  0.1869950E+00
         -2   -1    0    0    0  501 -0.00000000000E+00  0.00000000000E+00  0.12026654694E+03  0.12026654697E+03  0.25500000000E-02 0. -1.
          2   -1    0    0  501    0  0.00000000000E+00 -0.00000000000E+00 -0.46388297442E+00  0.46388998314E+00  0.25500000000E-02 0.  1.
         31    1    1    2    0    0 -0.71634231520E-01 -0.17842150208E+00  0.64284447668E+02  0.64714651384E+02  0.74470750000E+01 0. -1.
        -31    1    1    2    0    0  0.71634231520E-01  0.17842150208E+00  0.55518216300E+02  0.56015785569E+02  0.74470750000E+01 0.  1.
<mgrwt>
<rscale>  0 0.14938545E+02</rscale>
<asrwt>0</asrwt>
<pdfrwt beam="2">  1        2 0.98529656E+00 0.14938545E+02</pdfrwt>
<pdfrwt beam="1">  1       -2 0.99828372E+00 0.14938545E+02</pdfrwt>
<totfact>-0.17340455E-13</totfact>
</mgrwt>
</event>
<event>
 4    1 -0.4996155E-019  0.1493374E+02  0.7818608E-02  0.1870097E+00
         -2   -1    0    0    0  501 -0.00000000000E+00  0.00000000000E+00  0.11980978085E+03  0.11980978087E+03  0.25500000000E-02 0. -1.
          2   -1    0    0  501    0  0.00000000000E+00 -0.00000000000E+00 -0.46535184710E+00  0.46535883370E+00  0.25500000000E-02 0.  1.
         31    1    1    2    0    0  0.32554573656E+00  0.58441582792E-01  0.63143847900E+02  0.63582339129E+02  0.74470750000E+01 0.  1.
        -31    1    1    2    0    0 -0.32554573656E+00 -0.58441582792E-01  0.56200581099E+02  0.56692800578E+02  0.74470750000E+01 0.  1.
<mgrwt>
<rscale>  0 0.14933737E+02</rscale>
<asrwt>0</asrwt>
<pdfrwt beam="2">  1        2 0.98838988E+00 0.14933737E+02</pdfrwt>
<pdfrwt beam="1">  1       -2 0.99451901E+00 0.14933737E+02</pdfrwt>
<totfact>-0.21270679E-13</totfact>
</mgrwt>
</event>
<event>
 4    1  0.4996155E-019  0.1490433E+02  0.7818608E-02  0.1871002E+00
         -2   -1    0    0    0  501 -0.00000000000E+00  0.00000000000E+00  0.11815956918E+03  0.11815956920E+03  0.25500000000E-02 0. -1.
          2   -1    0    0  501    0  0.00000000000E+00 -0.00000000000E+00 -0.46999445357E+00  0.47000137115E+00  0.25500000000E-02 0.  1.
         31    1    1    2    0    0  0.19489266706E+00 -0.80118897317E-02  0.60391877169E+02  0.60849616280E+02  0.74470750000E+01 0. -1.
        -31    1    1    2    0    0 -0.19489266706E+00  0.80118897317E-02  0.57297697553E+02  0.57779954295E+02  0.74470750000E+01 0.  1.
<mgrwt>
<rscale>  0 0.14904329E+02</rscale>
<asrwt>0</asrwt>
<pdfrwt beam="2">  1        2 0.99815745E+00 0.14904329E+02</pdfrwt>
<pdfrwt beam="1">  1       -2 0.98091229E+00 0.14904329E+02</pdfrwt>
<totfact> 0.62109207E-13</totfact>
</mgrwt>
</event>
<event>
 4    1  0.4996155E-019  0.1490548E+02  0.7818608E-02  0.1870967E+00
         -2   -1    0    0    0  501 -0.00000000000E+00  0.00000000000E+00  0.11849891505E+03  0.11849891507E+03  0.25500000000E-02 0. -1.
          2   -1    0    0  501    0  0.00000000000E+00 -0.00000000000E+00 -0.46872082925E+00  0.46872776563E+00  0.25500000000E-02 0.  1.
         31    1    1    2    0    0  0.20519288648E+00  0.85866984669E-01  0.60506599849E+02  0.60963571324E+02  0.74470750000E+01 0. -1.
        -31    1    1    2    0    0 -0.20519288648E+00 -0.85866984669E-01  0.57523594369E+02  0.58004071516E+02  0.74470750000E+01 0.  1.
<mgrwt>
<rscale>  0 0.14905479E+02</rscale>
<asrwt>0</asrwt>
<pdfrwt beam="2">  1        2 0.99547456E+00 0.14905479E+02</pdfrwt>
<pdfrwt beam="1">  1       -2 0.98370771E+00 0.14905479E+02</pdfrwt>
<totfact> 0.64253344E-13</totfact>
</mgrwt>
</event>
<event>
 4    1  0.4996155E-019  0.1490808E+02  0.7818608E-02  0.1870886E+00
          2   -1    0    0  501    0  0.00000000000E+00  0.00000000000E+00  0.12034325489E+03  0.12034325492E+03  0.25500000000E-02 0. -1.
         -2   -1    0    0    0  501 -0.00000000000E+00 -0.00000000000E+00 -0.46169839465E+00  0.46170543653E+00  0.25500000000E-02 0.  1.
         31    1    1    2    0    0 -0.28909591636E+00 -0.14046241673E+00  0.59762804952E+02  0.60225867266E+02  0.74470750000E+01 0. -1.
        -31    1    1    2    0    0  0.28909591636E+00  0.14046241673E+00  0.60118751542E+02  0.60579093087E+02  0.74470750000E+01 0. -1.
<mgrwt>
<rscale>  0 0.14908080E+02</rscale>
<asrwt>0</asrwt>
<pdfrwt beam="1">  1        2 0.99889994E+00 0.14908080E+02</pdfrwt>
<pdfrwt beam="2">  1       -2 0.98067667E+00 0.14908080E+02</pdfrwt>
<totfact> 0.41999611E-13</totfact>
</mgrwt>
</event>
<event>
 4    1  0.4996155E-019  0.1490000E+02  0.7818608E-02  0.1871135E+00
          2   -1    0    0  501    0  0.00000000000E+00  0.00000000000E+00  0.11978824025E+03  0.11978824027E+03  0.25500000000E-02 0. -1.
         -2   -1    0    0    0  501 -0.00000000000E+00 -0.00000000000E+00 -0.46333490618E+00  0.46334192319E+00  0.25500000000E-02 0.  1.
         31    1    1    2    0    0  0.57089154851E-01  0.93301620736E-01  0.58227655585E+02  0.58702050776E+02  0.74470750000E+01 0.  1.
        -31    1    1    2    0    0 -0.57089154851E-01 -0.93301620736E-01  0.61097249755E+02  0.61549531420E+02  0.74470750000E+01 0. -1.
<mgrwt>
<rscale>  0 0.14900000E+02</rscale>
<asrwt>0</asrwt>
<pdfrwt beam="1">  1        2 0.99432422E+00 0.14900000E+02</pdfrwt>
<pdfrwt beam="2">  1       -2 0.98412186E+00 0.14900000E+02</pdfrwt>
<totfact> 0.65249384E-13</totfact>
</mgrwt>
</event>
<event>
 4    1 -0.4996155E-019  0.1490610E+02  0.7818608E-02  0.1870948E+00
          2   -1    0    0  501    0  0.00000000000E+00  0.00000000000E+00  0.11852545283E+03  0.11852545285E+03  0.25500000000E-02 0. -1.
         -2   -1    0    0    0  501 -0.00000000000E+00 -0.00000000000E+00 -0.46865482170E+00  0.46866175905E+00  0.25500000000E-02 0.  1.
         31    1    1    2    0    0 -0.15895763920E+00  0.24547033280E+00  0.58556793547E+02  0.59029166687E+02  0.74470750000E+01 0.  1.
        -31    1    1    2    0    0  0.15895763920E+00 -0.24547033280E+00  0.59500004456E+02  0.59964947925E+02  0.74470750000E+01 0. -1.
<mgrwt>
<rscale>  0 0.14906098E+02</rscale>
<asrwt>0</asrwt>
<pdfrwt beam="1">  1        2 0.98392660E+00 0.14906098E+02</pdfrwt>
<pdfrwt beam="2">  1       -2 0.99533581E+00 0.14906098E+02</pdfrwt>
<totfact>-0.40945026E-13</totfact>
</mgrwt>
</event>
<event>
 4    1 -0.4996155E-019  0.1496204E+02  0.7818608E-02  0.1869229E+00
          2   -1    0    0  501    0  0.00000000000E+00  0.00000000000E+00  0.11903912357E+03  0.11903912360E+03  0.25500000000E-02 0.  1.
         -2   -1    0    0    0  501 -0.00000000000E+00 -0.00000000000E+00 -0.47014130688E+00  0.47014822230E+00  0.25500000000E-02 0. -1.
         31    1    1    2    0    0 -0.41070569200E+00 -0.37342598764E+00  0.55725149184E+02  0.56223298585E+02  0.74470750000E+01 0. -1.
        -31    1    1    2    0    0  0.41070569200E+00  0.37342598764E+00  0.62843833082E+02  0.63285973238E+02  0.74470750000E+01 0. -1.
<mgrwt>
<rscale>  0 0.14962035E+02</rscale>
<asrwt>0</asrwt>
<pdfrwt beam="1">  1        2 0.98818628E+00 0.14962035E+02</pdfrwt>
<pdfrwt beam="2">  1       -2 0.99849733E+00 0.14962035E+02</pdfrwt>
<totfact>-0.10200021E-13</totfact>
</mgrwt>
</event>
<event>
 4    1 -0.4996155E-019  0.1494974E+02  0.7818608E-02  0.1869606E+00
         -2   -1    0    0    0  501 -0.00000000000E+00  0.00000000000E+00  0.11956585277E+03  0.11956585279E+03  0.25500000000E-02 0. -1.
          2   -1    0    0  501    0  0.00000000000E+00 -0.00000000000E+00 -0.46730106180E+00  0.46730801926E+00  0.25500000000E-02 0.  1.
         31    1    1    2    0    0 -0.56175819986E+00 -0.20633198570E+00  0.61459427827E+02  0.61911859446E+02  0.74470750000E+01 0.  1.
        -31    1    1    2    0    0  0.56175819986E+00  0.20633198570E+00  0.57639123878E+02  0.58121301368E+02  0.74470750000E+01 0.  1.
<mgrwt>
<rscale>  0 0.14949738E+02</rscale>
<asrwt>0</asrwt>
<pdfrwt beam="2">  1        2 0.99250592E+00 0.14949738E+02</pdfrwt>
<pdfrwt beam="1">  1       -2 0.99251816E+00 0.14949738E+02</pdfrwt>
<totfact>-0.11386342E-13</totfact>
</mgrwt>
</event>
<event>
 4    1 -0.4996155E-019  0.1497122E+02  0.7818608E-02  0.1868948E+00
         -2   -1    0    0    0  501 -0.00000000000E+00  0.00000000000E+00  0.11929678601E+03  0.11929678603E+03  0.25500000000E-02 0.  1.
          2   -1    0    0  501    0  0.00000000000E+00 -0.00000000000E+00 -0.46970189307E+00  0.46970881496E+00  0.25500000000E-02 0. -1.
         31    1    1    2    0    0 -0.14960520233E+00  0.39000636678E+00  0.54348159193E+02  0.54857595831E+02  0.74470750000E+01 0. -1.
        -31    1    1    2    0    0  0.14960520233E+00 -0.39000636678E+00  0.64478924920E+02  0.64908899017E+02  0.74470750000E+01 0.  1.
<mgrwt>
<rscale>  0 0.14971218E+02</rscale>
<asrwt>0</asrwt>
<pdfrwt beam="2">  1        2 0.99757624E+00 0.14971218E+02</pdfrwt>
<pdfrwt beam="1">  1       -2 0.99031318E+00 0.14971218E+02</pdfrwt>
<totfact>-0.55679660E-15</totfact>
</mgrwt>
</event>
<event>
 4    1  0.4996155E-019  0.1490856E+02  0.7818608E-02  0.1870872E+00
         -2   -1    0    0    0  501 -0.00000000000E+00  0.00000000000E+00  0.11829470469E+03  0.11829470472E+03  0.25500000000E-02 0. -1.
          2   -1    0    0  501    0  0.00000000000E+00 -0.00000000000E+00 -0.46972412003E+00  0.46973104159E+00  0.25500000000E-02 0.  1.
         31    1    1    2    0    0 -0.16707532706E+00 -0.28023949053E+00  0.59153369916E+02  0.59621192094E+02  0.74470750000E+01 0. -1.
        -31    1    1    2    0    0  0.16707532706E+00  0.28023949053E+00  0.58671610653E+02  0.59143243663E+02  0.74470750000E+01 0.  1.
<mgrwt>
<rscale>  0 0.14908560E+02</rscale>
<asrwt>0</asrwt>
<pdfrwt beam="2">  1        2 0.99759012E+00 0.14908560E+02</pdfrwt>
<pdfrwt beam="1">  1       -2 0.98202745E+00 0.14908560E+02</pdfrwt>
<totfact> 0.61741419E-13</totfact>
</mgrwt>
</event>
<event>
 4    1  0.4996155E-019  0.1491332E+02  0.7818608E-02  0.1870725E+00
         -2   -1    0    0    0  501 -0.00000000000E+00  0.00000000000E+00  0.11831964941E+03  0.11831964944E+03  0.25500000000E-02 0. -1.
          2   -1    0    0  501    0  0.00000000000E+00 -0.00000000000E+00 -0.46992534159E+00  0.46993226019E+00  0.25500000000E-02 0.  1.
         31    1    1    2    0    0 -0.22619200275E+00  0.11329617426E-01  0.61335569304E+02  0.61786424716E+02  0.74470750000E+01 0. -1.
        -31    1    1    2    0    0  0.22619200275E+00 -0.11329617426E-01  0.56514154767E+02  0.57003156985E+02  0.74470750000E+01 0.  1.
<mgrwt>
<rscale>  0 0.14913325E+02</rscale>
<asrwt>0</asrwt>
<pdfrwt beam="2">  1        2 0.99801660E+00 0.14913325E+02</pdfrwt>
<pdfrwt beam="1">  1       -2 0.98223537E+00 0.14913325E+02</pdfrwt>
<totfact> 0.51078039E-13</totfact>
</mgrwt>
</event>
<event>
 4    1 -0.4996155E-019  0.1490938E+02  0.7818608E-02  0.1870846E+00
         -2   -1    0    0    0  501 -0.00000000000E+00  0.00000000000E+00  0.11996968961E+03  0.11996968964E+03  0.25500000000E-02 0.  1.
          2   -1    0    0  501    0  0.00000000000E+00 -0.00000000000E+00 -0.46321700554E+00  0.46322402433E+00  0.25500000000E-02 0. -1.
         31    1    1    2    0    0 -0.23569227335E+00 -0.23514717733E+00  0.60169338349E+02  0.60629357975E+02  0.74470750000E+01 0. -1.
        -31    1    1    2    0    0  0.23569227335E+00  0.23514717733E+00  0.59337134259E+02  0.59803555690E+02  0.74470750000E+01 0.  1.
<mgrwt>
<rscale>  0 0.14909383E+02</rscale>
<asrwt>0</asrwt>
<pdfrwt beam="2">  1        2 0.98387814E+00 0.14909383E+02</pdfrwt>
<pdfrwt beam="1">  1       -2 0.99582359E+00 0.14909383E+02</pdfrwt>
<totfact>-0.39891092E-13</totfact>
</mgrwt>
</event>
<event>
 4    1 -0.4996155E-019  0.1501926E+02  0.7818608E-02  0.1867481E+00
         -2   -1    0    0    0  501 -0.00000000000E+00  0.00000000000E+00  0.11998127791E+03  0.11998127793E+03  0.25500000000E-02 0.  1.
          2   -1    0    0  501    0  0.00000000000E+00 -0.00000000000E+00 -0.47002423693E+00  0.47003115408E+00  0.25500000000E-02 0. -1.
         31    1    1    2    0    0  0.57894293440E+00  0.76859821031E+00  0.60544777116E+02  0.61008645947E+02  0.74470750000E+01 0.  1.
        -31    1    1    2    0    0 -0.57894293440E+00 -0.76859821031E+00  0.58966476553E+02  0.59442663140E+02  0.74470750000E+01 0.  1.
<mgrwt>
<rscale>  0 0.15019258E+02</rscale>
<asrwt>0</asrwt>
<pdfrwt beam="2">  1        2 0.99828050E+00 0.15019258E+02</pdfrwt>
<pdfrwt beam="1">  1       -2 0.99597570E+00 0.15019258E+02</pdfrwt>
<totfact>-0.54659261E-14</totfact>
</mgrwt>
</event>
<event>
 4    1 -0.4996155E-019  0.1490290E+02  0.7818608E-02  0.1871046E+00
         -2   -1    0    0    0  501 -0.00000000000E+00  0.00000000000E+00  0.12014147505E+03  0.12014147508E+03  0.25500000000E-02 0. -1.
          2   -1    0    0  501    0  0.00000000000E+00 -0.00000000000E+00 -0.46215229790E+00  0.46215933286E+00  0.25500000000E-02 0.  1.
         31    1    1    2    0    0 -0.16254830300E-01 -0.21160770928E+00  0.60987461225E+02  0.61440820264E+02  0.74470750000E+01 0. -1.
        -31    1    1    2    0    0  0.16254830300E-01  0.21160770928E+00  0.58691861531E+02  0.59162814149E+02  0.74470750000E+01 0.  1.
<mgrwt>
<rscale>  0 0.14902897E+02</rscale>
<asrwt>0</asrwt>
<pdfrwt beam="2">  1        2 0.98163078E+00 0.14902897E+02</pdfrwt>
<pdfrwt beam="1">  1       -2 0.99723523E+00 0.14902897E+02</pdfrwt>
<totfact>-0.46275429E-13</totfact>
</mgrwt>
</event>
<event>
 4    1 -0.4996155E-019  0.1498844E+02  0.7818608E-02  0.1868421E+00
          2   -1    0    0  501    0  0.00000000000E+00  0.00000000000E+00  0.11976277210E+03  0.11976277213E+03  0.25500000000E-02 0. -1.
         -2   -1    0    0    0  501 -0.00000000000E+00 -0.00000000000E+00 -0.46895135371E+00  0.46895828668E+00  0.25500000000E-02 0.  1.
         31    1    1    2    0    0  0.60566854964E+00  0.57504535148E+00  0.60312991339E+02  0.60776750175E+02  0.74470750000E+01 0.  1.
        -31    1    1    2    0    0 -0.60566854964E+00 -0.57504535148E+00  0.58980829412E+02  0.59454980243E+02  0.74470750000E+01 0. -1.
<mgrwt>
<rscale>  0 0.14988440E+02</rscale>
<asrwt>0</asrwt>
<pdfrwt beam="1">  1        2 0.99416007E+00 0.14988440E+02</pdfrwt>
<pdfrwt beam="2">  1       -2 0.99600365E+00 0.14988440E+02</pdfrwt>
<totfact>-0.12093644E-13</totfact>
</mgrwt>
</event>
<event>
 4    1 -0.4996155E-019  0.1494702E+02  0.7818608E-02  0.1869690E+00
          2   -1    0    0  501    0  0.00000000000E+00  0.00000000000E+00  0.11924915367E+03  0.11924915370E+03  0.25500000000E-02 0.  1.
         -2   -1    0    0    0  501 -0.00000000000E+00 -0.00000000000E+00 -0.46837151605E+00  0.46837845760E+00  0.25500000000E-02 0. -1.
         31    1    1    2    0    0  0.39622468224E+00  0.41372840779E+00  0.57329097879E+02  0.57813601815E+02  0.74470750000E+01 0.  1.
        -31    1    1    2    0    0 -0.39622468224E+00 -0.41372840779E+00  0.61451684280E+02  0.61903930344E+02  0.74470750000E+01 0. -1.
<mgrwt>
<rscale>  0 0.14947016E+02</rscale>
<asrwt>0</asrwt>
<pdfrwt beam="1">  1        2 0.98990832E+00 0.14947016E+02</pdfrwt>
<pdfrwt beam="2">  1       -2 0.99476026E+00 0.14947016E+02</pdfrwt>
<totfact>-0.18061714E-13</totfact>
</mgrwt>
</event>
<event>
 4    1  0.4996155E-019  0.1489614E+02  0.7818608E-02  0.1871255E+00
         -2   -1    0    0    0  501 -0.00000000000E+00  0.00000000000E+00  0.11814707976E+03  0.11814707979E+03  0.25500000000E-02 0. -1.
          2   -1    0    0  501    0  0.00000000000E+00 -0.00000000000E+00 -0.46952749575E+00  0.46953442021E+00  0.25500000000E-02 0.  1.
         31    1    1    2    0    0 -0.70177845421E-02  0.32381174929E-01  0.59770503316E+02  0.60232658006E+02  0.74470750000E+01 0. -1.
        -31    1    1    2    0    0  0.70177845421E-02 -0.32381174929E-01  0.57907048948E+02  0.58383956202E+02  0.74470750000E+01 0.  1.
<mgrwt>
<rscale>  0 0.14896136E+02</rscale>
<asrwt>0</asrwt>
<pdfrwt beam="2">  1        2 0.99716926E+00 0.14896136E+02</pdfrwt>
<pdfrwt beam="1">  1       -2 0.98080516E+00 0.14896136E+02</pdfrwt>
<totfact> 0.87254880E-13</totfact>
</mgrwt>
</event>
<event>
 4    1  0.4996155E-019  0.1491161E+02  0.7818608E-02  0.1870778E+00
         -2   -1    0    0    0  501 -0.00000000000E+00  0.00000000000E+00  0.11844945454E+03  0.11844945457E+03  0.25500000000E-02 0.  1.
          2   -1    0    0  501    0  0.00000000000E+00 -0.00000000000E+00 -0.46930210671E+00  0.46930903450E+00  0.25500000000E-02 0. -1.
         31    1    1    2    0    0 -0.33201174848E+00  0.12211835965E+00  0.59549535471E+02  0.60014425312E+02  0.74470750000E+01 0. -1.
        -31    1    1    2    0    0  0.33201174848E+00 -0.12211835965E+00  0.58430616963E+02  0.58904338290E+02  0.74470750000E+01 0.  1.
<mgrwt>
<rscale>  0 0.14911605E+02</rscale>
<asrwt>0</asrwt>
<pdfrwt beam="2">  1        2 0.99670256E+00 0.14911605E+02</pdfrwt>
<pdfrwt beam="1">  1       -2 0.98330354E+00 0.14911605E+02</pdfrwt>
<totfact> 0.58471722E-13</totfact>
</mgrwt>
</event>
<event>
 4    1  0.4996155E-019  0.1491787E+02  0.7818608E-02  0.1870585E+00
          2   -1    0    0  501    0  0.00000000000E+00  0.00000000000E+00  0.12029805415E+03  0.12029805417E+03  0.25500000000E-02 0. -1.
         -2   -1    0    0    0  501 -0.00000000000E+00 -0.00000000000E+00 -0.46247893264E+00  0.46248596264E+00  0.25500000000E-02 0.  1.
         31    1    1    2    0    0  0.14427063488E+00  0.29643237886E+00  0.62030721435E+02  0.62477019887E+02  0.74470750000E+01 0. -1.
        -31    1    1    2    0    0 -0.14427063488E+00 -0.29643237886E+00  0.57804853778E+02  0.58283520248E+02  0.74470750000E+01 0.  1.
<mgrwt>
<rscale>  0 0.14917874E+02</rscale>
<asrwt>0</asrwt>
<pdfrwt beam="1">  1        2 0.99853264E+00 0.14917874E+02</pdfrwt>
<pdfrwt beam="2">  1       -2 0.98232680E+00 0.14917874E+02</pdfrwt>
<totfact> 0.39271323E-13</totfact>
</mgrwt>
</event>
<event>
 4    1 -0.4996155E-019  0.1497415E+02  0.7818608E-02  0.1868858E+00
         -2   -1    0    0    0  501 -0.00000000000E+00  0.00000000000E+00  0.11961926776E+03  0.11961926779E+03  0.25500000000E-02 0.  1.
          2   -1    0    0  501    0  0.00000000000E+00 -0.00000000000E+00 -0.46861904609E+00  0.46862598398E+00  0.25500000000E-02 0. -1.
         31    1    1    2    0    0 -0.59907020316E+00 -0.17308363586E+00  0.55913251073E+02  0.56410454835E+02  0.74470750000E+01 0. -1.
        -31    1    1    2    0    0  0.59907020316E+00  0.17308363586E+00  0.63237397642E+02  0.63677438938E+02  0.74470750000E+01 0.  1.
<mgrwt>
<rscale>  0 0.14974149E+02</rscale>
<asrwt>0</asrwt>
<pdfrwt beam="2">  1        2 0.99529597E+00 0.14974149E+02</pdfrwt>
<pdfrwt beam="1">  1       -2 0.99297073E+00 0.14974149E+02</pdfrwt>
<totfact>-0.99690218E-14</totfact>
</mgrwt>
</event>
<event>
 4    1  0.4996155E-019  0.1492865E+02  0.7818608E-02  0.1870254E+00
         -2   -1    0    0    0  501 -0.00000000000E+00  0.00000000000E+00  0.11891323579E+03  0.11891323582E+03  0.25500000000E-02 0.  1.
          2   -1    0    0  501    0  0.00000000000E+00 -0.00000000000E+00 -0.46854120448E+00  0.46854814352E+00  0.25500000000E-02 0. -1.
         31    1    1    2    0    0  0.42430257564E+00 -0.23261945217E+00  0.60437654247E+02  0.60896659362E+02  0.74470750000E+01 0.  1.
        -31    1    1    2    0    0 -0.42430257564E+00  0.23261945217E+00  0.58007040340E+02  0.58485124601E+02  0.74470750000E+01 0.  1.
<mgrwt>
<rscale>  0 0.14928653E+02</rscale>
<asrwt>0</asrwt>
<pdfrwt beam="2">  1        2 0.99510824E+00 0.14928653E+02</pdfrwt>
<pdfrwt beam="1">  1       -2 0.98713212E+00 0.14928653E+02</pdfrwt>
<totfact> 0.22972727E-13</totfact>
</mgrwt>
</event>
<event>
 4    1  0.4996155E-019  0.1494846E+02  0.7818608E-02  0.1869645E+00
         -2   -1    0    0    0  501 -0.00000000000E+00  0.00000000000E+00  0.11867901072E+03  0.11867901074E+03  0.25500000000E-02 0. -1.
          2   -1    0    0  501    0  0.00000000000E+00 -0.00000000000E+00 -0.47071277748E+00  0.47071968451E+00  0.25500000000E-02 0.  1.
         31    1    1    2    0    0 -0.54177383840E+00  0.31373839540E+00  0.58186197159E+02  0.58664166375E+02  0.74470750000E+01 0.  1.
        -31    1    1    2    0    0  0.54177383840E+00 -0.31373839540E+00  0.60022100780E+02  0.60485564053E+02  0.74470750000E+01 0. -1.
<mgrwt>
<rscale>  0 0.14948463E+02</rscale>
<asrwt>0</asrwt>
<pdfrwt beam="2">  1        2 0.99969429E+00 0.14948463E+02</pdfrwt>
<pdfrwt beam="1">  1       -2 0.98521334E+00 0.14948463E+02</pdfrwt>
<totfact> 0.46180446E-14</totfact>
</mgrwt>
</event>
<event>
 4    1 -0.4996155E-019  0.1493946E+02  0.7818608E-02  0.1869921E+00
         -2   -1    0    0    0  501 -0.00000000000E+00  0.00000000000E+00  0.11955190504E+03  0.11955190507E+03  0.25500000000E-02 0.  1.
          2   -1    0    0  501    0  0.00000000000E+00 -0.00000000000E+00 -0.46671344177E+00  0.46672040798E+00  0.25500000000E-02 0. -1.
         31    1    1    2    0    0 -0.48828986177E+00 -0.63833511990E-01  0.62024893441E+02  0.62472304536E+02  0.74470750000E+01 0.  1.
        -31    1    1    2    0    0  0.48828986177E+00  0.63833511990E-01  0.57060298160E+02  0.57546320941E+02  0.74470750000E+01 0. -1.
<mgrwt>
<rscale>  0 0.14939465E+02</rscale>
<asrwt>0</asrwt>
<pdfrwt beam="2">  1        2 0.99126229E+00 0.14939465E+02</pdfrwt>
<pdfrwt beam="1">  1       -2 0.99239797E+00 0.14939465E+02</pdfrwt>
<totfact>-0.12084777E-13</totfact>
</mgrwt>
</event>
<event>
 4    1  0.4996155E-019  0.1491431E+02  0.7818608E-02  0.1870695E+00
         -2   -1    0    0    0  501 -0.00000000000E+00  0.00000000000E+00  0.11874329097E+03  0.11874329099E+03  0.25500000000E-02 0.  1.
          2   -1    0    0  501    0  0.00000000000E+00 -0.00000000000E+00 -0.46831064390E+00  0.46831758636E+00  0.25500000000E-02 0. -1.
         31    1    1    2    0    0 -0.18606870424E+00  0.19747820550E-02  0.56419706334E+02  0.56909373695E+02  0.74470750000E+01 0. -1.
        -31    1    1    2    0    0  0.18606870424E+00 -0.19747820550E-02  0.61855273989E+02  0.62302234886E+02  0.74470750000E+01 0. -1.
<mgrwt>
<rscale>  0 0.14914310E+02</rscale>
<asrwt>0</asrwt>
<pdfrwt beam="2">  1        2 0.99461491E+00 0.14914310E+02</pdfrwt>
<pdfrwt beam="1">  1       -2 0.98572499E+00 0.14914310E+02</pdfrwt>
<totfact> 0.40508801E-13</totfact>
</mgrwt>
</event>
<event>
 4    1  0.4996155E-019  0.1492271E+02  0.7818608E-02  0.1870436E+00
          2   -1    0    0  501    0  0.00000000000E+00  0.00000000000E+00  0.11952384505E+03  0.11952384507E+03  0.25500000000E-02 0. -1.
         -2   -1    0    0    0  501 -0.00000000000E+00 -0.00000000000E+00 -0.46577674399E+00  0.46578372422E+00  0.25500000000E-02 0.  1.
         31    1    1    2    0    0 -0.20906822232E+00  0.96693146826E-01  0.62743948378E+02  0.63184769076E+02  0.74470750000E+01 0.  1.
        -31    1    1    2    0    0  0.20906822232E+00 -0.96693146826E-01  0.56314119925E+02  0.56804859722E+02  0.74470750000E+01 0.  1.
<mgrwt>
<rscale>  0 0.14922714E+02</rscale>
<asrwt>0</asrwt>
<pdfrwt beam="1">  1        2 0.99215820E+00 0.14922714E+02</pdfrwt>
<pdfrwt beam="2">  1       -2 0.98927967E+00 0.14922714E+02</pdfrwt>
<totfact> 0.66558798E-14</totfact>
</mgrwt>
</event>
<event>
 4    1  0.4996155E-019  0.1490481E+02  0.7818608E-02  0.1870987E+00
          2   -1    0    0  501    0  0.00000000000E+00  0.00000000000E+00  0.12032066833E+03  0.12032066836E+03  0.25500000000E-02 0. -1.
         -2   -1    0    0    0  501 -0.00000000000E+00 -0.00000000000E+00 -0.46158264880E+00  0.46158969245E+00  0.25500000000E-02 0.  1.
         31    1    1    2    0    0 -0.21728783456E+00 -0.31683341829E-01  0.58497801378E+02  0.58970330760E+02  0.74470750000E+01 0. -1.
        -31    1    1    2    0    0  0.21728783456E+00  0.31683341829E-01  0.61361284306E+02  0.61811927292E+02  0.74470750000E+01 0. -1.
<mgrwt>
<rscale>  0 0.14904813E+02</rscale>
<asrwt>0</asrwt>
<pdfrwt beam="1">  1        2 0.99871222E+00 0.14904813E+02</pdfrwt>
<pdfrwt beam="2">  1       -2 0.98043106E+00 0.14904813E+02</pdfrwt>
<totfact> 0.50278690E-13</totfact>
</mgrwt>
</event>
<event>
 4    1 -0.4996155E-019  0.1496420E+02  0.7818608E-02  0.1869163E+00
         -2   -1    0    0    0  501 -0.00000000000E+00  0.00000000000E+00  0.11993642284E+03  0.11993642286E+03  0.25500000000E-02 0. -1.
          2   -1    0    0  501    0  0.00000000000E+00 -0.00000000000E+00 -0.46675922251E+00  0.46676618805E+00  0.25500000000E-02 0.  1.
         31    1    1    2    0    0 -0.23399346032E+00 -0.55695086002E+00  0.56536788811E+02  0.57028347007E+02  0.74470750000E+01 0.  1.
        -31    1    1    2    0    0  0.23399346032E+00  0.55695086002E+00  0.62932874802E+02  0.63374842044E+02  0.74470750000E+01 0. -1.
<mgrwt>
<rscale>  0 0.14964204E+02</rscale>
<asrwt>0</asrwt>
<pdfrwt beam="2">  1        2 0.99137151E+00 0.14964204E+02</pdfrwt>
<pdfrwt beam="1">  1       -2 0.99557781E+00 0.14964204E+02</pdfrwt>
<totfact>-0.15458292E-13</totfact>
</mgrwt>
</event>
<event>
 4    1 -0.4996155E-019  0.1496467E+02  0.7818608E-02  0.1869149E+00
         -2   -1    0    0    0  501 -0.00000000000E+00  0.00000000000E+00  0.11974010718E+03  0.11974010720E+03  0.25500000000E-02 0.  1.
          2   -1    0    0  501    0  0.00000000000E+00 -0.00000000000E+00 -0.46755342226E+00  0.46756037596E+00  0.25500000000E-02 0. -1.
         31    1    1    2    0    0  0.10666160235E+00 -0.45065090094E+00  0.55149939552E+02  0.55652396368E+02  0.74470750000E+01 0. -1.
        -31    1    1    2    0    0 -0.10666160235E+00  0.45065090094E+00  0.64122614203E+02  0.64555271212E+02  0.74470750000E+01 0.  1.
<mgrwt>
<rscale>  0 0.14964667E+02</rscale>
<asrwt>0</asrwt>
<pdfrwt beam="2">  1        2 0.99304545E+00 0.14964667E+02</pdfrwt>
<pdfrwt beam="1">  1       -2 0.99396110E+00 0.14964667E+02</pdfrwt>
<totfact>-0.13700934E-13</totfact>
</mgrwt>
</event>
<event>
 4    1  0.4996155E-019  0.1492332E+02  0.7818608E-02  0.1870418E+00
         -2   -1    0    0    0  501 -0.00000000000E+00  0.00000000000E+00  0.11860655263E+03  0.11860655266E+03  0.25500000000E-02 0. -1.
          2   -1    0    0  501    0  0.00000000000E+00 -0.00000000000E+00 -0.46941692876E+00  0.46942385485E+00  0.25500000000E-02 0.  1.
         31    1    1    2    0    0  0.46600664926E+00 -0.11426336396E-01  0.59155555977E+02  0.59624290535E+02  0.74470750000E+01 0.  1.
        -31    1    1    2    0    0 -0.46600664926E+00  0.11426336396E-01  0.58981579726E+02  0.59451685979E+02  0.74470750000E+01 0. -1.
<mgrwt>
<rscale>  0 0.14923316E+02</rscale>
<asrwt>0</asrwt>
<pdfrwt beam="2">  1        2 0.99695066E+00 0.14923316E+02</pdfrwt>
<pdfrwt beam="1">  1       -2 0.98460349E+00 0.14923316E+02</pdfrwt>
<totfact> 0.40349382E-13</totfact>
</mgrwt>
</event>
<event>
 4    1  0.4996155E-019  0.1490946E+02  0.7818608E-02  0.1870844E+00
         -2   -1    0    0    0  501 -0.00000000000E+00  0.00000000000E+00  0.11811493489E+03  0.11811493492E+03  0.25500000000E-02 0.  1.
          2   -1    0    0  501    0  0.00000000000E+00 -0.00000000000E+00 -0.47049585927E+00  0.47050276948E+00  0.25500000000E-02 0. -1.
         31    1    1    2    0    0 -0.10698979191E+00  0.17423059438E+00  0.56684019215E+02  0.57171485581E+02  0.74470750000E+01 0. -1.
        -31    1    1    2    0    0  0.10698979191E+00 -0.17423059438E+00  0.60960419818E+02  0.61413952108E+02  0.74470750000E+01 0.  1.
<mgrwt>
<rscale>  0 0.14909460E+02</rscale>
<asrwt>0</asrwt>
<pdfrwt beam="2">  1        2 0.99921658E+00 0.14909460E+02</pdfrwt>
<pdfrwt beam="1">  1       -2 0.98054737E+00 0.14909460E+02</pdfrwt>
<totfact> 0.31694031E-13</totfact>
</mgrwt>
</event>
<event>
 4    1  0.4996155E-019  0.1491176E+02  0.7818608E-02  0.1870773E+00
         -2   -1    0    0    0  501 -0.00000000000E+00  0.00000000000E+00  0.11818785718E+03  0.11818785721E+03  0.25500000000E-02 0. -1.
          2   -1    0    0  501    0  0.00000000000E+00 -0.00000000000E+00 -0.47035083745E+00  0.47035774979E+00  0.25500000000E-02 0.  1.
         31    1    1    2    0    0 -0.25288683399E-01  0.55345913418E-01  0.61700550055E+02  0.62148374925E+02  0.74470750000E+01 0. -1.
        -31    1    1    2    0    0  0.25288683399E-01 -0.55345913418E-01  0.56016956289E+02  0.56509840033E+02  0.74470750000E+01 0.  1.
<mgrwt>
<rscale>  0 0.14911763E+02</rscale>
<asrwt>0</asrwt>
<pdfrwt beam="2">  1        2 0.99891226E+00 0.14911763E+02</pdfrwt>
<pdfrwt beam="1">  1       -2 0.98114914E+00 0.14911763E+02</pdfrwt>
<totfact> 0.38177484E-13</totfact>
</mgrwt>
</event>
<event>
 4    1 -0.4996155E-019  0.1497408E+02  0.7818608E-02  0.1868860E+00
          2   -1    0    0  501    0  0.00000000000E+00  0.00000000000E+00  0.11981579408E+03  0.11981579411E+03  0.25500000000E-02 0. -1.
         -2   -1    0    0    0  501 -0.00000000000E+00 -0.00000000000E+00 -0.46784632874E+00  0.46785327809E+00  0.25500000000E-02 0.  1.
         31    1    1    2    0    0 -0.50934132819E+00 -0.34598448885E+00  0.55925672650E+02  0.56422680912E+02  0.74470750000E+01 0.  1.
        -31    1    1    2    0    0  0.50934132819E+00  0.34598448885E+00  0.63422275101E+02  0.63860966473E+02  0.74470750000E+01 0. -1.
<mgrwt>
<rscale>  0 0.14974084E+02</rscale>
<asrwt>0</asrwt>
<pdfrwt beam="1">  1        2 0.99458935E+00 0.14974084E+02</pdfrwt>
<pdfrwt beam="2">  1       -2 0.99366757E+00 0.14974084E+02</pdfrwt>
<totfact>-0.11817807E-13</totfact>
</mgrwt>
</event>
<event>
 4    1 -0.4996155E-019  0.1490428E+02  0.7818608E-02  0.1871004E+00
          2   -1    0    0  501    0  0.00000000000E+00  0.00000000000E+00  0.11843400859E+03  0.11843400862E+03  0.25500000000E-02 0. -1.
         -2   -1    0    0    0  501 -0.00000000000E+00 -0.00000000000E+00 -0.46890231885E+00  0.46890925255E+00  0.25500000000E-02 0.  1.
         31    1    1    2    0    0  0.34624766906E-01 -0.23533462194E+00  0.57886145284E+02  0.58363698676E+02  0.74470750000E+01 0.  1.
        -31    1    1    2    0    0 -0.34624766906E-01  0.23533462194E+00  0.60078960990E+02  0.60539219197E+02  0.74470750000E+01 0. -1.
<mgrwt>
<rscale>  0 0.14904281E+02</rscale>
<asrwt>0</asrwt>
<pdfrwt beam="1">  1        2 0.98317252E+00 0.14904281E+02</pdfrwt>
<pdfrwt beam="2">  1       -2 0.99585634E+00 0.14904281E+02</pdfrwt>
<totfact>-0.44780661E-13</totfact>
</mgrwt>
</event>
<event>
 4    1  0.4996155E-019  0.1493287E+02  0.7818608E-02  0.1870124E+00
          2   -1    0    0  501    0  0.00000000000E+00  0.00000000000E+00  0.12031983314E+03  0.12031983317E+03  0.25500000000E-02 0. -1.
         -2   -1    0    0    0  501 -0.00000000000E+00 -0.00000000000E+00 -0.46332559081E+00  0.46333260796E+00  0.25500000000E-02 0.  1.
         31    1    1    2    0    0  0.19055576178E+00 -0.32268602455E+00  0.56813225989E+02  0.57300453847E+02  0.74470750000E+01 0.  1.
        -31    1    1    2    0    0 -0.19055576178E+00  0.32268602455E+00  0.63043281565E+02  0.63482711932E+02  0.74470750000E+01 0. -1.
<mgrwt>
<rscale>  0 0.14932874E+02</rscale>
<asrwt>0</asrwt>
<pdfrwt beam="1">  1        2 0.99871972E+00 0.14932874E+02</pdfrwt>
<pdfrwt beam="2">  1       -2 0.98411890E+00 0.14932874E+02</pdfrwt>
<totfact> 0.23331356E-13</totfact>
</mgrwt>
</event>
<event>
 4    1 -0.4996155E-019  0.1494057E+02  0.7818608E-02  0.1869887E+00
          2   -1    0    0  501    0  0.00000000000E+00  0.00000000000E+00  0.11878105213E+03  0.11878105215E+03  0.25500000000E-02 0. -1.
         -2   -1    0    0    0  501 -0.00000000000E+00 -0.00000000000E+00 -0.46981201928E+00  0.46981893955E+00  0.25500000000E-02 0.  1.
         31    1    1    2    0    0 -0.41808132605E+00  0.20262785552E+00  0.62037925124E+02  0.62485029645E+02  0.74470750000E+01 0. -1.
        -31    1    1    2    0    0  0.41808132605E+00 -0.20262785552E+00  0.56273314984E+02  0.56765841448E+02  0.74470750000E+01 0.  1.
<mgrwt>
<rscale>  0 0.14940573E+02</rscale>
<asrwt>0</asrwt>
<pdfrwt beam="1">  1        2 0.98604964E+00 0.14940573E+02</pdfrwt>
<pdfrwt beam="2">  1       -2 0.99779222E+00 0.14940573E+02</pdfrwt>
<totfact>-0.18898835E-13</totfact>
</mgrwt>
</event>
<event>
 4    1 -0.4996155E-019  0.1495902E+02  0.7818608E-02  0.1869322E+00
         -2   -1    0    0    0  501 -0.00000000000E+00  0.00000000000E+00  0.12033466357E+03  0.12033466360E+03  0.25500000000E-02 0.  1.
          2   -1    0    0  501    0  0.00000000000E+00 -0.00000000000E+00 -0.46489195922E+00  0.46489895273E+00  0.25500000000E-02 0. -1.
         31    1    1    2    0    0  0.58042469986E+00 -0.28920638146E+00  0.57898638395E+02  0.58379206806E+02  0.74470750000E+01 0. -1.
        -31    1    1    2    0    0 -0.58042469986E+00  0.28920638146E+00  0.61971133216E+02  0.62420355745E+02  0.74470750000E+01 0.  1.
<mgrwt>
<rscale>  0 0.14959016E+02</rscale>
<asrwt>0</asrwt>
<pdfrwt beam="2">  1        2 0.98743353E+00 0.14959016E+02</pdfrwt>
<pdfrwt beam="1">  1       -2 0.99885530E+00 0.14959016E+02</pdfrwt>
<totfact>-0.88441592E-14</totfact>
</mgrwt>
</event>
<event>
 4    1 -0.4996155E-019  0.1491492E+02  0.7818608E-02  0.1870676E+00
         -2   -1    0    0    0  501 -0.00000000000E+00  0.00000000000E+00  0.12016606582E+03  0.12016606585E+03  0.25500000000E-02 0. -1.
          2   -1    0    0  501    0  0.00000000000E+00 -0.00000000000E+00 -0.46280369210E+00  0.46281071716E+00  0.25500000000E-02 0.  1.
         31    1    1    2    0    0 -0.26494840447E+00 -0.28486186864E+00  0.59376286318E+02  0.59842740971E+02  0.74470750000E+01 0. -1.
        -31    1    1    2    0    0  0.26494840447E+00  0.28486186864E+00  0.60326975809E+02  0.60786135593E+02  0.74470750000E+01 0. -1.
<mgrwt>
<rscale>  0 0.14914922E+02</rscale>
<asrwt>0</asrwt>
<pdfrwt beam="2">  1        2 0.98300981E+00 0.14914922E+02</pdfrwt>
<pdfrwt beam="1">  1       -2 0.99744395E+00 0.14914922E+02</pdfrwt>
<totfact>-0.34677879E-13</totfact>
</mgrwt>
</event>
<event>
 4    1 -0.4996155E-019  0.1498054E+02  0.7818608E-02  0.1868663E+00
         -2   -1    0    0    0  501 -0.00000000000E+00  0.00000000000E+00  0.12003065009E+03  0.12003065012E+03  0.25500000000E-02 0.  1.
          2   -1    0    0  501    0  0.00000000000E+00 -0.00000000000E+00 -0.46741153781E+00  0.46741849362E+00  0.25500000000E-02 0. -1.
         31    1    1    2    0    0  0.72476913438E+00 -0.17407457893E+00  0.62189519688E+02  0.62638254105E+02  0.74470750000E+01 0.  1.
        -31    1    1    2    0    0 -0.72476913438E+00  0.17407457893E+00  0.57373718862E+02  0.57859814504E+02  0.74470750000E+01 0. -1.
<mgrwt>
<rscale>  0 0.14980538E+02</rscale>
<asrwt>0</asrwt>
<pdfrwt beam="2">  1        2 0.99275462E+00 0.14980538E+02</pdfrwt>
<pdfrwt beam="1">  1       -2 0.99636234E+00 0.14980538E+02</pdfrwt>
<totfact>-0.12861588E-13</totfact>
</mgrwt>
</event>
<event>
 4    1 -0.4996155E-019  0.1489965E+02  0.7818608E-02  0.1871146E+00
         -2   -1    0    0    0  501 -0.00000000000E+00  0.00000000000E+00  0.11970158425E+03  0.11970158428E+03  0.25500000000E-02 0.  1.
          2   -1    0    0  501    0  0.00000000000E+00 -0.00000000000E+00 -0.46364838505E+00  0.46365539732E+00  0.25500000000E-02 0. -1.
         31    1    1    2    0    0 -0.56287290002E-02  0.96122980960E-01  0.61054256817E+02  0.61506832733E+02  0.74470750000E+01 0.  1.
        -31    1    1    2    0    0  0.56287290002E-02 -0.96122980960E-01  0.58183679053E+02  0.58658406946E+02  0.74470750000E+01 0. -1.
<mgrwt>
<rscale>  0 0.14899647E+02</rscale>
<asrwt>0</asrwt>
<pdfrwt beam="2">  1        2 0.98478236E+00 0.14899647E+02</pdfrwt>
<pdfrwt beam="1">  1       -2 0.99361028E+00 0.14899647E+02</pdfrwt>
<totfact>-0.34048782E-13</totfact>
</mgrwt>
</event>
<event>
 4    1 -0.4996155E-019  0.1494653E+02  0.7818608E-02  0.1869705E+00
         -2   -1    0    0    0  501 -0.00000000000E+00  0.00000000000E+00  0.11969035877E+03  0.11969035879E+03  0.25500000000E-02 0. -1.
          2   -1    0    0  501    0  0.00000000000E+00 -0.00000000000E+00 -0.46661434476E+00  0.46662131245E+00  0.25500000000E-02 0.  1.
         31    1    1    2    0    0 -0.56940261831E-01 -0.45084669893E+00  0.56161340164E+02  0.56654757612E+02  0.74470750000E+01 0.  1.
        -31    1    1    2    0    0  0.56940261831E-01  0.45084669893E+00  0.63062404257E+02  0.63502222494E+02  0.74470750000E+01 0. -1.
<mgrwt>
<rscale>  0 0.14946526E+02</rscale>
<asrwt>0</asrwt>
<pdfrwt beam="2">  1        2 0.99105710E+00 0.14946526E+02</pdfrwt>
<pdfrwt beam="1">  1       -2 0.99354198E+00 0.14946526E+02</pdfrwt>
<totfact>-0.15284126E-13</totfact>
</mgrwt>
</event>
<event>
 4    1 -0.4996155E-019  0.1492140E+02  0.7818608E-02  0.1870476E+00
          2   -1    0    0  501    0  0.00000000000E+00  0.00000000000E+00  0.11905384937E+03  0.11905384939E+03  0.25500000000E-02 0.  1.
         -2   -1    0    0    0  501 -0.00000000000E+00 -0.00000000000E+00 -0.46753333733E+00  0.46754029132E+00  0.25500000000E-02 0. -1.
         31    1    1    2    0    0  0.16185726586E+00 -0.60897303972E-01  0.62627004203E+02  0.63068458739E+02  0.74470750000E+01 0.  1.
        -31    1    1    2    0    0 -0.16185726586E+00  0.60897303972E-01  0.55959311825E+02  0.56452930945E+02  0.74470750000E+01 0. -1.
<mgrwt>
<rscale>  0 0.14921402E+02</rscale>
<asrwt>0</asrwt>
<pdfrwt beam="1">  1        2 0.98828647E+00 0.14921402E+02</pdfrwt>
<pdfrwt beam="2">  1       -2 0.99298069E+00 0.14921402E+02</pdfrwt>
<totfact>-0.18622611E-13</totfact>
</mgrwt>
</event>
<event>
 4    1  0.4996155E-019  0.1491684E+02  0.7818608E-02  0.1870617E+00
          2   -1    0    0  501    0  0.00000000000E+00  0.00000000000E+00  0.11991987691E+03  0.11991987694E+03  0.25500000000E-02 0.  1.
         -2   -1    0    0    0  501 -0.00000000000E+00 -0.00000000000E+00 -0.46387311427E+00  0.46388012314E+00  0.25500000000E-02 0. -1.
         31    1    1    2    0    0 -0.14222925384E+00  0.21503253130E+00  0.62313481170E+02  0.62757432466E+02  0.74470750000E+01 0.  1.
        -31    1    1    2    0    0  0.14222925384E+00 -0.21503253130E+00  0.57142522627E+02  0.57626324595E+02  0.74470750000E+01 0. -1.
<mgrwt>
<rscale>  0 0.14916840E+02</rscale>
<asrwt>0</asrwt>
<pdfrwt beam="1">  1        2 0.99541713E+00 0.14916840E+02</pdfrwt>
<pdfrwt beam="2">  1       -2 0.98526475E+00 0.14916840E+02</pdfrwt>
<totfact> 0.42895627E-13</totfact>
</mgrwt>
</event>
<event>
 4    1  0.4996155E-019  0.1490407E+02  0.7818608E-02  0.1871010E+00
          2   -1    0    0  501    0  0.00000000000E+00  0.00000000000E+00  0.12020845736E+03  0.12020845738E+03  0.25500000000E-02 0. -1.
         -2   -1    0    0    0  501 -0.00000000000E+00 -0.00000000000E+00 -0.46196719321E+00  0.46197423099E+00  0.25500000000E-02 0.  1.
         31    1    1    2    0    0 -0.14860825886E+00 -0.19343193451E+00  0.60843590949E+02  0.61298131994E+02  0.74470750000E+01 0.  1.
        -31    1    1    2    0    0  0.14860825886E+00  0.19343193451E+00  0.58902899215E+02  0.59372299622E+02  0.74470750000E+01 0.  1.
<mgrwt>
<rscale>  0 0.14904065E+02</rscale>
<asrwt>0</asrwt>
<pdfrwt beam="1">  1        2 0.99778756E+00 0.14904065E+02</pdfrwt>
<pdfrwt beam="2">  1       -2 0.98124122E+00 0.14904065E+02</pdfrwt>
<totfact> 0.67397751E-13</totfact>
</mgrwt>
</event>
<event>
 4    1 -0.4996155E-019  0.1493435E+02  0.7818608E-02  0.1870078E+00
         -2   -1    0    0    0  501 -0.00000000000E+00  0.00000000000E+00  0.11983526267E+03  0.11983526270E+03  0.25500000000E-02 0. -1.
          2   -1    0    0  501    0  0.00000000000E+00 -0.00000000000E+00 -0.46529109819E+00  0.46529808570E+00  0.25500000000E-02 0.  1.
         31    1    1    2    0    0  0.14982456909E-01  0.56319639621E-01  0.64070354540E+02  0.64501725972E+02  0.74470750000E+01 0. -1.
        -31    1    1    2    0    0 -0.14982456909E-01 -0.56319639621E-01  0.55299617035E+02  0.55798834815E+02  0.74470750000E+01 0.  1.
<mgrwt>
<rscale>  0 0.14934350E+02</rscale>
<asrwt>0</asrwt>
<pdfrwt beam="2">  1        2 0.98826216E+00 0.14934350E+02</pdfrwt>
<pdfrwt beam="1">  1       -2 0.99472921E+00 0.14934350E+02</pdfrwt>
<totfact>-0.21653261E-13</totfact>
</mgrwt>
</event>
<event>
 4    1  0.4996155E-019  0.1492094E+02  0.7818608E-02  0.1870491E+00
          2   -1    0    0  501    0  0.00000000000E+00  0.00000000000E+00  0.12022658402E+03  0.12022658405E+03  0.25500000000E-02 0.  1.
         -2   -1    0    0    0  501 -0.00000000000E+00 -0.00000000000E+00 -0.46294434970E+00  0.46295137263E+00  0.25500000000E-02 0. -1.
         31    1    1    2    0    0  0.30198633052E+00 -0.31228133814E+00  0.60730226825E+02  0.61186665963E+02  0.74470750000E+01 0.  1.
        -31    1    1    2    0    0 -0.30198633052E+00  0.31228133814E+00  0.59033412846E+02  0.59502869458E+02  0.74470750000E+01 0. -1.
<mgrwt>
<rscale>  0 0.14920944E+02</rscale>
<asrwt>0</asrwt>
<pdfrwt beam="1">  1        2 0.99794552E+00 0.14920944E+02</pdfrwt>
<pdfrwt beam="2">  1       -2 0.98330932E+00 0.14920944E+02</pdfrwt>
<totfact> 0.41677508E-13</totfact>
</mgrwt>
</event>
<event>
 4    1  0.4996155E-019  0.1490619E+02  0.7818608E-02  0.1870945E+00
          2   -1    0    0  501    0  0.00000000000E+00  0.00000000000E+00  0.11953003412E+03  0.11953003414E+03  0.25500000000E-02 0. -1.
         -2   -1    0    0    0  501 -0.00000000000E+00 -0.00000000000E+00 -0.46472178080E+00  0.46472877687E+00  0.25500000000E-02 0.  1.
         31    1    1    2    0    0 -0.13956873634E-01 -0.29186787731E+00  0.59003312608E+02  0.59472138068E+02  0.74470750000E+01 0.  1.
        -31    1    1    2    0    0  0.13956873634E-01  0.29186787731E+00  0.60061999727E+02  0.60522624851E+02  0.74470750000E+01 0.  1.
<mgrwt>
<rscale>  0 0.14906191E+02</rscale>
<asrwt>0</asrwt>
<pdfrwt beam="1">  1        2 0.99220066E+00 0.14906191E+02</pdfrwt>
<pdfrwt beam="2">  1       -2 0.98704790E+00 0.14906191E+02</pdfrwt>
<totfact> 0.30120179E-13</totfact>
</mgrwt>
</event>
<event>
 4    1  0.4996155E-019  0.1491993E+02  0.7818608E-02  0.1870522E+00
         -2   -1    0    0    0  501 -0.00000000000E+00  0.00000000000E+00  0.11859668652E+03  0.11859668655E+03  0.25500000000E-02 0.  1.
          2   -1    0    0  501    0  0.00000000000E+00 -0.00000000000E+00 -0.46924288452E+00  0.46924981318E+00  0.25500000000E-02 0. -1.
         31    1    1    2    0    0  0.12540050168E+00 -0.32111967506E+00  0.56903185612E+02  0.57389461593E+02  0.74470750000E+01 0.  1.
        -31    1    1    2    0    0 -0.12540050168E+00  0.32111967506E+00  0.61224258029E+02  0.61676474773E+02  0.74470750000E+01 0. -1.
<mgrwt>
<rscale>  0 0.14919928E+02</rscale>
<asrwt>0</asrwt>
<pdfrwt beam="2">  1        2 0.99658216E+00 0.14919928E+02</pdfrwt>
<pdfrwt beam="1">  1       -2 0.98452047E+00 0.14919928E+02</pdfrwt>
<totfact> 0.44433300E-13</totfact>
</mgrwt>
</event>
<event>
 4    1  0.4996155E-019  0.1490362E+02  0.7818608E-02  0.1871024E+00
         -2   -1    0    0    0  501 -0.00000000000E+00  0.00000000000E+00  0.11820926380E+03  0.11820926382E+03  0.25500000000E-02 0. -1.
          2   -1    0    0  501    0  0.00000000000E+00 -0.00000000000E+00 -0.46975201439E+00  0.46975893554E+00  0.25500000000E-02 0.  1.
         31    1    1    2    0    0 -0.26108977386E+00 -0.37185558551E-01  0.59118458105E+02  0.59586244766E+02  0.74470750000E+01 0. -1.
        -31    1    1    2    0    0  0.26108977386E+00  0.37185558551E-01  0.58621053678E+02  0.59092777994E+02  0.74470750000E+01 0.  1.
<mgrwt>
<rscale>  0 0.14903617E+02</rscale>
<asrwt>0</asrwt>
<pdfrwt beam="2">  1        2 0.99764627E+00 0.14903617E+02</pdfrwt>
<pdfrwt beam="1">  1       -2 0.98132120E+00 0.14903617E+02</pdfrwt>
<totfact> 0.69548070E-13</totfact>
</mgrwt>
</event>
<event>
 4    1  0.4996155E-019  0.1492457E+02  0.7818608E-02  0.1870379E+00
         -2   -1    0    0    0  501 -0.00000000000E+00  0.00000000000E+00  0.11884338359E+03  0.11884338362E+03  0.25500000000E-02 0. -1.
          2   -1    0    0  501    0  0.00000000000E+00 -0.00000000000E+00 -0.46856049194E+00  0.46856743069E+00  0.25500000000E-02 0.  1.
         31    1    1    2    0    0 -0.30365984424E+00  0.80064828925E-01  0.62049605790E+02  0.62495688847E+02  0.74470750000E+01 0. -1.
        -31    1    1    2    0    0  0.30365984424E+00 -0.80064828925E-01  0.56325217313E+02  0.56816262206E+02  0.74470750000E+01 0.  1.
<mgrwt>
<rscale>  0 0.14924574E+02</rscale>
<asrwt>0</asrwt>
<pdfrwt beam="2">  1        2 0.99514674E+00 0.14924574E+02</pdfrwt>
<pdfrwt beam="1">  1       -2 0.98655469E+00 0.14924574E+02</pdfrwt>
<totfact> 0.28854897E-13</totfact>
</mgrwt>
</event>
<event>
 4    1  0.4996155E-019  0.1490814E+02  0.7818608E-02  0.1870885E+00
         -2   -1    0    0    0  501 -0.00000000000E+00  0.00000000000E+00  0.11881942481E+03  0.11881942484E+03  0.25500000000E-02 0.  1.
          2   -1    0    0  501    0  0.00000000000E+00 -0.00000000000E+00 -0.46762344872E+00  0.46763040137E+00  0.25500000000E-02 0. -1.
         31    1    1    2    0    0 -0.21438019484E+00  0.37705945421E-01  0.57267942308E+02  0.57750528334E+02  0.74470750000E+01 0. -1.
        -31    1    1    2    0    0  0.21438019484E+00 -0.37705945421E-01  0.61083859058E+02  0.61536526910E+02  0.74470750000E+01 0.  1.
<mgrwt>
<rscale>  0 0.14908141E+02</rscale>
<asrwt>0</asrwt>
<pdfrwt beam="2">  1        2 0.99316366E+00 0.14908141E+02</pdfrwt>
<pdfrwt beam="1">  1       -2 0.98634883E+00 0.14908141E+02</pdfrwt>
<totfact> 0.36879327E-13</totfact>
</mgrwt>
</event>
<event>
 4    1 -0.4996155E-019  0.1492418E+02  0.7818608E-02  0.1870391E+00
         -2   -1    0    0    0  501 -0.00000000000E+00  0.00000000000E+00  0.11989566335E+03  0.11989566338E+03  0.25500000000E-02 0.  1.
          2   -1    0    0  501    0  0.00000000000E+00 -0.00000000000E+00 -0.46442341065E+00  0.46443041121E+00  0.25500000000E-02 0. -1.
         31    1    1    2    0    0  0.25652728918E+00  0.16481416181E+00  0.62633237843E+02  0.63075148661E+02  0.74470750000E+01 0.  1.
        -31    1    1    2    0    0 -0.25652728918E+00 -0.16481416181E+00  0.56798002101E+02  0.57284945131E+02  0.74470750000E+01 0. -1.
<mgrwt>
<rscale>  0 0.14924178E+02</rscale>
<asrwt>0</asrwt>
<pdfrwt beam="2">  1        2 0.98642828E+00 0.14924178E+02</pdfrwt>
<pdfrwt beam="1">  1       -2 0.99522147E+00 0.14924178E+02</pdfrwt>
<totfact>-0.27584345E-13</totfact>
</mgrwt>
</event>
<event>
 4    1  0.4996155E-019  0.1491681E+02  0.7818608E-02  0.1870618E+00
          2   -1    0    0  501    0  0.00000000000E+00  0.00000000000E+00  0.12013900795E+03  0.12013900798E+03  0.25500000000E-02 0.  1.
         -2   -1    0    0    0  501 -0.00000000000E+00 -0.00000000000E+00 -0.46302541441E+00  0.46303243611E+00  0.25500000000E-02 0. -1.
         31    1    1    2    0    0 -0.11961222060E+00  0.43168695310E-01  0.62997781484E+02  0.63436547577E+02  0.74470750000E+01 0.  1.
        -31    1    1    2    0    0  0.11961222060E+00 -0.43168695310E-01  0.56678201053E+02  0.57165492836E+02  0.74470750000E+01 0. -1.
<mgrwt>
<rscale>  0 0.14916815E+02</rscale>
<asrwt>0</asrwt>
<pdfrwt beam="1">  1        2 0.99722205E+00 0.14916815E+02</pdfrwt>
<pdfrwt beam="2">  1       -2 0.98347809E+00 0.14916815E+02</pdfrwt>
<totfact> 0.50068117E-13</totfact>
</mgrwt>
</event>
<event>
 4    1 -0.4996155E-019  0.1495602E+02  0.7818608E-02  0.1869414E+00
         -2   -1    0    0    0  501 -0.00000000000E+00  0.00000000000E+00  0.11992344119E+03  0.11992344122E+03  0.25500000000E-02 0. -1.
          2   -1    0    0  501    0  0.00000000000E+00 -0.00000000000E+00 -0.46629904327E+00  0.46630601567E+00  0.25500000000E-02 0.  1.
         31    1    1    2    0    0 -0.48576228800E+00  0.16575768896E+00  0.63312586147E+02  0.63751124941E+02  0.74470750000E+01 0. -1.
        -31    1    1    2    0    0  0.48576228800E+00 -0.16575768896E+00  0.56144556004E+02  0.56638622296E+02  0.74470750000E+01 0.  1.
<mgrwt>
<rscale>  0 0.14956016E+02</rscale>
<asrwt>0</asrwt>
<pdfrwt beam="2">  1        2 0.99039750E+00 0.14956016E+02</pdfrwt>
<pdfrwt beam="1">  1       -2 0.99546666E+00 0.14956016E+02</pdfrwt>
<totfact>-0.16887507E-13</totfact>
</mgrwt>
</event>
<event>
 4    1  0.4996155E-019  0.1490508E+02  0.7818608E-02  0.1870979E+00
         -2   -1    0    0    0  501 -0.00000000000E+00  0.00000000000E+00  0.11852006081E+03  0.11852006084E+03  0.25500000000E-02 0.  1.
          2   -1    0    0  501    0  0.00000000000E+00 -0.00000000000E+00 -0.46861227234E+00  0.46861921032E+00  0.25500000000E-02 0. -1.
         31    1    1    2    0    0  0.47672199346E-01  0.18226375450E+00  0.57314460026E+02  0.57796554801E+02  0.74470750000E+01 0. -1.
        -31    1    1    2    0    0 -0.47672199346E-01 -0.18226375450E+00  0.60736988510E+02  0.61192125245E+02  0.74470750000E+01 0.  1.
<mgrwt>
<rscale>  0 0.14905082E+02</rscale>
<asrwt>0</asrwt>
<pdfrwt beam="2">  1        2 0.99524562E+00 0.14905082E+02</pdfrwt>
<pdfrwt beam="1">  1       -2 0.98388166E+00 0.14905082E+02</pdfrwt>
<totfact> 0.63275538E-13</totfact>
</mgrwt>
</event>
<event>
 4    1 -0.4996155E-019  0.1494290E+02  0.7818608E-02  0.1869816E+00
         -2   -1    0    0    0  501 -0.00000000000E+00  0.00000000000E+00  0.12009730888E+03  0.12009730891E+03  0.25500000000E-02 0.  1.
          2   -1    0    0  501    0  0.00000000000E+00 -0.00000000000E+00 -0.46480779572E+00  0.46481479049E+00  0.25500000000E-02 0. -1.
         31    1    1    2    0    0  0.52421277820E+00 -0.87493898055E-01  0.57517052149E+02  0.57999591966E+02  0.74470750000E+01 0. -1.
        -31    1    1    2    0    0 -0.52421277820E+00  0.87493898055E-01  0.62115448940E+02  0.62562531736E+02  0.74470750000E+01 0. -1.
<mgrwt>
<rscale>  0 0.14942903E+02</rscale>
<asrwt>0</asrwt>
<pdfrwt beam="2">  1        2 0.98724795E+00 0.14942903E+02</pdfrwt>
<pdfrwt beam="1">  1       -2 0.99689199E+00 0.14942903E+02</pdfrwt>
<totfact>-0.20216680E-13</totfact>
</mgrwt>
</event>
<event>
 4    1 -0.4996155E-019  0.1495969E+02  0.7818608E-02  0.1869301E+00
         -2   -1    0    0    0  501 -0.00000000000E+00  0.00000000000E+00  0.11990839769E+03  0.11990839772E+03  0.25500000000E-02 0.  1.
          2   -1    0    0  501    0  0.00000000000E+00 -0.00000000000E+00 -0.46658680744E+00  0.46659377555E+00  0.25500000000E-02 0. -1.
         31    1    1    2    0    0 -0.15993854746E+00  0.67863610861E+00  0.60164866684E+02  0.60628015277E+02  0.74470750000E+01 0. -1.
        -31    1    1    2    0    0  0.15993854746E+00 -0.67863610861E+00  0.59276944203E+02  0.59746976219E+02  0.74470750000E+01 0. -1.
<mgrwt>
<rscale>  0 0.14959692E+02</rscale>
<asrwt>0</asrwt>
<pdfrwt beam="2">  1        2 0.99100583E+00 0.14959692E+02</pdfrwt>
<pdfrwt beam="1">  1       -2 0.99534465E+00 0.14959692E+02</pdfrwt>
<totfact>-0.16139075E-13</totfact>
</mgrwt>
</event>
<event>
 4    1 -0.4996155E-019  0.1491782E+02  0.7818608E-02  0.1870587E+00
          2   -1    0    0  501    0  0.00000000000E+00  0.00000000000E+00  0.11889707715E+03  0.11889707717E+03  0.25500000000E-02 0. -1.
         -2   -1    0    0    0  501 -0.00000000000E+00 -0.00000000000E+00 -0.46792532658E+00  0.46793227475E+00  0.25500000000E-02 0.  1.
         31    1    1    2    0    0  0.13690434464E+00 -0.35426430715E+00  0.60650347746E+02  0.61107019676E+02  0.74470750000E+01 0. -1.
        -31    1    1    2    0    0 -0.13690434464E+00  0.35426430715E+00  0.57778804075E+02  0.58257989773E+02  0.74470750000E+01 0.  1.
<mgrwt>
<rscale>  0 0.14917824E+02</rscale>
<asrwt>0</asrwt>
<pdfrwt beam="1">  1        2 0.98699341E+00 0.14917824E+02</pdfrwt>
<pdfrwt beam="2">  1       -2 0.99380482E+00 0.14917824E+02</pdfrwt>
<totfact>-0.24664247E-13</totfact>
</mgrwt>
</event>
<event>
 4    1 -0.4996155E-019  0.1496442E+02  0.7818608E-02  0.1869156E+00
         -2   -1    0    0    0  501 -0.00000000000E+00  0.00000000000E+00  0.12003615777E+03  0.12003615780E+03  0.25500000000E-02 0. -1.
          2   -1    0    0  501    0  0.00000000000E+00 -0.00000000000E+00 -0.46638467387E+00  0.46639164500E+00  0.25500000000E-02 0.  1.
         31    1    1    2    0    0  0.21418609519E+00 -0.15967998540E+00  0.65205591194E+02  0.65630019217E+02  0.74470750000E+01 0. -1.
        -31    1    1    2    0    0 -0.21418609519E+00  0.15967998540E+00  0.54364181900E+02  0.54872530223E+02  0.74470750000E+01 0.  1.
<mgrwt>
<rscale>  0 0.14964417E+02</rscale>
<asrwt>0</asrwt>
<pdfrwt beam="2">  1        2 0.99058227E+00 0.14964417E+02</pdfrwt>
<pdfrwt beam="1">  1       -2 0.99639939E+00 0.14964417E+02</pdfrwt>
<totfact>-0.15111076E-13</totfact>
</mgrwt>
</event>
<event>
 4    1 -0.4996155E-019  0.1497430E+02  0.7818608E-02  0.1868854E+00
          2   -1    0    0  501    0  0.00000000000E+00  0.00000000000E+00  0.12013980870E+03  0.12013980873E+03  0.25500000000E-02 0. -1.
         -2   -1    0    0    0  501 -0.00000000000E+00 -0.00000000000E+00 -0.46659782572E+00  0.46660479366E+00  0.25500000000E-02 0.  1.
         31    1    1    2    0    0 -0.51880046747E+00  0.36049725699E+00  0.63432771947E+02  0.63871547618E+02  0.74470750000E+01 0. -1.
        -31    1    1    2    0    0  0.51880046747E+00 -0.36049725699E+00  0.56240438926E+02  0.56734865901E+02  0.74470750000E+01 0.  1.
<mgrwt>
<rscale>  0 0.14974297E+02</rscale>
<asrwt>0</asrwt>
<pdfrwt beam="1">  1        2 0.99725821E+00 0.14974297E+02</pdfrwt>
<pdfrwt beam="2">  1       -2 0.99103654E+00 0.14974297E+02</pdfrwt>
<totfact>-0.30061531E-14</totfact>
</mgrwt>
</event>
<event>
 4    1  0.4996155E-019  0.1495382E+02  0.7818608E-02  0.1869481E+00
          2   -1    0    0  501    0  0.00000000000E+00  0.00000000000E+00  0.12006764724E+03  0.12006764726E+03  0.25500000000E-02 0.  1.
         -2   -1    0    0    0  501 -0.00000000000E+00 -0.00000000000E+00 -0.46560200368E+00  0.46560898652E+00  0.25500000000E-02 0. -1.
         31    1    1    2    0    0  0.46576350348E+00  0.34607628957E+00  0.57145634965E+02  0.57631755361E+02  0.74470750000E+01 0. -1.
        -31    1    1    2    0    0 -0.46576350348E+00 -0.34607628957E+00  0.62456410268E+02  0.62901500889E+02  0.74470750000E+01 0.  1.
<mgrwt>
<rscale>  0 0.14953817E+02</rscale>
<asrwt>0</asrwt>
<pdfrwt beam="1">  1        2 0.99665330E+00 0.14953817E+02</pdfrwt>
<pdfrwt beam="2">  1       -2 0.98892736E+00 0.14953817E+02</pdfrwt>
<totfact> 0.61629877E-14</totfact>
</mgrwt>
</event>
<event>
 4    1 -0.4996155E-019  0.1493152E+02  0.7818608E-02  0.1870166E+00
          2   -1    0    0  501    0  0.00000000000E+00  0.00000000000E+00  0.11906721974E+03  0.11906721977E+03  0.25500000000E-02 0.  1.
         -2   -1    0    0    0  501 -0.00000000000E+00 -0.00000000000E+00 -0.46811474626E+00  0.46812169162E+00  0.25500000000E-02 0. -1.
         31    1    1    2    0    0 -0.20837684194E-01  0.19210553669E+00  0.63231856325E+02  0.63669175580E+02  0.74470750000E+01 0.  1.
        -31    1    1    2    0    0  0.20837684194E-01 -0.19210553669E+00  0.55367248667E+02  0.55866165877E+02  0.74470750000E+01 0. -1.
<mgrwt>
<rscale>  0 0.14931515E+02</rscale>
<asrwt>0</asrwt>
<pdfrwt beam="1">  1        2 0.98840184E+00 0.14931515E+02</pdfrwt>
<pdfrwt beam="2">  1       -2 0.99421111E+00 0.14931515E+02</pdfrwt>
<totfact>-0.21026287E-13</totfact>
</mgrwt>
</event>
<event>
 4    1 -0.4996155E-019  0.1491575E+02  0.7818608E-02  0.1870650E+00
         -2   -1    0    0    0  501 -0.00000000000E+00  0.00000000000E+00  0.12000699914E+03  0.12000699917E+03  0.25500000000E-02 0. -1.
          2   -1    0    0  501    0  0.00000000000E+00 -0.00000000000E+00 -0.46346831244E+00  0.46347532743E+00  0.25500000000E-02 0.  1.
         31    1    1    2    0    0  0.12971898603E+00  0.10254818161E+00  0.62723878323E+02  0.63164635525E+02  0.74470750000E+01 0. -1.
        -31    1    1    2    0    0 -0.12971898603E+00 -0.10254818161E+00  0.56819652509E+02  0.57305838974E+02  0.74470750000E+01 0.  1.
<mgrwt>
<rscale>  0 0.14915745E+02</rscale>
<asrwt>0</asrwt>
<pdfrwt beam="2">  1        2 0.98441103E+00 0.14915745E+02</pdfrwt>
<pdfrwt beam="1">  1       -2 0.99613417E+00 0.14915745E+02</pdfrwt>
<totfact>-0.35331527E-13</totfact>
</mgrwt>
</event>
<event>
 4    1  0.4996155E-019  0.1491493E+02  0.7818608E-02  0.1870676E+00
          2   -1    0    0  501    0  0.00000000000E+00  0.00000000000E+00  0.12013640427E+03  0.12013640430E+03  0.25500000000E-02 0. -1.
         -2   -1    0    0    0  501 -0.00000000000E+00 -0.00000000000E+00 -0.46291827208E+00  0.46292529541E+00  0.25500000000E-02 0.  1.
         31    1    1    2    0    0 -0.10149718934E+00 -0.35113314620E+00  0.58658331749E+02  0.59130300234E+02  0.74470750000E+01 0.  1.
        -31    1    1    2    0    0  0.10149718934E+00  0.35113314620E+00  0.61015154252E+02  0.61469029362E+02  0.74470750000E+01 0. -1.
<mgrwt>
<rscale>  0 0.14914927E+02</rscale>
<asrwt>0</asrwt>
<pdfrwt beam="1">  1        2 0.99719964E+00 0.14914927E+02</pdfrwt>
<pdfrwt beam="2">  1       -2 0.98325132E+00 0.14914927E+02</pdfrwt>
<totfact> 0.53029483E-13</totfact>
</mgrwt>
</event>
<event>
 4    1  0.4996155E-019  0.1490479E+02  0.7818608E-02  0.1870988E+00
          2   -1    0    0  501    0  0.00000000000E+00  0.00000000000E+00  0.11982512254E+03  0.11982512256E+03  0.25500000000E-02 0.  1.
         -2   -1    0    0    0  501 -0.00000000000E+00 -0.00000000000E+00 -0.46349028815E+00  0.46349730281E+00  0.25500000000E-02 0. -1.
         31    1    1    2    0    0  0.21669002258E+00 -0.16310878689E+00  0.60291137539E+02  0.60749927990E+02  0.74470750000E+01 0. -1.
        -31    1    1    2    0    0 -0.21669002258E+00  0.16310878689E+00  0.59070494710E+02  0.59538691876E+02  0.74470750000E+01 0. -1.
<mgrwt>
<rscale>  0 0.14904792E+02</rscale>
<asrwt>0</asrwt>
<pdfrwt beam="1">  1        2 0.99463047E+00 0.14904792E+02</pdfrwt>
<pdfrwt beam="2">  1       -2 0.98445178E+00 0.14904792E+02</pdfrwt>
<totfact> 0.58343846E-13</totfact>
</mgrwt>
</event>
<event>
 4    1  0.4996155E-019  0.1492737E+02  0.7818608E-02  0.1870293E+00
          2   -1    0    0  501    0  0.00000000000E+00  0.00000000000E+00  0.12005906143E+03  0.12005906146E+03  0.25500000000E-02 0. -1.
         -2   -1    0    0    0  501 -0.00000000000E+00 -0.00000000000E+00 -0.46398978297E+00  0.46399679007E+00  0.25500000000E-02 0.  1.
         31    1    1    2    0    0 -0.90071741955E-01  0.39127247807E+00  0.62171729157E+02  0.62617441975E+02  0.74470750000E+01 0. -1.
        -31    1    1    2    0    0  0.90071741955E-01 -0.39127247807E+00  0.57423342492E+02  0.57905616274E+02  0.74470750000E+01 0.  1.
<mgrwt>
<rscale>  0 0.14927371E+02</rscale>
<asrwt>0</asrwt>
<pdfrwt beam="1">  1        2 0.99656897E+00 0.14927371E+02</pdfrwt>
<pdfrwt beam="2">  1       -2 0.98551600E+00 0.14927371E+02</pdfrwt>
<totfact> 0.33566486E-13</totfact>
</mgrwt>
</event>
<event>
 4    1  0.4996155E-019  0.1491751E+02  0.7818608E-02  0.1870596E+00
         -2   -1    0    0    0  501 -0.00000000000E+00  0.00000000000E+00  0.11844659861E+03  0.11844659864E+03  0.25500000000E-02 0. -1.
          2   -1    0    0  501    0  0.00000000000E+00 -0.00000000000E+00 -0.46968512691E+00  0.46969204905E+00  0.25500000000E-02 0.  1.
         31    1    1    2    0    0 -0.40008490893E+00  0.51491128404E-01  0.59838603160E+02  0.60301576045E+02  0.74470750000E+01 0. -1.
        -31    1    1    2    0    0  0.40008490893E+00 -0.51491128404E-01  0.58138310325E+02  0.58614714644E+02  0.74470750000E+01 0.  1.
<mgrwt>
<rscale>  0 0.14917509E+02</rscale>
<asrwt>0</asrwt>
<pdfrwt beam="2">  1        2 0.99751269E+00 0.14917509E+02</pdfrwt>
<pdfrwt beam="1">  1       -2 0.98328309E+00 0.14917509E+02</pdfrwt>
<totfact> 0.48394745E-13</totfact>
</mgrwt>
</event>
<event>
 4    1 -0.4996155E-019  0.1492624E+02  0.7818608E-02  0.1870328E+00
         -2   -1    0    0    0  501 -0.00000000000E+00  0.00000000000E+00  0.12019611837E+03  0.12019611839E+03  0.25500000000E-02 0. -1.
          2   -1    0    0  501    0  0.00000000000E+00 -0.00000000000E+00 -0.46339047713E+00  0.46339749330E+00  0.25500000000E-02 0.  1.
         31    1    1    2    0    0 -0.10403672510E+00  0.42520982669E+00  0.61630179746E+02  0.62080025843E+02  0.74470750000E+01 0. -1.
        -31    1    1    2    0    0  0.10403672510E+00 -0.42520982669E+00  0.58102548143E+02  0.58579490044E+02  0.74470750000E+01 0.  1.
<mgrwt>
<rscale>  0 0.14926240E+02</rscale>
<asrwt>0</asrwt>
<pdfrwt beam="2">  1        2 0.98425230E+00 0.14926240E+02</pdfrwt>
<pdfrwt beam="1">  1       -2 0.99769730E+00 0.14926240E+02</pdfrwt>
<totfact>-0.26048179E-13</totfact>
</mgrwt>
</event>
<event>
 4    1 -0.4996155E-019  0.1498940E+02  0.7818608E-02  0.1868392E+00
          2   -1    0    0  501    0  0.00000000000E+00  0.00000000000E+00  0.11956157215E+03  0.11956157218E+03  0.25500000000E-02 0.  1.
         -2   -1    0    0    0  501 -0.00000000000E+00 -0.00000000000E+00 -0.46980100605E+00  0.46980792648E+00  0.25500000000E-02 0. -1.
         31    1    1    2    0    0 -0.16109010890E+00  0.66891524875E+00  0.55637315554E+02  0.56137716428E+02  0.74470750000E+01 0. -1.
        -31    1    1    2    0    0  0.16109010890E+00 -0.66891524875E+00  0.63454455589E+02  0.63893663675E+02  0.74470750000E+01 0. -1.
<mgrwt>
<rscale>  0 0.14989405E+02</rscale>
<asrwt>0</asrwt>
<pdfrwt beam="1">  1        2 0.99250343E+00 0.14989405E+02</pdfrwt>
<pdfrwt beam="2">  1       -2 0.99779458E+00 0.14989405E+02</pdfrwt>
<totfact>-0.93746749E-14</totfact>
</mgrwt>
</event>
<event>
 4    1  0.4996155E-019  0.1494446E+02  0.7818608E-02  0.1869768E+00
          2   -1    0    0  501    0  0.00000000000E+00  0.00000000000E+00  0.12038857476E+03  0.12038857478E+03  0.25500000000E-02 0. -1.
         -2   -1    0    0    0  501 -0.00000000000E+00 -0.00000000000E+00 -0.46378009068E+00  0.46378710095E+00  0.25500000000E-02 0.  1.
         31    1    1    2    0    0  0.88616028198E-01  0.34692748632E+00  0.55942438904E+02  0.56437076537E+02  0.74470750000E+01 0.  1.
        -31    1    1    2    0    0 -0.88616028198E-01 -0.34692748632E+00  0.63982355762E+02  0.64415285347E+02  0.74470750000E+01 0. -1.
<mgrwt>
<rscale>  0 0.14944464E+02</rscale>
<asrwt>0</asrwt>
<pdfrwt beam="1">  1        2 0.99929188E+00 0.14944464E+02</pdfrwt>
<pdfrwt beam="2">  1       -2 0.98508271E+00 0.14944464E+02</pdfrwt>
<totfact> 0.10625685E-13</totfact>
</mgrwt>
</event>
<event>
 4    1  0.4996155E-019  0.1490815E+02  0.7818608E-02  0.1870884E+00
         -2   -1    0    0    0  501 -0.00000000000E+00  0.00000000000E+00  0.11860158805E+03  0.11860158808E+03  0.25500000000E-02 0.  1.
          2   -1    0    0  501    0  0.00000000000E+00 -0.00000000000E+00 -0.46848268240E+00  0.46848962231E+00  0.25500000000E-02 0. -1.
         31    1    1    2    0    0 -0.99696740712E-01 -0.79727529051E-01  0.61435624447E+02  0.61885468191E+02  0.74470750000E+01 0.  1.
        -31    1    1    2    0    0  0.99696740712E-01  0.79727529051E-01  0.56697480924E+02  0.57184609513E+02  0.74470750000E+01 0. -1.
<mgrwt>
<rscale>  0 0.14908146E+02</rscale>
<asrwt>0</asrwt>
<pdfrwt beam="2">  1        2 0.99497417E+00 0.14908146E+02</pdfrwt>
<pdfrwt beam="1">  1       -2 0.98455471E+00 0.14908146E+02</pdfrwt>
<totfact> 0.54911023E-13</totfact>
</mgrwt>
</event>
<event>
 4    1 -0.4996155E-019  0.1492425E+02  0.7818608E-02  0.1870389E+00
         -2   -1    0    0    0  501 -0.00000000000E+00  0.00000000000E+00  0.11934636613E+03  0.11934636616E+03  0.25500000000E-02 0.  1.
          2   -1    0    0  501    0  0.00000000000E+00 -0.00000000000E+00 -0.46656533283E+00  0.46657230125E+00  0.25500000000E-02 0. -1.
         31    1    1    2    0    0 -0.27495332822E+00 -0.20455548707E+00  0.56814735774E+02  0.57301750143E+02  0.74470750000E+01 0. -1.
        -31    1    1    2    0    0  0.27495332822E+00  0.20455548707E+00  0.62065065025E+02  0.62511188317E+02  0.74470750000E+01 0.  1.
<mgrwt>
<rscale>  0 0.14924248E+02</rscale>
<asrwt>0</asrwt>
<pdfrwt beam="2">  1        2 0.99094231E+00 0.14924248E+02</pdfrwt>
<pdfrwt beam="1">  1       -2 0.99069720E+00 0.14924248E+02</pdfrwt>
<totfact>-0.38599594E-14</totfact>
</mgrwt>
</event>
<event>
 4    1  0.4996155E-019  0.1493407E+02  0.7818608E-02  0.1870087E+00
          2   -1    0    0  501    0  0.00000000000E+00  0.00000000000E+00  0.12009078902E+03  0.12009078905E+03  0.25500000000E-02 0.  1.
         -2   -1    0    0    0  501 -0.00000000000E+00 -0.00000000000E+00 -0.46428352838E+00  0.46429053105E+00  0.25500000000E-02 0. -1.
         31    1    1    2    0    0 -0.39953261334E+00  0.25288419910E+00  0.62010633767E+02  0.62457995509E+02  0.74470750000E+01 0.  1.
        -31    1    1    2    0    0  0.39953261334E+00 -0.25288419910E+00  0.57615871728E+02  0.58097084073E+02  0.74470750000E+01 0. -1.
<mgrwt>
<rscale>  0 0.14934068E+02</rscale>
<asrwt>0</asrwt>
<pdfrwt beam="1">  1        2 0.99683375E+00 0.14934068E+02</pdfrwt>
<pdfrwt beam="2">  1       -2 0.98613851E+00 0.14934068E+02</pdfrwt>
<totfact> 0.26040125E-13</totfact>
</mgrwt>
</event>
<event>
 4    1 -0.4996155E-019  0.1490014E+02  0.7818608E-02  0.1871131E+00
          2   -1    0    0  501    0  0.00000000000E+00  0.00000000000E+00  0.11839425345E+03  0.11839425348E+03  0.25500000000E-02 0. -1.
         -2   -1    0    0    0  501 -0.00000000000E+00 -0.00000000000E+00 -0.46879921911E+00  0.46880615433E+00  0.25500000000E-02 0.  1.
         31    1    1    2    0    0  0.41379347495E-01 -0.85776467408E-01  0.57458597501E+02  0.57939264948E+02  0.74470750000E+01 0.  1.
        -31    1    1    2    0    0 -0.41379347495E-01  0.85776467408E-01  0.60466856732E+02  0.60923794686E+02  0.74470750000E+01 0. -1.
<mgrwt>
<rscale>  0 0.14900141E+02</rscale>
<asrwt>0</asrwt>
<pdfrwt beam="1">  1        2 0.98284294E+00 0.14900141E+02</pdfrwt>
<pdfrwt beam="2">  1       -2 0.99563692E+00 0.14900141E+02</pdfrwt>
<totfact>-0.48231138E-13</totfact>
</mgrwt>
</event>
<event>
 4    1 -0.4996155E-019  0.1494257E+02  0.7818608E-02  0.1869826E+00
          2   -1    0    0  501    0  0.00000000000E+00  0.00000000000E+00  0.11881502814E+03  0.11881502817E+03  0.25500000000E-02 0.  1.
         -2   -1    0    0    0  501 -0.00000000000E+00 -0.00000000000E+00 -0.46980330530E+00  0.46981022570E+00  0.25500000000E-02 0. -1.
         31    1    1    2    0    0  0.97295372340E-01 -0.38624380979E+00  0.55580042434E+02  0.56078148095E+02  0.74470750000E+01 0. -1.
        -31    1    1    2    0    0 -0.97295372340E-01  0.38624380979E+00  0.62765182401E+02  0.63206690299E+02  0.74470750000E+01 0.  1.
<mgrwt>
<rscale>  0 0.14942571E+02</rscale>
<asrwt>0</asrwt>
<pdfrwt beam="1">  1        2 0.98633050E+00 0.14942571E+02</pdfrwt>
<pdfrwt beam="2">  1       -2 0.99777491E+00 0.14942571E+02</pdfrwt>
<totfact>-0.18219953E-13</totfact>
</mgrwt>
</event>
<event>
 4    1  0.4996155E-019  0.1489725E+02  0.7818608E-02  0.1871220E+00
          2   -1    0    0  501    0  0.00000000000E+00  0.00000000000E+00  0.11975151910E+03  0.11975151913E+03  0.25500000000E-02 0.  1.
         -2   -1    0    0    0  501 -0.00000000000E+00 -0.00000000000E+00 -0.46330600533E+00  0.46331302277E+00  0.25500000000E-02 0. -1.
         31    1    1    2    0    0  0.10302189566E+00 -0.23424873900E-01  0.60525618771E+02  0.60982133579E+02  0.74470750000E+01 0.  1.
        -31    1    1    2    0    0 -0.10302189566E+00  0.23424873900E-01  0.58762594326E+02  0.59232698572E+02  0.74470750000E+01 0. -1.
<mgrwt>
<rscale>  0 0.14897251E+02</rscale>
<asrwt>0</asrwt>
<pdfrwt beam="1">  1        2 0.99402034E+00 0.14897251E+02</pdfrwt>
<pdfrwt beam="2">  1       -2 0.98405955E+00 0.14897251E+02</pdfrwt>
<totfact> 0.67978721E-13</totfact>
</mgrwt>
</event>
<event>
 4    1  0.4996155E-019  0.1492106E+02  0.7818608E-02  0.1870487E+00
         -2   -1    0    0    0  501 -0.00000000000E+00  0.00000000000E+00  0.11845293772E+03  0.11845293775E+03  0.25500000000E-02 0.  1.
          2   -1    0    0  501    0  0.00000000000E+00 -0.00000000000E+00 -0.46988336384E+00  0.46989028306E+00  0.25500000000E-02 0. -1.
         31    1    1    2    0    0 -0.22864686833E+00 -0.86952370810E-01  0.61981249297E+02  0.62427510207E+02  0.74470750000E+01 0.  1.
        -31    1    1    2    0    0  0.22864686833E+00  0.86952370810E-01  0.56001805063E+02  0.56495317828E+02  0.74470750000E+01 0. -1.
<mgrwt>
<rscale>  0 0.14921056E+02</rscale>
<asrwt>0</asrwt>
<pdfrwt beam="2">  1        2 0.99793225E+00 0.14921056E+02</pdfrwt>
<pdfrwt beam="1">  1       -2 0.98333715E+00 0.14921056E+02</pdfrwt>
<totfact> 0.41620781E-13</totfact>
</mgrwt>
</event>
<event>
 4    1 -0.4996155E-019  0.1499976E+02  0.7818608E-02  0.1868076E+00
         -2   -1    0    0    0  501 -0.00000000000E+00  0.00000000000E+00  0.12012512044E+03  0.12012512046E+03  0.25500000000E-02 0. -1.
          2   -1    0    0  501    0  0.00000000000E+00 -0.00000000000E+00 -0.46824306684E+00  0.46825001030E+00  0.25500000000E-02 0.  1.
         31    1    1    2    0    0  0.38997494022E+00  0.48599934066E+00  0.64919366135E+02  0.65348078022E+02  0.74470750000E+01 0. -1.
        -31    1    1    2    0    0 -0.38997494022E+00 -0.48599934066E+00  0.54737511235E+02  0.55245292452E+02  0.74470750000E+01 0.  1.
<mgrwt>
<rscale>  0 0.14999757E+02</rscale>
<asrwt>0</asrwt>
<pdfrwt beam="2">  1        2 0.99451688E+00 0.14999757E+02</pdfrwt>
<pdfrwt beam="1">  1       -2 0.99715036E+00 0.14999757E+02</pdfrwt>
<totfact>-0.96783205E-14</totfact>
</mgrwt>
</event>
<event>
 4    1  0.4996155E-019  0.1494709E+02  0.7818608E-02  0.1869688E+00
         -2   -1    0    0    0  501 -0.00000000000E+00  0.00000000000E+00  0.11899569426E+03  0.11899569429E+03  0.25500000000E-02 0. -1.
          2   -1    0    0  501    0  0.00000000000E+00 -0.00000000000E+00 -0.46937350064E+00  0.46938042737E+00  0.25500000000E-02 0.  1.
         31    1    1    2    0    0 -0.47452221925E+00 -0.28122381098E+00  0.61669652716E+02  0.62120119529E+02  0.74470750000E+01 0. -1.
        -31    1    1    2    0    0  0.47452221925E+00  0.28122381098E+00  0.56856668047E+02  0.57344955189E+02  0.74470750000E+01 0.  1.
<mgrwt>
<rscale>  0 0.14947085E+02</rscale>
<asrwt>0</asrwt>
<pdfrwt beam="2">  1        2 0.99687164E+00 0.14947085E+02</pdfrwt>
<pdfrwt beam="1">  1       -2 0.98782082E+00 0.14947085E+02</pdfrwt>
<totfact> 0.12683788E-13</totfact>
</mgrwt>
</event>
<event>
 4    1 -0.4996155E-019  0.1497549E+02  0.7818608E-02  0.1868817E+00
         -2   -1    0    0    0  501 -0.00000000000E+00  0.00000000000E+00  0.12024357489E+03  0.12024357492E+03  0.25500000000E-02 0.  1.
          2   -1    0    0  501    0  0.00000000000E+00 -0.00000000000E+00 -0.46626952924E+00  0.46627650209E+00  0.25500000000E-02 0. -1.
         31    1    1    2    0    0  0.27185902795E+00  0.55381705684E+00  0.56050039413E+02  0.56545967716E+02  0.74470750000E+01 0. -1.
        -31    1    1    2    0    0 -0.27185902795E+00 -0.55381705684E+00  0.63727265952E+02  0.64163883708E+02  0.74470750000E+01 0.  1.
<mgrwt>
<rscale>  0 0.14975492E+02</rscale>
<asrwt>0</asrwt>
<pdfrwt beam="2">  1        2 0.99034526E+00 0.14975492E+02</pdfrwt>
<pdfrwt beam="1">  1       -2 0.99811351E+00 0.14975492E+02</pdfrwt>
<totfact>-0.98039702E-14</totfact>
</mgrwt>
</event>
<event>
 4    1 -0.4996155E-019  0.1499284E+02  0.7818608E-02  0.1868287E+00
         -2   -1    0    0    0  501 -0.00000000000E+00  0.00000000000E+00  0.11982296874E+03  0.11982296876E+03  0.25500000000E-02 0.  1.
          2   -1    0    0  501    0  0.00000000000E+00 -0.00000000000E+00 -0.46899080874E+00  0.46899774113E+00  0.25500000000E-02 0. -1.
         31    1    1    2    0    0  0.38916106754E-01 -0.18565779184E+00  0.66396374791E+02  0.66812974000E+02  0.74470750000E+01 0.  1.
        -31    1    1    2    0    0 -0.38916106754E-01  0.18565779184E+00  0.52957603136E+02  0.53478992504E+02  0.74470750000E+01 0. -1.
<mgrwt>
<rscale>  0 0.14992837E+02</rscale>
<asrwt>0</asrwt>
<pdfrwt beam="2">  1        2 0.99608907E+00 0.14992837E+02</pdfrwt>
<pdfrwt beam="1">  1       -2 0.99465814E+00 0.14992837E+02</pdfrwt>
<totfact>-0.10438353E-13</totfact>
</mgrwt>
</event>
<event>
 4    1  0.4996155E-019  0.1494640E+02  0.7818608E-02  0.1869709E+00
         -2   -1    0    0    0  501 -0.00000000000E+00  0.00000000000E+00  0.11897681887E+03  0.11897681890E+03  0.25500000000E-02 0. -1.
          2   -1    0    0  501    0  0.00000000000E+00 -0.00000000000E+00 -0.46940487053E+00  0.46941179680E+00  0.25500000000E-02 0.  1.
         31    1    1    2    0    0 -0.59924633944E+00  0.92144040001E-01  0.60444455719E+02  0.60904505087E+02  0.74470750000E+01 0.  1.
        -31    1    1    2    0    0  0.59924633944E+00 -0.92144040001E-01  0.58062958283E+02  0.58541725610E+02  0.74470750000E+01 0.  1.
<mgrwt>
<rscale>  0 0.14946399E+02</rscale>
<asrwt>0</asrwt>
<pdfrwt beam="2">  1        2 0.99693738E+00 0.14946399E+02</pdfrwt>
<pdfrwt beam="1">  1       -2 0.98766501E+00 0.14946399E+02</pdfrwt>
<totfact> 0.13562070E-13</totfact>
</mgrwt>
</event>
<event>
 4    1 -0.4996155E-019  0.1490228E+02  0.7818608E-02  0.1871065E+00
         -2   -1    0    0    0  501 -0.00000000000E+00  0.00000000000E+00  0.11982155771E+03  0.11982155774E+03  0.25500000000E-02 0.  1.
          2   -1    0    0  501    0  0.00000000000E+00 -0.00000000000E+00 -0.46334795507E+00  0.46335497188E+00  0.25500000000E-02 0. -1.
         31    1    1    2    0    0 -0.99320450520E-02  0.79947847730E-01  0.57802033266E+02  0.58279846139E+02  0.74470750000E+01 0. -1.
        -31    1    1    2    0    0  0.99320450520E-02 -0.79947847730E-01  0.61556176494E+02  0.62005066574E+02  0.74470750000E+01 0.  1.
<mgrwt>
<rscale>  0 0.14902281E+02</rscale>
<asrwt>0</asrwt>
<pdfrwt beam="2">  1        2 0.98415052E+00 0.14902281E+02</pdfrwt>
<pdfrwt beam="1">  1       -2 0.99459982E+00 0.14902281E+02</pdfrwt>
<totfact>-0.39988366E-13</totfact>
</mgrwt>
</event>
<event>
 4    1 -0.4996155E-019  0.1492262E+02  0.7818608E-02  0.1870439E+00
          2   -1    0    0  501    0  0.00000000000E+00  0.00000000000E+00  0.11861139803E+03  0.11861139806E+03  0.25500000000E-02 0. -1.
         -2   -1    0    0    0  501 -0.00000000000E+00 -0.00000000000E+00 -0.46935412779E+00  0.46936105481E+00  0.25500000000E-02 0.  1.
         31    1    1    2    0    0 -0.25544379474E+00  0.27670497652E+00  0.56953417770E+02  0.57439468477E+02  0.74470750000E+01 0. -1.
        -31    1    1    2    0    0  0.25544379474E+00 -0.27670497652E+00  0.61188626131E+02  0.61641290634E+02  0.74470750000E+01 0. -1.
<mgrwt>
<rscale>  0 0.14922622E+02</rscale>
<asrwt>0</asrwt>
<pdfrwt beam="1">  1        2 0.98464303E+00 0.14922622E+02</pdfrwt>
<pdfrwt beam="2">  1       -2 0.99681797E+00 0.14922622E+02</pdfrwt>
<totfact>-0.30587881E-13</totfact>
</mgrwt>
</event>
<event>
 4    1 -0.4996155E-019  0.1502599E+02  0.7818608E-02  0.1867276E+00
          2   -1    0    0  501    0  0.00000000000E+00  0.00000000000E+00  0.12023016534E+03  0.12023016537E+03  0.25500000000E-02 0. -1.
         -2   -1    0    0    0  501 -0.00000000000E+00 -0.00000000000E+00 -0.46947193685E+00  0.46947886213E+00  0.25500000000E-02 0.  1.
         31    1    1    2    0    0  0.61163050941E+00  0.76998960739E+00  0.60993574174E+02  0.61454389530E+02  0.74470750000E+01 0.  1.
        -31    1    1    2    0    0 -0.61163050941E+00 -0.76998960739E+00  0.58767119232E+02  0.59245254702E+02  0.74470750000E+01 0. -1.
<mgrwt>
<rscale>  0 0.15025992E+02</rscale>
<asrwt>0</asrwt>
<pdfrwt beam="1">  1        2 0.99802911E+00 0.15025992E+02</pdfrwt>
<pdfrwt beam="2">  1       -2 0.99712011E+00 0.15025992E+02</pdfrwt>
<totfact>-0.50504827E-14</totfact>
</mgrwt>
</event>
<event>
 4    1 -0.4996155E-019  0.1498896E+02  0.7818608E-02  0.1868405E+00
          2   -1    0    0  501    0  0.00000000000E+00  0.00000000000E+00  0.12006811595E+03  0.12006811598E+03  0.25500000000E-02 0.  1.
         -2   -1    0    0    0  501 -0.00000000000E+00 -0.00000000000E+00 -0.46779145292E+00  0.46779840308E+00  0.25500000000E-02 0. -1.
         31    1    1    2    0    0  0.39278313155E+00  0.30250706990E+00  0.65269330219E+02  0.65694673928E+02  0.74470750000E+01 0.  1.
        -31    1    1    2    0    0 -0.39278313155E+00 -0.30250706990E+00  0.54330994281E+02  0.54841240456E+02  0.74470750000E+01 0. -1.
<mgrwt>
<rscale>  0 0.14988964E+02</rscale>
<asrwt>0</asrwt>
<pdfrwt beam="1">  1        2 0.99667527E+00 0.14988964E+02</pdfrwt>
<pdfrwt beam="2">  1       -2 0.99355959E+00 0.14988964E+02</pdfrwt>
<totfact>-0.88666962E-14</totfact>
</mgrwt>
</event>
<event>
 4    1 -0.4996155E-019  0.1496214E+02  0.7818608E-02  0.1869226E+00
          2   -1    0    0  501    0  0.00000000000E+00  0.00000000000E+00  0.11969676579E+03  0.11969676582E+03  0.25500000000E-02 0.  1.
         -2   -1    0    0    0  501 -0.00000000000E+00 -0.00000000000E+00 -0.46756465435E+00  0.46757160788E+00  0.25500000000E-02 0. -1.
         31    1    1    2    0    0 -0.30082622910E+00 -0.25052629591E+00  0.54834768858E+02  0.55339534346E+02  0.74470750000E+01 0. -1.
        -31    1    1    2    0    0  0.30082622910E+00  0.25052629591E+00  0.64394432277E+02  0.64824803079E+02  0.74470750000E+01 0.  1.
<mgrwt>
<rscale>  0 0.14962138E+02</rscale>
<asrwt>0</asrwt>
<pdfrwt beam="1">  1        2 0.99360282E+00 0.14962138E+02</pdfrwt>
<pdfrwt beam="2">  1       -2 0.99306781E+00 0.14962138E+02</pdfrwt>
<totfact>-0.11830931E-13</totfact>
</mgrwt>
</event>
<event>
 4    1  0.4996155E-019  0.1490603E+02  0.7818608E-02  0.1870950E+00
         -2   -1    0    0    0  501 -0.00000000000E+00  0.00000000000E+00  0.11827186777E+03  0.11827186779E+03  0.25500000000E-02 0. -1.
          2   -1    0    0  501    0  0.00000000000E+00 -0.00000000000E+00 -0.46965538612E+00  0.46966230870E+00  0.25500000000E-02 0.  1.
         31    1    1    2    0    0 -0.27561301499E+00  0.66507924828E-01  0.59618951690E+02  0.60082931957E+02  0.74470750000E+01 0. -1.
        -31    1    1    2    0    0  0.27561301499E+00 -0.66507924828E-01  0.58183260691E+02  0.58658598147E+02  0.74470750000E+01 0. -1.
<mgrwt>
<rscale>  0 0.14906030E+02</rscale>
<asrwt>0</asrwt>
<pdfrwt beam="2">  1        2 0.99744396E+00 0.14906030E+02</pdfrwt>
<pdfrwt beam="1">  1       -2 0.98183805E+00 0.14906030E+02</pdfrwt>
<totfact> 0.66902137E-13</totfact>
</mgrwt>
</event>
<event>
 4    1 -0.4996155E-019  0.1490815E+02  0.7818608E-02  0.1870884E+00
         -2   -1    0    0    0  501 -0.00000000000E+00  0.00000000000E+00  0.11974351064E+03  0.11974351067E+03  0.25500000000E-02 0. -1.
          2   -1    0    0  501    0  0.00000000000E+00 -0.00000000000E+00 -0.46401526746E+00  0.46402227418E+00  0.25500000000E-02 0.  1.
         31    1    1    2    0    0 -0.94190486011E-01 -0.30591890327E+00  0.59292411574E+02  0.59759111895E+02  0.74470750000E+01 0. -1.
        -31    1    1    2    0    0  0.94190486011E-01  0.30591890327E+00  0.59987083797E+02  0.60448421044E+02  0.74470750000E+01 0.  1.
<mgrwt>
<rscale>  0 0.14908151E+02</rscale>
<asrwt>0</asrwt>
<pdfrwt beam="2">  1        2 0.98555992E+00 0.14908151E+02</pdfrwt>
<pdfrwt beam="1">  1       -2 0.99395999E+00 0.14908151E+02</pdfrwt>
<totfact>-0.30982100E-13</totfact>
</mgrwt>
</event>
<event>
 4    1 -0.4996155E-019  0.1498897E+02  0.7818608E-02  0.1868405E+00
         -2   -1    0    0    0  501 -0.00000000000E+00  0.00000000000E+00  0.11957242772E+03  0.11957242775E+03  0.25500000000E-02 0.  1.
          2   -1    0    0  501    0  0.00000000000E+00 -0.00000000000E+00 -0.46973141103E+00  0.46973833249E+00  0.25500000000E-02 0. -1.
         31    1    1    2    0    0 -0.38062416680E+00  0.69091104775E+00  0.57200234456E+02  0.57688369545E+02  0.74470750000E+01 0.  1.
        -31    1    1    2    0    0  0.38062416680E+00 -0.69091104775E+00  0.61902461855E+02  0.62353796538E+02  0.74470750000E+01 0.  1.
<mgrwt>
<rscale>  0 0.14988975E+02</rscale>
<asrwt>0</asrwt>
<pdfrwt beam="2">  1        2 0.99764771E+00 0.14988975E+02</pdfrwt>
<pdfrwt beam="1">  1       -2 0.99259262E+00 0.14988975E+02</pdfrwt>
<totfact>-0.58923587E-14</totfact>
</mgrwt>
</event>
<event>
 4    1 -0.4996155E-019  0.1495000E+02  0.7818608E-02  0.1869598E+00
          2   -1    0    0  501    0  0.00000000000E+00  0.00000000000E+00  0.11915400834E+03  0.11915400837E+03  0.25500000000E-02 0.  1.
         -2   -1    0    0    0  501 -0.00000000000E+00 -0.00000000000E+00 -0.46893243976E+00  0.46893937301E+00  0.25500000000E-02 0. -1.
         31    1    1    2    0    0  0.56262784893E+00  0.21476111318E+00  0.57483188877E+02  0.57966702527E+02  0.74470750000E+01 0. -1.
        -31    1    1    2    0    0 -0.56262784893E+00 -0.21476111318E+00  0.61201887026E+02  0.61656245215E+02  0.74470750000E+01 0. -1.
<mgrwt>
<rscale>  0 0.14949996E+02</rscale>
<asrwt>0</asrwt>
<pdfrwt beam="1">  1        2 0.98912623E+00 0.14949996E+02</pdfrwt>
<pdfrwt beam="2">  1       -2 0.99594379E+00 0.14949996E+02</pdfrwt>
<totfact>-0.18433877E-13</totfact>
</mgrwt>
</event>
<event>
 4    1 -0.4996155E-019  0.1498457E+02  0.7818608E-02  0.1868540E+00
          2   -1    0    0  501    0  0.00000000000E+00  0.00000000000E+00  0.11989658267E+03  0.11989658270E+03  0.25500000000E-02 0.  1.
         -2   -1    0    0    0  501 -0.00000000000E+00 -0.00000000000E+00 -0.46818585644E+00  0.46819280075E+00  0.25500000000E-02 0. -1.
         31    1    1    2    0    0 -0.14419645677E+00  0.59479782245E+00  0.64119692767E+02  0.64553609532E+02  0.74470750000E+01 0.  1.
        -31    1    1    2    0    0  0.14419645677E+00 -0.59479782245E+00  0.55308704051E+02  0.55811165970E+02  0.74470750000E+01 0. -1.
<mgrwt>
<rscale>  0 0.14984566E+02</rscale>
<asrwt>0</asrwt>
<pdfrwt beam="1">  1        2 0.99526018E+00 0.14984566E+02</pdfrwt>
<pdfrwt beam="2">  1       -2 0.99438849E+00 0.14984566E+02</pdfrwt>
<totfact>-0.11565262E-13</totfact>
</mgrwt>
</event>
<event>
 4    1 -0.4996155E-019  0.1499595E+02  0.7818608E-02  0.1868192E+00
         -2   -1    0    0    0  501 -0.00000000000E+00  0.00000000000E+00  0.12015385911E+03  0.12015385914E+03  0.25500000000E-02 0.  1.
          2   -1    0    0  501    0  0.00000000000E+00 -0.00000000000E+00 -0.46789318144E+00  0.46790013009E+00  0.25500000000E-02 0. -1.
         31    1    1    2    0    0 -0.44362239071E-01  0.53340308148E+00  0.54304088778E+02  0.54814956636E+02  0.74470750000E+01 0.  1.
        -31    1    1    2    0    0  0.44362239071E-01 -0.53340308148E+00  0.65381877153E+02  0.65806802634E+02  0.74470750000E+01 0.  1.
<mgrwt>
<rscale>  0 0.14995945E+02</rscale>
<asrwt>0</asrwt>
<pdfrwt beam="2">  1        2 0.99377757E+00 0.14995945E+02</pdfrwt>
<pdfrwt beam="1">  1       -2 0.99738510E+00 0.14995945E+02</pdfrwt>
<totfact>-0.96972642E-14</totfact>
</mgrwt>
</event>
<event>
 4    1 -0.4996155E-019  0.1501709E+02  0.7818608E-02  0.1867547E+00
          2   -1    0    0  501    0  0.00000000000E+00  0.00000000000E+00  0.12018845918E+03  0.12018845921E+03  0.25500000000E-02 0. -1.
         -2   -1    0    0    0  501 -0.00000000000E+00 -0.00000000000E+00 -0.46907874162E+00  0.46908567271E+00  0.25500000000E-02 0.  1.
         31    1    1    2    0    0 -0.43209219243E+00  0.42798288349E+00  0.53903873082E+02  0.54419264349E+02  0.74470750000E+01 0.  1.
        -31    1    1    2    0    0  0.43209219243E+00 -0.42798288349E+00  0.65815507356E+02  0.66238280530E+02  0.74470750000E+01 0. -1.
<mgrwt>
<rscale>  0 0.15017093E+02</rscale>
<asrwt>0</asrwt>
<pdfrwt beam="1">  1        2 0.99768100E+00 0.15017093E+02</pdfrwt>
<pdfrwt beam="2">  1       -2 0.99628691E+00 0.15017093E+02</pdfrwt>
<totfact>-0.66477882E-14</totfact>
</mgrwt>
</event>
<event>
 4    1  0.4996155E-019  0.1489726E+02  0.7818608E-02  0.1871220E+00
          2   -1    0    0  501    0  0.00000000000E+00  0.00000000000E+00  0.11960031341E+03  0.11960031343E+03  0.25500000000E-02 0.  1.
         -2   -1    0    0    0  501 -0.00000000000E+00 -0.00000000000E+00 -0.46389250527E+00  0.46389951385E+00  0.25500000000E-02 0. -1.
         31    1    1    2    0    0  0.75314883556E-01  0.12848122962E+00  0.59823783137E+02  0.60285704231E+02  0.74470750000E+01 0.  1.
        -31    1    1    2    0    0 -0.75314883556E-01 -0.12848122962E+00  0.59312637765E+02  0.59778508717E+02  0.74470750000E+01 0.  1.
<mgrwt>
<rscale>  0 0.14897263E+02</rscale>
<asrwt>0</asrwt>
<pdfrwt beam="1">  1        2 0.99277492E+00 0.14897263E+02</pdfrwt>
<pdfrwt beam="2">  1       -2 0.98529564E+00 0.14897263E+02</pdfrwt>
<totfact> 0.53413609E-13</totfact>
</mgrwt>
</event>
<event>
 4    1  0.4996155E-019  0.1489485E+02  0.7818608E-02  0.1871294E+00
         -2   -1    0    0    0  501 -0.00000000000E+00  0.00000000000E+00  0.11869626130E+03  0.11869626133E+03  0.25500000000E-02 0.  1.
          2   -1    0    0  501    0  0.00000000000E+00 -0.00000000000E+00 -0.46727435574E+00  0.46728131359E+00  0.25500000000E-02 0. -1.
         31    1    1    2    0    0  0.14954177852E-01  0.50581656765E-01  0.58720358244E+02  0.59190727149E+02  0.74470750000E+01 0.  1.
        -31    1    1    2    0    0 -0.14954177852E-01 -0.50581656765E-01  0.59508628701E+02  0.59972815493E+02  0.74470750000E+01 0.  1.
<mgrwt>
<rscale>  0 0.14894849E+02</rscale>
<asrwt>0</asrwt>
<pdfrwt beam="2">  1        2 0.99242112E+00 0.14894849E+02</pdfrwt>
<pdfrwt beam="1">  1       -2 0.98532755E+00 0.14894849E+02</pdfrwt>
<totfact> 0.54268097E-13</totfact>
</mgrwt>
</event>
<event>
 4    1  0.4996155E-019  0.1492904E+02  0.7818608E-02  0.1870242E+00
          2   -1    0    0  501    0  0.00000000000E+00  0.00000000000E+00  0.12004819227E+03  0.12004819229E+03  0.25500000000E-02 0.  1.
         -2   -1    0    0    0  501 -0.00000000000E+00 -0.00000000000E+00 -0.46413570040E+00  0.46414270531E+00  0.25500000000E-02 0. -1.
         31    1    1    2    0    0  0.48575880168E+00  0.15204706337E+00  0.59528031537E+02  0.59994204259E+02  0.74470750000E+01 0.  1.
        -31    1    1    2    0    0 -0.48575880168E+00 -0.15204706337E+00  0.60056025030E+02  0.60518130741E+02  0.74470750000E+01 0.  1.
<mgrwt>
<rscale>  0 0.14929042E+02</rscale>
<asrwt>0</asrwt>
<pdfrwt beam="1">  1        2 0.99648030E+00 0.14929042E+02</pdfrwt>
<pdfrwt beam="2">  1       -2 0.98582439E+00 0.14929042E+02</pdfrwt>
<totfact> 0.30948902E-13</totfact>
</mgrwt>
</event>
<event>
 4    1 -0.4996155E-019  0.1495826E+02  0.7818608E-02  0.1869345E+00
         -2   -1    0    0    0  501 -0.00000000000E+00  0.00000000000E+00  0.11987922389E+03  0.11987922392E+03  0.25500000000E-02 0.  1.
          2   -1    0    0  501    0  0.00000000000E+00 -0.00000000000E+00 -0.46661089635E+00  0.46661786410E+00  0.25500000000E-02 0. -1.
         31    1    1    2    0    0 -0.21218704706E+00  0.34145512591E+00  0.64234913030E+02  0.64666410083E+02  0.74470750000E+01 0.  1.
        -31    1    1    2    0    0  0.21218704706E+00 -0.34145512591E+00  0.55177699965E+02  0.55679431700E+02  0.74470750000E+01 0. -1.
<mgrwt>
<rscale>  0 0.14958258E+02</rscale>
<asrwt>0</asrwt>
<pdfrwt beam="2">  1        2 0.99105586E+00 0.14958258E+02</pdfrwt>
<pdfrwt beam="1">  1       -2 0.99510362E+00 0.14958258E+02</pdfrwt>
<totfact>-0.16228390E-13</totfact>
</mgrwt>
</event>
<event>
 4    1 -0.4996155E-019  0.1502108E+02  0.7818608E-02  0.1867426E+00
          2   -1    0    0  501    0  0.00000000000E+00  0.00000000000E+00  0.12003638078E+03  0.12003638080E+03  0.25500000000E-02 0. -1.
         -2   -1    0    0    0  501 -0.00000000000E+00 -0.00000000000E+00 -0.46992233766E+00  0.46992925631E+00  0.25500000000E-02 0.  1.
         31    1    1    2    0    0  0.95574038255E+00  0.12291786034E+00  0.58628420289E+02  0.59107352674E+02  0.74470750000E+01 0. -1.
        -31    1    1    2    0    0 -0.95574038255E+00 -0.12291786034E+00  0.60938038151E+02  0.61398957387E+02  0.74470750000E+01 0.  1.
<mgrwt>
<rscale>  0 0.15021078E+02</rscale>
<asrwt>0</asrwt>
<pdfrwt beam="1">  1        2 0.99643049E+00 0.15021078E+02</pdfrwt>
<pdfrwt beam="2">  1       -2 0.99806672E+00 0.15021078E+02</pdfrwt>
<totfact>-0.57009787E-14</totfact>
</mgrwt>
</event>
<event>
 4    1 -0.4996155E-019  0.1496731E+02  0.7818608E-02  0.1869068E+00
          2   -1    0    0  501    0  0.00000000000E+00  0.00000000000E+00  0.11922073679E+03  0.11922073682E+03  0.25500000000E-02 0.  1.
         -2   -1    0    0    0  501 -0.00000000000E+00 -0.00000000000E+00 -0.46975596956E+00  0.46976289066E+00  0.25500000000E-02 0. -1.
         31    1    1    2    0    0  0.27914477802E+00 -0.22957238994E+00  0.64530275504E+02  0.64959572104E+02  0.74470750000E+01 0. -1.
        -31    1    1    2    0    0 -0.27914477802E+00  0.22957238994E+00  0.54220705314E+02  0.54730927602E+02  0.74470750000E+01 0. -1.
<mgrwt>
<rscale>  0 0.14967307E+02</rscale>
<asrwt>0</asrwt>
<pdfrwt beam="1">  1        2 0.98968479E+00 0.14967307E+02</pdfrwt>
<pdfrwt beam="2">  1       -2 0.99768814E+00 0.14967307E+02</pdfrwt>
<totfact>-0.12263445E-13</totfact>
</mgrwt>
</event>
<event>
 4    1 -0.4996155E-019  0.1492016E+02  0.7818608E-02  0.1870515E+00
          2   -1    0    0  501    0  0.00000000000E+00  0.00000000000E+00  0.11895646327E+03  0.11895646330E+03  0.25500000000E-02 0.  1.
         -2   -1    0    0    0  501 -0.00000000000E+00 -0.00000000000E+00 -0.46783792786E+00  0.46784487733E+00  0.25500000000E-02 0. -1.
         31    1    1    2    0    0 -0.34385277223E+00  0.25909056122E+00  0.59981100758E+02  0.60443169481E+02  0.74470750000E+01 0. -1.
        -31    1    1    2    0    0  0.34385277223E+00 -0.25909056122E+00  0.58507524587E+02  0.58981138697E+02  0.74470750000E+01 0.  1.
<mgrwt>
<rscale>  0 0.14920156E+02</rscale>
<asrwt>0</asrwt>
<pdfrwt beam="1">  1        2 0.98748374E+00 0.14920156E+02</pdfrwt>
<pdfrwt beam="2">  1       -2 0.99362188E+00 0.14920156E+02</pdfrwt>
<totfact>-0.22642133E-13</totfact>
</mgrwt>
</event>
<event>
 4    1 -0.4996155E-019  0.1494606E+02  0.7818608E-02  0.1869719E+00
          2   -1    0    0  501    0  0.00000000000E+00  0.00000000000E+00  0.11888805401E+03  0.11888805403E+03  0.25500000000E-02 0.  1.
         -2   -1    0    0    0  501 -0.00000000000E+00 -0.00000000000E+00 -0.46973374892E+00  0.46974067034E+00  0.25500000000E-02 0. -1.
         31    1    1    2    0    0  0.56377778062E+00  0.67391546361E-01  0.61242556541E+02  0.61696288743E+02  0.74470750000E+01 0.  1.
        -31    1    1    2    0    0 -0.56377778062E+00 -0.67391546361E-01  0.57175763716E+02  0.57661505960E+02  0.74470750000E+01 0.  1.
<mgrwt>
<rscale>  0 0.14946056E+02</rscale>
<asrwt>0</asrwt>
<pdfrwt beam="1">  1        2 0.98693376E+00 0.14946056E+02</pdfrwt>
<pdfrwt beam="2">  1       -2 0.99763018E+00 0.14946056E+02</pdfrwt>
<totfact>-0.17497980E-13</totfact>
</mgrwt>
</event>
<event>
 4    1 -0.4996155E-019  0.1489954E+02  0.7818608E-02  0.1871150E+00
          2   -1    0    0  501    0  0.00000000000E+00  0.00000000000E+00  0.11880552762E+03  0.11880552764E+03  0.25500000000E-02 0.  1.
         -2   -1    0    0    0  501 -0.00000000000E+00 -0.00000000000E+00 -0.46713839789E+00  0.46714535776E+00  0.25500000000E-02 0. -1.
         31    1    1    2    0    0  0.15437961757E+00 -0.12124444506E+00  0.58850877621E+02  0.59320512945E+02  0.74470750000E+01 0. -1.
        -31    1    1    2    0    0 -0.15437961757E+00  0.12124444506E+00  0.59487511598E+02  0.59952160056E+02  0.74470750000E+01 0. -1.
<mgrwt>
<rscale>  0 0.14899536E+02</rscale>
<asrwt>0</asrwt>
<pdfrwt beam="1">  1        2 0.98622991E+00 0.14899536E+02</pdfrwt>
<pdfrwt beam="2">  1       -2 0.99213708E+00 0.14899536E+02</pdfrwt>
<totfact>-0.19897215E-13</totfact>
</mgrwt>
</event>
<event>
 4    1 -0.4996155E-019  0.1493973E+02  0.7818608E-02  0.1869913E+00
         -2   -1    0    0    0  501 -0.00000000000E+00  0.00000000000E+00  0.11994363625E+03  0.11994363628E+03  0.25500000000E-02 0. -1.
          2   -1    0    0  501    0  0.00000000000E+00 -0.00000000000E+00 -0.46520569463E+00  0.46521268342E+00  0.25500000000E-02 0.  1.
         31    1    1    2    0    0  0.18962373590E+00  0.19413781585E+00  0.63898429235E+02  0.64331499527E+02  0.74470750000E+01 0. -1.
        -31    1    1    2    0    0 -0.18962373590E+00 -0.19413781585E+00  0.55580001325E+02  0.56077349438E+02  0.74470750000E+01 0.  1.
<mgrwt>
<rscale>  0 0.14939730E+02</rscale>
<asrwt>0</asrwt>
<pdfrwt beam="2">  1        2 0.98808492E+00 0.14939730E+02</pdfrwt>
<pdfrwt beam="1">  1       -2 0.99562461E+00 0.14939730E+02</pdfrwt>
<totfact>-0.21435545E-13</totfact>
</mgrwt>
</event>
<event>
 4    1  0.4996155E-019  0.1496718E+02  0.7818608E-02  0.1869072E+00
          2   -1    0    0  501    0  0.00000000000E+00  0.00000000000E+00  0.12024758588E+03  0.12024758591E+03  0.25500000000E-02 0.  1.
         -2   -1    0    0    0  501 -0.00000000000E+00 -0.00000000000E+00 -0.46573686524E+00  0.46574384606E+00  0.25500000000E-02 0. -1.
         31    1    1    2    0    0  0.47755710370E-01 -0.69920475487E+00  0.61766195520E+02  0.62217465417E+02  0.74470750000E+01 0.  1.
        -31    1    1    2    0    0 -0.47755710370E-01  0.69920475487E+00  0.58015653493E+02  0.58495864334E+02  0.74470750000E+01 0.  1.
<mgrwt>
<rscale>  0 0.14967185E+02</rscale>
<asrwt>0</asrwt>
<pdfrwt beam="1">  1        2 0.99814227E+00 0.14967185E+02</pdfrwt>
<pdfrwt beam="2">  1       -2 0.98921841E+00 0.14967185E+02</pdfrwt>
<totfact> 0.29670271E-14</totfact>
</mgrwt>
</event>
<event>
 4    1  0.4996155E-019  0.1493322E+02  0.7818608E-02  0.1870113E+00
          2   -1    0    0  501    0  0.00000000000E+00  0.00000000000E+00  0.12007136494E+03  0.12007136496E+03  0.25500000000E-02 0. -1.
         -2   -1    0    0    0  501 -0.00000000000E+00 -0.00000000000E+00 -0.46430563723E+00  0.46431263957E+00  0.25500000000E-02 0.  1.
         31    1    1    2    0    0 -0.14910684091E+00 -0.16518936649E+00  0.63772523057E+02  0.64206254707E+02  0.74470750000E+01 0. -1.
        -31    1    1    2    0    0  0.14910684091E+00  0.16518936649E+00  0.55834536241E+02  0.56329422895E+02  0.74470750000E+01 0.  1.
<mgrwt>
<rscale>  0 0.14933216E+02</rscale>
<asrwt>0</asrwt>
<pdfrwt beam="1">  1        2 0.99667332E+00 0.14933216E+02</pdfrwt>
<pdfrwt beam="2">  1       -2 0.98618467E+00 0.14933216E+02</pdfrwt>
<totfact> 0.26465383E-13</totfact>
</mgrwt>
</event>
<event>
 4    1  0.4996155E-019  0.1493790E+02  0.7818608E-02  0.1869969E+00
          2   -1    0    0  501    0  0.00000000000E+00  0.00000000000E+00  0.12033766204E+03  0.12033766207E+03  0.25500000000E-02 0. -1.
         -2   -1    0    0    0  501 -0.00000000000E+00 -0.00000000000E+00 -0.46356897455E+00  0.46357598802E+00  0.25500000000E-02 0.  1.
         31    1    1    2    0    0 -0.13753066328E+00 -0.48533811226E+00  0.62104545733E+02  0.62551482753E+02  0.74470750000E+01 0. -1.
        -31    1    1    2    0    0  0.13753066328E+00  0.48533811226E+00  0.57769547334E+02  0.58249755304E+02  0.74470750000E+01 0. -1.
<mgrwt>
<rscale>  0 0.14937902E+02</rscale>
<asrwt>0</asrwt>
<pdfrwt beam="1">  1        2 0.99886916E+00 0.14937902E+02</pdfrwt>
<pdfrwt beam="2">  1       -2 0.98463442E+00 0.14937902E+02</pdfrwt>
<totfact> 0.18333673E-13</totfact>
</mgrwt>
</event>
<event>
 4    1 -0.4996155E-019  0.1495309E+02  0.7818608E-02  0.1869503E+00
          2   -1    0    0  501    0  0.00000000000E+00  0.00000000000E+00  0.11927314313E+03  0.11927314316E+03  0.25500000000E-02 0.  1.
         -2   -1    0    0    0  501 -0.00000000000E+00 -0.00000000000E+00 -0.46865811661E+00  0.46866505392E+00  0.25500000000E-02 0. -1.
         31    1    1    2    0    0 -0.48494608517E+00  0.21192561078E+00  0.62602694093E+02  0.63046302976E+02  0.74470750000E+01 0.  1.
        -31    1    1    2    0    0  0.48494608517E+00 -0.21192561078E+00  0.56201790921E+02  0.56695505236E+02  0.74470750000E+01 0.  1.
<mgrwt>
<rscale>  0 0.14953092E+02</rscale>
<asrwt>0</asrwt>
<pdfrwt beam="1">  1        2 0.99010905E+00 0.14953092E+02</pdfrwt>
<pdfrwt beam="2">  1       -2 0.99536735E+00 0.14953092E+02</pdfrwt>
<totfact>-0.17436677E-13</totfact>
</mgrwt>
</event>
<event>
 4    1 -0.4996155E-019  0.1495939E+02  0.7818608E-02  0.1869310E+00
          2   -1    0    0  501    0  0.00000000000E+00  0.00000000000E+00  0.11908033519E+03  0.11908033522E+03  0.25500000000E-02 0. -1.
         -2   -1    0    0    0  501 -0.00000000000E+00 -0.00000000000E+00 -0.46981215942E+00  0.46981907969E+00  0.25500000000E-02 0.  1.
         31    1    1    2    0    0  0.45172677327E+00  0.93128328852E-01  0.63489625655E+02  0.63926553339E+02  0.74470750000E+01 0. -1.
        -31    1    1    2    0    0 -0.45172677327E+00 -0.93128328852E-01  0.55120897374E+02  0.55623600956E+02  0.74470750000E+01 0.  1.
<mgrwt>
<rscale>  0 0.14959386E+02</rscale>
<asrwt>0</asrwt>
<pdfrwt beam="1">  1        2 0.98852432E+00 0.14959386E+02</pdfrwt>
<pdfrwt beam="2">  1       -2 0.99780239E+00 0.14959386E+02</pdfrwt>
<totfact>-0.13396435E-13</totfact>
</mgrwt>
</event>
<event>
 4    1  0.4996155E-019  0.1492799E+02  0.7818608E-02  0.1870274E+00
         -2   -1    0    0    0  501 -0.00000000000E+00  0.00000000000E+00  0.11866487595E+03  0.11866487598E+03  0.25500000000E-02 0.  1.
          2   -1    0    0  501    0  0.00000000000E+00 -0.00000000000E+00 -0.46947992638E+00  0.46948685154E+00  0.25500000000E-02 0. -1.
         31    1    1    2    0    0  0.47938998444E+00 -0.86761163953E-01  0.60072608426E+02  0.60534407996E+02  0.74470750000E+01 0.  1.
        -31    1    1    2    0    0 -0.47938998444E+00  0.86761163953E-01  0.58122787596E+02  0.58599954831E+02  0.74470750000E+01 0.  1.
<mgrwt>
<rscale>  0 0.14927986E+02</rscale>
<asrwt>0</asrwt>
<pdfrwt beam="2">  1        2 0.99708586E+00 0.14927986E+02</pdfrwt>
<pdfrwt beam="1">  1       -2 0.98508627E+00 0.14927986E+02</pdfrwt>
<totfact> 0.34241603E-13</totfact>
</mgrwt>
</event>
<event>
 4    1  0.4996155E-019  0.1491288E+02  0.7818608E-02  0.1870739E+00
         -2   -1    0    0    0  501 -0.00000000000E+00  0.00000000000E+00  0.11864403131E+03  0.11864403134E+03  0.25500000000E-02 0.  1.
          2   -1    0    0  501    0  0.00000000000E+00 -0.00000000000E+00 -0.46861270315E+00  0.46861964113E+00  0.25500000000E-02 0. -1.
         31    1    1    2    0    0 -0.39799433038E-01 -0.34237873664E+00  0.57936278121E+02  0.58413954290E+02  0.74470750000E+01 0. -1.
        -31    1    1    2    0    0  0.39799433038E-01  0.34237873664E+00  0.60239140491E+02  0.60698696694E+02  0.74470750000E+01 0. -1.
<mgrwt>
<rscale>  0 0.14912882E+02</rscale>
<asrwt>0</asrwt>
<pdfrwt beam="2">  1        2 0.99525063E+00 0.14912882E+02</pdfrwt>
<pdfrwt beam="1">  1       -2 0.98490674E+00 0.14912882E+02</pdfrwt>
<totfact> 0.48446379E-13</totfact>
</mgrwt>
</event>
<event>
 4    1  0.4996155E-019  0.1491671E+02  0.7818608E-02  0.1870621E+00
          2   -1    0    0  501    0  0.00000000000E+00  0.00000000000E+00  0.12032920105E+03  0.12032920108E+03  0.25500000000E-02 0.  1.
         -2   -1    0    0    0  501 -0.00000000000E+00 -0.00000000000E+00 -0.46228678635E+00  0.46229381927E+00  0.25500000000E-02 0. -1.
         31    1    1    2    0    0 -0.38905595132E+00 -0.10379009610E+00  0.59308142495E+02  0.59775219190E+02  0.74470750000E+01 0.  1.
        -31    1    1    2    0    0  0.38905595132E+00  0.10379009610E+00  0.60558771769E+02  0.61016275707E+02  0.74470750000E+01 0.  1.
<mgrwt>
<rscale>  0 0.14916706E+02</rscale>
<asrwt>0</asrwt>
<pdfrwt beam="1">  1        2 0.99878859E+00 0.14916706E+02</pdfrwt>
<pdfrwt beam="2">  1       -2 0.98192122E+00 0.14916706E+02</pdfrwt>
<totfact> 0.36192501E-13</totfact>
</mgrwt>
</event>
<event>
 4    1 -0.4996155E-019  0.1493663E+02  0.7818608E-02  0.1870009E+00
          2   -1    0    0  501    0  0.00000000000E+00  0.00000000000E+00  0.11858450658E+03  0.11858450660E+03  0.25500000000E-02 0. -1.
         -2   -1    0    0    0  501 -0.00000000000E+00 -0.00000000000E+00 -0.47034221569E+00  0.47034912816E+00  0.25500000000E-02 0.  1.
         31    1    1    2    0    0 -0.46224868711E+00 -0.31262162285E+00  0.59641745496E+02  0.60107471566E+02  0.74470750000E+01 0.  1.
        -31    1    1    2    0    0  0.46224868711E+00  0.31262162285E+00  0.58472418864E+02  0.58947384165E+02  0.74470750000E+01 0. -1.
<mgrwt>
<rscale>  0 0.14936628E+02</rscale>
<asrwt>0</asrwt>
<pdfrwt beam="1">  1        2 0.98442885E+00 0.14936628E+02</pdfrwt>
<pdfrwt beam="2">  1       -2 0.99890727E+00 0.14936628E+02</pdfrwt>
<totfact>-0.13434585E-13</totfact>
</mgrwt>
</event>
<event>
 4    1  0.4996155E-019  0.1489898E+02  0.7818608E-02  0.1871167E+00
         -2   -1    0    0    0  501 -0.00000000000E+00  0.00000000000E+00  0.11874986710E+03  0.11874986713E+03  0.25500000000E-02 0. -1.
          2   -1    0    0  501    0  0.00000000000E+00 -0.00000000000E+00 -0.46732265996E+00  0.46732961710E+00  0.25500000000E-02 0.  1.
         31    1    1    2    0    0 -0.56424540615E-01 -0.67799779757E-01  0.57797236470E+02  0.58275099744E+02  0.74470750000E+01 0.  1.
        -31    1    1    2    0    0  0.56424540615E-01  0.67799779757E-01  0.60485307969E+02  0.60942096999E+02  0.74470750000E+01 0. -1.
<mgrwt>
<rscale>  0 0.14898983E+02</rscale>
<asrwt>0</asrwt>
<pdfrwt beam="2">  1        2 0.99252506E+00 0.14898983E+02</pdfrwt>
<pdfrwt beam="1">  1       -2 0.98577119E+00 0.14898983E+02</pdfrwt>
<totfact> 0.46965866E-13</totfact>
</mgrwt>
</event>
<event>
 4    1 -0.4996155E-019  0.1491416E+02  0.7818608E-02  0.1870699E+00
          2   -1    0    0  501    0  0.00000000000E+00  0.00000000000E+00  0.11915951103E+03  0.11915951105E+03  0.25500000000E-02 0.  1.
         -2   -1    0    0    0  501 -0.00000000000E+00 -0.00000000000E+00 -0.46666517622E+00  0.46667214316E+00  0.25500000000E-02 0. -1.
         31    1    1    2    0    0  0.29683683523E+00 -0.17167378741E+00  0.60770062712E+02  0.61225623983E+02  0.74470750000E+01 0. -1.
        -31    1    1    2    0    0 -0.29683683523E+00  0.17167378741E+00  0.57922783139E+02  0.58400559215E+02  0.74470750000E+01 0. -1.
<mgrwt>
<rscale>  0 0.14914156E+02</rscale>
<asrwt>0</asrwt>
<pdfrwt beam="1">  1        2 0.98915298E+00 0.14914156E+02</pdfrwt>
<pdfrwt beam="2">  1       -2 0.99114749E+00 0.14914156E+02</pdfrwt>
<totfact>-0.78470582E-14</totfact>
</mgrwt>
</event>
<event>
 4    1  0.4996155E-019  0.1493485E+02  0.7818608E-02  0.1870063E+00
          2   -1    0    0  501    0  0.00000000000E+00  0.00000000000E+00  0.12018148241E+03  0.12018148244E+03  0.25500000000E-02 0.  1.
         -2   -1    0    0    0  501 -0.00000000000E+00 -0.00000000000E+00 -0.46398196770E+00  0.46398897492E+00  0.25500000000E-02 0. -1.
         31    1    1    2    0    0  0.40599639247E+00  0.37024290343E+00  0.60184497902E+02  0.60645977827E+02  0.74470750000E+01 0.  1.
        -31    1    1    2    0    0 -0.40599639247E+00 -0.37024290343E+00  0.59533002540E+02  0.59999493584E+02  0.74470750000E+01 0.  1.
<mgrwt>
<rscale>  0 0.14934854E+02</rscale>
<asrwt>0</asrwt>
<pdfrwt beam="1">  1        2 0.99758117E+00 0.14934854E+02</pdfrwt>
<pdfrwt beam="2">  1       -2 0.98550333E+00 0.14934854E+02</pdfrwt>
<totfact> 0.26518700E-13</totfact>
</mgrwt>
</event>
<event>
 4    1 -0.4996155E-019  0.1499326E+02  0.7818608E-02  0.1868274E+00
          2   -1    0    0  501    0  0.00000000000E+00  0.00000000000E+00  0.11958871866E+03  0.11958871868E+03  0.25500000000E-02 0.  1.
         -2   -1    0    0    0  501 -0.00000000000E+00 -0.00000000000E+00 -0.46993582450E+00  0.46994274294E+00  0.25500000000E-02 0. -1.
         31    1    1    2    0    0  0.48014707750E+00  0.69339251981E+00  0.60927237005E+02  0.61386468130E+02  0.74470750000E+01 0. -1.
        -31    1    1    2    0    0 -0.48014707750E+00 -0.69339251981E+00  0.58191545829E+02  0.58672193298E+02  0.74470750000E+01 0. -1.
<mgrwt>
<rscale>  0 0.14993257E+02</rscale>
<asrwt>0</asrwt>
<pdfrwt beam="1">  1        2 0.99272901E+00 0.14993257E+02</pdfrwt>
<pdfrwt beam="2">  1       -2 0.99808068E+00 0.14993257E+02</pdfrwt>
<totfact>-0.82587384E-14</totfact>
</mgrwt>
</event>
<event>
 4    1 -0.4996155E-019  0.1494194E+02  0.7818608E-02  0.1869845E+00
          2   -1    0    0  501    0  0.00000000000E+00  0.00000000000E+00  0.11914788027E+03  0.11914788030E+03  0.25500000000E-02 0.  1.
         -2   -1    0    0    0  501 -0.00000000000E+00 -0.00000000000E+00 -0.46845158163E+00  0.46845852199E+00  0.25500000000E-02 0. -1.
         31    1    1    2    0    0  0.37721387474E-01  0.12936994601E-01  0.64108903487E+02  0.64540003274E+02  0.74470750000E+01 0.  1.
        -31    1    1    2    0    0 -0.37721387474E-01 -0.12936994601E-01  0.54570525202E+02  0.55076335546E+02  0.74470750000E+01 0. -1.
<mgrwt>
<rscale>  0 0.14941945E+02</rscale>
<asrwt>0</asrwt>
<pdfrwt beam="1">  1        2 0.98907158E+00 0.14941945E+02</pdfrwt>
<pdfrwt beam="2">  1       -2 0.99492633E+00 0.14941945E+02</pdfrwt>
<totfact>-0.19669713E-13</totfact>
</mgrwt>
</event>
<event>
 4    1  0.4996155E-019  0.1491616E+02  0.7818608E-02  0.1870638E+00
          2   -1    0    0  501    0  0.00000000000E+00  0.00000000000E+00  0.11995281674E+03  0.11995281676E+03  0.25500000000E-02 0.  1.
         -2   -1    0    0    0  501 -0.00000000000E+00 -0.00000000000E+00 -0.46370359859E+00  0.46371061002E+00  0.25500000000E-02 0. -1.
         31    1    1    2    0    0 -0.40331533048E-01  0.29080652695E+00  0.57492011660E+02  0.57973067245E+02  0.74470750000E+01 0. -1.
        -31    1    1    2    0    0  0.40331533048E-01 -0.29080652695E+00  0.61997101479E+02  0.62443460129E+02  0.74470750000E+01 0.  1.
<mgrwt>
<rscale>  0 0.14916163E+02</rscale>
<asrwt>0</asrwt>
<pdfrwt beam="1">  1        2 0.99568810E+00 0.14916163E+02</pdfrwt>
<pdfrwt beam="2">  1       -2 0.98490714E+00 0.14916163E+02</pdfrwt>
<totfact> 0.45958810E-13</totfact>
</mgrwt>
</event>
<event>
 4    1 -0.4996155E-019  0.1497282E+02  0.7818608E-02  0.1868899E+00
          2   -1    0    0  501    0  0.00000000000E+00  0.00000000000E+00  0.11961595177E+03  0.11961595180E+03  0.25500000000E-02 0. -1.
         -2   -1    0    0    0  501 -0.00000000000E+00 -0.00000000000E+00 -0.46854900910E+00  0.46855594803E+00  0.25500000000E-02 0.  1.
         31    1    1    2    0    0 -0.53955537621E+00  0.31731925714E+00  0.63120903180E+02  0.63561774329E+02  0.74470750000E+01 0. -1.
        -31    1    1    2    0    0  0.53955537621E+00 -0.31731925714E+00  0.56026499581E+02  0.56522733417E+02  0.74470750000E+01 0. -1.
<mgrwt>
<rscale>  0 0.14972823E+02</rscale>
<asrwt>0</asrwt>
<pdfrwt beam="1">  1        2 0.99294273E+00 0.14972823E+02</pdfrwt>
<pdfrwt beam="2">  1       -2 0.99514769E+00 0.14972823E+02</pdfrwt>
<totfact>-0.14084947E-13</totfact>
</mgrwt>
</event>
<event>
 4    1  0.4996155E-019  0.1490971E+02  0.7818608E-02  0.1870836E+00
         -2   -1    0    0    0  501 -0.00000000000E+00  0.00000000000E+00  0.11855074486E+03  0.11855074489E+03  0.25500000000E-02 0.  1.
          2   -1    0    0  501    0  0.00000000000E+00 -0.00000000000E+00 -0.46878178411E+00  0.46878871958E+00  0.25500000000E-02 0. -1.
         31    1    1    2    0    0  0.19558271492E+00 -0.85778259869E-03  0.56816335990E+02  0.57302645792E+02  0.74470750000E+01 0. -1.
        -31    1    1    2    0    0 -0.19558271492E+00  0.85778259869E-03  0.61265627084E+02  0.61716887814E+02  0.74470750000E+01 0. -1.
<mgrwt>
<rscale>  0 0.14909707E+02</rscale>
<asrwt>0</asrwt>
<pdfrwt beam="2">  1        2 0.99560522E+00 0.14909707E+02</pdfrwt>
<pdfrwt beam="1">  1       -2 0.98413678E+00 0.14909707E+02</pdfrwt>
<totfact> 0.56936436E-13</totfact>
</mgrwt>
</event>
<event>
 4    1 -0.4996155E-019  0.1494991E+02  0.7818608E-02  0.1869601E+00
          2   -1    0    0  501    0  0.00000000000E+00  0.00000000000E+00  0.11919846505E+03  0.11919846508E+03  0.25500000000E-02 0. -1.
         -2   -1    0    0    0  501 -0.00000000000E+00 -0.00000000000E+00 -0.46875236104E+00  0.46875929696E+00  0.25500000000E-02 0.  1.
         31    1    1    2    0    0  0.42437737185E+00 -0.36472671341E+00  0.56796772740E+02  0.57285647779E+02  0.74470750000E+01 0.  1.
        -31    1    1    2    0    0 -0.42437737185E+00  0.36472671341E+00  0.61932939953E+02  0.62381576599E+02  0.74470750000E+01 0. -1.
<mgrwt>
<rscale>  0 0.14949914E+02</rscale>
<asrwt>0</asrwt>
<pdfrwt beam="1">  1        2 0.98949234E+00 0.14949914E+02</pdfrwt>
<pdfrwt beam="2">  1       -2 0.99556429E+00 0.14949914E+02</pdfrwt>
<totfact>-0.18311176E-13</totfact>
</mgrwt>
</event>
<event>
 4    1  0.4996155E-019  0.1492936E+02  0.7818608E-02  0.1870232E+00
         -2   -1    0    0    0  501 -0.00000000000E+00  0.00000000000E+00  0.11855542017E+03  0.11855542020E+03  0.25500000000E-02 0. -1.
          2   -1    0    0  501    0  0.00000000000E+00 -0.00000000000E+00 -0.47000019572E+00  0.47000711322E+00  0.25500000000E-02 0.  1.
         31    1    1    2    0    0 -0.23205710493E+00  0.11264646398E+00  0.55512938182E+02  0.56010818342E+02  0.74470750000E+01 0.  1.
        -31    1    1    2    0    0  0.23205710493E+00 -0.11264646398E+00  0.62572481794E+02  0.63014608970E+02  0.74470750000E+01 0. -1.
<mgrwt>
<rscale>  0 0.14929365E+02</rscale>
<asrwt>0</asrwt>
<pdfrwt beam="2">  1        2 0.99818280E+00 0.14929365E+02</pdfrwt>
<pdfrwt beam="1">  1       -2 0.98418551E+00 0.14929365E+02</pdfrwt>
<totfact> 0.30684423E-13</totfact>
</mgrwt>
</event>
<event>
 4    1 -0.4996155E-019  0.1500339E+02  0.7818608E-02  0.1867965E+00
          2   -1    0    0  501    0  0.00000000000E+00  0.00000000000E+00  0.11968559596E+03  0.11968559599E+03  0.25500000000E-02 0. -1.
         -2   -1    0    0    0  501 -0.00000000000E+00 -0.00000000000E+00 -0.47019045477E+00  0.47019736947E+00  0.25500000000E-02 0.  1.
         31    1    1    2    0    0 -0.10490649188E+00  0.71787845017E+00  0.55293756346E+02  0.55797712961E+02  0.74470750000E+01 0.  1.
        -31    1    1    2    0    0  0.10490649188E+00 -0.71787845017E+00  0.63921649163E+02  0.64358080398E+02  0.74470750000E+01 0. -1.
<mgrwt>
<rscale>  0 0.15003392E+02</rscale>
<asrwt>0</asrwt>
<pdfrwt beam="1">  1        2 0.99353217E+00 0.15003392E+02</pdfrwt>
<pdfrwt beam="2">  1       -2 0.99862252E+00 0.15003392E+02</pdfrwt>
<totfact>-0.58770512E-14</totfact>
</mgrwt>
</event>
<event>
 4    1  0.4996155E-019  0.1491163E+02  0.7818608E-02  0.1870777E+00
         -2   -1    0    0    0  501 -0.00000000000E+00  0.00000000000E+00  0.11837747648E+03  0.11837747651E+03  0.25500000000E-02 0. -1.
          2   -1    0    0  501    0  0.00000000000E+00 -0.00000000000E+00 -0.46958920361E+00  0.46959612716E+00  0.25500000000E-02 0.  1.
         31    1    1    2    0    0  0.26074507847E+00  0.22285649588E+00  0.58058632683E+02  0.58535300529E+02  0.74470750000E+01 0.  1.
        -31    1    1    2    0    0 -0.26074507847E+00 -0.22285649588E+00  0.59849254597E+02  0.60311772108E+02  0.74470750000E+01 0.  1.
<mgrwt>
<rscale>  0 0.14911633E+02</rscale>
<asrwt>0</asrwt>
<pdfrwt beam="2">  1        2 0.99730748E+00 0.14911633E+02</pdfrwt>
<pdfrwt beam="1">  1       -2 0.98271075E+00 0.14911633E+02</pdfrwt>
<totfact> 0.58088260E-13</totfact>
</mgrwt>
</event>
<event>
 4    1 -0.4996155E-019  0.1501482E+02  0.7818608E-02  0.1867616E+00
         -2   -1    0    0    0  501 -0.00000000000E+00  0.00000000000E+00  0.11987696547E+03  0.11987696550E+03  0.25500000000E-02 0.  1.
          2   -1    0    0  501    0  0.00000000000E+00 -0.00000000000E+00 -0.47015551764E+00  0.47016243286E+00  0.25500000000E-02 0. -1.
         31    1    1    2    0    0  0.84851350446E+00 -0.88828701523E-01  0.63051069548E+02  0.63495071958E+02  0.74470750000E+01 0.  1.
        -31    1    1    2    0    0 -0.84851350446E+00  0.88828701523E-01  0.56355740408E+02  0.56852055976E+02  0.74470750000E+01 0. -1.
<mgrwt>
<rscale>  0 0.15014824E+02</rscale>
<asrwt>0</asrwt>
<pdfrwt beam="2">  1        2 0.99855485E+00 0.15014824E+02</pdfrwt>
<pdfrwt beam="1">  1       -2 0.99511426E+00 0.15014824E+02</pdfrwt>
<totfact>-0.50171469E-14</totfact>
</mgrwt>
</event>
<event>
 4    1  0.4996155E-019  0.1495503E+02  0.7818608E-02  0.1869444E+00
         -2   -1    0    0    0  501 -0.00000000000E+00  0.00000000000E+00  0.11895856466E+03  0.11895856469E+03  0.25500000000E-02 0.  1.
          2   -1    0    0  501    0  0.00000000000E+00 -0.00000000000E+00 -0.47001903695E+00  0.47002595417E+00  0.25500000000E-02 0. -1.
         31    1    1    2    0    0  0.17368683323E+00 -0.22955373447E+00  0.64111165542E+02  0.64542879819E+02  0.74470750000E+01 0.  1.
        -31    1    1    2    0    0 -0.17368683323E+00  0.22955373447E+00  0.54377380082E+02  0.54885710824E+02  0.74470750000E+01 0. -1.
<mgrwt>
<rscale>  0 0.14955027E+02</rscale>
<asrwt>0</asrwt>
<pdfrwt beam="2">  1        2 0.99823602E+00 0.14955027E+02</pdfrwt>
<pdfrwt beam="1">  1       -2 0.98751915E+00 0.14955027E+02</pdfrwt>
<totfact> 0.96833102E-14</totfact>
</mgrwt>
</event>
<event>
 4    1 -0.4996155E-019  0.1494691E+02  0.7818608E-02  0.1869693E+00
          2   -1    0    0  501    0  0.00000000000E+00  0.00000000000E+00  0.11876802185E+03  0.11876802188E+03  0.25500000000E-02 0. -1.
         -2   -1    0    0    0  501 -0.00000000000E+00 -0.00000000000E+00 -0.47026230101E+00  0.47026921465E+00  0.25500000000E-02 0.  1.
         31    1    1    2    0    0  0.13485801643E+00 -0.27315601351E+00  0.54773552848E+02  0.55278330461E+02  0.74470750000E+01 0. -1.
        -31    1    1    2    0    0 -0.13485801643E+00  0.27315601351E+00  0.63524206700E+02  0.63959960630E+02  0.74470750000E+01 0. -1.
<mgrwt>
<rscale>  0 0.14946911E+02</rscale>
<asrwt>0</asrwt>
<pdfrwt beam="1">  1        2 0.98594562E+00 0.14946911E+02</pdfrwt>
<pdfrwt beam="2">  1       -2 0.99874431E+00 0.14946911E+02</pdfrwt>
<totfact>-0.11938597E-13</totfact>
</mgrwt>
</event>
<event>
 4    1 -0.4996155E-019  0.1490081E+02  0.7818608E-02  0.1871111E+00
          2   -1    0    0  501    0  0.00000000000E+00  0.00000000000E+00  0.11814914332E+03  0.11814914335E+03  0.25500000000E-02 0. -1.
         -2   -1    0    0    0  501 -0.00000000000E+00 -0.00000000000E+00 -0.46981385724E+00  0.46982077748E+00  0.25500000000E-02 0.  1.
         31    1    1    2    0    0  0.18752345902E+00 -0.84322760036E-01  0.58158796502E+02  0.58634007299E+02  0.74470750000E+01 0.  1.
        -31    1    1    2    0    0 -0.18752345902E+00  0.84322760036E-01  0.59520532963E+02  0.59984956828E+02  0.74470750000E+01 0. -1.
<mgrwt>
<rscale>  0 0.14900808E+02</rscale>
<asrwt>0</asrwt>
<pdfrwt beam="1">  1        2 0.98082459E+00 0.14900808E+02</pdfrwt>
<pdfrwt beam="2">  1       -2 0.99777508E+00 0.14900808E+02</pdfrwt>
<totfact>-0.45149906E-13</totfact>
</mgrwt>
</event>
<event>
 4    1 -0.4996155E-019  0.1490686E+02  0.7818608E-02  0.1870924E+00
         -2   -1    0    0    0  501 -0.00000000000E+00  0.00000000000E+00  0.12041130328E+03  0.12041130330E+03  0.25500000000E-02 0. -1.
          2   -1    0    0  501    0  0.00000000000E+00 -0.00000000000E+00 -0.46136209357E+00  0.46136914058E+00  0.25500000000E-02 0.  1.
         31    1    1    2    0    0  0.16862334307E+00  0.83698475929E-02  0.62061377097E+02  0.62506815285E+02  0.74470750000E+01 0. -1.
        -31    1    1    2    0    0 -0.16862334307E+00 -0.83698475929E-02  0.57888564086E+02  0.58365857159E+02  0.74470750000E+01 0.  1.
<mgrwt>
<rscale>  0 0.14906863E+02</rscale>
<asrwt>0</asrwt>
<pdfrwt beam="2">  1        2 0.97996720E+00 0.14906863E+02</pdfrwt>
<pdfrwt beam="1">  1       -2 0.99945983E+00 0.14906863E+02</pdfrwt>
<totfact>-0.14655700E-13</totfact>
</mgrwt>
</event>
<event>
 4    1 -0.4996155E-019  0.1490651E+02  0.7818608E-02  0.1870935E+00
          2   -1    0    0  501    0  0.00000000000E+00  0.00000000000E+00  0.11882255423E+03  0.11882255426E+03  0.25500000000E-02 0.  1.
         -2   -1    0    0    0  501 -0.00000000000E+00 -0.00000000000E+00 -0.46750906892E+00  0.46751602328E+00  0.25500000000E-02 0. -1.
         31    1    1    2    0    0  0.13940715664E+00  0.68730869083E-01  0.57091423134E+02  0.57575287058E+02  0.74470750000E+01 0. -1.
        -31    1    1    2    0    0 -0.13940715664E+00 -0.68730869083E-01  0.61263622028E+02  0.61714783223E+02  0.74470750000E+01 0.  1.
<mgrwt>
<rscale>  0 0.14906514E+02</rscale>
<asrwt>0</asrwt>
<pdfrwt beam="1">  1        2 0.98637376E+00 0.14906514E+02</pdfrwt>
<pdfrwt beam="2">  1       -2 0.99292179E+00 0.14906514E+02</pdfrwt>
<totfact>-0.23952709E-13</totfact>
</mgrwt>
</event>
<event>
 4    1 -0.4996155E-019  0.1493246E+02  0.7818608E-02  0.1870137E+00
          2   -1    0    0  501    0  0.00000000000E+00  0.00000000000E+00  0.11898995242E+03  0.11898995245E+03  0.25500000000E-02 0. -1.
         -2   -1    0    0    0  501 -0.00000000000E+00 -0.00000000000E+00 -0.46847772245E+00  0.46848466243E+00  0.25500000000E-02 0.  1.
         31    1    1    2    0    0  0.48521309098E+00 -0.33084016573E-02  0.57468517777E+02  0.57951056109E+02  0.74470750000E+01 0.  1.
        -31    1    1    2    0    0 -0.48521309098E+00  0.33084016573E-02  0.61052956923E+02  0.61507381002E+02  0.74470750000E+01 0. -1.
<mgrwt>
<rscale>  0 0.14932456E+02</rscale>
<asrwt>0</asrwt>
<pdfrwt beam="1">  1        2 0.98776594E+00 0.14932456E+02</pdfrwt>
<pdfrwt beam="2">  1       -2 0.99497646E+00 0.14932456E+02</pdfrwt>
<totfact>-0.23016705E-13</totfact>
</mgrwt>
</event>
<event>
 4    1 -0.4996155E-019  0.1494786E+02  0.7818608E-02  0.1869664E+00
          2   -1    0    0  501    0  0.00000000000E+00  0.00000000000E+00  0.11931950079E+03  0.11931950082E+03  0.25500000000E-02 0. -1.
         -2   -1    0    0    0  501 -0.00000000000E+00 -0.00000000000E+00 -0.46814811458E+00  0.46815505945E+00  0.25500000000E-02 0.  1.
         31    1    1    2    0    0 -0.50284800259E-01 -0.37631887499E+00  0.63484648371E+02  0.63921073593E+02  0.74470750000E+01 0. -1.
        -31    1    1    2    0    0  0.50284800259E-01  0.37631887499E+00  0.55366704307E+02  0.55866582286E+02  0.74470750000E+01 0.  1.
<mgrwt>
<rscale>  0 0.14947858E+02</rscale>
<asrwt>0</asrwt>
<pdfrwt beam="1">  1        2 0.99048815E+00 0.14947858E+02</pdfrwt>
<pdfrwt beam="2">  1       -2 0.99428994E+00 0.14947858E+02</pdfrwt>
<totfact>-0.16966224E-13</totfact>
</mgrwt>
</event>
<event>
 4    1  0.4996155E-019  0.1490396E+02  0.7818608E-02  0.1871013E+00
          2   -1    0    0  501    0  0.00000000000E+00  0.00000000000E+00  0.12028983343E+03  0.12028983345E+03  0.25500000000E-02 0.  1.
         -2   -1    0    0    0  501 -0.00000000000E+00 -0.00000000000E+00 -0.46164806479E+00  0.46165510744E+00  0.25500000000E-02 0. -1.
         31    1    1    2    0    0  0.94867195698E-01 -0.21215364260E+00  0.58795531754E+02  0.59265736216E+02  0.74470750000E+01 0.  1.
        -31    1    1    2    0    0 -0.94867195698E-01  0.21215364260E+00  0.61032653608E+02  0.61485752345E+02  0.74470750000E+01 0.  1.
<mgrwt>
<rscale>  0 0.14903959E+02</rscale>
<asrwt>0</asrwt>
<pdfrwt beam="1">  1        2 0.99845779E+00 0.14903959E+02</pdfrwt>
<pdfrwt beam="2">  1       -2 0.98056852E+00 0.14903959E+02</pdfrwt>
<totfact> 0.57144970E-13</totfact>
</mgrwt>
</event>
<event>
 4    1  0.4996155E-019  0.1496079E+02  0.7818608E-02  0.1869267E+00
          2   -1    0    0  501    0  0.00000000000E+00  0.00000000000E+00  0.12015911538E+03  0.12015911541E+03  0.25500000000E-02 0.  1.
         -2   -1    0    0    0  501 -0.00000000000E+00 -0.00000000000E+00 -0.46568143998E+00  0.46568842164E+00  0.25500000000E-02 0. -1.
         31    1    1    2    0    0 -0.23516584754E+00  0.19788294420E+00  0.54728909187E+02  0.55234109818E+02  0.74470750000E+01 0. -1.
        -31    1    1    2    0    0  0.23516584754E+00 -0.19788294420E+00  0.64964524752E+02  0.65390694008E+02  0.74470750000E+01 0. -1.
<mgrwt>
<rscale>  0 0.14960788E+02</rscale>
<asrwt>0</asrwt>
<pdfrwt beam="1">  1        2 0.99741027E+00 0.14960788E+02</pdfrwt>
<pdfrwt beam="2">  1       -2 0.98909833E+00 0.14960788E+02</pdfrwt>
<totfact> 0.43673135E-14</totfact>
</mgrwt>
</event>
<event>
 4    1  0.4996155E-019  0.1491603E+02  0.7818608E-02  0.1870642E+00
         -2   -1    0    0    0  501 -0.00000000000E+00  0.00000000000E+00  0.11846624398E+03  0.11846624400E+03  0.25500000000E-02 0. -1.
          2   -1    0    0  501    0  0.00000000000E+00 -0.00000000000E+00 -0.46951417332E+00  0.46952109798E+00  0.25500000000E-02 0.  1.
         31    1    1    2    0    0  0.21671159305E+00 -0.32035783616E+00  0.59923962669E+02  0.60386172432E+02  0.74470750000E+01 0. -1.
        -31    1    1    2    0    0 -0.21671159305E+00  0.32035783616E+00  0.58072767134E+02  0.58549592669E+02  0.74470750000E+01 0.  1.
<mgrwt>
<rscale>  0 0.14916031E+02</rscale>
<asrwt>0</asrwt>
<pdfrwt beam="2">  1        2 0.99715172E+00 0.14916031E+02</pdfrwt>
<pdfrwt beam="1">  1       -2 0.98344412E+00 0.14916031E+02</pdfrwt>
<totfact> 0.51345180E-13</totfact>
</mgrwt>
</event>
<event>
 4    1 -0.4996155E-019  0.1499467E+02  0.7818608E-02  0.1868231E+00
         -2   -1    0    0    0  501 -0.00000000000E+00  0.00000000000E+00  0.12018503053E+03  0.12018503055E+03  0.25500000000E-02 0.  1.
          2   -1    0    0  501    0  0.00000000000E+00 -0.00000000000E+00 -0.46769205410E+00  0.46769900573E+00  0.25500000000E-02 0. -1.
         31    1    1    2    0    0  0.43080922773E+00  0.85844139483E-01  0.53847466315E+02  0.54361765243E+02  0.74470750000E+01 0. -1.
        -31    1    1    2    0    0 -0.43080922773E+00 -0.85844139483E-01  0.65869872159E+02  0.66290964317E+02  0.74470750000E+01 0.  1.
<mgrwt>
<rscale>  0 0.14994666E+02</rscale>
<asrwt>0</asrwt>
<pdfrwt beam="2">  1        2 0.99335305E+00 0.14994666E+02</pdfrwt>
<pdfrwt beam="1">  1       -2 0.99764118E+00 0.14994666E+02</pdfrwt>
<totfact>-0.92834373E-14</totfact>
</mgrwt>
</event>
<event>
 4    1 -0.4996155E-019  0.1497868E+02  0.7818608E-02  0.1868720E+00
          2   -1    0    0  501    0  0.00000000000E+00  0.00000000000E+00  0.11925414326E+03  0.11925414328E+03  0.25500000000E-02 0.  1.
         -2   -1    0    0    0  501 -0.00000000000E+00 -0.00000000000E+00 -0.47033824651E+00  0.47034515904E+00  0.25500000000E-02 0. -1.
         31    1    1    2    0    0 -0.28378046456E-01  0.73312237306E+00  0.61829441778E+02  0.62280631583E+02  0.74470750000E+01 0. -1.
        -31    1    1    2    0    0  0.28378046456E-01 -0.73312237306E+00  0.56954363233E+02  0.57443856861E+02  0.74470750000E+01 0. -1.
<mgrwt>
<rscale>  0 0.14978678E+02</rscale>
<asrwt>0</asrwt>
<pdfrwt beam="1">  1        2 0.98996584E+00 0.14978678E+02</pdfrwt>
<pdfrwt beam="2">  1       -2 0.99892103E+00 0.14978678E+02</pdfrwt>
<totfact>-0.62449078E-14</totfact>
</mgrwt>
</event>
<event>
 4    1  0.4996155E-019  0.1493430E+02  0.7818608E-02  0.1870080E+00
          2   -1    0    0  501    0  0.00000000000E+00  0.00000000000E+00  0.12016770398E+03  0.12016770401E+03  0.25500000000E-02 0. -1.
         -2   -1    0    0    0  501 -0.00000000000E+00 -0.00000000000E+00 -0.46400087965E+00  0.46400788658E+00  0.25500000000E-02 0.  1.
         31    1    1    2    0    0 -0.44851021631E-01  0.53546746579E+00  0.59017030471E+02  0.59487457071E+02  0.74470750000E+01 0.  1.
        -31    1    1    2    0    0  0.44851021631E-01 -0.53546746579E+00  0.60686672627E+02  0.61144254821E+02  0.74470750000E+01 0. -1.
<mgrwt>
<rscale>  0 0.14934302E+02</rscale>
<asrwt>0</asrwt>
<pdfrwt beam="1">  1        2 0.99746740E+00 0.14934302E+02</pdfrwt>
<pdfrwt beam="2">  1       -2 0.98554291E+00 0.14934302E+02</pdfrwt>
<totfact> 0.27089594E-13</totfact>
</mgrwt>
</event>
<event>
 4    1 -0.4996155E-019  0.1491913E+02  0.7818608E-02  0.1870546E+00
          2   -1    0    0  501    0  0.00000000000E+00  0.00000000000E+00  0.11884010665E+03  0.11884010668E+03  0.25500000000E-02 0.  1.
         -2   -1    0    0    0  501 -0.00000000000E+00 -0.00000000000E+00 -0.46823139232E+00  0.46823833595E+00  0.25500000000E-02 0. -1.
         31    1    1    2    0    0  0.36550854663E+00  0.17158388761E-01  0.57357655421E+02  0.57840240770E+02  0.74470750000E+01 0. -1.
        -31    1    1    2    0    0 -0.36550854663E+00 -0.17158388761E-01  0.61014219841E+02  0.61468104248E+02  0.74470750000E+01 0.  1.
<mgrwt>
<rscale>  0 0.14919127E+02</rscale>
<asrwt>0</asrwt>
<pdfrwt beam="1">  1        2 0.98652487E+00 0.14919127E+02</pdfrwt>
<pdfrwt beam="2">  1       -2 0.99445043E+00 0.14919127E+02</pdfrwt>
<totfact>-0.27348734E-13</totfact>
</mgrwt>
</event>
<event>
 4    1 -0.4996155E-019  0.1500958E+02  0.7818608E-02  0.1867776E+00
          2   -1    0    0  501    0  0.00000000000E+00  0.00000000000E+00  0.11988587467E+03  0.11988587470E+03  0.25500000000E-02 0.  1.
         -2   -1    0    0    0  501 -0.00000000000E+00 -0.00000000000E+00 -0.46979196943E+00  0.46979889000E+00  0.25500000000E-02 0. -1.
         31    1    1    2    0    0 -0.76799577961E+00  0.49448804836E+00  0.58352513435E+02  0.58832891193E+02  0.74470750000E+01 0. -1.
        -31    1    1    2    0    0  0.76799577961E+00 -0.49448804836E+00  0.61063569266E+02  0.61522782394E+02  0.74470750000E+01 0. -1.
<mgrwt>
<rscale>  0 0.15009576E+02</rscale>
<asrwt>0</asrwt>
<pdfrwt beam="1">  1        2 0.99518492E+00 0.15009576E+02</pdfrwt>
<pdfrwt beam="2">  1       -2 0.99778603E+00 0.15009576E+02</pdfrwt>
<totfact>-0.75360248E-14</totfact>
</mgrwt>
</event>
<event>
 4    1 -0.4996155E-019  0.1499276E+02  0.7818608E-02  0.1868289E+00
         -2   -1    0    0    0  501 -0.00000000000E+00  0.00000000000E+00  0.12022591957E+03  0.12022591959E+03  0.25500000000E-02 0. -1.
          2   -1    0    0  501    0  0.00000000000E+00 -0.00000000000E+00 -0.46741423567E+00  0.46742119144E+00  0.25500000000E-02 0.  1.
         31    1    1    2    0    0  0.73050246277E+00 -0.45073209455E+00  0.59855966593E+02  0.60323564683E+02  0.74470750000E+01 0. -1.
        -31    1    1    2    0    0 -0.73050246277E+00  0.45073209455E+00  0.59902538739E+02  0.60369776103E+02  0.74470750000E+01 0.  1.
<mgrwt>
<rscale>  0 0.14992762E+02</rscale>
<asrwt>0</asrwt>
<pdfrwt beam="2">  1        2 0.99276658E+00 0.14992762E+02</pdfrwt>
<pdfrwt beam="1">  1       -2 0.99797699E+00 0.14992762E+02</pdfrwt>
<totfact>-0.85943307E-14</totfact>
</mgrwt>
</event>
<event>
 4    1 -0.4996155E-019  0.1490404E+02  0.7818608E-02  0.1871011E+00
         -2   -1    0    0    0  501 -0.00000000000E+00  0.00000000000E+00  0.12022731690E+03  0.12022731693E+03  0.25500000000E-02 0.  1.
          2   -1    0    0  501    0  0.00000000000E+00 -0.00000000000E+00 -0.46189302937E+00  0.46190006829E+00  0.25500000000E-02 0. -1.
         31    1    1    2    0    0 -0.14717750502E+00 -0.16270076115E+00  0.61176508837E+02  0.61628502272E+02  0.74470750000E+01 0.  1.
        -31    1    1    2    0    0  0.14717750502E+00  0.16270076115E+00  0.58588915037E+02  0.59060714727E+02  0.74470750000E+01 0. -1.
<mgrwt>
<rscale>  0 0.14904038E+02</rscale>
<asrwt>0</asrwt>
<pdfrwt beam="2">  1        2 0.98108489E+00 0.14904038E+02</pdfrwt>
<pdfrwt beam="1">  1       -2 0.99794289E+00 0.14904038E+02</pdfrwt>
<totfact>-0.40648391E-13</totfact>
</mgrwt>
</event>
<event>
 4    1  0.4996155E-019  0.1489524E+02  0.7818608E-02  0.1871282E+00
          2   -1    0    0  501    0  0.00000000000E+00  0.00000000000E+00  0.11959469064E+03  0.11959469067E+03  0.25500000000E-02 0. -1.
         -2   -1    0    0    0  501 -0.00000000000E+00 -0.00000000000E+00 -0.46378810929E+00  0.46379511944E+00  0.25500000000E-02 0.  1.
         31    1    1    2    0    0  0.76940317806E-01  0.45186445405E-01  0.59657428202E+02  0.60120509208E+02  0.74470750000E+01 0. -1.
        -31    1    1    2    0    0 -0.76940317806E-01 -0.45186445405E-01  0.59473474329E+02  0.59937976580E+02  0.74470750000E+01 0. -1.
<mgrwt>
<rscale>  0 0.14895237E+02</rscale>
<asrwt>0</asrwt>
<pdfrwt beam="1">  1        2 0.99272756E+00 0.14895237E+02</pdfrwt>
<pdfrwt beam="2">  1       -2 0.98507458E+00 0.14895237E+02</pdfrwt>
<totfact> 0.57155767E-13</totfact>
</mgrwt>
</event>
<event>
 4    1 -0.4996155E-019  0.1491755E+02  0.7818608E-02  0.1870595E+00
         -2   -1    0    0    0  501 -0.00000000000E+00  0.00000000000E+00  0.12017445118E+03  0.12017445121E+03  0.25500000000E-02 0.  1.
          2   -1    0    0  501    0  0.00000000000E+00 -0.00000000000E+00 -0.46293454227E+00  0.46294156535E+00  0.25500000000E-02 0. -1.
         31    1    1    2    0    0 -0.23460383150E+00 -0.28755276655E+00  0.58306983008E+02  0.58781807722E+02  0.74470750000E+01 0. -1.
        -31    1    1    2    0    0  0.23460383150E+00  0.28755276655E+00  0.61404533631E+02  0.61855585051E+02  0.74470750000E+01 0.  1.
<mgrwt>
<rscale>  0 0.14917551E+02</rscale>
<asrwt>0</asrwt>
<pdfrwt beam="2">  1        2 0.98328694E+00 0.14917551E+02</pdfrwt>
<pdfrwt beam="1">  1       -2 0.99751437E+00 0.14917551E+02</pdfrwt>
<totfact>-0.32424911E-13</totfact>
</mgrwt>
</event>
<event>
 4    1 -0.4996155E-019  0.1496044E+02  0.7818608E-02  0.1869278E+00
          2   -1    0    0  501    0  0.00000000000E+00  0.00000000000E+00  0.11943789748E+03  0.11943789751E+03  0.25500000000E-02 0. -1.
         -2   -1    0    0    0  501 -0.00000000000E+00 -0.00000000000E+00 -0.46847140723E+00  0.46847834730E+00  0.25500000000E-02 0.  1.
         31    1    1    2    0    0 -0.34904791361E+00  0.14122062424E+00  0.64246357930E+02  0.64677625274E+02  0.74470750000E+01 0. -1.
        -31    1    1    2    0    0  0.34904791361E+00 -0.14122062424E+00  0.54723068141E+02  0.55228750579E+02  0.74470750000E+01 0.  1.
<mgrwt>
<rscale>  0 0.14960436E+02</rscale>
<asrwt>0</asrwt>
<pdfrwt beam="1">  1        2 0.99146981E+00 0.14960436E+02</pdfrwt>
<pdfrwt beam="2">  1       -2 0.99497773E+00 0.14960436E+02</pdfrwt>
<totfact>-0.15754600E-13</totfact>
</mgrwt>
</event>
<event>
 4    1 -0.4996155E-019  0.1491039E+02  0.7818608E-02  0.1870815E+00
          2   -1    0    0  501    0  0.00000000000E+00  0.00000000000E+00  0.11807840882E+03  0.11807840885E+03  0.25500000000E-02 0.  1.
         -2   -1    0    0    0  501 -0.00000000000E+00 -0.00000000000E+00 -0.47070007599E+00  0.47070698321E+00  0.25500000000E-02 0. -1.
         31    1    1    2    0    0  0.28510299727E+00  0.18444196669E+00  0.59404042651E+02  0.59869980056E+02  0.74470750000E+01 0. -1.
        -31    1    1    2    0    0 -0.28510299727E+00 -0.18444196669E+00  0.58203666092E+02  0.58679135774E+02  0.74470750000E+01 0.  1.
<mgrwt>
<rscale>  0 0.14910389E+02</rscale>
<asrwt>0</asrwt>
<pdfrwt beam="1">  1        2 0.98024703E+00 0.14910389E+02</pdfrwt>
<pdfrwt beam="2">  1       -2 0.99964733E+00 0.14910389E+02</pdfrwt>
<totfact>-0.92688204E-14</totfact>
</mgrwt>
</event>
<event>
 4    1  0.4996155E-019  0.1491093E+02  0.7818608E-02  0.1870799E+00
         -2   -1    0    0    0  501 -0.00000000000E+00  0.00000000000E+00  0.11831260894E+03  0.11831260897E+03  0.25500000000E-02 0.  1.
          2   -1    0    0  501    0  0.00000000000E+00 -0.00000000000E+00 -0.46980228934E+00  0.46980920976E+00  0.25500000000E-02 0. -1.
         31    1    1    2    0    0  0.34082283800E+00  0.10547804842E-01  0.58176254307E+02  0.58651954466E+02  0.74470750000E+01 0. -1.
        -31    1    1    2    0    0 -0.34082283800E+00 -0.10547804842E-01  0.59666552343E+02  0.60130463710E+02  0.74470750000E+01 0.  1.
<mgrwt>
<rscale>  0 0.14910928E+02</rscale>
<asrwt>0</asrwt>
<pdfrwt beam="2">  1        2 0.99775607E+00 0.14910928E+02</pdfrwt>
<pdfrwt beam="1">  1       -2 0.98217614E+00 0.14910928E+02</pdfrwt>
<totfact> 0.56827188E-13</totfact>
</mgrwt>
</event>
<event>
 4    1 -0.4996155E-019  0.1490286E+02  0.7818608E-02  0.1871047E+00
         -2   -1    0    0    0  501 -0.00000000000E+00  0.00000000000E+00  0.11985492961E+03  0.11985492964E+03  0.25500000000E-02 0.  1.
          2   -1    0    0  501    0  0.00000000000E+00 -0.00000000000E+00 -0.46325496482E+00  0.46326198304E+00  0.25500000000E-02 0. -1.
         31    1    1    2    0    0  0.20435394124E+00  0.12628801054E-01  0.60919417313E+02  0.61373253555E+02  0.74470750000E+01 0.  1.
        -31    1    1    2    0    0 -0.20435394124E+00 -0.12628801054E-01  0.58472257331E+02  0.58944938065E+02  0.74470750000E+01 0. -1.
<mgrwt>
<rscale>  0 0.14902861E+02</rscale>
<asrwt>0</asrwt>
<pdfrwt beam="2">  1        2 0.98395483E+00 0.14902861E+02</pdfrwt>
<pdfrwt beam="1">  1       -2 0.99487499E+00 0.14902861E+02</pdfrwt>
<totfact>-0.41321732E-13</totfact>
</mgrwt>
</event>
<event>
 4    1 -0.4996155E-019  0.1493460E+02  0.7818608E-02  0.1870071E+00
          2   -1    0    0  501    0  0.00000000000E+00  0.00000000000E+00  0.11886467635E+03  0.11886467637E+03  0.25500000000E-02 0. -1.
         -2   -1    0    0    0  501 -0.00000000000E+00 -0.00000000000E+00 -0.46910599507E+00  0.46911292575E+00  0.25500000000E-02 0.  1.
         31    1    1    2    0    0 -0.43771432472E+00 -0.49413838662E-01  0.61818667084E+02  0.62267170818E+02  0.74470750000E+01 0. -1.
        -31    1    1    2    0    0  0.43771432472E+00  0.49413838662E-01  0.56576903267E+02  0.57066618481E+02  0.74470750000E+01 0.  1.
<mgrwt>
<rscale>  0 0.14934597E+02</rscale>
<asrwt>0</asrwt>
<pdfrwt beam="1">  1        2 0.98673526E+00 0.14934597E+02</pdfrwt>
<pdfrwt beam="2">  1       -2 0.99630143E+00 0.14934597E+02</pdfrwt>
<totfact>-0.24013588E-13</totfact>
</mgrwt>
</event>
<event>
 4    1 -0.4996155E-019  0.1489703E+02  0.7818608E-02  0.1871227E+00
          2   -1    0    0  501    0  0.00000000000E+00  0.00000000000E+00  0.11831662397E+03  0.11831662400E+03  0.25500000000E-02 0. -1.
         -2   -1    0    0    0  501 -0.00000000000E+00 -0.00000000000E+00 -0.46891105530E+00  0.46891798887E+00  0.25500000000E-02 0.  1.
         31    1    1    2    0    0 -0.63130576344E-01 -0.13188263252E+00  0.58996012336E+02  0.59464357190E+02  0.74470750000E+01 0. -1.
        -31    1    1    2    0    0  0.63130576344E-01  0.13188263252E+00  0.58851700578E+02  0.59321184795E+02  0.74470750000E+01 0.  1.
<mgrwt>
<rscale>  0 0.14897031E+02</rscale>
<asrwt>0</asrwt>
<pdfrwt beam="1">  1        2 0.98220197E+00 0.14897031E+02</pdfrwt>
<pdfrwt beam="2">  1       -2 0.99587092E+00 0.14897031E+02</pdfrwt>
<totfact>-0.52693073E-13</totfact>
</mgrwt>
</event>
<event>
 4    1  0.4996155E-019  0.1492456E+02  0.7818608E-02  0.1870379E+00
         -2   -1    0    0    0  501 -0.00000000000E+00  0.00000000000E+00  0.11879883284E+03  0.11879883287E+03  0.25500000000E-02 0.  1.
          2   -1    0    0  501    0  0.00000000000E+00 -0.00000000000E+00 -0.46873558438E+00  0.46874252054E+00  0.25500000000E-02 0. -1.
         31    1    1    2    0    0  0.19279860178E+00  0.86208325656E-01  0.62575462890E+02  0.63017395100E+02  0.74470750000E+01 0.  1.
        -31    1    1    2    0    0 -0.19279860178E+00 -0.86208325656E-01  0.55754634366E+02  0.56250180289E+02  0.74470750000E+01 0. -1.
<mgrwt>
<rscale>  0 0.14924564E+02</rscale>
<asrwt>0</asrwt>
<pdfrwt beam="2">  1        2 0.99551568E+00 0.14924564E+02</pdfrwt>
<pdfrwt beam="1">  1       -2 0.98618776E+00 0.14924564E+02</pdfrwt>
<totfact> 0.31574023E-13</totfact>
</mgrwt>
</event>
<event>
 4    1 -0.4996155E-019  0.1491298E+02  0.7818608E-02  0.1870736E+00
          2   -1    0    0  501    0  0.00000000000E+00  0.00000000000E+00  0.11888889345E+03  0.11888889348E+03  0.25500000000E-02 0. -1.
         -2   -1    0    0    0  501 -0.00000000000E+00 -0.00000000000E+00 -0.46765335212E+00  0.46766030433E+00  0.25500000000E-02 0.  1.
         31    1    1    2    0    0  0.24992594705E+00  0.11602040828E+00  0.61241001109E+02  0.61692747277E+02  0.74470750000E+01 0. -1.
        -31    1    1    2    0    0 -0.24992594705E+00 -0.11602040828E+00  0.57180238992E+02  0.57663806508E+02  0.74470750000E+01 0.  1.
<mgrwt>
<rscale>  0 0.14912975E+02</rscale>
<asrwt>0</asrwt>
<pdfrwt beam="1">  1        2 0.98692350E+00 0.14912975E+02</pdfrwt>
<pdfrwt beam="2">  1       -2 0.99322919E+00 0.14912975E+02</pdfrwt>
<totfact>-0.23291997E-13</totfact>
</mgrwt>
</event>
<event>
 4    1 -0.4996155E-019  0.1492342E+02  0.7818608E-02  0.1870414E+00
          2   -1    0    0  501    0  0.00000000000E+00  0.00000000000E+00  0.11865454904E+03  0.11865454907E+03  0.25500000000E-02 0. -1.
         -2   -1    0    0    0  501 -0.00000000000E+00 -0.00000000000E+00 -0.46923363260E+00  0.46924056140E+00  0.25500000000E-02 0.  1.
         31    1    1    2    0    0 -0.18125842657E+00 -0.33649613908E+00  0.61236165565E+02  0.61688515815E+02  0.74470750000E+01 0. -1.
        -31    1    1    2    0    0  0.18125842657E+00  0.33649613908E+00  0.56949149845E+02  0.57435273817E+02  0.74470750000E+01 0.  1.
<mgrwt>
<rscale>  0 0.14923420E+02</rscale>
<asrwt>0</asrwt>
<pdfrwt beam="1">  1        2 0.98499884E+00 0.14923420E+02</pdfrwt>
<pdfrwt beam="2">  1       -2 0.99656450E+00 0.14923420E+02</pdfrwt>
<totfact>-0.30196910E-13</totfact>
</mgrwt>
</event>
<event>
 4    1 -0.4996155E-019  0.1503250E+02  0.7818608E-02  0.1867078E+00
          2   -1    0    0  501    0  0.00000000000E+00  0.00000000000E+00  0.12013100938E+03  0.12013100941E+03  0.25500000000E-02 0.  1.
         -2   -1    0    0    0  501 -0.00000000000E+00 -0.00000000000E+00 -0.47026685174E+00  0.47027376532E+00  0.25500000000E-02 0. -1.
         31    1    1    2    0    0 -0.52074130989E+00  0.72760640510E+00  0.63715723386E+02  0.64155692774E+02  0.74470750000E+01 0.  1.
        -31    1    1    2    0    0  0.52074130989E+00 -0.72760640510E+00  0.55945019141E+02  0.56445590397E+02  0.74470750000E+01 0. -1.
<mgrwt>
<rscale>  0 0.15032505E+02</rscale>
<asrwt>0</asrwt>
<pdfrwt beam="1">  1        2 0.99721579E+00 0.15032505E+02</pdfrwt>
<pdfrwt beam="2">  1       -2 0.99879863E+00 0.15032505E+02</pdfrwt>
<totfact>-0.32144968E-14</totfact>
</mgrwt>
</event>
<event>
 4    1  0.4996155E-019  0.1490612E+02  0.7818608E-02  0.1870947E+00
          2   -1    0    0  501    0  0.00000000000E+00  0.00000000000E+00  0.11976731870E+03  0.11976731873E+03  0.25500000000E-02 0. -1.
         -2   -1    0    0    0  501 -0.00000000000E+00 -0.00000000000E+00 -0.46379681865E+00  0.46380382867E+00  0.25500000000E-02 0.  1.
         31    1    1    2    0    0  0.13152569891E+00  0.17989752001E+00  0.58047961879E+02  0.58524135761E+02  0.74470750000E+01 0.  1.
        -31    1    1    2    0    0 -0.13152569891E+00 -0.17989752001E+00  0.61255560004E+02  0.61706986797E+02  0.74470750000E+01 0. -1.
<mgrwt>
<rscale>  0 0.14906123E+02</rscale>
<asrwt>0</asrwt>
<pdfrwt beam="1">  1        2 0.99415504E+00 0.14906123E+02</pdfrwt>
<pdfrwt beam="2">  1       -2 0.98509849E+00 0.14906123E+02</pdfrwt>
<totfact> 0.50962063E-13</totfact>
</mgrwt>
</event>
<event>
 4    1 -0.4996155E-019  0.1490990E+02  0.7818608E-02  0.1870831E+00
         -2   -1    0    0    0  501 -0.00000000000E+00  0.00000000000E+00  0.12002805764E+03  0.12002805767E+03  0.25500000000E-02 0. -1.
          2   -1    0    0  501    0  0.00000000000E+00 -0.00000000000E+00 -0.46302364829E+00  0.46303067002E+00  0.25500000000E-02 0.  1.
         31    1    1    2    0    0 -0.24919718614E+00 -0.18430789103E+00  0.58604225109E+02  0.59076308241E+02  0.74470750000E+01 0. -1.
        -31    1    1    2    0    0  0.24919718614E+00  0.18430789103E+00  0.60960808885E+02  0.61414780099E+02  0.74470750000E+01 0. -1.
<mgrwt>
<rscale>  0 0.14909897E+02</rscale>
<asrwt>0</asrwt>
<pdfrwt beam="2">  1        2 0.98347087E+00 0.14909897E+02</pdfrwt>
<pdfrwt beam="1">  1       -2 0.99630462E+00 0.14909897E+02</pdfrwt>
<totfact>-0.40444889E-13</totfact>
</mgrwt>
</event>
<event>
 4    1  0.4996155E-019  0.1490046E+02  0.7818608E-02  0.1871121E+00
         -2   -1    0    0    0  501 -0.00000000000E+00  0.00000000000E+00  0.11843776790E+03  0.11843776793E+03  0.25500000000E-02 0. -1.
          2   -1    0    0  501    0  0.00000000000E+00 -0.00000000000E+00 -0.46864715281E+00  0.46865409028E+00  0.25500000000E-02 0.  1.
         31    1    1    2    0    0 -0.12024989550E+00  0.26019235832E-01  0.60409255311E+02  0.60866675532E+02  0.74470750000E+01 0. -1.
        -31    1    1    2    0    0  0.12024989550E+00 -0.26019235832E-01  0.57559865439E+02  0.58039746489E+02  0.74470750000E+01 0.  1.
<mgrwt>
<rscale>  0 0.14900461E+02</rscale>
<asrwt>0</asrwt>
<pdfrwt beam="2">  1        2 0.99531668E+00 0.14900461E+02</pdfrwt>
<pdfrwt beam="1">  1       -2 0.98320149E+00 0.14900461E+02</pdfrwt>
<totfact> 0.73577045E-13</totfact>
</mgrwt>
</event>
<event>
 4    1 -0.4996155E-019  0.1493822E+02  0.7818608E-02  0.1869959E+00
         -2   -1    0    0    0  501 -0.00000000000E+00  0.00000000000E+00  0.12003494113E+03  0.12003494116E+03  0.25500000000E-02 0. -1.
          2   -1    0    0  501    0  0.00000000000E+00 -0.00000000000E+00 -0.46475809919E+00  0.46476509471E+00  0.25500000000E-02 0.  1.
         31    1    1    2    0    0 -0.52858003974E+00 -0.32457425139E-01  0.61557120125E+02  0.62008212476E+02  0.74470750000E+01 0. -1.
        -31    1    1    2    0    0  0.52858003974E+00  0.32457425139E-01  0.58013062906E+02  0.58491493775E+02  0.74470750000E+01 0.  1.
<mgrwt>
<rscale>  0 0.14938224E+02</rscale>
<asrwt>0</asrwt>
<pdfrwt beam="2">  1        2 0.98714083E+00 0.14938224E+02</pdfrwt>
<pdfrwt beam="1">  1       -2 0.99637588E+00 0.14938224E+02</pdfrwt>
<totfact>-0.22425666E-13</totfact>
</mgrwt>
</event>
<event>
 4    1 -0.4996155E-019  0.1494851E+02  0.7818608E-02  0.1869644E+00
          2   -1    0    0  501    0  0.00000000000E+00  0.00000000000E+00  0.11903544888E+03  0.11903544891E+03  0.25500000000E-02 0.  1.
         -2   -1    0    0    0  501 -0.00000000000E+00 -0.00000000000E+00 -0.46930596238E+00  0.46931289011E+00  0.25500000000E-02 0. -1.
         31    1    1    2    0    0  0.15468564780E+00 -0.37607654503E+00  0.63200946546E+02  0.63639484061E+02  0.74470750000E+01 0.  1.
        -31    1    1    2    0    0 -0.15468564780E+00  0.37607654503E+00  0.55365196374E+02  0.55865277739E+02  0.74470750000E+01 0. -1.
<mgrwt>
<rscale>  0 0.14948506E+02</rscale>
<asrwt>0</asrwt>
<pdfrwt beam="1">  1        2 0.98814898E+00 0.14948506E+02</pdfrwt>
<pdfrwt beam="2">  1       -2 0.99673008E+00 0.14948506E+02</pdfrwt>
<totfact>-0.18512790E-13</totfact>
</mgrwt>
</event>
<event>
 4    1 -0.4996155E-019  0.1501684E+02  0.7818608E-02  0.1867555E+00
         -2   -1    0    0    0  501 -0.00000000000E+00  0.00000000000E+00  0.12009563474E+03  0.12009563476E+03  0.25500000000E-02 0.  1.
          2   -1    0    0  501    0  0.00000000000E+00 -0.00000000000E+00 -0.46942527370E+00  0.46943219967E+00  0.25500000000E-02 0. -1.
         31    1    1    2    0    0  0.88376266253E+00  0.12493978943E+00  0.62603256264E+02  0.63050957703E+02  0.74470750000E+01 0.  1.
        -31    1    1    2    0    0 -0.88376266253E+00 -0.12493978943E+00  0.57022953200E+02  0.57514109261E+02  0.74470750000E+01 0. -1.
<mgrwt>
<rscale>  0 0.15016837E+02</rscale>
<asrwt>0</asrwt>
<pdfrwt beam="2">  1        2 0.99701705E+00 0.15016837E+02</pdfrwt>
<pdfrwt beam="1">  1       -2 0.99691633E+00 0.15016837E+02</pdfrwt>
<totfact>-0.71526776E-14</totfact>
</mgrwt>
</event>
<event>
 4    1  0.4996155E-019  0.1494036E+02  0.7818608E-02  0.1869894E+00
          2   -1    0    0  501    0  0.00000000000E+00  0.00000000000E+00  0.12032722083E+03  0.12032722086E+03  0.25500000000E-02 0. -1.
         -2   -1    0    0    0  501 -0.00000000000E+00 -0.00000000000E+00 -0.46376174153E+00  0.46376875208E+00  0.25500000000E-02 0.  1.
         31    1    1    2    0    0  0.45937684849E+00  0.34285515449E+00  0.60957066926E+02  0.61412958820E+02  0.74470750000E+01 0. -1.
        -31    1    1    2    0    0 -0.45937684849E+00 -0.34285515449E+00  0.58906392167E+02  0.59378030793E+02  0.74470750000E+01 0. -1.
<mgrwt>
<rscale>  0 0.14940360E+02</rscale>
<asrwt>0</asrwt>
<pdfrwt beam="1">  1        2 0.99878442E+00 0.14940360E+02</pdfrwt>
<pdfrwt beam="2">  1       -2 0.98504196E+00 0.14940360E+02</pdfrwt>
<totfact> 0.17445162E-13</totfact>
</mgrwt>
</event>
<event>
 4    1  0.4996155E-019  0.1490568E+02  0.7818608E-02  0.1870960E+00
         -2   -1    0    0    0  501 -0.00000000000E+00  0.00000000000E+00  0.11812743445E+03  0.11812743448E+03  0.25500000000E-02 0.  1.
          2   -1    0    0  501    0  0.00000000000E+00 -0.00000000000E+00 -0.47020753886E+00  0.47021445331E+00  0.25500000000E-02 0. -1.
         31    1    1    2    0    0 -0.36787273502E-01  0.68727995401E-01  0.56580711431E+02  0.57068747217E+02  0.74470750000E+01 0. -1.
        -31    1    1    2    0    0  0.36787273502E-01 -0.68727995401E-01  0.61076515480E+02  0.61528901714E+02  0.74470750000E+01 0.  1.
<mgrwt>
<rscale>  0 0.14905680E+02</rscale>
<asrwt>0</asrwt>
<pdfrwt beam="2">  1        2 0.99860711E+00 0.14905680E+02</pdfrwt>
<pdfrwt beam="1">  1       -2 0.98064834E+00 0.14905680E+02</pdfrwt>
<totfact> 0.51739367E-13</totfact>
</mgrwt>
</event>
<event>
 4    1  0.4996155E-019  0.1493146E+02  0.7818608E-02  0.1870167E+00
         -2   -1    0    0    0  501 -0.00000000000E+00  0.00000000000E+00  0.11851289911E+03  0.11851289914E+03  0.25500000000E-02 0.  1.
          2   -1    0    0  501    0  0.00000000000E+00 -0.00000000000E+00 -0.47030105246E+00  0.47030796554E+00  0.25500000000E-02 0. -1.
         31    1    1    2    0    0  0.39158824861E+00  0.26973012959E+00  0.60840735282E+02  0.61296656446E+02  0.74470750000E+01 0.  1.
        -31    1    1    2    0    0 -0.39158824861E+00 -0.26973012959E+00  0.57201862776E+02  0.57686550658E+02  0.74470750000E+01 0. -1.
<mgrwt>
<rscale>  0 0.14931464E+02</rscale>
<asrwt>0</asrwt>
<pdfrwt beam="2">  1        2 0.99881781E+00 0.14931464E+02</pdfrwt>
<pdfrwt beam="1">  1       -2 0.98383640E+00 0.14931464E+02</pdfrwt>
<totfact> 0.23346482E-13</totfact>
</mgrwt>
</event>
<event>
 4    1  0.4996155E-019  0.1492031E+02  0.7818608E-02  0.1870510E+00
          2   -1    0    0  501    0  0.00000000000E+00  0.00000000000E+00  0.11964952623E+03  0.11964952626E+03  0.25500000000E-02 0. -1.
         -2   -1    0    0    0  501 -0.00000000000E+00 -0.00000000000E+00 -0.46513746896E+00  0.46514445878E+00  0.25500000000E-02 0.  1.
         31    1    1    2    0    0 -0.22192884974E+00 -0.33213496286E+00  0.61107023009E+02  0.61560431717E+02  0.74470750000E+01 0.  1.
        -31    1    1    2    0    0  0.22192884974E+00  0.33213496286E+00  0.58077365750E+02  0.58554238997E+02  0.74470750000E+01 0. -1.
<mgrwt>
<rscale>  0 0.14920308E+02</rscale>
<asrwt>0</asrwt>
<pdfrwt beam="1">  1        2 0.99319214E+00 0.14920308E+02</pdfrwt>
<pdfrwt beam="2">  1       -2 0.98793120E+00 0.14920308E+02</pdfrwt>
<totfact> 0.18315418E-13</totfact>
</mgrwt>
</event>
<event>
 4    1  0.4996155E-019  0.1491097E+02  0.7818608E-02  0.1870797E+00
         -2   -1    0    0    0  501 -0.00000000000E+00  0.00000000000E+00  0.11828095598E+03  0.11828095601E+03  0.25500000000E-02 0.  1.
          2   -1    0    0  501    0  0.00000000000E+00 -0.00000000000E+00 -0.46993082347E+00  0.46993774199E+00  0.25500000000E-02 0. -1.
         31    1    1    2    0    0  0.73797321233E-01  0.34609624057E+00  0.58994466718E+02  0.59463696976E+02  0.74470750000E+01 0.  1.
        -31    1    1    2    0    0 -0.73797321233E-01 -0.34609624057E+00  0.58816558439E+02  0.59287196774E+02  0.74470750000E+01 0. -1.
<mgrwt>
<rscale>  0 0.14910973E+02</rscale>
<asrwt>0</asrwt>
<pdfrwt beam="2">  1        2 0.99802691E+00 0.14910973E+02</pdfrwt>
<pdfrwt beam="1">  1       -2 0.98191548E+00 0.14910973E+02</pdfrwt>
<totfact> 0.54238507E-13</totfact>
</mgrwt>
</event>
<event>
 4    1 -0.4996155E-019  0.1497781E+02  0.7818608E-02  0.1868746E+00
          2   -1    0    0  501    0  0.00000000000E+00  0.00000000000E+00  0.11952048278E+03  0.11952048281E+03  0.25500000000E-02 0.  1.
         -2   -1    0    0    0  501 -0.00000000000E+00 -0.00000000000E+00 -0.46923574144E+00  0.46924267021E+00  0.25500000000E-02 0. -1.
         31    1    1    2    0    0 -0.65730428963E+00 -0.34730526679E+00  0.61676793078E+02  0.62129207304E+02  0.74470750000E+01 0.  1.
        -31    1    1    2    0    0  0.65730428963E+00  0.34730526679E+00  0.57374453961E+02  0.57860518173E+02  0.74470750000E+01 0. -1.
<mgrwt>
<rscale>  0 0.14977810E+02</rscale>
<asrwt>0</asrwt>
<pdfrwt beam="1">  1        2 0.99215900E+00 0.14977810E+02</pdfrwt>
<pdfrwt beam="2">  1       -2 0.99659741E+00 0.14977810E+02</pdfrwt>
<totfact>-0.12944092E-13</totfact>
</mgrwt>
</event>
<event>
 4    1 -0.4996155E-019  0.1492544E+02  0.7818608E-02  0.1870352E+00
         -2   -1    0    0    0  501 -0.00000000000E+00  0.00000000000E+00  0.12023195212E+03  0.12023195215E+03  0.25500000000E-02 0.  1.
          2   -1    0    0  501    0  0.00000000000E+00 -0.00000000000E+00 -0.46320266892E+00  0.46320968793E+00  0.25500000000E-02 0. -1.
         31    1    1    2    0    0 -0.29480627316E+00  0.30900360164E+00  0.58060572176E+02  0.58537777216E+02  0.74470750000E+01 0. -1.
        -31    1    1    2    0    0  0.29480627316E+00 -0.30900360164E+00  0.61708177274E+02  0.62157384618E+02  0.74470750000E+01 0. -1.
<mgrwt>
<rscale>  0 0.14925440E+02</rscale>
<asrwt>0</asrwt>
<pdfrwt beam="2">  1        2 0.98385606E+00 0.14925440E+02</pdfrwt>
<pdfrwt beam="1">  1       -2 0.99799204E+00 0.14925440E+02</pdfrwt>
<totfact>-0.24993895E-13</totfact>
</mgrwt>
</event>
<event>
 4    1  0.4996155E-019  0.1490206E+02  0.7818608E-02  0.1871072E+00
          2   -1    0    0  501    0  0.00000000000E+00  0.00000000000E+00  0.12003543379E+03  0.12003543382E+03  0.25500000000E-02 0.  1.
         -2   -1    0    0    0  501 -0.00000000000E+00 -0.00000000000E+00 -0.46250871129E+00  0.46251574083E+00  0.25500000000E-02 0. -1.
         31    1    1    2    0    0 -0.23164387446E+00  0.56375908383E-01  0.60156635254E+02  0.60616305795E+02  0.74470750000E+01 0.  1.
        -31    1    1    2    0    0  0.23164387446E+00 -0.56375908383E-01  0.59416289827E+02  0.59881643765E+02  0.74470750000E+01 0.  1.
<mgrwt>
<rscale>  0 0.14902061E+02</rscale>
<asrwt>0</asrwt>
<pdfrwt beam="1">  1        2 0.99636136E+00 0.14902061E+02</pdfrwt>
<pdfrwt beam="2">  1       -2 0.98238158E+00 0.14902061E+02</pdfrwt>
<totfact> 0.75946747E-13</totfact>
</mgrwt>
</event>
<event>
 4    1 -0.4996155E-019  0.1499152E+02  0.7818608E-02  0.1868327E+00
          2   -1    0    0  501    0  0.00000000000E+00  0.00000000000E+00  0.11964820828E+03  0.11964820830E+03  0.25500000000E-02 0. -1.
         -2   -1    0    0    0  501 -0.00000000000E+00 -0.00000000000E+00 -0.46959359341E+00  0.46960051690E+00  0.25500000000E-02 0.  1.
         31    1    1    2    0    0  0.24431310265E+00  0.58221974041E+00  0.64184076174E+02  0.64617747013E+02  0.74470750000E+01 0. -1.
        -31    1    1    2    0    0 -0.24431310265E+00 -0.58221974041E+00  0.54994538508E+02  0.55500061806E+02  0.74470750000E+01 0.  1.
<mgrwt>
<rscale>  0 0.14991524E+02</rscale>
<asrwt>0</asrwt>
<pdfrwt beam="1">  1        2 0.99321809E+00 0.14991524E+02</pdfrwt>
<pdfrwt beam="2">  1       -2 0.99735862E+00 0.14991524E+02</pdfrwt>
<totfact>-0.10186337E-13</totfact>
</mgrwt>
</event>
<event>
 4    1 -0.4996155E-019  0.1495397E+02  0.7818608E-02  0.1869476E+00
          2   -1    0    0  501    0  0.00000000000E+00  0.00000000000E+00  0.11913693587E+03  0.11913693589E+03  0.25500000000E-02 0.  1.
         -2   -1    0    0    0  501 -0.00000000000E+00 -0.00000000000E+00 -0.46924878480E+00  0.46925571338E+00  0.25500000000E-02 0. -1.
         31    1    1    2    0    0  0.42348530750E+00 -0.48857605785E+00  0.57988181403E+02  0.58467992567E+02  0.74470750000E+01 0. -1.
        -31    1    1    2    0    0 -0.42348530750E+00  0.48857605785E+00  0.60679505680E+02  0.61138199041E+02  0.74470750000E+01 0.  1.
<mgrwt>
<rscale>  0 0.14953966E+02</rscale>
<asrwt>0</asrwt>
<pdfrwt beam="1">  1        2 0.98898768E+00 0.14953966E+02</pdfrwt>
<pdfrwt beam="2">  1       -2 0.99661245E+00 0.14953966E+02</pdfrwt>
<totfact>-0.17110209E-13</totfact>
</mgrwt>
</event>
<event>
 4    1 -0.4996155E-019  0.1501436E+02  0.7818608E-02  0.1867630E+00
         -2   -1    0    0    0  501 -0.00000000000E+00  0.00000000000E+00  0.12007899110E+03  0.12007899113E+03  0.25500000000E-02 0.  1.
          2   -1    0    0  501    0  0.00000000000E+00 -0.00000000000E+00 -0.46933572552E+00  0.46934265281E+00  0.25500000000E-02 0. -1.
         31    1    1    2    0    0  0.20173673591E+00  0.80944745292E+00  0.56187819566E+02  0.56685323467E+02  0.74470750000E+01 0. -1.
        -31    1    1    2    0    0 -0.20173673591E+00 -0.80944745292E+00  0.63421835813E+02  0.63863010317E+02  0.74470750000E+01 0.  1.
<mgrwt>
<rscale>  0 0.15014364E+02</rscale>
<asrwt>0</asrwt>
<pdfrwt beam="2">  1        2 0.99682706E+00 0.15014364E+02</pdfrwt>
<pdfrwt beam="1">  1       -2 0.99677797E+00 0.15014364E+02</pdfrwt>
<totfact>-0.76588395E-14</totfact>
</mgrwt>
</event>
<event>
 4    1 -0.4996155E-019  0.1491587E+02  0.7818608E-02  0.1870647E+00
         -2   -1    0    0    0  501 -0.00000000000E+00  0.00000000000E+00  0.11962899557E+03  0.11962899559E+03  0.25500000000E-02 0. -1.
          2   -1    0    0  501    0  0.00000000000E+00 -0.00000000000E+00 -0.46494068491E+00  0.46494767768E+00  0.25500000000E-02 0.  1.
         31    1    1    2    0    0 -0.32497776014E+00  0.82402663212E-01  0.61373026975E+02  0.61824103445E+02  0.74470750000E+01 0.  1.
        -31    1    1    2    0    0  0.32497776014E+00 -0.82402663212E-01  0.57791027906E+02  0.58269839825E+02  0.74470750000E+01 0.  1.
<mgrwt>
<rscale>  0 0.14915872E+02</rscale>
<asrwt>0</asrwt>
<pdfrwt beam="2">  1        2 0.98751420E+00 0.14915872E+02</pdfrwt>
<pdfrwt beam="1">  1       -2 0.99302075E+00 0.14915872E+02</pdfrwt>
<totfact>-0.20729014E-13</totfact>
</mgrwt>
</event>
<event>
 4    1  0.4996155E-019  0.1491055E+02  0.7818608E-02  0.1870810E+00
          2   -1    0    0  501    0  0.00000000000E+00  0.00000000000E+00  0.11996339252E+03  0.11996339254E+03  0.25500000000E-02 0. -1.
         -2   -1    0    0    0  501 -0.00000000000E+00 -0.00000000000E+00 -0.46331401501E+00  0.46332103234E+00  0.25500000000E-02 0.  1.
         31    1    1    2    0    0 -0.18105054570E-01  0.31013502696E+00  0.58455068133E+02  0.58928349951E+02  0.74470750000E+01 0.  1.
        -31    1    1    2    0    0  0.18105054570E-01 -0.31013502696E+00  0.61045010368E+02  0.61498363624E+02  0.74470750000E+01 0.  1.
<mgrwt>
<rscale>  0 0.14910553E+02</rscale>
<asrwt>0</asrwt>
<pdfrwt beam="1">  1        2 0.99577233E+00 0.14910553E+02</pdfrwt>
<pdfrwt beam="2">  1       -2 0.98408319E+00 0.14910553E+02</pdfrwt>
<totfact> 0.56466774E-13</totfact>
</mgrwt>
</event>
<event>
 4    1 -0.4996155E-019  0.1501524E+02  0.7818608E-02  0.1867604E+00
         -2   -1    0    0    0  501 -0.00000000000E+00  0.00000000000E+00  0.12033153802E+03  0.12033153805E+03  0.25500000000E-02 0. -1.
          2   -1    0    0  501    0  0.00000000000E+00 -0.00000000000E+00 -0.46840535758E+00  0.46841229864E+00  0.25500000000E-02 0.  1.
         31    1    1    2    0    0  0.90360022845E+00 -0.15482374597E+00  0.61982184091E+02  0.62434690153E+02  0.74470750000E+01 0.  1.
        -31    1    1    2    0    0 -0.90360022845E+00  0.15482374597E+00  0.57880948572E+02  0.58365260193E+02  0.74470750000E+01 0.  1.
<mgrwt>
<rscale>  0 0.15015240E+02</rscale>
<asrwt>0</asrwt>
<pdfrwt beam="2">  1        2 0.99486686E+00 0.15015240E+02</pdfrwt>
<pdfrwt beam="1">  1       -2 0.99885851E+00 0.15015240E+02</pdfrwt>
<totfact>-0.44366502E-14</totfact>
</mgrwt>
</event>
<event>
 4    1  0.4996155E-019  0.1494478E+02  0.7818608E-02  0.1869758E+00
          2   -1    0    0  501    0  0.00000000000E+00  0.00000000000E+00  0.12034035037E+03  0.12034035040E+03  0.25500000000E-02 0.  1.
         -2   -1    0    0    0  501 -0.00000000000E+00 -0.00000000000E+00 -0.46398578639E+00  0.46399279356E+00  0.25500000000E-02 0. -1.
         31    1    1    2    0    0  0.28514900424E+00  0.48125885394E+00  0.61995729860E+02  0.62443913770E+02  0.74470750000E+01 0. -1.
        -31    1    1    2    0    0 -0.28514900424E+00 -0.48125885394E+00  0.57880634723E+02  0.58360429419E+02  0.74470750000E+01 0.  1.
<mgrwt>
<rscale>  0 0.14944783E+02</rscale>
<asrwt>0</asrwt>
<pdfrwt beam="1">  1        2 0.99889483E+00 0.14944783E+02</pdfrwt>
<pdfrwt beam="2">  1       -2 0.98551641E+00 0.14944783E+02</pdfrwt>
<totfact> 0.13955959E-13</totfact>
</mgrwt>
</event>
<event>
 4    1  0.4996155E-019  0.1490550E+02  0.7818608E-02  0.1870966E+00
          2   -1    0    0  501    0  0.00000000000E+00  0.00000000000E+00  0.12012239265E+03  0.12012239268E+03  0.25500000000E-02 0.  1.
         -2   -1    0    0    0  501 -0.00000000000E+00 -0.00000000000E+00 -0.46238700072E+00  0.46239403212E+00  0.25500000000E-02 0. -1.
         31    1    1    2    0    0 -0.16682703320E+00  0.17326358834E+00  0.58508567705E+02  0.58981092500E+02  0.74470750000E+01 0. -1.
        -31    1    1    2    0    0  0.16682703320E+00 -0.17326358834E+00  0.61151437946E+02  0.61603694211E+02  0.74470750000E+01 0.  1.
<mgrwt>
<rscale>  0 0.14905497E+02</rscale>
<asrwt>0</asrwt>
<pdfrwt beam="1">  1        2 0.99707939E+00 0.14905497E+02</pdfrwt>
<pdfrwt beam="2">  1       -2 0.98212678E+00 0.14905497E+02</pdfrwt>
<totfact> 0.69363946E-13</totfact>
</mgrwt>
</event>
<event>
 4    1  0.4996155E-019  0.1492401E+02  0.7818608E-02  0.1870396E+00
         -2   -1    0    0    0  501 -0.00000000000E+00  0.00000000000E+00  0.11905304532E+03  0.11905304535E+03  0.25500000000E-02 0.  1.
          2   -1    0    0  501    0  0.00000000000E+00 -0.00000000000E+00 -0.46769991328E+00  0.46770686480E+00  0.25500000000E-02 0. -1.
         31    1    1    2    0    0  0.34562101171E+00  0.28085688089E+00  0.60539949781E+02  0.60997891603E+02  0.74470750000E+01 0.  1.
        -31    1    1    2    0    0 -0.34562101171E+00 -0.28085688089E+00  0.58045395628E+02  0.58522860611E+02  0.74470750000E+01 0.  1.
<mgrwt>
<rscale>  0 0.14924010E+02</rscale>
<asrwt>0</asrwt>
<pdfrwt beam="2">  1        2 0.99333306E+00 0.14924010E+02</pdfrwt>
<pdfrwt beam="1">  1       -2 0.98828120E+00 0.14924010E+02</pdfrwt>
<totfact> 0.14703816E-13</totfact>
</mgrwt>
</event>
<event>
 4    1 -0.4996155E-019  0.1498928E+02  0.7818608E-02  0.1868396E+00
         -2   -1    0    0    0  501 -0.00000000000E+00  0.00000000000E+00  0.11983322001E+03  0.11983322004E+03  0.25500000000E-02 0. -1.
          2   -1    0    0  501    0  0.00000000000E+00 -0.00000000000E+00 -0.46872832441E+00  0.46873526068E+00  0.25500000000E-02 0.  1.
         31    1    1    2    0    0  0.80911602542E+00 -0.66552122095E-02  0.57782908447E+02  0.58266441007E+02  0.74470750000E+01 0.  1.
        -31    1    1    2    0    0 -0.80911602542E+00  0.66552122095E-02  0.61581583242E+02  0.62035514294E+02  0.74470750000E+01 0. -1.
<mgrwt>
<rscale>  0 0.14989282E+02</rscale>
<asrwt>0</asrwt>
<pdfrwt beam="2">  1        2 0.99553409E+00 0.14989282E+02</pdfrwt>
<pdfrwt beam="1">  1       -2 0.99474074E+00 0.14989282E+02</pdfrwt>
<totfact>-0.11261524E-13</totfact>
</mgrwt>
</event>
<event>
 4    1  0.4996155E-019  0.1491253E+02  0.7818608E-02  0.1870750E+00
          2   -1    0    0  501    0  0.00000000000E+00  0.00000000000E+00  0.12027008238E+03  0.12027008240E+03  0.25500000000E-02 0.  1.
         -2   -1    0    0    0  501 -0.00000000000E+00 -0.00000000000E+00 -0.46225501865E+00  0.46226205205E+00  0.25500000000E-02 0. -1.
         31    1    1    2    0    0 -0.17482669638E+00  0.28878383562E+00  0.58676386882E+02  0.59148045311E+02  0.74470750000E+01 0. -1.
        -31    1    1    2    0    0  0.17482669638E+00 -0.28878383562E+00  0.61131440476E+02  0.61584299145E+02  0.74470750000E+01 0. -1.
<mgrwt>
<rscale>  0 0.14912528E+02</rscale>
<asrwt>0</asrwt>
<pdfrwt beam="1">  1        2 0.99829950E+00 0.14912528E+02</pdfrwt>
<pdfrwt beam="2">  1       -2 0.98185215E+00 0.14912528E+02</pdfrwt>
<totfact> 0.48781933E-13</totfact>
</mgrwt>
</event>
<event>
 4    1  0.4996155E-019  0.1492848E+02  0.7818608E-02  0.1870259E+00
          2   -1    0    0  501    0  0.00000000000E+00  0.00000000000E+00  0.12028488112E+03  0.12028488115E+03  0.25500000000E-02 0.  1.
         -2   -1    0    0    0  501 -0.00000000000E+00 -0.00000000000E+00 -0.46318758189E+00  0.46319460113E+00  0.25500000000E-02 0. -1.
         31    1    1    2    0    0  0.40487876096E+00  0.28108543917E+00  0.60834018630E+02  0.61290127138E+02  0.74470750000E+01 0. -1.
        -31    1    1    2    0    0 -0.40487876096E+00 -0.28108543917E+00  0.58987674910E+02  0.59457948612E+02  0.74470750000E+01 0.  1.
<mgrwt>
<rscale>  0 0.14928481E+02</rscale>
<asrwt>0</asrwt>
<pdfrwt beam="1">  1        2 0.99842957E+00 0.14928481E+02</pdfrwt>
<pdfrwt beam="2">  1       -2 0.98382580E+00 0.14928481E+02</pdfrwt>
<totfact> 0.29782897E-13</totfact>
</mgrwt>
</event>
<event>
 4    1 -0.4996155E-019  0.1489783E+02  0.7818608E-02  0.1871202E+00
          2   -1    0    0  501    0  0.00000000000E+00  0.00000000000E+00  0.11821570933E+03  0.11821570936E+03  0.25500000000E-02 0.  1.
         -2   -1    0    0    0  501 -0.00000000000E+00 -0.00000000000E+00 -0.46936179084E+00  0.46936871775E+00  0.25500000000E-02 0. -1.
         31    1    1    2    0    0 -0.14530863505E+00  0.74421109617E-01  0.58652027229E+02  0.59123141638E+02  0.74470750000E+01 0.  1.
        -31    1    1    2    0    0  0.14530863505E+00 -0.74421109617E-01  0.59094320314E+02  0.59561936440E+02  0.74470750000E+01 0. -1.
<mgrwt>
<rscale>  0 0.14897832E+02</rscale>
<asrwt>0</asrwt>
<pdfrwt beam="1">  1        2 0.98137127E+00 0.14897832E+02</pdfrwt>
<pdfrwt beam="2">  1       -2 0.99682103E+00 0.14897832E+02</pdfrwt>
<totfact>-0.52961666E-13</totfact>
</mgrwt>
</event>
<event>
 4    1  0.4996155E-019  0.1491245E+02  0.7818608E-02  0.1870752E+00
          2   -1    0    0  501    0  0.00000000000E+00  0.00000000000E+00  0.11992204160E+03  0.11992204162E+03  0.25500000000E-02 0.  1.
         -2   -1    0    0    0  501 -0.00000000000E+00 -0.00000000000E+00 -0.46359145733E+00  0.46359847046E+00  0.25500000000E-02 0. -1.
         31    1    1    2    0    0 -0.11839842921E+00  0.25434065157E+00  0.61667114475E+02  0.62115784154E+02  0.74470750000E+01 0.  1.
        -31    1    1    2    0    0  0.11839842921E+00 -0.25434065157E+00  0.57791335663E+02  0.58269855939E+02  0.74470750000E+01 0. -1.
<mgrwt>
<rscale>  0 0.14912446E+02</rscale>
<asrwt>0</asrwt>
<pdfrwt beam="1">  1        2 0.99543270E+00 0.14912446E+02</pdfrwt>
<pdfrwt beam="2">  1       -2 0.98466890E+00 0.14912446E+02</pdfrwt>
<totfact> 0.50638260E-13</totfact>
</mgrwt>
</event>
<event>
 4    1 -0.4996155E-019  0.1494537E+02  0.7818608E-02  0.1869740E+00
         -2   -1    0    0    0  501 -0.00000000000E+00  0.00000000000E+00  0.11987103427E+03  0.11987103430E+03  0.25500000000E-02 0. -1.
          2   -1    0    0  501    0  0.00000000000E+00 -0.00000000000E+00 -0.46583915382E+00  0.46584613310E+00  0.25500000000E-02 0.  1.
         31    1    1    2    0    0  0.13522883637E+00  0.32297198104E+00  0.55600778252E+02  0.56098378462E+02  0.74470750000E+01 0.  1.
        -31    1    1    2    0    0 -0.13522883637E+00 -0.32297198104E+00  0.63804416865E+02  0.64238501970E+02  0.74470750000E+01 0. -1.
<mgrwt>
<rscale>  0 0.14945373E+02</rscale>
<asrwt>0</asrwt>
<pdfrwt beam="2">  1        2 0.98942283E+00 0.14945373E+02</pdfrwt>
<pdfrwt beam="1">  1       -2 0.99502952E+00 0.14945373E+02</pdfrwt>
<totfact>-0.18903205E-13</totfact>
</mgrwt>
</event>
<event>
 4    1 -0.4996155E-019  0.1496586E+02  0.7818608E-02  0.1869112E+00
         -2   -1    0    0    0  501 -0.00000000000E+00  0.00000000000E+00  0.12036728838E+03  0.12036728840E+03  0.25500000000E-02 0. -1.
          2   -1    0    0  501    0  0.00000000000E+00 -0.00000000000E+00 -0.46519132944E+00  0.46519831845E+00  0.25500000000E-02 0.  1.
         31    1    1    2    0    0 -0.39546609299E+00 -0.22582594397E+00  0.55327558601E+02  0.55828353527E+02  0.74470750000E+01 0.  1.
        -31    1    1    2    0    0  0.39546609299E+00  0.22582594397E+00  0.64574538446E+02  0.65004133195E+02  0.74470750000E+01 0. -1.
<mgrwt>
<rscale>  0 0.14965860E+02</rscale>
<asrwt>0</asrwt>
<pdfrwt beam="2">  1        2 0.98806797E+00 0.14965860E+02</pdfrwt>
<pdfrwt beam="1">  1       -2 0.99912754E+00 0.14965860E+02</pdfrwt>
<totfact>-0.63426163E-14</totfact>
</mgrwt>
</event>
<event>
 4    1  0.4996155E-019  0.1492917E+02  0.7818608E-02  0.1870238E+00
          2   -1    0    0  501    0  0.00000000000E+00  0.00000000000E+00  0.12034862355E+03  0.12034862358E+03  0.25500000000E-02 0. -1.
         -2   -1    0    0    0  501 -0.00000000000E+00 -0.00000000000E+00 -0.46298472120E+00  0.46299174351E+00  0.25500000000E-02 0.  1.
         31    1    1    2    0    0  0.27676191618E+00 -0.93729206421E-01  0.63334760874E+02  0.63771751139E+02  0.74470750000E+01 0.  1.
        -31    1    1    2    0    0 -0.27676191618E+00  0.93729206421E-01  0.56550877954E+02  0.57039864180E+02  0.74470750000E+01 0.  1.
<mgrwt>
<rscale>  0 0.14929166E+02</rscale>
<asrwt>0</asrwt>
<pdfrwt beam="1">  1        2 0.99895496E+00 0.14929166E+02</pdfrwt>
<pdfrwt beam="2">  1       -2 0.98339857E+00 0.14929166E+02</pdfrwt>
<totfact> 0.23230229E-13</totfact>
</mgrwt>
</event>
<event>
 4    1  0.4996155E-019  0.1490586E+02  0.7818608E-02  0.1870955E+00
         -2   -1    0    0    0  501 -0.00000000000E+00  0.00000000000E+00  0.11862277589E+03  0.11862277592E+03  0.25500000000E-02 0.  1.
          2   -1    0    0  501    0  0.00000000000E+00 -0.00000000000E+00 -0.46825547854E+00  0.46826242182E+00  0.25500000000E-02 0. -1.
         31    1    1    2    0    0 -0.12472092299E+00  0.72513031643E-01  0.57017874701E+02  0.57502328430E+02  0.74470750000E+01 0. -1.
        -31    1    1    2    0    0  0.12472092299E+00 -0.72513031643E-01  0.61136645714E+02  0.61588709912E+02  0.74470750000E+01 0.  1.
<mgrwt>
<rscale>  0 0.14905862E+02</rscale>
<asrwt>0</asrwt>
<pdfrwt beam="2">  1        2 0.99449424E+00 0.14905862E+02</pdfrwt>
<pdfrwt beam="1">  1       -2 0.98472803E+00 0.14905862E+02</pdfrwt>
<totfact> 0.54881949E-13</totfact>
</mgrwt>
</event>
<event>
 4    1 -0.4996155E-019  0.1495130E+02  0.7818608E-02  0.1869558E+00
          2   -1    0    0  501    0  0.00000000000E+00  0.00000000000E+00  0.11903736135E+03  0.11903736138E+03  0.25500000000E-02 0. -1.
         -2   -1    0    0    0  501 -0.00000000000E+00 -0.00000000000E+00 -0.46947361947E+00  0.46948054473E+00  0.25500000000E-02 0.  1.
         31    1    1    2    0    0  0.55119336004E+00  0.32064782160E+00  0.58160323145E+02  0.58638628425E+02  0.74470750000E+01 0. -1.
        -31    1    1    2    0    0 -0.55119336004E+00 -0.32064782160E+00  0.60407564586E+02  0.60868213498E+02  0.74470750000E+01 0.  1.
<mgrwt>
<rscale>  0 0.14951296E+02</rscale>
<asrwt>0</asrwt>
<pdfrwt beam="1">  1        2 0.98816618E+00 0.14951296E+02</pdfrwt>
<pdfrwt beam="2">  1       -2 0.99708481E+00 0.14951296E+02</pdfrwt>
<totfact>-0.17180578E-13</totfact>
</mgrwt>
</event>
<event>
 4    1 -0.4996155E-019  0.1498122E+02  0.7818608E-02  0.1868642E+00
         -2   -1    0    0    0  501 -0.00000000000E+00  0.00000000000E+00  0.11988703067E+03  0.11988703070E+03  0.25500000000E-02 0. -1.
          2   -1    0    0  501    0  0.00000000000E+00 -0.00000000000E+00 -0.46801417756E+00  0.46802112441E+00  0.25500000000E-02 0.  1.
         31    1    1    2    0    0  0.62517637022E+00  0.35478257569E+00  0.56772991161E+02  0.57263846950E+02  0.74470750000E+01 0.  1.
        -31    1    1    2    0    0 -0.62517637022E+00 -0.35478257569E+00  0.62646025331E+02  0.63091204870E+02  0.74470750000E+01 0. -1.
<mgrwt>
<rscale>  0 0.14981222E+02</rscale>
<asrwt>0</asrwt>
<pdfrwt beam="2">  1        2 0.99402497E+00 0.14981222E+02</pdfrwt>
<pdfrwt beam="1">  1       -2 0.99517978E+00 0.14981222E+02</pdfrwt>
<totfact>-0.12966315E-13</totfact>
</mgrwt>
</event>
<event>
 4    1  0.4996155E-019  0.1491308E+02  0.7818608E-02  0.1870732E+00
         -2   -1    0    0    0  501 -0.00000000000E+00  0.00000000000E+00  0.11811806716E+03  0.11811806719E+03  0.25500000000E-02 0. -1.
          2   -1    0    0  501    0  0.00000000000E+00 -0.00000000000E+00 -0.47071202685E+00  0.47071893389E+00  0.25500000000E-02 0.  1.
         31    1    1    2    0    0 -0.18435426653E+00 -0.30155320195E+00  0.57812832122E+02  0.58291572332E+02  0.74470750000E+01 0.  1.
        -31    1    1    2    0    0  0.18435426653E+00  0.30155320195E+00  0.59834523013E+02  0.60297213792E+02  0.74470750000E+01 0.  1.
<mgrwt>
<rscale>  0 0.14913082E+02</rscale>
<asrwt>0</asrwt>
<pdfrwt beam="2">  1        2 0.99967394E+00 0.14913082E+02</pdfrwt>
<pdfrwt beam="1">  1       -2 0.98057506E+00 0.14913082E+02</pdfrwt>
<totfact> 0.13807337E-13</totfact>
</mgrwt>
</event>
<event>
 4    1 -0.4996155E-019  0.1489685E+02  0.7818608E-02  0.1871233E+00
          2   -1    0    0  501    0  0.00000000000E+00  0.00000000000E+00  0.11831654043E+03  0.11831654045E+03  0.25500000000E-02 0. -1.
         -2   -1    0    0    0  501 -0.00000000000E+00 -0.00000000000E+00 -0.46889989117E+00  0.46890682490E+00  0.25500000000E-02 0.  1.
         31    1    1    2    0    0  0.13178204323E+00  0.40076069055E-01  0.59191594992E+02  0.59658384292E+02  0.74470750000E+01 0. -1.
        -31    1    1    2    0    0 -0.13178204323E+00 -0.40076069055E-01  0.58656045542E+02  0.59127062986E+02  0.74470750000E+01 0.  1.
<mgrwt>
<rscale>  0 0.14896849E+02</rscale>
<asrwt>0</asrwt>
<pdfrwt beam="1">  1        2 0.98220119E+00 0.14896849E+02</pdfrwt>
<pdfrwt beam="2">  1       -2 0.99584730E+00 0.14896849E+02</pdfrwt>
<totfact>-0.52817736E-13</totfact>
</mgrwt>
</event>
<event>
 4    1 -0.4996155E-019  0.1500009E+02  0.7818608E-02  0.1868066E+00
         -2   -1    0    0    0  501 -0.00000000000E+00  0.00000000000E+00  0.12021631709E+03  0.12021631712E+03  0.25500000000E-02 0.  1.
          2   -1    0    0  501    0  0.00000000000E+00 -0.00000000000E+00 -0.46790894317E+00  0.46791589159E+00  0.25500000000E-02 0. -1.
         31    1    1    2    0    0  0.57220764686E+00  0.64661961748E+00  0.61604397474E+02  0.62058893421E+02  0.74470750000E+01 0.  1.
        -31    1    1    2    0    0 -0.57220764686E+00 -0.64661961748E+00  0.58144010674E+02  0.58625339588E+02  0.74470750000E+01 0.  1.
<mgrwt>
<rscale>  0 0.15000095E+02</rscale>
<asrwt>0</asrwt>
<pdfrwt beam="2">  1        2 0.99381292E+00 0.15000095E+02</pdfrwt>
<pdfrwt beam="1">  1       -2 0.99790168E+00 0.15000095E+02</pdfrwt>
<totfact>-0.81897482E-14</totfact>
</mgrwt>
</event>
<event>
 4    1 -0.4996155E-019  0.1499612E+02  0.7818608E-02  0.1868187E+00
         -2   -1    0    0    0  501 -0.00000000000E+00  0.00000000000E+00  0.12010386365E+03  0.12010386368E+03  0.25500000000E-02 0. -1.
          2   -1    0    0  501    0  0.00000000000E+00 -0.00000000000E+00 -0.46809890563E+00  0.46810585123E+00  0.25500000000E-02 0.  1.
         31    1    1    2    0    0 -0.15996140304E+00  0.77585572098E+00  0.56869835335E+02  0.57360828418E+02  0.74470750000E+01 0.  1.
        -31    1    1    2    0    0  0.15996140304E+00 -0.77585572098E+00  0.62765929412E+02  0.63211141113E+02  0.74470750000E+01 0.  1.
<mgrwt>
<rscale>  0 0.14996120E+02</rscale>
<asrwt>0</asrwt>
<pdfrwt beam="2">  1        2 0.99421121E+00 0.14996120E+02</pdfrwt>
<pdfrwt beam="1">  1       -2 0.99697340E+00 0.14996120E+02</pdfrwt>
<totfact>-0.10342683E-13</totfact>
</mgrwt>
</event>
<event>
 4    1  0.4996155E-019  0.1497623E+02  0.7818608E-02  0.1868795E+00
         -2   -1    0    0    0  501 -0.00000000000E+00  0.00000000000E+00  0.11916795876E+03  0.11916795879E+03  0.25500000000E-02 0.  1.
          2   -1    0    0  501    0  0.00000000000E+00 -0.00000000000E+00 -0.47052445128E+00  0.47053136107E+00  0.25500000000E-02 0. -1.
         31    1    1    2    0    0 -0.12129380247E+00  0.76986863807E+00  0.59942101842E+02  0.60407962300E+02  0.74470750000E+01 0.  1.
        -31    1    1    2    0    0  0.12129380247E+00 -0.76986863807E+00  0.58755332470E+02  0.59230527852E+02  0.74470750000E+01 0.  1.
<mgrwt>
<rscale>  0 0.14976228E+02</rscale>
<asrwt>0</asrwt>
<pdfrwt beam="2">  1        2 0.99931210E+00 0.14976228E+02</pdfrwt>
<pdfrwt beam="1">  1       -2 0.98925474E+00 0.14976228E+02</pdfrwt>
<totfact> 0.11969942E-14</totfact>
</mgrwt>
</event>
<event>
 4    1  0.4996155E-019  0.1491912E+02  0.7818608E-02  0.1870547E+00
          2   -1    0    0  501    0  0.00000000000E+00  0.00000000000E+00  0.11984391570E+03  0.11984391573E+03  0.25500000000E-02 0. -1.
         -2   -1    0    0    0  501 -0.00000000000E+00 -0.00000000000E+00 -0.46430877014E+00  0.46431577244E+00  0.25500000000E-02 0.  1.
         31    1    1    2    0    0 -0.35029719313E+00  0.25172920970E+00  0.59677889377E+02  0.60142293623E+02  0.74470750000E+01 0.  1.
        -31    1    1    2    0    0  0.35029719313E+00 -0.25172920970E+00  0.59701717554E+02  0.60165937877E+02  0.74470750000E+01 0.  1.
<mgrwt>
<rscale>  0 0.14919116E+02</rscale>
<asrwt>0</asrwt>
<pdfrwt beam="1">  1        2 0.99479263E+00 0.14919116E+02</pdfrwt>
<pdfrwt beam="2">  1       -2 0.98618409E+00 0.14919116E+02</pdfrwt>
<totfact> 0.34198105E-13</totfact>
</mgrwt>
</event>
<event>
 4    1  0.4996155E-019  0.1493389E+02  0.7818608E-02  0.1870092E+00
         -2   -1    0    0    0  501 -0.00000000000E+00  0.00000000000E+00  0.11886968873E+03  0.11886968876E+03  0.25500000000E-02 0. -1.
          2   -1    0    0  501    0  0.00000000000E+00 -0.00000000000E+00 -0.46904207222E+00  0.46904900385E+00  0.25500000000E-02 0.  1.
         31    1    1    2    0    0 -0.53169019785E+00 -0.11689855038E+00  0.59169818695E+02  0.59639104036E+02  0.74470750000E+01 0.  1.
        -31    1    1    2    0    0  0.53169019785E+00  0.11689855038E+00  0.59230827964E+02  0.59699633727E+02  0.74470750000E+01 0.  1.
<mgrwt>
<rscale>  0 0.14933894E+02</rscale>
<asrwt>0</asrwt>
<pdfrwt beam="2">  1        2 0.99616637E+00 0.14933894E+02</pdfrwt>
<pdfrwt beam="1">  1       -2 0.98677618E+00 0.14933894E+02</pdfrwt>
<totfact> 0.23222533E-13</totfact>
</mgrwt>
</event>
<event>
 4    1 -0.4996155E-019  0.1494419E+02  0.7818608E-02  0.1869776E+00
         -2   -1    0    0    0  501 -0.00000000000E+00  0.00000000000E+00  0.12043192387E+03  0.12043192389E+03  0.25500000000E-02 0.  1.
          2   -1    0    0  501    0  0.00000000000E+00 -0.00000000000E+00 -0.46359620866E+00  0.46360322171E+00  0.25500000000E-02 0. -1.
         31    1    1    2    0    0 -0.22396444136E-01 -0.38117837764E+00  0.56125708299E+02  0.56618900172E+02  0.74470750000E+01 0. -1.
        -31    1    1    2    0    0  0.22396444136E-01  0.38117837764E+00  0.63842619360E+02  0.64276626944E+02  0.74470750000E+01 0.  1.
<mgrwt>
<rscale>  0 0.14944191E+02</rscale>
<asrwt>0</asrwt>
<pdfrwt beam="2">  1        2 0.98469500E+00 0.14944191E+02</pdfrwt>
<pdfrwt beam="1">  1       -2 0.99964880E+00 0.14944191E+02</pdfrwt>
<totfact>-0.43818775E-14</totfact>
</mgrwt>
</event>
<event>
 4    1  0.4996155E-019  0.1489912E+02  0.7818608E-02  0.1871162E+00
         -2   -1    0    0    0  501 -0.00000000000E+00  0.00000000000E+00  0.11850420356E+03  0.11850420359E+03  0.25500000000E-02 0. -1.
          2   -1    0    0  501    0  0.00000000000E+00 -0.00000000000E+00 -0.46830040555E+00  0.46830734816E+00  0.25500000000E-02 0.  1.
         31    1    1    2    0    0 -0.74440953931E-01  0.14447834694E+00  0.59841616669E+02  0.60303436279E+02  0.74470750000E+01 0. -1.
        -31    1    1    2    0    0  0.74440953931E-01 -0.14447834694E+00  0.58194286487E+02  0.58669074658E+02  0.74470750000E+01 0. -1.
<mgrwt>
<rscale>  0 0.14899125E+02</rscale>
<asrwt>0</asrwt>
<pdfrwt beam="2">  1        2 0.99458536E+00 0.14899125E+02</pdfrwt>
<pdfrwt beam="1">  1       -2 0.98374796E+00 0.14899125E+02</pdfrwt>
<totfact> 0.69855321E-13</totfact>
</mgrwt>
</event>
<event>
 4    1 -0.4996155E-019  0.1491474E+02  0.7818608E-02  0.1870681E+00
          2   -1    0    0  501    0  0.00000000000E+00  0.00000000000E+00  0.11891724507E+03  0.11891724510E+03  0.25500000000E-02 0.  1.
         -2   -1    0    0    0  501 -0.00000000000E+00 -0.00000000000E+00 -0.46765240892E+00  0.46765936115E+00  0.25500000000E-02 0. -1.
         31    1    1    2    0    0 -0.80293552377E-01  0.38333125071E+00  0.59176245870E+02  0.59644282133E+02  0.74470750000E+01 0. -1.
        -31    1    1    2    0    0  0.80293552377E-01 -0.38333125071E+00  0.59273346792E+02  0.59740622326E+02  0.74470750000E+01 0. -1.
<mgrwt>
<rscale>  0 0.14914738E+02</rscale>
<asrwt>0</asrwt>
<pdfrwt beam="1">  1        2 0.98715792E+00 0.14914738E+02</pdfrwt>
<pdfrwt beam="2">  1       -2 0.99322813E+00 0.14914738E+02</pdfrwt>
<totfact>-0.22527073E-13</totfact>
</mgrwt>
</event>
<event>
 4    1 -0.4996155E-019  0.1495410E+02  0.7818608E-02  0.1869472E+00
         -2   -1    0    0    0  501 -0.00000000000E+00  0.00000000000E+00  0.12011068237E+03  0.12011068240E+03  0.25500000000E-02 0.  1.
          2   -1    0    0  501    0  0.00000000000E+00 -0.00000000000E+00 -0.46545272110E+00  0.46545970618E+00  0.25500000000E-02 0. -1.
         31    1    1    2    0    0  0.29342002941E-01 -0.15651557421E+00  0.65060408583E+02  0.65485426234E+02  0.74470750000E+01 0.  1.
        -31    1    1    2    0    0 -0.29342002941E-01  0.15651557421E+00  0.54584821070E+02  0.55090715873E+02  0.74470750000E+01 0. -1.
<mgrwt>
<rscale>  0 0.14954099E+02</rscale>
<asrwt>0</asrwt>
<pdfrwt beam="2">  1        2 0.98861288E+00 0.14954099E+02</pdfrwt>
<pdfrwt beam="1">  1       -2 0.99700791E+00 0.14954099E+02</pdfrwt>
<totfact>-0.16553803E-13</totfact>
</mgrwt>
</event>
<event>
 4    1 -0.4996155E-019  0.1495942E+02  0.7818608E-02  0.1869309E+00
         -2   -1    0    0    0  501 -0.00000000000E+00  0.00000000000E+00  0.12012081117E+03  0.12012081119E+03  0.25500000000E-02 0.  1.
          2   -1    0    0  501    0  0.00000000000E+00 -0.00000000000E+00 -0.46574501012E+00  0.46575199082E+00  0.25500000000E-02 0. -1.
         31    1    1    2    0    0  0.21595151307E+00  0.64002662707E+00  0.61244413935E+02  0.61699217446E+02  0.74470750000E+01 0.  1.
        -31    1    1    2    0    0 -0.21595151307E+00 -0.64002662707E+00  0.58410652220E+02  0.58887345737E+02  0.74470750000E+01 0. -1.
<mgrwt>
<rscale>  0 0.14959424E+02</rscale>
<asrwt>0</asrwt>
<pdfrwt beam="2">  1        2 0.98923161E+00 0.14959424E+02</pdfrwt>
<pdfrwt beam="1">  1       -2 0.99709407E+00 0.14959424E+02</pdfrwt>
<totfact>-0.15144335E-13</totfact>
</mgrwt>
</event>
<event>
 4    1 -0.4996155E-019  0.1499213E+02  0.7818608E-02  0.1868309E+00
          2   -1    0    0  501    0  0.00000000000E+00  0.00000000000E+00  0.12000396545E+03  0.12000396548E+03  0.25500000000E-02 0. -1.
         -2   -1    0    0    0  501 -0.00000000000E+00 -0.00000000000E+00 -0.46823918643E+00  0.46824612995E+00  0.25500000000E-02 0.  1.
         31    1    1    2    0    0  0.73429472598E+00 -0.34753914540E-01  0.56249948883E+02  0.56745537904E+02  0.74470750000E+01 0.  1.
        -31    1    1    2    0    0 -0.73429472598E+00  0.34753914540E-01  0.63285777380E+02  0.63726673703E+02  0.74470750000E+01 0. -1.
<mgrwt>
<rscale>  0 0.14992128E+02</rscale>
<asrwt>0</asrwt>
<pdfrwt beam="1">  1        2 0.99614854E+00 0.14992128E+02</pdfrwt>
<pdfrwt beam="2">  1       -2 0.99450478E+00 0.14992128E+02</pdfrwt>
<totfact>-0.10321494E-13</totfact>
</mgrwt>
</event>
<event>
 4    1  0.4996155E-019  0.1490816E+02  0.7818608E-02  0.1870884E+00
          2   -1    0    0  501    0  0.00000000000E+00  0.00000000000E+00  0.12027555440E+03  0.12027555443E+03  0.25500000000E-02 0. -1.
         -2   -1    0    0    0  501 -0.00000000000E+00 -0.00000000000E+00 -0.46196305036E+00  0.46197008821E+00  0.25500000000E-02 0.  1.
         31    1    1    2    0    0 -0.14860921819E+00 -0.27667127284E+00  0.60519885039E+02  0.60977160010E+02  0.74470750000E+01 0.  1.
        -31    1    1    2    0    0  0.14860921819E+00  0.27667127284E+00  0.59293706309E+02  0.59760364503E+02  0.74470750000E+01 0.  1.
<mgrwt>
<rscale>  0 0.14908157E+02</rscale>
<asrwt>0</asrwt>
<pdfrwt beam="1">  1        2 0.99834233E+00 0.14908157E+02</pdfrwt>
<pdfrwt beam="2">  1       -2 0.98123455E+00 0.14908157E+02</pdfrwt>
<totfact> 0.53760504E-13</totfact>
</mgrwt>
</event>
<event>
 4    1 -0.4996155E-019  0.1495199E+02  0.7818608E-02  0.1869537E+00
         -2   -1    0    0    0  501 -0.00000000000E+00  0.00000000000E+00  0.12002031901E+03  0.12002031903E+03  0.25500000000E-02 0.  1.
          2   -1    0    0  501    0  0.00000000000E+00 -0.00000000000E+00 -0.46567166712E+00  0.46567864892E+00  0.25500000000E-02 0. -1.
         31    1    1    2    0    0  0.55285721417E+00  0.33902245536E+00  0.60621355283E+02  0.61080506136E+02  0.74470750000E+01 0. -1.
        -31    1    1    2    0    0 -0.55285721417E+00 -0.33902245536E+00  0.58933292057E+02  0.59405491548E+02  0.74470750000E+01 0.  1.
<mgrwt>
<rscale>  0 0.14951988E+02</rscale>
<asrwt>0</asrwt>
<pdfrwt beam="2">  1        2 0.98907324E+00 0.14951988E+02</pdfrwt>
<pdfrwt beam="1">  1       -2 0.99626253E+00 0.14951988E+02</pdfrwt>
<totfact>-0.17863332E-13</totfact>
</mgrwt>
</event>
<event>
 4    1 -0.4996155E-019  0.1491290E+02  0.7818608E-02  0.1870738E+00
          2   -1    0    0  501    0  0.00000000000E+00  0.00000000000E+00  0.11918748764E+03  0.11918748767E+03  0.25500000000E-02 0. -1.
         -2   -1    0    0    0  501 -0.00000000000E+00 -0.00000000000E+00 -0.46647713072E+00  0.46648410047E+00  0.25500000000E-02 0.  1.
         31    1    1    2    0    0 -0.31024534511E+00 -0.20969352947E-01  0.57695979101E+02  0.58175438308E+02  0.74470750000E+01 0.  1.
        -31    1    1    2    0    0  0.31024534511E+00  0.20969352947E-01  0.61025031413E+02  0.61478533464E+02  0.74470750000E+01 0. -1.
<mgrwt>
<rscale>  0 0.14912901E+02</rscale>
<asrwt>0</asrwt>
<pdfrwt beam="1">  1        2 0.98938276E+00 0.14912901E+02</pdfrwt>
<pdfrwt beam="2">  1       -2 0.99075057E+00 0.14912901E+02</pdfrwt>
<totfact>-0.48671509E-14</totfact>
</mgrwt>
</event>
<event>
 4    1 -0.4996155E-019  0.1494867E+02  0.7818608E-02  0.1869639E+00
         -2   -1    0    0    0  501 -0.00000000000E+00  0.00000000000E+00  0.11987628547E+03  0.11987628550E+03  0.25500000000E-02 0.  1.
          2   -1    0    0  501    0  0.00000000000E+00 -0.00000000000E+00 -0.46602401295E+00  0.46603098947E+00  0.25500000000E-02 0. -1.
         31    1    1    2    0    0 -0.96068638582E-01 -0.42315236260E+00  0.55942618455E+02  0.56437786746E+02  0.74470750000E+01 0. -1.
        -31    1    1    2    0    0  0.96068638582E-01  0.42315236260E+00  0.63467643005E+02  0.63904529744E+02  0.74470750000E+01 0.  1.
<mgrwt>
<rscale>  0 0.14948665E+02</rscale>
<asrwt>0</asrwt>
<pdfrwt beam="2">  1        2 0.98981411E+00 0.14948665E+02</pdfrwt>
<pdfrwt beam="1">  1       -2 0.99507447E+00 0.14948665E+02</pdfrwt>
<totfact>-0.18146795E-13</totfact>
</mgrwt>
</event>
<event>
 4    1  0.4996155E-019  0.1492928E+02  0.7818608E-02  0.1870234E+00
          2   -1    0    0  501    0  0.00000000000E+00  0.00000000000E+00  0.11975885642E+03  0.11975885645E+03  0.25500000000E-02 0. -1.
         -2   -1    0    0    0  501 -0.00000000000E+00 -0.00000000000E+00 -0.46527214514E+00  0.46527913293E+00  0.25500000000E-02 0.  1.
         31    1    1    2    0    0 -0.34030730114E+00  0.21512342485E+00  0.57101914227E+02  0.57586887583E+02  0.74470750000E+01 0.  1.
        -31    1    1    2    0    0  0.34030730114E+00 -0.21512342485E+00  0.62191670048E+02  0.62637247996E+02  0.74470750000E+01 0. -1.
<mgrwt>
<rscale>  0 0.14929284E+02</rscale>
<asrwt>0</asrwt>
<pdfrwt beam="1">  1        2 0.99409727E+00 0.14929284E+02</pdfrwt>
<pdfrwt beam="2">  1       -2 0.98821962E+00 0.14929284E+02</pdfrwt>
<totfact> 0.14411875E-13</totfact>
</mgrwt>
</event>
<event>
 4    1  0.4996155E-019  0.1490771E+02  0.7818608E-02  0.1870898E+00
         -2   -1    0    0    0  501 -0.00000000000E+00  0.00000000000E+00  0.11867583117E+03  0.11867583120E+03  0.25500000000E-02 0.  1.
          2   -1    0    0  501    0  0.00000000000E+00 -0.00000000000E+00 -0.46816192922E+00  0.46816887388E+00  0.25500000000E-02 0. -1.
         31    1    1    2    0    0  0.20770868973E+00  0.21231341071E+00  0.60007171745E+02  0.60468237999E+02  0.74470750000E+01 0. -1.
        -31    1    1    2    0    0 -0.20770868973E+00 -0.21231341071E+00  0.58200497498E+02  0.58675762074E+02  0.74470750000E+01 0. -1.
<mgrwt>
<rscale>  0 0.14907706E+02</rscale>
<asrwt>0</asrwt>
<pdfrwt beam="2">  1        2 0.99429809E+00 0.14907706E+02</pdfrwt>
<pdfrwt beam="1">  1       -2 0.98516595E+00 0.14907706E+02</pdfrwt>
<totfact> 0.49378516E-13</totfact>
</mgrwt>
</event>
<event>
 4    1 -0.4996155E-019  0.1494275E+02  0.7818608E-02  0.1869821E+00
         -2   -1    0    0    0  501 -0.00000000000E+00  0.00000000000E+00  0.11982958677E+03  0.11982958680E+03  0.25500000000E-02 0. -1.
          2   -1    0    0  501    0  0.00000000000E+00 -0.00000000000E+00 -0.46583666816E+00  0.46584364748E+00  0.25500000000E-02 0.  1.
         31    1    1    2    0    0 -0.63562288767E-01  0.58245160558E+00  0.60797977663E+02  0.61255173692E+02  0.74470750000E+01 0. -1.
        -31    1    1    2    0    0  0.63562288767E-01 -0.58245160558E+00  0.58565772443E+02  0.59040256757E+02  0.74470750000E+01 0.  1.
<mgrwt>
<rscale>  0 0.14942749E+02</rscale>
<asrwt>0</asrwt>
<pdfrwt beam="2">  1        2 0.98941625E+00 0.14942749E+02</pdfrwt>
<pdfrwt beam="1">  1       -2 0.99468679E+00 0.14942749E+02</pdfrwt>
<totfact>-0.18977078E-13</totfact>
</mgrwt>
</event>
<event>
 4    1 -0.4996155E-019  0.1499225E+02  0.7818608E-02  0.1868305E+00
         -2   -1    0    0    0  501 -0.00000000000E+00  0.00000000000E+00  0.12031494226E+03  0.12031494228E+03  0.25500000000E-02 0. -1.
          2   -1    0    0  501    0  0.00000000000E+00 -0.00000000000E+00 -0.46703658654E+00  0.46704354793E+00  0.25500000000E-02 0.  1.
         31    1    1    2    0    0  0.17474691065E+00 -0.47106942528E+00  0.65508615294E+02  0.65932465801E+02  0.74470750000E+01 0. -1.
        -31    1    1    2    0    0 -0.17474691065E+00  0.47106942528E+00  0.54339290376E+02  0.54849520030E+02  0.74470750000E+01 0.  1.
<mgrwt>
<rscale>  0 0.14992252E+02</rscale>
<asrwt>0</asrwt>
<pdfrwt beam="2">  1        2 0.99197042E+00 0.14992252E+02</pdfrwt>
<pdfrwt beam="1">  1       -2 0.99870997E+00 0.14992252E+02</pdfrwt>
<totfact>-0.62100954E-14</totfact>
</mgrwt>
</event>
<event>
 4    1 -0.4996155E-019  0.1497121E+02  0.7818608E-02  0.1868948E+00
         -2   -1    0    0    0  501 -0.00000000000E+00  0.00000000000E+00  0.11972436648E+03  0.11972436651E+03  0.25500000000E-02 0. -1.
          2   -1    0    0  501    0  0.00000000000E+00 -0.00000000000E+00 -0.46802414254E+00  0.46803108924E+00  0.25500000000E-02 0.  1.
         31    1    1    2    0    0  0.22265483484E-01 -0.75360792751E+00  0.60298244942E+02  0.60761054055E+02  0.74470750000E+01 0. -1.
        -31    1    1    2    0    0 -0.22265483484E-01  0.75360792751E+00  0.58958097396E+02  0.59431343543E+02  0.74470750000E+01 0. -1.
<mgrwt>
<rscale>  0 0.14971214E+02</rscale>
<asrwt>0</asrwt>
<pdfrwt beam="2">  1        2 0.99404080E+00 0.14971214E+02</pdfrwt>
<pdfrwt beam="1">  1       -2 0.99383484E+00 0.14971214E+02</pdfrwt>
<totfact>-0.12582066E-13</totfact>
</mgrwt>
</event>
<event>
 4    1  0.4996155E-019  0.1491810E+02  0.7818608E-02  0.1870578E+00
          2   -1    0    0  501    0  0.00000000000E+00  0.00000000000E+00  0.12005011069E+03  0.12005011072E+03  0.25500000000E-02 0. -1.
         -2   -1    0    0    0  501 -0.00000000000E+00 -0.00000000000E+00 -0.46344803921E+00  0.46345505450E+00  0.25500000000E-02 0.  1.
         31    1    1    2    0    0 -0.11775929746E+00  0.36419857162E+00  0.58348710414E+02  0.58823272952E+02  0.74470750000E+01 0. -1.
        -31    1    1    2    0    0  0.11775929746E+00 -0.36419857162E+00  0.61237952238E+02  0.61690292820E+02  0.74470750000E+01 0. -1.
<mgrwt>
<rscale>  0 0.14918098E+02</rscale>
<asrwt>0</asrwt>
<pdfrwt beam="1">  1        2 0.99649048E+00 0.14918098E+02</pdfrwt>
<pdfrwt beam="2">  1       -2 0.98436950E+00 0.14918098E+02</pdfrwt>
<totfact> 0.46998021E-13</totfact>
</mgrwt>
</event>
<event>
 4    1  0.4996155E-019  0.1494559E+02  0.7818608E-02  0.1869733E+00
         -2   -1    0    0    0  501 -0.00000000000E+00  0.00000000000E+00  0.11890869190E+03  0.11890869192E+03  0.25500000000E-02 0. -1.
          2   -1    0    0  501    0  0.00000000000E+00 -0.00000000000E+00 -0.46962298777E+00  0.46962991083E+00  0.25500000000E-02 0.  1.
         31    1    1    2    0    0  0.38024692495E+00 -0.27076917061E+00  0.62472334928E+02  0.62916368785E+02  0.74470750000E+01 0. -1.
        -31    1    1    2    0    0 -0.38024692495E+00  0.27076917061E+00  0.55966733981E+02  0.56461953050E+02  0.74470750000E+01 0.  1.
<mgrwt>
<rscale>  0 0.14945591E+02</rscale>
<asrwt>0</asrwt>
<pdfrwt beam="2">  1        2 0.99739655E+00 0.14945591E+02</pdfrwt>
<pdfrwt beam="1">  1       -2 0.98710349E+00 0.14945591E+02</pdfrwt>
<totfact> 0.15737555E-13</totfact>
</mgrwt>
</event>
<event>
 4    1  0.4996155E-019  0.1495389E+02  0.7818608E-02  0.1869479E+00
          2   -1    0    0  501    0  0.00000000000E+00  0.00000000000E+00  0.11997795502E+03  0.11997795505E+03  0.25500000000E-02 0. -1.
         -2   -1    0    0    0  501 -0.00000000000E+00 -0.00000000000E+00 -0.46595476269E+00  0.46596174024E+00  0.25500000000E-02 0.  1.
         31    1    1    2    0    0 -0.59810816570E-01  0.32851402540E+00  0.55099103787E+02  0.55601094081E+02  0.74470750000E+01 0.  1.
        -31    1    1    2    0    0  0.59810816570E-01 -0.32851402540E+00  0.64412896471E+02  0.64842822707E+02  0.74470750000E+01 0. -1.
<mgrwt>
<rscale>  0 0.14953892E+02</rscale>
<asrwt>0</asrwt>
<pdfrwt beam="1">  1        2 0.99591457E+00 0.14953892E+02</pdfrwt>
<pdfrwt beam="2">  1       -2 0.98967084E+00 0.14953892E+02</pdfrwt>
<totfact> 0.24986988E-14</totfact>
</mgrwt>
</event>
<event>
 4    1 -0.4996155E-019  0.1502090E+02  0.7818608E-02  0.1867431E+00
         -2   -1    0    0    0  501 -0.00000000000E+00  0.00000000000E+00  0.12029488227E+03  0.12029488229E+03  0.25500000000E-02 0.  1.
          2   -1    0    0  501    0  0.00000000000E+00 -0.00000000000E+00 -0.46890158493E+00  0.46890851864E+00  0.25500000000E-02 0. -1.
         31    1    1    2    0    0  0.11561370584E-01  0.12005830527E+00  0.67680402483E+02  0.68088988493E+02  0.74470750000E+01 0.  1.
        -31    1    1    2    0    0 -0.11561370584E-01 -0.12005830527E+00  0.52145578199E+02  0.52674802320E+02  0.74470750000E+01 0. -1.
<mgrwt>
<rscale>  0 0.15020903E+02</rscale>
<asrwt>0</asrwt>
<pdfrwt beam="2">  1        2 0.99591554E+00 0.15020903E+02</pdfrwt>
<pdfrwt beam="1">  1       -2 0.99855952E+00 0.15020903E+02</pdfrwt>
<totfact>-0.48202136E-14</totfact>
</mgrwt>
</event>
<event>
 4    1 -0.4996155E-019  0.1494707E+02  0.7818608E-02  0.1869688E+00
          2   -1    0    0  501    0  0.00000000000E+00  0.00000000000E+00  0.11937834781E+03  0.11937834783E+03  0.25500000000E-02 0.  1.
         -2   -1    0    0    0  501 -0.00000000000E+00 -0.00000000000E+00 -0.46786816223E+00  0.46787511125E+00  0.25500000000E-02 0. -1.
         31    1    1    2    0    0  0.26902832209E+00 -0.19848426940E+00  0.63721017327E+02  0.64155582356E+02  0.74470750000E+01 0.  1.
        -31    1    1    2    0    0 -0.26902832209E+00  0.19848426940E+00  0.55189462316E+02  0.55690640587E+02  0.74470750000E+01 0. -1.
<mgrwt>
<rscale>  0 0.14947073E+02</rscale>
<asrwt>0</asrwt>
<pdfrwt beam="1">  1        2 0.99097242E+00 0.14947073E+02</pdfrwt>
<pdfrwt beam="2">  1       -2 0.99369960E+00 0.14947073E+02</pdfrwt>
<totfact>-0.15646879E-13</totfact>
</mgrwt>
</event>
<event>
 4    1 -0.4996155E-019  0.1497634E+02  0.7818608E-02  0.1868791E+00
          2   -1    0    0  501    0  0.00000000000E+00  0.00000000000E+00  0.11997037623E+03  0.11997037626E+03  0.25500000000E-02 0. -1.
         -2   -1    0    0    0  501 -0.00000000000E+00 -0.00000000000E+00 -0.46738416026E+00  0.46739111647E+00  0.25500000000E-02 0.  1.
         31    1    1    2    0    0  0.13514813342E+00  0.43438423555E+00  0.54622362755E+02  0.55129560072E+02  0.74470750000E+01 0.  1.
        -31    1    1    2    0    0 -0.13514813342E+00 -0.43438423555E+00  0.64880629318E+02  0.65308207305E+02  0.74470750000E+01 0. -1.
<mgrwt>
<rscale>  0 0.14976338E+02</rscale>
<asrwt>0</asrwt>
<pdfrwt beam="1">  1        2 0.99586373E+00 0.14976338E+02</pdfrwt>
<pdfrwt beam="2">  1       -2 0.99269476E+00 0.14976338E+02</pdfrwt>
<totfact>-0.87679933E-14</totfact>
</mgrwt>
</event>
<event>
 4    1 -0.4996155E-019  0.1499784E+02  0.7818608E-02  0.1868134E+00
         -2   -1    0    0    0  501 -0.00000000000E+00  0.00000000000E+00  0.11979913996E+03  0.11979913998E+03  0.25500000000E-02 0.  1.
          2   -1    0    0  501    0  0.00000000000E+00 -0.00000000000E+00 -0.46939749343E+00  0.46940441981E+00  0.25500000000E-02 0. -1.
         31    1    1    2    0    0 -0.17412685618E-01  0.87649588730E+00  0.59025361892E+02  0.59499754796E+02  0.74470750000E+01 0. -1.
        -31    1    1    2    0    0  0.17412685618E-01 -0.87649588730E+00  0.60304380571E+02  0.60768789607E+02  0.74470750000E+01 0.  1.
<mgrwt>
<rscale>  0 0.14997844E+02</rscale>
<asrwt>0</asrwt>
<pdfrwt beam="2">  1        2 0.99694867E+00 0.14997844E+02</pdfrwt>
<pdfrwt beam="1">  1       -2 0.99446447E+00 0.14997844E+02</pdfrwt>
<totfact>-0.88983399E-14</totfact>
</mgrwt>
</event>
<event>
 4    1  0.4996155E-019  0.1491292E+02  0.7818608E-02  0.1870738E+00
          2   -1    0    0  501    0  0.00000000000E+00  0.00000000000E+00  0.12037619881E+03  0.12037619884E+03  0.25500000000E-02 0.  1.
         -2   -1    0    0    0  501 -0.00000000000E+00 -0.00000000000E+00 -0.46187155935E+00  0.46187859860E+00  0.25500000000E-02 0. -1.
         31    1    1    2    0    0 -0.16162191066E+00  0.31916987952E+00  0.60839320515E+02  0.61294451933E+02  0.74470750000E+01 0. -1.
        -31    1    1    2    0    0  0.16162191066E+00 -0.31916987952E+00  0.59075006735E+02  0.59543625502E+02  0.74470750000E+01 0.  1.
<mgrwt>
<rscale>  0 0.14912916E+02</rscale>
<asrwt>0</asrwt>
<pdfrwt beam="1">  1        2 0.99917377E+00 0.14912916E+02</pdfrwt>
<pdfrwt beam="2">  1       -2 0.98104410E+00 0.14912916E+02</pdfrwt>
<totfact> 0.30433336E-13</totfact>
</mgrwt>
</event>
<event>
 4    1  0.4996155E-019  0.1491859E+02  0.7818608E-02  0.1870563E+00
          2   -1    0    0  501    0  0.00000000000E+00  0.00000000000E+00  0.11990238496E+03  0.11990238499E+03  0.25500000000E-02 0. -1.
         -2   -1    0    0    0  501 -0.00000000000E+00 -0.00000000000E+00 -0.46404950577E+00  0.46405651197E+00  0.25500000000E-02 0.  1.
         31    1    1    2    0    0  0.26530316669E+00  0.33398607739E+00  0.59603018168E+02  0.60067966781E+02  0.74470750000E+01 0. -1.
        -31    1    1    2    0    0 -0.26530316669E+00 -0.33398607739E+00  0.59835317286E+02  0.60298474717E+02  0.74470750000E+01 0.  1.
<mgrwt>
<rscale>  0 0.14918588E+02</rscale>
<asrwt>0</asrwt>
<pdfrwt beam="1">  1        2 0.99527395E+00 0.14918588E+02</pdfrwt>
<pdfrwt beam="2">  1       -2 0.98563740E+00 0.14918588E+02</pdfrwt>
<totfact> 0.38941182E-13</totfact>
</mgrwt>
</event>
<event>
 4    1 -0.4996155E-019  0.1493485E+02  0.7818608E-02  0.1870063E+00
          2   -1    0    0  501    0  0.00000000000E+00  0.00000000000E+00  0.11917580734E+03  0.11917580737E+03  0.25500000000E-02 0. -1.
         -2   -1    0    0    0  501 -0.00000000000E+00 -0.00000000000E+00 -0.46789735764E+00  0.46790430623E+00  0.25500000000E-02 0.  1.
         31    1    1    2    0    0  0.11172357029E+00  0.53914333574E+00  0.59198014956E+02  0.59667135497E+02  0.74470750000E+01 0.  1.
        -31    1    1    2    0    0 -0.11172357029E+00 -0.53914333574E+00  0.59509895029E+02  0.59976576179E+02  0.74470750000E+01 0. -1.
<mgrwt>
<rscale>  0 0.14934854E+02</rscale>
<asrwt>0</asrwt>
<pdfrwt beam="1">  1        2 0.98929792E+00 0.14934854E+02</pdfrwt>
<pdfrwt beam="2">  1       -2 0.99375477E+00 0.14934854E+02</pdfrwt>
<totfact>-0.18402304E-13</totfact>
</mgrwt>
</event>
<event>
 4    1  0.4996155E-019  0.1492646E+02  0.7818608E-02  0.1870321E+00
          2   -1    0    0  501    0  0.00000000000E+00  0.00000000000E+00  0.11997037924E+03  0.11997037927E+03  0.25500000000E-02 0.  1.
         -2   -1    0    0    0  501 -0.00000000000E+00 -0.00000000000E+00 -0.46427614577E+00  0.46428314855E+00  0.25500000000E-02 0. -1.
         31    1    1    2    0    0  0.18621987160E+00  0.33021092214E+00  0.57237978579E+02  0.57721649621E+02  0.74470750000E+01 0. -1.
        -31    1    1    2    0    0 -0.18621987160E+00 -0.33021092214E+00  0.62268124516E+02  0.62713012796E+02  0.74470750000E+01 0.  1.
<mgrwt>
<rscale>  0 0.14926461E+02</rscale>
<asrwt>0</asrwt>
<pdfrwt beam="1">  1        2 0.99583805E+00 0.14926461E+02</pdfrwt>
<pdfrwt beam="2">  1       -2 0.98611908E+00 0.14926461E+02</pdfrwt>
<totfact> 0.31011202E-13</totfact>
</mgrwt>
</event>
<event>
 4    1 -0.4996155E-019  0.1489458E+02  0.7818608E-02  0.1871303E+00
          2   -1    0    0  501    0  0.00000000000E+00  0.00000000000E+00  0.11806756732E+03  0.11806756735E+03  0.25500000000E-02 0.  1.
         -2   -1    0    0    0  501 -0.00000000000E+00 -0.00000000000E+00 -0.46974568785E+00  0.46975260910E+00  0.25500000000E-02 0. -1.
         31    1    1    2    0    0 -0.16781547522E-01 -0.52356601092E-01  0.58909638688E+02  0.59378510248E+02  0.74470750000E+01 0. -1.
        -31    1    1    2    0    0  0.16781547522E-01  0.52356601092E-01  0.58688182945E+02  0.59158809710E+02  0.74470750000E+01 0.  1.
<mgrwt>
<rscale>  0 0.14894582E+02</rscale>
<asrwt>0</asrwt>
<pdfrwt beam="1">  1        2 0.98014950E+00 0.14894582E+02</pdfrwt>
<pdfrwt beam="2">  1       -2 0.99762815E+00 0.14894582E+02</pdfrwt>
<totfact>-0.53010934E-13</totfact>
</mgrwt>
</event>
<event>
 4    1 -0.4996155E-019  0.1490664E+02  0.7818608E-02  0.1870931E+00
         -2   -1    0    0    0  501 -0.00000000000E+00  0.00000000000E+00  0.11959007618E+03  0.11959007621E+03  0.25500000000E-02 0. -1.
          2   -1    0    0  501    0  0.00000000000E+00 -0.00000000000E+00 -0.46451624136E+00  0.46452324052E+00  0.25500000000E-02 0.  1.
         31    1    1    2    0    0  0.18528947646E+00  0.23575737789E+00  0.59113304757E+02  0.59581302764E+02  0.74470750000E+01 0.  1.
        -31    1    1    2    0    0 -0.18528947646E+00 -0.23575737789E+00  0.60012255185E+02  0.60473296687E+02  0.74470750000E+01 0. -1.
<mgrwt>
<rscale>  0 0.14906637E+02</rscale>
<asrwt>0</asrwt>
<pdfrwt beam="2">  1        2 0.98661496E+00 0.14906637E+02</pdfrwt>
<pdfrwt beam="1">  1       -2 0.99269543E+00 0.14906637E+02</pdfrwt>
<totfact>-0.22031466E-13</totfact>
</mgrwt>
</event>
<event>
 4    1 -0.4996155E-019  0.1489604E+02  0.7818608E-02  0.1871258E+00
         -2   -1    0    0    0  501 -0.00000000000E+00  0.00000000000E+00  0.12015411144E+03  0.12015411147E+03  0.25500000000E-02 0. -1.
          2   -1    0    0  501    0  0.00000000000E+00 -0.00000000000E+00 -0.46167847655E+00  0.46168551874E+00  0.25500000000E-02 0.  1.
         31    1    1    2    0    0  0.31129547336E-01 -0.42687809458E-01  0.58986385921E+02  0.59454650292E+02  0.74470750000E+01 0.  1.
        -31    1    1    2    0    0 -0.31129547336E-01  0.42687809458E-01  0.60706047047E+02  0.61161146698E+02  0.74470750000E+01 0. -1.
<mgrwt>
<rscale>  0 0.14896039E+02</rscale>
<asrwt>0</asrwt>
<pdfrwt beam="2">  1        2 0.98062863E+00 0.14896039E+02</pdfrwt>
<pdfrwt beam="1">  1       -2 0.99733580E+00 0.14896039E+02</pdfrwt>
<totfact>-0.53318409E-13</totfact>
</mgrwt>
</event>
<event>
 4    1  0.4996155E-019  0.1491440E+02  0.7818608E-02  0.1870692E+00
         -2   -1    0    0    0  501 -0.00000000000E+00  0.00000000000E+00  0.11868457312E+03  0.11868457315E+03  0.25500000000E-02 0.  1.
          2   -1    0    0  501    0  0.00000000000E+00 -0.00000000000E+00 -0.46854791750E+00  0.46855485644E+00  0.25500000000E-02 0. -1.
         31    1    1    2    0    0  0.12393627342E+00 -0.28067933145E+00  0.61011329853E+02  0.61464912247E+02  0.74470750000E+01 0.  1.
        -31    1    1    2    0    0 -0.12393627342E+00  0.28067933145E+00  0.57204695354E+02  0.57688215761E+02  0.74470750000E+01 0. -1.
<mgrwt>
<rscale>  0 0.14914399E+02</rscale>
<asrwt>0</asrwt>
<pdfrwt beam="2">  1        2 0.99511491E+00 0.14914399E+02</pdfrwt>
<pdfrwt beam="1">  1       -2 0.98524143E+00 0.14914399E+02</pdfrwt>
<totfact> 0.44680883E-13</totfact>
</mgrwt>
</event>
<event>
 4    1 -0.4996155E-019  0.1498354E+02  0.7818608E-02  0.1868571E+00
          2   -1    0    0  501    0  0.00000000000E+00  0.00000000000E+00  0.11943829006E+03  0.11943829009E+03  0.25500000000E-02 0.  1.
         -2   -1    0    0    0  501 -0.00000000000E+00 -0.00000000000E+00 -0.46991779933E+00  0.46992471804E+00  0.25500000000E-02 0. -1.
         31    1    1    2    0    0 -0.68922628277E+00 -0.43852297814E+00  0.59338034638E+02  0.59809101448E+02  0.74470750000E+01 0.  1.
        -31    1    1    2    0    0  0.68922628277E+00  0.43852297814E+00  0.59630337625E+02  0.60099113359E+02  0.74470750000E+01 0. -1.
<mgrwt>
<rscale>  0 0.14983537E+02</rscale>
<asrwt>0</asrwt>
<pdfrwt beam="1">  1        2 0.99148502E+00 0.14983537E+02</pdfrwt>
<pdfrwt beam="2">  1       -2 0.99803763E+00 0.14983537E+02</pdfrwt>
<totfact>-0.92098233E-14</totfact>
</mgrwt>
</event>
<event>
 4    1 -0.4996155E-019  0.1494894E+02  0.7818608E-02  0.1869630E+00
          2   -1    0    0  501    0  0.00000000000E+00  0.00000000000E+00  0.11961894445E+03  0.11961894448E+03  0.25500000000E-02 0.  1.
         -2   -1    0    0    0  501 -0.00000000000E+00 -0.00000000000E+00 -0.46704404664E+00  0.46705100792E+00  0.25500000000E-02 0. -1.
         31    1    1    2    0    0 -0.37327146133E+00  0.45700105674E+00  0.61553912448E+02  0.62005574308E+02  0.74470750000E+01 0. -1.
        -31    1    1    2    0    0  0.37327146133E+00 -0.45700105674E+00  0.57597987954E+02  0.58080421176E+02  0.74470750000E+01 0.  1.
<mgrwt>
<rscale>  0 0.14948945E+02</rscale>
<asrwt>0</asrwt>
<pdfrwt beam="1">  1        2 0.99295503E+00 0.14948945E+02</pdfrwt>
<pdfrwt beam="2">  1       -2 0.99196389E+00 0.14948945E+02</pdfrwt>
<totfact>-0.92007936E-14</totfact>
</mgrwt>
</event>
<event>
 4    1 -0.4996155E-019  0.1490855E+02  0.7818608E-02  0.1870872E+00
          2   -1    0    0  501    0  0.00000000000E+00  0.00000000000E+00  0.11849881391E+03  0.11849881394E+03  0.25500000000E-02 0. -1.
         -2   -1    0    0    0  501 -0.00000000000E+00 -0.00000000000E+00 -0.46891467888E+00  0.46892161239E+00  0.25500000000E-02 0.  1.
         31    1    1    2    0    0 -0.23214792984E+00  0.30546076709E-01  0.60843281097E+02  0.61297786310E+02  0.74470750000E+01 0. -1.
        -31    1    1    2    0    0  0.23214792984E+00 -0.30546076709E-01  0.57186618133E+02  0.57669949239E+02  0.74470750000E+01 0. -1.
<mgrwt>
<rscale>  0 0.14908554E+02</rscale>
<asrwt>0</asrwt>
<pdfrwt beam="1">  1        2 0.98370847E+00 0.14908554E+02</pdfrwt>
<pdfrwt beam="2">  1       -2 0.99588463E+00 0.14908554E+02</pdfrwt>
<totfact>-0.40806550E-13</totfact>
</mgrwt>
</event>
<event>
 4    1  0.4996155E-019  0.1491761E+02  0.7818608E-02  0.1870593E+00
          2   -1    0    0  501    0  0.00000000000E+00  0.00000000000E+00  0.12030122756E+03  0.12030122759E+03  0.25500000000E-02 0.  1.
         -2   -1    0    0    0  501 -0.00000000000E+00 -0.00000000000E+00 -0.46245005907E+00  0.46245708950E+00  0.25500000000E-02 0. -1.
         31    1    1    2    0    0 -0.28839586367E+00  0.22368092734E+00  0.61570619050E+02  0.62020426164E+02  0.74470750000E+01 0.  1.
        -31    1    1    2    0    0  0.28839586367E+00 -0.22368092734E+00  0.58268158454E+02  0.58743258515E+02  0.74470750000E+01 0. -1.
<mgrwt>
<rscale>  0 0.14917605E+02</rscale>
<asrwt>0</asrwt>
<pdfrwt beam="1">  1        2 0.99855864E+00 0.14917605E+02</pdfrwt>
<pdfrwt beam="2">  1       -2 0.98226581E+00 0.14917605E+02</pdfrwt>
<totfact> 0.39172747E-13</totfact>
</mgrwt>
</event>
<event>
 4    1  0.4996155E-019  0.1495586E+02  0.7818608E-02  0.1869419E+00
         -2   -1    0    0    0  501 -0.00000000000E+00  0.00000000000E+00  0.11910435322E+03  0.11910435325E+03  0.25500000000E-02 0. -1.
          2   -1    0    0  501    0  0.00000000000E+00 -0.00000000000E+00 -0.46949585603E+00  0.46950278096E+00  0.25500000000E-02 0.  1.
         31    1    1    2    0    0 -0.52593801261E+00  0.25835500250E-01  0.55895259986E+02  0.56391633184E+02  0.74470750000E+01 0. -1.
        -31    1    1    2    0    0  0.52593801261E+00 -0.25835500250E-01  0.62739597383E+02  0.63182222849E+02  0.74470750000E+01 0.  1.
<mgrwt>
<rscale>  0 0.14955857E+02</rscale>
<asrwt>0</asrwt>
<pdfrwt beam="2">  1        2 0.99713406E+00 0.14955857E+02</pdfrwt>
<pdfrwt beam="1">  1       -2 0.98872030E+00 0.14955857E+02</pdfrwt>
<totfact> 0.66552155E-14</totfact>
</mgrwt>
</event>
<event>
 4    1  0.4996155E-019  0.1489783E+02  0.7818608E-02  0.1871202E+00
          2   -1    0    0  501    0  0.00000000000E+00  0.00000000000E+00  0.12033270497E+03  0.12033270500E+03  0.25500000000E-02 0. -1.
         -2   -1    0    0    0  501 -0.00000000000E+00 -0.00000000000E+00 -0.46110431079E+00  0.46111136174E+00  0.25500000000E-02 0.  1.
         31    1    1    2    0    0  0.54364141973E-01  0.60406529400E-01  0.61105904950E+02  0.61558079487E+02  0.74470750000E+01 0.  1.
        -31    1    1    2    0    0 -0.54364141973E-01 -0.60406529400E-01  0.58765695713E+02  0.59235736875E+02  0.74470750000E+01 0.  1.
<mgrwt>
<rscale>  0 0.14897833E+02</rscale>
<asrwt>0</asrwt>
<pdfrwt beam="1">  1        2 0.99880779E+00 0.14897833E+02</pdfrwt>
<pdfrwt beam="2">  1       -2 0.97941931E+00 0.14897833E+02</pdfrwt>
<totfact> 0.55740713E-13</totfact>
</mgrwt>
</event>
<event>
 4    1  0.4996155E-019  0.1491815E+02  0.7818608E-02  0.1870576E+00
         -2   -1    0    0    0  501 -0.00000000000E+00  0.00000000000E+00  0.11880261576E+03  0.11880261579E+03  0.25500000000E-02 0.  1.
          2   -1    0    0  501    0  0.00000000000E+00 -0.00000000000E+00 -0.46831807964E+00  0.46832502199E+00  0.25500000000E-02 0. -1.
         31    1    1    2    0    0  0.16272980478E+00 -0.38942457744E+00  0.58945300780E+02  0.59415364533E+02  0.74470750000E+01 0. -1.
        -31    1    1    2    0    0 -0.16272980478E+00  0.38942457744E+00  0.59388996904E+02  0.59855576280E+02  0.74470750000E+01 0. -1.
<mgrwt>
<rscale>  0 0.14918154E+02</rscale>
<asrwt>0</asrwt>
<pdfrwt beam="2">  1        2 0.99463259E+00 0.14918154E+02</pdfrwt>
<pdfrwt beam="1">  1       -2 0.98621559E+00 0.14918154E+02</pdfrwt>
<totfact> 0.34344040E-13</totfact>
</mgrwt>
</event>
<event>
 4    1  0.4996155E-019  0.1489683E+02  0.7818608E-02  0.1871233E+00
          2   -1    0    0  501    0  0.00000000000E+00  0.00000000000E+00  0.11946602994E+03  0.11946602997E+03  0.25500000000E-02 0.  1.
         -2   -1    0    0    0  501 -0.00000000000E+00 -0.00000000000E+00 -0.46438699878E+00  0.46439399990E+00  0.25500000000E-02 0. -1.
         31    1    1    2    0    0 -0.55434734551E-01 -0.11693260154E+00  0.59957678925E+02  0.60418531382E+02  0.74470750000E+01 0. -1.
        -31    1    1    2    0    0  0.55434734551E-01  0.11693260154E+00  0.59043964016E+02  0.59511892585E+02  0.74470750000E+01 0.  1.
<mgrwt>
<rscale>  0 0.14896831E+02</rscale>
<asrwt>0</asrwt>
<pdfrwt beam="1">  1        2 0.99166866E+00 0.14896831E+02</pdfrwt>
<pdfrwt beam="2">  1       -2 0.98633756E+00 0.14896831E+02</pdfrwt>
<totfact> 0.41272476E-13</totfact>
</mgrwt>
</event>
<event>
 4    1  0.4996155E-019  0.1495443E+02  0.7818608E-02  0.1869462E+00
         -2   -1    0    0    0  501 -0.00000000000E+00  0.00000000000E+00  0.11889691962E+03  0.11889691964E+03  0.25500000000E-02 0.  1.
          2   -1    0    0  501    0  0.00000000000E+00 -0.00000000000E+00 -0.47022552026E+00  0.47023243444E+00  0.25500000000E-02 0. -1.
         31    1    1    2    0    0  0.40223154636E+00 -0.50059743012E+00  0.60758367326E+02  0.61216423566E+02  0.74470750000E+01 0. -1.
        -31    1    1    2    0    0 -0.40223154636E+00  0.50059743012E+00  0.57668326769E+02  0.58150728512E+02  0.74470750000E+01 0. -1.
<mgrwt>
<rscale>  0 0.14954435E+02</rscale>
<asrwt>0</asrwt>
<pdfrwt beam="2">  1        2 0.99867078E+00 0.14954435E+02</pdfrwt>
<pdfrwt beam="1">  1       -2 0.98701113E+00 0.14954435E+02</pdfrwt>
<totfact> 0.96186621E-14</totfact>
</mgrwt>
</event>
<event>
 4    1 -0.4996155E-019  0.1499362E+02  0.7818608E-02  0.1868263E+00
         -2   -1    0    0    0  501 -0.00000000000E+00  0.00000000000E+00  0.11971018062E+03  0.11971018065E+03  0.25500000000E-02 0.  1.
          2   -1    0    0  501    0  0.00000000000E+00 -0.00000000000E+00 -0.46948170817E+00  0.46948863331E+00  0.25500000000E-02 0. -1.
         31    1    1    2    0    0  0.29785932718E+00  0.47070034346E+00  0.54346292823E+02  0.54856984502E+02  0.74470750000E+01 0. -1.
        -31    1    1    2    0    0 -0.29785932718E+00 -0.47070034346E+00  0.64894406090E+02  0.65322684779E+02  0.74470750000E+01 0.  1.
<mgrwt>
<rscale>  0 0.14993620E+02</rscale>
<asrwt>0</asrwt>
<pdfrwt beam="2">  1        2 0.99712394E+00 0.14993620E+02</pdfrwt>
<pdfrwt beam="1">  1       -2 0.99372959E+00 0.14993620E+02</pdfrwt>
<totfact>-0.81928651E-14</totfact>
</mgrwt>
</event>
<event>
 4    1 -0.4996155E-019  0.1491399E+02  0.7818608E-02  0.1870705E+00
         -2   -1    0    0    0  501 -0.00000000000E+00  0.00000000000E+00  0.11986639955E+03  0.11986639957E+03  0.25500000000E-02 0.  1.
          2   -1    0    0  501    0  0.00000000000E+00 -0.00000000000E+00 -0.46390248284E+00  0.46390949126E+00  0.25500000000E-02 0. -1.
         31    1    1    2    0    0  0.32974919251E+00  0.13069397689E+00  0.60898027334E+02  0.61352705521E+02  0.74470750000E+01 0. -1.
        -31    1    1    2    0    0 -0.32974919251E+00 -0.13069397689E+00  0.58504469730E+02  0.58977603545E+02  0.74470750000E+01 0. -1.
<mgrwt>
<rscale>  0 0.14913986E+02</rscale>
<asrwt>0</asrwt>
<pdfrwt beam="2">  1        2 0.98532520E+00 0.14913986E+02</pdfrwt>
<pdfrwt beam="1">  1       -2 0.99497519E+00 0.14913986E+02</pdfrwt>
<totfact>-0.32960138E-13</totfact>
</mgrwt>
</event>
<event>
 4    1  0.4996155E-019  0.1489876E+02  0.7818608E-02  0.1871174E+00
         -2   -1    0    0    0  501 -0.00000000000E+00  0.00000000000E+00  0.11840433180E+03  0.11840433183E+03  0.25500000000E-02 0. -1.
          2   -1    0    0  501    0  0.00000000000E+00 -0.00000000000E+00 -0.46867221267E+00  0.46867914977E+00  0.25500000000E-02 0.  1.
         31    1    1    2    0    0  0.18083129551E+00 -0.21289566142E-01  0.58696686412E+02  0.59167500158E+02  0.74470750000E+01 0. -1.
        -31    1    1    2    0    0 -0.18083129551E+00  0.21289566142E-01  0.59238973179E+02  0.59705510822E+02  0.74470750000E+01 0. -1.
<mgrwt>
<rscale>  0 0.14898756E+02</rscale>
<asrwt>0</asrwt>
<pdfrwt beam="2">  1        2 0.99536859E+00 0.14898756E+02</pdfrwt>
<pdfrwt beam="1">  1       -2 0.98292523E+00 0.14898756E+02</pdfrwt>
<totfact> 0.77750082E-13</totfact>
</mgrwt>
</event>
<event>
 4    1 -0.4996155E-019  0.1491930E+02  0.7818608E-02  0.1870541E+00
          2   -1    0    0  501    0  0.00000000000E+00  0.00000000000E+00  0.11853470841E+03  0.11853470844E+03  0.25500000000E-02 0.  1.
         -2   -1    0    0    0  501 -0.00000000000E+00 -0.00000000000E+00 -0.46944897961E+00  0.46945590523E+00  0.25500000000E-02 0. -1.
         31    1    1    2    0    0 -0.17536485075E+00 -0.38071012849E+00  0.59898828049E+02  0.60361446476E+02  0.74470750000E+01 0.  1.
        -31    1    1    2    0    0  0.17536485075E+00  0.38071012849E+00  0.58166431382E+02  0.58642717867E+02  0.74470750000E+01 0. -1.
<mgrwt>
<rscale>  0 0.14919304E+02</rscale>
<asrwt>0</asrwt>
<pdfrwt beam="1">  1        2 0.98400969E+00 0.14919304E+02</pdfrwt>
<pdfrwt beam="2">  1       -2 0.99701608E+00 0.14919304E+02</pdfrwt>
<totfact>-0.32614363E-13</totfact>
</mgrwt>
</event>
<event>
 4    1  0.4996155E-019  0.1489734E+02  0.7818608E-02  0.1871218E+00
         -2   -1    0    0    0  501 -0.00000000000E+00  0.00000000000E+00  0.11847483879E+03  0.11847483882E+03  0.25500000000E-02 0. -1.
          2   -1    0    0  501    0  0.00000000000E+00 -0.00000000000E+00 -0.46830400441E+00  0.46831094697E+00  0.25500000000E-02 0.  1.
         31    1    1    2    0    0  0.71619050193E-01 -0.13637320976E+00  0.59016980001E+02  0.59485179511E+02  0.74470750000E+01 0. -1.
        -31    1    1    2    0    0 -0.71619050193E-01  0.13637320976E+00  0.58989554788E+02  0.59457970257E+02  0.74470750000E+01 0. -1.
<mgrwt>
<rscale>  0 0.14897336E+02</rscale>
<asrwt>0</asrwt>
<pdfrwt beam="2">  1        2 0.99459201E+00 0.14897336E+02</pdfrwt>
<pdfrwt beam="1">  1       -2 0.98350518E+00 0.14897336E+02</pdfrwt>
<totfact> 0.73924720E-13</totfact>
</mgrwt>
</event>
<event>
 4    1 -0.4996155E-019  0.1493107E+02  0.7818608E-02  0.1870179E+00
          2   -1    0    0  501    0  0.00000000000E+00  0.00000000000E+00  0.11903357277E+03  0.11903357280E+03  0.25500000000E-02 0. -1.
         -2   -1    0    0    0  501 -0.00000000000E+00 -0.00000000000E+00 -0.46821925735E+00  0.46822620116E+00  0.25500000000E-02 0.  1.
         31    1    1    2    0    0 -0.16292332975E+00 -0.27760962828E+00  0.55966356510E+02  0.56460566754E+02  0.74470750000E+01 0.  1.
        -31    1    1    2    0    0  0.16292332975E+00  0.27760962828E+00  0.62598997004E+02  0.63041232246E+02  0.74470750000E+01 0. -1.
<mgrwt>
<rscale>  0 0.14931072E+02</rscale>
<asrwt>0</asrwt>
<pdfrwt beam="1">  1        2 0.98812449E+00 0.14931072E+02</pdfrwt>
<pdfrwt beam="2">  1       -2 0.99443111E+00 0.14931072E+02</pdfrwt>
<totfact>-0.21935994E-13</totfact>
</mgrwt>
</event>
<event>
 4    1 -0.4996155E-019  0.1497508E+02  0.7818608E-02  0.1868830E+00
         -2   -1    0    0    0  501 -0.00000000000E+00  0.00000000000E+00  0.11987026251E+03  0.11987026253E+03  0.25500000000E-02 0. -1.
          2   -1    0    0  501    0  0.00000000000E+00 -0.00000000000E+00 -0.46769596839E+00  0.46770291997E+00  0.25500000000E-02 0.  1.
         31    1    1    2    0    0 -0.64242133421E+00  0.28017103486E+00  0.56998414097E+02  0.57487123224E+02  0.74470750000E+01 0.  1.
        -31    1    1    2    0    0  0.64242133421E+00 -0.28017103486E+00  0.62404152441E+02  0.62850842229E+02  0.74470750000E+01 0. -1.
<mgrwt>
<rscale>  0 0.14975080E+02</rscale>
<asrwt>0</asrwt>
<pdfrwt beam="2">  1        2 0.99335122E+00 0.14975080E+02</pdfrwt>
<pdfrwt beam="1">  1       -2 0.99503849E+00 0.14975080E+02</pdfrwt>
<totfact>-0.13715863E-13</totfact>
</mgrwt>
</event>
<event>
 4    1 -0.4996155E-019  0.1495515E+02  0.7818608E-02  0.1869440E+00
         -2   -1    0    0    0  501 -0.00000000000E+00  0.00000000000E+00  0.11953512325E+03  0.11953512328E+03  0.25500000000E-02 0. -1.
          2   -1    0    0  501    0  0.00000000000E+00 -0.00000000000E+00 -0.46775959475E+00  0.46776654539E+00  0.25500000000E-02 0.  1.
         31    1    1    2    0    0  0.38561718848E+00 -0.31261756710E+00  0.63199980212E+02  0.63639161334E+02  0.74470750000E+01 0. -1.
        -31    1    1    2    0    0 -0.38561718848E+00  0.31261756710E+00  0.55867383445E+02  0.56363728491E+02  0.74470750000E+01 0.  1.
<mgrwt>
<rscale>  0 0.14955149E+02</rscale>
<asrwt>0</asrwt>
<pdfrwt beam="2">  1        2 0.99347500E+00 0.14955149E+02</pdfrwt>
<pdfrwt beam="1">  1       -2 0.99226785E+00 0.14955149E+02</pdfrwt>
<totfact>-0.98731979E-14</totfact>
</mgrwt>
</event>
<event>
 4    1 -0.4996155E-019  0.1493683E+02  0.7818608E-02  0.1870002E+00
         -2   -1    0    0    0  501 -0.00000000000E+00  0.00000000000E+00  0.11981308991E+03  0.11981308994E+03  0.25500000000E-02 0.  1.
          2   -1    0    0  501    0  0.00000000000E+00 -0.00000000000E+00 -0.46553199208E+00  0.46553897598E+00  0.25500000000E-02 0. -1.
         31    1    1    2    0    0 -0.42977853543E+00  0.11621896764E+00  0.56883089536E+02  0.57370227625E+02  0.74470750000E+01 0. -1.
        -31    1    1    2    0    0  0.42977853543E+00 -0.11621896764E+00  0.62464468386E+02  0.62908401293E+02  0.74470750000E+01 0.  1.
<mgrwt>
<rscale>  0 0.14936833E+02</rscale>
<asrwt>0</asrwt>
<pdfrwt beam="2">  1        2 0.98877112E+00 0.14936833E+02</pdfrwt>
<pdfrwt beam="1">  1       -2 0.99454786E+00 0.14936833E+02</pdfrwt>
<totfact>-0.20342001E-13</totfact>
</mgrwt>
</event>
<event>
 4    1  0.4996155E-019  0.1490729E+02  0.7818608E-02  0.1870911E+00
         -2   -1    0    0    0  501 -0.00000000000E+00  0.00000000000E+00  0.11872574051E+03  0.11872574054E+03  0.25500000000E-02 0.  1.
          2   -1    0    0  501    0  0.00000000000E+00 -0.00000000000E+00 -0.46793901363E+00  0.46794596160E+00  0.25500000000E-02 0. -1.
         31    1    1    2    0    0 -0.21972076021E+00  0.21662396651E+00  0.58714018573E+02  0.59185218646E+02  0.74470750000E+01 0. -1.
        -31    1    1    2    0    0  0.21972076021E+00 -0.21662396651E+00  0.59543782924E+02  0.60008467854E+02  0.74470750000E+01 0. -1.
<mgrwt>
<rscale>  0 0.14907290E+02</rscale>
<asrwt>0</asrwt>
<pdfrwt beam="2">  1        2 0.99382816E+00 0.14907290E+02</pdfrwt>
<pdfrwt beam="1">  1       -2 0.98557680E+00 0.14907290E+02</pdfrwt>
<totfact> 0.45369656E-13</totfact>
</mgrwt>
</event>
<event>
 4    1 -0.4996155E-019  0.1492851E+02  0.7818608E-02  0.1870258E+00
          2   -1    0    0  501    0  0.00000000000E+00  0.00000000000E+00  0.11894470076E+03  0.11894470078E+03  0.25500000000E-02 0. -1.
         -2   -1    0    0    0  501 -0.00000000000E+00 -0.00000000000E+00 -0.46840836956E+00  0.46841531056E+00  0.25500000000E-02 0.  1.
         31    1    1    2    0    0  0.17869227891E-01  0.48926875904E+00  0.60265016815E+02  0.60725372629E+02  0.74470750000E+01 0. -1.
        -31    1    1    2    0    0 -0.17869227891E-01 -0.48926875904E+00  0.58211275571E+02  0.58687743464E+02  0.74470750000E+01 0. -1.
<mgrwt>
<rscale>  0 0.14928511E+02</rscale>
<asrwt>0</asrwt>
<pdfrwt beam="1">  1        2 0.98739119E+00 0.14928511E+02</pdfrwt>
<pdfrwt beam="2">  1       -2 0.99482826E+00 0.14928511E+02</pdfrwt>
<totfact>-0.24250607E-13</totfact>
</mgrwt>
</event>
<event>
 4    1  0.4996155E-019  0.1496344E+02  0.7818608E-02  0.1869186E+00
          2   -1    0    0  501    0  0.00000000000E+00  0.00000000000E+00  0.12024140092E+03  0.12024140095E+03  0.25500000000E-02 0.  1.
         -2   -1    0    0    0  501 -0.00000000000E+00 -0.00000000000E+00 -0.46552773029E+00  0.46553471424E+00  0.25500000000E-02 0. -1.
         31    1    1    2    0    0  0.98021925160E-01 -0.29053987788E+00  0.65135579790E+02  0.65560633786E+02  0.74470750000E+01 0.  1.
        -31    1    1    2    0    0 -0.98021925160E-01  0.29053987788E+00  0.54640293403E+02  0.55146301879E+02  0.74470750000E+01 0. -1.
<mgrwt>
<rscale>  0 0.14963439E+02</rscale>
<asrwt>0</asrwt>
<pdfrwt beam="1">  1        2 0.99808940E+00 0.14963439E+02</pdfrwt>
<pdfrwt beam="2">  1       -2 0.98877573E+00 0.14963439E+02</pdfrwt>
<totfact> 0.47078830E-14</totfact>
</mgrwt>
</event>
<event>
 4    1  0.4996155E-019  0.1491638E+02  0.7818608E-02  0.1870631E+00
          2   -1    0    0  501    0  0.00000000000E+00  0.00000000000E+00  0.11951098213E+03  0.11951098216E+03  0.25500000000E-02 0. -1.
         -2   -1    0    0    0  501 -0.00000000000E+00 -0.00000000000E+00 -0.46543175438E+00  0.46543873978E+00  0.25500000000E-02 0.  1.
         31    1    1    2    0    0 -0.20178983165E-01 -0.18373263830E+00  0.62439895756E+02  0.62882697723E+02  0.74470750000E+01 0. -1.
        -31    1    1    2    0    0  0.20178983165E-01  0.18373263830E+00  0.56605654622E+02  0.57093723176E+02  0.74470750000E+01 0.  1.
<mgrwt>
<rscale>  0 0.14916384E+02</rscale>
<asrwt>0</asrwt>
<pdfrwt beam="1">  1        2 0.99204899E+00 0.14916384E+02</pdfrwt>
<pdfrwt beam="2">  1       -2 0.98854937E+00 0.14916384E+02</pdfrwt>
<totfact> 0.13413885E-13</totfact>
</mgrwt>
</event>
<event>
 4    1  0.4996155E-019  0.1494089E+02  0.7818608E-02  0.1869878E+00
         -2   -1    0    0    0  501 -0.00000000000E+00  0.00000000000E+00  0.11863181861E+03  0.11863181864E+03  0.25500000000E-02 0. -1.
          2   -1    0    0  501    0  0.00000000000E+00 -0.00000000000E+00 -0.47042270626E+00  0.47042961755E+00  0.25500000000E-02 0.  1.
         31    1    1    2    0    0  0.28094013853E+00  0.50979601419E+00  0.58292803358E+02  0.58769453534E+02  0.74470750000E+01 0.  1.
        -31    1    1    2    0    0 -0.28094013853E+00 -0.50979601419E+00  0.59868592550E+02  0.60332794724E+02  0.74470750000E+01 0.  1.
<mgrwt>
<rscale>  0 0.14940885E+02</rscale>
<asrwt>0</asrwt>
<pdfrwt beam="2">  1        2 0.99907911E+00 0.14940885E+02</pdfrwt>
<pdfrwt beam="1">  1       -2 0.98482072E+00 0.14940885E+02</pdfrwt>
<totfact> 0.14527024E-13</totfact>
</mgrwt>
</event>
<event>
 4    1  0.4996155E-019  0.1493943E+02  0.7818608E-02  0.1869923E+00
          2   -1    0    0  501    0  0.00000000000E+00  0.00000000000E+00  0.11996919408E+03  0.11996919411E+03  0.25500000000E-02 0.  1.
         -2   -1    0    0    0  501 -0.00000000000E+00 -0.00000000000E+00 -0.46508758948E+00  0.46509458005E+00  0.25500000000E-02 0. -1.
         31    1    1    2    0    0  0.25775542700E+00 -0.51005274742E+00  0.60600932347E+02  0.61059467071E+02  0.74470750000E+01 0.  1.
        -31    1    1    2    0    0 -0.25775542700E+00  0.51005274742E+00  0.58903174147E+02  0.59374821619E+02  0.74470750000E+01 0. -1.
<mgrwt>
<rscale>  0 0.14939425E+02</rscale>
<asrwt>0</asrwt>
<pdfrwt beam="1">  1        2 0.99583496E+00 0.14939425E+02</pdfrwt>
<pdfrwt beam="2">  1       -2 0.98783586E+00 0.14939425E+02</pdfrwt>
<totfact> 0.15009034E-13</totfact>
</mgrwt>
</event>
<event>
 4    1 -0.4996155E-019  0.1491215E+02  0.7818608E-02  0.1870761E+00
          2   -1    0    0  501    0  0.00000000000E+00  0.00000000000E+00  0.11833145217E+03  0.11833145219E+03  0.25500000000E-02 0. -1.
         -2   -1    0    0    0  501 -0.00000000000E+00 -0.00000000000E+00 -0.46980419225E+00  0.46981111263E+00  0.25500000000E-02 0.  1.
         31    1    1    2    0    0 -0.16907274413E+00  0.43060319934E-01  0.61495808663E+02  0.61945329517E+02  0.74470750000E+01 0. -1.
        -31    1    1    2    0    0  0.16907274413E+00 -0.43060319934E-01  0.56365839312E+02  0.56855933790E+02  0.74470750000E+01 0.  1.
<mgrwt>
<rscale>  0 0.14912146E+02</rscale>
<asrwt>0</asrwt>
<pdfrwt beam="1">  1        2 0.98233197E+00 0.14912146E+02</pdfrwt>
<pdfrwt beam="2">  1       -2 0.99776072E+00 0.14912146E+02</pdfrwt>
<totfact>-0.35220756E-13</totfact>
</mgrwt>
</event>
<event>
 4    1 -0.4996155E-019  0.1498592E+02  0.7818608E-02  0.1868499E+00
         -2   -1    0    0    0  501 -0.00000000000E+00  0.00000000000E+00  0.11997044717E+03  0.11997044719E+03  0.25500000000E-02 0.  1.
          2   -1    0    0  501    0  0.00000000000E+00 -0.00000000000E+00 -0.46798189838E+00  0.46798884571E+00  0.25500000000E-02 0. -1.
         31    1    1    2    0    0  0.70184903051E+00 -0.31506973528E+00  0.62210414316E+02  0.62659288508E+02  0.74470750000E+01 0.  1.
        -31    1    1    2    0    0 -0.70184903051E+00  0.31506973528E+00  0.57292050951E+02  0.57779147530E+02  0.74470750000E+01 0.  1.
<mgrwt>
<rscale>  0 0.14985916E+02</rscale>
<asrwt>0</asrwt>
<pdfrwt beam="2">  1        2 0.99395937E+00 0.14985916E+02</pdfrwt>
<pdfrwt beam="1">  1       -2 0.99586926E+00 0.14985916E+02</pdfrwt>
<totfact>-0.12462141E-13</totfact>
</mgrwt>
</event>
<event>
 4    1 -0.4996155E-019  0.1493618E+02  0.7818608E-02  0.1870022E+00
         -2   -1    0    0    0  501 -0.00000000000E+00  0.00000000000E+00  0.12001145130E+03  0.12001145133E+03  0.25500000000E-02 0.  1.
          2   -1    0    0  501    0  0.00000000000E+00 -0.00000000000E+00 -0.46472210451E+00  0.46472910057E+00  0.25500000000E-02 0. -1.
         31    1    1    2    0    0  0.47831463793E+00 -0.29083897403E+00  0.59853628143E+02  0.60317734541E+02  0.74470750000E+01 0. -1.
        -31    1    1    2    0    0 -0.47831463793E+00  0.29083897403E+00  0.59693101054E+02  0.60158445888E+02  0.74470750000E+01 0.  1.
<mgrwt>
<rscale>  0 0.14936184E+02</rscale>
<asrwt>0</asrwt>
<pdfrwt beam="2">  1        2 0.98706392E+00 0.14936184E+02</pdfrwt>
<pdfrwt beam="1">  1       -2 0.99618135E+00 0.14936184E+02</pdfrwt>
<totfact>-0.23268295E-13</totfact>
</mgrwt>
</event>
<event>
 4    1 -0.4996155E-019  0.1498178E+02  0.7818608E-02  0.1868625E+00
         -2   -1    0    0    0  501 -0.00000000000E+00  0.00000000000E+00  0.11985947054E+03  0.11985947057E+03  0.25500000000E-02 0.  1.
          2   -1    0    0  501    0  0.00000000000E+00 -0.00000000000E+00 -0.46815659145E+00  0.46816353619E+00  0.25500000000E-02 0. -1.
         31    1    1    2    0    0  0.50220505611E+00 -0.37686586750E+00  0.63793006709E+02  0.64229283577E+02  0.74470750000E+01 0. -1.
        -31    1    1    2    0    0 -0.50220505611E+00  0.37686586750E+00  0.55598307240E+02  0.56098350526E+02  0.74470750000E+01 0. -1.
<mgrwt>
<rscale>  0 0.14981778E+02</rscale>
<asrwt>0</asrwt>
<pdfrwt beam="2">  1        2 0.99432538E+00 0.14981778E+02</pdfrwt>
<pdfrwt beam="1">  1       -2 0.99495307E+00 0.14981778E+02</pdfrwt>
<totfact>-0.12720820E-13</totfact>
</mgrwt>
</event>
<event>
 4    1  0.4996155E-019  0.1492402E+02  0.7818608E-02  0.1870396E+00
          2   -1    0    0  501    0  0.00000000000E+00  0.00000000000E+00  0.12024284120E+03  0.12024284123E+03  0.25500000000E-02 0.  1.
         -2   -1    0    0    0  501 -0.00000000000E+00 -0.00000000000E+00 -0.46307288517E+00  0.46307990615E+00  0.25500000000E-02 0. -1.
         31    1    1    2    0    0  0.26235200080E+00 -0.10215387184E+00  0.62953044860E+02  0.63392618239E+02  0.74470750000E+01 0.  1.
        -31    1    1    2    0    0 -0.26235200080E+00  0.10215387184E+00  0.56826723460E+02  0.57313302899E+02  0.74470750000E+01 0. -1.
<mgrwt>
<rscale>  0 0.14924024E+02</rscale>
<asrwt>0</asrwt>
<pdfrwt beam="1">  1        2 0.99808101E+00 0.14924024E+02</pdfrwt>
<pdfrwt beam="2">  1       -2 0.98358180E+00 0.14924024E+02</pdfrwt>
<totfact> 0.37107531E-13</totfact>
</mgrwt>
</event>
<event>
 4    1  0.4996155E-019  0.1494291E+02  0.7818608E-02  0.1869816E+00
         -2   -1    0    0    0  501 -0.00000000000E+00  0.00000000000E+00  0.11922419895E+03  0.11922419898E+03  0.25500000000E-02 0. -1.
          2   -1    0    0  501    0  0.00000000000E+00 -0.00000000000E+00 -0.46821224928E+00  0.46821919319E+00  0.25500000000E-02 0.  1.
         31    1    1    2    0    0 -0.28929820997E+00 -0.48766971516E+00  0.57732409373E+02  0.58213499579E+02  0.74470750000E+01 0.  1.
        -31    1    1    2    0    0  0.28929820997E+00  0.48766971516E+00  0.61023577326E+02  0.61478918589E+02  0.74470750000E+01 0.  1.
<mgrwt>
<rscale>  0 0.14942911E+02</rscale>
<asrwt>0</asrwt>
<pdfrwt beam="2">  1        2 0.99442251E+00 0.14942911E+02</pdfrwt>
<pdfrwt beam="1">  1       -2 0.98970066E+00 0.14942911E+02</pdfrwt>
<totfact> 0.27528137E-14</totfact>
</mgrwt>
</event>
<event>
 4    1 -0.4996155E-019  0.1491034E+02  0.7818608E-02  0.1870817E+00
          2   -1    0    0  501    0  0.00000000000E+00  0.00000000000E+00  0.11851093800E+03  0.11851093802E+03  0.25500000000E-02 0. -1.
         -2   -1    0    0    0  501 -0.00000000000E+00 -0.00000000000E+00 -0.46897889903E+00  0.46898583159E+00  0.25500000000E-02 0.  1.
         31    1    1    2    0    0 -0.25952760846E+00 -0.90676935462E-01  0.57327472541E+02  0.57809805491E+02  0.74470750000E+01 0.  1.
        -31    1    1    2    0    0  0.25952760846E+00  0.90676935462E-01  0.60714486557E+02  0.61170118365E+02  0.74470750000E+01 0. -1.
<mgrwt>
<rscale>  0 0.14910338E+02</rscale>
<asrwt>0</asrwt>
<pdfrwt beam="1">  1        2 0.98380926E+00 0.14910338E+02</pdfrwt>
<pdfrwt beam="2">  1       -2 0.99602088E+00 0.14910338E+02</pdfrwt>
<totfact>-0.39564108E-13</totfact>
</mgrwt>
</event>
<event>
 4    1 -0.4996155E-019  0.1493047E+02  0.7818608E-02  0.1870198E+00
          2   -1    0    0  501    0  0.00000000000E+00  0.00000000000E+00  0.11942521226E+03  0.11942521229E+03  0.25500000000E-02 0.  1.
         -2   -1    0    0    0  501 -0.00000000000E+00 -0.00000000000E+00 -0.46664621394E+00  0.46665318116E+00  0.25500000000E-02 0. -1.
         31    1    1    2    0    0  0.21955549523E+00 -0.36527241678E+00  0.57081173571E+02  0.57566491389E+02  0.74470750000E+01 0. -1.
        -31    1    1    2    0    0 -0.21955549523E+00  0.36527241678E+00  0.61877392477E+02  0.62325374081E+02  0.74470750000E+01 0. -1.
<mgrwt>
<rscale>  0 0.14930471E+02</rscale>
<asrwt>0</asrwt>
<pdfrwt beam="1">  1        2 0.99134983E+00 0.14930471E+02</pdfrwt>
<pdfrwt beam="2">  1       -2 0.99111597E+00 0.14930471E+02</pdfrwt>
<totfact>-0.62283314E-14</totfact>
</mgrwt>
</event>
<event>
 4    1  0.4996155E-019  0.1492330E+02  0.7818608E-02  0.1870418E+00
          2   -1    0    0  501    0  0.00000000000E+00  0.00000000000E+00  0.12027177985E+03  0.12027177988E+03  0.25500000000E-02 0. -1.
         -2   -1    0    0    0  501 -0.00000000000E+00 -0.00000000000E+00 -0.46291627977E+00  0.46292330312E+00  0.25500000000E-02 0.  1.
         31    1    1    2    0    0  0.34924709524E+00 -0.12064243509E+00  0.57605628361E+02  0.58086176265E+02  0.74470750000E+01 0.  1.
        -31    1    1    2    0    0 -0.34924709524E+00  0.12064243509E+00  0.62203235212E+02  0.62648526918E+02  0.74470750000E+01 0. -1.
<mgrwt>
<rscale>  0 0.14923296E+02</rscale>
<asrwt>0</asrwt>
<pdfrwt beam="1">  1        2 0.99831900E+00 0.14923296E+02</pdfrwt>
<pdfrwt beam="2">  1       -2 0.98325135E+00 0.14923296E+02</pdfrwt>
<totfact> 0.36010241E-13</totfact>
</mgrwt>
</event>
<event>
 4    1 -0.4996155E-019  0.1491387E+02  0.7818608E-02  0.1870708E+00
         -2   -1    0    0    0  501 -0.00000000000E+00  0.00000000000E+00  0.11938676926E+03  0.11938676929E+03  0.25500000000E-02 0.  1.
          2   -1    0    0  501    0  0.00000000000E+00 -0.00000000000E+00 -0.46575923746E+00  0.46576621794E+00  0.25500000000E-02 0. -1.
         31    1    1    2    0    0  0.36222162434E-01  0.26653287363E+00  0.61655943600E+02  0.62104642814E+02  0.74470750000E+01 0.  1.
        -31    1    1    2    0    0 -0.36222162434E-01 -0.26653287363E+00  0.57265066426E+02  0.57747892695E+02  0.74470750000E+01 0. -1.
<mgrwt>
<rscale>  0 0.14913874E+02</rscale>
<asrwt>0</asrwt>
<pdfrwt beam="2">  1        2 0.98923822E+00 0.14913874E+02</pdfrwt>
<pdfrwt beam="1">  1       -2 0.99102462E+00 0.14913874E+02</pdfrwt>
<totfact>-0.69339643E-14</totfact>
</mgrwt>
</event>
<event>
 4    1 -0.4996155E-019  0.1496366E+02  0.7818608E-02  0.1869179E+00
          2   -1    0    0  501    0  0.00000000000E+00  0.00000000000E+00  0.11970435514E+03  0.11970435517E+03  0.25500000000E-02 0. -1.
         -2   -1    0    0    0  501 -0.00000000000E+00 -0.00000000000E+00 -0.46763003397E+00  0.46763698653E+00  0.25500000000E-02 0.  1.
         31    1    1    2    0    0  0.65617274441E-01  0.37934906472E+00  0.54729161614E+02  0.55234846504E+02  0.74470750000E+01 0.  1.
        -31    1    1    2    0    0 -0.65617274441E-01 -0.37934906472E+00  0.64507563491E+02  0.64937145648E+02  0.74470750000E+01 0. -1.
<mgrwt>
<rscale>  0 0.14963659E+02</rscale>
<asrwt>0</asrwt>
<pdfrwt beam="1">  1        2 0.99366611E+00 0.14963659E+02</pdfrwt>
<pdfrwt beam="2">  1       -2 0.99320637E+00 0.14963659E+02</pdfrwt>
<totfact>-0.12042862E-13</totfact>
</mgrwt>
</event>
<event>
 4    1 -0.4996155E-019  0.1493111E+02  0.7818608E-02  0.1870178E+00
          2   -1    0    0  501    0  0.00000000000E+00  0.00000000000E+00  0.11922071818E+03  0.11922071821E+03  0.25500000000E-02 0.  1.
         -2   -1    0    0    0  501 -0.00000000000E+00 -0.00000000000E+00 -0.46748648380E+00  0.46749343849E+00  0.25500000000E-02 0. -1.
         31    1    1    2    0    0  0.29213902700E-01 -0.48651945949E+00  0.60939463764E+02  0.61394745089E+02  0.74470750000E+01 0.  1.
        -31    1    1    2    0    0 -0.29213902700E-01  0.48651945949E+00  0.57813767931E+02  0.58293466556E+02  0.74470750000E+01 0. -1.
<mgrwt>
<rscale>  0 0.14931107E+02</rscale>
<asrwt>0</asrwt>
<pdfrwt beam="1">  1        2 0.98966588E+00 0.14931107E+02</pdfrwt>
<pdfrwt beam="2">  1       -2 0.99288701E+00 0.14931107E+02</pdfrwt>
<totfact>-0.15672641E-13</totfact>
</mgrwt>
</event>
<event>
 4    1 -0.4996155E-019  0.1496523E+02  0.7818608E-02  0.1869131E+00
         -2   -1    0    0    0  501 -0.00000000000E+00  0.00000000000E+00  0.12035507578E+03  0.12035507581E+03  0.25500000000E-02 0. -1.
          2   -1    0    0  501    0  0.00000000000E+00 -0.00000000000E+00 -0.46519942894E+00  0.46520641782E+00  0.25500000000E-02 0.  1.
         31    1    1    2    0    0  0.51193764153E-01 -0.38460803349E+00  0.64922148747E+02  0.65349023467E+02  0.74470750000E+01 0. -1.
        -31    1    1    2    0    0 -0.51193764153E-01  0.38460803349E+00  0.54967727604E+02  0.55471258758E+02  0.74470750000E+01 0.  1.
<mgrwt>
<rscale>  0 0.14965231E+02</rscale>
<asrwt>0</asrwt>
<pdfrwt beam="2">  1        2 0.98808472E+00 0.14965231E+02</pdfrwt>
<pdfrwt beam="1">  1       -2 0.99902663E+00 0.14965231E+02</pdfrwt>
<totfact>-0.70034068E-14</totfact>
</mgrwt>
</event>
<event>
 4    1 -0.4996155E-019  0.1494301E+02  0.7818608E-02  0.1869812E+00
         -2   -1    0    0    0  501 -0.00000000000E+00  0.00000000000E+00  0.11993493838E+03  0.11993493840E+03  0.25500000000E-02 0. -1.
          2   -1    0    0  501    0  0.00000000000E+00 -0.00000000000E+00 -0.46544389891E+00  0.46545088413E+00  0.25500000000E-02 0.  1.
         31    1    1    2    0    0 -0.15278033424E-01 -0.46372768623E+00  0.62847043160E+02  0.63288427353E+02  0.74470750000E+01 0. -1.
        -31    1    1    2    0    0  0.15278033424E-01  0.46372768623E+00  0.56622451319E+02  0.57111961936E+02  0.74470750000E+01 0. -1.
<mgrwt>
<rscale>  0 0.14943013E+02</rscale>
<asrwt>0</asrwt>
<pdfrwt beam="2">  1        2 0.98858862E+00 0.14943013E+02</pdfrwt>
<pdfrwt beam="1">  1       -2 0.99555466E+00 0.14943013E+02</pdfrwt>
<totfact>-0.20254017E-13</totfact>
</mgrwt>
</event>
<event>
 4    1  0.4996155E-019  0.1490503E+02  0.7818608E-02  0.1870981E+00
          2   -1    0    0  501    0  0.00000000000E+00  0.00000000000E+00  0.12001734557E+03  0.12001734560E+03  0.25500000000E-02 0.  1.
         -2   -1    0    0    0  501 -0.00000000000E+00 -0.00000000000E+00 -0.46276253795E+00  0.46276956364E+00  0.25500000000E-02 0. -1.
         31    1    1    2    0    0  0.71676104785E-01  0.27548612879E+00  0.59773967512E+02  0.60236759111E+02  0.74470750000E+01 0. -1.
        -31    1    1    2    0    0 -0.71676104785E-01 -0.27548612879E+00  0.59780615525E+02  0.60243356054E+02  0.74470750000E+01 0. -1.
<mgrwt>
<rscale>  0 0.14905027E+02</rscale>
<asrwt>0</asrwt>
<pdfrwt beam="1">  1        2 0.99621389E+00 0.14905027E+02</pdfrwt>
<pdfrwt beam="2">  1       -2 0.98291806E+00 0.14905027E+02</pdfrwt>
<totfact> 0.69438632E-13</totfact>
</mgrwt>
</event>
<event>
 4    1  0.4996155E-019  0.1495661E+02  0.7818608E-02  0.1869395E+00
         -2   -1    0    0    0  501 -0.00000000000E+00  0.00000000000E+00  0.11903250145E+03  0.11903250148E+03  0.25500000000E-02 0. -1.
          2   -1    0    0  501    0  0.00000000000E+00 -0.00000000000E+00 -0.46982665345E+00  0.46983357350E+00  0.25500000000E-02 0.  1.
         31    1    1    2    0    0 -0.22937713854E-01 -0.30425713489E+00  0.54401375737E+02  0.54909577550E+02  0.74470750000E+01 0.  1.
        -31    1    1    2    0    0  0.22937713854E-01  0.30425713489E+00  0.64161299058E+02  0.64592757499E+02  0.74470750000E+01 0. -1.
<mgrwt>
<rscale>  0 0.14956612E+02</rscale>
<asrwt>0</asrwt>
<pdfrwt beam="2">  1        2 0.99783148E+00 0.14956612E+02</pdfrwt>
<pdfrwt beam="1">  1       -2 0.98812892E+00 0.14956612E+02</pdfrwt>
<totfact> 0.82009114E-14</totfact>
</mgrwt>
</event>
<event>
 4    1  0.4996155E-019  0.1490600E+02  0.7818608E-02  0.1870951E+00
         -2   -1    0    0    0  501 -0.00000000000E+00  0.00000000000E+00  0.11882867771E+03  0.11882867773E+03  0.25500000000E-02 0. -1.
          2   -1    0    0  501    0  0.00000000000E+00 -0.00000000000E+00 -0.46745267159E+00  0.46745962679E+00  0.25500000000E-02 0.  1.
         31    1    1    2    0    0  0.14233632759E-01  0.29596185637E+00  0.59355456830E+02  0.59821542755E+02  0.74470750000E+01 0.  1.
        -31    1    1    2    0    0 -0.14233632759E-01 -0.29596185637E+00  0.59005768205E+02  0.59474594605E+02  0.74470750000E+01 0. -1.
<mgrwt>
<rscale>  0 0.14905999E+02</rscale>
<asrwt>0</asrwt>
<pdfrwt beam="2">  1        2 0.99280268E+00 0.14905999E+02</pdfrwt>
<pdfrwt beam="1">  1       -2 0.98642393E+00 0.14905999E+02</pdfrwt>
<totfact> 0.36837431E-13</totfact>
</mgrwt>
</event>
<event>
 4    1  0.4996155E-019  0.1492287E+02  0.7818608E-02  0.1870431E+00
         -2   -1    0    0    0  501 -0.00000000000E+00  0.00000000000E+00  0.11835231374E+03  0.11835231377E+03  0.25500000000E-02 0. -1.
          2   -1    0    0  501    0  0.00000000000E+00 -0.00000000000E+00 -0.47039728343E+00  0.47040419509E+00  0.25500000000E-02 0.  1.
         31    1    1    2    0    0 -0.80497629150E-02  0.46235882551E+00  0.58814408038E+02  0.59285810777E+02  0.74470750000E+01 0. -1.
        -31    1    1    2    0    0  0.80497629150E-02 -0.46235882551E+00  0.59067508423E+02  0.59536907191E+02  0.74470750000E+01 0.  1.
<mgrwt>
<rscale>  0 0.14922871E+02</rscale>
<asrwt>0</asrwt>
<pdfrwt beam="2">  1        2 0.99901601E+00 0.14922871E+02</pdfrwt>
<pdfrwt beam="1">  1       -2 0.98250937E+00 0.14922871E+02</pdfrwt>
<totfact> 0.26753794E-13</totfact>
</mgrwt>
</event>
<event>
 4    1 -0.4996155E-019  0.1499423E+02  0.7818608E-02  0.1868245E+00
          2   -1    0    0  501    0  0.00000000000E+00  0.00000000000E+00  0.12035404346E+03  0.12035404349E+03  0.25500000000E-02 0. -1.
         -2   -1    0    0    0  501 -0.00000000000E+00 -0.00000000000E+00 -0.46700811204E+00  0.46701507386E+00  0.25500000000E-02 0.  1.
         31    1    1    2    0    0  0.21586163395E+00 -0.10641764895E+00  0.66636324891E+02  0.67051596864E+02  0.74470750000E+01 0. -1.
        -31    1    1    2    0    0 -0.21586163395E+00  0.10641764895E+00  0.53250710459E+02  0.53769461700E+02  0.74470750000E+01 0.  1.
<mgrwt>
<rscale>  0 0.14994230E+02</rscale>
<asrwt>0</asrwt>
<pdfrwt beam="1">  1        2 0.99903305E+00 0.14994230E+02</pdfrwt>
<pdfrwt beam="2">  1       -2 0.99191143E+00 0.14994230E+02</pdfrwt>
<totfact>-0.22618836E-14</totfact>
</mgrwt>
</event>
<event>
 4    1  0.4996155E-019  0.1493670E+02  0.7818608E-02  0.1870006E+00
          2   -1    0    0  501    0  0.00000000000E+00  0.00000000000E+00  0.11990322369E+03  0.11990322372E+03  0.25500000000E-02 0.  1.
         -2   -1    0    0    0  501 -0.00000000000E+00 -0.00000000000E+00 -0.46517402787E+00  0.46518101713E+00  0.25500000000E-02 0. -1.
         31    1    1    2    0    0  0.49809784803E+00  0.25602558842E+00  0.60209947670E+02  0.60671330751E+02  0.74470750000E+01 0. -1.
        -31    1    1    2    0    0 -0.49809784803E+00 -0.25602558842E+00  0.59228101997E+02  0.59697073988E+02  0.74470750000E+01 0. -1.
<mgrwt>
<rscale>  0 0.14936705E+02</rscale>
<asrwt>0</asrwt>
<pdfrwt beam="1">  1        2 0.99529019E+00 0.14936705E+02</pdfrwt>
<pdfrwt beam="2">  1       -2 0.98801664E+00 0.14936705E+02</pdfrwt>
<totfact> 0.14524500E-13</totfact>
</mgrwt>
</event>
<event>
 4    1 -0.4996155E-019  0.1491018E+02  0.7818608E-02  0.1870822E+00
         -2   -1    0    0    0  501 -0.00000000000E+00  0.00000000000E+00  0.11971688054E+03  0.11971688056E+03  0.25500000000E-02 0.  1.
          2   -1    0    0  501    0  0.00000000000E+00 -0.00000000000E+00 -0.46424479090E+00  0.46425179415E+00  0.25500000000E-02 0. -1.
         31    1    1    2    0    0  0.20761611031E+00  0.32597305456E-01  0.57414968807E+02  0.57896301576E+02  0.74470750000E+01 0. -1.
        -31    1    1    2    0    0 -0.20761611031E+00 -0.32597305456E-01  0.61837666938E+02  0.62284830781E+02  0.74470750000E+01 0. -1.
<mgrwt>
<rscale>  0 0.14910179E+02</rscale>
<asrwt>0</asrwt>
<pdfrwt beam="2">  1        2 0.98604469E+00 0.14910179E+02</pdfrwt>
<pdfrwt beam="1">  1       -2 0.99374169E+00 0.14910179E+02</pdfrwt>
<totfact>-0.28227230E-13</totfact>
</mgrwt>
</event>
<event>
 4    1 -0.4996155E-019  0.1500115E+02  0.7818608E-02  0.1868033E+00
         -2   -1    0    0    0  501 -0.00000000000E+00  0.00000000000E+00  0.12016817367E+03  0.12016817370E+03  0.25500000000E-02 0.  1.
          2   -1    0    0  501    0  0.00000000000E+00 -0.00000000000E+00 -0.46816249393E+00  0.46816943858E+00  0.25500000000E-02 0. -1.
         31    1    1    2    0    0 -0.74086914884E-01 -0.28931084301E+00  0.53071300113E+02  0.53592079745E+02  0.74470750000E+01 0.  1.
        -31    1    1    2    0    0  0.74086914884E-01  0.28931084301E+00  0.66628711062E+02  0.67044263390E+02  0.74470750000E+01 0.  1.
<mgrwt>
<rscale>  0 0.15001154E+02</rscale>
<asrwt>0</asrwt>
<pdfrwt beam="2">  1        2 0.99434780E+00 0.15001154E+02</pdfrwt>
<pdfrwt beam="1">  1       -2 0.99750569E+00 0.15001154E+02</pdfrwt>
<totfact>-0.89433872E-14</totfact>
</mgrwt>
</event>
<event>
 4    1 -0.4996155E-019  0.1494977E+02  0.7818608E-02  0.1869605E+00
         -2   -1    0    0    0  501 -0.00000000000E+00  0.00000000000E+00  0.11975384439E+03  0.11975384442E+03  0.25500000000E-02 0. -1.
          2   -1    0    0  501    0  0.00000000000E+00 -0.00000000000E+00 -0.46656915584E+00  0.46657612421E+00  0.25500000000E-02 0.  1.
         31    1    1    2    0    0 -0.75357888030E-01  0.50997748063E+00  0.62749711752E+02  0.63192175203E+02  0.74470750000E+01 0. -1.
        -31    1    1    2    0    0  0.75357888030E-01 -0.50997748063E+00  0.56537563480E+02  0.57028245337E+02  0.74470750000E+01 0.  1.
<mgrwt>
<rscale>  0 0.14949765E+02</rscale>
<asrwt>0</asrwt>
<pdfrwt beam="2">  1        2 0.99096353E+00 0.14949765E+02</pdfrwt>
<pdfrwt beam="1">  1       -2 0.99406655E+00 0.14949765E+02</pdfrwt>
<totfact>-0.16112516E-13</totfact>
</mgrwt>
</event>
<event>
 4    1  0.4996155E-019  0.1491185E+02  0.7818608E-02  0.1870770E+00
          2   -1    0    0  501    0  0.00000000000E+00  0.00000000000E+00  0.11989940031E+03  0.11989940034E+03  0.25500000000E-02 0.  1.
         -2   -1    0    0    0  501 -0.00000000000E+00 -0.00000000000E+00 -0.46364218398E+00  0.46364919634E+00  0.25500000000E-02 0. -1.
         31    1    1    2    0    0  0.15826029367E+00 -0.19134470406E+00  0.61857369519E+02  0.62304532331E+02  0.74470750000E+01 0. -1.
        -31    1    1    2    0    0 -0.15826029367E+00  0.19134470406E+00  0.57578388609E+02  0.58058517205E+02  0.74470750000E+01 0. -1.
<mgrwt>
<rscale>  0 0.14911853E+02</rscale>
<asrwt>0</asrwt>
<pdfrwt beam="1">  1        2 0.99524591E+00 0.14911853E+02</pdfrwt>
<pdfrwt beam="2">  1       -2 0.98477551E+00 0.14911853E+02</pdfrwt>
<totfact> 0.50260951E-13</totfact>
</mgrwt>
</event>
<event>
 4    1  0.4996155E-019  0.1493762E+02  0.7818608E-02  0.1869978E+00
          2   -1    0    0  501    0  0.00000000000E+00  0.00000000000E+00  0.11980705552E+03  0.11980705555E+03  0.25500000000E-02 0.  1.
         -2   -1    0    0    0  501 -0.00000000000E+00 -0.00000000000E+00 -0.46560442671E+00  0.46561140952E+00  0.25500000000E-02 0. -1.
         31    1    1    2    0    0 -0.40572735382E+00 -0.23864985648E+00  0.62250054701E+02  0.62695692075E+02  0.74470750000E+01 0.  1.
        -31    1    1    2    0    0  0.40572735382E+00  0.23864985648E+00  0.57091396394E+02  0.57576974884E+02  0.74470750000E+01 0. -1.
<mgrwt>
<rscale>  0 0.14937619E+02</rscale>
<asrwt>0</asrwt>
<pdfrwt beam="1">  1        2 0.99449856E+00 0.14937619E+02</pdfrwt>
<pdfrwt beam="2">  1       -2 0.98892417E+00 0.14937619E+02</pdfrwt>
<totfact> 0.81753121E-14</totfact>
</mgrwt>
</event>
<event>
 4    1 -0.4996155E-019  0.1495600E+02  0.7818608E-02  0.1869414E+00
          2   -1    0    0  501    0  0.00000000000E+00  0.00000000000E+00  0.11914760937E+03  0.11914760940E+03  0.25500000000E-02 0.  1.
         -2   -1    0    0    0  501 -0.00000000000E+00 -0.00000000000E+00 -0.46933425699E+00  0.46934118430E+00  0.25500000000E-02 0. -1.
         31    1    1    2    0    0 -0.82833739859E-01 -0.49322233573E+00  0.55661701569E+02  0.56159897411E+02  0.74470750000E+01 0. -1.
        -31    1    1    2    0    0  0.82833739859E-01  0.49322233573E+00  0.63016573545E+02  0.63457053171E+02  0.74470750000E+01 0.  1.
<mgrwt>
<rscale>  0 0.14955998E+02</rscale>
<asrwt>0</asrwt>
<pdfrwt beam="1">  1        2 0.98907664E+00 0.14955998E+02</pdfrwt>
<pdfrwt beam="2">  1       -2 0.99679362E+00 0.14955998E+02</pdfrwt>
<totfact>-0.16400468E-13</totfact>
</mgrwt>
</event>
<event>
 4    1 -0.4996155E-019  0.1500187E+02  0.7818608E-02  0.1868012E+00
          2   -1    0    0  501    0  0.00000000000E+00  0.00000000000E+00  0.11988441763E+03  0.11988441766E+03  0.25500000000E-02 0. -1.
         -2   -1    0    0    0  501 -0.00000000000E+00 -0.00000000000E+00 -0.46931521473E+00  0.46932214233E+00  0.25500000000E-02 0.  1.
         31    1    1    2    0    0  0.39482201454E+00 -0.77778033937E+00  0.61395099127E+02  0.61851256653E+02  0.74470750000E+01 0. -1.
        -31    1    1    2    0    0 -0.39482201454E+00  0.77778033937E+00  0.58020003288E+02  0.58502483146E+02  0.74470750000E+01 0. -1.
<mgrwt>
<rscale>  0 0.15001867E+02</rscale>
<asrwt>0</asrwt>
<pdfrwt beam="1">  1        2 0.99516893E+00 0.15001867E+02</pdfrwt>
<pdfrwt beam="2">  1       -2 0.99677737E+00 0.15001867E+02</pdfrwt>
<totfact>-0.98191439E-14</totfact>
</mgrwt>
</event>
<event>
 4    1 -0.4996155E-019  0.1500708E+02  0.7818608E-02  0.1867852E+00
         -2   -1    0    0    0  501 -0.00000000000E+00  0.00000000000E+00  0.12033189407E+03  0.12033189409E+03  0.25500000000E-02 0. -1.
          2   -1    0    0  501    0  0.00000000000E+00 -0.00000000000E+00 -0.46789516831E+00  0.46790211693E+00  0.25500000000E-02 0.  1.
         31    1    1    2    0    0 -0.59904643921E+00  0.55352436564E+00  0.63337252681E+02  0.63778771932E+02  0.74470750000E+01 0.  1.
        -31    1    1    2    0    0  0.59904643921E+00 -0.55352436564E+00  0.56526746216E+02  0.57021024278E+02  0.74470750000E+01 0.  1.
<mgrwt>
<rscale>  0 0.15007083E+02</rscale>
<asrwt>0</asrwt>
<pdfrwt beam="2">  1        2 0.99378747E+00 0.15007083E+02</pdfrwt>
<pdfrwt beam="1">  1       -2 0.99885723E+00 0.15007083E+02</pdfrwt>
<totfact>-0.48791807E-14</totfact>
</mgrwt>
</event>
<event>
 4    1 -0.4996155E-019  0.1490296E+02  0.7818608E-02  0.1871044E+00
          2   -1    0    0  501    0  0.00000000000E+00  0.00000000000E+00  0.11806815686E+03  0.11806815689E+03  0.25500000000E-02 0. -1.
         -2   -1    0    0    0  501 -0.00000000000E+00 -0.00000000000E+00 -0.47027225437E+00  0.47027916787E+00  0.25500000000E-02 0.  1.
         31    1    1    2    0    0  0.42663337983E-01 -0.71389430783E-03  0.56789187727E+02  0.57275409989E+02  0.74470750000E+01 0.  1.
        -31    1    1    2    0    0 -0.42663337983E-01  0.71389430783E-03  0.60808696880E+02  0.61263026067E+02  0.74470750000E+01 0. -1.
<mgrwt>
<rscale>  0 0.14902965E+02</rscale>
<asrwt>0</asrwt>
<pdfrwt beam="1">  1        2 0.98015873E+00 0.14902965E+02</pdfrwt>
<pdfrwt beam="2">  1       -2 0.99874202E+00 0.14902965E+02</pdfrwt>
<totfact>-0.31201502E-13</totfact>
</mgrwt>
</event>
<event>
 4    1 -0.4996155E-019  0.1490202E+02  0.7818608E-02  0.1871073E+00
          2   -1    0    0  501    0  0.00000000000E+00  0.00000000000E+00  0.11844752875E+03  0.11844752878E+03  0.25500000000E-02 0.  1.
         -2   -1    0    0    0  501 -0.00000000000E+00 -0.00000000000E+00 -0.46870634245E+00  0.46871327904E+00  0.25500000000E-02 0. -1.
         31    1    1    2    0    0 -0.13809544151E+00  0.12642869124E+00  0.57765041796E+02  0.58243403355E+02  0.74470750000E+01 0.  1.
        -31    1    1    2    0    0  0.13809544151E+00 -0.12642869124E+00  0.60213780609E+02  0.60672838700E+02  0.74470750000E+01 0.  1.
<mgrwt>
<rscale>  0 0.14902016E+02</rscale>
<asrwt>0</asrwt>
<pdfrwt beam="1">  1        2 0.98328269E+00 0.14902016E+02</pdfrwt>
<pdfrwt beam="2">  1       -2 0.99544222E+00 0.14902016E+02</pdfrwt>
<totfact>-0.45362324E-13</totfact>
</mgrwt>
</event>
<event>
 4    1 -0.4996155E-019  0.1495034E+02  0.7818608E-02  0.1869588E+00
          2   -1    0    0  501    0  0.00000000000E+00  0.00000000000E+00  0.11946775192E+03  0.11946775195E+03  0.25500000000E-02 0. -1.
         -2   -1    0    0    0  501 -0.00000000000E+00 -0.00000000000E+00 -0.46772220733E+00  0.46772915852E+00  0.25500000000E-02 0.  1.
         31    1    1    2    0    0  0.13144998728E+00  0.62506391175E+00  0.60350111929E+02  0.60811207190E+02  0.74470750000E+01 0.  1.
        -31    1    1    2    0    0 -0.13144998728E+00 -0.62506391175E+00  0.58649917787E+02  0.59124273919E+02  0.74470750000E+01 0.  1.
<mgrwt>
<rscale>  0 0.14950336E+02</rscale>
<asrwt>0</asrwt>
<pdfrwt beam="1">  1        2 0.99171047E+00 0.14950336E+02</pdfrwt>
<pdfrwt beam="2">  1       -2 0.99339372E+00 0.14950336E+02</pdfrwt>
<totfact>-0.14264660E-13</totfact>
</mgrwt>
</event>
<event>
 4    1 -0.4996155E-019  0.1489882E+02  0.7818608E-02  0.1871172E+00
          2   -1    0    0  501    0  0.00000000000E+00  0.00000000000E+00  0.11844981646E+03  0.11844981649E+03  0.25500000000E-02 0.  1.
         -2   -1    0    0    0  501 -0.00000000000E+00 -0.00000000000E+00 -0.46849596715E+00  0.46850290686E+00  0.25500000000E-02 0. -1.
         31    1    1    2    0    0  0.12796931160E+00  0.13372180376E+00  0.58813641452E+02  0.59283535695E+02  0.74470750000E+01 0.  1.
        -31    1    1    2    0    0 -0.12796931160E+00 -0.13372180376E+00  0.59167679046E+02  0.59634783704E+02  0.74470750000E+01 0.  1.
<mgrwt>
<rscale>  0 0.14898815E+02</rscale>
<asrwt>0</asrwt>
<pdfrwt beam="1">  1        2 0.98329987E+00 0.14898815E+02</pdfrwt>
<pdfrwt beam="2">  1       -2 0.99499726E+00 0.14898815E+02</pdfrwt>
<totfact>-0.46036136E-13</totfact>
</mgrwt>
</event>
<event>
 4    1 -0.4996155E-019  0.1499238E+02  0.7818608E-02  0.1868301E+00
          2   -1    0    0  501    0  0.00000000000E+00  0.00000000000E+00  0.11989222063E+03  0.11989222066E+03  0.25500000000E-02 0.  1.
         -2   -1    0    0    0  501 -0.00000000000E+00 -0.00000000000E+00 -0.46869139008E+00  0.46869832689E+00  0.25500000000E-02 0. -1.
         31    1    1    2    0    0  0.51938259219E+00 -0.52014570963E+00  0.63244462831E+02  0.63685644495E+02  0.74470750000E+01 0. -1.
        -31    1    1    2    0    0 -0.51938259219E+00  0.52014570963E+00  0.56179066412E+02  0.56675274493E+02  0.74470750000E+01 0. -1.
<mgrwt>
<rscale>  0 0.14992381E+02</rscale>
<asrwt>0</asrwt>
<pdfrwt beam="1">  1        2 0.99522829E+00 0.14992381E+02</pdfrwt>
<pdfrwt beam="2">  1       -2 0.99545786E+00 0.14992381E+02</pdfrwt>
<totfact>-0.11427338E-13</totfact>
</mgrwt>
</event>
<event>
 4    1 -0.4996155E-019  0.1500471E+02  0.7818608E-02  0.1867925E+00
         -2   -1    0    0    0  501 -0.00000000000E+00  0.00000000000E+00  0.11998257457E+03  0.11998257460E+03  0.25500000000E-02 0.  1.
          2   -1    0    0  501    0  0.00000000000E+00 -0.00000000000E+00 -0.46910899121E+00  0.46911592185E+00  0.25500000000E-02 0. -1.
         31    1    1    2    0    0  0.90841269664E+00  0.27407237560E-02  0.60032063927E+02  0.60499031782E+02  0.74470750000E+01 0. -1.
        -31    1    1    2    0    0 -0.90841269664E+00 -0.27407237560E-02  0.59481401650E+02  0.59952658735E+02  0.74470750000E+01 0. -1.
<mgrwt>
<rscale>  0 0.15004709E+02</rscale>
<asrwt>0</asrwt>
<pdfrwt beam="2">  1        2 0.99634426E+00 0.15004709E+02</pdfrwt>
<pdfrwt beam="1">  1       -2 0.99597885E+00 0.15004709E+02</pdfrwt>
<totfact>-0.94074585E-14</totfact>
</mgrwt>
</event>
<event>
 4    1  0.4996155E-019  0.1492614E+02  0.7818608E-02  0.1870331E+00
          2   -1    0    0  501    0  0.00000000000E+00  0.00000000000E+00  0.12033590482E+03  0.12033590484E+03  0.25500000000E-02 0. -1.
         -2   -1    0    0    0  501 -0.00000000000E+00 -0.00000000000E+00 -0.46284576354E+00  0.46285278796E+00  0.25500000000E-02 0.  1.
         31    1    1    2    0    0 -0.13264605348E+00  0.12833317253E+00  0.63595464259E+02  0.64030274595E+02  0.74470750000E+01 0. -1.
        -31    1    1    2    0    0  0.13264605348E+00 -0.12833317253E+00  0.56277594795E+02  0.56768483037E+02  0.74470750000E+01 0.  1.
<mgrwt>
<rscale>  0 0.14926137E+02</rscale>
<asrwt>0</asrwt>
<pdfrwt beam="1">  1        2 0.99884865E+00 0.14926137E+02</pdfrwt>
<pdfrwt beam="2">  1       -2 0.98310415E+00 0.14926137E+02</pdfrwt>
<totfact> 0.27032990E-13</totfact>
</mgrwt>
</event>
<event>
 4    1  0.4996155E-019  0.1492935E+02  0.7818608E-02  0.1870232E+00
         -2   -1    0    0    0  501 -0.00000000000E+00  0.00000000000E+00  0.11850582503E+03  0.11850582505E+03  0.25500000000E-02 0.  1.
          2   -1    0    0  501    0  0.00000000000E+00 -0.00000000000E+00 -0.47019566101E+00  0.47020257564E+00  0.25500000000E-02 0. -1.
         31    1    1    2    0    0 -0.23516796637E+00  0.29035421812E+00  0.56225131945E+02  0.56717404717E+02  0.74470750000E+01 0.  1.
        -31    1    1    2    0    0  0.23516796637E+00 -0.29035421812E+00  0.61810497419E+02  0.62258622912E+02  0.74470750000E+01 0.  1.
<mgrwt>
<rscale>  0 0.14929345E+02</rscale>
<asrwt>0</asrwt>
<pdfrwt beam="2">  1        2 0.99859463E+00 0.14929345E+02</pdfrwt>
<pdfrwt beam="1">  1       -2 0.98377704E+00 0.14929345E+02</pdfrwt>
<totfact> 0.27465287E-13</totfact>
</mgrwt>
</event>
<event>
 4    1 -0.4996155E-019  0.1498103E+02  0.7818608E-02  0.1868648E+00
          2   -1    0    0  501    0  0.00000000000E+00  0.00000000000E+00  0.11971840982E+03  0.11971840985E+03  0.25500000000E-02 0. -1.
         -2   -1    0    0    0  501 -0.00000000000E+00 -0.00000000000E+00 -0.46866125129E+00  0.46866818855E+00  0.25500000000E-02 0.  1.
         31    1    1    2    0    0  0.36249042291E+00 -0.16841516829E+00  0.65235600776E+02  0.65660507900E+02  0.74470750000E+01 0. -1.
        -31    1    1    2    0    0 -0.36249042291E+00  0.16841516829E+00  0.54014147791E+02  0.54526570135E+02  0.74470750000E+01 0.  1.
<mgrwt>
<rscale>  0 0.14981028E+02</rscale>
<asrwt>0</asrwt>
<pdfrwt beam="1">  1        2 0.99379085E+00 0.14981028E+02</pdfrwt>
<pdfrwt beam="2">  1       -2 0.99538847E+00 0.14981028E+02</pdfrwt>
<totfact>-0.13087316E-13</totfact>
</mgrwt>
</event>
<event>
 4    1  0.4996155E-019  0.1490650E+02  0.7818608E-02  0.1870935E+00
         -2   -1    0    0    0  501 -0.00000000000E+00  0.00000000000E+00  0.11841786317E+03  0.11841786320E+03  0.25500000000E-02 0.  1.
          2   -1    0    0  501    0  0.00000000000E+00 -0.00000000000E+00 -0.46910572068E+00  0.46911265137E+00  0.25500000000E-02 0. -1.
         31    1    1    2    0    0  0.23937931806E+00 -0.13039106718E+00  0.57913895721E+02  0.58391373917E+02  0.74470750000E+01 0. -1.
        -31    1    1    2    0    0 -0.23937931806E+00  0.13039106718E+00  0.60034861729E+02  0.60495601932E+02  0.74470750000E+01 0.  1.
<mgrwt>
<rscale>  0 0.14906497E+02</rscale>
<asrwt>0</asrwt>
<pdfrwt beam="2">  1        2 0.99628607E+00 0.14906497E+02</pdfrwt>
<pdfrwt beam="1">  1       -2 0.98304070E+00 0.14906497E+02</pdfrwt>
<totfact> 0.66814328E-13</totfact>
</mgrwt>
</event>
<event>
 4    1  0.4996155E-019  0.1494240E+02  0.7818608E-02  0.1869831E+00
          2   -1    0    0  501    0  0.00000000000E+00  0.00000000000E+00  0.12019188600E+03  0.12019188603E+03  0.25500000000E-02 0. -1.
         -2   -1    0    0    0  501 -0.00000000000E+00 -0.00000000000E+00 -0.46441089651E+00  0.46441789726E+00  0.25500000000E-02 0.  1.
         31    1    1    2    0    0  0.34941438102E+00 -0.14937726432E+00  0.63612335163E+02  0.64047892353E+02  0.74470750000E+01 0. -1.
        -31    1    1    2    0    0 -0.34941438102E+00  0.14937726432E+00  0.56115139941E+02  0.56608411571E+02  0.74470750000E+01 0.  1.
<mgrwt>
<rscale>  0 0.14942402E+02</rscale>
<asrwt>0</asrwt>
<pdfrwt beam="1">  1        2 0.99767074E+00 0.14942402E+02</pdfrwt>
<pdfrwt beam="2">  1       -2 0.98641119E+00 0.14942402E+02</pdfrwt>
<totfact> 0.19061187E-13</totfact>
</mgrwt>
</event>
<event>
 4    1  0.4996155E-019  0.1494469E+02  0.7818608E-02  0.1869761E+00
         -2   -1    0    0    0  501 -0.00000000000E+00  0.00000000000E+00  0.11881885659E+03  0.11881885661E+03  0.25500000000E-02 0. -1.
          2   -1    0    0  501    0  0.00000000000E+00 -0.00000000000E+00 -0.46992153641E+00  0.46992845507E+00  0.25500000000E-02 0.  1.
         31    1    1    2    0    0  0.43466283948E-01  0.59450493474E+00  0.57998576845E+02  0.58477766437E+02  0.74470750000E+01 0. -1.
        -31    1    1    2    0    0 -0.43466283948E-01 -0.59450493474E+00  0.60350358205E+02  0.60811018631E+02  0.74470750000E+01 0.  1.
<mgrwt>
<rscale>  0 0.14944692E+02</rscale>
<asrwt>0</asrwt>
<pdfrwt beam="2">  1        2 0.99802514E+00 0.14944692E+02</pdfrwt>
<pdfrwt beam="1">  1       -2 0.98636314E+00 0.14944692E+02</pdfrwt>
<totfact> 0.17100397E-13</totfact>
</mgrwt>
</event>
<event>
 4    1 -0.4996155E-019  0.1496207E+02  0.7818608E-02  0.1869228E+00
          2   -1    0    0  501    0  0.00000000000E+00  0.00000000000E+00  0.11925672158E+03  0.11925672160E+03  0.25500000000E-02 0.  1.
         -2   -1    0    0    0  501 -0.00000000000E+00 -0.00000000000E+00 -0.46928553327E+00  0.46929246130E+00  0.25500000000E-02 0. -1.
         31    1    1    2    0    0  0.68456388005E+00  0.66949881084E-01  0.60865612794E+02  0.61323363059E+02  0.74470750000E+01 0.  1.
        -31    1    1    2    0    0 -0.68456388005E+00 -0.66949881084E-01  0.57921823250E+02  0.58402651007E+02  0.74470750000E+01 0. -1.
<mgrwt>
<rscale>  0 0.14962068E+02</rscale>
<asrwt>0</asrwt>
<pdfrwt beam="1">  1        2 0.98997845E+00 0.14962068E+02</pdfrwt>
<pdfrwt beam="2">  1       -2 0.99669412E+00 0.14962068E+02</pdfrwt>
<totfact>-0.15223562E-13</totfact>
</mgrwt>
</event>
<event>
 4    1  0.4996155E-019  0.1490776E+02  0.7818608E-02  0.1870896E+00
          2   -1    0    0  501    0  0.00000000000E+00  0.00000000000E+00  0.12003302963E+03  0.12003302966E+03  0.25500000000E-02 0.  1.
         -2   -1    0    0    0  501 -0.00000000000E+00 -0.00000000000E+00 -0.46287160017E+00  0.46287862421E+00  0.25500000000E-02 0. -1.
         31    1    1    2    0    0 -0.11339458559E+00 -0.23602912132E+00  0.58320978417E+02  0.58795101987E+02  0.74470750000E+01 0. -1.
        -31    1    1    2    0    0  0.11339458559E+00  0.23602912132E+00  0.61249179612E+02  0.61700806294E+02  0.74470750000E+01 0.  1.
<mgrwt>
<rscale>  0 0.14907757E+02</rscale>
<asrwt>0</asrwt>
<pdfrwt beam="1">  1        2 0.99634448E+00 0.14907757E+02</pdfrwt>
<pdfrwt beam="2">  1       -2 0.98314932E+00 0.14907757E+02</pdfrwt>
<totfact> 0.64594729E-13</totfact>
</mgrwt>
</event>
<event>
 4    1 -0.4996155E-019  0.1494834E+02  0.7818608E-02  0.1869649E+00
         -2   -1    0    0    0  501 -0.00000000000E+00  0.00000000000E+00  0.11969562122E+03  0.11969562125E+03  0.25500000000E-02 0.  1.
          2   -1    0    0  501    0  0.00000000000E+00 -0.00000000000E+00 -0.46670736063E+00  0.46671432694E+00  0.25500000000E-02 0. -1.
         31    1    1    2    0    0  0.21017988755E+00 -0.57132077753E+00  0.61090974374E+02  0.61546215635E+02  0.74470750000E+01 0.  1.
        -31    1    1    2    0    0 -0.21017988755E+00  0.57132077753E+00  0.58137939490E+02  0.58616119944E+02  0.74470750000E+01 0. -1.
<mgrwt>
<rscale>  0 0.14948344E+02</rscale>
<asrwt>0</asrwt>
<pdfrwt beam="2">  1        2 0.99125405E+00 0.14948344E+02</pdfrwt>
<pdfrwt beam="1">  1       -2 0.99358626E+00 0.14948344E+02</pdfrwt>
<totfact>-0.15118859E-13</totfact>
</mgrwt>
</event>
<event>
 4    1 -0.4996155E-019  0.1500442E+02  0.7818608E-02  0.1867934E+00
          2   -1    0    0  501    0  0.00000000000E+00  0.00000000000E+00  0.12016490356E+03  0.12016490358E+03  0.25500000000E-02 0. -1.
         -2   -1    0    0    0  501 -0.00000000000E+00 -0.00000000000E+00 -0.46837943884E+00  0.46838638027E+00  0.25500000000E-02 0.  1.
         31    1    1    2    0    0 -0.16387629764E-01 -0.44402416530E+00  0.53482863527E+02  0.54000676321E+02  0.74470750000E+01 0.  1.
        -31    1    1    2    0    0  0.16387629764E-01  0.44402416530E+00  0.66213660590E+02  0.66632613642E+02  0.74470750000E+01 0. -1.
<mgrwt>
<rscale>  0 0.15004425E+02</rscale>
<asrwt>0</asrwt>
<pdfrwt beam="1">  1        2 0.99748044E+00 0.15004425E+02</pdfrwt>
<pdfrwt beam="2">  1       -2 0.99480668E+00 0.15004425E+02</pdfrwt>
<totfact>-0.78116463E-14</totfact>
</mgrwt>
</event>
<event>
 4    1 -0.4996155E-019  0.1494628E+02  0.7818608E-02  0.1869712E+00
          2   -1    0    0  501    0  0.00000000000E+00  0.00000000000E+00  0.11922156198E+03  0.11922156201E+03  0.25500000000E-02 0. -1.
         -2   -1    0    0    0  501 -0.00000000000E+00 -0.00000000000E+00 -0.46843360438E+00  0.46844054501E+00  0.25500000000E-02 0.  1.
         31    1    1    2    0    0  0.53259080882E+00 -0.26145137113E+00  0.60914168551E+02  0.61370570032E+02  0.74470750000E+01 0. -1.
        -31    1    1    2    0    0 -0.53259080882E+00  0.26145137113E+00  0.57838959825E+02  0.58319432520E+02  0.74470750000E+01 0.  1.
<mgrwt>
<rscale>  0 0.14946278E+02</rscale>
<asrwt>0</asrwt>
<pdfrwt beam="1">  1        2 0.98968068E+00 0.14946278E+02</pdfrwt>
<pdfrwt beam="2">  1       -2 0.99489071E+00 0.14946278E+02</pdfrwt>
<totfact>-0.18455879E-13</totfact>
</mgrwt>
</event>
<event>
 4    1 -0.4996155E-019  0.1501725E+02  0.7818608E-02  0.1867543E+00
         -2   -1    0    0    0  501 -0.00000000000E+00  0.00000000000E+00  0.12030325768E+03  0.12030325771E+03  0.25500000000E-02 0.  1.
          2   -1    0    0  501    0  0.00000000000E+00 -0.00000000000E+00 -0.46864068431E+00  0.46864762188E+00  0.25500000000E-02 0. -1.
         31    1    1    2    0    0  0.87042452507E+00  0.34271835371E+00  0.58203716918E+02  0.58685659951E+02  0.74470750000E+01 0.  1.
        -31    1    1    2    0    0 -0.87042452507E+00 -0.34271835371E+00  0.61630900081E+02  0.62086245382E+02  0.74470750000E+01 0. -1.
<mgrwt>
<rscale>  0 0.15017246E+02</rscale>
<asrwt>0</asrwt>
<pdfrwt beam="2">  1        2 0.99536383E+00 0.15017246E+02</pdfrwt>
<pdfrwt beam="1">  1       -2 0.99862661E+00 0.15017246E+02</pdfrwt>
<totfact>-0.49608921E-14</totfact>
</mgrwt>
</event>
<event>
 4    1  0.4996155E-019  0.1491704E+02  0.7818608E-02  0.1870611E+00
          2   -1    0    0  501    0  0.00000000000E+00  0.00000000000E+00  0.11957482595E+03  0.11957482597E+03  0.25500000000E-02 0. -1.
         -2   -1    0    0    0  501 -0.00000000000E+00 -0.00000000000E+00 -0.46522406760E+00  0.46523105611E+00  0.25500000000E-02 0.  1.
         31    1    1    2    0    0 -0.32810462912E+00  0.18505981396E+00  0.60917655372E+02  0.61372319183E+02  0.74470750000E+01 0. -1.
        -31    1    1    2    0    0  0.32810462912E+00 -0.18505981396E+00  0.58191946507E+02  0.58667737847E+02  0.74470750000E+01 0.  1.
<mgrwt>
<rscale>  0 0.14917038E+02</rscale>
<asrwt>0</asrwt>
<pdfrwt beam="1">  1        2 0.99257518E+00 0.14917038E+02</pdfrwt>
<pdfrwt beam="2">  1       -2 0.98811202E+00 0.14917038E+02</pdfrwt>
<totfact> 0.17249026E-13</totfact>
</mgrwt>
</event>
<event>
 4    1  0.4996155E-019  0.1493015E+02  0.7818608E-02  0.1870207E+00
          2   -1    0    0  501    0  0.00000000000E+00  0.00000000000E+00  0.12025895122E+03  0.12025895125E+03  0.25500000000E-02 0. -1.
         -2   -1    0    0    0  501 -0.00000000000E+00 -0.00000000000E+00 -0.46339109518E+00  0.46339811134E+00  0.25500000000E-02 0.  1.
         31    1    1    2    0    0 -0.22466038782E+00  0.59129199218E-02  0.63672380342E+02  0.64106797235E+02  0.74470750000E+01 0. -1.
        -31    1    1    2    0    0  0.22466038782E+00 -0.59129199218E-02  0.56123179787E+02  0.56615552127E+02  0.74470750000E+01 0.  1.
<mgrwt>
<rscale>  0 0.14930151E+02</rscale>
<asrwt>0</asrwt>
<pdfrwt beam="1">  1        2 0.99821685E+00 0.14930151E+02</pdfrwt>
<pdfrwt beam="2">  1       -2 0.98425558E+00 0.14930151E+02</pdfrwt>
<totfact> 0.29690860E-13</totfact>
</mgrwt>
</event>
<event>
 4    1  0.4996155E-019  0.1492137E+02  0.7818608E-02  0.1870477E+00
         -2   -1    0    0    0  501 -0.00000000000E+00  0.00000000000E+00  0.11843870290E+03  0.11843870293E+03  0.25500000000E-02 0.  1.
          2   -1    0    0  501    0  0.00000000000E+00 -0.00000000000E+00 -0.46995953906E+00  0.46996645716E+00  0.25500000000E-02 0. -1.
         31    1    1    2    0    0 -0.22611469660E+00  0.23373543462E+00  0.61467907214E+02  0.61918238859E+02  0.74470750000E+01 0.  1.
        -31    1    1    2    0    0  0.22611469660E+00 -0.23373543462E+00  0.56500836151E+02  0.56990430530E+02  0.74470750000E+01 0. -1.
<mgrwt>
<rscale>  0 0.14921369E+02</rscale>
<asrwt>0</asrwt>
<pdfrwt beam="2">  1        2 0.99809291E+00 0.14921369E+02</pdfrwt>
<pdfrwt beam="1">  1       -2 0.98322007E+00 0.14921369E+02</pdfrwt>
<totfact> 0.40125187E-13</totfact>
</mgrwt>
</event>
<event>
 4    1 -0.4996155E-019  0.1500255E+02  0.7818608E-02  0.1867991E+00
         -2   -1    0    0    0  501 -0.00000000000E+00  0.00000000000E+00  0.12020479549E+03  0.12020479552E+03  0.25500000000E-02 0.  1.
          2   -1    0    0  501    0  0.00000000000E+00 -0.00000000000E+00 -0.46810707074E+00  0.46811401622E+00  0.25500000000E-02 0. -1.
         31    1    1    2    0    0 -0.70549720552E-01 -0.86823205121E+00  0.58044666208E+02  0.58526925473E+02  0.74470750000E+01 0.  1.
        -31    1    1    2    0    0  0.70549720552E-01  0.86823205121E+00  0.61692022215E+02  0.62145984064E+02  0.74470750000E+01 0.  1.
<mgrwt>
<rscale>  0 0.15002551E+02</rscale>
<asrwt>0</asrwt>
<pdfrwt beam="2">  1        2 0.99423172E+00 0.15002551E+02</pdfrwt>
<pdfrwt beam="1">  1       -2 0.99780805E+00 0.15002551E+02</pdfrwt>
<totfact>-0.81915333E-14</totfact>
</mgrwt>
</event>
<event>
 4    1  0.4996155E-019  0.1492874E+02  0.7818608E-02  0.1870251E+00
          2   -1    0    0  501    0  0.00000000000E+00  0.00000000000E+00  0.12041227403E+03  0.12041227406E+03  0.25500000000E-02 0. -1.
         -2   -1    0    0    0  501 -0.00000000000E+00 -0.00000000000E+00 -0.46271362782E+00  0.46272065425E+00  0.25500000000E-02 0.  1.
         31    1    1    2    0    0 -0.86594318028E-01 -0.35609503769E+00  0.57128227378E+02  0.57612738102E+02  0.74470750000E+01 0.  1.
        -31    1    1    2    0    0  0.86594318028E-01  0.35609503769E+00  0.62821333029E+02  0.63262256613E+02  0.74470750000E+01 0. -1.
<mgrwt>
<rscale>  0 0.14928741E+02</rscale>
<asrwt>0</asrwt>
<pdfrwt beam="1">  1        2 0.99947903E+00 0.14928741E+02</pdfrwt>
<pdfrwt beam="2">  1       -2 0.98282696E+00 0.14928741E+02</pdfrwt>
<totfact> 0.13937093E-13</totfact>
</mgrwt>
</event>
<event>
 4    1 -0.4996155E-019  0.1493893E+02  0.7818608E-02  0.1869938E+00
          2   -1    0    0  501    0  0.00000000000E+00  0.00000000000E+00  0.11861679676E+03  0.11861679679E+03  0.25500000000E-02 0. -1.
         -2   -1    0    0    0  501 -0.00000000000E+00 -0.00000000000E+00 -0.47035944751E+00  0.47036635973E+00  0.25500000000E-02 0.  1.
         31    1    1    2    0    0  0.40452680983E+00 -0.39309411531E+00  0.58069518313E+02  0.58547809934E+02  0.74470750000E+01 0.  1.
        -31    1    1    2    0    0 -0.40452680983E+00  0.39309411531E+00  0.60076919000E+02  0.60539353213E+02  0.74470750000E+01 0. -1.
<mgrwt>
<rscale>  0 0.14938935E+02</rscale>
<asrwt>0</asrwt>
<pdfrwt beam="1">  1        2 0.98469599E+00 0.14938935E+02</pdfrwt>
<pdfrwt beam="2">  1       -2 0.99894479E+00 0.14938935E+02</pdfrwt>
<totfact>-0.12454511E-13</totfact>
</mgrwt>
</event>
<event>
 4    1 -0.4996155E-019  0.1491167E+02  0.7818608E-02  0.1870776E+00
         -2   -1    0    0    0  501 -0.00000000000E+00  0.00000000000E+00  0.12026974399E+03  0.12026974402E+03  0.25500000000E-02 0.  1.
          2   -1    0    0  501    0  0.00000000000E+00 -0.00000000000E+00 -0.46220330348E+00  0.46221033767E+00  0.25500000000E-02 0. -1.
         31    1    1    2    0    0 -0.35417576693E+00  0.33660693310E-01  0.60415815030E+02  0.60874101269E+02  0.74470750000E+01 0. -1.
        -31    1    1    2    0    0  0.35417576693E+00 -0.33660693310E-01  0.59391725660E+02  0.59857853089E+02  0.74470750000E+01 0.  1.
<mgrwt>
<rscale>  0 0.14911673E+02</rscale>
<asrwt>0</asrwt>
<pdfrwt beam="2">  1        2 0.98174272E+00 0.14911673E+02</pdfrwt>
<pdfrwt beam="1">  1       -2 0.99829627E+00 0.14911673E+02</pdfrwt>
<totfact>-0.31183393E-13</totfact>
</mgrwt>
</event>
<event>
 4    1 -0.4996155E-019  0.1491190E+02  0.7818608E-02  0.1870769E+00
          2   -1    0    0  501    0  0.00000000000E+00  0.00000000000E+00  0.11844146704E+03  0.11844146707E+03  0.25500000000E-02 0.  1.
         -2   -1    0    0    0  501 -0.00000000000E+00 -0.00000000000E+00 -0.46935222601E+00  0.46935915306E+00  0.25500000000E-02 0. -1.
         31    1    1    2    0    0 -0.18682364410E+00 -0.30843390541E+00  0.59361700650E+02  0.59828090933E+02  0.74470750000E+01 0.  1.
        -31    1    1    2    0    0  0.18682364410E+00  0.30843390541E+00  0.58610414164E+02  0.59082735288E+02  0.74470750000E+01 0.  1.
<mgrwt>
<rscale>  0 0.14911899E+02</rscale>
<asrwt>0</asrwt>
<pdfrwt beam="1">  1        2 0.98323791E+00 0.14911899E+02</pdfrwt>
<pdfrwt beam="2">  1       -2 0.99680831E+00 0.14911899E+02</pdfrwt>
<totfact>-0.38742245E-13</totfact>
</mgrwt>
</event>
<event>
 4    1 -0.4996155E-019  0.1494425E+02  0.7818608E-02  0.1869774E+00
          2   -1    0    0  501    0  0.00000000000E+00  0.00000000000E+00  0.11893695005E+03  0.11893695008E+03  0.25500000000E-02 0. -1.
         -2   -1    0    0    0  501 -0.00000000000E+00 -0.00000000000E+00 -0.46942724646E+00  0.46943417240E+00  0.25500000000E-02 0.  1.
         31    1    1    2    0    0  0.60810297099E+00  0.49299575016E-01  0.58922826608E+02  0.59394702131E+02  0.74470750000E+01 0. -1.
        -31    1    1    2    0    0 -0.60810297099E+00 -0.49299575016E-01  0.59544696195E+02  0.60011682118E+02  0.74470750000E+01 0. -1.
<mgrwt>
<rscale>  0 0.14944251E+02</rscale>
<asrwt>0</asrwt>
<pdfrwt beam="1">  1        2 0.98733553E+00 0.14944251E+02</pdfrwt>
<pdfrwt beam="2">  1       -2 0.99698341E+00 0.14944251E+02</pdfrwt>
<totfact>-0.19597111E-13</totfact>
</mgrwt>
</event>
<event>
 4    1 -0.4996155E-019  0.1493653E+02  0.7818608E-02  0.1870012E+00
          2   -1    0    0  501    0  0.00000000000E+00  0.00000000000E+00  0.11902820401E+03  0.11902820404E+03  0.25500000000E-02 0.  1.
         -2   -1    0    0    0  501 -0.00000000000E+00 -0.00000000000E+00 -0.46858276863E+00  0.46858970705E+00  0.25500000000E-02 0. -1.
         31    1    1    2    0    0  0.17972063515E+00 -0.34651422242E+00  0.56043057865E+02  0.56537028862E+02  0.74470750000E+01 0. -1.
        -31    1    1    2    0    0 -0.17972063515E+00  0.34651422242E+00  0.62516563379E+02  0.62959764885E+02  0.74470750000E+01 0.  1.
<mgrwt>
<rscale>  0 0.14936530E+02</rscale>
<asrwt>0</asrwt>
<pdfrwt beam="1">  1        2 0.98808310E+00 0.14936530E+02</pdfrwt>
<pdfrwt beam="2">  1       -2 0.99519994E+00 0.14936530E+02</pdfrwt>
<totfact>-0.21953779E-13</totfact>
</mgrwt>
</event>
<event>
 4    1 -0.4996155E-019  0.1493993E+02  0.7818608E-02  0.1869907E+00
         -2   -1    0    0    0  501 -0.00000000000E+00  0.00000000000E+00  0.11990491420E+03  0.11990491422E+03  0.25500000000E-02 0. -1.
          2   -1    0    0  501    0  0.00000000000E+00 -0.00000000000E+00 -0.46536859196E+00  0.46537557831E+00  0.25500000000E-02 0.  1.
         31    1    1    2    0    0  0.49126755000E+00 -0.16648768545E+00  0.57551642097E+02  0.58033778923E+02  0.74470750000E+01 0. -1.
        -31    1    1    2    0    0 -0.49126755000E+00  0.16648768545E+00  0.61887903507E+02  0.62336510878E+02  0.74470750000E+01 0.  1.
<mgrwt>
<rscale>  0 0.14939933E+02</rscale>
<asrwt>0</asrwt>
<pdfrwt beam="2">  1        2 0.98842834E+00 0.14939933E+02</pdfrwt>
<pdfrwt beam="1">  1       -2 0.99530577E+00 0.14939933E+02</pdfrwt>
<totfact>-0.20941981E-13</totfact>
</mgrwt>
</event>
<event>
 4    1  0.4996155E-019  0.1492548E+02  0.7818608E-02  0.1870351E+00
          2   -1    0    0  501    0  0.00000000000E+00  0.00000000000E+00  0.12011674998E+03  0.12011675001E+03  0.25500000000E-02 0. -1.
         -2   -1    0    0    0  501 -0.00000000000E+00 -0.00000000000E+00 -0.46364923550E+00  0.46365624775E+00  0.25500000000E-02 0.  1.
         31    1    1    2    0    0  0.28205177076E+00  0.15706028778E+00  0.56921353807E+02  0.57407348540E+02  0.74470750000E+01 0.  1.
        -31    1    1    2    0    0 -0.28205177076E+00 -0.15706028778E+00  0.62731746941E+02  0.63173057718E+02  0.74470750000E+01 0. -1.
<mgrwt>
<rscale>  0 0.14925477E+02</rscale>
<asrwt>0</asrwt>
<pdfrwt beam="1">  1        2 0.99704316E+00 0.14925477E+02</pdfrwt>
<pdfrwt beam="2">  1       -2 0.98479729E+00 0.14925477E+02</pdfrwt>
<totfact> 0.37500580E-13</totfact>
</mgrwt>
</event>
<event>
 4    1 -0.4996155E-019  0.1497488E+02  0.7818608E-02  0.1868836E+00
         -2   -1    0    0    0  501 -0.00000000000E+00  0.00000000000E+00  0.12020004483E+03  0.12020004485E+03  0.25500000000E-02 0. -1.
          2   -1    0    0  501    0  0.00000000000E+00 -0.00000000000E+00 -0.46640001677E+00  0.46640698766E+00  0.25500000000E-02 0.  1.
         31    1    1    2    0    0 -0.64396827556E+00  0.18995834207E+00  0.63008584858E+02  0.63450701109E+02  0.74470750000E+01 0. -1.
        -31    1    1    2    0    0  0.64396827556E+00 -0.18995834207E+00  0.56725059953E+02  0.57215750734E+02  0.74470750000E+01 0.  1.
<mgrwt>
<rscale>  0 0.14974876E+02</rscale>
<asrwt>0</asrwt>
<pdfrwt beam="2">  1        2 0.99061996E+00 0.14974876E+02</pdfrwt>
<pdfrwt beam="1">  1       -2 0.99775465E+00 0.14974876E+02</pdfrwt>
<totfact>-0.10991590E-13</totfact>
</mgrwt>
</event>
<event>
 4    1 -0.4996155E-019  0.1500335E+02  0.7818608E-02  0.1867966E+00
          2   -1    0    0  501    0  0.00000000000E+00  0.00000000000E+00  0.12026582878E+03  0.12026582881E+03  0.25500000000E-02 0.  1.
         -2   -1    0    0    0  501 -0.00000000000E+00 -0.00000000000E+00 -0.46791958578E+00  0.46792653404E+00  0.25500000000E-02 0. -1.
         31    1    1    2    0    0 -0.49327024115E-01 -0.59039876992E+00  0.65387702057E+02  0.65813080084E+02  0.74470750000E+01 0.  1.
        -31    1    1    2    0    0  0.49327024115E-01  0.59039876992E+00  0.54410207137E+02  0.54920675257E+02  0.74470750000E+01 0. -1.
<mgrwt>
<rscale>  0 0.15003354E+02</rscale>
<asrwt>0</asrwt>
<pdfrwt beam="1">  1        2 0.99831116E+00 0.15003354E+02</pdfrwt>
<pdfrwt beam="2">  1       -2 0.99383702E+00 0.15003354E+02</pdfrwt>
<totfact>-0.55338559E-14</totfact>
</mgrwt>
</event>
<event>
 4    1  0.4996155E-019  0.1490185E+02  0.7818608E-02  0.1871078E+00
         -2   -1    0    0    0  501 -0.00000000000E+00  0.00000000000E+00  0.11822287452E+03  0.11822287455E+03  0.25500000000E-02 0. -1.
          2   -1    0    0  501    0  0.00000000000E+00 -0.00000000000E+00 -0.46958661812E+00  0.46959354171E+00  0.25500000000E-02 0.  1.
         31    1    1    2    0    0  0.91069113598E-01  0.21644560273E+00  0.59252266443E+02  0.59718884342E+02  0.74470750000E+01 0.  1.
        -31    1    1    2    0    0 -0.91069113598E-01 -0.21644560273E+00  0.58501021457E+02  0.58973583746E+02  0.74470750000E+01 0. -1.
<mgrwt>
<rscale>  0 0.14901851E+02</rscale>
<asrwt>0</asrwt>
<pdfrwt beam="2">  1        2 0.99729686E+00 0.14901851E+02</pdfrwt>
<pdfrwt beam="1">  1       -2 0.98143237E+00 0.14901851E+02</pdfrwt>
<totfact> 0.75276085E-13</totfact>
</mgrwt>
</event>
<event>
 4    1  0.4996155E-019  0.1489878E+02  0.7818608E-02  0.1871173E+00
          2   -1    0    0  501    0  0.00000000000E+00  0.00000000000E+00  0.11965884218E+03  0.11965884221E+03  0.25500000000E-02 0.  1.
         -2   -1    0    0    0  501 -0.00000000000E+00 -0.00000000000E+00 -0.46375995468E+00  0.46376696526E+00  0.25500000000E-02 0. -1.
         31    1    1    2    0    0  0.37377445075E-01  0.18007251788E+00  0.59803521123E+02  0.60265694122E+02  0.74470750000E+01 0. -1.
        -31    1    1    2    0    0 -0.37377445075E-01 -0.18007251788E+00  0.59391561102E+02  0.59856915051E+02  0.74470750000E+01 0. -1.
<mgrwt>
<rscale>  0 0.14898779E+02</rscale>
<asrwt>0</asrwt>
<pdfrwt beam="1">  1        2 0.99325778E+00 0.14898779E+02</pdfrwt>
<pdfrwt beam="2">  1       -2 0.98501705E+00 0.14898779E+02</pdfrwt>
<totfact> 0.55916751E-13</totfact>
</mgrwt>
</event>
<event>
 4    1 -0.4996155E-019  0.1491804E+02  0.7818608E-02  0.1870580E+00
         -2   -1    0    0    0  501 -0.00000000000E+00  0.00000000000E+00  0.11992009224E+03  0.11992009226E+03  0.25500000000E-02 0. -1.
          2   -1    0    0  501    0  0.00000000000E+00 -0.00000000000E+00 -0.46394675283E+00  0.46395376058E+00  0.25500000000E-02 0.  1.
         31    1    1    2    0    0 -0.34915941602E+00 -0.13378120103E+00  0.61305798041E+02  0.61757587462E+02  0.74470750000E+01 0.  1.
        -31    1    1    2    0    0  0.34915941602E+00  0.13378120103E+00  0.58150347442E+02  0.58626458561E+02  0.74470750000E+01 0.  1.
<mgrwt>
<rscale>  0 0.14918038E+02</rscale>
<asrwt>0</asrwt>
<pdfrwt beam="2">  1        2 0.98542056E+00 0.14918038E+02</pdfrwt>
<pdfrwt beam="1">  1       -2 0.99541952E+00 0.14918038E+02</pdfrwt>
<totfact>-0.31923035E-13</totfact>
</mgrwt>
</event>
<event>
 4    1  0.4996155E-019  0.1490690E+02  0.7818608E-02  0.1870923E+00
         -2   -1    0    0    0  501 -0.00000000000E+00  0.00000000000E+00  0.11884641520E+03  0.11884641523E+03  0.25500000000E-02 0.  1.
          2   -1    0    0  501    0  0.00000000000E+00 -0.00000000000E+00 -0.46743936907E+00  0.46744632447E+00  0.25500000000E-02 0. -1.
         31    1    1    2    0    0 -0.12193997907E+00 -0.12973845413E+00  0.57176017972E+02  0.57659237409E+02  0.74470750000E+01 0. -1.
        -31    1    1    2    0    0  0.12193997907E+00  0.12973845413E+00  0.61202957859E+02  0.61654624142E+02  0.74470750000E+01 0.  1.
<mgrwt>
<rscale>  0 0.14906899E+02</rscale>
<asrwt>0</asrwt>
<pdfrwt beam="2">  1        2 0.99277512E+00 0.14906899E+02</pdfrwt>
<pdfrwt beam="1">  1       -2 0.98657049E+00 0.14906899E+02</pdfrwt>
<totfact> 0.34959535E-13</totfact>
</mgrwt>
</event>
<event>
 4    1 -0.4996155E-019  0.1495120E+02  0.7818608E-02  0.1869561E+00
          2   -1    0    0  501    0  0.00000000000E+00  0.00000000000E+00  0.11920079071E+03  0.11920079074E+03  0.25500000000E-02 0.  1.
         -2   -1    0    0    0  501 -0.00000000000E+00 -0.00000000000E+00 -0.46882388662E+00  0.46883082148E+00  0.25500000000E-02 0. -1.
         31    1    1    2    0    0 -0.23161357094E+00  0.58011170164E+00  0.57858037243E+02  0.58338679914E+02  0.74470750000E+01 0. -1.
        -31    1    1    2    0    0  0.23161357094E+00 -0.58011170164E+00  0.60873929585E+02  0.61330941649E+02  0.74470750000E+01 0. -1.
<mgrwt>
<rscale>  0 0.14951200E+02</rscale>
<asrwt>0</asrwt>
<pdfrwt beam="1">  1        2 0.98951216E+00 0.14951200E+02</pdfrwt>
<pdfrwt beam="2">  1       -2 0.99571568E+00 0.14951200E+02</pdfrwt>
<totfact>-0.18067302E-13</totfact>
</mgrwt>
</event>
<event>
 4    1  0.4996155E-019  0.1495191E+02  0.7818608E-02  0.1869539E+00
         -2   -1    0    0    0  501 -0.00000000000E+00  0.00000000000E+00  0.11879068916E+03  0.11879068919E+03  0.25500000000E-02 0. -1.
          2   -1    0    0  501    0  0.00000000000E+00 -0.00000000000E+00 -0.47048726483E+00  0.47049417517E+00  0.25500000000E-02 0.  1.
         31    1    1    2    0    0  0.40773780989E+00  0.33633423300E+00  0.56054216774E+02  0.56549213213E+02  0.74470750000E+01 0. -1.
        -31    1    1    2    0    0 -0.40773780989E+00 -0.33633423300E+00  0.62265985121E+02  0.62711970149E+02  0.74470750000E+01 0. -1.
<mgrwt>
<rscale>  0 0.14951912E+02</rscale>
<asrwt>0</asrwt>
<pdfrwt beam="2">  1        2 0.99922095E+00 0.14951912E+02</pdfrwt>
<pdfrwt beam="1">  1       -2 0.98613491E+00 0.14951912E+02</pdfrwt>
<totfact> 0.83450616E-14</totfact>
</mgrwt>
</event>
<event>
 4    1  0.4996155E-019  0.1491096E+02  0.7818608E-02  0.1870798E+00
          2   -1    0    0  501    0  0.00000000000E+00  0.00000000000E+00  0.12019341651E+03  0.12019341654E+03  0.25500000000E-02 0.  1.
         -2   -1    0    0    0  501 -0.00000000000E+00 -0.00000000000E+00 -0.46245242342E+00  0.46245945382E+00  0.25500000000E-02 0. -1.
         31    1    1    2    0    0  0.18616279460E+00 -0.19430546783E+00  0.58005692822E+02  0.58482405362E+02  0.74470750000E+01 0. -1.
        -31    1    1    2    0    0 -0.18616279460E+00  0.19430546783E+00  0.61725271266E+02  0.62173470630E+02  0.74470750000E+01 0. -1.
<mgrwt>
<rscale>  0 0.14910957E+02</rscale>
<asrwt>0</asrwt>
<pdfrwt beam="1">  1        2 0.99766720E+00 0.14910957E+02</pdfrwt>
<pdfrwt beam="2">  1       -2 0.98226744E+00 0.14910957E+02</pdfrwt>
<totfact> 0.57426887E-13</totfact>
</mgrwt>
</event>
<event>
 4    1 -0.4996155E-019  0.1503048E+02  0.7818608E-02  0.1867140E+00
         -2   -1    0    0    0  501 -0.00000000000E+00  0.00000000000E+00  0.12015164820E+03  0.12015164823E+03  0.25500000000E-02 0. -1.
          2   -1    0    0  501    0  0.00000000000E+00 -0.00000000000E+00 -0.47005924741E+00  0.47006616404E+00  0.25500000000E-02 0.  1.
         31    1    1    2    0    0  0.66771758487E+00 -0.46502450851E+00  0.55040501717E+02  0.55547977910E+02  0.74470750000E+01 0.  1.
        -31    1    1    2    0    0 -0.66771758487E+00  0.46502450851E+00  0.64641087235E+02  0.65073736481E+02  0.74470750000E+01 0. -1.
<mgrwt>
<rscale>  0 0.15030477E+02</rscale>
<asrwt>0</asrwt>
<pdfrwt beam="2">  1        2 0.99836010E+00 0.15030477E+02</pdfrwt>
<pdfrwt beam="1">  1       -2 0.99738473E+00 0.15030477E+02</pdfrwt>
<totfact>-0.40774359E-14</totfact>
</mgrwt>
</event>
<event>
 4    1  0.4996155E-019  0.1491186E+02  0.7818608E-02  0.1870770E+00
         -2   -1    0    0    0  501 -0.00000000000E+00  0.00000000000E+00  0.11832414144E+03  0.11832414147E+03  0.25500000000E-02 0.  1.
          2   -1    0    0  501    0  0.00000000000E+00 -0.00000000000E+00 -0.46981492599E+00  0.46982184621E+00  0.25500000000E-02 0. -1.
         31    1    1    2    0    0  0.11056878666E+00  0.23324559153E+00  0.60962973312E+02  0.61416688856E+02  0.74470750000E+01 0. -1.
        -31    1    1    2    0    0 -0.11056878666E+00 -0.23324559153E+00  0.56891353205E+02  0.57377274460E+02  0.74470750000E+01 0. -1.
<mgrwt>
<rscale>  0 0.14911856E+02</rscale>
<asrwt>0</asrwt>
<pdfrwt beam="2">  1        2 0.99778319E+00 0.14911856E+02</pdfrwt>
<pdfrwt beam="1">  1       -2 0.98227160E+00 0.14911856E+02</pdfrwt>
<totfact> 0.55226781E-13</totfact>
</mgrwt>
</event>
<event>
 4    1 -0.4996155E-019  0.1500010E+02  0.7818608E-02  0.1868066E+00
         -2   -1    0    0    0  501 -0.00000000000E+00  0.00000000000E+00  0.11975747572E+03  0.11975747575E+03  0.25500000000E-02 0.  1.
          2   -1    0    0  501    0  0.00000000000E+00 -0.00000000000E+00 -0.46970181800E+00  0.46970873989E+00  0.25500000000E-02 0. -1.
         31    1    1    2    0    0  0.48670766239E+00  0.56662331925E+00  0.63519824479E+02  0.63959244635E+02  0.74470750000E+01 0.  1.
        -31    1    1    2    0    0 -0.48670766239E+00 -0.56662331925E+00  0.55767949425E+02  0.56267939855E+02  0.74470750000E+01 0. -1.
<mgrwt>
<rscale>  0 0.15000096E+02</rscale>
<asrwt>0</asrwt>
<pdfrwt beam="2">  1        2 0.99759113E+00 0.15000096E+02</pdfrwt>
<pdfrwt beam="1">  1       -2 0.99412248E+00 0.15000096E+02</pdfrwt>
<totfact>-0.74342791E-14</totfact>
</mgrwt>
</event>
<event>
 4    1 -0.4996155E-019  0.1501800E+02  0.7818608E-02  0.1867520E+00
         -2   -1    0    0    0  501 -0.00000000000E+00  0.00000000000E+00  0.12008048035E+03  0.12008048038E+03  0.25500000000E-02 0.  1.
          2   -1    0    0  501    0  0.00000000000E+00 -0.00000000000E+00 -0.46955739676E+00  0.46956432078E+00  0.25500000000E-02 0. -1.
         31    1    1    2    0    0  0.47342250601E+00  0.33198515828E+00  0.65980687333E+02  0.66402141306E+02  0.74470750000E+01 0.  1.
        -31    1    1    2    0    0 -0.47342250601E+00 -0.33198515828E+00  0.53630235625E+02  0.54147903396E+02  0.74470750000E+01 0. -1.
<mgrwt>
<rscale>  0 0.15018002E+02</rscale>
<asrwt>0</asrwt>
<pdfrwt beam="2">  1        2 0.99729608E+00 0.15018002E+02</pdfrwt>
<pdfrwt beam="1">  1       -2 0.99679211E+00 0.15018002E+02</pdfrwt>
<totfact>-0.68494867E-14</totfact>
</mgrwt>
</event>
<event>
 4    1  0.4996155E-019  0.1492173E+02  0.7818608E-02  0.1870466E+00
         -2   -1    0    0    0  501 -0.00000000000E+00  0.00000000000E+00  0.11866402364E+03  0.11866402367E+03  0.25500000000E-02 0. -1.
          2   -1    0    0  501    0  0.00000000000E+00 -0.00000000000E+00 -0.46909012016E+00  0.46909705108E+00  0.25500000000E-02 0.  1.
         31    1    1    2    0    0  0.14095160523E+00 -0.14958853252E+00  0.55870508579E+02  0.56365014850E+02  0.74470750000E+01 0.  1.
        -31    1    1    2    0    0 -0.14095160523E+00  0.14958853252E+00  0.62324424942E+02  0.62768105870E+02  0.74470750000E+01 0. -1.
<mgrwt>
<rscale>  0 0.14921734E+02</rscale>
<asrwt>0</asrwt>
<pdfrwt beam="2">  1        2 0.99626123E+00 0.14921734E+02</pdfrwt>
<pdfrwt beam="1">  1       -2 0.98507600E+00 0.14921734E+02</pdfrwt>
<totfact> 0.40327732E-13</totfact>
</mgrwt>
</event>
<event>
 4    1 -0.4996155E-019  0.1500015E+02  0.7818608E-02  0.1868064E+00
          2   -1    0    0  501    0  0.00000000000E+00  0.00000000000E+00  0.12011658368E+03  0.12011658371E+03  0.25500000000E-02 0. -1.
         -2   -1    0    0    0  501 -0.00000000000E+00 -0.00000000000E+00 -0.46830113971E+00  0.46830808231E+00  0.25500000000E-02 0.  1.
         31    1    1    2    0    0  0.80858788061E-01  0.49043405368E+00  0.65759685834E+02  0.66181887785E+02  0.74470750000E+01 0. -1.
        -31    1    1    2    0    0 -0.80858788061E-01 -0.49043405368E+00  0.53888596706E+02  0.54403004004E+02  0.74470750000E+01 0.  1.
<mgrwt>
<rscale>  0 0.15000154E+02</rscale>
<asrwt>0</asrwt>
<pdfrwt beam="1">  1        2 0.99708025E+00 0.15000154E+02</pdfrwt>
<pdfrwt beam="2">  1       -2 0.99463947E+00 0.15000154E+02</pdfrwt>
<totfact>-0.86622661E-14</totfact>
</mgrwt>
</event>
<event>
 4    1 -0.4996155E-019  0.1499764E+02  0.7818608E-02  0.1868141E+00
         -2   -1    0    0    0  501 -0.00000000000E+00  0.00000000000E+00  0.11982910602E+03  0.11982910605E+03  0.25500000000E-02 0. -1.
          2   -1    0    0  501    0  0.00000000000E+00 -0.00000000000E+00 -0.46926721637E+00  0.46927414467E+00  0.25500000000E-02 0.  1.
         31    1    1    2    0    0 -0.67255586610E+00  0.56637821907E+00  0.59806147428E+02  0.60274433319E+02  0.74470750000E+01 0. -1.
        -31    1    1    2    0    0  0.67255586610E+00 -0.56637821907E+00  0.59553691375E+02  0.60023946872E+02  0.74470750000E+01 0. -1.
<mgrwt>
<rscale>  0 0.14997638E+02</rscale>
<asrwt>0</asrwt>
<pdfrwt beam="2">  1        2 0.99667403E+00 0.14997638E+02</pdfrwt>
<pdfrwt beam="1">  1       -2 0.99471118E+00 0.14997638E+02</pdfrwt>
<totfact>-0.94478782E-14</totfact>
</mgrwt>
</event>
<event>
 4    1 -0.4996155E-019  0.1490621E+02  0.7818608E-02  0.1870944E+00
          2   -1    0    0  501    0  0.00000000000E+00  0.00000000000E+00  0.11830686033E+03  0.11830686036E+03  0.25500000000E-02 0.  1.
         -2   -1    0    0    0  501 -0.00000000000E+00 -0.00000000000E+00 -0.46952759958E+00  0.46953452404E+00  0.25500000000E-02 0. -1.
         31    1    1    2    0    0 -0.22039217288E+00 -0.14136675450E+00  0.57756675583E+02  0.58235393514E+02  0.74470750000E+01 0. -1.
        -31    1    1    2    0    0  0.22039217288E+00  0.14136675450E+00  0.60080657149E+02  0.60541001369E+02  0.74470750000E+01 0. -1.
<mgrwt>
<rscale>  0 0.14906207E+02</rscale>
<asrwt>0</asrwt>
<pdfrwt beam="1">  1        2 0.98212634E+00 0.14906207E+02</pdfrwt>
<pdfrwt beam="2">  1       -2 0.99717481E+00 0.14906207E+02</pdfrwt>
<totfact>-0.43200308E-13</totfact>
</mgrwt>
</event>
<event>
 4    1  0.4996155E-019  0.1492174E+02  0.7818608E-02  0.1870466E+00
          2   -1    0    0  501    0  0.00000000000E+00  0.00000000000E+00  0.12027200930E+03  0.12027200933E+03  0.25500000000E-02 0.  1.
         -2   -1    0    0    0  501 -0.00000000000E+00 -0.00000000000E+00 -0.46281883147E+00  0.46282585631E+00  0.25500000000E-02 0. -1.
         31    1    1    2    0    0  0.18177744295E+00 -0.39905693827E+00  0.60839854865E+02  0.61295506814E+02  0.74470750000E+01 0.  1.
        -31    1    1    2    0    0 -0.18177744295E+00  0.39905693827E+00  0.58969335606E+02  0.59439328373E+02  0.74470750000E+01 0.  1.
<mgrwt>
<rscale>  0 0.14921739E+02</rscale>
<asrwt>0</asrwt>
<pdfrwt beam="1">  1        2 0.99832009E+00 0.14921739E+02</pdfrwt>
<pdfrwt beam="2">  1       -2 0.98304517E+00 0.14921739E+02</pdfrwt>
<totfact> 0.37687211E-13</totfact>
</mgrwt>
</event>
<event>
 4    1  0.4996155E-019  0.1490944E+02  0.7818608E-02  0.1870844E+00
          2   -1    0    0  501    0  0.00000000000E+00  0.00000000000E+00  0.12037798989E+03  0.12037798992E+03  0.25500000000E-02 0.  1.
         -2   -1    0    0    0  501 -0.00000000000E+00 -0.00000000000E+00 -0.46164965802E+00  0.46165670064E+00  0.25500000000E-02 0. -1.
         31    1    1    2    0    0 -0.13437191108E+00 -0.60684639391E-01  0.62419454305E+02  0.62862301423E+02  0.74470750000E+01 0.  1.
        -31    1    1    2    0    0  0.13437191108E+00  0.60684639391E-01  0.57496885926E+02  0.57977345194E+02  0.74470750000E+01 0. -1.
<mgrwt>
<rscale>  0 0.14909445E+02</rscale>
<asrwt>0</asrwt>
<pdfrwt beam="1">  1        2 0.99918675E+00 0.14909445E+02</pdfrwt>
<pdfrwt beam="2">  1       -2 0.98057463E+00 0.14909445E+02</pdfrwt>
<totfact> 0.32635613E-13</totfact>
</mgrwt>
</event>
<event>
 4    1 -0.4996155E-019  0.1500972E+02  0.7818608E-02  0.1867772E+00
         -2   -1    0    0    0  501 -0.00000000000E+00  0.00000000000E+00  0.11973099614E+03  0.11973099617E+03  0.25500000000E-02 0. -1.
          2   -1    0    0  501    0  0.00000000000E+00 -0.00000000000E+00 -0.47040903195E+00  0.47041594344E+00  0.25500000000E-02 0.  1.
         31    1    1    2    0    0  0.27154610176E-01 -0.11738571795E+00  0.52249166719E+02  0.52777351825E+02  0.74470750000E+01 0.  1.
        -31    1    1    2    0    0 -0.27154610176E-01  0.11738571795E+00  0.67011420394E+02  0.67424060290E+02  0.74470750000E+01 0. -1.
<mgrwt>
<rscale>  0 0.15009725E+02</rscale>
<asrwt>0</asrwt>
<pdfrwt beam="2">  1        2 0.99908641E+00 0.15009725E+02</pdfrwt>
<pdfrwt beam="1">  1       -2 0.99390938E+00 0.15009725E+02</pdfrwt>
<totfact>-0.32805473E-14</totfact>
</mgrwt>
</event>
<event>
 4    1  0.4996155E-019  0.1495317E+02  0.7818608E-02  0.1869501E+00
         -2   -1    0    0    0  501 -0.00000000000E+00  0.00000000000E+00  0.11905742090E+03  0.11905742093E+03  0.25500000000E-02 0. -1.
          2   -1    0    0  501    0  0.00000000000E+00 -0.00000000000E+00 -0.46951202597E+00  0.46951895066E+00  0.25500000000E-02 0.  1.
         31    1    1    2    0    0  0.59525058729E+00 -0.23522318009E+00  0.60695132903E+02  0.61153640426E+02  0.74470750000E+01 0. -1.
        -31    1    1    2    0    0 -0.59525058729E+00  0.23522318009E+00  0.57892775976E+02  0.58373299457E+02  0.74470750000E+01 0.  1.
<mgrwt>
<rscale>  0 0.14953168E+02</rscale>
<asrwt>0</asrwt>
<pdfrwt beam="2">  1        2 0.99716672E+00 0.14953168E+02</pdfrwt>
<pdfrwt beam="1">  1       -2 0.98833237E+00 0.14953168E+02</pdfrwt>
<totfact> 0.87626893E-14</totfact>
</mgrwt>
</event>
<event>
 4    1 -0.4996155E-019  0.1494984E+02  0.7818608E-02  0.1869603E+00
          2   -1    0    0  501    0  0.00000000000E+00  0.00000000000E+00  0.11912748064E+03  0.11912748067E+03  0.25500000000E-02 0.  1.
         -2   -1    0    0    0  501 -0.00000000000E+00 -0.00000000000E+00 -0.46902717234E+00  0.46903410419E+00  0.25500000000E-02 0. -1.
         31    1    1    2    0    0 -0.24382815547E-01 -0.47774109758E+00  0.55872731605E+02  0.56368873451E+02  0.74470750000E+01 0. -1.
        -31    1    1    2    0    0  0.24382815547E-01  0.47774109758E+00  0.62785721865E+02  0.63227641323E+02  0.74470750000E+01 0.  1.
<mgrwt>
<rscale>  0 0.14949842E+02</rscale>
<asrwt>0</asrwt>
<pdfrwt beam="1">  1        2 0.98890766E+00 0.14949842E+02</pdfrwt>
<pdfrwt beam="2">  1       -2 0.99614332E+00 0.14949842E+02</pdfrwt>
<totfact>-0.18472921E-13</totfact>
</mgrwt>
</event>
<event>
 4    1  0.4996155E-019  0.1491131E+02  0.7818608E-02  0.1870787E+00
          2   -1    0    0  501    0  0.00000000000E+00  0.00000000000E+00  0.12011596383E+03  0.12011596386E+03  0.25500000000E-02 0. -1.
         -2   -1    0    0    0  501 -0.00000000000E+00 -0.00000000000E+00 -0.46277234557E+00  0.46277937111E+00  0.25500000000E-02 0.  1.
         31    1    1    2    0    0  0.49804987372E-01 -0.29725601727E+00  0.61382124777E+02  0.61832960545E+02  0.74470750000E+01 0.  1.
        -31    1    1    2    0    0 -0.49804987372E-01  0.29725601727E+00  0.58271066709E+02  0.58745782684E+02  0.74470750000E+01 0.  1.
<mgrwt>
<rscale>  0 0.14911307E+02</rscale>
<asrwt>0</asrwt>
<pdfrwt beam="1">  1        2 0.99702941E+00 0.14911307E+02</pdfrwt>
<pdfrwt beam="2">  1       -2 0.98294192E+00 0.14911307E+02</pdfrwt>
<totfact> 0.59147652E-13</totfact>
</mgrwt>
</event>
<event>
 4    1 -0.4996155E-019  0.1493716E+02  0.7818608E-02  0.1869992E+00
         -2   -1    0    0    0  501 -0.00000000000E+00  0.00000000000E+00  0.12006208586E+03  0.12006208588E+03  0.25500000000E-02 0.  1.
          2   -1    0    0  501    0  0.00000000000E+00 -0.00000000000E+00 -0.46458685538E+00  0.46459385348E+00  0.25500000000E-02 0. -1.
         31    1    1    2    0    0 -0.50176542383E+00  0.76113666165E-01  0.57770217296E+02  0.58250446301E+02  0.74470750000E+01 0. -1.
        -31    1    1    2    0    0  0.50176542383E+00 -0.76113666165E-01  0.61827281705E+02  0.62276233436E+02  0.74470750000E+01 0.  1.
<mgrwt>
<rscale>  0 0.14937160E+02</rscale>
<asrwt>0</asrwt>
<pdfrwt beam="2">  1        2 0.98677937E+00 0.14937160E+02</pdfrwt>
<pdfrwt beam="1">  1       -2 0.99659892E+00 0.14937160E+02</pdfrwt>
<totfact>-0.22808123E-13</totfact>
</mgrwt>
</event>
<event>
 4    1 -0.4996155E-019  0.1495660E+02  0.7818608E-02  0.1869396E+00
         -2   -1    0    0    0  501 -0.00000000000E+00  0.00000000000E+00  0.12017716157E+03  0.12017716160E+03  0.25500000000E-02 0.  1.
          2   -1    0    0  501    0  0.00000000000E+00 -0.00000000000E+00 -0.46535070551E+00  0.46535769212E+00  0.25500000000E-02 0. -1.
         31    1    1    2    0    0 -0.33233134947E+00  0.59624482376E+00  0.59924313854E+02  0.60389140323E+02  0.74470750000E+01 0.  1.
        -31    1    1    2    0    0  0.33233134947E+00 -0.59624482376E+00  0.59787497013E+02  0.60253378969E+02  0.74470750000E+01 0.  1.
<mgrwt>
<rscale>  0 0.14956597E+02</rscale>
<asrwt>0</asrwt>
<pdfrwt beam="2">  1        2 0.98839915E+00 0.14956597E+02</pdfrwt>
<pdfrwt beam="1">  1       -2 0.99755676E+00 0.14956597E+02</pdfrwt>
<totfact>-0.14740301E-13</totfact>
</mgrwt>
</event>
<event>
 4    1 -0.4996155E-019  0.1497982E+02  0.7818608E-02  0.1868685E+00
          2   -1    0    0  501    0  0.00000000000E+00  0.00000000000E+00  0.11981395320E+03  0.11981395323E+03  0.25500000000E-02 0.  1.
         -2   -1    0    0    0  501 -0.00000000000E+00 -0.00000000000E+00 -0.46821205052E+00  0.46821899443E+00  0.25500000000E-02 0. -1.
         31    1    1    2    0    0  0.78932680652E+00  0.37390926624E-01  0.60669157996E+02  0.61129617150E+02  0.74470750000E+01 0.  1.
        -31    1    1    2    0    0 -0.78932680652E+00 -0.37390926624E-01  0.58676583154E+02  0.59152555072E+02  0.74470750000E+01 0.  1.
<mgrwt>
<rscale>  0 0.14979821E+02</rscale>
<asrwt>0</asrwt>
<pdfrwt beam="1">  1        2 0.99457716E+00 0.14979821E+02</pdfrwt>
<pdfrwt beam="2">  1       -2 0.99444124E+00 0.14979821E+02</pdfrwt>
<totfact>-0.12411192E-13</totfact>
</mgrwt>
</event>
<event>
 4    1 -0.4996155E-019  0.1492679E+02  0.7818608E-02  0.1870311E+00
         -2   -1    0    0    0  501 -0.00000000000E+00  0.00000000000E+00  0.12000704508E+03  0.12000704511E+03  0.25500000000E-02 0. -1.
          2   -1    0    0  501    0  0.00000000000E+00 -0.00000000000E+00 -0.46415485148E+00  0.46416185609E+00  0.25500000000E-02 0.  1.
         31    1    1    2    0    0 -0.16931633150E+00 -0.11602861937E+00  0.56151088753E+02  0.56643144553E+02  0.74470750000E+01 0.  1.
        -31    1    1    2    0    0  0.16931633150E+00  0.11602861937E+00  0.63391801480E+02  0.63828062414E+02  0.74470750000E+01 0. -1.
<mgrwt>
<rscale>  0 0.14926791E+02</rscale>
<asrwt>0</asrwt>
<pdfrwt beam="2">  1        2 0.98586361E+00 0.14926791E+02</pdfrwt>
<pdfrwt beam="1">  1       -2 0.99614023E+00 0.14926791E+02</pdfrwt>
<totfact>-0.27953099E-13</totfact>
</mgrwt>
</event>
<event>
 4    1 -0.4996155E-019  0.1491629E+02  0.7818608E-02  0.1870634E+00
          2   -1    0    0  501    0  0.00000000000E+00  0.00000000000E+00  0.11830929969E+03  0.11830929972E+03  0.25500000000E-02 0. -1.
         -2   -1    0    0    0  501 -0.00000000000E+00 -0.00000000000E+00 -0.47015309408E+00  0.47016000933E+00  0.25500000000E-02 0.  1.
         31    1    1    2    0    0  0.98071239261E-01 -0.39288001646E+00  0.58668148800E+02  0.59140295758E+02  0.74470750000E+01 0. -1.
        -31    1    1    2    0    0 -0.98071239261E-01  0.39288001646E+00  0.59170997800E+02  0.59639163972E+02  0.74470750000E+01 0. -1.
<mgrwt>
<rscale>  0 0.14916286E+02</rscale>
<asrwt>0</asrwt>
<pdfrwt beam="1">  1        2 0.98215168E+00 0.14916286E+02</pdfrwt>
<pdfrwt beam="2">  1       -2 0.99849803E+00 0.14916286E+02</pdfrwt>
<totfact>-0.26134352E-13</totfact>
</mgrwt>
</event>
<event>
 4    1 -0.4996155E-019  0.1495652E+02  0.7818608E-02  0.1869398E+00
         -2   -1    0    0    0  501 -0.00000000000E+00  0.00000000000E+00  0.12011227379E+03  0.12011227382E+03  0.25500000000E-02 0. -1.
          2   -1    0    0  501    0  0.00000000000E+00 -0.00000000000E+00 -0.46559734886E+00  0.46560433178E+00  0.25500000000E-02 0.  1.
         31    1    1    2    0    0  0.19944580513E-01 -0.54862588154E+00  0.56557876556E+02  0.57048695995E+02  0.74470750000E+01 0.  1.
        -31    1    1    2    0    0 -0.19944580513E-01  0.54862588154E+00  0.63088799889E+02  0.63529182158E+02  0.74470750000E+01 0.  1.
<mgrwt>
<rscale>  0 0.14956521E+02</rscale>
<asrwt>0</asrwt>
<pdfrwt beam="2">  1        2 0.98891893E+00 0.14956521E+02</pdfrwt>
<pdfrwt beam="1">  1       -2 0.99702226E+00 0.14956521E+02</pdfrwt>
<totfact>-0.15929676E-13</totfact>
</mgrwt>
</event>
<event>
 4    1  0.4996155E-019  0.1489808E+02  0.7818608E-02  0.1871195E+00
         -2   -1    0    0    0  501 -0.00000000000E+00  0.00000000000E+00  0.11852945672E+03  0.11852945674E+03  0.25500000000E-02 0. -1.
          2   -1    0    0  501    0  0.00000000000E+00 -0.00000000000E+00 -0.46813481908E+00  0.46814176414E+00  0.25500000000E-02 0.  1.
         31    1    1    2    0    0  0.11107096064E+00  0.80079765904E-01  0.58211994544E+02  0.58686574140E+02  0.74470750000E+01 0. -1.
        -31    1    1    2    0    0 -0.11107096064E+00 -0.80079765904E-01  0.59849327354E+02  0.60311024368E+02  0.74470750000E+01 0. -1.
<mgrwt>
<rscale>  0 0.14898078E+02</rscale>
<asrwt>0</asrwt>
<pdfrwt beam="2">  1        2 0.99423591E+00 0.14898078E+02</pdfrwt>
<pdfrwt beam="1">  1       -2 0.98395540E+00 0.14898078E+02</pdfrwt>
<totfact> 0.68513026E-13</totfact>
</mgrwt>
</event>
<event>
 4    1 -0.4996155E-019  0.1493800E+02  0.7818608E-02  0.1869966E+00
         -2   -1    0    0    0  501 -0.00000000000E+00  0.00000000000E+00  0.11995388897E+03  0.11995388900E+03  0.25500000000E-02 0. -1.
          2   -1    0    0  501    0  0.00000000000E+00 -0.00000000000E+00 -0.46505813992E+00  0.46506513093E+00  0.25500000000E-02 0.  1.
         31    1    1    2    0    0 -0.53103104346E+00  0.15878208951E+00  0.58609430833E+02  0.59083259172E+02  0.74470750000E+01 0.  1.
        -31    1    1    2    0    0  0.53103104346E+00 -0.15878208951E+00  0.60879399996E+02  0.61335694955E+02  0.74470750000E+01 0.  1.
<mgrwt>
<rscale>  0 0.14937999E+02</rscale>
<asrwt>0</asrwt>
<pdfrwt beam="2">  1        2 0.98777306E+00 0.14937999E+02</pdfrwt>
<pdfrwt beam="1">  1       -2 0.99570817E+00 0.14937999E+02</pdfrwt>
<totfact>-0.22170589E-13</totfact>
</mgrwt>
</event>
<event>
 4    1  0.4996155E-019  0.1495464E+02  0.7818608E-02  0.1869456E+00
         -2   -1    0    0    0  501 -0.00000000000E+00  0.00000000000E+00  0.11908999107E+03  0.11908999110E+03  0.25500000000E-02 0. -1.
          2   -1    0    0  501    0  0.00000000000E+00 -0.00000000000E+00 -0.46947582239E+00  0.46948274762E+00  0.25500000000E-02 0.  1.
         31    1    1    2    0    0 -0.43847501758E-01  0.32471181313E+00  0.63999339317E+02  0.64431992980E+02  0.74470750000E+01 0. -1.
        -31    1    1    2    0    0  0.43847501758E-01 -0.32471181313E+00  0.54621175931E+02  0.55127480865E+02  0.74470750000E+01 0.  1.
<mgrwt>
<rscale>  0 0.14954636E+02</rscale>
<asrwt>0</asrwt>
<pdfrwt beam="2">  1        2 0.99709120E+00 0.14954636E+02</pdfrwt>
<pdfrwt beam="1">  1       -2 0.98860138E+00 0.14954636E+02</pdfrwt>
<totfact> 0.73799378E-14</totfact>
</mgrwt>
</event>
<event>
 4    1  0.4996155E-019  0.1492811E+02  0.7818608E-02  0.1870270E+00
          2   -1    0    0  501    0  0.00000000000E+00  0.00000000000E+00  0.11999117629E+03  0.11999117631E+03  0.25500000000E-02 0. -1.
         -2   -1    0    0    0  501 -0.00000000000E+00 -0.00000000000E+00 -0.46429832292E+00  0.46430532537E+00  0.25500000000E-02 0.  1.
         31    1    1    2    0    0 -0.36239880785E+00 -0.84946266355E-01  0.57031256970E+02  0.57516621479E+02  0.74470750000E+01 0.  1.
        -31    1    1    2    0    0  0.36239880785E+00  0.84946266355E-01  0.62495620995E+02  0.62938860161E+02  0.74470750000E+01 0. -1.
<mgrwt>
<rscale>  0 0.14928111E+02</rscale>
<asrwt>0</asrwt>
<pdfrwt beam="1">  1        2 0.99601020E+00 0.14928111E+02</pdfrwt>
<pdfrwt beam="2">  1       -2 0.98616666E+00 0.14928111E+02</pdfrwt>
<totfact> 0.29772681E-13</totfact>
</mgrwt>
</event>
<event>
 4    1 -0.4996155E-019  0.1496864E+02  0.7818608E-02  0.1869027E+00
         -2   -1    0    0    0  501 -0.00000000000E+00  0.00000000000E+00  0.11942254608E+03  0.11942254611E+03  0.25500000000E-02 0.  1.
          2   -1    0    0  501    0  0.00000000000E+00 -0.00000000000E+00 -0.46904578163E+00  0.46905271320E+00  0.25500000000E-02 0. -1.
         31    1    1    2    0    0 -0.48504068527E-01 -0.30861288880E+00  0.64900429772E+02  0.65327041148E+02  0.74470750000E+01 0.  1.
        -31    1    1    2    0    0  0.48504068527E-01  0.30861288880E+00  0.54053070527E+02  0.54564557673E+02  0.74470750000E+01 0. -1.
<mgrwt>
<rscale>  0 0.14968642E+02</rscale>
<asrwt>0</asrwt>
<pdfrwt beam="2">  1        2 0.99619235E+00 0.14968642E+02</pdfrwt>
<pdfrwt beam="1">  1       -2 0.99134762E+00 0.14968642E+02</pdfrwt>
<totfact>-0.48180549E-14</totfact>
</mgrwt>
</event>
<event>
 4    1 -0.4996155E-019  0.1491373E+02  0.7818608E-02  0.1870713E+00
         -2   -1    0    0    0  501 -0.00000000000E+00  0.00000000000E+00  0.12027119554E+03  0.12027119557E+03  0.25500000000E-02 0.  1.
          2   -1    0    0  501    0  0.00000000000E+00 -0.00000000000E+00 -0.46232524671E+00  0.46233227904E+00  0.25500000000E-02 0. -1.
         31    1    1    2    0    0  0.20239047290E+00 -0.17834432889E+00  0.57715040911E+02  0.58194137523E+02  0.74470750000E+01 0. -1.
        -31    1    1    2    0    0 -0.20239047290E+00  0.17834432889E+00  0.62093829386E+02  0.62539390327E+02  0.74470750000E+01 0.  1.
<mgrwt>
<rscale>  0 0.14913730E+02</rscale>
<asrwt>0</asrwt>
<pdfrwt beam="2">  1        2 0.98200078E+00 0.14913730E+02</pdfrwt>
<pdfrwt beam="1">  1       -2 0.99830928E+00 0.14913730E+02</pdfrwt>
<totfact>-0.29663100E-13</totfact>
</mgrwt>
</event>
<event>
 4    1  0.4996155E-019  0.1490342E+02  0.7818608E-02  0.1871030E+00
          2   -1    0    0  501    0  0.00000000000E+00  0.00000000000E+00  0.12007806500E+03  0.12007806502E+03  0.25500000000E-02 0.  1.
         -2   -1    0    0    0  501 -0.00000000000E+00 -0.00000000000E+00 -0.46242850512E+00  0.46243553589E+00  0.25500000000E-02 0. -1.
         31    1    1    2    0    0 -0.54959345778E-02 -0.19013118913E+00  0.61273515996E+02  0.61724702256E+02  0.74470750000E+01 0.  1.
        -31    1    1    2    0    0  0.54959345778E-02  0.19013118913E+00  0.58342120497E+02  0.58815798305E+02  0.74470750000E+01 0. -1.
<mgrwt>
<rscale>  0 0.14903415E+02</rscale>
<asrwt>0</asrwt>
<pdfrwt beam="1">  1        2 0.99671320E+00 0.14903415E+02</pdfrwt>
<pdfrwt beam="2">  1       -2 0.98221321E+00 0.14903415E+02</pdfrwt>
<totfact> 0.73728483E-13</totfact>
</mgrwt>
</event>
<event>
 4    1 -0.4996155E-019  0.1492128E+02  0.7818608E-02  0.1870480E+00
         -2   -1    0    0    0  501 -0.00000000000E+00  0.00000000000E+00  0.11956243795E+03  0.11956243798E+03  0.25500000000E-02 0.  1.
          2   -1    0    0  501    0  0.00000000000E+00 -0.00000000000E+00 -0.46553690284E+00  0.46554388666E+00  0.25500000000E-02 0. -1.
         31    1    1    2    0    0  0.10245645306E+00 -0.31806906521E+00  0.57127776737E+02  0.57612094791E+02  0.74470750000E+01 0. -1.
        -31    1    1    2    0    0 -0.10245645306E+00  0.31806906521E+00  0.61969124315E+02  0.62415887078E+02  0.74470750000E+01 0. -1.
<mgrwt>
<rscale>  0 0.14921280E+02</rscale>
<asrwt>0</asrwt>
<pdfrwt beam="2">  1        2 0.98877348E+00 0.14921280E+02</pdfrwt>
<pdfrwt beam="1">  1       -2 0.99247533E+00 0.14921280E+02</pdfrwt>
<totfact>-0.15678748E-13</totfact>
</mgrwt>
</event>
<event>
 4    1  0.4996155E-019  0.1496085E+02  0.7818608E-02  0.1869265E+00
         -2   -1    0    0    0  501 -0.00000000000E+00  0.00000000000E+00  0.11896839967E+03  0.11896839969E+03  0.25500000000E-02 0. -1.
          2   -1    0    0  501    0  0.00000000000E+00 -0.00000000000E+00 -0.47034650462E+00  0.47035341702E+00  0.25500000000E-02 0.  1.
         31    1    1    2    0    0 -0.68659483418E+00  0.14140757692E+00  0.58607825608E+02  0.59083225683E+02  0.74470750000E+01 0.  1.
        -31    1    1    2    0    0  0.68659483418E+00 -0.14140757692E+00  0.59890227554E+02  0.60355527428E+02  0.74470750000E+01 0. -1.
<mgrwt>
<rscale>  0 0.14960854E+02</rscale>
<asrwt>0</asrwt>
<pdfrwt beam="2">  1        2 0.99892907E+00 0.14960854E+02</pdfrwt>
<pdfrwt beam="1">  1       -2 0.98760318E+00 0.14960854E+02</pdfrwt>
<totfact> 0.60923753E-14</totfact>
</mgrwt>
</event>
<event>
 4    1 -0.4996155E-019  0.1495314E+02  0.7818608E-02  0.1869502E+00
          2   -1    0    0  501    0  0.00000000000E+00  0.00000000000E+00  0.11943847163E+03  0.11943847166E+03  0.25500000000E-02 0. -1.
         -2   -1    0    0    0  501 -0.00000000000E+00 -0.00000000000E+00 -0.46801253922E+00  0.46801948609E+00  0.25500000000E-02 0.  1.
         31    1    1    2    0    0  0.46536803122E+00 -0.28642780538E+00  0.62502544275E+02  0.62947006086E+02  0.74470750000E+01 0. -1.
        -31    1    1    2    0    0 -0.46536803122E+00  0.28642780538E+00  0.56467914817E+02  0.56959485058E+02  0.74470750000E+01 0.  1.
<mgrwt>
<rscale>  0 0.14953143E+02</rscale>
<asrwt>0</asrwt>
<pdfrwt beam="1">  1        2 0.99147076E+00 0.14953143E+02</pdfrwt>
<pdfrwt beam="2">  1       -2 0.99400699E+00 0.14953143E+02</pdfrwt>
<totfact>-0.15417408E-13</totfact>
</mgrwt>
</event>
<event>
 4    1 -0.4996155E-019  0.1496404E+02  0.7818608E-02  0.1869168E+00
         -2   -1    0    0    0  501 -0.00000000000E+00  0.00000000000E+00  0.11969464130E+03  0.11969464133E+03  0.25500000000E-02 0.  1.
          2   -1    0    0  501    0  0.00000000000E+00 -0.00000000000E+00 -0.46769194454E+00  0.46769889618E+00  0.25500000000E-02 0. -1.
         31    1    1    2    0    0  0.66527083425E+00  0.27892761349E+00  0.59905981620E+02  0.60371400065E+02  0.74470750000E+01 0.  1.
        -31    1    1    2    0    0 -0.66527083425E+00 -0.27892761349E+00  0.59320967740E+02  0.59790940163E+02  0.74470750000E+01 0. -1.
<mgrwt>
<rscale>  0 0.14964042E+02</rscale>
<asrwt>0</asrwt>
<pdfrwt beam="2">  1        2 0.99333704E+00 0.14964042E+02</pdfrwt>
<pdfrwt beam="1">  1       -2 0.99358630E+00 0.14964042E+02</pdfrwt>
<totfact>-0.12972420E-13</totfact>
</mgrwt>
</event>
<event>
 4    1 -0.4996155E-019  0.1495296E+02  0.7818608E-02  0.1869507E+00
         -2   -1    0    0    0  501 -0.00000000000E+00  0.00000000000E+00  0.11947917561E+03  0.11947917564E+03  0.25500000000E-02 0.  1.
          2   -1    0    0  501    0  0.00000000000E+00 -0.00000000000E+00 -0.46784156268E+00  0.46784851209E+00  0.25500000000E-02 0. -1.
         31    1    1    2    0    0 -0.97787794044E-01 -0.72591991298E-01  0.54282458618E+02  0.54791049193E+02  0.74470750000E+01 0. -1.
        -31    1    1    2    0    0  0.97787794044E-01  0.72591991298E-01  0.64728875434E+02  0.65155974961E+02  0.74470750000E+01 0.  1.
<mgrwt>
<rscale>  0 0.14952959E+02</rscale>
<asrwt>0</asrwt>
<pdfrwt beam="2">  1        2 0.99364660E+00 0.14952959E+02</pdfrwt>
<pdfrwt beam="1">  1       -2 0.99180592E+00 0.14952959E+02</pdfrwt>
<totfact>-0.81711954E-14</totfact>
</mgrwt>
</event>
<event>
 4    1 -0.4996155E-019  0.1495742E+02  0.7818608E-02  0.1869371E+00
          2   -1    0    0  501    0  0.00000000000E+00  0.00000000000E+00  0.11953031153E+03  0.11953031156E+03  0.25500000000E-02 0. -1.
         -2   -1    0    0    0  501 -0.00000000000E+00 -0.00000000000E+00 -0.46792070234E+00  0.46792765058E+00  0.25500000000E-02 0.  1.
         31    1    1    2    0    0  0.16023775425E+00 -0.29701790118E+00  0.54728954593E+02  0.55234330743E+02  0.74470750000E+01 0.  1.
        -31    1    1    2    0    0 -0.16023775425E+00  0.29701790118E+00  0.64333436237E+02  0.64763908467E+02  0.74470750000E+01 0. -1.
<mgrwt>
<rscale>  0 0.14957423E+02</rscale>
<asrwt>0</asrwt>
<pdfrwt beam="1">  1        2 0.99222940E+00 0.14957423E+02</pdfrwt>
<pdfrwt beam="2">  1       -2 0.99381568E+00 0.14957423E+02</pdfrwt>
<totfact>-0.14364592E-13</totfact>
</mgrwt>
</event>
<event>
 4    1 -0.4996155E-019  0.1491617E+02  0.7818608E-02  0.1870637E+00
         -2   -1    0    0    0  501 -0.00000000000E+00  0.00000000000E+00  0.12002050272E+03  0.12002050274E+03  0.25500000000E-02 0. -1.
          2   -1    0    0  501    0  0.00000000000E+00 -0.00000000000E+00 -0.46344262435E+00  0.46344963972E+00  0.25500000000E-02 0.  1.
         31    1    1    2    0    0 -0.28972557733E+00  0.27190364298E+00  0.60416719155E+02  0.60875255663E+02  0.74470750000E+01 0.  1.
        -31    1    1    2    0    0  0.28972557733E+00 -0.27190364298E+00  0.59140340938E+02  0.59608696722E+02  0.74470750000E+01 0.  1.
<mgrwt>
<rscale>  0 0.14916171E+02</rscale>
<asrwt>0</asrwt>
<pdfrwt beam="2">  1        2 0.98435710E+00 0.14916171E+02</pdfrwt>
<pdfrwt beam="1">  1       -2 0.99624562E+00 0.14916171E+02</pdfrwt>
<totfact>-0.35153957E-13</totfact>
</mgrwt>
</event>
<event>
 4    1  0.4996155E-019  0.1491568E+02  0.7818608E-02  0.1870652E+00
         -2   -1    0    0    0  501 -0.00000000000E+00  0.00000000000E+00  0.11828875252E+03  0.11828875255E+03  0.25500000000E-02 0. -1.
          2   -1    0    0  501    0  0.00000000000E+00 -0.00000000000E+00 -0.47019665747E+00  0.47020357208E+00  0.25500000000E-02 0.  1.
         31    1    1    2    0    0 -0.21337057714E-01 -0.34743350160E+00  0.60487624785E+02  0.60945326675E+02  0.74470750000E+01 0. -1.
        -31    1    1    2    0    0  0.21337057714E-01  0.34743350160E+00  0.57330931079E+02  0.57813629446E+02  0.74470750000E+01 0.  1.
<mgrwt>
<rscale>  0 0.14915681E+02</rscale>
<asrwt>0</asrwt>
<pdfrwt beam="2">  1        2 0.99858950E+00 0.14915681E+02</pdfrwt>
<pdfrwt beam="1">  1       -2 0.98198214E+00 0.14915681E+02</pdfrwt>
<totfact> 0.40726039E-13</totfact>
</mgrwt>
</event>
<event>
 4    1 -0.4996155E-019  0.1497754E+02  0.7818608E-02  0.1868755E+00
          2   -1    0    0  501    0  0.00000000000E+00  0.00000000000E+00  0.11978069835E+03  0.11978069838E+03  0.25500000000E-02 0. -1.
         -2   -1    0    0    0  501 -0.00000000000E+00 -0.00000000000E+00 -0.46819955844E+00  0.46820650255E+00  0.25500000000E-02 0.  1.
         31    1    1    2    0    0 -0.56465187303E+00  0.31098750923E+00  0.63310972967E+02  0.63750715831E+02  0.74470750000E+01 0. -1.
        -31    1    1    2    0    0  0.56465187303E+00 -0.31098750923E+00  0.56001525823E+02  0.56498189047E+02  0.74470750000E+01 0.  1.
<mgrwt>
<rscale>  0 0.14977542E+02</rscale>
<asrwt>0</asrwt>
<pdfrwt beam="1">  1        2 0.99430208E+00 0.14977542E+02</pdfrwt>
<pdfrwt beam="2">  1       -2 0.99441373E+00 0.14977542E+02</pdfrwt>
<totfact>-0.12708469E-13</totfact>
</mgrwt>
</event>
<event>
 4    1 -0.4996155E-019  0.1490796E+02  0.7818608E-02  0.1870890E+00
          2   -1    0    0  501    0  0.00000000000E+00  0.00000000000E+00  0.11865647045E+03  0.11865647048E+03  0.25500000000E-02 0. -1.
         -2   -1    0    0    0  501 -0.00000000000E+00 -0.00000000000E+00 -0.46825436391E+00  0.46826130720E+00  0.25500000000E-02 0.  1.
         31    1    1    2    0    0 -0.69831297576E-01  0.29823275005E+00  0.58332682048E+02  0.58806925954E+02  0.74470750000E+01 0. -1.
        -31    1    1    2    0    0  0.69831297576E-01 -0.29823275005E+00  0.59855534036E+02  0.60317805829E+02  0.74470750000E+01 0. -1.
<mgrwt>
<rscale>  0 0.14907961E+02</rscale>
<asrwt>0</asrwt>
<pdfrwt beam="1">  1        2 0.98500663E+00 0.14907961E+02</pdfrwt>
<pdfrwt beam="2">  1       -2 0.99449299E+00 0.14907961E+02</pdfrwt>
<totfact>-0.34677038E-13</totfact>
</mgrwt>
</event>
<event>
 4    1 -0.4996155E-019  0.1499017E+02  0.7818608E-02  0.1868369E+00
         -2   -1    0    0    0  501 -0.00000000000E+00  0.00000000000E+00  0.12028702900E+03  0.12028702903E+03  0.25500000000E-02 0. -1.
          2   -1    0    0  501    0  0.00000000000E+00 -0.00000000000E+00 -0.46701502173E+00  0.46702198345E+00  0.25500000000E-02 0.  1.
         31    1    1    2    0    0 -0.67433821673E+00 -0.51029021333E+00  0.59530691036E+02  0.60000643575E+02  0.74470750000E+01 0. -1.
        -31    1    1    2    0    0  0.67433821673E+00  0.51029021333E+00  0.60289322943E+02  0.60753407436E+02  0.74470750000E+01 0.  1.
<mgrwt>
<rscale>  0 0.14990166E+02</rscale>
<asrwt>0</asrwt>
<pdfrwt beam="2">  1        2 0.99192391E+00 0.14990166E+02</pdfrwt>
<pdfrwt beam="1">  1       -2 0.99847898E+00 0.14990166E+02</pdfrwt>
<totfact>-0.71985005E-14</totfact>
</mgrwt>
</event>
<event>
 4    1 -0.4996155E-019  0.1498965E+02  0.7818608E-02  0.1868384E+00
         -2   -1    0    0    0  501 -0.00000000000E+00  0.00000000000E+00  0.12039450103E+03  0.12039450106E+03  0.25500000000E-02 0.  1.
          2   -1    0    0  501    0  0.00000000000E+00 -0.00000000000E+00 -0.46656623265E+00  0.46657320106E+00  0.25500000000E-02 0. -1.
         31    1    1    2    0    0 -0.35380831009E+00 -0.32034398070E+00  0.65583252568E+02  0.66006437141E+02  0.74470750000E+01 0.  1.
        -31    1    1    2    0    0  0.35380831009E+00  0.32034398070E+00  0.54344682228E+02  0.54854637116E+02  0.74470750000E+01 0. -1.
<mgrwt>
<rscale>  0 0.14989654E+02</rscale>
<asrwt>0</asrwt>
<pdfrwt beam="2">  1        2 0.99097781E+00 0.14989654E+02</pdfrwt>
<pdfrwt beam="1">  1       -2 0.99936392E+00 0.14989654E+02</pdfrwt>
<totfact>-0.34883198E-14</totfact>
</mgrwt>
</event>
<event>
 4    1  0.4996155E-019  0.1491079E+02  0.7818608E-02  0.1870803E+00
         -2   -1    0    0    0  501 -0.00000000000E+00  0.00000000000E+00  0.11877723818E+03  0.11877723821E+03  0.25500000000E-02 0.  1.
          2   -1    0    0  501    0  0.00000000000E+00 -0.00000000000E+00 -0.46795594129E+00  0.46796288901E+00  0.25500000000E-02 0. -1.
         31    1    1    2    0    0 -0.24613526066E+00  0.24609363501E+00  0.59582285817E+02  0.60046888794E+02  0.74470750000E+01 0.  1.
        -31    1    1    2    0    0  0.24613526066E+00 -0.24609363501E+00  0.58726996424E+02  0.59198312305E+02  0.74470750000E+01 0. -1.
<mgrwt>
<rscale>  0 0.14910792E+02</rscale>
<asrwt>0</asrwt>
<pdfrwt beam="2">  1        2 0.99386566E+00 0.14910792E+02</pdfrwt>
<pdfrwt beam="1">  1       -2 0.98600275E+00 0.14910792E+02</pdfrwt>
<totfact> 0.39434913E-13</totfact>
</mgrwt>
</event>
<event>
 4    1 -0.4996155E-019  0.1491198E+02  0.7818608E-02  0.1870766E+00
         -2   -1    0    0    0  501 -0.00000000000E+00  0.00000000000E+00  0.12041628713E+03  0.12041628716E+03  0.25500000000E-02 0.  1.
          2   -1    0    0  501    0  0.00000000000E+00 -0.00000000000E+00 -0.46165967629E+00  0.46166671877E+00  0.25500000000E-02 0. -1.
         31    1    1    2    0    0 -0.18376035783E+00  0.33238299509E-01  0.62514570303E+02  0.62956852676E+02  0.74470750000E+01 0.  1.
        -31    1    1    2    0    0  0.18376035783E+00 -0.33238299509E-01  0.57440057153E+02  0.57921101202E+02  0.74470750000E+01 0. -1.
<mgrwt>
<rscale>  0 0.14911978E+02</rscale>
<asrwt>0</asrwt>
<pdfrwt beam="2">  1        2 0.98059702E+00 0.14911978E+02</pdfrwt>
<pdfrwt beam="1">  1       -2 0.99950350E+00 0.14911978E+02</pdfrwt>
<totfact>-0.12183255E-13</totfact>
</mgrwt>
</event>
<event>
 4    1 -0.4996155E-019  0.1497804E+02  0.7818608E-02  0.1868739E+00
          2   -1    0    0  501    0  0.00000000000E+00  0.00000000000E+00  0.11931563094E+03  0.11931563096E+03  0.25500000000E-02 0.  1.
         -2   -1    0    0    0  501 -0.00000000000E+00 -0.00000000000E+00 -0.47005561735E+00  0.47006253403E+00  0.25500000000E-02 0. -1.
         31    1    1    2    0    0  0.45718607090E+00  0.44395846272E+00  0.55668645684E+02  0.56168168535E+02  0.74470750000E+01 0. -1.
        -31    1    1    2    0    0 -0.45718607090E+00 -0.44395846272E+00  0.63176929634E+02  0.63617524962E+02  0.74470750000E+01 0.  1.
<mgrwt>
<rscale>  0 0.14978037E+02</rscale>
<asrwt>0</asrwt>
<pdfrwt beam="1">  1        2 0.99047192E+00 0.14978037E+02</pdfrwt>
<pdfrwt beam="2">  1       -2 0.99832516E+00 0.14978037E+02</pdfrwt>
<totfact>-0.87794373E-14</totfact>
</mgrwt>
</event>
<event>
 4    1 -0.4996155E-019  0.1498171E+02  0.7818608E-02  0.1868627E+00
         -2   -1    0    0    0  501 -0.00000000000E+00  0.00000000000E+00  0.12013562776E+03  0.12013562779E+03  0.25500000000E-02 0. -1.
          2   -1    0    0  501    0  0.00000000000E+00 -0.00000000000E+00 -0.46707620720E+00  0.46708316801E+00  0.25500000000E-02 0.  1.
         31    1    1    2    0    0 -0.70229049389E+00  0.38431036718E+00  0.58913534655E+02  0.59387746194E+02  0.74470750000E+01 0. -1.
        -31    1    1    2    0    0  0.70229049389E+00 -0.38431036718E+00  0.60755016896E+02  0.61214964760E+02  0.74470750000E+01 0. -1.
<mgrwt>
<rscale>  0 0.14981711E+02</rscale>
<asrwt>0</asrwt>
<pdfrwt beam="2">  1        2 0.99204852E+00 0.14981711E+02</pdfrwt>
<pdfrwt beam="1">  1       -2 0.99722760E+00 0.14981711E+02</pdfrwt>
<totfact>-0.11462046E-13</totfact>
</mgrwt>
</event>
<event>
 4    1 -0.4996155E-019  0.1494525E+02  0.7818608E-02  0.1869744E+00
          2   -1    0    0  501    0  0.00000000000E+00  0.00000000000E+00  0.11873639307E+03  0.11873639310E+03  0.25500000000E-02 0.  1.
         -2   -1    0    0    0  501 -0.00000000000E+00 -0.00000000000E+00 -0.47028273663E+00  0.47028964998E+00  0.25500000000E-02 0. -1.
         31    1    1    2    0    0 -0.40465567724E+00  0.10190137839E+00  0.55503797875E+02  0.56002719886E+02  0.74470750000E+01 0. -1.
        -31    1    1    2    0    0  0.40465567724E+00 -0.10190137839E+00  0.62762312457E+02  0.63203962860E+02  0.74470750000E+01 0.  1.
<mgrwt>
<rscale>  0 0.14945245E+02</rscale>
<asrwt>0</asrwt>
<pdfrwt beam="1">  1        2 0.98568426E+00 0.14945245E+02</pdfrwt>
<pdfrwt beam="2">  1       -2 0.99878649E+00 0.14945245E+02</pdfrwt>
<totfact>-0.12059723E-13</totfact>
</mgrwt>
</event>
<event>
 4    1 -0.4996155E-019  0.1495774E+02  0.7818608E-02  0.1869361E+00
         -2   -1    0    0    0  501 -0.00000000000E+00  0.00000000000E+00  0.11973646279E+03  0.11973646282E+03  0.25500000000E-02 0.  1.
          2   -1    0    0  501    0  0.00000000000E+00 -0.00000000000E+00 -0.46713516245E+00  0.46714212237E+00  0.25500000000E-02 0. -1.
         31    1    1    2    0    0 -0.79665229593E-01 -0.68118271884E+00  0.59110801807E+02  0.59582012158E+02  0.74470750000E+01 0. -1.
        -31    1    1    2    0    0  0.79665229593E-01  0.68118271884E+00  0.60158525824E+02  0.60621592786E+02  0.74470750000E+01 0. -1.
<mgrwt>
<rscale>  0 0.14957745E+02</rscale>
<asrwt>0</asrwt>
<pdfrwt beam="2">  1        2 0.99216044E+00 0.14957745E+02</pdfrwt>
<pdfrwt beam="1">  1       -2 0.99392751E+00 0.14957745E+02</pdfrwt>
<totfact>-0.14564478E-13</totfact>
</mgrwt>
</event>
<event>
 4    1 -0.4996155E-019  0.1498438E+02  0.7818608E-02  0.1868546E+00
         -2   -1    0    0    0  501 -0.00000000000E+00  0.00000000000E+00  0.11965027829E+03  0.11965027832E+03  0.25500000000E-02 0. -1.
          2   -1    0    0  501    0  0.00000000000E+00 -0.00000000000E+00 -0.46913792775E+00  0.46914485796E+00  0.25500000000E-02 0.  1.
         31    1    1    2    0    0  0.30047449616E+00  0.61832761968E+00  0.63187754211E+02  0.63628797115E+02  0.74470750000E+01 0.  1.
        -31    1    1    2    0    0 -0.30047449616E+00 -0.61832761968E+00  0.55993386150E+02  0.56490626059E+02  0.74470750000E+01 0. -1.
<mgrwt>
<rscale>  0 0.14984379E+02</rscale>
<asrwt>0</asrwt>
<pdfrwt beam="2">  1        2 0.99639470E+00 0.14984379E+02</pdfrwt>
<pdfrwt beam="1">  1       -2 0.99323143E+00 0.14984379E+02</pdfrwt>
<totfact>-0.89394489E-14</totfact>
</mgrwt>
</event>
<event>
 4    1 -0.4996155E-019  0.1491372E+02  0.7818608E-02  0.1870713E+00
         -2   -1    0    0    0  501 -0.00000000000E+00  0.00000000000E+00  0.12012017217E+03  0.12012017219E+03  0.25500000000E-02 0.  1.
          2   -1    0    0  501    0  0.00000000000E+00 -0.00000000000E+00 -0.46290561357E+00  0.46291263709E+00  0.25500000000E-02 0. -1.
         31    1    1    2    0    0 -0.11618569059E+00 -0.23160309804E+00  0.62096318767E+02  0.62541816968E+02  0.74470750000E+01 0.  1.
        -31    1    1    2    0    0  0.11618569059E+00  0.23160309804E+00  0.57560947786E+02  0.58041267863E+02  0.74470750000E+01 0. -1.
<mgrwt>
<rscale>  0 0.14913715E+02</rscale>
<asrwt>0</asrwt>
<pdfrwt beam="2">  1        2 0.98322402E+00 0.14913715E+02</pdfrwt>
<pdfrwt beam="1">  1       -2 0.99706531E+00 0.14913715E+02</pdfrwt>
<totfact>-0.36810326E-13</totfact>
</mgrwt>
</event>
<event>
 4    1  0.4996155E-019  0.1490149E+02  0.7818608E-02  0.1871090E+00
          2   -1    0    0  501    0  0.00000000000E+00  0.00000000000E+00  0.11949326847E+03  0.11949326849E+03  0.25500000000E-02 0. -1.
         -2   -1    0    0    0  501 -0.00000000000E+00 -0.00000000000E+00 -0.46457134359E+00  0.46457834192E+00  0.25500000000E-02 0.  1.
         31    1    1    2    0    0 -0.19037600403E+00  0.29981822339E-01  0.58449374748E+02  0.58922198503E+02  0.74470750000E+01 0.  1.
        -31    1    1    2    0    0  0.19037600403E+00 -0.29981822339E-01  0.60579322376E+02  0.61035648334E+02  0.74470750000E+01 0. -1.
<mgrwt>
<rscale>  0 0.14901486E+02</rscale>
<asrwt>0</asrwt>
<pdfrwt beam="1">  1        2 0.99189541E+00 0.14901486E+02</pdfrwt>
<pdfrwt beam="2">  1       -2 0.98672845E+00 0.14901486E+02</pdfrwt>
<totfact> 0.35064553E-13</totfact>
</mgrwt>
</event>
<event>
 4    1  0.4996155E-019  0.1492073E+02  0.7818608E-02  0.1870497E+00
          2   -1    0    0  501    0  0.00000000000E+00  0.00000000000E+00  0.12012633211E+03  0.12012633213E+03  0.25500000000E-02 0.  1.
         -2   -1    0    0    0  501 -0.00000000000E+00 -0.00000000000E+00 -0.46331718370E+00  0.46332420097E+00  0.25500000000E-02 0. -1.
         31    1    1    2    0    0 -0.36845788744E-01 -0.23063276515E-01  0.56251590512E+02  0.56742420205E+02  0.74470750000E+01 0. -1.
        -31    1    1    2    0    0  0.36845788744E-01  0.23063276515E-01  0.63411424410E+02  0.63847236128E+02  0.74470750000E+01 0.  1.
<mgrwt>
<rscale>  0 0.14920726E+02</rscale>
<asrwt>0</asrwt>
<pdfrwt beam="1">  1        2 0.99711965E+00 0.14920726E+02</pdfrwt>
<pdfrwt beam="2">  1       -2 0.98409503E+00 0.14920726E+02</pdfrwt>
<totfact> 0.44262048E-13</totfact>
</mgrwt>
</event>
<event>
 4    1  0.4996155E-019  0.1493141E+02  0.7818608E-02  0.1870169E+00
         -2   -1    0    0    0  501 -0.00000000000E+00  0.00000000000E+00  0.11911810878E+03  0.11911810881E+03  0.25500000000E-02 0. -1.
          2   -1    0    0  501    0  0.00000000000E+00 -0.00000000000E+00 -0.46790783805E+00  0.46791478648E+00  0.25500000000E-02 0.  1.
         31    1    1    2    0    0  0.35707723819E+00 -0.34194670707E+00  0.60787841136E+02  0.61244305758E+02  0.74470750000E+01 0.  1.
        -31    1    1    2    0    0 -0.35707723819E+00  0.34194670707E+00  0.57862359808E+02  0.58341717838E+02  0.74470750000E+01 0.  1.
<mgrwt>
<rscale>  0 0.14931405E+02</rscale>
<asrwt>0</asrwt>
<pdfrwt beam="2">  1        2 0.99377506E+00 0.14931405E+02</pdfrwt>
<pdfrwt beam="1">  1       -2 0.98882091E+00 0.14931405E+02</pdfrwt>
<totfact> 0.95253904E-14</totfact>
</mgrwt>
</event>
<event>
 4    1  0.4996155E-019  0.1489634E+02  0.7818608E-02  0.1871248E+00
         -2   -1    0    0    0  501 -0.00000000000E+00  0.00000000000E+00  0.11808803020E+03  0.11808803023E+03  0.25500000000E-02 0. -1.
          2   -1    0    0  501    0  0.00000000000E+00 -0.00000000000E+00 -0.46977546235E+00  0.46978238316E+00  0.25500000000E-02 0.  1.
         31    1    1    2    0    0 -0.10028934440E+00 -0.79031522486E-01  0.58758236821E+02  0.59228419059E+02  0.74470750000E+01 0.  1.
        -31    1    1    2    0    0  0.10028934440E+00  0.79031522486E-01  0.58860017918E+02  0.59329393552E+02  0.74470750000E+01 0. -1.
<mgrwt>
<rscale>  0 0.14896345E+02</rscale>
<asrwt>0</asrwt>
<pdfrwt beam="2">  1        2 0.99769182E+00 0.14896345E+02</pdfrwt>
<pdfrwt beam="1">  1       -2 0.98031895E+00 0.14896345E+02</pdfrwt>
<totfact> 0.82073196E-13</totfact>
</mgrwt>
</event>
<event>
 4    1 -0.4996155E-019  0.1493495E+02  0.7818608E-02  0.1870060E+00
          2   -1    0    0  501    0  0.00000000000E+00  0.00000000000E+00  0.11851147929E+03  0.11851147932E+03  0.25500000000E-02 0.  1.
         -2   -1    0    0    0  501 -0.00000000000E+00 -0.00000000000E+00 -0.47052649861E+00  0.47053340837E+00  0.25500000000E-02 0. -1.
         31    1    1    2    0    0 -0.35371798214E+00 -0.43975885293E-02  0.55648562181E+02  0.56145761502E+02  0.74470750000E+01 0. -1.
        -31    1    1    2    0    0  0.35371798214E+00  0.43975885293E-02  0.62392390610E+02  0.62836251224E+02  0.74470750000E+01 0.  1.
<mgrwt>
<rscale>  0 0.14934953E+02</rscale>
<asrwt>0</asrwt>
<pdfrwt beam="1">  1        2 0.98382653E+00 0.14934953E+02</pdfrwt>
<pdfrwt beam="2">  1       -2 0.99929466E+00 0.14934953E+02</pdfrwt>
<totfact>-0.98921394E-14</totfact>
</mgrwt>
</event>
<event>
 4    1 -0.4996155E-019  0.1496843E+02  0.7818608E-02  0.1869033E+00
         -2   -1    0    0    0  501 -0.00000000000E+00  0.00000000000E+00  0.11979048651E+03  0.11979048654E+03  0.25500000000E-02 0.  1.
          2   -1    0    0  501    0  0.00000000000E+00 -0.00000000000E+00 -0.46759194442E+00  0.46759889755E+00  0.25500000000E-02 0. -1.
         31    1    1    2    0    0  0.47595428573E+00  0.56950932595E+00  0.60149272053E+02  0.60613073902E+02  0.74470750000E+01 0. -1.
        -31    1    1    2    0    0 -0.47595428573E+00 -0.56950932595E+00  0.59173622514E+02  0.59645011534E+02  0.74470750000E+01 0. -1.
<mgrwt>
<rscale>  0 0.14968432E+02</rscale>
<asrwt>0</asrwt>
<pdfrwt beam="2">  1        2 0.99312857E+00 0.14968432E+02</pdfrwt>
<pdfrwt beam="1">  1       -2 0.99437799E+00 0.14968432E+02</pdfrwt>
<totfact>-0.13909431E-13</totfact>
</mgrwt>
</event>
<event>
 4    1 -0.4996155E-019  0.1495522E+02  0.7818608E-02  0.1869438E+00
          2   -1    0    0  501    0  0.00000000000E+00  0.00000000000E+00  0.11968849802E+03  0.11968849804E+03  0.25500000000E-02 0.  1.
         -2   -1    0    0    0  501 -0.00000000000E+00 -0.00000000000E+00 -0.46716476872E+00  0.46717172821E+00  0.25500000000E-02 0. -1.
         31    1    1    2    0    0  0.54654096870E+00 -0.30125314880E+00  0.57542185976E+02  0.58025438847E+02  0.74470750000E+01 0.  1.
        -31    1    1    2    0    0 -0.54654096870E+00  0.30125314880E+00  0.61679147273E+02  0.62130230926E+02  0.74470750000E+01 0. -1.
<mgrwt>
<rscale>  0 0.14955222E+02</rscale>
<asrwt>0</asrwt>
<pdfrwt beam="1">  1        2 0.99353115E+00 0.14955222E+02</pdfrwt>
<pdfrwt beam="2">  1       -2 0.99222154E+00 0.14955222E+02</pdfrwt>
<totfact>-0.96857229E-14</totfact>
</mgrwt>
</event>
<event>
 4    1 -0.4996155E-019  0.1495209E+02  0.7818608E-02  0.1869534E+00
          2   -1    0    0  501    0  0.00000000000E+00  0.00000000000E+00  0.11888185171E+03  0.11888185174E+03  0.25500000000E-02 0. -1.
         -2   -1    0    0    0  501 -0.00000000000E+00 -0.00000000000E+00 -0.47013751371E+00  0.47014442919E+00  0.25500000000E-02 0.  1.
         31    1    1    2    0    0  0.28116634405E+00 -0.22068132412E+00  0.54800730860E+02  0.55305576424E+02  0.74470750000E+01 0.  1.
        -31    1    1    2    0    0 -0.28116634405E+00  0.22068132412E+00  0.63610983341E+02  0.64046419748E+02  0.74470750000E+01 0. -1.
<mgrwt>
<rscale>  0 0.14952088E+02</rscale>
<asrwt>0</asrwt>
<pdfrwt beam="1">  1        2 0.98688581E+00 0.14952088E+02</pdfrwt>
<pdfrwt beam="2">  1       -2 0.99848411E+00 0.14952088E+02</pdfrwt>
<totfact>-0.12242467E-13</totfact>
</mgrwt>
</event>
<event>
 4    1  0.4996155E-019  0.1492119E+02  0.7818608E-02  0.1870483E+00
         -2   -1    0    0    0  501 -0.00000000000E+00  0.00000000000E+00  0.11871941818E+03  0.11871941821E+03  0.25500000000E-02 0. -1.
          2   -1    0    0  501    0  0.00000000000E+00 -0.00000000000E+00 -0.46883736987E+00  0.46884430453E+00  0.25500000000E-02 0.  1.
         31    1    1    2    0    0 -0.93240088338E-01 -0.12685268078E+00  0.62484020166E+02  0.62926437111E+02  0.74470750000E+01 0. -1.
        -31    1    1    2    0    0  0.93240088338E-01  0.12685268078E+00  0.55766560643E+02  0.56261825400E+02  0.74470750000E+01 0.  1.
<mgrwt>
<rscale>  0 0.14921195E+02</rscale>
<asrwt>0</asrwt>
<pdfrwt beam="2">  1        2 0.99572838E+00 0.14921195E+02</pdfrwt>
<pdfrwt beam="1">  1       -2 0.98553195E+00 0.14921195E+02</pdfrwt>
<totfact> 0.38075037E-13</totfact>
</mgrwt>
</event>
<event>
 4    1 -0.4996155E-019  0.1499869E+02  0.7818608E-02  0.1868109E+00
          2   -1    0    0  501    0  0.00000000000E+00  0.00000000000E+00  0.11985054928E+03  0.11985054931E+03  0.25500000000E-02 0. -1.
         -2   -1    0    0    0  501 -0.00000000000E+00 -0.00000000000E+00 -0.46924878231E+00  0.46925571089E+00  0.25500000000E-02 0.  1.
         31    1    1    2    0    0 -0.57750586398E+00 -0.10075138755E+00  0.54384260180E+02  0.54894902726E+02  0.74470750000E+01 0.  1.
        -31    1    1    2    0    0  0.57750586398E+00  0.10075138755E+00  0.64997040318E+02  0.65424902292E+02  0.74470750000E+01 0. -1.
<mgrwt>
<rscale>  0 0.14998686E+02</rscale>
<asrwt>0</asrwt>
<pdfrwt beam="1">  1        2 0.99488833E+00 0.14998686E+02</pdfrwt>
<pdfrwt beam="2">  1       -2 0.99663573E+00 0.14998686E+02</pdfrwt>
<totfact>-0.10370951E-13</totfact>
</mgrwt>
</event>
<event>
 4    1  0.4996155E-019  0.1489607E+02  0.7818608E-02  0.1871257E+00
          2   -1    0    0  501    0  0.00000000000E+00  0.00000000000E+00  0.11994941510E+03  0.11994941513E+03  0.25500000000E-02 0.  1.
         -2   -1    0    0    0  501 -0.00000000000E+00 -0.00000000000E+00 -0.46246837742E+00  0.46247540758E+00  0.25500000000E-02 0. -1.
         31    1    1    2    0    0 -0.76174743941E-01 -0.38738967574E-01  0.60420118363E+02  0.60877392621E+02  0.74470750000E+01 0.  1.
        -31    1    1    2    0    0  0.76174743941E-01  0.38738967574E-01  0.59066828361E+02  0.59534497915E+02  0.74470750000E+01 0.  1.
<mgrwt>
<rscale>  0 0.14896071E+02</rscale>
<asrwt>0</asrwt>
<pdfrwt beam="1">  1        2 0.99564976E+00 0.14896071E+02</pdfrwt>
<pdfrwt beam="2">  1       -2 0.98229353E+00 0.14896071E+02</pdfrwt>
<totfact> 0.85852690E-13</totfact>
</mgrwt>
</event>
<event>
 4    1 -0.4996155E-019  0.1495967E+02  0.7818608E-02  0.1869302E+00
          2   -1    0    0  501    0  0.00000000000E+00  0.00000000000E+00  0.11910267314E+03  0.11910267316E+03  0.25500000000E-02 0. -1.
         -2   -1    0    0    0  501 -0.00000000000E+00 -0.00000000000E+00 -0.46974195628E+00  0.46974887758E+00  0.25500000000E-02 0.  1.
         31    1    1    2    0    0 -0.40790731384E+00 -0.56787949538E+00  0.59409868659E+02  0.59878880214E+02  0.74470750000E+01 0.  1.
        -31    1    1    2    0    0  0.40790731384E+00  0.56787949538E+00  0.59223062520E+02  0.59693541826E+02  0.74470750000E+01 0.  1.
<mgrwt>
<rscale>  0 0.14959671E+02</rscale>
<asrwt>0</asrwt>
<pdfrwt beam="1">  1        2 0.98870845E+00 0.14959671E+02</pdfrwt>
<pdfrwt beam="2">  1       -2 0.99765462E+00 0.14959671E+02</pdfrwt>
<totfact>-0.13780052E-13</totfact>
</mgrwt>
</event>
<event>
 4    1 -0.4996155E-019  0.1491435E+02  0.7818608E-02  0.1870694E+00
         -2   -1    0    0    0  501 -0.00000000000E+00  0.00000000000E+00  0.12005105109E+03  0.12005105112E+03  0.25500000000E-02 0. -1.
          2   -1    0    0  501    0  0.00000000000E+00 -0.00000000000E+00 -0.46321128600E+00  0.46321830489E+00  0.25500000000E-02 0.  1.
         31    1    1    2    0    0  0.10305901810E+00  0.12208541041E+00  0.62650487918E+02  0.63091743426E+02  0.74470750000E+01 0. -1.
        -31    1    1    2    0    0 -0.10305901810E+00 -0.12208541041E+00  0.56937351887E+02  0.57422525998E+02  0.74470750000E+01 0.  1.
<mgrwt>
<rscale>  0 0.14914346E+02</rscale>
<asrwt>0</asrwt>
<pdfrwt beam="2">  1        2 0.98386860E+00 0.14914346E+02</pdfrwt>
<pdfrwt beam="1">  1       -2 0.99649630E+00 0.14914346E+02</pdfrwt>
<totfact>-0.36786222E-13</totfact>
</mgrwt>
</event>
<event>
 4    1 -0.4996155E-019  0.1496001E+02  0.7818608E-02  0.1869291E+00
          2   -1    0    0  501    0  0.00000000000E+00  0.00000000000E+00  0.11973524647E+03  0.11973524650E+03  0.25500000000E-02 0. -1.
         -2   -1    0    0    0  501 -0.00000000000E+00 -0.00000000000E+00 -0.46728128267E+00  0.46728824042E+00  0.25500000000E-02 0.  1.
         31    1    1    2    0    0  0.45173738592E+00  0.56328776527E-02  0.63941743125E+02  0.64375535247E+02  0.74470750000E+01 0. -1.
        -31    1    1    2    0    0 -0.45173738592E+00 -0.56328776527E-02  0.55326222062E+02  0.55826999490E+02  0.74470750000E+01 0.  1.
<mgrwt>
<rscale>  0 0.14960008E+02</rscale>
<asrwt>0</asrwt>
<pdfrwt beam="1">  1        2 0.99391866E+00 0.14960008E+02</pdfrwt>
<pdfrwt beam="2">  1       -2 0.99246954E+00 0.14960008E+02</pdfrwt>
<totfact>-0.10124601E-13</totfact>
</mgrwt>
</event>
<event>
 4    1 -0.4996155E-019  0.1491834E+02  0.7818608E-02  0.1870571E+00
          2   -1    0    0  501    0  0.00000000000E+00  0.00000000000E+00  0.11850909401E+03  0.11850909403E+03  0.25500000000E-02 0.  1.
         -2   -1    0    0    0  501 -0.00000000000E+00 -0.00000000000E+00 -0.46948946895E+00  0.46949639397E+00  0.25500000000E-02 0. -1.
         31    1    1    2    0    0 -0.38644024430E+00 -0.10210485531E+00  0.57877973761E+02  0.58356478083E+02  0.74470750000E+01 0. -1.
        -31    1    1    2    0    0  0.38644024430E+00  0.10210485531E+00  0.60161630776E+02  0.60622112345E+02  0.74470750000E+01 0.  1.
<mgrwt>
<rscale>  0 0.14918336E+02</rscale>
<asrwt>0</asrwt>
<pdfrwt beam="1">  1        2 0.98379823E+00 0.14918336E+02</pdfrwt>
<pdfrwt beam="2">  1       -2 0.99710088E+00 0.14918336E+02</pdfrwt>
<totfact>-0.33151901E-13</totfact>
</mgrwt>
</event>
<event>
 4    1 -0.4996155E-019  0.1493970E+02  0.7818608E-02  0.1869914E+00
         -2   -1    0    0    0  501 -0.00000000000E+00  0.00000000000E+00  0.11988340665E+03  0.11988340667E+03  0.25500000000E-02 0. -1.
          2   -1    0    0  501    0  0.00000000000E+00 -0.00000000000E+00 -0.46543751264E+00  0.46544449795E+00  0.25500000000E-02 0.  1.
         31    1    1    2    0    0 -0.56258628992E+00 -0.14750450295E+00  0.60017800220E+02  0.60480852592E+02  0.74470750000E+01 0.  1.
        -31    1    1    2    0    0  0.56258628992E+00  0.14750450295E+00  0.59400168914E+02  0.59867998580E+02  0.74470750000E+01 0.  1.
<mgrwt>
<rscale>  0 0.14939700E+02</rscale>
<asrwt>0</asrwt>
<pdfrwt beam="2">  1        2 0.98857347E+00 0.14939700E+02</pdfrwt>
<pdfrwt beam="1">  1       -2 0.99512851E+00 0.14939700E+02</pdfrwt>
<totfact>-0.20725080E-13</totfact>
</mgrwt>
</event>
<event>
 4    1 -0.4996155E-019  0.1500079E+02  0.7818608E-02  0.1868044E+00
         -2   -1    0    0    0  501 -0.00000000000E+00  0.00000000000E+00  0.11986355333E+03  0.11986355336E+03  0.25500000000E-02 0.  1.
          2   -1    0    0  501    0  0.00000000000E+00 -0.00000000000E+00 -0.46932939608E+00  0.46933632347E+00  0.25500000000E-02 0. -1.
         31    1    1    2    0    0 -0.53729749243E+00 -0.70475611825E+00  0.58832705634E+02  0.59308781374E+02  0.74470750000E+01 0. -1.
        -31    1    1    2    0    0  0.53729749243E+00  0.70475611825E+00  0.60561518298E+02  0.61024108305E+02  0.74470750000E+01 0.  1.
<mgrwt>
<rscale>  0 0.15000788E+02</rscale>
<asrwt>0</asrwt>
<pdfrwt beam="2">  1        2 0.99680670E+00 0.15000788E+02</pdfrwt>
<pdfrwt beam="1">  1       -2 0.99499652E+00 0.15000788E+02</pdfrwt>
<totfact>-0.91781252E-14</totfact>
</mgrwt>
</event>
<event>
 4    1 -0.4996155E-019  0.1493251E+02  0.7818608E-02  0.1870135E+00
          2   -1    0    0  501    0  0.00000000000E+00  0.00000000000E+00  0.11905423654E+03  0.11905423657E+03  0.25500000000E-02 0. -1.
         -2   -1    0    0    0  501 -0.00000000000E+00 -0.00000000000E+00 -0.46822786108E+00  0.46823480476E+00  0.25500000000E-02 0.  1.
         31    1    1    2    0    0  0.29842009947E+00 -0.37800776770E+00  0.61153983123E+02  0.61607633637E+02  0.74470750000E+01 0. -1.
        -31    1    1    2    0    0 -0.29842009947E+00  0.37800776770E+00  0.57432025561E+02  0.57914837740E+02  0.74470750000E+01 0.  1.
<mgrwt>
<rscale>  0 0.14932505E+02</rscale>
<asrwt>0</asrwt>
<pdfrwt beam="1">  1        2 0.98829542E+00 0.14932505E+02</pdfrwt>
<pdfrwt beam="2">  1       -2 0.99444998E+00 0.14932505E+02</pdfrwt>
<totfact>-0.21484810E-13</totfact>
</mgrwt>
</event>
<event>
 4    1 -0.4996155E-019  0.1493285E+02  0.7818608E-02  0.1870125E+00
         -2   -1    0    0    0  501 -0.00000000000E+00  0.00000000000E+00  0.12005608992E+03  0.12005608995E+03  0.25500000000E-02 0. -1.
          2   -1    0    0  501    0  0.00000000000E+00 -0.00000000000E+00 -0.46434187741E+00  0.46434887920E+00  0.25500000000E-02 0.  1.
         31    1    1    2    0    0 -0.29933923255E+00  0.11300172772E-01  0.56197008911E+02  0.56689085972E+02  0.74470750000E+01 0.  1.
        -31    1    1    2    0    0  0.29933923255E+00 -0.11300172772E-01  0.63394739130E+02  0.63831352853E+02  0.74470750000E+01 0. -1.
<mgrwt>
<rscale>  0 0.14932849E+02</rscale>
<asrwt>0</asrwt>
<pdfrwt beam="2">  1        2 0.98626086E+00 0.14932849E+02</pdfrwt>
<pdfrwt beam="1">  1       -2 0.99654731E+00 0.14932849E+02</pdfrwt>
<totfact>-0.24839188E-13</totfact>
</mgrwt>
</event>
<event>
 4    1  0.4996155E-019  0.1493943E+02  0.7818608E-02  0.1869922E+00
          2   -1    0    0  501    0  0.00000000000E+00  0.00000000000E+00  0.11994508754E+03  0.11994508756E+03  0.25500000000E-02 0. -1.
         -2   -1    0    0    0  501 -0.00000000000E+00 -0.00000000000E+00 -0.46518136173E+00  0.46518835089E+00  0.25500000000E-02 0.  1.
         31    1    1    2    0    0 -0.31278705543E+00 -0.46203836720E+00  0.58430366850E+02  0.58905670453E+02  0.74470750000E+01 0.  1.
        -31    1    1    2    0    0  0.31278705543E+00  0.46203836720E+00  0.61049539324E+02  0.61504605461E+02  0.74470750000E+01 0.  1.
<mgrwt>
<rscale>  0 0.14939430E+02</rscale>
<asrwt>0</asrwt>
<pdfrwt beam="1">  1        2 0.99563641E+00 0.14939430E+02</pdfrwt>
<pdfrwt beam="2">  1       -2 0.98803349E+00 0.14939430E+02</pdfrwt>
<totfact> 0.13799145E-13</totfact>
</mgrwt>
</event>
<event>
 4    1 -0.4996155E-019  0.1502109E+02  0.7818608E-02  0.1867426E+00
         -2   -1    0    0    0  501 -0.00000000000E+00  0.00000000000E+00  0.11998751981E+03  0.11998751984E+03  0.25500000000E-02 0. -1.
          2   -1    0    0  501    0  0.00000000000E+00 -0.00000000000E+00 -0.47011434966E+00  0.47012126548E+00  0.25500000000E-02 0.  1.
         31    1    1    2    0    0  0.12418661327E+00  0.93252415635E+00  0.61792544801E+02  0.62246787408E+02  0.74470750000E+01 0. -1.
        -31    1    1    2    0    0 -0.12418661327E+00 -0.93252415635E+00  0.57724860658E+02  0.58210853693E+02  0.74470750000E+01 0. -1.
<mgrwt>
<rscale>  0 0.15021088E+02</rscale>
<asrwt>0</asrwt>
<pdfrwt beam="2">  1        2 0.99847135E+00 0.15021088E+02</pdfrwt>
<pdfrwt beam="1">  1       -2 0.99602806E+00 0.15021088E+02</pdfrwt>
<totfact>-0.49352390E-14</totfact>
</mgrwt>
</event>
<event>
 4    1 -0.4996155E-019  0.1496529E+02  0.7818608E-02  0.1869130E+00
         -2   -1    0    0    0  501 -0.00000000000E+00  0.00000000000E+00  0.11987038876E+03  0.11987038878E+03  0.25500000000E-02 0. -1.
          2   -1    0    0  501    0  0.00000000000E+00 -0.00000000000E+00 -0.46708391508E+00  0.46709087577E+00  0.25500000000E-02 0.  1.
         31    1    1    2    0    0 -0.54352666675E+00 -0.65489679217E-01  0.63569038462E+02  0.64006103515E+02  0.74470750000E+01 0.  1.
        -31    1    1    2    0    0  0.54352666675E+00  0.65489679217E-01  0.55834266379E+02  0.56331376144E+02  0.74470750000E+01 0.  1.
<mgrwt>
<rscale>  0 0.14965287E+02</rscale>
<asrwt>0</asrwt>
<pdfrwt beam="2">  1        2 0.99205633E+00 0.14965287E+02</pdfrwt>
<pdfrwt beam="1">  1       -2 0.99503448E+00 0.14965287E+02</pdfrwt>
<totfact>-0.15059911E-13</totfact>
</mgrwt>
</event>
<event>
 4    1  0.4996155E-019  0.1490573E+02  0.7818608E-02  0.1870959E+00
          2   -1    0    0  501    0  0.00000000000E+00  0.00000000000E+00  0.12001705463E+03  0.12001705465E+03  0.25500000000E-02 0. -1.
         -2   -1    0    0    0  501 -0.00000000000E+00 -0.00000000000E+00 -0.46280731968E+00  0.46281434469E+00  0.25500000000E-02 0.  1.
         31    1    1    2    0    0  0.25480537044E+00 -0.14365543350E+00  0.59562135151E+02  0.60026597708E+02  0.74470750000E+01 0.  1.
        -31    1    1    2    0    0 -0.25480537044E+00  0.14365543350E+00  0.59992112157E+02  0.60453271291E+02  0.74470750000E+01 0.  1.
<mgrwt>
<rscale>  0 0.14905730E+02</rscale>
<asrwt>0</asrwt>
<pdfrwt beam="1">  1        2 0.99621185E+00 0.14905730E+02</pdfrwt>
<pdfrwt beam="2">  1       -2 0.98301281E+00 0.14905730E+02</pdfrwt>
<totfact> 0.68034876E-13</totfact>
</mgrwt>
</event>
<event>
 4    1 -0.4996155E-019  0.1495386E+02  0.7818608E-02  0.1869480E+00
          2   -1    0    0  501    0  0.00000000000E+00  0.00000000000E+00  0.11949234158E+03  0.11949234161E+03  0.25500000000E-02 0. -1.
         -2   -1    0    0    0  501 -0.00000000000E+00 -0.00000000000E+00 -0.46784655061E+00  0.46785349995E+00  0.25500000000E-02 0.  1.
         31    1    1    2    0    0  0.98388538219E-01 -0.17454803005E+00  0.54404387274E+02  0.54912079072E+02  0.74470750000E+01 0.  1.
        -31    1    1    2    0    0 -0.98388538219E-01  0.17454803005E+00  0.64620107755E+02  0.65048116034E+02  0.74470750000E+01 0. -1.
<mgrwt>
<rscale>  0 0.14953862E+02</rscale>
<asrwt>0</asrwt>
<pdfrwt beam="1">  1        2 0.99191483E+00 0.14953862E+02</pdfrwt>
<pdfrwt beam="2">  1       -2 0.99365758E+00 0.14953862E+02</pdfrwt>
<totfact>-0.14484197E-13</totfact>
</mgrwt>
</event>
<event>
 4    1 -0.4996155E-019  0.1496040E+02  0.7818608E-02  0.1869279E+00
          2   -1    0    0  501    0  0.00000000000E+00  0.00000000000E+00  0.11965968169E+03  0.11965968171E+03  0.25500000000E-02 0. -1.
         -2   -1    0    0    0  501 -0.00000000000E+00 -0.00000000000E+00 -0.46760118130E+00  0.46760813429E+00  0.25500000000E-02 0.  1.
         31    1    1    2    0    0 -0.49657199422E+00  0.26170593419E+00  0.56194752275E+02  0.56688836494E+02  0.74470750000E+01 0.  1.
        -31    1    1    2    0    0  0.49657199422E+00 -0.26170593419E+00  0.62997328229E+02  0.63438453353E+02  0.74470750000E+01 0. -1.
<mgrwt>
<rscale>  0 0.14960405E+02</rscale>
<asrwt>0</asrwt>
<pdfrwt beam="1">  1        2 0.99329648E+00 0.14960405E+02</pdfrwt>
<pdfrwt beam="2">  1       -2 0.99314389E+00 0.14960405E+02</pdfrwt>
<totfact>-0.12259640E-13</totfact>
</mgrwt>
</event>
<event>
 4    1  0.4996155E-019  0.1492022E+02  0.7818608E-02  0.1870513E+00
         -2   -1    0    0    0  501 -0.00000000000E+00  0.00000000000E+00  0.11842749529E+03  0.11842749532E+03  0.25500000000E-02 0.  1.
          2   -1    0    0  501    0  0.00000000000E+00 -0.00000000000E+00 -0.46993146864E+00  0.46993838716E+00  0.25500000000E-02 0. -1.
         31    1    1    2    0    0 -0.14317706985E-01 -0.36610869402E+00  0.60931614516E+02  0.61386112551E+02  0.74470750000E+01 0. -1.
        -31    1    1    2    0    0  0.14317706985E-01  0.36610869402E+00  0.57025949306E+02  0.57511321154E+02  0.74470750000E+01 0. -1.
<mgrwt>
<rscale>  0 0.14920217E+02</rscale>
<asrwt>0</asrwt>
<pdfrwt beam="2">  1        2 0.99803316E+00 0.14920217E+02</pdfrwt>
<pdfrwt beam="1">  1       -2 0.98312717E+00 0.14920217E+02</pdfrwt>
<totfact> 0.41973952E-13</totfact>
</mgrwt>
</event>
<event>
 4    1 -0.4996155E-019  0.1492779E+02  0.7818608E-02  0.1870280E+00
         -2   -1    0    0    0  501 -0.00000000000E+00  0.00000000000E+00  0.11991149382E+03  0.11991149384E+03  0.25500000000E-02 0. -1.
          2   -1    0    0  501    0  0.00000000000E+00 -0.00000000000E+00 -0.46458671324E+00  0.46459371134E+00  0.25500000000E-02 0.  1.
         31    1    1    2    0    0 -0.10358141448E+00  0.23754814635E+00  0.63178955044E+02  0.63616872328E+02  0.74470750000E+01 0. -1.
        -31    1    1    2    0    0  0.10358141448E+00 -0.23754814635E+00  0.56267952058E+02  0.56759215226E+02  0.74470750000E+01 0.  1.
<mgrwt>
<rscale>  0 0.14927787E+02</rscale>
<asrwt>0</asrwt>
<pdfrwt beam="2">  1        2 0.98677430E+00 0.14927787E+02</pdfrwt>
<pdfrwt beam="1">  1       -2 0.99535371E+00 0.14927787E+02</pdfrwt>
<totfact>-0.26057998E-13</totfact>
</mgrwt>
</event>
<event>
 4    1 -0.4996155E-019  0.1493686E+02  0.7818608E-02  0.1870001E+00
          2   -1    0    0  501    0  0.00000000000E+00  0.00000000000E+00  0.11895926140E+03  0.11895926142E+03  0.25500000000E-02 0.  1.
         -2   -1    0    0    0  501 -0.00000000000E+00 -0.00000000000E+00 -0.46887490742E+00  0.46888184152E+00  0.25500000000E-02 0. -1.
         31    1    1    2    0    0 -0.64785629776E-01 -0.48764230074E+00  0.61456794809E+02  0.61908307572E+02  0.74470750000E+01 0.  1.
        -31    1    1    2    0    0  0.64785629776E-01  0.48764230074E+00  0.57033591680E+02  0.57519835693E+02  0.74470750000E+01 0. -1.
<mgrwt>
<rscale>  0 0.14936858E+02</rscale>
<asrwt>0</asrwt>
<pdfrwt beam="1">  1        2 0.98751545E+00 0.14936858E+02</pdfrwt>
<pdfrwt beam="2">  1       -2 0.99581569E+00 0.14936858E+02</pdfrwt>
<totfact>-0.22733820E-13</totfact>
</mgrwt>
</event>
<event>
 4    1  0.4996155E-019  0.1491215E+02  0.7818608E-02  0.1870761E+00
         -2   -1    0    0    0  501 -0.00000000000E+00  0.00000000000E+00  0.11878927731E+03  0.11878927734E+03  0.25500000000E-02 0. -1.
          2   -1    0    0  501    0  0.00000000000E+00 -0.00000000000E+00 -0.46799360991E+00  0.46800055707E+00  0.25500000000E-02 0.  1.
         31    1    1    2    0    0 -0.11829183971E+00 -0.34478830381E+00  0.58878958695E+02  0.59349166590E+02  0.74470750000E+01 0. -1.
        -31    1    1    2    0    0  0.11829183971E+00  0.34478830381E+00  0.59442325010E+02  0.59908111309E+02  0.74470750000E+01 0.  1.
<mgrwt>
<rscale>  0 0.14912148E+02</rscale>
<asrwt>0</asrwt>
<pdfrwt beam="2">  1        2 0.99394574E+00 0.14912148E+02</pdfrwt>
<pdfrwt beam="1">  1       -2 0.98610261E+00 0.14912148E+02</pdfrwt>
<totfact> 0.37883373E-13</totfact>
</mgrwt>
</event>
<event>
 4    1 -0.4996155E-019  0.1492719E+02  0.7818608E-02  0.1870298E+00
         -2   -1    0    0    0  501 -0.00000000000E+00  0.00000000000E+00  0.11999717559E+03  0.11999717562E+03  0.25500000000E-02 0. -1.
          2   -1    0    0  501    0  0.00000000000E+00 -0.00000000000E+00 -0.46421789752E+00  0.46422490119E+00  0.25500000000E-02 0.  1.
         31    1    1    2    0    0  0.22387415830E+00  0.35293183188E+00  0.61926651111E+02  0.62374223236E+02  0.74470750000E+01 0. -1.
        -31    1    1    2    0    0 -0.22387415830E+00 -0.35293183188E+00  0.57606306585E+02  0.58087177285E+02  0.74470750000E+01 0.  1.
<mgrwt>
<rscale>  0 0.14927191E+02</rscale>
<asrwt>0</asrwt>
<pdfrwt beam="2">  1        2 0.98599669E+00 0.14927191E+02</pdfrwt>
<pdfrwt beam="1">  1       -2 0.99605914E+00 0.14927191E+02</pdfrwt>
<totfact>-0.27644395E-13</totfact>
</mgrwt>
</event>
<event>
 4    1 -0.4996155E-019  0.1495889E+02  0.7818608E-02  0.1869325E+00
         -2   -1    0    0    0  501 -0.00000000000E+00  0.00000000000E+00  0.11962468318E+03  0.11962468321E+03  0.25500000000E-02 0. -1.
          2   -1    0    0  501    0  0.00000000000E+00 -0.00000000000E+00 -0.46764351870E+00  0.46765047106E+00  0.25500000000E-02 0.  1.
         31    1    1    2    0    0 -0.19334038628E+00  0.64112273831E+00  0.58081275509E+02  0.58560583242E+02  0.74470750000E+01 0.  1.
        -31    1    1    2    0    0  0.19334038628E+00 -0.64112273831E+00  0.61075764155E+02  0.61531750439E+02  0.74470750000E+01 0.  1.
<mgrwt>
<rscale>  0 0.14958894E+02</rscale>
<asrwt>0</asrwt>
<pdfrwt beam="2">  1        2 0.99323233E+00 0.14958894E+02</pdfrwt>
<pdfrwt beam="1">  1       -2 0.99300744E+00 0.14958894E+02</pdfrwt>
<totfact>-0.12032799E-13</totfact>
</mgrwt>
</event>
<event>
 4    1 -0.4996155E-019  0.1494127E+02  0.7818608E-02  0.1869866E+00
          2   -1    0    0  501    0  0.00000000000E+00  0.00000000000E+00  0.11935558102E+03  0.11935558105E+03  0.25500000000E-02 0. -1.
         -2   -1    0    0    0  501 -0.00000000000E+00 -0.00000000000E+00 -0.46759405464E+00  0.46760100773E+00  0.25500000000E-02 0.  1.
         31    1    1    2    0    0  0.27121032879E+00  0.52217852718E+00  0.58864204614E+02  0.59336327290E+02  0.74470750000E+01 0. -1.
        -31    1    1    2    0    0 -0.27121032879E+00 -0.52217852718E+00  0.60023782356E+02  0.60486854769E+02  0.74470750000E+01 0.  1.
<mgrwt>
<rscale>  0 0.14941269E+02</rscale>
<asrwt>0</asrwt>
<pdfrwt beam="1">  1        2 0.99078191E+00 0.14941269E+02</pdfrwt>
<pdfrwt beam="2">  1       -2 0.99311896E+00 0.14941269E+02</pdfrwt>
<totfact>-0.14746364E-13</totfact>
</mgrwt>
</event>
<event>
 4    1  0.4996155E-019  0.1490689E+02  0.7818608E-02  0.1870923E+00
         -2   -1    0    0    0  501 -0.00000000000E+00  0.00000000000E+00  0.11849568009E+03  0.11849568011E+03  0.25500000000E-02 0.  1.
          2   -1    0    0  501    0  0.00000000000E+00 -0.00000000000E+00 -0.46882236425E+00  0.46882929913E+00  0.25500000000E-02 0. -1.
         31    1    1    2    0    0 -0.45455726776E-01 -0.28372282730E+00  0.58126618939E+02  0.58602434422E+02  0.74470750000E+01 0. -1.
        -31    1    1    2    0    0  0.45455726776E-01  0.28372282730E+00  0.59900238784E+02  0.60362074992E+02  0.74470750000E+01 0.  1.
<mgrwt>
<rscale>  0 0.14906890E+02</rscale>
<asrwt>0</asrwt>
<pdfrwt beam="2">  1        2 0.99568924E+00 0.14906890E+02</pdfrwt>
<pdfrwt beam="1">  1       -2 0.98368180E+00 0.14906890E+02</pdfrwt>
<totfact> 0.62939664E-13</totfact>
</mgrwt>
</event>
<event>
 4    1 -0.4996155E-019  0.1492542E+02  0.7818608E-02  0.1870353E+00
         -2   -1    0    0    0  501 -0.00000000000E+00  0.00000000000E+00  0.11981874936E+03  0.11981874939E+03  0.25500000000E-02 0. -1.
          2   -1    0    0  501    0  0.00000000000E+00 -0.00000000000E+00 -0.46479906447E+00  0.46480605938E+00  0.25500000000E-02 0.  1.
         31    1    1    2    0    0 -0.21781477627E+00  0.42739514266E+00  0.60120510576E+02  0.60581885312E+02  0.74470750000E+01 0. -1.
        -31    1    1    2    0    0  0.21781477627E+00 -0.42739514266E+00  0.59233439721E+02  0.59701670137E+02  0.74470750000E+01 0.  1.
<mgrwt>
<rscale>  0 0.14925423E+02</rscale>
<asrwt>0</asrwt>
<pdfrwt beam="2">  1        2 0.98722063E+00 0.14925423E+02</pdfrwt>
<pdfrwt beam="1">  1       -2 0.99458859E+00 0.14925423E+02</pdfrwt>
<totfact>-0.24809941E-13</totfact>
</mgrwt>
</event>
<event>
 4    1 -0.4996155E-019  0.1495772E+02  0.7818608E-02  0.1869362E+00
          2   -1    0    0  501    0  0.00000000000E+00  0.00000000000E+00  0.11960919227E+03  0.11960919229E+03  0.25500000000E-02 0. -1.
         -2   -1    0    0    0  501 -0.00000000000E+00 -0.00000000000E+00 -0.46763052192E+00  0.46763747447E+00  0.25500000000E-02 0.  1.
         31    1    1    2    0    0 -0.32821491009E+00 -0.49402214030E+00  0.62381859212E+02  0.62827597978E+02  0.74470750000E+01 0. -1.
        -31    1    1    2    0    0  0.32821491009E+00  0.49402214030E+00  0.56759702533E+02  0.57249231790E+02  0.74470750000E+01 0.  1.
<mgrwt>
<rscale>  0 0.14957717E+02</rscale>
<asrwt>0</asrwt>
<pdfrwt beam="1">  1        2 0.99287924E+00 0.14957717E+02</pdfrwt>
<pdfrwt beam="2">  1       -2 0.99320433E+00 0.14957717E+02</pdfrwt>
<totfact>-0.12757396E-13</totfact>
</mgrwt>
</event>
<event>
 4    1 -0.4996155E-019  0.1502129E+02  0.7818608E-02  0.1867419E+00
          2   -1    0    0  501    0  0.00000000000E+00  0.00000000000E+00  0.12016537644E+03  0.12016537647E+03  0.25500000000E-02 0.  1.
         -2   -1    0    0    0  501 -0.00000000000E+00 -0.00000000000E+00 -0.46943143215E+00  0.46943835803E+00  0.25500000000E-02 0. -1.
         31    1    1    2    0    0 -0.46188319735E-01 -0.30731766647E+00  0.52425036325E+02  0.52952242042E+02  0.74470750000E+01 0. -1.
        -31    1    1    2    0    0  0.46188319735E-01  0.30731766647E+00  0.67270908684E+02  0.67682572785E+02  0.74470750000E+01 0.  1.
<mgrwt>
<rscale>  0 0.15021295E+02</rscale>
<asrwt>0</asrwt>
<pdfrwt beam="1">  1        2 0.99749305E+00 0.15021295E+02</pdfrwt>
<pdfrwt beam="2">  1       -2 0.99703233E+00 0.15021295E+02</pdfrwt>
<totfact>-0.61775018E-14</totfact>
</mgrwt>
</event>
<event>
 4    1  0.4996155E-019  0.1490565E+02  0.7818608E-02  0.1870961E+00
         -2   -1    0    0    0  501 -0.00000000000E+00  0.00000000000E+00  0.11875621485E+03  0.11875621488E+03  0.25500000000E-02 0.  1.
          2   -1    0    0  501    0  0.00000000000E+00 -0.00000000000E+00 -0.46771595868E+00  0.46772290997E+00  0.25500000000E-02 0. -1.
         31    1    1    2    0    0 -0.16755804028E+00 -0.15706143609E-01  0.57228854742E+02  0.57711602503E+02  0.74470750000E+01 0. -1.
        -31    1    1    2    0    0  0.16755804028E+00  0.15706143609E-01  0.61059644148E+02  0.61512335283E+02  0.74470750000E+01 0.  1.
<mgrwt>
<rscale>  0 0.14905649E+02</rscale>
<asrwt>0</asrwt>
<pdfrwt beam="2">  1        2 0.99335729E+00 0.14905649E+02</pdfrwt>
<pdfrwt beam="1">  1       -2 0.98582693E+00 0.14905649E+02</pdfrwt>
<totfact> 0.43437878E-13</totfact>
</mgrwt>
</event>
<event>
 4    1 -0.4996155E-019  0.1499986E+02  0.7818608E-02  0.1868073E+00
          2   -1    0    0  501    0  0.00000000000E+00  0.00000000000E+00  0.11993472536E+03  0.11993472539E+03  0.25500000000E-02 0. -1.
         -2   -1    0    0    0  501 -0.00000000000E+00 -0.00000000000E+00 -0.46899301032E+00  0.46899994267E+00  0.25500000000E-02 0.  1.
         31    1    1    2    0    0 -0.77854590290E+00  0.41188620152E+00  0.60691304807E+02  0.61152834679E+02  0.74470750000E+01 0. -1.
        -31    1    1    2    0    0  0.77854590290E+00 -0.41188620152E+00  0.58774427547E+02  0.59250890656E+02  0.74470750000E+01 0. -1.
<mgrwt>
<rscale>  0 0.14999862E+02</rscale>
<asrwt>0</asrwt>
<pdfrwt beam="1">  1        2 0.99558224E+00 0.14999862E+02</pdfrwt>
<pdfrwt beam="2">  1       -2 0.99609735E+00 0.14999862E+02</pdfrwt>
<totfact>-0.10366860E-13</totfact>
</mgrwt>
</event>
<event>
 4    1  0.4996155E-019  0.1489846E+02  0.7818608E-02  0.1871183E+00
         -2   -1    0    0    0  501 -0.00000000000E+00  0.00000000000E+00  0.11792031954E+03  0.11792031956E+03  0.25500000000E-02 0.  1.
          2   -1    0    0  501    0  0.00000000000E+00 -0.00000000000E+00 -0.47057745937E+00  0.47058436838E+00  0.25500000000E-02 0. -1.
         31    1    1    2    0    0  0.26889598630E-02  0.16906899443E+00  0.58252245010E+02  0.58726583132E+02  0.74470750000E+01 0.  1.
        -31    1    1    2    0    0 -0.26889598630E-02 -0.16906899443E+00  0.59197497066E+02  0.59664320800E+02  0.74470750000E+01 0.  1.
<mgrwt>
<rscale>  0 0.14898464E+02</rscale>
<asrwt>0</asrwt>
<pdfrwt beam="2">  1        2 0.99938264E+00 0.14898464E+02</pdfrwt>
<pdfrwt beam="1">  1       -2 0.97893883E+00 0.14898464E+02</pdfrwt>
<totfact> 0.33202498E-13</totfact>
</mgrwt>
</event>
<event>
 4    1 -0.4996155E-019  0.1500332E+02  0.7818608E-02  0.1867967E+00
         -2   -1    0    0    0  501 -0.00000000000E+00  0.00000000000E+00  0.12018767465E+03  0.12018767468E+03  0.25500000000E-02 0.  1.
          2   -1    0    0  501    0  0.00000000000E+00 -0.00000000000E+00 -0.46822155309E+00  0.46822849686E+00  0.25500000000E-02 0. -1.
         31    1    1    2    0    0  0.88930325865E+00  0.13852689373E+00  0.60477659129E+02  0.60941088189E+02  0.74470750000E+01 0.  1.
        -31    1    1    2    0    0 -0.88930325865E+00 -0.13852689373E+00  0.59241793967E+02  0.59714814984E+02  0.74470750000E+01 0. -1.
<mgrwt>
<rscale>  0 0.15003317E+02</rscale>
<asrwt>0</asrwt>
<pdfrwt beam="2">  1        2 0.99447338E+00 0.15003317E+02</pdfrwt>
<pdfrwt beam="1">  1       -2 0.99766743E+00 0.15003317E+02</pdfrwt>
<totfact>-0.84135684E-14</totfact>
</mgrwt>
</event>
<event>
 4    1 -0.4996155E-019  0.1496597E+02  0.7818608E-02  0.1869109E+00
          2   -1    0    0  501    0  0.00000000000E+00  0.00000000000E+00  0.11967121714E+03  0.11967121716E+03  0.25500000000E-02 0.  1.
         -2   -1    0    0    0  501 -0.00000000000E+00 -0.00000000000E+00 -0.46790428701E+00  0.46791123549E+00  0.25500000000E-02 0. -1.
         31    1    1    2    0    0  0.35580814722E+00 -0.53512910329E+00  0.62419359640E+02  0.62865319107E+02  0.74470750000E+01 0.  1.
        -31    1    1    2    0    0 -0.35580814722E+00  0.53512910329E+00  0.56783953209E+02  0.57273809291E+02  0.74470750000E+01 0. -1.
<mgrwt>
<rscale>  0 0.14965974E+02</rscale>
<asrwt>0</asrwt>
<pdfrwt beam="1">  1        2 0.99339437E+00 0.14965974E+02</pdfrwt>
<pdfrwt beam="2">  1       -2 0.99378552E+00 0.14965974E+02</pdfrwt>
<totfact>-0.13172301E-13</totfact>
</mgrwt>
</event>
<event>
 4    1  0.4996155E-019  0.1490644E+02  0.7818608E-02  0.1870937E+00
         -2   -1    0    0    0  501 -0.00000000000E+00  0.00000000000E+00  0.11877169486E+03  0.11877169488E+03  0.25500000000E-02 0. -1.
          2   -1    0    0  501    0  0.00000000000E+00 -0.00000000000E+00 -0.46770441747E+00  0.46771136892E+00  0.25500000000E-02 0.  1.
         31    1    1    2    0    0 -0.17072370244E+00  0.53927248902E-01  0.61102906192E+02  0.61555309486E+02  0.74470750000E+01 0. -1.
        -31    1    1    2    0    0  0.17072370244E+00 -0.53927248902E-01  0.57201084247E+02  0.57684096767E+02  0.74470750000E+01 0. -1.
<mgrwt>
<rscale>  0 0.14906437E+02</rscale>
<asrwt>0</asrwt>
<pdfrwt beam="2">  1        2 0.99333338E+00 0.14906437E+02</pdfrwt>
<pdfrwt beam="1">  1       -2 0.98595484E+00 0.14906437E+02</pdfrwt>
<totfact> 0.41726756E-13</totfact>
</mgrwt>
</event>
<event>
 4    1  0.4996155E-019  0.1493482E+02  0.7818608E-02  0.1870064E+00
         -2   -1    0    0    0  501 -0.00000000000E+00  0.00000000000E+00  0.11884304142E+03  0.11884304145E+03  0.25500000000E-02 0. -1.
          2   -1    0    0  501    0  0.00000000000E+00 -0.00000000000E+00 -0.46920541658E+00  0.46921234580E+00  0.25500000000E-02 0.  1.
         31    1    1    2    0    0  0.16843764855E+00 -0.67267224897E-01  0.63341062853E+02  0.63777598462E+02  0.74470750000E+01 0. -1.
        -31    1    1    2    0    0 -0.16843764855E+00  0.67267224897E-01  0.55032773154E+02  0.55534655335E+02  0.74470750000E+01 0.  1.
<mgrwt>
<rscale>  0 0.14934820E+02</rscale>
<asrwt>0</asrwt>
<pdfrwt beam="2">  1        2 0.99651104E+00 0.14934820E+02</pdfrwt>
<pdfrwt beam="1">  1       -2 0.98655719E+00 0.14934820E+02</pdfrwt>
<totfact> 0.23848250E-13</totfact>
</mgrwt>
</event>
<event>
 4    1 -0.4996155E-019  0.1498584E+02  0.7818608E-02  0.1868501E+00
          2   -1    0    0  501    0  0.00000000000E+00  0.00000000000E+00  0.11999075014E+03  0.11999075017E+03  0.25500000000E-02 0.  1.
         -2   -1    0    0    0  501 -0.00000000000E+00 -0.00000000000E+00 -0.46789804713E+00  0.46790499571E+00  0.25500000000E-02 0. -1.
         31    1    1    2    0    0  0.46983916778E+00  0.50818419368E+00  0.63409121101E+02  0.63848684911E+02  0.74470750000E+01 0.  1.
        -31    1    1    2    0    0 -0.46983916778E+00 -0.50818419368E+00  0.56113730994E+02  0.56609970254E+02  0.74470750000E+01 0.  1.
<mgrwt>
<rscale>  0 0.14985841E+02</rscale>
<asrwt>0</asrwt>
<pdfrwt beam="1">  1        2 0.99603644E+00 0.14985841E+02</pdfrwt>
<pdfrwt beam="2">  1       -2 0.99378262E+00 0.14985841E+02</pdfrwt>
<totfact>-0.10100896E-13</totfact>
</mgrwt>
</event>
<event>
 4    1 -0.4996155E-019  0.1495173E+02  0.7818608E-02  0.1869545E+00
         -2   -1    0    0    0  501 -0.00000000000E+00  0.00000000000E+00  0.11997386242E+03  0.11997386244E+03  0.25500000000E-02 0. -1.
          2   -1    0    0  501    0  0.00000000000E+00 -0.00000000000E+00 -0.46583594593E+00  0.46584292527E+00  0.25500000000E-02 0.  1.
         31    1    1    2    0    0  0.26344704012E+00 -0.53675098190E+00  0.61917374074E+02  0.62366478530E+02  0.74470750000E+01 0. -1.
        -31    1    1    2    0    0 -0.26344704012E+00  0.53675098190E+00  0.57590652397E+02  0.58073226840E+02  0.74470750000E+01 0.  1.
<mgrwt>
<rscale>  0 0.14951730E+02</rscale>
<asrwt>0</asrwt>
<pdfrwt beam="2">  1        2 0.98941933E+00 0.14951730E+02</pdfrwt>
<pdfrwt beam="1">  1       -2 0.99587975E+00 0.14951730E+02</pdfrwt>
<totfact>-0.17978331E-13</totfact>
</mgrwt>
</event>
<event>
 4    1  0.4996155E-019  0.1491746E+02  0.7818608E-02  0.1870598E+00
         -2   -1    0    0    0  501 -0.00000000000E+00  0.00000000000E+00  0.11836819877E+03  0.11836819879E+03  0.25500000000E-02 0.  1.
          2   -1    0    0  501    0  0.00000000000E+00 -0.00000000000E+00 -0.46999334051E+00  0.47000025811E+00  0.25500000000E-02 0. -1.
         31    1    1    2    0    0 -0.37775992611E+00  0.15989622624E+00  0.59538959184E+02  0.60004290314E+02  0.74470750000E+01 0. -1.
        -31    1    1    2    0    0  0.37775992611E+00 -0.15989622624E+00  0.58359246243E+02  0.58833908739E+02  0.74470750000E+01 0. -1.
<mgrwt>
<rscale>  0 0.14917463E+02</rscale>
<asrwt>0</asrwt>
<pdfrwt beam="2">  1        2 0.99816206E+00 0.14917463E+02</pdfrwt>
<pdfrwt beam="1">  1       -2 0.98263738E+00 0.14917463E+02</pdfrwt>
<totfact> 0.44250802E-13</totfact>
</mgrwt>
</event>
<event>
 4    1  0.4996155E-019  0.1490203E+02  0.7818608E-02  0.1871073E+00
         -2   -1    0    0    0  501 -0.00000000000E+00  0.00000000000E+00  0.11843816884E+03  0.11843816886E+03  0.25500000000E-02 0.  1.
          2   -1    0    0  501    0  0.00000000000E+00 -0.00000000000E+00 -0.46874435065E+00  0.46875128668E+00  0.25500000000E-02 0. -1.
         31    1    1    2    0    0 -0.15973070266E+00  0.80272579575E-01  0.57679602187E+02  0.58158639875E+02  0.74470750000E+01 0. -1.
        -31    1    1    2    0    0  0.15973070266E+00 -0.80272579575E-01  0.60289822299E+02  0.60748280276E+02  0.74470750000E+01 0.  1.
<mgrwt>
<rscale>  0 0.14902032E+02</rscale>
<asrwt>0</asrwt>
<pdfrwt beam="2">  1        2 0.99552231E+00 0.14902032E+02</pdfrwt>
<pdfrwt beam="1">  1       -2 0.98320561E+00 0.14902032E+02</pdfrwt>
<totfact> 0.71745867E-13</totfact>
</mgrwt>
</event>
<event>
 4    1  0.4996155E-019  0.1489817E+02  0.7818608E-02  0.1871192E+00
          2   -1    0    0  501    0  0.00000000000E+00  0.00000000000E+00  0.12005948600E+03  0.12005948603E+03  0.25500000000E-02 0. -1.
         -2   -1    0    0    0  501 -0.00000000000E+00 -0.00000000000E+00 -0.46217474930E+00  0.46218178393E+00  0.25500000000E-02 0.  1.
         31    1    1    2    0    0 -0.14188673885E+00  0.43578956610E-01  0.59078202065E+02  0.59545905958E+02  0.74470750000E+01 0. -1.
        -31    1    1    2    0    0  0.14188673885E+00 -0.43578956610E-01  0.60519109189E+02  0.60975761857E+02  0.74470750000E+01 0. -1.
<mgrwt>
<rscale>  0 0.14898173E+02</rscale>
<asrwt>0</asrwt>
<pdfrwt beam="1">  1        2 0.99655747E+00 0.14898173E+02</pdfrwt>
<pdfrwt beam="2">  1       -2 0.98167572E+00 0.14898173E+02</pdfrwt>
<totfact> 0.84469788E-13</totfact>
</mgrwt>
</event>
<event>
 4    1 -0.4996155E-019  0.1499323E+02  0.7818608E-02  0.1868275E+00
          2   -1    0    0  501    0  0.00000000000E+00  0.00000000000E+00  0.11986074388E+03  0.11986074391E+03  0.25500000000E-02 0. -1.
         -2   -1    0    0    0  501 -0.00000000000E+00 -0.00000000000E+00 -0.46886757786E+00  0.46887451207E+00  0.25500000000E-02 0.  1.
         31    1    1    2    0    0  0.80527464070E+00  0.12769938526E-01  0.62125973299E+02  0.62575906823E+02  0.74470750000E+01 0. -1.
        -31    1    1    2    0    0 -0.80527464070E+00 -0.12769938526E-01  0.57265903006E+02  0.57753711599E+02  0.74470750000E+01 0.  1.
<mgrwt>
<rscale>  0 0.14993230E+02</rscale>
<asrwt>0</asrwt>
<pdfrwt beam="1">  1        2 0.99496948E+00 0.14993230E+02</pdfrwt>
<pdfrwt beam="2">  1       -2 0.99582959E+00 0.14993230E+02</pdfrwt>
<totfact>-0.11422234E-13</totfact>
</mgrwt>
</event>
<event>
 4    1  0.4996155E-019  0.1493125E+02  0.7818608E-02  0.1870174E+00
         -2   -1    0    0    0  501 -0.00000000000E+00  0.00000000000E+00  0.11854088467E+03  0.11854088469E+03  0.25500000000E-02 0. -1.
          2   -1    0    0  501    0  0.00000000000E+00 -0.00000000000E+00 -0.47017650029E+00  0.47018341520E+00  0.25500000000E-02 0.  1.
         31    1    1    2    0    0 -0.30476587722E+00 -0.21904910049E+00  0.61972179129E+02  0.62419153925E+02  0.74470750000E+01 0. -1.
        -31    1    1    2    0    0  0.30476587722E+00  0.21904910049E+00  0.56098529036E+02  0.56591914183E+02  0.74470750000E+01 0. -1.
<mgrwt>
<rscale>  0 0.14931249E+02</rscale>
<asrwt>0</asrwt>
<pdfrwt beam="2">  1        2 0.99855527E+00 0.14931249E+02</pdfrwt>
<pdfrwt beam="1">  1       -2 0.98406678E+00 0.14931249E+02</pdfrwt>
<totfact> 0.26190915E-13</totfact>
</mgrwt>
</event>
<event>
 4    1  0.4996155E-019  0.1492523E+02  0.7818608E-02  0.1870359E+00
          2   -1    0    0  501    0  0.00000000000E+00  0.00000000000E+00  0.11974414765E+03  0.11974414767E+03  0.25500000000E-02 0.  1.
         -2   -1    0    0    0  501 -0.00000000000E+00 -0.00000000000E+00 -0.46507664263E+00  0.46508363336E+00  0.25500000000E-02 0. -1.
         31    1    1    2    0    0  0.10954046646E+00 -0.22759738667E+00  0.56339299500E+02  0.56829916363E+02  0.74470750000E+01 0. -1.
        -31    1    1    2    0    0 -0.10954046646E+00  0.22759738667E+00  0.62939771504E+02  0.63379314943E+02  0.74470750000E+01 0.  1.
<mgrwt>
<rscale>  0 0.14925231E+02</rscale>
<asrwt>0</asrwt>
<pdfrwt beam="1">  1        2 0.99397403E+00 0.14925231E+02</pdfrwt>
<pdfrwt beam="2">  1       -2 0.98780553E+00 0.14925231E+02</pdfrwt>
<totfact> 0.18479208E-13</totfact>
</mgrwt>
</event>
<event>
 4    1  0.4996155E-019  0.1489828E+02  0.7818608E-02  0.1871189E+00
          2   -1    0    0  501    0  0.00000000000E+00  0.00000000000E+00  0.12009776508E+03  0.12009776511E+03  0.25500000000E-02 0. -1.
         -2   -1    0    0    0  501 -0.00000000000E+00 -0.00000000000E+00 -0.46203385506E+00  0.46204089183E+00  0.25500000000E-02 0.  1.
         31    1    1    2    0    0  0.30700730723E-02 -0.15508337655E+00  0.59156833701E+02  0.59623937810E+02  0.74470750000E+01 0.  1.
        -31    1    1    2    0    0 -0.30700730723E-02  0.15508337655E+00  0.60478897523E+02  0.60935868189E+02  0.74470750000E+01 0.  1.
<mgrwt>
<rscale>  0 0.14898276E+02</rscale>
<asrwt>0</asrwt>
<pdfrwt beam="1">  1        2 0.99687283E+00 0.14898276E+02</pdfrwt>
<pdfrwt beam="2">  1       -2 0.98137881E+00 0.14898276E+02</pdfrwt>
<totfact> 0.84002571E-13</totfact>
</mgrwt>
</event>
<event>
 4    1  0.4996155E-019  0.1490491E+02  0.7818608E-02  0.1870984E+00
         -2   -1    0    0    0  501 -0.00000000000E+00  0.00000000000E+00  0.11880028572E+03  0.11880028575E+03  0.25500000000E-02 0. -1.
          2   -1    0    0  501    0  0.00000000000E+00 -0.00000000000E+00 -0.46749597441E+00  0.46750292896E+00  0.25500000000E-02 0.  1.
         31    1    1    2    0    0 -0.75265758282E-01 -0.49258600526E-01  0.57018446740E+02  0.57502785029E+02  0.74470750000E+01 0.  1.
        -31    1    1    2    0    0  0.75265758282E-01  0.49258600526E-01  0.61314343004E+02  0.61765003646E+02  0.74470750000E+01 0. -1.
<mgrwt>
<rscale>  0 0.14904908E+02</rscale>
<asrwt>0</asrwt>
<pdfrwt beam="2">  1        2 0.99289336E+00 0.14904908E+02</pdfrwt>
<pdfrwt beam="1">  1       -2 0.98618952E+00 0.14904908E+02</pdfrwt>
<totfact> 0.39782332E-13</totfact>
</mgrwt>
</event>
<event>
 4    1 -0.4996155E-019  0.1498230E+02  0.7818608E-02  0.1868609E+00
          2   -1    0    0  501    0  0.00000000000E+00  0.00000000000E+00  0.11941515852E+03  0.11941515855E+03  0.25500000000E-02 0.  1.
         -2   -1    0    0    0  501 -0.00000000000E+00 -0.00000000000E+00 -0.46993124979E+00  0.46993816831E+00  0.25500000000E-02 0. -1.
         31    1    1    2    0    0  0.52216425664E+00 -0.28886823542E+00  0.55073055265E+02  0.55577481435E+02  0.74470750000E+01 0. -1.
        -31    1    1    2    0    0 -0.52216425664E+00  0.28886823542E+00  0.63872172009E+02  0.64307615284E+02  0.74470750000E+01 0.  1.
<mgrwt>
<rscale>  0 0.14982300E+02</rscale>
<asrwt>0</asrwt>
<pdfrwt beam="1">  1        2 0.99129386E+00 0.14982300E+02</pdfrwt>
<pdfrwt beam="2">  1       -2 0.99806532E+00 0.14982300E+02</pdfrwt>
<totfact>-0.92404967E-14</totfact>
</mgrwt>
</event>
<event>
 4    1 -0.4996155E-019  0.1491955E+02  0.7818608E-02  0.1870533E+00
          2   -1    0    0  501    0  0.00000000000E+00  0.00000000000E+00  0.11883248161E+03  0.11883248163E+03  0.25500000000E-02 0.  1.
         -2   -1    0    0    0  501 -0.00000000000E+00 -0.00000000000E+00 -0.46828801709E+00  0.46829495988E+00  0.25500000000E-02 0. -1.
         31    1    1    2    0    0 -0.18524327961E+00 -0.23153043183E+00  0.56635871401E+02  0.57124152307E+02  0.74470750000E+01 0. -1.
        -31    1    1    2    0    0  0.18524327961E+00  0.23153043183E+00  0.61728322187E+02  0.62176624285E+02  0.74470750000E+01 0.  1.
<mgrwt>
<rscale>  0 0.14919550E+02</rscale>
<asrwt>0</asrwt>
<pdfrwt beam="1">  1        2 0.98646229E+00 0.14919550E+02</pdfrwt>
<pdfrwt beam="2">  1       -2 0.99456997E+00 0.14919550E+02</pdfrwt>
<totfact>-0.27670263E-13</totfact>
</mgrwt>
</event>
<event>
 4    1 -0.4996155E-019  0.1499497E+02  0.7818608E-02  0.1868222E+00
          2   -1    0    0  501    0  0.00000000000E+00  0.00000000000E+00  0.11987226613E+03  0.11987226616E+03  0.25500000000E-02 0.  1.
         -2   -1    0    0    0  501 -0.00000000000E+00 -0.00000000000E+00 -0.46893133774E+00  0.46893827101E+00  0.25500000000E-02 0. -1.
         31    1    1    2    0    0 -0.93724488986E-01 -0.84540200433E+00  0.58314727635E+02  0.58794471458E+02  0.74470750000E+01 0.  1.
        -31    1    1    2    0    0  0.93724488986E-01  0.84540200433E+00  0.61088607162E+02  0.61546732975E+02  0.74470750000E+01 0.  1.
<mgrwt>
<rscale>  0 0.14994970E+02</rscale>
<asrwt>0</asrwt>
<pdfrwt beam="1">  1        2 0.99506528E+00 0.14994970E+02</pdfrwt>
<pdfrwt beam="2">  1       -2 0.99596485E+00 0.14994970E+02</pdfrwt>
<totfact>-0.11160858E-13</totfact>
</mgrwt>
</event>
<event>
 4    1 -0.4996155E-019  0.1501378E+02  0.7818608E-02  0.1867648E+00
          2   -1    0    0  501    0  0.00000000000E+00  0.00000000000E+00  0.12029626190E+03  0.12029626193E+03  0.25500000000E-02 0. -1.
         -2   -1    0    0    0  501 -0.00000000000E+00 -0.00000000000E+00 -0.46845154916E+00  0.46845848953E+00  0.25500000000E-02 0.  1.
         31    1    1    2    0    0 -0.64162203512E+00 -0.30187816027E+00  0.64947778105E+02  0.65377179627E+02  0.74470750000E+01 0. -1.
        -31    1    1    2    0    0  0.64162203512E+00  0.30187816027E+00  0.54880032245E+02  0.55387540788E+02  0.74470750000E+01 0.  1.
<mgrwt>
<rscale>  0 0.15013779E+02</rscale>
<asrwt>0</asrwt>
<pdfrwt beam="1">  1        2 0.99856720E+00 0.15013779E+02</pdfrwt>
<pdfrwt beam="2">  1       -2 0.99496346E+00 0.15013779E+02</pdfrwt>
<totfact>-0.49993596E-14</totfact>
</mgrwt>
</event>
<event>
 4    1 -0.4996155E-019  0.1499624E+02  0.7818608E-02  0.1868183E+00
         -2   -1    0    0    0  501 -0.00000000000E+00  0.00000000000E+00  0.12024950228E+03  0.12024950231E+03  0.25500000000E-02 0. -1.
          2   -1    0    0  501    0  0.00000000000E+00 -0.00000000000E+00 -0.46753944534E+00  0.46754639925E+00  0.25500000000E-02 0.  1.
         31    1    1    2    0    0  0.37177610454E+00 -0.38251769112E+00  0.54323532787E+02  0.54834201716E+02  0.74470750000E+01 0.  1.
        -31    1    1    2    0    0 -0.37177610454E+00  0.38251769112E+00  0.65458430047E+02  0.65882846990E+02  0.74470750000E+01 0.  1.
<mgrwt>
<rscale>  0 0.14996240E+02</rscale>
<asrwt>0</asrwt>
<pdfrwt beam="2">  1        2 0.99303224E+00 0.14996240E+02</pdfrwt>
<pdfrwt beam="1">  1       -2 0.99817302E+00 0.14996240E+02</pdfrwt>
<totfact>-0.77606620E-14</totfact>
</mgrwt>
</event>
<event>
 4    1 -0.4996155E-019  0.1493283E+02  0.7818608E-02  0.1870125E+00
          2   -1    0    0  501    0  0.00000000000E+00  0.00000000000E+00  0.11856853013E+03  0.11856853016E+03  0.25500000000E-02 0. -1.
         -2   -1    0    0    0  501 -0.00000000000E+00 -0.00000000000E+00 -0.47016612527E+00  0.47017304032E+00  0.25500000000E-02 0.  1.
         31    1    1    2    0    0 -0.36349017212E+00  0.34462037988E+00  0.57505378052E+02  0.57987742837E+02  0.74470750000E+01 0.  1.
        -31    1    1    2    0    0  0.36349017212E+00 -0.34462037988E+00  0.60592985956E+02  0.61050960365E+02  0.74470750000E+01 0.  1.
<mgrwt>
<rscale>  0 0.14932826E+02</rscale>
<asrwt>0</asrwt>
<pdfrwt beam="1">  1        2 0.98429529E+00 0.14932826E+02</pdfrwt>
<pdfrwt beam="2">  1       -2 0.99853424E+00 0.14932826E+02</pdfrwt>
<totfact>-0.17838729E-13</totfact>
</mgrwt>
</event>
<event>
 4    1 -0.4996155E-019  0.1504173E+02  0.7818608E-02  0.1866798E+00
         -2   -1    0    0    0  501 -0.00000000000E+00  0.00000000000E+00  0.12038880462E+03  0.12038880464E+03  0.25500000000E-02 0. -1.
          2   -1    0    0  501    0  0.00000000000E+00 -0.00000000000E+00 -0.46983572567E+00  0.46984264559E+00  0.25500000000E-02 0.  1.
         31    1    1    2    0    0  0.12859629704E-01  0.88980719405E+00  0.64451362211E+02  0.64886276971E+02  0.74470750000E+01 0. -1.
        -31    1    1    2    0    0 -0.12859629704E-01 -0.88980719405E+00  0.55467606680E+02  0.55972370319E+02  0.74470750000E+01 0. -1.
<mgrwt>
<rscale>  0 0.15041726E+02</rscale>
<asrwt>0</asrwt>
<pdfrwt beam="2">  1        2 0.99789487E+00 0.15041726E+02</pdfrwt>
<pdfrwt beam="1">  1       -2 0.99934386E+00 0.15041726E+02</pdfrwt>
<totfact>-0.14953471E-14</totfact>
</mgrwt>
</event>
<event>
 4    1  0.4996155E-019  0.1494880E+02  0.7818608E-02  0.1869635E+00
         -2   -1    0    0    0  501 -0.00000000000E+00  0.00000000000E+00  0.11909143190E+03  0.11909143193E+03  0.25500000000E-02 0. -1.
          2   -1    0    0  501    0  0.00000000000E+00 -0.00000000000E+00 -0.46910364626E+00  0.46911057698E+00  0.25500000000E-02 0.  1.
         31    1    1    2    0    0  0.61094945851E+00  0.83635762915E-01  0.60636533974E+02  0.61095240671E+02  0.74470750000E+01 0.  1.
        -31    1    1    2    0    0 -0.61094945851E+00 -0.83635762915E-01  0.57985794284E+02  0.58465301838E+02  0.74470750000E+01 0.  1.
<mgrwt>
<rscale>  0 0.14948798E+02</rscale>
<asrwt>0</asrwt>
<pdfrwt beam="2">  1        2 0.99630392E+00 0.14948798E+02</pdfrwt>
<pdfrwt beam="1">  1       -2 0.98861022E+00 0.14948798E+02</pdfrwt>
<totfact> 0.85587943E-14</totfact>
</mgrwt>
</event>
<event>
 4    1 -0.4996155E-019  0.1490789E+02  0.7818608E-02  0.1870892E+00
         -2   -1    0    0    0  501 -0.00000000000E+00  0.00000000000E+00  0.12035642658E+03  0.12035642661E+03  0.25500000000E-02 0.  1.
          2   -1    0    0  501    0  0.00000000000E+00 -0.00000000000E+00 -0.46163602241E+00  0.46164306525E+00  0.25500000000E-02 0. -1.
         31    1    1    2    0    0  0.20744610347E+00  0.99603668022E-01  0.61748818029E+02  0.62196691301E+02  0.74470750000E+01 0.  1.
        -31    1    1    2    0    0 -0.20744610347E+00 -0.99603668022E-01  0.58145972528E+02  0.58621378370E+02  0.74470750000E+01 0. -1.
<mgrwt>
<rscale>  0 0.14907889E+02</rscale>
<asrwt>0</asrwt>
<pdfrwt beam="2">  1        2 0.98054511E+00 0.14907889E+02</pdfrwt>
<pdfrwt beam="1">  1       -2 0.99900833E+00 0.14907889E+02</pdfrwt>
<totfact>-0.23600376E-13</totfact>
</mgrwt>
</event>
<event>
 4    1 -0.4996155E-019  0.1496478E+02  0.7818608E-02  0.1869145E+00
          2   -1    0    0  501    0  0.00000000000E+00  0.00000000000E+00  0.11916301425E+03  0.11916301428E+03  0.25500000000E-02 0. -1.
         -2   -1    0    0    0  501 -0.00000000000E+00 -0.00000000000E+00 -0.46982455892E+00  0.46983147901E+00  0.25500000000E-02 0.  1.
         31    1    1    2    0    0  0.56139036785E+00 -0.44100249968E+00  0.58287304716E+02  0.58765452942E+02  0.74470750000E+01 0. -1.
        -31    1    1    2    0    0 -0.56139036785E+00  0.44100249968E+00  0.60405884976E+02  0.60867392816E+02  0.74470750000E+01 0.  1.
<mgrwt>
<rscale>  0 0.14964775E+02</rscale>
<asrwt>0</asrwt>
<pdfrwt beam="1">  1        2 0.98920807E+00 0.14964775E+02</pdfrwt>
<pdfrwt beam="2">  1       -2 0.99783134E+00 0.14964775E+02</pdfrwt>
<totfact>-0.12267267E-13</totfact>
</mgrwt>
</event>
<event>
 4    1 -0.4996155E-019  0.1498910E+02  0.7818608E-02  0.1868401E+00
         -2   -1    0    0    0  501 -0.00000000000E+00  0.00000000000E+00  0.12013614484E+03  0.12013614487E+03  0.25500000000E-02 0.  1.
          2   -1    0    0  501    0  0.00000000000E+00 -0.00000000000E+00 -0.46753524837E+00  0.46754220234E+00  0.25500000000E-02 0. -1.
         31    1    1    2    0    0  0.66209382617E+00 -0.51547402000E+00  0.59248787548E+02  0.59720865983E+02  0.74470750000E+01 0.  1.
        -31    1    1    2    0    0 -0.66209382617E+00  0.51547402000E+00  0.60419822047E+02  0.60882821091E+02  0.74470750000E+01 0.  1.
<mgrwt>
<rscale>  0 0.14989103E+02</rscale>
<asrwt>0</asrwt>
<pdfrwt beam="2">  1        2 0.99301973E+00 0.14989103E+02</pdfrwt>
<pdfrwt beam="1">  1       -2 0.99723567E+00 0.14989103E+02</pdfrwt>
<totfact>-0.10668323E-13</totfact>
</mgrwt>
</event>
<event>
 4    1 -0.4996155E-019  0.1498026E+02  0.7818608E-02  0.1868671E+00
         -2   -1    0    0    0  501 -0.00000000000E+00  0.00000000000E+00  0.11996862536E+03  0.11996862539E+03  0.25500000000E-02 0. -1.
          2   -1    0    0  501    0  0.00000000000E+00 -0.00000000000E+00 -0.46763595425E+00  0.46764290672E+00  0.25500000000E-02 0.  1.
         31    1    1    2    0    0 -0.52718350142E+00 -0.59721823485E+00  0.59007324533E+02  0.59480735257E+02  0.74470750000E+01 0.  1.
        -31    1    1    2    0    0  0.52718350142E+00  0.59721823485E+00  0.60493664875E+02  0.60955533039E+02  0.74470750000E+01 0.  1.
<mgrwt>
<rscale>  0 0.14980262E+02</rscale>
<asrwt>0</asrwt>
<pdfrwt beam="2">  1        2 0.99322741E+00 0.14980262E+02</pdfrwt>
<pdfrwt beam="1">  1       -2 0.99585133E+00 0.14980262E+02</pdfrwt>
<totfact>-0.13198577E-13</totfact>
</mgrwt>
</event>
<event>
 4    1 -0.4996155E-019  0.1498911E+02  0.7818608E-02  0.1868401E+00
          2   -1    0    0  501    0  0.00000000000E+00  0.00000000000E+00  0.11968999359E+03  0.11968999362E+03  0.25500000000E-02 0.  1.
         -2   -1    0    0    0  501 -0.00000000000E+00 -0.00000000000E+00 -0.46927860242E+00  0.46928553056E+00  0.25500000000E-02 0. -1.
         31    1    1    2    0    0 -0.71507719470E+00 -0.10300568184E-01  0.56043238889E+02  0.56540383734E+02  0.74470750000E+01 0. -1.
        -31    1    1    2    0    0  0.71507719470E+00  0.10300568184E-01  0.63177476099E+02  0.63618895415E+02  0.74470750000E+01 0.  1.
<mgrwt>
<rscale>  0 0.14989112E+02</rscale>
<asrwt>0</asrwt>
<pdfrwt beam="1">  1        2 0.99356099E+00 0.14989112E+02</pdfrwt>
<pdfrwt beam="2">  1       -2 0.99669360E+00 0.14989112E+02</pdfrwt>
<totfact>-0.11501639E-13</totfact>
</mgrwt>
</event>
<event>
 4    1  0.4996155E-019  0.1491650E+02  0.7818608E-02  0.1870627E+00
          2   -1    0    0  501    0  0.00000000000E+00  0.00000000000E+00  0.11995413357E+03  0.11995413360E+03  0.25500000000E-02 0.  1.
         -2   -1    0    0    0  501 -0.00000000000E+00 -0.00000000000E+00 -0.46371949929E+00  0.46372651048E+00  0.25500000000E-02 0. -1.
         31    1    1    2    0    0 -0.12191715290E+00 -0.14873760373E-01  0.62887209799E+02  0.63326733434E+02  0.74470750000E+01 0.  1.
        -31    1    1    2    0    0  0.12191715290E+00  0.14873760373E-01  0.56603204276E+02  0.57091126678E+02  0.74470750000E+01 0. -1.
<mgrwt>
<rscale>  0 0.14916500E+02</rscale>
<asrwt>0</asrwt>
<pdfrwt beam="1">  1        2 0.99569912E+00 0.14916500E+02</pdfrwt>
<pdfrwt beam="2">  1       -2 0.98494082E+00 0.14916500E+02</pdfrwt>
<totfact> 0.45462907E-13</totfact>
</mgrwt>
</event>
<event>
 4    1 -0.4996155E-019  0.1493029E+02  0.7818608E-02  0.1870203E+00
         -2   -1    0    0    0  501 -0.00000000000E+00  0.00000000000E+00  0.12001990451E+03  0.12001990453E+03  0.25500000000E-02 0. -1.
          2   -1    0    0  501    0  0.00000000000E+00 -0.00000000000E+00 -0.46432244934E+00  0.46432945142E+00  0.25500000000E-02 0.  1.
         31    1    1    2    0    0 -0.14792402087E+00 -0.39745502779E+00  0.62193090831E+02  0.62638800477E+02  0.74470750000E+01 0.  1.
        -31    1    1    2    0    0  0.14792402087E+00  0.39745502779E+00  0.57362491226E+02  0.57845433508E+02  0.74470750000E+01 0. -1.
<mgrwt>
<rscale>  0 0.14930286E+02</rscale>
<asrwt>0</asrwt>
<pdfrwt beam="2">  1        2 0.98621861E+00 0.14930286E+02</pdfrwt>
<pdfrwt beam="1">  1       -2 0.99624795E+00 0.14930286E+02</pdfrwt>
<totfact>-0.26116170E-13</totfact>
</mgrwt>
</event>
<event>
 4    1  0.4996155E-019  0.1491465E+02  0.7818608E-02  0.1870684E+00
         -2   -1    0    0    0  501 -0.00000000000E+00  0.00000000000E+00  0.11853153520E+03  0.11853153523E+03  0.25500000000E-02 0.  1.
          2   -1    0    0  501    0  0.00000000000E+00 -0.00000000000E+00 -0.46916884544E+00  0.46917577520E+00  0.25500000000E-02 0. -1.
         31    1    1    2    0    0  0.23030946593E+00 -0.25862899099E+00  0.57584843594E+02  0.58065420598E+02  0.74470750000E+01 0. -1.
        -31    1    1    2    0    0 -0.23030946593E+00  0.25862899099E+00  0.60477522762E+02  0.60935290406E+02  0.74470750000E+01 0.  1.
<mgrwt>
<rscale>  0 0.14914653E+02</rscale>
<asrwt>0</asrwt>
<pdfrwt beam="2">  1        2 0.99642338E+00 0.14914653E+02</pdfrwt>
<pdfrwt beam="1">  1       -2 0.98398114E+00 0.14914653E+02</pdfrwt>
<totfact> 0.52448850E-13</totfact>
</mgrwt>
</event>
<event>
 4    1 -0.4996155E-019  0.1489491E+02  0.7818608E-02  0.1871293E+00
         -2   -1    0    0    0  501 -0.00000000000E+00  0.00000000000E+00  0.12033690344E+03  0.12033690347E+03  0.25500000000E-02 0. -1.
          2   -1    0    0  501    0  0.00000000000E+00 -0.00000000000E+00 -0.46090707448E+00  0.46091412845E+00  0.25500000000E-02 0.  1.
         31    1    1    2    0    0 -0.21378301501E-01 -0.15627874850E-02  0.59354738511E+02  0.59820100044E+02  0.74470750000E+01 0.  1.
        -31    1    1    2    0    0  0.21378301501E-01  0.15627874850E-02  0.60521257856E+02  0.60977717553E+02  0.74470750000E+01 0. -1.
<mgrwt>
<rscale>  0 0.14894906E+02</rscale>
<asrwt>0</asrwt>
<pdfrwt beam="2">  1        2 0.97900210E+00 0.14894906E+02</pdfrwt>
<pdfrwt beam="1">  1       -2 0.99884087E+00 0.14894906E+02</pdfrwt>
<totfact>-0.34978604E-13</totfact>
</mgrwt>
</event>
<event>
 4    1 -0.4996155E-019  0.1492056E+02  0.7818608E-02  0.1870502E+00
         -2   -1    0    0    0  501 -0.00000000000E+00  0.00000000000E+00  0.11958356135E+03  0.11958356137E+03  0.25500000000E-02 0. -1.
          2   -1    0    0  501    0  0.00000000000E+00 -0.00000000000E+00 -0.46540963503E+00  0.46541662076E+00  0.25500000000E-02 0.  1.
         31    1    1    2    0    0 -0.41442058083E+00 -0.67130883976E-01  0.58404680029E+02  0.58879044034E+02  0.74470750000E+01 0. -1.
        -31    1    1    2    0    0  0.41442058083E+00  0.67130883976E-01  0.60713471683E+02  0.61169933962E+02  0.74470750000E+01 0.  1.
<mgrwt>
<rscale>  0 0.14920558E+02</rscale>
<asrwt>0</asrwt>
<pdfrwt beam="2">  1        2 0.98850490E+00 0.14920558E+02</pdfrwt>
<pdfrwt beam="1">  1       -2 0.99264894E+00 0.14920558E+02</pdfrwt>
<totfact>-0.16912128E-13</totfact>
</mgrwt>
</event>
<event>
 4    1 -0.4996155E-019  0.1493019E+02  0.7818608E-02  0.1870206E+00
         -2   -1    0    0    0  501 -0.00000000000E+00  0.00000000000E+00  0.11949023295E+03  0.11949023298E+03  0.25500000000E-02 0.  1.
          2   -1    0    0  501    0  0.00000000000E+00 -0.00000000000E+00 -0.46637480798E+00  0.46638177925E+00  0.25500000000E-02 0. -1.
         31    1    1    2    0    0 -0.48355908152E+00  0.14750982405E+00  0.60432909016E+02  0.60892125983E+02  0.74470750000E+01 0. -1.
        -31    1    1    2    0    0  0.48355908152E+00 -0.14750982405E+00  0.58590949129E+02  0.59064488776E+02  0.74470750000E+01 0. -1.
<mgrwt>
<rscale>  0 0.14930191E+02</rscale>
<asrwt>0</asrwt>
<pdfrwt beam="2">  1        2 0.99054388E+00 0.14930191E+02</pdfrwt>
<pdfrwt beam="1">  1       -2 0.99188522E+00 0.14930191E+02</pdfrwt>
<totfact>-0.10711229E-13</totfact>
</mgrwt>
</event>
<event>
 4    1 -0.4996155E-019  0.1499684E+02  0.7818608E-02  0.1868165E+00
         -2   -1    0    0    0  501 -0.00000000000E+00  0.00000000000E+00  0.11992415793E+03  0.11992415796E+03  0.25500000000E-02 0.  1.
          2   -1    0    0  501    0  0.00000000000E+00 -0.00000000000E+00 -0.46884542611E+00  0.46885236065E+00  0.25500000000E-02 0. -1.
         31    1    1    2    0    0  0.78883728260E+00  0.38048343035E+00  0.59878708572E+02  0.60346380987E+02  0.74470750000E+01 0. -1.
        -31    1    1    2    0    0 -0.78883728260E+00 -0.38048343035E+00  0.59576603936E+02  0.60046629335E+02  0.74470750000E+01 0.  1.
<mgrwt>
<rscale>  0 0.14996841E+02</rscale>
<asrwt>0</asrwt>
<pdfrwt beam="2">  1        2 0.99578477E+00 0.14996841E+02</pdfrwt>
<pdfrwt beam="1">  1       -2 0.99549364E+00 0.14996841E+02</pdfrwt>
<totfact>-0.10654264E-13</totfact>
</mgrwt>
</event>
<event>
 4    1 -0.4996155E-019  0.1501356E+02  0.7818608E-02  0.1867655E+00
         -2   -1    0    0    0  501 -0.00000000000E+00  0.00000000000E+00  0.12024689796E+03  0.12024689799E+03  0.25500000000E-02 0. -1.
          2   -1    0    0  501    0  0.00000000000E+00 -0.00000000000E+00 -0.46863049314E+00  0.46863743086E+00  0.25500000000E-02 0.  1.
         31    1    1    2    0    0  0.67245783096E+00 -0.64315992241E+00  0.61210389497E+02  0.61668764886E+02  0.74470750000E+01 0. -1.
        -31    1    1    2    0    0 -0.67245783096E+00  0.64315992241E+00  0.58567877973E+02  0.59046770534E+02  0.74470750000E+01 0.  1.
<mgrwt>
<rscale>  0 0.15013565E+02</rscale>
<asrwt>0</asrwt>
<pdfrwt beam="2">  1        2 0.99534046E+00 0.15013565E+02</pdfrwt>
<pdfrwt beam="1">  1       -2 0.99816051E+00 0.15013565E+02</pdfrwt>
<totfact>-0.63841328E-14</totfact>
</mgrwt>
</event>
<event>
 4    1 -0.4996155E-019  0.1494916E+02  0.7818608E-02  0.1869624E+00
          2   -1    0    0  501    0  0.00000000000E+00  0.00000000000E+00  0.11938163640E+03  0.11938163643E+03  0.25500000000E-02 0. -1.
         -2   -1    0    0    0  501 -0.00000000000E+00 -0.00000000000E+00 -0.46798577910E+00  0.46799272637E+00  0.25500000000E-02 0.  1.
         31    1    1    2    0    0 -0.82150009191E-01 -0.40916749067E+00  0.55560182567E+02  0.56058603082E+02  0.74470750000E+01 0.  1.
        -31    1    1    2    0    0  0.82150009191E-01  0.40916749067E+00  0.63353468059E+02  0.63791026076E+02  0.74470750000E+01 0.  1.
<mgrwt>
<rscale>  0 0.14949157E+02</rscale>
<asrwt>0</asrwt>
<pdfrwt beam="1">  1        2 0.99100059E+00 0.14949157E+02</pdfrwt>
<pdfrwt beam="2">  1       -2 0.99394853E+00 0.14949157E+02</pdfrwt>
<totfact>-0.15939585E-13</totfact>
</mgrwt>
</event>
<event>
 4    1 -0.4996155E-019  0.1503662E+02  0.7818608E-02  0.1866953E+00
          2   -1    0    0  501    0  0.00000000000E+00  0.00000000000E+00  0.12037163118E+03  0.12037163121E+03  0.25500000000E-02 0. -1.
         -2   -1    0    0    0  501 -0.00000000000E+00 -0.00000000000E+00 -0.46958388344E+00  0.46959080707E+00  0.25500000000E-02 0.  1.
         31    1    1    2    0    0  0.45577622985E+00  0.73835725928E+00  0.64448344631E+02  0.64882978933E+02  0.74470750000E+01 0. -1.
        -31    1    1    2    0    0 -0.45577622985E+00 -0.73835725928E+00  0.55453702669E+02  0.55958243085E+02  0.74470750000E+01 0.  1.
<mgrwt>
<rscale>  0 0.15036622E+02</rscale>
<asrwt>0</asrwt>
<pdfrwt beam="1">  1        2 0.99919977E+00 0.15036622E+02</pdfrwt>
<pdfrwt beam="2">  1       -2 0.99736151E+00 0.15036622E+02</pdfrwt>
<totfact>-0.21972428E-14</totfact>
</mgrwt>
</event>
<event>
 4    1 -0.4996155E-019  0.1497891E+02  0.7818608E-02  0.1868713E+00
          2   -1    0    0  501    0  0.00000000000E+00  0.00000000000E+00  0.11975455273E+03  0.11975455276E+03  0.25500000000E-02 0.  1.
         -2   -1    0    0    0  501 -0.00000000000E+00 -0.00000000000E+00 -0.46838736152E+00  0.46839430284E+00  0.25500000000E-02 0. -1.
         31    1    1    2    0    0 -0.15234999634E+00 -0.73576189458E+00  0.57543117733E+02  0.58027871584E+02  0.74470750000E+01 0. -1.
        -31    1    1    2    0    0  0.15234999634E+00  0.73576189458E+00  0.61743047640E+02  0.62195075480E+02  0.74470750000E+01 0.  1.
<mgrwt>
<rscale>  0 0.14978910E+02</rscale>
<asrwt>0</asrwt>
<pdfrwt beam="1">  1        2 0.99408744E+00 0.14978910E+02</pdfrwt>
<pdfrwt beam="2">  1       -2 0.99481021E+00 0.14978910E+02</pdfrwt>
<totfact>-0.12999219E-13</totfact>
</mgrwt>
</event>
<event>
 4    1  0.4996155E-019  0.1492553E+02  0.7818608E-02  0.1870350E+00
         -2   -1    0    0    0  501 -0.00000000000E+00  0.00000000000E+00  0.11919527434E+03  0.11919527436E+03  0.25500000000E-02 0.  1.
          2   -1    0    0  501    0  0.00000000000E+00 -0.00000000000E+00 -0.46723678704E+00  0.46724374545E+00  0.25500000000E-02 0. -1.
         31    1    1    2    0    0  0.12408243977E+00 -0.26758730039E+00  0.56291083426E+02  0.56782321181E+02  0.74470750000E+01 0. -1.
        -31    1    1    2    0    0 -0.12408243977E+00  0.26758730039E+00  0.62436954122E+02  0.62880196927E+02  0.74470750000E+01 0.  1.
<mgrwt>
<rscale>  0 0.14925526E+02</rscale>
<asrwt>0</asrwt>
<pdfrwt beam="2">  1        2 0.99235793E+00 0.14925526E+02</pdfrwt>
<pdfrwt beam="1">  1       -2 0.98945342E+00 0.14925526E+02</pdfrwt>
<totfact> 0.51435251E-14</totfact>
</mgrwt>
</event>
<event>
 4    1 -0.4996155E-019  0.1491321E+02  0.7818608E-02  0.1870728E+00
         -2   -1    0    0    0  501 -0.00000000000E+00  0.00000000000E+00  0.12044784858E+03  0.12044784861E+03  0.25500000000E-02 0. -1.
          2   -1    0    0  501    0  0.00000000000E+00 -0.00000000000E+00 -0.46161507739E+00  0.46162212054E+00  0.25500000000E-02 0.  1.
         31    1    1    2    0    0 -0.27760956668E+00  0.93673030309E-01  0.61915178618E+02  0.62362120803E+02  0.74470750000E+01 0. -1.
        -31    1    1    2    0    0  0.27760956668E+00 -0.93673030309E-01  0.58071054888E+02  0.58547349928E+02  0.74470750000E+01 0.  1.
<mgrwt>
<rscale>  0 0.14913212E+02</rscale>
<asrwt>0</asrwt>
<pdfrwt beam="2">  1        2 0.98050364E+00 0.14913212E+02</pdfrwt>
<pdfrwt beam="1">  1       -2 0.99976410E+00 0.14913212E+02</pdfrwt>
<totfact>-0.59939735E-14</totfact>
</mgrwt>
</event>
<event>
 4    1 -0.4996155E-019  0.1493108E+02  0.7818608E-02  0.1870179E+00
          2   -1    0    0  501    0  0.00000000000E+00  0.00000000000E+00  0.11842524710E+03  0.11842524713E+03  0.25500000000E-02 0.  1.
         -2   -1    0    0    0  501 -0.00000000000E+00 -0.00000000000E+00 -0.47062480981E+00  0.47063171813E+00  0.25500000000E-02 0. -1.
         31    1    1    2    0    0 -0.35560827203E+00  0.33451056823E+00  0.60508836627E+02  0.60967340360E+02  0.74470750000E+01 0.  1.
        -31    1    1    2    0    0  0.35560827203E+00 -0.33451056823E+00  0.57445785668E+02  0.57928538490E+02  0.74470750000E+01 0.  1.
<mgrwt>
<rscale>  0 0.14931078E+02</rscale>
<asrwt>0</asrwt>
<pdfrwt beam="1">  1        2 0.98311431E+00 0.14931078E+02</pdfrwt>
<pdfrwt beam="2">  1       -2 0.99949974E+00 0.14931078E+02</pdfrwt>
<totfact>-0.80356028E-14</totfact>
</mgrwt>
</event>
<event>
 4    1 -0.4996155E-019  0.1494545E+02  0.7818608E-02  0.1869738E+00
          2   -1    0    0  501    0  0.00000000000E+00  0.00000000000E+00  0.11896075599E+03  0.11896075601E+03  0.25500000000E-02 0. -1.
         -2   -1    0    0    0  501 -0.00000000000E+00 -0.00000000000E+00 -0.46940865079E+00  0.46941557700E+00  0.25500000000E-02 0.  1.
         31    1    1    2    0    0  0.38737561582E+00  0.63109098672E-02  0.63099636429E+02  0.63538753082E+02  0.74470750000E+01 0. -1.
        -31    1    1    2    0    0 -0.38737561582E+00 -0.63109098672E-02  0.55391710907E+02  0.55891418510E+02  0.74470750000E+01 0.  1.
<mgrwt>
<rscale>  0 0.14945451E+02</rscale>
<asrwt>0</asrwt>
<pdfrwt beam="1">  1        2 0.98753222E+00 0.14945451E+02</pdfrwt>
<pdfrwt beam="2">  1       -2 0.99694485E+00 0.14945451E+02</pdfrwt>
<totfact>-0.19235222E-13</totfact>
</mgrwt>
</event>
<event>
 4    1 -0.4996155E-019  0.1501961E+02  0.7818608E-02  0.1867471E+00
          2   -1    0    0  501    0  0.00000000000E+00  0.00000000000E+00  0.11985809372E+03  0.11985809375E+03  0.25500000000E-02 0.  1.
         -2   -1    0    0    0  501 -0.00000000000E+00 -0.00000000000E+00 -0.47052939620E+00  0.47053630592E+00  0.25500000000E-02 0. -1.
         31    1    1    2    0    0 -0.88163002724E+00  0.38779022569E+00  0.60518415246E+02  0.60982498823E+02  0.74470750000E+01 0.  1.
        -31    1    1    2    0    0  0.88163002724E+00 -0.38779022569E+00  0.58869149077E+02  0.59346131229E+02  0.74470750000E+01 0.  1.
<mgrwt>
<rscale>  0 0.15019610E+02</rscale>
<asrwt>0</asrwt>
<pdfrwt beam="1">  1        2 0.99496130E+00 0.15019610E+02</pdfrwt>
<pdfrwt beam="2">  1       -2 0.99934519E+00 0.15019610E+02</pdfrwt>
<totfact>-0.26228288E-14</totfact>
</mgrwt>
</event>
<event>
 4    1 -0.4996155E-019  0.1491162E+02  0.7818608E-02  0.1870777E+00
          2   -1    0    0  501    0  0.00000000000E+00  0.00000000000E+00  0.11874987586E+03  0.11874987589E+03  0.25500000000E-02 0.  1.
         -2   -1    0    0    0  501 -0.00000000000E+00 -0.00000000000E+00 -0.46811574970E+00  0.46812269505E+00  0.25500000000E-02 0. -1.
         31    1    1    2    0    0  0.11766380018E+00 -0.19562558347E-01  0.61863274383E+02  0.62310014210E+02  0.74470750000E+01 0.  1.
        -31    1    1    2    0    0 -0.11766380018E+00  0.19562558347E-01  0.56418485725E+02  0.56907984370E+02  0.74470750000E+01 0. -1.
<mgrwt>
<rscale>  0 0.14911620E+02</rscale>
<asrwt>0</asrwt>
<pdfrwt beam="1">  1        2 0.98577782E+00 0.14911620E+02</pdfrwt>
<pdfrwt beam="2">  1       -2 0.99420283E+00 0.14911620E+02</pdfrwt>
<totfact>-0.30369240E-13</totfact>
</mgrwt>
</event>
<event>
 4    1 -0.4996155E-019  0.1492350E+02  0.7818608E-02  0.1870412E+00
         -2   -1    0    0    0  501 -0.00000000000E+00  0.00000000000E+00  0.12026004655E+03  0.12026004658E+03  0.25500000000E-02 0. -1.
          2   -1    0    0  501    0  0.00000000000E+00 -0.00000000000E+00 -0.46297388592E+00  0.46298090840E+00  0.25500000000E-02 0.  1.
         31    1    1    2    0    0  0.16921083754E+00  0.45692627584E-01  0.56390653094E+02  0.56880536237E+02  0.74470750000E+01 0. -1.
        -31    1    1    2    0    0 -0.16921083754E+00 -0.45692627584E-01  0.63406419572E+02  0.63842491251E+02  0.74470750000E+01 0. -1.
<mgrwt>
<rscale>  0 0.14923496E+02</rscale>
<asrwt>0</asrwt>
<pdfrwt beam="2">  1        2 0.98337287E+00 0.14923496E+02</pdfrwt>
<pdfrwt beam="1">  1       -2 0.99822246E+00 0.14923496E+02</pdfrwt>
<totfact>-0.24532916E-13</totfact>
</mgrwt>
</event>
<event>
 4    1  0.4996155E-019  0.1491603E+02  0.7818608E-02  0.1870642E+00
         -2   -1    0    0    0  501 -0.00000000000E+00  0.00000000000E+00  0.11891682285E+03  0.11891682287E+03  0.25500000000E-02 0. -1.
          2   -1    0    0  501    0  0.00000000000E+00 -0.00000000000E+00 -0.46773498478E+00  0.46774193578E+00  0.25500000000E-02 0.  1.
         31    1    1    2    0    0 -0.67187013933E-01 -0.28188153822E+00  0.61475264172E+02  0.61925366389E+02  0.74470750000E+01 0. -1.
        -31    1    1    2    0    0  0.67187013933E-01  0.28188153822E+00  0.56973823689E+02  0.57459198420E+02  0.74470750000E+01 0.  1.
<mgrwt>
<rscale>  0 0.14916028E+02</rscale>
<asrwt>0</asrwt>
<pdfrwt beam="2">  1        2 0.99340280E+00 0.14916028E+02</pdfrwt>
<pdfrwt beam="1">  1       -2 0.98715511E+00 0.14916028E+02</pdfrwt>
<totfact> 0.26376390E-13</totfact>
</mgrwt>
</event>
<event>
 4    1  0.4996155E-019  0.1489726E+02  0.7818608E-02  0.1871220E+00
          2   -1    0    0  501    0  0.00000000000E+00  0.00000000000E+00  0.11960511378E+03  0.11960511381E+03  0.25500000000E-02 0.  1.
         -2   -1    0    0    0  501 -0.00000000000E+00 -0.00000000000E+00 -0.46387394805E+00  0.46388095690E+00  0.25500000000E-02 0. -1.
         31    1    1    2    0    0 -0.44111242744E-01  0.18228886980E-01  0.60736218616E+02  0.61191089678E+02  0.74470750000E+01 0.  1.
        -31    1    1    2    0    0  0.44111242744E-01 -0.18228886980E-01  0.58405021217E+02  0.58877905088E+02  0.74470750000E+01 0. -1.
<mgrwt>
<rscale>  0 0.14897264E+02</rscale>
<asrwt>0</asrwt>
<pdfrwt beam="1">  1        2 0.99281446E+00 0.14897264E+02</pdfrwt>
<pdfrwt beam="2">  1       -2 0.98525653E+00 0.14897264E+02</pdfrwt>
<totfact> 0.53880882E-13</totfact>
</mgrwt>
</event>
<event>
 4    1 -0.4996155E-019  0.1499623E+02  0.7818608E-02  0.1868183E+00
         -2   -1    0    0    0  501 -0.00000000000E+00  0.00000000000E+00  0.12000447431E+03  0.12000447434E+03  0.25500000000E-02 0. -1.
          2   -1    0    0  501    0  0.00000000000E+00 -0.00000000000E+00 -0.46849370865E+00  0.46850064840E+00  0.25500000000E-02 0.  1.
         31    1    1    2    0    0 -0.48179772690E+00  0.49537684571E+00  0.55476935547E+02  0.55978806981E+02  0.74470750000E+01 0.  1.
        -31    1    1    2    0    0  0.48179772690E+00 -0.49537684571E+00  0.64059045056E+02  0.64494168006E+02  0.74470750000E+01 0. -1.
<mgrwt>
<rscale>  0 0.14996234E+02</rscale>
<asrwt>0</asrwt>
<pdfrwt beam="2">  1        2 0.99504327E+00 0.14996234E+02</pdfrwt>
<pdfrwt beam="1">  1       -2 0.99615485E+00 0.14996234E+02</pdfrwt>
<totfact>-0.10949822E-13</totfact>
</mgrwt>
</event>
<event>
 4    1 -0.4996155E-019  0.1490082E+02  0.7818608E-02  0.1871110E+00
          2   -1    0    0  501    0  0.00000000000E+00  0.00000000000E+00  0.11804619642E+03  0.11804619645E+03  0.25500000000E-02 0. -1.
         -2   -1    0    0    0  501 -0.00000000000E+00 -0.00000000000E+00 -0.47022430624E+00  0.47023122044E+00  0.25500000000E-02 0.  1.
         31    1    1    2    0    0 -0.23388641082E-01 -0.22053440199E+00  0.58611266713E+02  0.59082896799E+02  0.74470750000E+01 0.  1.
        -31    1    1    2    0    0  0.23388641082E-01  0.22053440199E+00  0.58964705400E+02  0.59433530868E+02  0.74470750000E+01 0.  1.
<mgrwt>
<rscale>  0 0.14900819E+02</rscale>
<asrwt>0</asrwt>
<pdfrwt beam="1">  1        2 0.97997675E+00 0.14900819E+02</pdfrwt>
<pdfrwt beam="2">  1       -2 0.99863986E+00 0.14900819E+02</pdfrwt>
<totfact>-0.34450800E-13</totfact>
</mgrwt>
</event>
<event>
 4    1 -0.4996155E-019  0.1500370E+02  0.7818608E-02  0.1867956E+00
          2   -1    0    0  501    0  0.00000000000E+00  0.00000000000E+00  0.12029736890E+03  0.12029736893E+03  0.25500000000E-02 0. -1.
         -2   -1    0    0    0  501 -0.00000000000E+00 -0.00000000000E+00 -0.46781839453E+00  0.46782534429E+00  0.25500000000E-02 0.  1.
         31    1    1    2    0    0  0.27667685712E-01 -0.42899912480E+00  0.53505749680E+02  0.54023226308E+02  0.74470750000E+01 0.  1.
        -31    1    1    2    0    0 -0.27667685712E-01  0.42899912480E+00  0.66323800826E+02  0.66741967965E+02  0.74470750000E+01 0. -1.
<mgrwt>
<rscale>  0 0.15003699E+02</rscale>
<asrwt>0</asrwt>
<pdfrwt beam="1">  1        2 0.99857112E+00 0.15003699E+02</pdfrwt>
<pdfrwt beam="2">  1       -2 0.99362394E+00 0.15003699E+02</pdfrwt>
<totfact>-0.47237814E-14</totfact>
</mgrwt>
</event>
<event>
 4    1 -0.4996155E-019  0.1491056E+02  0.7818608E-02  0.1870810E+00
         -2   -1    0    0    0  501 -0.00000000000E+00  0.00000000000E+00  0.11972019020E+03  0.11972019023E+03  0.25500000000E-02 0.  1.
          2   -1    0    0  501    0  0.00000000000E+00 -0.00000000000E+00 -0.46425581902E+00  0.46426282211E+00  0.25500000000E-02 0. -1.
         31    1    1    2    0    0 -0.22461034012E+00  0.17971583854E+00  0.61230818836E+02  0.61682694890E+02  0.74470750000E+01 0. -1.
        -31    1    1    2    0    0  0.22461034012E+00 -0.17971583854E+00  0.58025115545E+02  0.58501758159E+02  0.74470750000E+01 0.  1.
<mgrwt>
<rscale>  0 0.14910562E+02</rscale>
<asrwt>0</asrwt>
<pdfrwt beam="2">  1        2 0.98606813E+00 0.14910562E+02</pdfrwt>
<pdfrwt beam="1">  1       -2 0.99376915E+00 0.14910562E+02</pdfrwt>
<totfact>-0.28195973E-13</totfact>
</mgrwt>
</event>
<event>
 4    1 -0.4996155E-019  0.1501281E+02  0.7818608E-02  0.1867678E+00
          2   -1    0    0  501    0  0.00000000000E+00  0.00000000000E+00  0.11983343063E+03  0.11983343066E+03  0.25500000000E-02 0. -1.
         -2   -1    0    0    0  501 -0.00000000000E+00 -0.00000000000E+00 -0.47020011545E+00  0.47020703000E+00  0.25500000000E-02 0.  1.
         31    1    1    2    0    0 -0.47993249709E-01  0.49834865445E+00  0.66074930555E+02  0.66495157934E+02  0.74470750000E+01 0. -1.
        -31    1    1    2    0    0  0.47993249709E-01 -0.49834865445E+00  0.53288299960E+02  0.53808479754E+02  0.74470750000E+01 0.  1.
<mgrwt>
<rscale>  0 0.15012809E+02</rscale>
<asrwt>0</asrwt>
<pdfrwt beam="1">  1        2 0.99475465E+00 0.15012809E+02</pdfrwt>
<pdfrwt beam="2">  1       -2 0.99864778E+00 0.15012809E+02</pdfrwt>
<totfact>-0.52180242E-14</totfact>
</mgrwt>
</event>
<event>
 4    1 -0.4996155E-019  0.1489436E+02  0.7818608E-02  0.1871309E+00
          2   -1    0    0  501    0  0.00000000000E+00  0.00000000000E+00  0.11845398433E+03  0.11845398435E+03  0.25500000000E-02 0.  1.
         -2   -1    0    0    0  501 -0.00000000000E+00 -0.00000000000E+00 -0.46819955694E+00  0.46820650105E+00  0.25500000000E-02 0. -1.
         31    1    1    2    0    0 -0.23156608549E-01 -0.26107140483E-01  0.58838554386E+02  0.59307972702E+02  0.74470750000E+01 0. -1.
        -31    1    1    2    0    0  0.23156608549E-01  0.26107140483E-01  0.59147230384E+02  0.59614218152E+02  0.74470750000E+01 0.  1.
<mgrwt>
<rscale>  0 0.14894364E+02</rscale>
<asrwt>0</asrwt>
<pdfrwt beam="1">  1        2 0.98333188E+00 0.14894364E+02</pdfrwt>
<pdfrwt beam="2">  1       -2 0.99437037E+00 0.14894364E+02</pdfrwt>
<totfact>-0.45637728E-13</totfact>
</mgrwt>
</event>
<event>
 4    1  0.4996155E-019  0.1490332E+02  0.7818608E-02  0.1871033E+00
         -2   -1    0    0    0  501 -0.00000000000E+00  0.00000000000E+00  0.11862883613E+03  0.11862883616E+03  0.25500000000E-02 0. -1.
          2   -1    0    0  501    0  0.00000000000E+00 -0.00000000000E+00 -0.46807185244E+00  0.46807879844E+00  0.25500000000E-02 0.  1.
         31    1    1    2    0    0  0.18623062961E+00  0.15075699116E+00  0.59914651089E+02  0.60376168732E+02  0.74470750000E+01 0. -1.
        -31    1    1    2    0    0 -0.18623062961E+00 -0.15075699116E+00  0.58246113187E+02  0.58720746223E+02  0.74470750000E+01 0.  1.
<mgrwt>
<rscale>  0 0.14903320E+02</rscale>
<asrwt>0</asrwt>
<pdfrwt beam="2">  1        2 0.99410598E+00 0.14903320E+02</pdfrwt>
<pdfrwt beam="1">  1       -2 0.98477662E+00 0.14903320E+02</pdfrwt>
<totfact> 0.55999386E-13</totfact>
</mgrwt>
</event>
<event>
 4    1 -0.4996155E-019  0.1490236E+02  0.7818608E-02  0.1871063E+00
         -2   -1    0    0    0  501 -0.00000000000E+00  0.00000000000E+00  0.12026986029E+03  0.12026986032E+03  0.25500000000E-02 0.  1.
          2   -1    0    0  501    0  0.00000000000E+00 -0.00000000000E+00 -0.46162544438E+00  0.46163248738E+00  0.25500000000E-02 0. -1.
         31    1    1    2    0    0 -0.27098736204E-01  0.27104178498E-01  0.57925302011E+02  0.58402063389E+02  0.74470750000E+01 0. -1.
        -31    1    1    2    0    0  0.27098736204E-01 -0.27104178498E-01  0.61882932839E+02  0.62329429420E+02  0.74470750000E+01 0.  1.
<mgrwt>
<rscale>  0 0.14902356E+02</rscale>
<asrwt>0</asrwt>
<pdfrwt beam="2">  1        2 0.98052003E+00 0.14902356E+02</pdfrwt>
<pdfrwt beam="1">  1       -2 0.99829245E+00 0.14902356E+02</pdfrwt>
<totfact>-0.38327883E-13</totfact>
</mgrwt>
</event>
<event>
 4    1 -0.4996155E-019  0.1490020E+02  0.7818608E-02  0.1871129E+00
         -2   -1    0    0    0  501 -0.00000000000E+00  0.00000000000E+00  0.11966313545E+03  0.11966313547E+03  0.25500000000E-02 0. -1.
          2   -1    0    0  501    0  0.00000000000E+00 -0.00000000000E+00 -0.46383156671E+00  0.46383857620E+00  0.25500000000E-02 0.  1.
         31    1    1    2    0    0  0.12492328737E+00 -0.58968034606E-01  0.60898455225E+02  0.61352260414E+02  0.74470750000E+01 0.  1.
        -31    1    1    2    0    0 -0.12492328737E+00  0.58968034606E-01  0.58300848654E+02  0.58774713635E+02  0.74470750000E+01 0.  1.
<mgrwt>
<rscale>  0 0.14900196E+02</rscale>
<asrwt>0</asrwt>
<pdfrwt beam="2">  1        2 0.98516870E+00 0.14900196E+02</pdfrwt>
<pdfrwt beam="1">  1       -2 0.99329387E+00 0.14900196E+02</pdfrwt>
<totfact>-0.30753258E-13</totfact>
</mgrwt>
</event>
<event>
 4    1  0.4996155E-019  0.1492786E+02  0.7818608E-02  0.1870278E+00
          2   -1    0    0  501    0  0.00000000000E+00  0.00000000000E+00  0.11969908214E+03  0.11969908216E+03  0.25500000000E-02 0. -1.
         -2   -1    0    0    0  501 -0.00000000000E+00 -0.00000000000E+00 -0.46541546629E+00  0.46542245193E+00  0.25500000000E-02 0.  1.
         31    1    1    2    0    0  0.27201529591E+00 -0.41519825770E+00  0.59052350174E+02  0.59522141838E+02  0.74470750000E+01 0.  1.
        -31    1    1    2    0    0 -0.27201529591E+00  0.41519825770E+00  0.60181316496E+02  0.60642362777E+02  0.74470750000E+01 0.  1.
<mgrwt>
<rscale>  0 0.14927857E+02</rscale>
<asrwt>0</asrwt>
<pdfrwt beam="1">  1        2 0.99360420E+00 0.14927857E+02</pdfrwt>
<pdfrwt beam="2">  1       -2 0.98852094E+00 0.14927857E+02</pdfrwt>
<totfact> 0.12233963E-13</totfact>
</mgrwt>
</event>
<event>
 4    1 -0.4996155E-019  0.1491598E+02  0.7818608E-02  0.1870643E+00
          2   -1    0    0  501    0  0.00000000000E+00  0.00000000000E+00  0.11877258753E+03  0.11877258756E+03  0.25500000000E-02 0. -1.
         -2   -1    0    0    0  501 -0.00000000000E+00 -0.00000000000E+00 -0.46829990662E+00  0.46830684923E+00  0.25500000000E-02 0.  1.
         31    1    1    2    0    0 -0.52050781359E-01  0.26145368179E+00  0.61571801876E+02  0.62021099471E+02  0.74470750000E+01 0. -1.
        -31    1    1    2    0    0  0.52050781359E-01 -0.26145368179E+00  0.56732485748E+02  0.57219794936E+02  0.74470750000E+01 0.  1.
<mgrwt>
<rscale>  0 0.14915979E+02</rscale>
<asrwt>0</asrwt>
<pdfrwt beam="1">  1        2 0.98596714E+00 0.14915979E+02</pdfrwt>
<pdfrwt beam="2">  1       -2 0.99459316E+00 0.14915979E+02</pdfrwt>
<totfact>-0.29836564E-13</totfact>
</mgrwt>
</event>
<event>
 4    1 -0.4996155E-019  0.1492902E+02  0.7818608E-02  0.1870242E+00
          2   -1    0    0  501    0  0.00000000000E+00  0.00000000000E+00  0.11871200528E+03  0.11871200531E+03  0.25500000000E-02 0.  1.
         -2   -1    0    0    0  501 -0.00000000000E+00 -0.00000000000E+00 -0.46935871405E+00  0.46936564101E+00  0.25500000000E-02 0. -1.
         31    1    1    2    0    0  0.23555480015E+00 -0.17028836323E+00  0.62465877310E+02  0.62908896337E+02  0.74470750000E+01 0.  1.
        -31    1    1    2    0    0 -0.23555480015E+00  0.17028836323E+00  0.55776769256E+02  0.56272474612E+02  0.74470750000E+01 0. -1.
<mgrwt>
<rscale>  0 0.14929023E+02</rscale>
<asrwt>0</asrwt>
<pdfrwt beam="1">  1        2 0.98547496E+00 0.14929023E+02</pdfrwt>
<pdfrwt beam="2">  1       -2 0.99683100E+00 0.14929023E+02</pdfrwt>
<totfact>-0.26675165E-13</totfact>
</mgrwt>
</event>
<event>
 4    1  0.4996155E-019  0.1493482E+02  0.7818608E-02  0.1870064E+00
          2   -1    0    0  501    0  0.00000000000E+00  0.00000000000E+00  0.11976920388E+03  0.11976920390E+03  0.25500000000E-02 0.  1.
         -2   -1    0    0    0  501 -0.00000000000E+00 -0.00000000000E+00 -0.46557731777E+00  0.46558430099E+00  0.25500000000E-02 0. -1.
         31    1    1    2    0    0 -0.12425631837E+00 -0.52045299411E+00  0.60701769189E+02  0.61159218599E+02  0.74470750000E+01 0.  1.
        -31    1    1    2    0    0  0.12425631837E+00  0.52045299411E+00  0.58601857369E+02  0.59075569605E+02  0.74470750000E+01 0. -1.
<mgrwt>
<rscale>  0 0.14934825E+02</rscale>
<asrwt>0</asrwt>
<pdfrwt beam="1">  1        2 0.99418535E+00 0.14934825E+02</pdfrwt>
<pdfrwt beam="2">  1       -2 0.98886561E+00 0.14934825E+02</pdfrwt>
<totfact> 0.88606309E-14</totfact>
</mgrwt>
</event>
<event>
 4    1 -0.4996155E-019  0.1492151E+02  0.7818608E-02  0.1870473E+00
         -2   -1    0    0    0  501 -0.00000000000E+00  0.00000000000E+00  0.12023060162E+03  0.12023060165E+03  0.25500000000E-02 0. -1.
          2   -1    0    0  501    0  0.00000000000E+00 -0.00000000000E+00 -0.46296427011E+00  0.46297129273E+00  0.25500000000E-02 0.  1.
         31    1    1    2    0    0 -0.18484965155E-01 -0.41866890704E+00  0.61245648501E+02  0.61698168625E+02  0.74470750000E+01 0. -1.
        -31    1    1    2    0    0  0.18484965155E-01  0.41866890704E+00  0.58521988849E+02  0.58995404315E+02  0.74470750000E+01 0.  1.
<mgrwt>
<rscale>  0 0.14921514E+02</rscale>
<asrwt>0</asrwt>
<pdfrwt beam="2">  1        2 0.98335160E+00 0.14921514E+02</pdfrwt>
<pdfrwt beam="1">  1       -2 0.99797891E+00 0.14921514E+02</pdfrwt>
<totfact>-0.27347263E-13</totfact>
</mgrwt>
</event>
<event>
 4    1  0.4996155E-019  0.1492190E+02  0.7818608E-02  0.1870461E+00
          2   -1    0    0  501    0  0.00000000000E+00  0.00000000000E+00  0.12043101033E+03  0.12043101036E+03  0.25500000000E-02 0. -1.
         -2   -1    0    0    0  501 -0.00000000000E+00 -0.00000000000E+00 -0.46221776203E+00  0.46222479600E+00  0.25500000000E-02 0.  1.
         31    1    1    2    0    0 -0.28498948816E+00 -0.90073615811E-01  0.57207019554E+02  0.57690478803E+02  0.74470750000E+01 0.  1.
        -31    1    1    2    0    0  0.28498948816E+00  0.90073615811E-01  0.62761773013E+02  0.63202756348E+02  0.74470750000E+01 0. -1.
<mgrwt>
<rscale>  0 0.14921901E+02</rscale>
<asrwt>0</asrwt>
<pdfrwt beam="1">  1        2 0.99962985E+00 0.14921901E+02</pdfrwt>
<pdfrwt beam="2">  1       -2 0.98177834E+00 0.14921901E+02</pdfrwt>
<totfact> 0.12482799E-13</totfact>
</mgrwt>
</event>
<event>
 4    1 -0.4996155E-019  0.1494899E+02  0.7818608E-02  0.1869629E+00
          2   -1    0    0  501    0  0.00000000000E+00  0.00000000000E+00  0.11892169189E+03  0.11892169192E+03  0.25500000000E-02 0. -1.
         -2   -1    0    0    0  501 -0.00000000000E+00 -0.00000000000E+00 -0.46978556229E+00  0.46979248295E+00  0.25500000000E-02 0.  1.
         31    1    1    2    0    0  0.10079527823E+00 -0.45784510022E-01  0.54194232475E+02  0.54703619766E+02  0.74470750000E+01 0.  1.
        -31    1    1    2    0    0 -0.10079527823E+00  0.45784510022E-01  0.64257673854E+02  0.64687864636E+02  0.74470750000E+01 0. -1.
<mgrwt>
<rscale>  0 0.14948994E+02</rscale>
<asrwt>0</asrwt>
<pdfrwt beam="1">  1        2 0.98721233E+00 0.14948994E+02</pdfrwt>
<pdfrwt beam="2">  1       -2 0.99774090E+00 0.14948994E+02</pdfrwt>
<totfact>-0.16221609E-13</totfact>
</mgrwt>
</event>
<event>
 4    1 -0.4996155E-019  0.1493015E+02  0.7818608E-02  0.1870207E+00
         -2   -1    0    0    0  501 -0.00000000000E+00  0.00000000000E+00  0.11978791986E+03  0.11978791989E+03  0.25500000000E-02 0. -1.
          2   -1    0    0  501    0  0.00000000000E+00 -0.00000000000E+00 -0.46521333198E+00  0.46522032066E+00  0.25500000000E-02 0.  1.
         31    1    1    2    0    0  0.43346868475E+00  0.12613301823E+00  0.61708948677E+02  0.62158322673E+02  0.74470750000E+01 0. -1.
        -31    1    1    2    0    0 -0.43346868475E+00 -0.12613301823E+00  0.57613757855E+02  0.58094817539E+02  0.74470750000E+01 0.  1.
<mgrwt>
<rscale>  0 0.14930152E+02</rscale>
<asrwt>0</asrwt>
<pdfrwt beam="2">  1        2 0.98809612E+00 0.14930152E+02</pdfrwt>
<pdfrwt beam="1">  1       -2 0.99433710E+00 0.14930152E+02</pdfrwt>
<totfact>-0.21950365E-13</totfact>
</mgrwt>
</event>
<event>
 4    1 -0.4996155E-019  0.1489701E+02  0.7818608E-02  0.1871228E+00
          2   -1    0    0  501    0  0.00000000000E+00  0.00000000000E+00  0.11840931079E+03  0.11840931082E+03  0.25500000000E-02 0.  1.
         -2   -1    0    0    0  501 -0.00000000000E+00 -0.00000000000E+00 -0.46854250667E+00  0.46854944569E+00  0.25500000000E-02 0. -1.
         31    1    1    2    0    0  0.10313265470E-01  0.36627318525E-01  0.60094270304E+02  0.60553956909E+02  0.74470750000E+01 0.  1.
        -31    1    1    2    0    0 -0.10313265470E-01 -0.36627318525E-01  0.57846497980E+02  0.58323903354E+02  0.74470750000E+01 0. -1.
<mgrwt>
<rscale>  0 0.14897008E+02</rscale>
<asrwt>0</asrwt>
<pdfrwt beam="1">  1        2 0.98296532E+00 0.14897008E+02</pdfrwt>
<pdfrwt beam="2">  1       -2 0.99509437E+00 0.14897008E+02</pdfrwt>
<totfact>-0.48592655E-13</totfact>
</mgrwt>
</event>
<event>
 4    1  0.4996155E-019  0.1492138E+02  0.7818608E-02  0.1870477E+00
          2   -1    0    0  501    0  0.00000000000E+00  0.00000000000E+00  0.12006355980E+03  0.12006355983E+03  0.25500000000E-02 0. -1.
         -2   -1    0    0    0  501 -0.00000000000E+00 -0.00000000000E+00 -0.46359985443E+00  0.46360686743E+00  0.25500000000E-02 0.  1.
         31    1    1    2    0    0 -0.55984256973E-01  0.84970549761E-01  0.63344815496E+02  0.63781148708E+02  0.74470750000E+01 0. -1.
        -31    1    1    2    0    0  0.55984256973E-01 -0.84970549761E-01  0.56255144452E+02  0.56746017989E+02  0.74470750000E+01 0.  1.
<mgrwt>
<rscale>  0 0.14921377E+02</rscale>
<asrwt>0</asrwt>
<pdfrwt beam="1">  1        2 0.99660294E+00 0.14921377E+02</pdfrwt>
<pdfrwt beam="2">  1       -2 0.98469113E+00 0.14921377E+02</pdfrwt>
<totfact> 0.42289280E-13</totfact>
</mgrwt>
</event>
<event>
 4    1  0.4996155E-019  0.1489795E+02  0.7818608E-02  0.1871199E+00
         -2   -1    0    0    0  501 -0.00000000000E+00  0.00000000000E+00  0.11814850157E+03  0.11814850160E+03  0.25500000000E-02 0.  1.
          2   -1    0    0  501    0  0.00000000000E+00 -0.00000000000E+00 -0.46963648426E+00  0.46964340711E+00  0.25500000000E-02 0. -1.
         31    1    1    2    0    0  0.11938814834E+00  0.89294053138E-01  0.58217266048E+02  0.58691832644E+02  0.74470750000E+01 0.  1.
        -31    1    1    2    0    0 -0.11938814834E+00 -0.89294053138E-01  0.59461599039E+02  0.59926312361E+02  0.74470750000E+01 0.  1.
<mgrwt>
<rscale>  0 0.14897954E+02</rscale>
<asrwt>0</asrwt>
<pdfrwt beam="2">  1        2 0.99739986E+00 0.14897954E+02</pdfrwt>
<pdfrwt beam="1">  1       -2 0.98081782E+00 0.14897954E+02</pdfrwt>
<totfact> 0.82007064E-13</totfact>
</mgrwt>
</event>
<event>
 4    1 -0.4996155E-019  0.1493989E+02  0.7818608E-02  0.1869908E+00
         -2   -1    0    0    0  501 -0.00000000000E+00  0.00000000000E+00  0.11950848012E+03  0.11950848015E+03  0.25500000000E-02 0. -1.
          2   -1    0    0  501    0  0.00000000000E+00 -0.00000000000E+00 -0.46690992102E+00  0.46691688431E+00  0.25500000000E-02 0.  1.
         31    1    1    2    0    0 -0.43034678032E+00 -0.39458852435E+00  0.59384065810E+02  0.59852043379E+02  0.74470750000E+01 0. -1.
        -31    1    1    2    0    0  0.43034678032E+00  0.39458852435E+00  0.59657504390E+02  0.60123353654E+02  0.74470750000E+01 0.  1.
<mgrwt>
<rscale>  0 0.14939895E+02</rscale>
<asrwt>0</asrwt>
<pdfrwt beam="2">  1        2 0.99167657E+00 0.14939895E+02</pdfrwt>
<pdfrwt beam="1">  1       -2 0.99204053E+00 0.14939895E+02</pdfrwt>
<totfact>-0.10401433E-13</totfact>
</mgrwt>
</event>
<event>
 4    1  0.4996155E-019  0.1492890E+02  0.7818608E-02  0.1870246E+00
         -2   -1    0    0    0  501 -0.00000000000E+00  0.00000000000E+00  0.11852762520E+03  0.11852762523E+03  0.25500000000E-02 0. -1.
          2   -1    0    0  501    0  0.00000000000E+00 -0.00000000000E+00 -0.47008115946E+00  0.47008807577E+00  0.25500000000E-02 0.  1.
         31    1    1    2    0    0  0.16258399228E+00 -0.45742899391E+00  0.60248504682E+02  0.60708952530E+02  0.74470750000E+01 0. -1.
        -31    1    1    2    0    0 -0.16258399228E+00  0.45742899391E+00  0.57809039357E+02  0.58288760771E+02  0.74470750000E+01 0.  1.
<mgrwt>
<rscale>  0 0.14928900E+02</rscale>
<asrwt>0</asrwt>
<pdfrwt beam="2">  1        2 0.99835314E+00 0.14928900E+02</pdfrwt>
<pdfrwt beam="1">  1       -2 0.98395635E+00 0.14928900E+02</pdfrwt>
<totfact> 0.30000612E-13</totfact>
</mgrwt>
</event>
<event>
 4    1  0.4996155E-019  0.1490097E+02  0.7818608E-02  0.1871105E+00
          2   -1    0    0  501    0  0.00000000000E+00  0.00000000000E+00  0.11987211504E+03  0.11987211507E+03  0.25500000000E-02 0. -1.
         -2   -1    0    0    0  501 -0.00000000000E+00 -0.00000000000E+00 -0.46307114783E+00  0.46307816884E+00  0.25500000000E-02 0.  1.
         31    1    1    2    0    0  0.14780780490E+00  0.14703293433E+00  0.59012174161E+02  0.59480577428E+02  0.74470750000E+01 0.  1.
        -31    1    1    2    0    0 -0.14780780490E+00 -0.14703293433E+00  0.60396869732E+02  0.60854615809E+02  0.74470750000E+01 0. -1.
<mgrwt>
<rscale>  0 0.14900972E+02</rscale>
<asrwt>0</asrwt>
<pdfrwt beam="1">  1        2 0.99501557E+00 0.14900972E+02</pdfrwt>
<pdfrwt beam="2">  1       -2 0.98356645E+00 0.14900972E+02</pdfrwt>
<totfact> 0.69922817E-13</totfact>
</mgrwt>
</event>
<event>
 4    1  0.4996155E-019  0.1490163E+02  0.7818608E-02  0.1871085E+00
          2   -1    0    0  501    0  0.00000000000E+00  0.00000000000E+00  0.12012461866E+03  0.12012461869E+03  0.25500000000E-02 0.  1.
         -2   -1    0    0    0  501 -0.00000000000E+00 -0.00000000000E+00 -0.46213825965E+00  0.46214529483E+00  0.25500000000E-02 0. -1.
         31    1    1    2    0    0 -0.15226508661E+00 -0.18025211067E+00  0.59851840448E+02  0.60313824340E+02  0.74470750000E+01 0.  1.
        -31    1    1    2    0    0  0.15226508661E+00  0.18025211067E+00  0.59810639954E+02  0.60272939643E+02  0.74470750000E+01 0. -1.
<mgrwt>
<rscale>  0 0.14901625E+02</rscale>
<asrwt>0</asrwt>
<pdfrwt beam="1">  1        2 0.99709573E+00 0.14901625E+02</pdfrwt>
<pdfrwt beam="2">  1       -2 0.98160055E+00 0.14901625E+02</pdfrwt>
<totfact> 0.76626967E-13</totfact>
</mgrwt>
</event>
<event>
 4    1 -0.4996155E-019  0.1495076E+02  0.7818608E-02  0.1869575E+00
          2   -1    0    0  501    0  0.00000000000E+00  0.00000000000E+00  0.11929849704E+03  0.11929849707E+03  0.25500000000E-02 0. -1.
         -2   -1    0    0    0  501 -0.00000000000E+00 -0.00000000000E+00 -0.46841216930E+00  0.46841911025E+00  0.25500000000E-02 0.  1.
         31    1    1    2    0    0  0.37698458048E+00 -0.52788000421E+00  0.59096183402E+02  0.59567093210E+02  0.74470750000E+01 0.  1.
        -31    1    1    2    0    0 -0.37698458048E+00  0.52788000421E+00  0.59733901472E+02  0.60199822972E+02  0.74470750000E+01 0. -1.
<mgrwt>
<rscale>  0 0.14950757E+02</rscale>
<asrwt>0</asrwt>
<pdfrwt beam="1">  1        2 0.99031666E+00 0.14950757E+02</pdfrwt>
<pdfrwt beam="2">  1       -2 0.99484787E+00 0.14950757E+02</pdfrwt>
<totfact>-0.17375797E-13</totfact>
</mgrwt>
</event>
<event>
 4    1 -0.4996155E-019  0.1492968E+02  0.7818608E-02  0.1870222E+00
          2   -1    0    0  501    0  0.00000000000E+00  0.00000000000E+00  0.11877372605E+03  0.11877372608E+03  0.25500000000E-02 0.  1.
         -2   -1    0    0    0  501 -0.00000000000E+00 -0.00000000000E+00 -0.46915637879E+00  0.46916330874E+00  0.25500000000E-02 0. -1.
         31    1    1    2    0    0  0.48108601695E+00  0.77347946424E-01  0.57827471189E+02  0.58307055976E+02  0.74470750000E+01 0. -1.
        -31    1    1    2    0    0 -0.48108601695E+00 -0.77347946424E-01  0.60477098485E+02  0.60935833412E+02  0.74470750000E+01 0. -1.
<mgrwt>
<rscale>  0 0.14929684E+02</rscale>
<asrwt>0</asrwt>
<pdfrwt beam="1">  1        2 0.98598364E+00 0.14929684E+02</pdfrwt>
<pdfrwt beam="2">  1       -2 0.99640502E+00 0.14929684E+02</pdfrwt>
<totfact>-0.26487049E-13</totfact>
</mgrwt>
</event>
<event>
 4    1 -0.4996155E-019  0.1499292E+02  0.7818608E-02  0.1868285E+00
          2   -1    0    0  501    0  0.00000000000E+00  0.00000000000E+00  0.11974271623E+03  0.11974271626E+03  0.25500000000E-02 0.  1.
         -2   -1    0    0    0  501 -0.00000000000E+00 -0.00000000000E+00 -0.46931015149E+00  0.46931707916E+00  0.25500000000E-02 0. -1.
         31    1    1    2    0    0 -0.12242182439E+00  0.44113325462E+00  0.65464902704E+02  0.65888709182E+02  0.74470750000E+01 0.  1.
        -31    1    1    2    0    0  0.12242182439E+00 -0.44113325462E+00  0.53808503378E+02  0.54323324158E+02  0.74470750000E+01 0. -1.
<mgrwt>
<rscale>  0 0.14992917E+02</rscale>
<asrwt>0</asrwt>
<pdfrwt beam="1">  1        2 0.99399720E+00 0.14992917E+02</pdfrwt>
<pdfrwt beam="2">  1       -2 0.99676206E+00 0.14992917E+02</pdfrwt>
<totfact>-0.10979294E-13</totfact>
</mgrwt>
</event>
<event>
 4    1 -0.4996155E-019  0.1499116E+02  0.7818608E-02  0.1868338E+00
         -2   -1    0    0    0  501 -0.00000000000E+00  0.00000000000E+00  0.12010440463E+03  0.12010440466E+03  0.25500000000E-02 0. -1.
          2   -1    0    0  501    0  0.00000000000E+00 -0.00000000000E+00 -0.46778732925E+00  0.46779427947E+00  0.25500000000E-02 0.  1.
         31    1    1    2    0    0 -0.48736529420E-01 -0.84196342464E+00  0.58882578665E+02  0.59357630293E+02  0.74470750000E+01 0. -1.
        -31    1    1    2    0    0  0.48736529420E-01  0.84196342464E+00  0.60754038640E+02  0.61214568648E+02  0.74470750000E+01 0.  1.
<mgrwt>
<rscale>  0 0.14991163E+02</rscale>
<asrwt>0</asrwt>
<pdfrwt beam="2">  1        2 0.99355203E+00 0.14991163E+02</pdfrwt>
<pdfrwt beam="1">  1       -2 0.99697530E+00 0.14991163E+02</pdfrwt>
<totfact>-0.10894041E-13</totfact>
</mgrwt>
</event>
<event>
 4    1 -0.4996155E-019  0.1496435E+02  0.7818608E-02  0.1869158E+00
         -2   -1    0    0    0  501 -0.00000000000E+00  0.00000000000E+00  0.12021088838E+03  0.12021088841E+03  0.25500000000E-02 0. -1.
          2   -1    0    0  501    0  0.00000000000E+00 -0.00000000000E+00 -0.46570256234E+00  0.46570954367E+00  0.25500000000E-02 0.  1.
         31    1    1    2    0    0  0.56707267663E+00 -0.33101148608E+00  0.57414966478E+02  0.57899641119E+02  0.74470750000E+01 0.  1.
        -31    1    1    2    0    0 -0.56707267663E+00  0.33101148608E+00  0.62330219343E+02  0.62776956835E+02  0.74470750000E+01 0. -1.
<mgrwt>
<rscale>  0 0.14964350E+02</rscale>
<asrwt>0</asrwt>
<pdfrwt beam="2">  1        2 0.98914467E+00 0.14964350E+02</pdfrwt>
<pdfrwt beam="1">  1       -2 0.99783854E+00 0.14964350E+02</pdfrwt>
<totfact>-0.12319902E-13</totfact>
</mgrwt>
</event>
<event>
 4    1 -0.4996155E-019  0.1497855E+02  0.7818608E-02  0.1868724E+00
         -2   -1    0    0    0  501 -0.00000000000E+00  0.00000000000E+00  0.12043096928E+03  0.12043096930E+03  0.25500000000E-02 0. -1.
          2   -1    0    0  501    0  0.00000000000E+00 -0.00000000000E+00 -0.46573396454E+00  0.46574094540E+00  0.25500000000E-02 0.  1.
         31    1    1    2    0    0  0.77232955803E+00  0.18342530857E+00  0.60082304865E+02  0.60547274272E+02  0.74470750000E+01 0. -1.
        -31    1    1    2    0    0 -0.77232955803E+00 -0.18342530857E+00  0.59882930445E+02  0.60349435976E+02  0.74470750000E+01 0.  1.
<mgrwt>
<rscale>  0 0.14978547E+02</rscale>
<asrwt>0</asrwt>
<pdfrwt beam="2">  1        2 0.98921808E+00 0.14978547E+02</pdfrwt>
<pdfrwt beam="1">  1       -2 0.99965859E+00 0.14978547E+02</pdfrwt>
<totfact>-0.22599739E-14</totfact>
</mgrwt>
</event>
<event>
 4    1 -0.4996155E-019  0.1503419E+02  0.7818608E-02  0.1867027E+00
         -2   -1    0    0    0  501 -0.00000000000E+00  0.00000000000E+00  0.12016020930E+03  0.12016020933E+03  0.25500000000E-02 0. -1.
          2   -1    0    0  501    0  0.00000000000E+00 -0.00000000000E+00 -0.47025800177E+00  0.47026491548E+00  0.25500000000E-02 0.  1.
         31    1    1    2    0    0  0.20844894480E+00  0.88108532328E+00  0.63676513933E+02  0.64116901945E+02  0.74470750000E+01 0. -1.
        -31    1    1    2    0    0 -0.20844894480E+00 -0.88108532328E+00  0.56013437370E+02  0.56513572302E+02  0.74470750000E+01 0. -1.
<mgrwt>
<rscale>  0 0.15034190E+02</rscale>
<asrwt>0</asrwt>
<pdfrwt beam="2">  1        2 0.99878086E+00 0.15034190E+02</pdfrwt>
<pdfrwt beam="1">  1       -2 0.99745716E+00 0.15034190E+02</pdfrwt>
<totfact>-0.31122245E-14</totfact>
</mgrwt>
</event>
<event>
 4    1 -0.4996155E-019  0.1494509E+02  0.7818608E-02  0.1869749E+00
         -2   -1    0    0    0  501 -0.00000000000E+00  0.00000000000E+00  0.12000829091E+03  0.12000829093E+03  0.25500000000E-02 0. -1.
          2   -1    0    0  501    0  0.00000000000E+00 -0.00000000000E+00 -0.46528880448E+00  0.46529579203E+00  0.25500000000E-02 0.  1.
         31    1    1    2    0    0  0.59418616988E+00  0.15050286089E+00  0.60300247199E+02  0.60761455271E+02  0.74470750000E+01 0.  1.
        -31    1    1    2    0    0 -0.59418616988E+00 -0.15050286089E+00  0.59242754902E+02  0.59712131454E+02  0.74470750000E+01 0. -1.
<mgrwt>
<rscale>  0 0.14945091E+02</rscale>
<asrwt>0</asrwt>
<pdfrwt beam="2">  1        2 0.98826282E+00 0.14945091E+02</pdfrwt>
<pdfrwt beam="1">  1       -2 0.99615991E+00 0.14945091E+02</pdfrwt>
<totfact>-0.19897497E-13</totfact>
</mgrwt>
</event>
<event>
 4    1 -0.4996155E-019  0.1501930E+02  0.7818608E-02  0.1867480E+00
         -2   -1    0    0    0  501 -0.00000000000E+00  0.00000000000E+00  0.12032869628E+03  0.12032869631E+03  0.25500000000E-02 0.  1.
          2   -1    0    0  501    0  0.00000000000E+00 -0.00000000000E+00 -0.46866969810E+00  0.46867663524E+00  0.25500000000E-02 0. -1.
         31    1    1    2    0    0 -0.38056669434E+00  0.23275681114E+00  0.53025825792E+02  0.53548073109E+02  0.74470750000E+01 0. -1.
        -31    1    1    2    0    0  0.38056669434E+00 -0.23275681114E+00  0.66834200792E+02  0.67249299835E+02  0.74470750000E+01 0.  1.
<mgrwt>
<rscale>  0 0.15019299E+02</rscale>
<asrwt>0</asrwt>
<pdfrwt beam="2">  1        2 0.99542603E+00 0.15019299E+02</pdfrwt>
<pdfrwt beam="1">  1       -2 0.99883720E+00 0.15019299E+02</pdfrwt>
<totfact>-0.42463813E-14</totfact>
</mgrwt>
</event>
<event>
 4    1 -0.4996155E-019  0.1495683E+02  0.7818608E-02  0.1869389E+00
          2   -1    0    0  501    0  0.00000000000E+00  0.00000000000E+00  0.11939950276E+03  0.11939950279E+03  0.25500000000E-02 0. -1.
         -2   -1    0    0    0  501 -0.00000000000E+00 -0.00000000000E+00 -0.46839612679E+00  0.46840306798E+00  0.25500000000E-02 0.  1.
         31    1    1    2    0    0 -0.64292308631E+00 -0.87275262294E-01  0.57732004804E+02  0.58213952553E+02  0.74470750000E+01 0.  1.
        -31    1    1    2    0    0  0.64292308631E+00  0.87275262294E-01  0.61199101828E+02  0.61653953301E+02  0.74470750000E+01 0. -1.
<mgrwt>
<rscale>  0 0.14956829E+02</rscale>
<asrwt>0</asrwt>
<pdfrwt beam="1">  1        2 0.99115171E+00 0.14956829E+02</pdfrwt>
<pdfrwt beam="2">  1       -2 0.99481722E+00 0.14956829E+02</pdfrwt>
<totfact>-0.16185942E-13</totfact>
</mgrwt>
</event>
<event>
 4    1 -0.4996155E-019  0.1497357E+02  0.7818608E-02  0.1868876E+00
          2   -1    0    0  501    0  0.00000000000E+00  0.00000000000E+00  0.11966379596E+03  0.11966379599E+03  0.25500000000E-02 0.  1.
         -2   -1    0    0    0  501 -0.00000000000E+00 -0.00000000000E+00 -0.46840855599E+00  0.46841549699E+00  0.25500000000E-02 0. -1.
         31    1    1    2    0    0 -0.60473347042E+00  0.21941295612E+00  0.56201476270E+02  0.56696372950E+02  0.74470750000E+01 0.  1.
        -31    1    1    2    0    0  0.60473347042E+00 -0.21941295612E+00  0.62993911135E+02  0.63435838536E+02  0.74470750000E+01 0.  1.
<mgrwt>
<rscale>  0 0.14973572E+02</rscale>
<asrwt>0</asrwt>
<pdfrwt beam="1">  1        2 0.99333718E+00 0.14973572E+02</pdfrwt>
<pdfrwt beam="2">  1       -2 0.99485210E+00 0.14973572E+02</pdfrwt>
<totfact>-0.13772503E-13</totfact>
</mgrwt>
</event>
<event>
 4    1  0.4996155E-019  0.1491881E+02  0.7818608E-02  0.1870556E+00
          2   -1    0    0  501    0  0.00000000000E+00  0.00000000000E+00  0.12008769103E+03  0.12008769105E+03  0.25500000000E-02 0.  1.
         -2   -1    0    0    0  501 -0.00000000000E+00 -0.00000000000E+00 -0.46334703033E+00  0.46335404715E+00  0.25500000000E-02 0. -1.
         31    1    1    2    0    0  0.10717107461E+00  0.63959840481E-01  0.56498221207E+02  0.56987046792E+02  0.74470750000E+01 0. -1.
        -31    1    1    2    0    0 -0.10717107461E+00 -0.63959840481E-01  0.63126122789E+02  0.63563998308E+02  0.74470750000E+01 0.  1.
<mgrwt>
<rscale>  0 0.14918807E+02</rscale>
<asrwt>0</asrwt>
<pdfrwt beam="1">  1        2 0.99680039E+00 0.14918807E+02</pdfrwt>
<pdfrwt beam="2">  1       -2 0.98415696E+00 0.14918807E+02</pdfrwt>
<totfact> 0.46763986E-13</totfact>
</mgrwt>
</event>
<event>
 4    1  0.4996155E-019  0.1492801E+02  0.7818608E-02  0.1870273E+00
          2   -1    0    0  501    0  0.00000000000E+00  0.00000000000E+00  0.11994697801E+03  0.11994697804E+03  0.25500000000E-02 0. -1.
         -2   -1    0    0    0  501 -0.00000000000E+00 -0.00000000000E+00 -0.46446319240E+00  0.46447019237E+00  0.25500000000E-02 0.  1.
         31    1    1    2    0    0 -0.42711965180E+00 -0.25433172340E+00  0.59151958602E+02  0.59620971548E+02  0.74470750000E+01 0. -1.
        -31    1    1    2    0    0  0.42711965180E+00  0.25433172340E+00  0.60330556220E+02  0.60790476686E+02  0.74470750000E+01 0.  1.
<mgrwt>
<rscale>  0 0.14928011E+02</rscale>
<asrwt>0</asrwt>
<pdfrwt beam="1">  1        2 0.99564610E+00 0.14928011E+02</pdfrwt>
<pdfrwt beam="2">  1       -2 0.98651408E+00 0.14928011E+02</pdfrwt>
<totfact> 0.27628701E-13</totfact>
</mgrwt>
</event>
<event>
 4    1  0.4996155E-019  0.1491300E+02  0.7818608E-02  0.1870735E+00
         -2   -1    0    0    0  501 -0.00000000000E+00  0.00000000000E+00  0.11836686781E+03  0.11836686784E+03  0.25500000000E-02 0. -1.
          2   -1    0    0  501    0  0.00000000000E+00 -0.00000000000E+00 -0.46971754538E+00  0.46972446704E+00  0.25500000000E-02 0.  1.
         31    1    1    2    0    0 -0.33247300401E+00 -0.10817926071E+00  0.60024798268E+02  0.60486011393E+02  0.74470750000E+01 0. -1.
        -31    1    1    2    0    0  0.33247300401E+00  0.10817926071E+00  0.57872352001E+02  0.58350580916E+02  0.74470750000E+01 0.  1.
<mgrwt>
<rscale>  0 0.14913002E+02</rscale>
<asrwt>0</asrwt>
<pdfrwt beam="2">  1        2 0.99757862E+00 0.14913002E+02</pdfrwt>
<pdfrwt beam="1">  1       -2 0.98262409E+00 0.14913002E+02</pdfrwt>
<totfact> 0.54815187E-13</totfact>
</mgrwt>
</event>
<event>
 4    1 -0.4996155E-019  0.1501396E+02  0.7818608E-02  0.1867643E+00
          2   -1    0    0  501    0  0.00000000000E+00  0.00000000000E+00  0.11973204061E+03  0.11973204064E+03  0.25500000000E-02 0. -1.
         -2   -1    0    0    0  501 -0.00000000000E+00 -0.00000000000E+00 -0.47067023478E+00  0.47067714244E+00  0.25500000000E-02 0.  1.
         31    1    1    2    0    0  0.52235554202E+00  0.75558483920E+00  0.57804413418E+02  0.58289389261E+02  0.74470750000E+01 0.  1.
        -31    1    1    2    0    0 -0.52235554202E+00 -0.75558483920E+00  0.61456956961E+02  0.61913328522E+02  0.74470750000E+01 0.  1.
<mgrwt>
<rscale>  0 0.15013957E+02</rscale>
<asrwt>0</asrwt>
<pdfrwt beam="1">  1        2 0.99392017E+00 0.15013957E+02</pdfrwt>
<pdfrwt beam="2">  1       -2 0.99963902E+00 0.15013957E+02</pdfrwt>
<totfact>-0.16229961E-14</totfact>
</mgrwt>
</event>
<event>
 4    1 -0.4996155E-019  0.1496147E+02  0.7818608E-02  0.1869247E+00
         -2   -1    0    0    0  501 -0.00000000000E+00  0.00000000000E+00  0.11968841271E+03  0.11968841273E+03  0.25500000000E-02 0.  1.
          2   -1    0    0  501    0  0.00000000000E+00 -0.00000000000E+00 -0.46755520711E+00  0.46756216079E+00  0.25500000000E-02 0. -1.
         31    1    1    2    0    0  0.28490000276E+00  0.46116664468E+00  0.55942513574E+02  0.56438617928E+02  0.74470750000E+01 0. -1.
        -31    1    1    2    0    0 -0.28490000276E+00 -0.46116664468E+00  0.63278343925E+02  0.63717356965E+02  0.74470750000E+01 0.  1.
<mgrwt>
<rscale>  0 0.14961465E+02</rscale>
<asrwt>0</asrwt>
<pdfrwt beam="2">  1        2 0.99304755E+00 0.14961465E+02</pdfrwt>
<pdfrwt beam="1">  1       -2 0.99353367E+00 0.14961465E+02</pdfrwt>
<totfact>-0.13171656E-13</totfact>
</mgrwt>
</event>
<event>
 4    1  0.4996155E-019  0.1493756E+02  0.7818608E-02  0.1869980E+00
         -2   -1    0    0    0  501 -0.00000000000E+00  0.00000000000E+00  0.11873071126E+03  0.11873071129E+03  0.25500000000E-02 0.  1.
          2   -1    0    0  501    0  0.00000000000E+00 -0.00000000000E+00 -0.46982186817E+00  0.46982878829E+00  0.25500000000E-02 0. -1.
         31    1    1    2    0    0  0.22391086265E+00 -0.32549657502E-03  0.54956127866E+02  0.55458859096E+02  0.74470750000E+01 0. -1.
        -31    1    1    2    0    0 -0.22391086265E+00  0.32549657502E-03  0.63304761524E+02  0.63741680977E+02  0.74470750000E+01 0.  1.
<mgrwt>
<rscale>  0 0.14937563E+02</rscale>
<asrwt>0</asrwt>
<pdfrwt beam="2">  1        2 0.99781138E+00 0.14937563E+02</pdfrwt>
<pdfrwt beam="1">  1       -2 0.98563347E+00 0.14937563E+02</pdfrwt>
<totfact> 0.23638841E-13</totfact>
</mgrwt>
</event>
<event>
 4    1 -0.4996155E-019  0.1491306E+02  0.7818608E-02  0.1870733E+00
         -2   -1    0    0    0  501 -0.00000000000E+00  0.00000000000E+00  0.12032422503E+03  0.12032422506E+03  0.25500000000E-02 0.  1.
          2   -1    0    0  501    0  0.00000000000E+00 -0.00000000000E+00 -0.46207978698E+00  0.46208682305E+00  0.25500000000E-02 0. -1.
         31    1    1    2    0    0  0.73509698593E-01  0.34344937775E+00  0.61003485780E+02  0.61457363794E+02  0.74470750000E+01 0. -1.
        -31    1    1    2    0    0 -0.73509698593E-01 -0.34344937775E+00  0.58858659463E+02  0.59328948086E+02  0.74470750000E+01 0.  1.
<mgrwt>
<rscale>  0 0.14913057E+02</rscale>
<asrwt>0</asrwt>
<pdfrwt beam="2">  1        2 0.98148307E+00 0.14913057E+02</pdfrwt>
<pdfrwt beam="1">  1       -2 0.99874574E+00 0.14913057E+02</pdfrwt>
<totfact>-0.24965325E-13</totfact>
</mgrwt>
</event>
<event>
 4    1 -0.4996155E-019  0.1490391E+02  0.7818608E-02  0.1871015E+00
         -2   -1    0    0    0  501 -0.00000000000E+00  0.00000000000E+00  0.12021417551E+03  0.12021417553E+03  0.25500000000E-02 0.  1.
          2   -1    0    0  501    0  0.00000000000E+00 -0.00000000000E+00 -0.46193579913E+00  0.46194283739E+00  0.25500000000E-02 0. -1.
         31    1    1    2    0    0 -0.59832703420E-02 -0.91133112302E-01  0.57821498953E+02  0.58299168161E+02  0.74470750000E+01 0. -1.
        -31    1    1    2    0    0  0.59832703420E-02  0.91133112302E-01  0.61930740754E+02  0.62376950210E+02  0.74470750000E+01 0.  1.
<mgrwt>
<rscale>  0 0.14903913E+02</rscale>
<asrwt>0</asrwt>
<pdfrwt beam="2">  1        2 0.98117497E+00 0.14903913E+02</pdfrwt>
<pdfrwt beam="1">  1       -2 0.99783458E+00 0.14903913E+02</pdfrwt>
<totfact>-0.41696262E-13</totfact>
</mgrwt>
</event>
<event>
 4    1 -0.4996155E-019  0.1493666E+02  0.7818608E-02  0.1870008E+00
          2   -1    0    0  501    0  0.00000000000E+00  0.00000000000E+00  0.11922313897E+03  0.11922313899E+03  0.25500000000E-02 0. -1.
         -2   -1    0    0    0  501 -0.00000000000E+00 -0.00000000000E+00 -0.46782477064E+00  0.46783172031E+00  0.25500000000E-02 0.  1.
         31    1    1    2    0    0  0.14097470397E+00 -0.27211714662E-01  0.55014932361E+02  0.55516865213E+02  0.74470750000E+01 0.  1.
        -31    1    1    2    0    0 -0.14097470397E+00  0.27211714662E-01  0.63740381834E+02  0.64174105500E+02  0.74470750000E+01 0. -1.
<mgrwt>
<rscale>  0 0.14936660E+02</rscale>
<asrwt>0</asrwt>
<pdfrwt beam="1">  1        2 0.98968869E+00 0.14936660E+02</pdfrwt>
<pdfrwt beam="2">  1       -2 0.99360275E+00 0.14936660E+02</pdfrwt>
<totfact>-0.17409806E-13</totfact>
</mgrwt>
</event>
<event>
 4    1 -0.4996155E-019  0.1492007E+02  0.7818608E-02  0.1870517E+00
         -2   -1    0    0    0  501 -0.00000000000E+00  0.00000000000E+00  0.11992335866E+03  0.11992335868E+03  0.25500000000E-02 0. -1.
          2   -1    0    0  501    0  0.00000000000E+00 -0.00000000000E+00 -0.46406071547E+00  0.46406772151E+00  0.25500000000E-02 0.  1.
         31    1    1    2    0    0  0.24305794490E+00  0.15187411415E+00  0.62418807495E+02  0.62862139624E+02  0.74470750000E+01 0.  1.
        -31    1    1    2    0    0 -0.24305794490E+00 -0.15187411415E+00  0.57040490447E+02  0.57525286782E+02  0.74470750000E+01 0.  1.
<mgrwt>
<rscale>  0 0.14920073E+02</rscale>
<asrwt>0</asrwt>
<pdfrwt beam="2">  1        2 0.98566179E+00 0.14920073E+02</pdfrwt>
<pdfrwt beam="1">  1       -2 0.99544747E+00 0.14920073E+02</pdfrwt>
<totfact>-0.30680088E-13</totfact>
</mgrwt>
</event>
<event>
 4    1  0.4996155E-019  0.1489837E+02  0.7818608E-02  0.1871186E+00
          2   -1    0    0  501    0  0.00000000000E+00  0.00000000000E+00  0.11952541535E+03  0.11952541538E+03  0.25500000000E-02 0. -1.
         -2   -1    0    0    0  501 -0.00000000000E+00 -0.00000000000E+00 -0.46425220080E+00  0.46425920394E+00  0.25500000000E-02 0.  1.
         31    1    1    2    0    0  0.96519906178E-01  0.10448660582E+00  0.58678265184E+02  0.59149116347E+02  0.74470750000E+01 0.  1.
        -31    1    1    2    0    0 -0.96519906178E-01 -0.10448660582E+00  0.60382897969E+02  0.60840558238E+02  0.74470750000E+01 0. -1.
<mgrwt>
<rscale>  0 0.14898370E+02</rscale>
<asrwt>0</asrwt>
<pdfrwt beam="1">  1        2 0.99215858E+00 0.14898370E+02</pdfrwt>
<pdfrwt beam="2">  1       -2 0.98605426E+00 0.14898370E+02</pdfrwt>
<totfact> 0.43928394E-13</totfact>
</mgrwt>
</event>
<event>
 4    1 -0.4996155E-019  0.1500001E+02  0.7818608E-02  0.1868068E+00
         -2   -1    0    0    0  501 -0.00000000000E+00  0.00000000000E+00  0.12030975370E+03  0.12030975373E+03  0.25500000000E-02 0.  1.
          2   -1    0    0  501    0  0.00000000000E+00 -0.00000000000E+00 -0.46754027679E+00  0.46754723069E+00  0.25500000000E-02 0. -1.
         31    1    1    2    0    0 -0.79541948353E+00 -0.59616169677E-01  0.63090135773E+02  0.63533144139E+02  0.74470750000E+01 0.  1.
        -31    1    1    2    0    0  0.79541948353E+00  0.59616169677E-01  0.56752077648E+02  0.57244156817E+02  0.74470750000E+01 0. -1.
<mgrwt>
<rscale>  0 0.15000010E+02</rscale>
<asrwt>0</asrwt>
<pdfrwt beam="2">  1        2 0.99303592E+00 0.15000010E+02</pdfrwt>
<pdfrwt beam="1">  1       -2 0.99867123E+00 0.15000010E+02</pdfrwt>
<totfact>-0.59049082E-14</totfact>
</mgrwt>
</event>
<event>
 4    1 -0.4996155E-019  0.1499589E+02  0.7818608E-02  0.1868194E+00
          2   -1    0    0  501    0  0.00000000000E+00  0.00000000000E+00  0.11983088552E+03  0.11983088554E+03  0.25500000000E-02 0. -1.
         -2   -1    0    0    0  501 -0.00000000000E+00 -0.00000000000E+00 -0.46915069360E+00  0.46915762362E+00  0.25500000000E-02 0.  1.
         31    1    1    2    0    0 -0.40609902994E+00 -0.58520670476E-01  0.53509012416E+02  0.54026305416E+02  0.74470750000E+01 0.  1.
        -31    1    1    2    0    0  0.40609902994E+00  0.58520670476E-01  0.65852722407E+02  0.66273737751E+02  0.74470750000E+01 0. -1.
<mgrwt>
<rscale>  0 0.14995888E+02</rscale>
<asrwt>0</asrwt>
<pdfrwt beam="1">  1        2 0.99472493E+00 0.14995888E+02</pdfrwt>
<pdfrwt beam="2">  1       -2 0.99642758E+00 0.14995888E+02</pdfrwt>
<totfact>-0.10894651E-13</totfact>
</mgrwt>
</event>
<event>
 4    1 -0.4996155E-019  0.1496267E+02  0.7818608E-02  0.1869210E+00
          2   -1    0    0  501    0  0.00000000000E+00  0.00000000000E+00  0.11935953630E+03  0.11935953633E+03  0.25500000000E-02 0. -1.
         -2   -1    0    0    0  501 -0.00000000000E+00 -0.00000000000E+00 -0.46891927783E+00  0.46892621128E+00  0.25500000000E-02 0.  1.
         31    1    1    2    0    0  0.22065950512E+00  0.62928626978E+00  0.61514953457E+02  0.61967678000E+02  0.74470750000E+01 0. -1.
        -31    1    1    2    0    0 -0.22065950512E+00 -0.62928626978E+00  0.57375663566E+02  0.57860784540E+02  0.74470750000E+01 0. -1.
<mgrwt>
<rscale>  0 0.14962674E+02</rscale>
<asrwt>0</asrwt>
<pdfrwt beam="1">  1        2 0.99082557E+00 0.14962674E+02</pdfrwt>
<pdfrwt beam="2">  1       -2 0.99592267E+00 0.14962674E+02</pdfrwt>
<totfact>-0.15690406E-13</totfact>
</mgrwt>
</event>
<event>
 4    1 -0.4996155E-019  0.1493823E+02  0.7818608E-02  0.1869959E+00
          2   -1    0    0  501    0  0.00000000000E+00  0.00000000000E+00  0.11857583324E+03  0.11857583327E+03  0.25500000000E-02 0.  1.
         -2   -1    0    0    0  501 -0.00000000000E+00 -0.00000000000E+00 -0.47047779976E+00  0.47048471024E+00  0.25500000000E-02 0. -1.
         31    1    1    2    0    0  0.15509033907E+00  0.55004782288E+00  0.59424629975E+02  0.59892171270E+02  0.74470750000E+01 0.  1.
        -31    1    1    2    0    0 -0.15509033907E+00 -0.55004782288E+00  0.58680725465E+02  0.59154146709E+02  0.74470750000E+01 0.  1.
<mgrwt>
<rscale>  0 0.14938234E+02</rscale>
<asrwt>0</asrwt>
<pdfrwt beam="1">  1        2 0.98435825E+00 0.14938234E+02</pdfrwt>
<pdfrwt beam="2">  1       -2 0.99919379E+00 0.14938234E+02</pdfrwt>
<totfact>-0.10266283E-13</totfact>
</mgrwt>
</event>
<event>
 4    1  0.4996155E-019  0.1490387E+02  0.7818608E-02  0.1871016E+00
         -2   -1    0    0    0  501 -0.00000000000E+00  0.00000000000E+00  0.11839633568E+03  0.11839633570E+03  0.25500000000E-02 0. -1.
          2   -1    0    0  501    0  0.00000000000E+00 -0.00000000000E+00 -0.46902550283E+00  0.46903243470E+00  0.25500000000E-02 0.  1.
         31    1    1    2    0    0  0.17535511968E+00  0.18948787856E+00  0.58359760971E+02  0.58833555746E+02  0.74470750000E+01 0.  1.
        -31    1    1    2    0    0 -0.17535511968E+00 -0.18948787856E+00  0.59567549202E+02  0.60031812392E+02  0.74470750000E+01 0. -1.
<mgrwt>
<rscale>  0 0.14903867E+02</rscale>
<asrwt>0</asrwt>
<pdfrwt beam="2">  1        2 0.99611567E+00 0.14903867E+02</pdfrwt>
<pdfrwt beam="1">  1       -2 0.98286203E+00 0.14903867E+02</pdfrwt>
<totfact> 0.71372026E-13</totfact>
</mgrwt>
</event>
<event>
 4    1  0.4996155E-019  0.1491498E+02  0.7818608E-02  0.1870674E+00
          2   -1    0    0  501    0  0.00000000000E+00  0.00000000000E+00  0.11965473285E+03  0.11965473288E+03  0.25500000000E-02 0.  1.
         -2   -1    0    0    0  501 -0.00000000000E+00 -0.00000000000E+00 -0.46478499682E+00  0.46479199194E+00  0.25500000000E-02 0. -1.
         31    1    1    2    0    0 -0.22392448789E+00  0.17144039809E+00  0.57379331184E+02  0.57861266035E+02  0.74470750000E+01 0. -1.
        -31    1    1    2    0    0  0.22392448789E+00 -0.17144039809E+00  0.61810616671E+02  0.62258258836E+02  0.74470750000E+01 0.  1.
<mgrwt>
<rscale>  0 0.14914979E+02</rscale>
<asrwt>0</asrwt>
<pdfrwt beam="1">  1        2 0.99323227E+00 0.14914979E+02</pdfrwt>
<pdfrwt beam="2">  1       -2 0.98718564E+00 0.14914979E+02</pdfrwt>
<totfact> 0.26356278E-13</totfact>
</mgrwt>
</event>
<event>
 4    1  0.4996155E-019  0.1490852E+02  0.7818608E-02  0.1870873E+00
          2   -1    0    0  501    0  0.00000000000E+00  0.00000000000E+00  0.11981498884E+03  0.11981498886E+03  0.25500000000E-02 0.  1.
         -2   -1    0    0    0  501 -0.00000000000E+00 -0.00000000000E+00 -0.46376111951E+00  0.46376813007E+00  0.25500000000E-02 0. -1.
         31    1    1    2    0    0 -0.20719834413E+00 -0.51018799814E-01  0.57674924603E+02  0.58154117550E+02  0.74470750000E+01 0. -1.
        -31    1    1    2    0    0  0.20719834413E+00  0.51018799814E-01  0.61676303114E+02  0.62124639444E+02  0.74470750000E+01 0.  1.
<mgrwt>
<rscale>  0 0.14908515E+02</rscale>
<asrwt>0</asrwt>
<pdfrwt beam="1">  1        2 0.99454892E+00 0.14908515E+02</pdfrwt>
<pdfrwt beam="2">  1       -2 0.98502447E+00 0.14908515E+02</pdfrwt>
<totfact> 0.50295833E-13</totfact>
</mgrwt>
</event>
<event>
 4    1 -0.4996155E-019  0.1496740E+02  0.7818608E-02  0.1869065E+00
          2   -1    0    0  501    0  0.00000000000E+00  0.00000000000E+00  0.11975463436E+03  0.11975463439E+03  0.25500000000E-02 0. -1.
         -2   -1    0    0    0  501 -0.00000000000E+00 -0.00000000000E+00 -0.46766732048E+00  0.46767427248E+00  0.25500000000E-02 0.  1.
         31    1    1    2    0    0 -0.29427957064E-01  0.66079818093E+00  0.56987941330E+02  0.57476272525E+02  0.74470750000E+01 0.  1.
        -31    1    1    2    0    0  0.29427957064E-01 -0.66079818093E+00  0.62299025708E+02  0.62746036134E+02  0.74470750000E+01 0. -1.
<mgrwt>
<rscale>  0 0.14967398E+02</rscale>
<asrwt>0</asrwt>
<pdfrwt beam="1">  1        2 0.99408216E+00 0.14967398E+02</pdfrwt>
<pdfrwt beam="2">  1       -2 0.99328688E+00 0.14967398E+02</pdfrwt>
<totfact>-0.11792755E-13</totfact>
</mgrwt>
</event>
<event>
 4    1  0.4996155E-019  0.1493491E+02  0.7818608E-02  0.1870061E+00
         -2   -1    0    0    0  501 -0.00000000000E+00  0.00000000000E+00  0.11854633873E+03  0.11854633876E+03  0.25500000000E-02 0. -1.
          2   -1    0    0  501    0  0.00000000000E+00 -0.00000000000E+00 -0.47038561702E+00  0.47039252885E+00  0.25500000000E-02 0.  1.
         31    1    1    2    0    0  0.21609161726E+00  0.28481776993E+00  0.62382717317E+02  0.62826667608E+02  0.74470750000E+01 0. -1.
        -31    1    1    2    0    0 -0.21609161726E+00 -0.28481776993E+00  0.55693235796E+02  0.56190063679E+02  0.74470750000E+01 0.  1.
<mgrwt>
<rscale>  0 0.14934913E+02</rscale>
<asrwt>0</asrwt>
<pdfrwt beam="2">  1        2 0.99899781E+00 0.14934913E+02</pdfrwt>
<pdfrwt beam="1">  1       -2 0.98411361E+00 0.14934913E+02</pdfrwt>
<totfact> 0.18860446E-13</totfact>
</mgrwt>
</event>
<event>
 4    1 -0.4996155E-019  0.1498073E+02  0.7818608E-02  0.1868657E+00
         -2   -1    0    0    0  501 -0.00000000000E+00  0.00000000000E+00  0.12014634558E+03  0.12014634561E+03  0.25500000000E-02 0. -1.
          2   -1    0    0  501    0  0.00000000000E+00 -0.00000000000E+00 -0.46697328390E+00  0.46698024623E+00  0.25500000000E-02 0.  1.
         31    1    1    2    0    0  0.58782780013E+00  0.51451154287E+00  0.61375032007E+02  0.61830120036E+02  0.74470750000E+01 0.  1.
        -31    1    1    2    0    0 -0.58782780013E+00 -0.51451154287E+00  0.58304340289E+02  0.58783205818E+02  0.74470750000E+01 0.  1.
<mgrwt>
<rscale>  0 0.14980728E+02</rscale>
<asrwt>0</asrwt>
<pdfrwt beam="2">  1        2 0.99183111E+00 0.14980728E+02</pdfrwt>
<pdfrwt beam="1">  1       -2 0.99731537E+00 0.14980728E+02</pdfrwt>
<totfact>-0.11388935E-13</totfact>
</mgrwt>
</event>
<event>
 4    1 -0.4996155E-019  0.1500774E+02  0.7818608E-02  0.1867832E+00
         -2   -1    0    0    0  501 -0.00000000000E+00  0.00000000000E+00  0.11982107106E+03  0.11982107108E+03  0.25500000000E-02 0.  1.
          2   -1    0    0  501    0  0.00000000000E+00 -0.00000000000E+00 -0.46993124747E+00  0.46993816598E+00  0.25500000000E-02 0. -1.
         31    1    1    2    0    0 -0.23390446010E+00  0.89131252969E+00  0.59697906051E+02  0.60167666252E+02  0.74470750000E+01 0. -1.
        -31    1    1    2    0    0  0.23390446010E+00 -0.89131252969E+00  0.59653233757E+02  0.60123342996E+02  0.74470750000E+01 0.  1.
<mgrwt>
<rscale>  0 0.15007742E+02</rscale>
<asrwt>0</asrwt>
<pdfrwt beam="2">  1        2 0.99807857E+00 0.15007742E+02</pdfrwt>
<pdfrwt beam="1">  1       -2 0.99465023E+00 0.15007742E+02</pdfrwt>
<totfact>-0.63612522E-14</totfact>
</mgrwt>
</event>
<event>
 4    1  0.4996155E-019  0.1494199E+02  0.7818608E-02  0.1869844E+00
          2   -1    0    0  501    0  0.00000000000E+00  0.00000000000E+00  0.12024136472E+03  0.12024136475E+03  0.25500000000E-02 0.  1.
         -2   -1    0    0    0  501 -0.00000000000E+00 -0.00000000000E+00 -0.46419394698E+00  0.46420095100E+00  0.25500000000E-02 0. -1.
         31    1    1    2    0    0  0.23548529565E+00  0.64112320955E-01  0.55484267878E+02  0.55982340713E+02  0.74470750000E+01 0. -1.
        -31    1    1    2    0    0 -0.23548529565E+00 -0.64112320955E-01  0.64292902894E+02  0.64723224984E+02  0.74470750000E+01 0.  1.
<mgrwt>
<rscale>  0 0.14941986E+02</rscale>
<asrwt>0</asrwt>
<pdfrwt beam="1">  1        2 0.99807807E+00 0.14941986E+02</pdfrwt>
<pdfrwt beam="2">  1       -2 0.98595373E+00 0.14941986E+02</pdfrwt>
<totfact> 0.19282605E-13</totfact>
</mgrwt>
</event>
<event>
 4    1  0.4996155E-019  0.1490147E+02  0.7818608E-02  0.1871090E+00
          2   -1    0    0  501    0  0.00000000000E+00  0.00000000000E+00  0.11982661207E+03  0.11982661210E+03  0.25500000000E-02 0. -1.
         -2   -1    0    0    0  501 -0.00000000000E+00 -0.00000000000E+00 -0.46327811891E+00  0.46328513678E+00  0.25500000000E-02 0.  1.
         31    1    1    2    0    0 -0.15576204886E+00 -0.14305787344E+00  0.58881822583E+02  0.59351265228E+02  0.74470750000E+01 0.  1.
        -31    1    1    2    0    0  0.15576204886E+00  0.14305787344E+00  0.60481511369E+02  0.60938632007E+02  0.74470750000E+01 0. -1.
<mgrwt>
<rscale>  0 0.14901473E+02</rscale>
<asrwt>0</asrwt>
<pdfrwt beam="1">  1        2 0.99464103E+00 0.14901473E+02</pdfrwt>
<pdfrwt beam="2">  1       -2 0.98400292E+00 0.14901473E+02</pdfrwt>
<totfact> 0.65323164E-13</totfact>
</mgrwt>
</event>
<event>
 4    1 -0.4996155E-019  0.1496335E+02  0.7818608E-02  0.1869189E+00
          2   -1    0    0  501    0  0.00000000000E+00  0.00000000000E+00  0.11946175683E+03  0.11946175685E+03  0.25500000000E-02 0. -1.
         -2   -1    0    0    0  501 -0.00000000000E+00 -0.00000000000E+00 -0.46856043736E+00  0.46856737611E+00  0.25500000000E-02 0.  1.
         31    1    1    2    0    0  0.42899650860E+00 -0.57643515820E+00  0.59375259885E+02  0.59844771935E+02  0.74470750000E+01 0.  1.
        -31    1    1    2    0    0 -0.42899650860E+00  0.57643515820E+00  0.59617936504E+02  0.60085552295E+02  0.74470750000E+01 0.  1.
<mgrwt>
<rscale>  0 0.14963351E+02</rscale>
<asrwt>0</asrwt>
<pdfrwt beam="1">  1        2 0.99166783E+00 0.14963351E+02</pdfrwt>
<pdfrwt beam="2">  1       -2 0.99516686E+00 0.14963351E+02</pdfrwt>
<totfact>-0.15439196E-13</totfact>
</mgrwt>
</event>
<event>
 4    1 -0.4996155E-019  0.1489438E+02  0.7818608E-02  0.1871309E+00
         -2   -1    0    0    0  501 -0.00000000000E+00  0.00000000000E+00  0.11988885614E+03  0.11988885616E+03  0.25500000000E-02 0. -1.
          2   -1    0    0  501    0  0.00000000000E+00 -0.00000000000E+00 -0.46259719043E+00  0.46260421862E+00  0.25500000000E-02 0.  1.
         31    1    1    2    0    0 -0.11801305917E-01  0.25771759354E-01  0.59464988333E+02  0.59929496635E+02  0.74470750000E+01 0.  1.
        -31    1    1    2    0    0  0.11801305917E-01 -0.25771759354E-01  0.59961270614E+02  0.60421963748E+02  0.74470750000E+01 0. -1.
<mgrwt>
<rscale>  0 0.14894385E+02</rscale>
<asrwt>0</asrwt>
<pdfrwt beam="2">  1        2 0.98256417E+00 0.14894385E+02</pdfrwt>
<pdfrwt beam="1">  1       -2 0.99515008E+00 0.14894385E+02</pdfrwt>
<totfact>-0.51912519E-13</totfact>
</mgrwt>
</event>
<event>
 4    1  0.4996155E-019  0.1489948E+02  0.7818608E-02  0.1871152E+00
         -2   -1    0    0    0  501 -0.00000000000E+00  0.00000000000E+00  0.11822565872E+03  0.11822565875E+03  0.25500000000E-02 0.  1.
          2   -1    0    0  501    0  0.00000000000E+00 -0.00000000000E+00 -0.46942596774E+00  0.46943289370E+00  0.25500000000E-02 0. -1.
         31    1    1    2    0    0 -0.19740144711E+00  0.15244682890E-01  0.58703374330E+02  0.59174185956E+02  0.74470750000E+01 0.  1.
        -31    1    1    2    0    0  0.19740144711E+00 -0.15244682890E-01  0.59052858422E+02  0.59520905686E+02  0.74470750000E+01 0.  1.
<mgrwt>
<rscale>  0 0.14899477E+02</rscale>
<asrwt>0</asrwt>
<pdfrwt beam="2">  1        2 0.99695712E+00 0.14899477E+02</pdfrwt>
<pdfrwt beam="1">  1       -2 0.98145406E+00 0.14899477E+02</pdfrwt>
<totfact> 0.81323998E-13</totfact>
</mgrwt>
</event>
<event>
 4    1  0.4996155E-019  0.1490894E+02  0.7818608E-02  0.1870860E+00
          2   -1    0    0  501    0  0.00000000000E+00  0.00000000000E+00  0.12024520643E+03  0.12024520646E+03  0.25500000000E-02 0.  1.
         -2   -1    0    0    0  501 -0.00000000000E+00 -0.00000000000E+00 -0.46212836208E+00  0.46213539741E+00  0.25500000000E-02 0. -1.
         31    1    1    2    0    0  0.26835909646E+00 -0.19074272878E+00  0.60237042422E+02  0.60696528774E+02  0.74470750000E+01 0.  1.
        -31    1    1    2    0    0 -0.26835909646E+00  0.19074272878E+00  0.59546035649E+02  0.60010813083E+02  0.74470750000E+01 0. -1.
<mgrwt>
<rscale>  0 0.14908943E+02</rscale>
<asrwt>0</asrwt>
<pdfrwt beam="1">  1        2 0.99809276E+00 0.14908943E+02</pdfrwt>
<pdfrwt beam="2">  1       -2 0.98158338E+00 0.14908943E+02</pdfrwt>
<totfact> 0.56334939E-13</totfact>
</mgrwt>
</event>
<event>
 4    1  0.4996155E-019  0.1490115E+02  0.7818608E-02  0.1871100E+00
         -2   -1    0    0    0  501 -0.00000000000E+00  0.00000000000E+00  0.11844228664E+03  0.11844228667E+03  0.25500000000E-02 0. -1.
          2   -1    0    0  501    0  0.00000000000E+00 -0.00000000000E+00 -0.46867274364E+00  0.46867968073E+00  0.25500000000E-02 0.  1.
         31    1    1    2    0    0 -0.19608669073E+00  0.95873476156E-01  0.58450438292E+02  0.58923342609E+02  0.74470750000E+01 0.  1.
        -31    1    1    2    0    0  0.19608669073E+00 -0.95873476156E-01  0.59523175608E+02  0.59987623742E+02  0.74470750000E+01 0. -1.
<mgrwt>
<rscale>  0 0.14901152E+02</rscale>
<asrwt>0</asrwt>
<pdfrwt beam="2">  1        2 0.99537097E+00 0.14901152E+02</pdfrwt>
<pdfrwt beam="1">  1       -2 0.98323907E+00 0.14901152E+02</pdfrwt>
<totfact> 0.72503075E-13</totfact>
</mgrwt>
</event>
<event>
 4    1 -0.4996155E-019  0.1494789E+02  0.7818608E-02  0.1869663E+00
          2   -1    0    0  501    0  0.00000000000E+00  0.00000000000E+00  0.11881746872E+03  0.11881746874E+03  0.25500000000E-02 0. -1.
         -2   -1    0    0    0  501 -0.00000000000E+00 -0.00000000000E+00 -0.47012813542E+00  0.47013505104E+00  0.25500000000E-02 0.  1.
         31    1    1    2    0    0  0.30083466476E+00  0.46740167389E+00  0.61593631666E+02  0.62044688360E+02  0.74470750000E+01 0.  1.
        -31    1    1    2    0    0 -0.30083466476E+00 -0.46740167389E+00  0.56753708915E+02  0.57242915434E+02  0.74470750000E+01 0. -1.
<mgrwt>
<rscale>  0 0.14947889E+02</rscale>
<asrwt>0</asrwt>
<pdfrwt beam="1">  1        2 0.98635337E+00 0.14947889E+02</pdfrwt>
<pdfrwt beam="2">  1       -2 0.99846214E+00 0.14947889E+02</pdfrwt>
<totfact>-0.13403867E-13</totfact>
</mgrwt>
</event>
<event>
 4    1  0.4996155E-019  0.1491674E+02  0.7818608E-02  0.1870620E+00
         -2   -1    0    0    0  501 -0.00000000000E+00  0.00000000000E+00  0.11858529637E+03  0.11858529640E+03  0.25500000000E-02 0. -1.
          2   -1    0    0  501    0  0.00000000000E+00 -0.00000000000E+00 -0.46908712367E+00  0.46909405463E+00  0.25500000000E-02 0.  1.
         31    1    1    2    0    0  0.34947529003E+00  0.74786314643E-01  0.57449968840E+02  0.57931731993E+02  0.74470750000E+01 0.  1.
        -31    1    1    2    0    0 -0.34947529003E+00 -0.74786314643E-01  0.60666240408E+02  0.61122658460E+02  0.74470750000E+01 0.  1.
<mgrwt>
<rscale>  0 0.14916736E+02</rscale>
<asrwt>0</asrwt>
<pdfrwt beam="2">  1        2 0.99625228E+00 0.14916736E+02</pdfrwt>
<pdfrwt beam="1">  1       -2 0.98442500E+00 0.14916736E+02</pdfrwt>
<totfact> 0.48235173E-13</totfact>
</mgrwt>
</event>
<event>
 4    1 -0.4996155E-019  0.1492993E+02  0.7818608E-02  0.1870214E+00
         -2   -1    0    0    0  501 -0.00000000000E+00  0.00000000000E+00  0.11980730014E+03  0.11980730017E+03  0.25500000000E-02 0.  1.
          2   -1    0    0  501    0  0.00000000000E+00 -0.00000000000E+00 -0.46512400727E+00  0.46513099729E+00  0.25500000000E-02 0. -1.
         31    1    1    2    0    0  0.35872651691E-01 -0.28340024827E-01  0.63815381589E+02  0.64248454794E+02  0.74470750000E+01 0.  1.
        -31    1    1    2    0    0 -0.35872651691E-01  0.28340024827E-01  0.55526794544E+02  0.56023976371E+02  0.74470750000E+01 0. -1.
<mgrwt>
<rscale>  0 0.14929926E+02</rscale>
<asrwt>0</asrwt>
<pdfrwt beam="2">  1        2 0.98790775E+00 0.14929926E+02</pdfrwt>
<pdfrwt beam="1">  1       -2 0.99449661E+00 0.14929926E+02</pdfrwt>
<totfact>-0.22586347E-13</totfact>
</mgrwt>
</event>
<event>
 4    1 -0.4996155E-019  0.1493493E+02  0.7818608E-02  0.1870061E+00
         -2   -1    0    0    0  501 -0.00000000000E+00  0.00000000000E+00  0.12021523661E+03  0.12021523663E+03  0.25500000000E-02 0.  1.
          2   -1    0    0  501    0  0.00000000000E+00 -0.00000000000E+00 -0.46385651852E+00  0.46386352764E+00  0.25500000000E-02 0. -1.
         31    1    1    2    0    0 -0.31724325094E+00  0.23832670745E+00  0.56781055045E+02  0.57268705075E+02  0.74470750000E+01 0. -1.
        -31    1    1    2    0    0  0.31724325094E+00 -0.23832670745E+00  0.62970325044E+02  0.63410395087E+02  0.74470750000E+01 0. -1.
<mgrwt>
<rscale>  0 0.14934932E+02</rscale>
<asrwt>0</asrwt>
<pdfrwt beam="2">  1        2 0.98523897E+00 0.14934932E+02</pdfrwt>
<pdfrwt beam="1">  1       -2 0.99785923E+00 0.14934932E+02</pdfrwt>
<totfact>-0.20952956E-13</totfact>
</mgrwt>
</event>
<event>
 4    1 -0.4996155E-019  0.1491420E+02  0.7818608E-02  0.1870698E+00
         -2   -1    0    0    0  501 -0.00000000000E+00  0.00000000000E+00  0.11961718140E+03  0.11961718142E+03  0.25500000000E-02 0. -1.
          2   -1    0    0  501    0  0.00000000000E+00 -0.00000000000E+00 -0.46488211392E+00  0.46488910758E+00  0.25500000000E-02 0.  1.
         31    1    1    2    0    0  0.10686542447E+00  0.20122924487E+00  0.62089854363E+02  0.62535276879E+02  0.74470750000E+01 0. -1.
        -31    1    1    2    0    0 -0.10686542447E+00 -0.20122924487E+00  0.57062444919E+02  0.57546793652E+02  0.74470750000E+01 0.  1.
<mgrwt>
<rscale>  0 0.14914196E+02</rscale>
<asrwt>0</asrwt>
<pdfrwt beam="2">  1        2 0.98738991E+00 0.14914196E+02</pdfrwt>
<pdfrwt beam="1">  1       -2 0.99292258E+00 0.14914196E+02</pdfrwt>
<totfact>-0.20701367E-13</totfact>
</mgrwt>
</event>
<event>
 4    1 -0.4996155E-019  0.1495751E+02  0.7818608E-02  0.1869368E+00
          2   -1    0    0  501    0  0.00000000000E+00  0.00000000000E+00  0.11950838098E+03  0.11950838101E+03  0.25500000000E-02 0.  1.
         -2   -1    0    0    0  501 -0.00000000000E+00 -0.00000000000E+00 -0.46801227416E+00  0.46801922104E+00  0.25500000000E-02 0. -1.
         31    1    1    2    0    0  0.31767597943E+00 -0.76737558179E-01  0.54667061169E+02  0.55172940013E+02  0.74470750000E+01 0. -1.
        -31    1    1    2    0    0 -0.31767597943E+00  0.76737558179E-01  0.64373307534E+02  0.64803460213E+02  0.74470750000E+01 0.  1.
<mgrwt>
<rscale>  0 0.14957514E+02</rscale>
<asrwt>0</asrwt>
<pdfrwt beam="1">  1        2 0.99204882E+00 0.14957514E+02</pdfrwt>
<pdfrwt beam="2">  1       -2 0.99400870E+00 0.14957514E+02</pdfrwt>
<totfact>-0.14766294E-13</totfact>
</mgrwt>
</event>
<event>
 4    1 -0.4996155E-019  0.1492413E+02  0.7818608E-02  0.1870393E+00
          2   -1    0    0  501    0  0.00000000000E+00  0.00000000000E+00  0.11847890232E+03  0.11847890235E+03  0.25500000000E-02 0. -1.
         -2   -1    0    0    0  501 -0.00000000000E+00 -0.00000000000E+00 -0.46997397552E+00  0.46998089341E+00  0.25500000000E-02 0.  1.
         31    1    1    2    0    0  0.14650502501E+00  0.42771316312E+00  0.60105554370E+02  0.60566830811E+02  0.74470750000E+01 0.  1.
        -31    1    1    2    0    0 -0.14650502501E+00 -0.42771316312E+00  0.57903373974E+02  0.58382052430E+02  0.74470750000E+01 0.  1.
<mgrwt>
<rscale>  0 0.14924130E+02</rscale>
<asrwt>0</asrwt>
<pdfrwt beam="1">  1        2 0.98355259E+00 0.14924130E+02</pdfrwt>
<pdfrwt beam="2">  1       -2 0.99812479E+00 0.14924130E+02</pdfrwt>
<totfact>-0.24878146E-13</totfact>
</mgrwt>
</event>
<event>
 4    1 -0.4996155E-019  0.1490450E+02  0.7818608E-02  0.1870997E+00
          2   -1    0    0  501    0  0.00000000000E+00  0.00000000000E+00  0.11814559452E+03  0.11814559455E+03  0.25500000000E-02 0.  1.
         -2   -1    0    0    0  501 -0.00000000000E+00 -0.00000000000E+00 -0.47006085210E+00  0.47006776871E+00  0.25500000000E-02 0. -1.
         31    1    1    2    0    0 -0.20382095900E+00 -0.82636228382E-01  0.60186774010E+02  0.60646146320E+02  0.74470750000E+01 0.  1.
        -31    1    1    2    0    0  0.20382095900E+00  0.82636228382E-01  0.57488759656E+02  0.57969515994E+02  0.74470750000E+01 0. -1.
<mgrwt>
<rscale>  0 0.14904500E+02</rscale>
<asrwt>0</asrwt>
<pdfrwt beam="1">  1        2 0.98079729E+00 0.14904500E+02</pdfrwt>
<pdfrwt beam="2">  1       -2 0.99829744E+00 0.14904500E+02</pdfrwt>
<totfact>-0.36514064E-13</totfact>
</mgrwt>
</event>
<event>
 4    1 -0.4996155E-019  0.1491027E+02  0.7818608E-02  0.1870819E+00
         -2   -1    0    0    0  501 -0.00000000000E+00  0.00000000000E+00  0.11956422178E+03  0.11956422180E+03  0.25500000000E-02 0. -1.
          2   -1    0    0  501    0  0.00000000000E+00 -0.00000000000E+00 -0.46484301277E+00  0.46485000701E+00  0.25500000000E-02 0.  1.
         31    1    1    2    0    0  0.27926870431E+00 -0.18235161761E+00  0.58792583145E+02  0.59263293885E+02  0.74470750000E+01 0. -1.
        -31    1    1    2    0    0 -0.27926870431E+00  0.18235161761E+00  0.60306795618E+02  0.60765777925E+02  0.74470750000E+01 0.  1.
<mgrwt>
<rscale>  0 0.14910267E+02</rscale>
<asrwt>0</asrwt>
<pdfrwt beam="2">  1        2 0.98730549E+00 0.14910267E+02</pdfrwt>
<pdfrwt beam="1">  1       -2 0.99248435E+00 0.14910267E+02</pdfrwt>
<totfact>-0.18940591E-13</totfact>
</mgrwt>
</event>
<event>
 4    1 -0.4996155E-019  0.1495555E+02  0.7818608E-02  0.1869428E+00
         -2   -1    0    0    0  501 -0.00000000000E+00  0.00000000000E+00  0.11975866045E+03  0.11975866048E+03  0.25500000000E-02 0. -1.
          2   -1    0    0  501    0  0.00000000000E+00 -0.00000000000E+00 -0.46691177006E+00  0.46691873332E+00  0.25500000000E-02 0.  1.
         31    1    1    2    0    0 -0.13433199933E+00 -0.50232565898E-01  0.64964014422E+02  0.65389621992E+02  0.74470750000E+01 0. -1.
        -31    1    1    2    0    0  0.13433199933E+00  0.50232565898E-01  0.54327734260E+02  0.54835957221E+02  0.74470750000E+01 0.  1.
<mgrwt>
<rscale>  0 0.14955554E+02</rscale>
<asrwt>0</asrwt>
<pdfrwt beam="2">  1        2 0.99168854E+00 0.14955554E+02</pdfrwt>
<pdfrwt beam="1">  1       -2 0.99410921E+00 0.14955554E+02</pdfrwt>
<totfact>-0.15258539E-13</totfact>
</mgrwt>
</event>
<event>
 4    1 -0.4996155E-019  0.1498879E+02  0.7818608E-02  0.1868411E+00
          2   -1    0    0  501    0  0.00000000000E+00  0.00000000000E+00  0.11998030085E+03  0.11998030088E+03  0.25500000000E-02 0. -1.
         -2   -1    0    0    0  501 -0.00000000000E+00 -0.00000000000E+00 -0.46812268386E+00  0.46812962910E+00  0.25500000000E-02 0.  1.
         31    1    1    2    0    0  0.12237386517E+00 -0.74682247803E+00  0.56811447252E+02  0.57302462287E+02  0.74470750000E+01 0.  1.
        -31    1    1    2    0    0 -0.12237386517E+00  0.74682247803E+00  0.62700730913E+02  0.63145968219E+02  0.74470750000E+01 0. -1.
<mgrwt>
<rscale>  0 0.14988785E+02</rscale>
<asrwt>0</asrwt>
<pdfrwt beam="1">  1        2 0.99595190E+00 0.14988785E+02</pdfrwt>
<pdfrwt beam="2">  1       -2 0.99425754E+00 0.14988785E+02</pdfrwt>
<totfact>-0.10545459E-13</totfact>
</mgrwt>
</event>
<event>
 4    1 -0.4996155E-019  0.1493136E+02  0.7818608E-02  0.1870170E+00
         -2   -1    0    0    0  501 -0.00000000000E+00  0.00000000000E+00  0.12000662122E+03  0.12000662124E+03  0.25500000000E-02 0.  1.
          2   -1    0    0  501    0  0.00000000000E+00 -0.00000000000E+00 -0.46444063393E+00  0.46444763424E+00  0.25500000000E-02 0. -1.
         31    1    1    2    0    0 -0.31099049735E+00  0.95396005746E-01  0.56428495026E+02  0.56918712147E+02  0.74470750000E+01 0. -1.
        -31    1    1    2    0    0  0.31099049735E+00 -0.95396005746E-01  0.63113685556E+02  0.63552356730E+02  0.74470750000E+01 0.  1.
<mgrwt>
<rscale>  0 0.14931360E+02</rscale>
<asrwt>0</asrwt>
<pdfrwt beam="2">  1        2 0.98646824E+00 0.14931360E+02</pdfrwt>
<pdfrwt beam="1">  1       -2 0.99613909E+00 0.14931360E+02</pdfrwt>
<totfact>-0.25501413E-13</totfact>
</mgrwt>
</event>
<event>
 4    1 -0.4996155E-019  0.1497884E+02  0.7818608E-02  0.1868715E+00
         -2   -1    0    0    0  501 -0.00000000000E+00  0.00000000000E+00  0.11969329137E+03  0.11969329140E+03  0.25500000000E-02 0. -1.
          2   -1    0    0  501    0  0.00000000000E+00 -0.00000000000E+00 -0.46862239662E+00  0.46862933445E+00  0.25500000000E-02 0.  1.
         31    1    1    2    0    0 -0.62403388546E+00 -0.36788069889E+00  0.62244944525E+02  0.62693036292E+02  0.74470750000E+01 0. -1.
        -31    1    1    2    0    0  0.62403388546E+00  0.36788069889E+00  0.56979724450E+02  0.57468884442E+02  0.74470750000E+01 0.  1.
<mgrwt>
<rscale>  0 0.14978835E+02</rscale>
<asrwt>0</asrwt>
<pdfrwt beam="2">  1        2 0.99530546E+00 0.14978835E+02</pdfrwt>
<pdfrwt beam="1">  1       -2 0.99358283E+00 0.14978835E+02</pdfrwt>
<totfact>-0.10888117E-13</totfact>
</mgrwt>
</event>
<event>
 4    1  0.4996155E-019  0.1491895E+02  0.7818608E-02  0.1870552E+00
         -2   -1    0    0    0  501 -0.00000000000E+00  0.00000000000E+00  0.11881244016E+03  0.11881244019E+03  0.25500000000E-02 0. -1.
          2   -1    0    0  501    0  0.00000000000E+00 -0.00000000000E+00 -0.46832940607E+00  0.46833634825E+00  0.25500000000E-02 0.  1.
         31    1    1    2    0    0  0.25490288736E+00 -0.18389732595E+00  0.56826631597E+02  0.57313382193E+02  0.74470750000E+01 0.  1.
        -31    1    1    2    0    0 -0.25490288736E+00  0.18389732595E+00  0.61517479157E+02  0.61967394343E+02  0.74470750000E+01 0. -1.
<mgrwt>
<rscale>  0 0.14918951E+02</rscale>
<asrwt>0</asrwt>
<pdfrwt beam="2">  1        2 0.99465687E+00 0.14918951E+02</pdfrwt>
<pdfrwt beam="1">  1       -2 0.98629692E+00 0.14918951E+02</pdfrwt>
<totfact> 0.33298996E-13</totfact>
</mgrwt>
</event>
<event>
 4    1 -0.4996155E-019  0.1496560E+02  0.7818608E-02  0.1869120E+00
         -2   -1    0    0    0  501 -0.00000000000E+00  0.00000000000E+00  0.11978903694E+03  0.11978903697E+03  0.25500000000E-02 0. -1.
          2   -1    0    0  501    0  0.00000000000E+00 -0.00000000000E+00 -0.46742052614E+00  0.46742748181E+00  0.25500000000E-02 0.  1.
         31    1    1    2    0    0  0.60352933988E+00  0.27555596518E+00  0.57208066618E+02  0.57694557724E+02  0.74470750000E+01 0.  1.
        -31    1    1    2    0    0 -0.60352933988E+00 -0.27555596518E+00  0.62113549800E+02  0.62561906729E+02  0.74470750000E+01 0. -1.
<mgrwt>
<rscale>  0 0.14965597E+02</rscale>
<asrwt>0</asrwt>
<pdfrwt beam="2">  1        2 0.99276586E+00 0.14965597E+02</pdfrwt>
<pdfrwt beam="1">  1       -2 0.99436459E+00 0.14965597E+02</pdfrwt>
<totfact>-0.14271012E-13</totfact>
</mgrwt>
</event>
<event>
 4    1 -0.4996155E-019  0.1490935E+02  0.7818608E-02  0.1870847E+00
         -2   -1    0    0    0  501 -0.00000000000E+00  0.00000000000E+00  0.12002844278E+03  0.12002844281E+03  0.25500000000E-02 0. -1.
          2   -1    0    0  501    0  0.00000000000E+00 -0.00000000000E+00 -0.46298813116E+00  0.46299515343E+00  0.25500000000E-02 0.  1.
         31    1    1    2    0    0  0.28822272045E+00  0.56566265879E-01  0.58455498568E+02  0.58928690050E+02  0.74470750000E+01 0.  1.
        -31    1    1    2    0    0 -0.28822272045E+00 -0.56566265879E-01  0.61109956080E+02  0.61562747910E+02  0.74470750000E+01 0. -1.
<mgrwt>
<rscale>  0 0.14909349E+02</rscale>
<asrwt>0</asrwt>
<pdfrwt beam="2">  1        2 0.98339573E+00 0.14909349E+02</pdfrwt>
<pdfrwt beam="1">  1       -2 0.99630751E+00 0.14909349E+02</pdfrwt>
<totfact>-0.40943699E-13</totfact>
</mgrwt>
</event>
<event>
 4    1  0.4996155E-019  0.1491800E+02  0.7818608E-02  0.1870581E+00
         -2   -1    0    0    0  501 -0.00000000000E+00  0.00000000000E+00  0.11893855559E+03  0.11893855562E+03  0.25500000000E-02 0.  1.
          2   -1    0    0  501    0  0.00000000000E+00 -0.00000000000E+00 -0.46777291597E+00  0.46777986641E+00  0.25500000000E-02 0. -1.
         31    1    1    2    0    0  0.39712055012E+00 -0.10310976604E-01  0.58105852486E+02  0.58582478868E+02  0.74470750000E+01 0.  1.
        -31    1    1    2    0    0 -0.39712055012E+00  0.10310976604E-01  0.60364930188E+02  0.60823856616E+02  0.74470750000E+01 0. -1.
<mgrwt>
<rscale>  0 0.14917996E+02</rscale>
<asrwt>0</asrwt>
<pdfrwt beam="2">  1        2 0.99348376E+00 0.14917996E+02</pdfrwt>
<pdfrwt beam="1">  1       -2 0.98733513E+00 0.14917996E+02</pdfrwt>
<totfact> 0.24196156E-13</totfact>
</mgrwt>
</event>
<event>
 4    1 -0.4996155E-019  0.1491569E+02  0.7818608E-02  0.1870652E+00
         -2   -1    0    0    0  501 -0.00000000000E+00  0.00000000000E+00  0.11982195252E+03  0.11982195254E+03  0.25500000000E-02 0. -1.
          2   -1    0    0  501    0  0.00000000000E+00 -0.00000000000E+00 -0.46418088516E+00  0.46418788938E+00  0.25500000000E-02 0.  1.
         31    1    1    2    0    0  0.34662560595E+00  0.42366375373E-01  0.61263547650E+02  0.61715501626E+02  0.74470750000E+01 0.  1.
        -31    1    1    2    0    0 -0.34662560595E+00 -0.42366375373E-01  0.58094223981E+02  0.58570638807E+02  0.74470750000E+01 0.  1.
<mgrwt>
<rscale>  0 0.14915694E+02</rscale>
<asrwt>0</asrwt>
<pdfrwt beam="2">  1        2 0.98591282E+00 0.14915694E+02</pdfrwt>
<pdfrwt beam="1">  1       -2 0.99460997E+00 0.14915694E+02</pdfrwt>
<totfact>-0.30094031E-13</totfact>
</mgrwt>
</event>
<event>
 4    1 -0.4996155E-019  0.1499544E+02  0.7818608E-02  0.1868208E+00
         -2   -1    0    0    0  501 -0.00000000000E+00  0.00000000000E+00  0.11990486300E+03  0.11990486303E+03  0.25500000000E-02 0. -1.
          2   -1    0    0  501    0  0.00000000000E+00 -0.00000000000E+00 -0.46883345564E+00  0.46884039036E+00  0.25500000000E-02 0.  1.
         31    1    1    2    0    0 -0.50516087920E+00 -0.47719067748E+00  0.63919977181E+02  0.64356082132E+02  0.74470750000E+01 0. -1.
        -31    1    1    2    0    0  0.50516087920E+00  0.47719067748E+00  0.55516052361E+02  0.56017621284E+02  0.74470750000E+01 0. -1.
<mgrwt>
<rscale>  0 0.14995443E+02</rscale>
<asrwt>0</asrwt>
<pdfrwt beam="2">  1        2 0.99575883E+00 0.14995443E+02</pdfrwt>
<pdfrwt beam="1">  1       -2 0.99533400E+00 0.14995443E+02</pdfrwt>
<totfact>-0.10786682E-13</totfact>
</mgrwt>
</event>
<event>
 4    1 -0.4996155E-019  0.1500157E+02  0.7818608E-02  0.1868021E+00
         -2   -1    0    0    0  501 -0.00000000000E+00  0.00000000000E+00  0.11969408709E+03  0.11969408712E+03  0.25500000000E-02 0. -1.
          2   -1    0    0  501    0  0.00000000000E+00 -0.00000000000E+00 -0.47004293446E+00  0.47004985133E+00  0.25500000000E-02 0.  1.
         31    1    1    2    0    0  0.66810213453E-01 -0.76711948145E+00  0.55942072627E+02  0.56440830537E+02  0.74470750000E+01 0. -1.
        -31    1    1    2    0    0 -0.66810213453E-01  0.76711948145E+00  0.63281971529E+02  0.63723306431E+02  0.74470750000E+01 0. -1.
<mgrwt>
<rscale>  0 0.15001570E+02</rscale>
<asrwt>0</asrwt>
<pdfrwt beam="2">  1        2 0.99831071E+00 0.15001570E+02</pdfrwt>
<pdfrwt beam="1">  1       -2 0.99360116E+00 0.15001570E+02</pdfrwt>
<totfact>-0.54128806E-14</totfact>
</mgrwt>
</event>
<event>
 4    1 -0.4996155E-019  0.1492162E+02  0.7818608E-02  0.1870470E+00
          2   -1    0    0  501    0  0.00000000000E+00  0.00000000000E+00  0.11856590245E+03  0.11856590248E+03  0.25500000000E-02 0. -1.
         -2   -1    0    0    0  501 -0.00000000000E+00 -0.00000000000E+00 -0.46947129339E+00  0.46947821869E+00  0.25500000000E-02 0.  1.
         31    1    1    2    0    0  0.42249819133E+00 -0.12688389801E+00  0.58243682931E+02  0.58719503844E+02  0.74470750000E+01 0.  1.
        -31    1    1    2    0    0 -0.42249819133E+00  0.12688389801E+00  0.59852748227E+02  0.60315876854E+02  0.74470750000E+01 0.  1.
<mgrwt>
<rscale>  0 0.14921622E+02</rscale>
<asrwt>0</asrwt>
<pdfrwt beam="1">  1        2 0.98426781E+00 0.14921622E+02</pdfrwt>
<pdfrwt beam="2">  1       -2 0.99706432E+00 0.14921622E+02</pdfrwt>
<totfact>-0.30911014E-13</totfact>
</mgrwt>
</event>
<event>
 4    1 -0.4996155E-019  0.1492909E+02  0.7818608E-02  0.1870240E+00
         -2   -1    0    0    0  501 -0.00000000000E+00  0.00000000000E+00  0.12041022072E+03  0.12041022075E+03  0.25500000000E-02 0.  1.
          2   -1    0    0  501    0  0.00000000000E+00 -0.00000000000E+00 -0.46274340436E+00  0.46275043034E+00  0.25500000000E-02 0. -1.
         31    1    1    2    0    0  0.11859984832E+00  0.47143576129E+00  0.58713753638E+02  0.59186147956E+02  0.74470750000E+01 0. -1.
        -31    1    1    2    0    0 -0.11859984832E+00 -0.47143576129E+00  0.61233723677E+02  0.61686823220E+02  0.74470750000E+01 0. -1.
<mgrwt>
<rscale>  0 0.14929094E+02</rscale>
<asrwt>0</asrwt>
<pdfrwt beam="2">  1        2 0.98288990E+00 0.14929094E+02</pdfrwt>
<pdfrwt beam="1">  1       -2 0.99946230E+00 0.14929094E+02</pdfrwt>
<totfact>-0.89453206E-14</totfact>
</mgrwt>
</event>
<event>
 4    1 -0.4996155E-019  0.1497448E+02  0.7818608E-02  0.1868848E+00
         -2   -1    0    0    0  501 -0.00000000000E+00  0.00000000000E+00  0.12005322513E+03  0.12005322516E+03  0.25500000000E-02 0. -1.
          2   -1    0    0  501    0  0.00000000000E+00 -0.00000000000E+00 -0.46694576208E+00  0.46695272483E+00  0.25500000000E-02 0.  1.
         31    1    1    2    0    0 -0.70559017026E+00  0.10561754275E+00  0.62218722999E+02  0.62666876659E+02  0.74470750000E+01 0. -1.
        -31    1    1    2    0    0  0.70559017026E+00 -0.10561754275E+00  0.57367556368E+02  0.57853301221E+02  0.74470750000E+01 0.  1.
<mgrwt>
<rscale>  0 0.14974480E+02</rscale>
<asrwt>0</asrwt>
<pdfrwt beam="2">  1        2 0.99176991E+00 0.14974480E+02</pdfrwt>
<pdfrwt beam="1">  1       -2 0.99654515E+00 0.14974480E+02</pdfrwt>
<totfact>-0.13434165E-13</totfact>
</mgrwt>
</event>
<event>
 4    1 -0.4996155E-019  0.1492006E+02  0.7818608E-02  0.1870518E+00
         -2   -1    0    0    0  501 -0.00000000000E+00  0.00000000000E+00  0.12016799157E+03  0.12016799160E+03  0.25500000000E-02 0.  1.
          2   -1    0    0  501    0  0.00000000000E+00 -0.00000000000E+00 -0.46311541955E+00  0.46312243988E+00  0.25500000000E-02 0. -1.
         31    1    1    2    0    0 -0.76905342975E-01 -0.40151099473E+00  0.61156715964E+02  0.61609820314E+02  0.74470750000E+01 0. -1.
        -31    1    1    2    0    0  0.76905342975E-01  0.40151099473E+00  0.58548160189E+02  0.59021293725E+02  0.74470750000E+01 0. -1.
<mgrwt>
<rscale>  0 0.14920064E+02</rscale>
<asrwt>0</asrwt>
<pdfrwt beam="2">  1        2 0.98366944E+00 0.14920064E+02</pdfrwt>
<pdfrwt beam="1">  1       -2 0.99746245E+00 0.14920064E+02</pdfrwt>
<totfact>-0.30866513E-13</totfact>
</mgrwt>
</event>
<event>
 4    1 -0.4996155E-019  0.1490863E+02  0.7818608E-02  0.1870870E+00
          2   -1    0    0  501    0  0.00000000000E+00  0.00000000000E+00  0.11830175973E+03  0.11830175976E+03  0.25500000000E-02 0. -1.
         -2   -1    0    0    0  501 -0.00000000000E+00 -0.00000000000E+00 -0.46970039609E+00  0.46970731801E+00  0.25500000000E-02 0.  1.
         31    1    1    2    0    0  0.21639010141E+00  0.19924245075E+00  0.60080024754E+02  0.60540522154E+02  0.74470750000E+01 0. -1.
        -31    1    1    2    0    0 -0.21639010141E+00 -0.19924245075E+00  0.57752034582E+02  0.58230944923E+02  0.74470750000E+01 0. -1.
<mgrwt>
<rscale>  0 0.14908628E+02</rscale>
<asrwt>0</asrwt>
<pdfrwt beam="1">  1        2 0.98208559E+00 0.14908628E+02</pdfrwt>
<pdfrwt beam="2">  1       -2 0.99754017E+00 0.14908628E+02</pdfrwt>
<totfact>-0.39420673E-13</totfact>
</mgrwt>
</event>
<event>
 4    1 -0.4996155E-019  0.1492713E+02  0.7818608E-02  0.1870300E+00
          2   -1    0    0  501    0  0.00000000000E+00  0.00000000000E+00  0.11840242368E+03  0.11840242370E+03  0.25500000000E-02 0. -1.
         -2   -1    0    0    0  501 -0.00000000000E+00 -0.00000000000E+00 -0.47046681516E+00  0.47047372580E+00  0.25500000000E-02 0.  1.
         31    1    1    2    0    0 -0.48191731402E+00  0.93175496711E-01  0.59527480293E+02  0.59993505999E+02  0.74470750000E+01 0. -1.
        -31    1    1    2    0    0  0.48191731402E+00 -0.93175496711E-01  0.58404476569E+02  0.58879391431E+02  0.74470750000E+01 0. -1.
<mgrwt>
<rscale>  0 0.14927133E+02</rscale>
<asrwt>0</asrwt>
<pdfrwt beam="1">  1        2 0.98292429E+00 0.14927133E+02</pdfrwt>
<pdfrwt beam="2">  1       -2 0.99916477E+00 0.14927133E+02</pdfrwt>
<totfact>-0.13495974E-13</totfact>
</mgrwt>
</event>
<event>
 4    1 -0.4996155E-019  0.1491289E+02  0.7818608E-02  0.1870738E+00
          2   -1    0    0  501    0  0.00000000000E+00  0.00000000000E+00  0.11846167867E+03  0.11846167870E+03  0.25500000000E-02 0.  1.
         -2   -1    0    0    0  501 -0.00000000000E+00 -0.00000000000E+00 -0.46933454659E+00  0.46934147390E+00  0.25500000000E-02 0. -1.
         31    1    1    2    0    0  0.47790331622E-01 -0.24528419798E+00  0.56780349564E+02  0.57267176208E+02  0.74470750000E+01 0. -1.
        -31    1    1    2    0    0 -0.47790331622E-01  0.24528419798E+00  0.61211994561E+02  0.61663843964E+02  0.74470750000E+01 0.  1.
<mgrwt>
<rscale>  0 0.14912890E+02</rscale>
<asrwt>0</asrwt>
<pdfrwt beam="1">  1        2 0.98340489E+00 0.14912890E+02</pdfrwt>
<pdfrwt beam="2">  1       -2 0.99677158E+00 0.14912890E+02</pdfrwt>
<totfact>-0.37930145E-13</totfact>
</mgrwt>
</event>
<event>
 4    1 -0.4996155E-019  0.1491687E+02  0.7818608E-02  0.1870616E+00
         -2   -1    0    0    0  501 -0.00000000000E+00  0.00000000000E+00  0.12033117646E+03  0.12033117649E+03  0.25500000000E-02 0.  1.
          2   -1    0    0  501    0  0.00000000000E+00 -0.00000000000E+00 -0.46228942320E+00  0.46229645608E+00  0.25500000000E-02 0. -1.
         31    1    1    2    0    0 -0.29831348430E+00  0.26430001026E+00  0.60763628378E+02  0.61219574526E+02  0.74470750000E+01 0.  1.
        -31    1    1    2    0    0  0.29831348430E+00 -0.26430001026E+00  0.59105258659E+02  0.59573898417E+02  0.74470750000E+01 0. -1.
<mgrwt>
<rscale>  0 0.14916871E+02</rscale>
<asrwt>0</asrwt>
<pdfrwt beam="2">  1        2 0.98192686E+00 0.14916871E+02</pdfrwt>
<pdfrwt beam="1">  1       -2 0.99880495E+00 0.14916871E+02</pdfrwt>
<totfact>-0.22186101E-13</totfact>
</mgrwt>
</event>
<event>
 4    1 -0.4996155E-019  0.1497085E+02  0.7818608E-02  0.1868959E+00
          2   -1    0    0  501    0  0.00000000000E+00  0.00000000000E+00  0.11944107603E+03  0.11944107605E+03  0.25500000000E-02 0.  1.
         -2   -1    0    0    0  501 -0.00000000000E+00 -0.00000000000E+00 -0.46911131354E+00  0.46911824414E+00  0.25500000000E-02 0. -1.
         31    1    1    2    0    0  0.24709036871E+00 -0.10127521384E+00  0.53814765785E+02  0.54328254645E+02  0.74470750000E+01 0. -1.
        -31    1    1    2    0    0 -0.24709036871E+00  0.10127521384E+00  0.65157198927E+02  0.65581939651E+02  0.74470750000E+01 0.  1.
<mgrwt>
<rscale>  0 0.14970849E+02</rscale>
<asrwt>0</asrwt>
<pdfrwt beam="1">  1        2 0.99150138E+00 0.14970849E+02</pdfrwt>
<pdfrwt beam="2">  1       -2 0.99633158E+00 0.14970849E+02</pdfrwt>
<totfact>-0.14156491E-13</totfact>
</mgrwt>
</event>
<event>
 4    1  0.4996155E-019  0.1491741E+02  0.7818608E-02  0.1870599E+00
         -2   -1    0    0    0  501 -0.00000000000E+00  0.00000000000E+00  0.11891774281E+03  0.11891774284E+03  0.25500000000E-02 0.  1.
          2   -1    0    0  501    0  0.00000000000E+00 -0.00000000000E+00 -0.46781804780E+00  0.46782499756E+00  0.25500000000E-02 0. -1.
         31    1    1    2    0    0  0.28087163498E-01  0.19586561796E+00  0.62156813527E+02  0.62601657694E+02  0.74470750000E+01 0.  1.
        -31    1    1    2    0    0 -0.28087163498E-01 -0.19586561796E+00  0.56293111240E+02  0.56783910145E+02  0.74470750000E+01 0. -1.
<mgrwt>
<rscale>  0 0.14917410E+02</rscale>
<asrwt>0</asrwt>
<pdfrwt beam="2">  1        2 0.99357855E+00 0.14917410E+02</pdfrwt>
<pdfrwt beam="1">  1       -2 0.98716340E+00 0.14917410E+02</pdfrwt>
<totfact> 0.25937359E-13</totfact>
</mgrwt>
</event>
<event>
 4    1 -0.4996155E-019  0.1497621E+02  0.7818608E-02  0.1868795E+00
          2   -1    0    0  501    0  0.00000000000E+00  0.00000000000E+00  0.11952260650E+03  0.11952260653E+03  0.25500000000E-02 0. -1.
         -2   -1    0    0    0  501 -0.00000000000E+00 -0.00000000000E+00 -0.46912735620E+00  0.46913428657E+00  0.25500000000E-02 0.  1.
         31    1    1    2    0    0 -0.46359604670E+00  0.59210505388E+00  0.57784099143E+02  0.58266856355E+02  0.74470750000E+01 0.  1.
        -31    1    1    2    0    0  0.46359604670E+00 -0.59210505388E+00  0.61269379999E+02  0.61724884457E+02  0.74470750000E+01 0. -1.
<mgrwt>
<rscale>  0 0.14976213E+02</rscale>
<asrwt>0</asrwt>
<pdfrwt beam="1">  1        2 0.99217567E+00 0.14976213E+02</pdfrwt>
<pdfrwt beam="2">  1       -2 0.99636818E+00 0.14976213E+02</pdfrwt>
<totfact>-0.13395580E-13</totfact>
</mgrwt>
</event>
<event>
 4    1 -0.4996155E-019  0.1493645E+02  0.7818608E-02  0.1870014E+00
         -2   -1    0    0    0  501 -0.00000000000E+00  0.00000000000E+00  0.12002513939E+03  0.12002513942E+03  0.25500000000E-02 0.  1.
          2   -1    0    0  501    0  0.00000000000E+00 -0.00000000000E+00 -0.46468555000E+00  0.46469254662E+00  0.25500000000E-02 0. -1.
         31    1    1    2    0    0  0.44369666928E+00 -0.31322304109E+00  0.58626089184E+02  0.59099680494E+02  0.74470750000E+01 0.  1.
        -31    1    1    2    0    0 -0.44369666928E+00  0.31322304109E+00  0.60934364657E+02  0.61390151471E+02  0.74470750000E+01 0. -1.
<mgrwt>
<rscale>  0 0.14936448E+02</rscale>
<asrwt>0</asrwt>
<pdfrwt beam="2">  1        2 0.98698702E+00 0.14936448E+02</pdfrwt>
<pdfrwt beam="1">  1       -2 0.99629423E+00 0.14936448E+02</pdfrwt>
<totfact>-0.23181253E-13</totfact>
</mgrwt>
</event>
<event>
 4    1  0.4996155E-019  0.1490994E+02  0.7818608E-02  0.1870829E+00
         -2   -1    0    0    0  501 -0.00000000000E+00  0.00000000000E+00  0.11892512715E+03  0.11892512718E+03  0.25500000000E-02 0.  1.
          2   -1    0    0  501    0  0.00000000000E+00 -0.00000000000E+00 -0.46732081574E+00  0.46732777290E+00  0.25500000000E-02 0. -1.
         31    1    1    2    0    0 -0.29446353478E+00 -0.17246912139E+00  0.58948758013E+02  0.59418275401E+02  0.74470750000E+01 0.  1.
        -31    1    1    2    0    0  0.29446353478E+00  0.17246912139E+00  0.59509048320E+02  0.59974179547E+02  0.74470750000E+01 0. -1.
<mgrwt>
<rscale>  0 0.14909944E+02</rscale>
<asrwt>0</asrwt>
<pdfrwt beam="2">  1        2 0.99252689E+00 0.14909944E+02</pdfrwt>
<pdfrwt beam="1">  1       -2 0.98722035E+00 0.14909944E+02</pdfrwt>
<totfact> 0.27307831E-13</totfact>
</mgrwt>
</event>
<event>
 4    1 -0.4996155E-019  0.1497906E+02  0.7818608E-02  0.1868708E+00
         -2   -1    0    0    0  501 -0.00000000000E+00  0.00000000000E+00  0.11974377858E+03  0.11974377861E+03  0.25500000000E-02 0. -1.
          2   -1    0    0  501    0  0.00000000000E+00 -0.00000000000E+00 -0.46843890603E+00  0.46844584659E+00  0.25500000000E-02 0.  1.
         31    1    1    2    0    0  0.57446477998E+00  0.46807651982E+00  0.61977881800E+02  0.62428085537E+02  0.74470750000E+01 0.  1.
        -31    1    1    2    0    0 -0.57446477998E+00 -0.46807651982E+00  0.57297457874E+02  0.57784138916E+02  0.74470750000E+01 0. -1.
<mgrwt>
<rscale>  0 0.14979061E+02</rscale>
<asrwt>0</asrwt>
<pdfrwt beam="2">  1        2 0.99491890E+00 0.14979061E+02</pdfrwt>
<pdfrwt beam="1">  1       -2 0.99399878E+00 0.14979061E+02</pdfrwt>
<totfact>-0.11767697E-13</totfact>
</mgrwt>
</event>
<event>
 4    1 -0.4996155E-019  0.1493970E+02  0.7818608E-02  0.1869914E+00
         -2   -1    0    0    0  501 -0.00000000000E+00  0.00000000000E+00  0.12039228328E+03  0.12039228330E+03  0.25500000000E-02 0. -1.
          2   -1    0    0  501    0  0.00000000000E+00 -0.00000000000E+00 -0.46346995263E+00  0.46347696760E+00  0.25500000000E-02 0.  1.
         31    1    1    2    0    0  0.43740818929E+00 -0.37589020276E+00  0.60645370663E+02  0.61103621237E+02  0.74470750000E+01 0.  1.
        -31    1    1    2    0    0 -0.43740818929E+00  0.37589020276E+00  0.59283442660E+02  0.59752139034E+02  0.74470750000E+01 0. -1.
<mgrwt>
<rscale>  0 0.14939696E+02</rscale>
<asrwt>0</asrwt>
<pdfrwt beam="2">  1        2 0.98442662E+00 0.14939696E+02</pdfrwt>
<pdfrwt beam="1">  1       -2 0.99931998E+00 0.14939696E+02</pdfrwt>
<totfact>-0.86479000E-14</totfact>
</mgrwt>
</event>
<event>
 4    1 -0.4996155E-019  0.1492018E+02  0.7818608E-02  0.1870514E+00
          2   -1    0    0  501    0  0.00000000000E+00  0.00000000000E+00  0.11880441334E+03  0.11880441337E+03  0.25500000000E-02 0. -1.
         -2   -1    0    0    0  501 -0.00000000000E+00 -0.00000000000E+00 -0.46843816675E+00  0.46844510731E+00  0.25500000000E-02 0.  1.
         31    1    1    2    0    0 -0.15066923434E+00  0.28785184177E+00  0.56790493812E+02  0.57277610577E+02  0.74470750000E+01 0.  1.
        -31    1    1    2    0    0  0.15066923434E+00 -0.28785184177E+00  0.61545481365E+02  0.61995247902E+02  0.74470750000E+01 0. -1.
<mgrwt>
<rscale>  0 0.14920179E+02</rscale>
<asrwt>0</asrwt>
<pdfrwt beam="1">  1        2 0.98623144E+00 0.14920179E+02</pdfrwt>
<pdfrwt beam="2">  1       -2 0.99488669E+00 0.14920179E+02</pdfrwt>
<totfact>-0.28659379E-13</totfact>
</mgrwt>
</event>
<event>
 4    1 -0.4996155E-019  0.1501026E+02  0.7818608E-02  0.1867755E+00
         -2   -1    0    0    0  501 -0.00000000000E+00  0.00000000000E+00  0.11971655927E+03  0.11971655930E+03  0.25500000000E-02 0. -1.
          2   -1    0    0  501    0  0.00000000000E+00 -0.00000000000E+00 -0.47049957735E+00  0.47050648751E+00  0.25500000000E-02 0.  1.
         31    1    1    2    0    0 -0.52572979120E+00  0.55830655993E+00  0.63859805772E+02  0.64297136930E+02  0.74470750000E+01 0. -1.
        -31    1    1    2    0    0  0.52572979120E+00 -0.55830655993E+00  0.55386253924E+02  0.55889928858E+02  0.74470750000E+01 0.  1.
<mgrwt>
<rscale>  0 0.15010264E+02</rscale>
<asrwt>0</asrwt>
<pdfrwt beam="2">  1        2 0.99927749E+00 0.15010264E+02</pdfrwt>
<pdfrwt beam="1">  1       -2 0.99379075E+00 0.15010264E+02</pdfrwt>
<totfact>-0.26244124E-14</totfact>
</mgrwt>
</event>
<event>
 4    1  0.4996155E-019  0.1495510E+02  0.7818608E-02  0.1869442E+00
          2   -1    0    0  501    0  0.00000000000E+00  0.00000000000E+00  0.12017556085E+03  0.12017556088E+03  0.25500000000E-02 0. -1.
         -2   -1    0    0    0  501 -0.00000000000E+00 -0.00000000000E+00 -0.46526362955E+00  0.46527061747E+00  0.25500000000E-02 0.  1.
         31    1    1    2    0    0  0.29861529874E+00  0.39066472657E+00  0.56131917257E+02  0.56625902651E+02  0.74470750000E+01 0.  1.
        -31    1    1    2    0    0 -0.29861529874E+00 -0.39066472657E+00  0.63578379965E+02  0.64014928846E+02  0.74470750000E+01 0.  1.
<mgrwt>
<rscale>  0 0.14955098E+02</rscale>
<asrwt>0</asrwt>
<pdfrwt beam="1">  1        2 0.99754280E+00 0.14955098E+02</pdfrwt>
<pdfrwt beam="2">  1       -2 0.98821487E+00 0.14955098E+02</pdfrwt>
<totfact> 0.85393723E-14</totfact>
</mgrwt>
</event>
<event>
 4    1 -0.4996155E-019  0.1501475E+02  0.7818608E-02  0.1867619E+00
         -2   -1    0    0    0  501 -0.00000000000E+00  0.00000000000E+00  0.11998936809E+03  0.11998936812E+03  0.25500000000E-02 0.  1.
          2   -1    0    0  501    0  0.00000000000E+00 -0.00000000000E+00 -0.46971062410E+00  0.46971754587E+00  0.25500000000E-02 0. -1.
         31    1    1    2    0    0 -0.33460014442E+00 -0.23389937049E+00  0.52881281262E+02  0.53404639313E+02  0.74470750000E+01 0. -1.
        -31    1    1    2    0    0  0.33460014442E+00  0.23389937049E+00  0.66638376208E+02  0.67054446355E+02  0.74470750000E+01 0.  1.
<mgrwt>
<rscale>  0 0.15014753E+02</rscale>
<asrwt>0</asrwt>
<pdfrwt beam="2">  1        2 0.99761729E+00 0.15014753E+02</pdfrwt>
<pdfrwt beam="1">  1       -2 0.99604000E+00 0.15014753E+02</pdfrwt>
<totfact>-0.69910288E-14</totfact>
</mgrwt>
</event>
<event>
 4    1  0.4996155E-019  0.1490489E+02  0.7818608E-02  0.1870985E+00
         -2   -1    0    0    0  501 -0.00000000000E+00  0.00000000000E+00  0.11822381073E+03  0.11822381076E+03  0.25500000000E-02 0. -1.
          2   -1    0    0  501    0  0.00000000000E+00 -0.00000000000E+00 -0.46977448570E+00  0.46978140652E+00  0.25500000000E-02 0.  1.
         31    1    1    2    0    0 -0.28093433736E+00  0.32688362582E-01  0.58838366275E+02  0.59308450196E+02  0.74470750000E+01 0.  1.
        -31    1    1    2    0    0  0.28093433736E+00 -0.32688362582E-01  0.58915669971E+02  0.59385141971E+02  0.74470750000E+01 0.  1.
<mgrwt>
<rscale>  0 0.14904891E+02</rscale>
<asrwt>0</asrwt>
<pdfrwt beam="2">  1        2 0.99769429E+00 0.14904891E+02</pdfrwt>
<pdfrwt beam="1">  1       -2 0.98144167E+00 0.14904891E+02</pdfrwt>
<totfact> 0.66954769E-13</totfact>
</mgrwt>
</event>
<event>
 4    1  0.4996155E-019  0.1490598E+02  0.7818608E-02  0.1870951E+00
         -2   -1    0    0    0  501 -0.00000000000E+00  0.00000000000E+00  0.11845546217E+03  0.11845546219E+03  0.25500000000E-02 0.  1.
          2   -1    0    0  501    0  0.00000000000E+00 -0.00000000000E+00 -0.46892434622E+00  0.46893127959E+00  0.25500000000E-02 0. -1.
         31    1    1    2    0    0  0.29592915836E+00 -0.21001361921E-01  0.59081709063E+02  0.59549939437E+02  0.74470750000E+01 0. -1.
        -31    1    1    2    0    0 -0.29592915836E+00  0.21001361921E-01  0.58904828758E+02  0.59374454037E+02  0.74470750000E+01 0.  1.
<mgrwt>
<rscale>  0 0.14905981E+02</rscale>
<asrwt>0</asrwt>
<pdfrwt beam="2">  1        2 0.99590364E+00 0.14905981E+02</pdfrwt>
<pdfrwt beam="1">  1       -2 0.98335009E+00 0.14905981E+02</pdfrwt>
<totfact> 0.66051186E-13</totfact>
</mgrwt>
</event>
<event>
 4    1  0.4996155E-019  0.1493110E+02  0.7818608E-02  0.1870178E+00
          2   -1    0    0  501    0  0.00000000000E+00  0.00000000000E+00  0.11973071879E+03  0.11973071881E+03  0.25500000000E-02 0. -1.
         -2   -1    0    0    0  501 -0.00000000000E+00 -0.00000000000E+00 -0.46549460775E+00  0.46550159220E+00  0.25500000000E-02 0.  1.
         31    1    1    2    0    0  0.13567851145E+00 -0.42157527261E-01  0.55565034485E+02  0.56062038576E+02  0.74470750000E+01 0.  1.
        -31    1    1    2    0    0 -0.13567851145E+00  0.42157527261E-01  0.63700189693E+02  0.64134181829E+02  0.74470750000E+01 0. -1.
<mgrwt>
<rscale>  0 0.14931098E+02</rscale>
<asrwt>0</asrwt>
<pdfrwt beam="1">  1        2 0.99386645E+00 0.14931098E+02</pdfrwt>
<pdfrwt beam="2">  1       -2 0.98868939E+00 0.14931098E+02</pdfrwt>
<totfact> 0.10548626E-13</totfact>
</mgrwt>
</event>
<event>
 4    1  0.4996155E-019  0.1490619E+02  0.7818608E-02  0.1870945E+00
          2   -1    0    0  501    0  0.00000000000E+00  0.00000000000E+00  0.11970526628E+03  0.11970526631E+03  0.25500000000E-02 0.  1.
         -2   -1    0    0    0  501 -0.00000000000E+00 -0.00000000000E+00 -0.46404143476E+00  0.46404844108E+00  0.25500000000E-02 0. -1.
         31    1    1    2    0    0  0.21277026763E+00 -0.55959244173E-01  0.57982331054E+02  0.58459028757E+02  0.74470750000E+01 0. -1.
        -31    1    1    2    0    0 -0.21277026763E+00  0.55959244173E-01  0.61258893795E+02  0.61710285996E+02  0.74470750000E+01 0.  1.
<mgrwt>
<rscale>  0 0.14906190E+02</rscale>
<asrwt>0</asrwt>
<pdfrwt beam="1">  1        2 0.99364397E+00 0.14906190E+02</pdfrwt>
<pdfrwt beam="2">  1       -2 0.98561407E+00 0.14906190E+02</pdfrwt>
<totfact> 0.45490741E-13</totfact>
</mgrwt>
</event>
<event>
 4    1 -0.4996155E-019  0.1490974E+02  0.7818608E-02  0.1870835E+00
         -2   -1    0    0    0  501 -0.00000000000E+00  0.00000000000E+00  0.11992525025E+03  0.11992525028E+03  0.25500000000E-02 0.  1.
          2   -1    0    0  501    0  0.00000000000E+00 -0.00000000000E+00 -0.46341060111E+00  0.46341761697E+00  0.25500000000E-02 0. -1.
         31    1    1    2    0    0  0.13486931718E+00 -0.17647742849E+00  0.57644068628E+02  0.58123548653E+02  0.74470750000E+01 0. -1.
        -31    1    1    2    0    0 -0.13486931718E+00  0.17647742849E+00  0.61817771024E+02  0.62265119244E+02  0.74470750000E+01 0.  1.
<mgrwt>
<rscale>  0 0.14909736E+02</rscale>
<asrwt>0</asrwt>
<pdfrwt beam="2">  1        2 0.98428634E+00 0.14909736E+02</pdfrwt>
<pdfrwt beam="1">  1       -2 0.99545774E+00 0.14909736E+02</pdfrwt>
<totfact>-0.38309169E-13</totfact>
</mgrwt>
</event>
<event>
 4    1 -0.4996155E-019  0.1499880E+02  0.7818608E-02  0.1868105E+00
         -2   -1    0    0    0  501 -0.00000000000E+00  0.00000000000E+00  0.12026711529E+03  0.12026711532E+03  0.25500000000E-02 0. -1.
          2   -1    0    0  501    0  0.00000000000E+00 -0.00000000000E+00 -0.46763061326E+00  0.46763756581E+00  0.25500000000E-02 0.  1.
         31    1    1    2    0    0 -0.73989837359E+00  0.10160149424E+00  0.63712136961E+02  0.64150238462E+02  0.74470750000E+01 0. -1.
        -31    1    1    2    0    0  0.73989837359E+00 -0.10160149424E+00  0.56087347717E+02  0.56584514423E+02  0.74470750000E+01 0.  1.
<mgrwt>
<rscale>  0 0.14998801E+02</rscale>
<asrwt>0</asrwt>
<pdfrwt beam="2">  1        2 0.99322568E+00 0.14998801E+02</pdfrwt>
<pdfrwt beam="1">  1       -2 0.99831941E+00 0.14998801E+02</pdfrwt>
<totfact>-0.71367359E-14</totfact>
</mgrwt>
</event>
<event>
 4    1  0.4996155E-019  0.1493766E+02  0.7818608E-02  0.1869977E+00
          2   -1    0    0  501    0  0.00000000000E+00  0.00000000000E+00  0.12001832915E+03  0.12001832917E+03  0.25500000000E-02 0.  1.
         -2   -1    0    0    0  501 -0.00000000000E+00 -0.00000000000E+00 -0.46478707677E+00  0.46479407186E+00  0.25500000000E-02 0. -1.
         31    1    1    2    0    0  0.13779315192E+00 -0.30444778149E+00  0.63497425170E+02  0.63933509247E+02  0.74470750000E+01 0.  1.
        -31    1    1    2    0    0 -0.13779315192E+00  0.30444778149E+00  0.56056116901E+02  0.56549613999E+02  0.74470750000E+01 0. -1.
<mgrwt>
<rscale>  0 0.14937656E+02</rscale>
<asrwt>0</asrwt>
<pdfrwt beam="1">  1        2 0.99623876E+00 0.14937656E+02</pdfrwt>
<pdfrwt beam="2">  1       -2 0.98720161E+00 0.14937656E+02</pdfrwt>
<totfact> 0.19230534E-13</totfact>
</mgrwt>
</event>
<event>
 4    1 -0.4996155E-019  0.1504114E+02  0.7818608E-02  0.1866816E+00
         -2   -1    0    0    0  501 -0.00000000000E+00  0.00000000000E+00  0.12018588253E+03  0.12018588256E+03  0.25500000000E-02 0.  1.
          2   -1    0    0  501    0  0.00000000000E+00 -0.00000000000E+00 -0.47059262331E+00  0.47059953210E+00  0.25500000000E-02 0. -1.
         31    1    1    2    0    0 -0.13460615612E+00 -0.46739299146E+00  0.67311873856E+02  0.67724322537E+02  0.74470750000E+01 0.  1.
        -31    1    1    2    0    0  0.13460615612E+00  0.46739299146E+00  0.52403416054E+02  0.52932159555E+02  0.74470750000E+01 0. -1.
<mgrwt>
<rscale>  0 0.15041145E+02</rscale>
<asrwt>0</asrwt>
<pdfrwt beam="2">  1        2 0.99948961E+00 0.15041145E+02</pdfrwt>
<pdfrwt beam="1">  1       -2 0.99767221E+00 0.15041145E+02</pdfrwt>
<totfact>-0.13196013E-14</totfact>
</mgrwt>
</event>
<event>
 4    1 -0.4996155E-019  0.1494990E+02  0.7818608E-02  0.1869601E+00
          2   -1    0    0  501    0  0.00000000000E+00  0.00000000000E+00  0.11963983969E+03  0.11963983972E+03  0.25500000000E-02 0.  1.
         -2   -1    0    0    0  501 -0.00000000000E+00 -0.00000000000E+00 -0.46702223558E+00  0.46702919719E+00  0.25500000000E-02 0. -1.
         31    1    1    2    0    0 -0.52878147969E+00  0.33695720552E+00  0.58373067503E+02  0.58849529189E+02  0.74470750000E+01 0.  1.
        -31    1    1    2    0    0  0.52878147969E+00 -0.33695720552E+00  0.60799749956E+02  0.61257339729E+02  0.74470750000E+01 0.  1.
<mgrwt>
<rscale>  0 0.14949901E+02</rscale>
<asrwt>0</asrwt>
<pdfrwt beam="1">  1        2 0.99312763E+00 0.14949901E+02</pdfrwt>
<pdfrwt beam="2">  1       -2 0.99191842E+00 0.14949901E+02</pdfrwt>
<totfact>-0.89193870E-14</totfact>
</mgrwt>
</event>
<event>
 4    1  0.4996155E-019  0.1491611E+02  0.7818608E-02  0.1870639E+00
         -2   -1    0    0    0  501 -0.00000000000E+00  0.00000000000E+00  0.11884823685E+03  0.11884823687E+03  0.25500000000E-02 0. -1.
          2   -1    0    0  501    0  0.00000000000E+00 -0.00000000000E+00 -0.46801013828E+00  0.46801708520E+00  0.25500000000E-02 0.  1.
         31    1    1    2    0    0 -0.35981329583E+00  0.17437148745E+00  0.59683133402E+02  0.60147279321E+02  0.74470750000E+01 0.  1.
        -31    1    1    2    0    0  0.35981329583E+00 -0.17437148745E+00  0.58697093307E+02  0.59168974638E+02  0.74470750000E+01 0.  1.
<mgrwt>
<rscale>  0 0.14916112E+02</rscale>
<asrwt>0</asrwt>
<pdfrwt beam="2">  1        2 0.99398264E+00 0.14916112E+02</pdfrwt>
<pdfrwt beam="1">  1       -2 0.98659027E+00 0.14916112E+02</pdfrwt>
<totfact> 0.31704333E-13</totfact>
</mgrwt>
</event>
<event>
 4    1  0.4996155E-019  0.1493213E+02  0.7818608E-02  0.1870147E+00
          2   -1    0    0  501    0  0.00000000000E+00  0.00000000000E+00  0.12018936087E+03  0.12018936090E+03  0.25500000000E-02 0.  1.
         -2   -1    0    0    0  501 -0.00000000000E+00 -0.00000000000E+00 -0.46378246746E+00  0.46378947770E+00  0.25500000000E-02 0. -1.
         31    1    1    2    0    0  0.15443919122E+00 -0.21305074043E+00  0.63600434639E+02  0.64035485900E+02  0.74470750000E+01 0.  1.
        -31    1    1    2    0    0 -0.15443919122E+00  0.21305074043E+00  0.56125143766E+02  0.56617664478E+02  0.74470750000E+01 0. -1.
<mgrwt>
<rscale>  0 0.14932132E+02</rscale>
<asrwt>0</asrwt>
<pdfrwt beam="1">  1        2 0.99764466E+00 0.14932132E+02</pdfrwt>
<pdfrwt beam="2">  1       -2 0.98508147E+00 0.14932132E+02</pdfrwt>
<totfact> 0.29462402E-13</totfact>
</mgrwt>
</event>
<event>
 4    1  0.4996155E-019  0.1493330E+02  0.7818608E-02  0.1870111E+00
         -2   -1    0    0    0  501 -0.00000000000E+00  0.00000000000E+00  0.11876623014E+03  0.11876623016E+03  0.25500000000E-02 0. -1.
          2   -1    0    0  501    0  0.00000000000E+00 -0.00000000000E+00 -0.46941302285E+00  0.46941994900E+00  0.25500000000E-02 0.  1.
         31    1    1    2    0    0  0.66114552332E-01  0.32643236522E+00  0.62545122742E+02  0.62987794326E+02  0.74470750000E+01 0. -1.
        -31    1    1    2    0    0 -0.66114552332E-01 -0.32643236522E+00  0.55751694371E+02  0.56247855786E+02  0.74470750000E+01 0.  1.
<mgrwt>
<rscale>  0 0.14933296E+02</rscale>
<asrwt>0</asrwt>
<pdfrwt beam="2">  1        2 0.99694768E+00 0.14933296E+02</pdfrwt>
<pdfrwt beam="1">  1       -2 0.98592378E+00 0.14933296E+02</pdfrwt>
<totfact> 0.27320498E-13</totfact>
</mgrwt>
</event>
<event>
 4    1  0.4996155E-019  0.1490859E+02  0.7818608E-02  0.1870871E+00
         -2   -1    0    0    0  501 -0.00000000000E+00  0.00000000000E+00  0.11828680751E+03  0.11828680754E+03  0.25500000000E-02 0. -1.
          2   -1    0    0  501    0  0.00000000000E+00 -0.00000000000E+00 -0.46975751373E+00  0.46976443481E+00  0.25500000000E-02 0.  1.
         31    1    1    2    0    0  0.30721802762E+00 -0.11208266258E+00  0.58704240425E+02  0.59175617575E+02  0.74470750000E+01 0. -1.
        -31    1    1    2    0    0 -0.30721802762E+00  0.11208266258E+00  0.59112809572E+02  0.59580954398E+02  0.74470750000E+01 0.  1.
<mgrwt>
<rscale>  0 0.14908592E+02</rscale>
<asrwt>0</asrwt>
<pdfrwt beam="2">  1        2 0.99766049E+00 0.14908592E+02</pdfrwt>
<pdfrwt beam="1">  1       -2 0.98196243E+00 0.14908592E+02</pdfrwt>
<totfact> 0.61190624E-13</totfact>
</mgrwt>
</event>
<event>
 4    1 -0.4996155E-019  0.1490097E+02  0.7818608E-02  0.1871106E+00
          2   -1    0    0  501    0  0.00000000000E+00  0.00000000000E+00  0.11843780588E+03  0.11843780591E+03  0.25500000000E-02 0.  1.
         -2   -1    0    0    0  501 -0.00000000000E+00 -0.00000000000E+00 -0.46867899383E+00  0.46868593083E+00  0.25500000000E-02 0. -1.
         31    1    1    2    0    0  0.20763900261E+00  0.87643101482E-01  0.58967775611E+02  0.59436590429E+02  0.74470750000E+01 0. -1.
        -31    1    1    2    0    0 -0.20763900261E+00 -0.87643101482E-01  0.59001351274E+02  0.59469901408E+02  0.74470750000E+01 0. -1.
<mgrwt>
<rscale>  0 0.14900970E+02</rscale>
<asrwt>0</asrwt>
<pdfrwt beam="1">  1        2 0.98320207E+00 0.14900970E+02</pdfrwt>
<pdfrwt beam="2">  1       -2 0.99538404E+00 0.14900970E+02</pdfrwt>
<totfact>-0.46133145E-13</totfact>
</mgrwt>
</event>
<event>
 4    1  0.4996155E-019  0.1493341E+02  0.7818608E-02  0.1870107E+00
          2   -1    0    0  501    0  0.00000000000E+00  0.00000000000E+00  0.12038275609E+03  0.12038275612E+03  0.25500000000E-02 0. -1.
         -2   -1    0    0    0  501 -0.00000000000E+00 -0.00000000000E+00 -0.46311657466E+00  0.46312359498E+00  0.25500000000E-02 0.  1.
         31    1    1    2    0    0  0.88499336232E-01 -0.52719329330E+00  0.59283517402E+02  0.59751821115E+02  0.74470750000E+01 0.  1.
        -31    1    1    2    0    0 -0.88499336232E-01  0.52719329330E+00  0.60636122111E+02  0.61094058596E+02  0.74470750000E+01 0. -1.
<mgrwt>
<rscale>  0 0.14933409E+02</rscale>
<asrwt>0</asrwt>
<pdfrwt beam="1">  1        2 0.99923828E+00 0.14933409E+02</pdfrwt>
<pdfrwt beam="2">  1       -2 0.98367862E+00 0.14933409E+02</pdfrwt>
<totfact> 0.16366770E-13</totfact>
</mgrwt>
</event>
<event>
 4    1  0.4996155E-019  0.1489963E+02  0.7818608E-02  0.1871147E+00
         -2   -1    0    0    0  501 -0.00000000000E+00  0.00000000000E+00  0.11859652638E+03  0.11859652641E+03  0.25500000000E-02 0. -1.
          2   -1    0    0  501    0  0.00000000000E+00 -0.00000000000E+00 -0.46796742270E+00  0.46797437025E+00  0.25500000000E-02 0.  1.
         31    1    1    2    0    0 -0.20004106982E+00  0.27846202234E-01  0.59041491926E+02  0.59509641964E+02  0.74470750000E+01 0. -1.
        -31    1    1    2    0    0  0.20004106982E+00 -0.27846202234E-01  0.59087067035E+02  0.59554858817E+02  0.74470750000E+01 0. -1.
<mgrwt>
<rscale>  0 0.14899628E+02</rscale>
<asrwt>0</asrwt>
<pdfrwt beam="2">  1        2 0.99388400E+00 0.14899628E+02</pdfrwt>
<pdfrwt beam="1">  1       -2 0.98450860E+00 0.14899628E+02</pdfrwt>
<totfact> 0.61267726E-13</totfact>
</mgrwt>
</event>
<event>
 4    1 -0.4996155E-019  0.1493403E+02  0.7818608E-02  0.1870088E+00
         -2   -1    0    0    0  501 -0.00000000000E+00  0.00000000000E+00  0.11971009472E+03  0.11971009475E+03  0.25500000000E-02 0. -1.
          2   -1    0    0  501    0  0.00000000000E+00 -0.00000000000E+00 -0.46575788322E+00  0.46576486373E+00  0.25500000000E-02 0.  1.
         31    1    1    2    0    0  0.46501417144E+00 -0.18859017629E+00  0.57903569827E+02  0.58382652640E+02  0.74470750000E+01 0.  1.
        -31    1    1    2    0    0 -0.46501417144E+00  0.18859017629E+00  0.61340767013E+02  0.61793206975E+02  0.74470750000E+01 0. -1.
<mgrwt>
<rscale>  0 0.14934034E+02</rscale>
<asrwt>0</asrwt>
<pdfrwt beam="2">  1        2 0.98924574E+00 0.14934034E+02</pdfrwt>
<pdfrwt beam="1">  1       -2 0.99369809E+00 0.14934034E+02</pdfrwt>
<totfact>-0.18407521E-13</totfact>
</mgrwt>
</event>
<event>
 4    1  0.4996155E-019  0.1491033E+02  0.7818608E-02  0.1870817E+00
          2   -1    0    0  501    0  0.00000000000E+00  0.00000000000E+00  0.12031051735E+03  0.12031051737E+03  0.25500000000E-02 0. -1.
         -2   -1    0    0    0  501 -0.00000000000E+00 -0.00000000000E+00 -0.46196353037E+00  0.46197056821E+00  0.25500000000E-02 0.  1.
         31    1    1    2    0    0 -0.67599879809E-02  0.29709468974E+00  0.58469423384E+02  0.58942520373E+02  0.74470750000E+01 0.  1.
        -31    1    1    2    0    0  0.67599879809E-02 -0.29709468974E+00  0.61379130433E+02  0.61829967570E+02  0.74470750000E+01 0.  1.
<mgrwt>
<rscale>  0 0.14910332E+02</rscale>
<asrwt>0</asrwt>
<pdfrwt beam="1">  1        2 0.99863143E+00 0.14910332E+02</pdfrwt>
<pdfrwt beam="2">  1       -2 0.98123666E+00 0.14910332E+02</pdfrwt>
<totfact> 0.45812478E-13</totfact>
</mgrwt>
</event>
<event>
 4    1  0.4996155E-019  0.1495369E+02  0.7818608E-02  0.1869485E+00
         -2   -1    0    0    0  501 -0.00000000000E+00  0.00000000000E+00  0.11903409596E+03  0.11903409599E+03  0.25500000000E-02 0.  1.
          2   -1    0    0  501    0  0.00000000000E+00 -0.00000000000E+00 -0.46963703420E+00  0.46964395705E+00  0.25500000000E-02 0. -1.
         31    1    1    2    0    0 -0.18348201419E+00  0.40501570981E+00  0.55313654903E+02  0.55814487798E+02  0.74470750000E+01 0. -1.
        -31    1    1    2    0    0  0.18348201419E+00 -0.40501570981E+00  0.63250804028E+02  0.63689252152E+02  0.74470750000E+01 0.  1.
<mgrwt>
<rscale>  0 0.14953693E+02</rscale>
<asrwt>0</asrwt>
<pdfrwt beam="2">  1        2 0.99743040E+00 0.14953693E+02</pdfrwt>
<pdfrwt beam="1">  1       -2 0.98814053E+00 0.14953693E+02</pdfrwt>
<totfact> 0.92330337E-14</totfact>
</mgrwt>
</event>
<event>
 4    1  0.4996155E-019  0.1490478E+02  0.7818608E-02  0.1870988E+00
         -2   -1    0    0    0  501 -0.00000000000E+00  0.00000000000E+00  0.11836839274E+03  0.11836839276E+03  0.25500000000E-02 0. -1.
          2   -1    0    0  501    0  0.00000000000E+00 -0.00000000000E+00 -0.46919361037E+00  0.46920053976E+00  0.25500000000E-02 0.  1.
         31    1    1    2    0    0 -0.24329946671E+00  0.94746410626E-01  0.59786182463E+02  0.60248773523E+02  0.74470750000E+01 0. -1.
        -31    1    1    2    0    0  0.24329946671E+00 -0.94746410626E-01  0.58113016663E+02  0.58588819780E+02  0.74470750000E+01 0. -1.
<mgrwt>
<rscale>  0 0.14904779E+02</rscale>
<asrwt>0</asrwt>
<pdfrwt beam="2">  1        2 0.99647035E+00 0.14904779E+02</pdfrwt>
<pdfrwt beam="1">  1       -2 0.98263237E+00 0.14904779E+02</pdfrwt>
<totfact> 0.70726020E-13</totfact>
</mgrwt>
</event>
<event>
 4    1  0.4996155E-019  0.1491252E+02  0.7818608E-02  0.1870750E+00
          2   -1    0    0  501    0  0.00000000000E+00  0.00000000000E+00  0.12036307097E+03  0.12036307099E+03  0.25500000000E-02 0.  1.
         -2   -1    0    0    0  501 -0.00000000000E+00 -0.00000000000E+00 -0.46189721421E+00  0.46190425306E+00  0.25500000000E-02 0. -1.
         31    1    1    2    0    0 -0.70079832749E-01  0.12290727830E+00  0.62720213519E+02  0.63160938303E+02  0.74470750000E+01 0.  1.
        -31    1    1    2    0    0  0.70079832749E-01 -0.12290727830E+00  0.57180960234E+02  0.57664036945E+02  0.74470750000E+01 0. -1.
<mgrwt>
<rscale>  0 0.14912517E+02</rscale>
<asrwt>0</asrwt>
<pdfrwt beam="1">  1        2 0.99906543E+00 0.14912517E+02</pdfrwt>
<pdfrwt beam="2">  1       -2 0.98109798E+00 0.14912517E+02</pdfrwt>
<totfact> 0.33678916E-13</totfact>
</mgrwt>
</event>
<event>
 4    1 -0.4996155E-019  0.1496084E+02  0.7818608E-02  0.1869266E+00
          2   -1    0    0  501    0  0.00000000000E+00  0.00000000000E+00  0.11949243209E+03  0.11949243212E+03  0.25500000000E-02 0.  1.
         -2   -1    0    0    0  501 -0.00000000000E+00 -0.00000000000E+00 -0.46828313945E+00  0.46829008231E+00  0.25500000000E-02 0. -1.
         31    1    1    2    0    0  0.38722479904E+00 -0.50953750635E+00  0.57130598636E+02  0.57617478234E+02  0.74470750000E+01 0. -1.
        -31    1    1    2    0    0 -0.38722479904E+00  0.50953750635E+00  0.61893550316E+02  0.62343243967E+02  0.74470750000E+01 0.  1.
<mgrwt>
<rscale>  0 0.14960843E+02</rscale>
<asrwt>0</asrwt>
<pdfrwt beam="1">  1        2 0.99191918E+00 0.14960843E+02</pdfrwt>
<pdfrwt beam="2">  1       -2 0.99458121E+00 0.14960843E+02</pdfrwt>
<totfact>-0.15246982E-13</totfact>
</mgrwt>
</event>
<event>
 4    1 -0.4996155E-019  0.1491700E+02  0.7818608E-02  0.1870612E+00
          2   -1    0    0  501    0  0.00000000000E+00  0.00000000000E+00  0.11835612582E+03  0.11835612584E+03  0.25500000000E-02 0.  1.
         -2   -1    0    0    0  501 -0.00000000000E+00 -0.00000000000E+00 -0.47001219377E+00  0.47001911110E+00  0.25500000000E-02 0. -1.
         31    1    1    2    0    0  0.25440727828E+00 -0.19669387484E+00  0.56882735580E+02  0.57369050408E+02  0.74470750000E+01 0. -1.
        -31    1    1    2    0    0 -0.25440727828E+00  0.19669387484E+00  0.61003378042E+02  0.61457094547E+02  0.74470750000E+01 0.  1.
<mgrwt>
<rscale>  0 0.14917002E+02</rscale>
<asrwt>0</asrwt>
<pdfrwt beam="1">  1        2 0.98253770E+00 0.14917002E+02</pdfrwt>
<pdfrwt beam="2">  1       -2 0.99820154E+00 0.14917002E+02</pdfrwt>
<totfact>-0.28526959E-13</totfact>
</mgrwt>
</event>
<event>
 4    1 -0.4996155E-019  0.1492603E+02  0.7818608E-02  0.1870334E+00
          2   -1    0    0  501    0  0.00000000000E+00  0.00000000000E+00  0.11932472477E+03  0.11932472479E+03  0.25500000000E-02 0.  1.
         -2   -1    0    0    0  501 -0.00000000000E+00 -0.00000000000E+00 -0.46676145068E+00  0.46676841617E+00  0.25500000000E-02 0. -1.
         31    1    1    2    0    0  0.25412987761E+00  0.94735512707E-01  0.56177665378E+02  0.56669767691E+02  0.74470750000E+01 0. -1.
        -31    1    1    2    0    0 -0.25412987761E+00 -0.94735512707E-01  0.62680297937E+02  0.63121725518E+02  0.74470750000E+01 0.  1.
<mgrwt>
<rscale>  0 0.14926031E+02</rscale>
<asrwt>0</asrwt>
<pdfrwt beam="1">  1        2 0.99051988E+00 0.14926031E+02</pdfrwt>
<pdfrwt beam="2">  1       -2 0.99135652E+00 0.14926031E+02</pdfrwt>
<totfact>-0.80581109E-14</totfact>
</mgrwt>
</event>
<event>
 4    1  0.4996155E-019  0.1490438E+02  0.7818608E-02  0.1871000E+00
          2   -1    0    0  501    0  0.00000000000E+00  0.00000000000E+00  0.12004881550E+03  0.12004881552E+03  0.25500000000E-02 0. -1.
         -2   -1    0    0    0  501 -0.00000000000E+00 -0.00000000000E+00 -0.46260101979E+00  0.46260804793E+00  0.25500000000E-02 0.  1.
         31    1    1    2    0    0 -0.12745628344E+00  0.12463924043E+00  0.61497307667E+02  0.61946828461E+02  0.74470750000E+01 0. -1.
        -31    1    1    2    0    0  0.12745628344E+00 -0.12463924043E+00  0.58088906811E+02  0.58564595112E+02  0.74470750000E+01 0.  1.
<mgrwt>
<rscale>  0 0.14904379E+02</rscale>
<asrwt>0</asrwt>
<pdfrwt beam="1">  1        2 0.99647277E+00 0.14904379E+02</pdfrwt>
<pdfrwt beam="2">  1       -2 0.98257731E+00 0.14904379E+02</pdfrwt>
<totfact> 0.71521773E-13</totfact>
</mgrwt>
</event>
<event>
 4    1 -0.4996155E-019  0.1500283E+02  0.7818608E-02  0.1867982E+00
         -2   -1    0    0    0  501 -0.00000000000E+00  0.00000000000E+00  0.11973436640E+03  0.11973436643E+03  0.25500000000E-02 0. -1.
          2   -1    0    0  501    0  0.00000000000E+00 -0.00000000000E+00 -0.46996381022E+00  0.46997072825E+00  0.25500000000E-02 0.  1.
         31    1    1    2    0    0 -0.98931348477E-01 -0.47673855320E+00  0.53555432434E+02  0.54072916847E+02  0.74470750000E+01 0.  1.
        -31    1    1    2    0    0  0.98931348477E-01  0.47673855320E+00  0.65708970156E+02  0.66131420309E+02  0.74470750000E+01 0. -1.
<mgrwt>
<rscale>  0 0.15002831E+02</rscale>
<asrwt>0</asrwt>
<pdfrwt beam="2">  1        2 0.99814464E+00 0.15002831E+02</pdfrwt>
<pdfrwt beam="1">  1       -2 0.99393356E+00 0.15002831E+02</pdfrwt>
<totfact>-0.60134598E-14</totfact>
</mgrwt>
</event>
<event>
 4    1 -0.4996155E-019  0.1493210E+02  0.7818608E-02  0.1870148E+00
          2   -1    0    0  501    0  0.00000000000E+00  0.00000000000E+00  0.11900334300E+03  0.11900334303E+03  0.25500000000E-02 0.  1.
         -2   -1    0    0    0  501 -0.00000000000E+00 -0.00000000000E+00 -0.46840271784E+00  0.46840965893E+00  0.25500000000E-02 0. -1.
         31    1    1    2    0    0  0.30414664278E+00 -0.26452930106E+00  0.62044850000E+02  0.62491477967E+02  0.74470750000E+01 0.  1.
        -31    1    1    2    0    0 -0.30414664278E+00  0.26452930106E+00  0.56490090284E+02  0.56980274721E+02  0.74470750000E+01 0. -1.
<mgrwt>
<rscale>  0 0.14932100E+02</rscale>
<asrwt>0</asrwt>
<pdfrwt beam="1">  1        2 0.98787604E+00 0.14932100E+02</pdfrwt>
<pdfrwt beam="2">  1       -2 0.99481823E+00 0.14932100E+02</pdfrwt>
<totfact>-0.22733959E-13</totfact>
</mgrwt>
</event>
<event>
 4    1  0.4996155E-019  0.1493897E+02  0.7818608E-02  0.1869937E+00
         -2   -1    0    0    0  501 -0.00000000000E+00  0.00000000000E+00  0.11871457710E+03  0.11871457712E+03  0.25500000000E-02 0.  1.
          2   -1    0    0  501    0  0.00000000000E+00 -0.00000000000E+00 -0.46997401139E+00  0.46998092928E+00  0.25500000000E-02 0. -1.
         31    1    1    2    0    0  0.11551336721E+00 -0.50159892818E+00  0.57021938830E+02  0.57508480929E+02  0.74470750000E+01 0.  1.
        -31    1    1    2    0    0 -0.11551336721E+00  0.50159892818E+00  0.61222664255E+02  0.61676077123E+02  0.74470750000E+01 0. -1.
<mgrwt>
<rscale>  0 0.14938966E+02</rscale>
<asrwt>0</asrwt>
<pdfrwt beam="2">  1        2 0.99813269E+00 0.14938966E+02</pdfrwt>
<pdfrwt beam="1">  1       -2 0.98550132E+00 0.14938966E+02</pdfrwt>
<totfact> 0.21770524E-13</totfact>
</mgrwt>
</event>
<event>
 4    1 -0.4996155E-019  0.1491010E+02  0.7818608E-02  0.1870824E+00
          2   -1    0    0  501    0  0.00000000000E+00  0.00000000000E+00  0.11866578326E+03  0.11866578329E+03  0.25500000000E-02 0. -1.
         -2   -1    0    0    0  501 -0.00000000000E+00 -0.00000000000E+00 -0.46835221136E+00  0.46835915320E+00  0.25500000000E-02 0.  1.
         31    1    1    2    0    0 -0.22684985479E+00  0.18257068455E+00  0.57623709730E+02  0.58103662897E+02  0.74470750000E+01 0.  1.
        -31    1    1    2    0    0  0.22684985479E+00 -0.18257068455E+00  0.60573721317E+02  0.61030479542E+02  0.74470750000E+01 0. -1.
<mgrwt>
<rscale>  0 0.14910104E+02</rscale>
<asrwt>0</asrwt>
<pdfrwt beam="1">  1        2 0.98508444E+00 0.14910104E+02</pdfrwt>
<pdfrwt beam="2">  1       -2 0.99470029E+00 0.14910104E+02</pdfrwt>
<totfact>-0.34332822E-13</totfact>
</mgrwt>
</event>
<event>
 4    1 -0.4996155E-019  0.1493600E+02  0.7818608E-02  0.1870028E+00
          2   -1    0    0  501    0  0.00000000000E+00  0.00000000000E+00  0.11901251581E+03  0.11901251584E+03  0.25500000000E-02 0.  1.
         -2   -1    0    0    0  501 -0.00000000000E+00 -0.00000000000E+00 -0.46861148503E+00  0.46861842303E+00  0.25500000000E-02 0. -1.
         31    1    1    2    0    0 -0.15838241553E-02 -0.38512185362E+00  0.56034357177E+02  0.56528368380E+02  0.74470750000E+01 0. -1.
        -31    1    1    2    0    0  0.15838241553E-02  0.38512185362E+00  0.62509547147E+02  0.62952765879E+02  0.74470750000E+01 0.  1.
<mgrwt>
<rscale>  0 0.14936003E+02</rscale>
<asrwt>0</asrwt>
<pdfrwt beam="1">  1        2 0.98795361E+00 0.14936003E+02</pdfrwt>
<pdfrwt beam="2">  1       -2 0.99526017E+00 0.14936003E+02</pdfrwt>
<totfact>-0.22264903E-13</totfact>
</mgrwt>
</event>
<event>
 4    1  0.4996155E-019  0.1489873E+02  0.7818608E-02  0.1871174E+00
          2   -1    0    0  501    0  0.00000000000E+00  0.00000000000E+00  0.11965786316E+03  0.11965786319E+03  0.25500000000E-02 0.  1.
         -2   -1    0    0    0  501 -0.00000000000E+00 -0.00000000000E+00 -0.46376097312E+00  0.46376798369E+00  0.25500000000E-02 0. -1.
         31    1    1    2    0    0  0.17356906602E+00  0.54245336228E-01  0.59332712966E+02  0.59798518566E+02  0.74470750000E+01 0. -1.
        -31    1    1    2    0    0 -0.17356906602E+00 -0.54245336228E-01  0.59861389219E+02  0.60323112603E+02  0.74470750000E+01 0. -1.
<mgrwt>
<rscale>  0 0.14898734E+02</rscale>
<asrwt>0</asrwt>
<pdfrwt beam="1">  1        2 0.99324969E+00 0.14898734E+02</pdfrwt>
<pdfrwt beam="2">  1       -2 0.98501918E+00 0.14898734E+02</pdfrwt>
<totfact> 0.55916224E-13</totfact>
</mgrwt>
</event>
<event>
 4    1  0.4996155E-019  0.1493839E+02  0.7818608E-02  0.1869954E+00
          2   -1    0    0  501    0  0.00000000000E+00  0.00000000000E+00  0.12011207980E+03  0.12011207983E+03  0.25500000000E-02 0. -1.
         -2   -1    0    0    0  501 -0.00000000000E+00 -0.00000000000E+00 -0.46447014886E+00  0.46447714872E+00  0.25500000000E-02 0.  1.
         31    1    1    2    0    0  0.39022992999E+00  0.17699723912E+00  0.56735794672E+02  0.57224059018E+02  0.74470750000E+01 0.  1.
        -31    1    1    2    0    0 -0.39022992999E+00 -0.17699723912E+00  0.62911814983E+02  0.63352497961E+02  0.74470750000E+01 0. -1.
<mgrwt>
<rscale>  0 0.14938393E+02</rscale>
<asrwt>0</asrwt>
<pdfrwt beam="1">  1        2 0.99701134E+00 0.14938393E+02</pdfrwt>
<pdfrwt beam="2">  1       -2 0.98653403E+00 0.14938393E+02</pdfrwt>
<totfact> 0.21747595E-13</totfact>
</mgrwt>
</event>
<event>
 4    1 -0.4996155E-019  0.1499335E+02  0.7818608E-02  0.1868271E+00
          2   -1    0    0  501    0  0.00000000000E+00  0.00000000000E+00  0.11979937941E+03  0.11979937944E+03  0.25500000000E-02 0. -1.
         -2   -1    0    0    0  501 -0.00000000000E+00 -0.00000000000E+00 -0.46911554071E+00  0.46912247125E+00  0.25500000000E-02 0.  1.
         31    1    1    2    0    0  0.48160419803E+00 -0.44082456180E+00  0.64166976659E+02  0.64600975910E+02  0.74470750000E+01 0. -1.
        -31    1    1    2    0    0 -0.48160419803E+00  0.44082456180E+00  0.55163287215E+02  0.55667526003E+02  0.74470750000E+01 0. -1.
<mgrwt>
<rscale>  0 0.14993354E+02</rscale>
<asrwt>0</asrwt>
<pdfrwt beam="1">  1        2 0.99446412E+00 0.14993354E+02</pdfrwt>
<pdfrwt beam="2">  1       -2 0.99635219E+00 0.14993354E+02</pdfrwt>
<totfact>-0.11282577E-13</totfact>
</mgrwt>
</event>
<event>
 4    1 -0.4996155E-019  0.1495908E+02  0.7818608E-02  0.1869320E+00
          2   -1    0    0  501    0  0.00000000000E+00  0.00000000000E+00  0.11953616218E+03  0.11953616220E+03  0.25500000000E-02 0.  1.
         -2   -1    0    0    0  501 -0.00000000000E+00 -0.00000000000E+00 -0.46800156993E+00  0.46800851697E+00  0.25500000000E-02 0. -1.
         31    1    1    2    0    0 -0.62378262753E-01 -0.29872894416E+00  0.54514783906E+02  0.55021938538E+02  0.74470750000E+01 0. -1.
        -31    1    1    2    0    0  0.62378262753E-01  0.29872894416E+00  0.64553376699E+02  0.64982232182E+02  0.74470750000E+01 0.  1.
<mgrwt>
<rscale>  0 0.14959082E+02</rscale>
<asrwt>0</asrwt>
<pdfrwt beam="1">  1        2 0.99227845E+00 0.14959082E+02</pdfrwt>
<pdfrwt beam="2">  1       -2 0.99398695E+00 0.14959082E+02</pdfrwt>
<totfact>-0.14501445E-13</totfact>
</mgrwt>
</event>
<event>
 4    1 -0.4996155E-019  0.1493356E+02  0.7818608E-02  0.1870103E+00
          2   -1    0    0  501    0  0.00000000000E+00  0.00000000000E+00  0.11913488201E+03  0.11913488204E+03  0.25500000000E-02 0.  1.
         -2   -1    0    0    0  501 -0.00000000000E+00 -0.00000000000E+00 -0.46797703889E+00  0.46798398629E+00  0.25500000000E-02 0. -1.
         31    1    1    2    0    0  0.60005833002E-01 -0.53861294478E+00  0.59227277394E+02  0.59696088801E+02  0.74470750000E+01 0.  1.
        -31    1    1    2    0    0 -0.60005833002E-01  0.53861294478E+00  0.59439627575E+02  0.59906777221E+02  0.74470750000E+01 0. -1.
<mgrwt>
<rscale>  0 0.14933560E+02</rscale>
<asrwt>0</asrwt>
<pdfrwt beam="1">  1        2 0.98896018E+00 0.14933560E+02</pdfrwt>
<pdfrwt beam="2">  1       -2 0.99392200E+00 0.14933560E+02</pdfrwt>
<totfact>-0.19359550E-13</totfact>
</mgrwt>
</event>
<event>
 4    1 -0.4996155E-019  0.1501076E+02  0.7818608E-02  0.1867740E+00
         -2   -1    0    0    0  501 -0.00000000000E+00  0.00000000000E+00  0.12025270584E+03  0.12025270587E+03  0.25500000000E-02 0.  1.
          2   -1    0    0  501    0  0.00000000000E+00 -0.00000000000E+00 -0.46843254181E+00  0.46843948246E+00  0.25500000000E-02 0. -1.
         31    1    1    2    0    0 -0.62781605332E+00  0.38189603444E+00  0.55259755343E+02  0.55764141562E+02  0.74470750000E+01 0. -1.
        -31    1    1    2    0    0  0.62781605332E+00 -0.38189603444E+00  0.64524517955E+02  0.64957003787E+02  0.74470750000E+01 0.  1.
<mgrwt>
<rscale>  0 0.15010756E+02</rscale>
<asrwt>0</asrwt>
<pdfrwt beam="2">  1        2 0.99492185E+00 0.15010756E+02</pdfrwt>
<pdfrwt beam="1">  1       -2 0.99820689E+00 0.15010756E+02</pdfrwt>
<totfact>-0.65385675E-14</totfact>
</mgrwt>
</event>
<event>
 4    1 -0.4996155E-019  0.1494904E+02  0.7818608E-02  0.1869627E+00
          2   -1    0    0  501    0  0.00000000000E+00  0.00000000000E+00  0.11935227938E+03  0.11935227941E+03  0.25500000000E-02 0.  1.
         -2   -1    0    0    0  501 -0.00000000000E+00 -0.00000000000E+00 -0.46809385265E+00  0.46810079832E+00  0.25500000000E-02 0. -1.
         31    1    1    2    0    0  0.36923414264E+00  0.52265634749E+00  0.59381865795E+02  0.59850433706E+02  0.74470750000E+01 0.  1.
        -31    1    1    2    0    0 -0.36923414264E+00 -0.52265634749E+00  0.59502319734E+02  0.59969946501E+02  0.74470750000E+01 0. -1.
<mgrwt>
<rscale>  0 0.14949045E+02</rscale>
<asrwt>0</asrwt>
<pdfrwt beam="1">  1        2 0.99075874E+00 0.14949045E+02</pdfrwt>
<pdfrwt beam="2">  1       -2 0.99417621E+00 0.14949045E+02</pdfrwt>
<totfact>-0.16489521E-13</totfact>
</mgrwt>
</event>
<event>
 4    1 -0.4996155E-019  0.1492955E+02  0.7818608E-02  0.1870226E+00
         -2   -1    0    0    0  501 -0.00000000000E+00  0.00000000000E+00  0.11952133609E+03  0.11952133611E+03  0.25500000000E-02 0. -1.
          2   -1    0    0  501    0  0.00000000000E+00 -0.00000000000E+00 -0.46621314658E+00  0.46622012027E+00  0.25500000000E-02 0.  1.
         31    1    1    2    0    0 -0.40462495500E-01  0.51166052138E+00  0.59351769415E+02  0.59819352157E+02  0.74470750000E+01 0.  1.
        -31    1    1    2    0    0  0.40462495500E-01 -0.51166052138E+00  0.59703353524E+02  0.60168204076E+02  0.74470750000E+01 0. -1.
<mgrwt>
<rscale>  0 0.14929546E+02</rscale>
<asrwt>0</asrwt>
<pdfrwt beam="2">  1        2 0.99020286E+00 0.14929546E+02</pdfrwt>
<pdfrwt beam="1">  1       -2 0.99214107E+00 0.14929546E+02</pdfrwt>
<totfact>-0.12193893E-13</totfact>
</mgrwt>
</event>
<event>
 4    1 -0.4996155E-019  0.1496076E+02  0.7818608E-02  0.1869268E+00
         -2   -1    0    0    0  501 -0.00000000000E+00  0.00000000000E+00  0.11987620182E+03  0.11987620185E+03  0.25500000000E-02 0.  1.
          2   -1    0    0  501    0  0.00000000000E+00 -0.00000000000E+00 -0.46677879377E+00  0.46678575901E+00  0.25500000000E-02 0. -1.
         31    1    1    2    0    0 -0.15505405118E+00  0.60063899414E+00  0.57008446537E+02  0.57496145189E+02  0.74470750000E+01 0. -1.
        -31    1    1    2    0    0  0.15505405118E+00 -0.60063899414E+00  0.62400976491E+02  0.62846842419E+02  0.74470750000E+01 0.  1.
<mgrwt>
<rscale>  0 0.14960761E+02</rscale>
<asrwt>0</asrwt>
<pdfrwt beam="2">  1        2 0.99141098E+00 0.14960761E+02</pdfrwt>
<pdfrwt beam="1">  1       -2 0.99508002E+00 0.14960761E+02</pdfrwt>
<totfact>-0.15788323E-13</totfact>
</mgrwt>
</event>
<event>
 4    1  0.4996155E-019  0.1490497E+02  0.7818608E-02  0.1870982E+00
          2   -1    0    0  501    0  0.00000000000E+00  0.00000000000E+00  0.11993579550E+03  0.11993579553E+03  0.25500000000E-02 0.  1.
         -2   -1    0    0    0  501 -0.00000000000E+00 -0.00000000000E+00 -0.46307387127E+00  0.46308089223E+00  0.25500000000E-02 0. -1.
         31    1    1    2    0    0 -0.20037267449E+00 -0.77191671075E-01  0.58235469477E+02  0.58710092310E+02  0.74470750000E+01 0. -1.
        -31    1    1    2    0    0  0.20037267449E+00  0.77191671075E-01  0.61237252151E+02  0.61688784109E+02  0.74470750000E+01 0.  1.
<mgrwt>
<rscale>  0 0.14904973E+02</rscale>
<asrwt>0</asrwt>
<pdfrwt beam="1">  1        2 0.99554215E+00 0.14904973E+02</pdfrwt>
<pdfrwt beam="2">  1       -2 0.98357422E+00 0.14904973E+02</pdfrwt>
<totfact> 0.65767680E-13</totfact>
</mgrwt>
</event>
<event>
 4    1 -0.4996155E-019  0.1498379E+02  0.7818608E-02  0.1868563E+00
         -2   -1    0    0    0  501 -0.00000000000E+00  0.00000000000E+00  0.11962672303E+03  0.11962672306E+03  0.25500000000E-02 0. -1.
          2   -1    0    0  501    0  0.00000000000E+00 -0.00000000000E+00 -0.46919373157E+00  0.46920066096E+00  0.25500000000E-02 0.  1.
         31    1    1    2    0    0  0.59623646300E+00 -0.82244831085E-01  0.64022157007E+02  0.64456634848E+02  0.74470750000E+01 0. -1.
        -31    1    1    2    0    0 -0.59623646300E+00  0.82244831085E-01  0.55135372295E+02  0.55639288873E+02  0.74470750000E+01 0.  1.
<mgrwt>
<rscale>  0 0.14983795E+02</rscale>
<asrwt>0</asrwt>
<pdfrwt beam="2">  1        2 0.99651199E+00 0.14983795E+02</pdfrwt>
<pdfrwt beam="1">  1       -2 0.99303712E+00 0.14983795E+02</pdfrwt>
<totfact>-0.84834288E-14</totfact>
</mgrwt>
</event>
<event>
 4    1  0.4996155E-019  0.1490703E+02  0.7818608E-02  0.1870919E+00
          2   -1    0    0  501    0  0.00000000000E+00  0.00000000000E+00  0.12027562444E+03  0.12027562447E+03  0.25500000000E-02 0.  1.
         -2   -1    0    0    0  501 -0.00000000000E+00 -0.00000000000E+00 -0.46189300881E+00  0.46190004773E+00  0.25500000000E-02 0. -1.
         31    1    1    2    0    0  0.21024586956E+00  0.10401835924E-01  0.58065990826E+02  0.58541972364E+02  0.74470750000E+01 0. -1.
        -31    1    1    2    0    0 -0.21024586956E+00 -0.10401835924E-01  0.61747740604E+02  0.62195552151E+02  0.74470750000E+01 0.  1.
<mgrwt>
<rscale>  0 0.14907031E+02</rscale>
<asrwt>0</asrwt>
<pdfrwt beam="1">  1        2 0.99834233E+00 0.14907031E+02</pdfrwt>
<pdfrwt beam="2">  1       -2 0.98108635E+00 0.14907031E+02</pdfrwt>
<totfact> 0.55252589E-13</totfact>
</mgrwt>
</event>
<event>
 4    1  0.4996155E-019  0.1489603E+02  0.7818608E-02  0.1871258E+00
          2   -1    0    0  501    0  0.00000000000E+00  0.00000000000E+00  0.11981721345E+03  0.11981721348E+03  0.25500000000E-02 0.  1.
         -2   -1    0    0    0  501 -0.00000000000E+00 -0.00000000000E+00 -0.46297611491E+00  0.46298313736E+00  0.25500000000E-02 0. -1.
         31    1    1    2    0    0 -0.56897044912E-01 -0.71352759048E-01  0.60285531517E+02  0.60743827380E+02  0.74470750000E+01 0.  1.
        -31    1    1    2    0    0  0.56897044912E-01  0.71352759048E-01  0.59068705822E+02  0.59536369238E+02  0.74470750000E+01 0. -1.
<mgrwt>
<rscale>  0 0.14896031E+02</rscale>
<asrwt>0</asrwt>
<pdfrwt beam="1">  1        2 0.99456082E+00 0.14896031E+02</pdfrwt>
<pdfrwt beam="2">  1       -2 0.98336365E+00 0.14896031E+02</pdfrwt>
<totfact> 0.76595793E-13</totfact>
</mgrwt>
</event>
<event>
 4    1  0.4996155E-019  0.1492773E+02  0.7818608E-02  0.1870282E+00
          2   -1    0    0  501    0  0.00000000000E+00  0.00000000000E+00  0.12005201466E+03  0.12005201469E+03  0.25500000000E-02 0. -1.
         -2   -1    0    0    0  501 -0.00000000000E+00 -0.00000000000E+00 -0.46403929291E+00  0.46404629927E+00  0.25500000000E-02 0.  1.
         31    1    1    2    0    0 -0.37179047600E+00 -0.18730160978E+00  0.57553159840E+02  0.58034459105E+02  0.74470750000E+01 0.  1.
        -31    1    1    2    0    0  0.37179047600E+00  0.18730160978E+00  0.62034815526E+02  0.62481601879E+02  0.74470750000E+01 0. -1.
<mgrwt>
<rscale>  0 0.14927729E+02</rscale>
<asrwt>0</asrwt>
<pdfrwt beam="1">  1        2 0.99651111E+00 0.14927729E+02</pdfrwt>
<pdfrwt beam="2">  1       -2 0.98562053E+00 0.14927729E+02</pdfrwt>
<totfact> 0.32841481E-13</totfact>
</mgrwt>
</event>
<event>
 4    1 -0.4996155E-019  0.1496785E+02  0.7818608E-02  0.1869051E+00
          2   -1    0    0  501    0  0.00000000000E+00  0.00000000000E+00  0.11995643990E+03  0.11995643993E+03  0.25500000000E-02 0. -1.
         -2   -1    0    0    0  501 -0.00000000000E+00 -0.00000000000E+00 -0.46690859886E+00  0.46691556216E+00  0.25500000000E-02 0.  1.
         31    1    1    2    0    0  0.12763365171E+00  0.72829873064E+00  0.59270237424E+02  0.59740829253E+02  0.74470750000E+01 0.  1.
        -31    1    1    2    0    0 -0.12763365171E+00 -0.72829873064E+00  0.60219293875E+02  0.60682526235E+02  0.74470750000E+01 0. -1.
<mgrwt>
<rscale>  0 0.14967847E+02</rscale>
<asrwt>0</asrwt>
<pdfrwt beam="1">  1        2 0.99574456E+00 0.14967847E+02</pdfrwt>
<pdfrwt beam="2">  1       -2 0.99168818E+00 0.14967847E+02</pdfrwt>
<totfact>-0.62876956E-14</totfact>
</mgrwt>
</event>
<event>
 4    1  0.4996155E-019  0.1492602E+02  0.7818608E-02  0.1870334E+00
          2   -1    0    0  501    0  0.00000000000E+00  0.00000000000E+00  0.12002978250E+03  0.12002978252E+03  0.25500000000E-02 0. -1.
         -2   -1    0    0    0  501 -0.00000000000E+00 -0.00000000000E+00 -0.46401892581E+00  0.46402593248E+00  0.25500000000E-02 0.  1.
         31    1    1    2    0    0  0.17083826545E+00 -0.95483361671E-02  0.63467372067E+02  0.63903016518E+02  0.74470750000E+01 0. -1.
        -31    1    1    2    0    0 -0.17083826545E+00  0.95483361671E-02  0.56098391504E+02  0.56590791939E+02  0.74470750000E+01 0.  1.
<mgrwt>
<rscale>  0 0.14926019E+02</rscale>
<asrwt>0</asrwt>
<pdfrwt beam="1">  1        2 0.99632711E+00 0.14926019E+02</pdfrwt>
<pdfrwt beam="2">  1       -2 0.98557674E+00 0.14926019E+02</pdfrwt>
<totfact> 0.34368976E-13</totfact>
</mgrwt>
</event>
<event>
 4    1  0.4996155E-019  0.1491464E+02  0.7818608E-02  0.1870685E+00
          2   -1    0    0  501    0  0.00000000000E+00  0.00000000000E+00  0.12008331612E+03  0.12008331615E+03  0.25500000000E-02 0.  1.
         -2   -1    0    0    0  501 -0.00000000000E+00 -0.00000000000E+00 -0.46310496586E+00  0.46311198636E+00  0.25500000000E-02 0. -1.
         31    1    1    2    0    0  0.46447196922E-01 -0.37331020726E-01  0.62931300750E+02  0.63370427575E+02  0.74470750000E+01 0.  1.
        -31    1    1    2    0    0 -0.46447196922E-01  0.37331020726E-01  0.56688910404E+02  0.57176000558E+02  0.74470750000E+01 0. -1.
<mgrwt>
<rscale>  0 0.14914638E+02</rscale>
<asrwt>0</asrwt>
<pdfrwt beam="1">  1        2 0.99676221E+00 0.14914638E+02</pdfrwt>
<pdfrwt beam="2">  1       -2 0.98364466E+00 0.14914638E+02</pdfrwt>
<totfact> 0.53393986E-13</totfact>
</mgrwt>
</event>
<event>
 4    1  0.4996155E-019  0.1490829E+02  0.7818608E-02  0.1870880E+00
          2   -1    0    0  501    0  0.00000000000E+00  0.00000000000E+00  0.12030992161E+03  0.12030992164E+03  0.25500000000E-02 0.  1.
         -2   -1    0    0    0  501 -0.00000000000E+00 -0.00000000000E+00 -0.46183928209E+00  0.46184632183E+00  0.25500000000E-02 0. -1.
         31    1    1    2    0    0  0.17145244396E+00  0.15857003213E-01  0.62152931752E+02  0.62597727585E+02  0.74470750000E+01 0.  1.
        -31    1    1    2    0    0 -0.17145244396E+00 -0.15857003213E-01  0.57695150578E+02  0.58174040376E+02  0.74470750000E+01 0. -1.
<mgrwt>
<rscale>  0 0.14908290E+02</rscale>
<asrwt>0</asrwt>
<pdfrwt beam="1">  1        2 0.99862548E+00 0.14908290E+02</pdfrwt>
<pdfrwt beam="2">  1       -2 0.98097374E+00 0.14908290E+02</pdfrwt>
<totfact> 0.48258953E-13</totfact>
</mgrwt>
</event>
<event>
 4    1 -0.4996155E-019  0.1494975E+02  0.7818608E-02  0.1869606E+00
         -2   -1    0    0    0  501 -0.00000000000E+00  0.00000000000E+00  0.11983787562E+03  0.11983787565E+03  0.25500000000E-02 0.  1.
          2   -1    0    0  501    0  0.00000000000E+00 -0.00000000000E+00 -0.46624083082E+00  0.46624780410E+00  0.25500000000E-02 0. -1.
         31    1    1    2    0    0 -0.53041283685E+00 -0.26354784354E+00  0.57649843364E+02  0.58131868722E+02  0.74470750000E+01 0.  1.
        -31    1    1    2    0    0  0.53041283685E+00  0.26354784354E+00  0.61721791428E+02  0.62172254732E+02  0.74470750000E+01 0.  1.
<mgrwt>
<rscale>  0 0.14949747E+02</rscale>
<asrwt>0</asrwt>
<pdfrwt beam="2">  1        2 0.99027160E+00 0.14949747E+02</pdfrwt>
<pdfrwt beam="1">  1       -2 0.99475867E+00 0.14949747E+02</pdfrwt>
<totfact>-0.17454682E-13</totfact>
</mgrwt>
</event>
<event>
 4    1 -0.4996155E-019  0.1498113E+02  0.7818608E-02  0.1868645E+00
         -2   -1    0    0    0  501 -0.00000000000E+00  0.00000000000E+00  0.12015107431E+03  0.12015107433E+03  0.25500000000E-02 0. -1.
          2   -1    0    0  501    0  0.00000000000E+00 -0.00000000000E+00 -0.46697973243E+00  0.46698669468E+00  0.25500000000E-02 0.  1.
         31    1    1    2    0    0 -0.25686280638E+00  0.16565074215E+00  0.53837493263E+02  0.54350970788E+02  0.74470750000E+01 0.  1.
        -31    1    1    2    0    0  0.25686280638E+00 -0.16565074215E+00  0.65846601312E+02  0.66267090242E+02  0.74470750000E+01 0. -1.
<mgrwt>
<rscale>  0 0.14981127E+02</rscale>
<asrwt>0</asrwt>
<pdfrwt beam="2">  1        2 0.99184491E+00 0.14981127E+02</pdfrwt>
<pdfrwt beam="1">  1       -2 0.99735452E+00 0.14981127E+02</pdfrwt>
<totfact>-0.11259840E-13</totfact>
</mgrwt>
</event>
<event>
 4    1 -0.4996155E-019  0.1496066E+02  0.7818608E-02  0.1869271E+00
          2   -1    0    0  501    0  0.00000000000E+00  0.00000000000E+00  0.11932476242E+03  0.11932476245E+03  0.25500000000E-02 0. -1.
         -2   -1    0    0    0  501 -0.00000000000E+00 -0.00000000000E+00 -0.46892959097E+00  0.46893652427E+00  0.25500000000E-02 0.  1.
         31    1    1    2    0    0  0.56946282939E+00  0.36959627858E+00  0.60936885792E+02  0.61394005126E+02  0.74470750000E+01 0. -1.
        -31    1    1    2    0    0 -0.56946282939E+00 -0.36959627858E+00  0.57918947039E+02  0.58399693848E+02  0.74470750000E+01 0. -1.
<mgrwt>
<rscale>  0 0.14960659E+02</rscale>
<asrwt>0</asrwt>
<pdfrwt beam="1">  1        2 0.99053812E+00 0.14960659E+02</pdfrwt>
<pdfrwt beam="2">  1       -2 0.99594335E+00 0.14960659E+02</pdfrwt>
<totfact>-0.16048376E-13</totfact>
</mgrwt>
</event>
<event>
 4    1  0.4996155E-019  0.1489782E+02  0.7818608E-02  0.1871203E+00
          2   -1    0    0  501    0  0.00000000000E+00  0.00000000000E+00  0.12020235261E+03  0.12020235264E+03  0.25500000000E-02 0. -1.
         -2   -1    0    0    0  501 -0.00000000000E+00 -0.00000000000E+00 -0.46160360904E+00  0.46161065237E+00  0.25500000000E-02 0.  1.
         31    1    1    2    0    0 -0.15497899498E+00 -0.52708553971E-01  0.59681531744E+02  0.60144583747E+02  0.74470750000E+01 0. -1.
        -31    1    1    2    0    0  0.15497899498E+00  0.52708553971E-01  0.60059217259E+02  0.60519379545E+02  0.74470750000E+01 0. -1.
<mgrwt>
<rscale>  0 0.14897821E+02</rscale>
<asrwt>0</asrwt>
<pdfrwt beam="1">  1        2 0.99773407E+00 0.14897821E+02</pdfrwt>
<pdfrwt beam="2">  1       -2 0.98047172E+00 0.14897821E+02</pdfrwt>
<totfact> 0.78827508E-13</totfact>
</mgrwt>
</event>
<event>
 4    1 -0.4996155E-019  0.1491139E+02  0.7818608E-02  0.1870785E+00
          2   -1    0    0  501    0  0.00000000000E+00  0.00000000000E+00  0.11849140920E+03  0.11849140922E+03  0.25500000000E-02 0. -1.
         -2   -1    0    0    0  501 -0.00000000000E+00 -0.00000000000E+00 -0.46912213528E+00  0.46912906573E+00  0.25500000000E-02 0.  1.
         31    1    1    2    0    0  0.84283039871E-01  0.27806935221E+00  0.60684673387E+02  0.61140599738E+02  0.74470750000E+01 0. -1.
        -31    1    1    2    0    0 -0.84283039871E-01 -0.27806935221E+00  0.57337613675E+02  0.57819938552E+02  0.74470750000E+01 0.  1.
<mgrwt>
<rscale>  0 0.14911386E+02</rscale>
<asrwt>0</asrwt>
<pdfrwt beam="1">  1        2 0.98364896E+00 0.14911386E+02</pdfrwt>
<pdfrwt beam="2">  1       -2 0.99632324E+00 0.14911386E+02</pdfrwt>
<totfact>-0.39151418E-13</totfact>
</mgrwt>
</event>
<event>
 4    1 -0.4996155E-019  0.1496498E+02  0.7818608E-02  0.1869139E+00
          2   -1    0    0  501    0  0.00000000000E+00  0.00000000000E+00  0.11974835754E+03  0.11974835757E+03  0.25500000000E-02 0. -1.
         -2   -1    0    0    0  501 -0.00000000000E+00 -0.00000000000E+00 -0.46754072696E+00  0.46754768085E+00  0.25500000000E-02 0.  1.
         31    1    1    2    0    0 -0.37592797180E+00  0.13417570808E+00  0.64522836499E+02  0.64952403196E+02  0.74470750000E+01 0. -1.
        -31    1    1    2    0    0  0.37592797180E+00 -0.13417570808E+00  0.54757980315E+02  0.55263502053E+02  0.74470750000E+01 0.  1.
<mgrwt>
<rscale>  0 0.14964980E+02</rscale>
<asrwt>0</asrwt>
<pdfrwt beam="1">  1        2 0.99402922E+00 0.14964980E+02</pdfrwt>
<pdfrwt beam="2">  1       -2 0.99301885E+00 0.14964980E+02</pdfrwt>
<totfact>-0.11343517E-13</totfact>
</mgrwt>
</event>
<event>
 4    1  0.4996155E-019  0.1495487E+02  0.7818608E-02  0.1869449E+00
         -2   -1    0    0    0  501 -0.00000000000E+00  0.00000000000E+00  0.11912802409E+03  0.11912802412E+03  0.25500000000E-02 0. -1.
          2   -1    0    0  501    0  0.00000000000E+00 -0.00000000000E+00 -0.46934033580E+00  0.46934726303E+00  0.25500000000E-02 0.  1.
         31    1    1    2    0    0 -0.52871181059E+00 -0.34930655588E+00  0.57514036078E+02  0.57997627739E+02  0.74470750000E+01 0.  1.
        -31    1    1    2    0    0  0.52871181059E+00  0.34930655588E+00  0.61144647681E+02  0.61599743647E+02  0.74470750000E+01 0. -1.
<mgrwt>
<rscale>  0 0.14954866E+02</rscale>
<asrwt>0</asrwt>
<pdfrwt beam="2">  1        2 0.99680583E+00 0.14954866E+02</pdfrwt>
<pdfrwt beam="1">  1       -2 0.98891474E+00 0.14954866E+02</pdfrwt>
<totfact> 0.60498956E-14</totfact>
</mgrwt>
</event>
<event>
 4    1 -0.4996155E-019  0.1495523E+02  0.7818608E-02  0.1869438E+00
         -2   -1    0    0    0  501 -0.00000000000E+00  0.00000000000E+00  0.12035611412E+03  0.12035611415E+03  0.25500000000E-02 0.  1.
          2   -1    0    0  501    0  0.00000000000E+00 -0.00000000000E+00 -0.46457399268E+00  0.46458099097E+00  0.25500000000E-02 0. -1.
         31    1    1    2    0    0  0.39422515669E+00  0.21347402078E+00  0.64024049798E+02  0.64457263852E+02  0.74470750000E+01 0.  1.
        -31    1    1    2    0    0 -0.39422515669E+00 -0.21347402078E+00  0.55867490329E+02  0.56363431286E+02  0.74470750000E+01 0. -1.
<mgrwt>
<rscale>  0 0.14955233E+02</rscale>
<asrwt>0</asrwt>
<pdfrwt beam="2">  1        2 0.98676145E+00 0.14955233E+02</pdfrwt>
<pdfrwt beam="1">  1       -2 0.99903004E+00 0.14955233E+02</pdfrwt>
<totfact>-0.83587624E-14</totfact>
</mgrwt>
</event>
<event>
 4    1 -0.4996155E-019  0.1491561E+02  0.7818608E-02  0.1870655E+00
          2   -1    0    0  501    0  0.00000000000E+00  0.00000000000E+00  0.11862780699E+03  0.11862780702E+03  0.25500000000E-02 0. -1.
         -2   -1    0    0    0  501 -0.00000000000E+00 -0.00000000000E+00 -0.46884821638E+00  0.46885515088E+00  0.25500000000E-02 0.  1.
         31    1    1    2    0    0 -0.32349956312E+00  0.20162430873E+00  0.60044931854E+02  0.60506182096E+02  0.74470750000E+01 0. -1.
        -31    1    1    2    0    0  0.32349956312E+00 -0.20162430873E+00  0.58114026922E+02  0.58590480076E+02  0.74470750000E+01 0. -1.
<mgrwt>
<rscale>  0 0.14915609E+02</rscale>
<asrwt>0</asrwt>
<pdfrwt beam="1">  1        2 0.98477453E+00 0.14915609E+02</pdfrwt>
<pdfrwt beam="2">  1       -2 0.99574830E+00 0.14915609E+02</pdfrwt>
<totfact>-0.34618417E-13</totfact>
</mgrwt>
</event>
<event>
 4    1 -0.4996155E-019  0.1495910E+02  0.7818608E-02  0.1869319E+00
          2   -1    0    0  501    0  0.00000000000E+00  0.00000000000E+00  0.11968306482E+03  0.11968306485E+03  0.25500000000E-02 0.  1.
         -2   -1    0    0    0  501 -0.00000000000E+00 -0.00000000000E+00 -0.46742810857E+00  0.46743506413E+00  0.25500000000E-02 0. -1.
         31    1    1    2    0    0 -0.57625068885E+00  0.11975670838E+00  0.62594958929E+02  0.63039148281E+02  0.74470750000E+01 0.  1.
        -31    1    1    2    0    0  0.57625068885E+00 -0.11975670838E+00  0.56620677784E+02  0.57111351633E+02  0.74470750000E+01 0. -1.
<mgrwt>
<rscale>  0 0.14959097E+02</rscale>
<asrwt>0</asrwt>
<pdfrwt beam="1">  1        2 0.99348840E+00 0.14959097E+02</pdfrwt>
<pdfrwt beam="2">  1       -2 0.99277849E+00 0.14959097E+02</pdfrwt>
<totfact>-0.11283471E-13</totfact>
</mgrwt>
</event>
<event>
 4    1 -0.4996155E-019  0.1497979E+02  0.7818608E-02  0.1868686E+00
          2   -1    0    0  501    0  0.00000000000E+00  0.00000000000E+00  0.11981535790E+03  0.11981535792E+03  0.25500000000E-02 0. -1.
         -2   -1    0    0    0  501 -0.00000000000E+00 -0.00000000000E+00 -0.46820490603E+00  0.46821185005E+00  0.25500000000E-02 0.  1.
         31    1    1    2    0    0 -0.58490510527E+00  0.34458284313E+00  0.56278416396E+02  0.56773056369E+02  0.74470750000E+01 0.  1.
        -31    1    1    2    0    0  0.58490510527E+00 -0.34458284313E+00  0.63068736593E+02  0.63510513404E+02  0.74470750000E+01 0. -1.
<mgrwt>
<rscale>  0 0.14979794E+02</rscale>
<asrwt>0</asrwt>
<pdfrwt beam="1">  1        2 0.99458871E+00 0.14979794E+02</pdfrwt>
<pdfrwt beam="2">  1       -2 0.99442617E+00 0.14979794E+02</pdfrwt>
<totfact>-0.12392991E-13</totfact>
</mgrwt>
</event>
<event>
 4    1 -0.4996155E-019  0.1493675E+02  0.7818608E-02  0.1870005E+00
          2   -1    0    0  501    0  0.00000000000E+00  0.00000000000E+00  0.11880745364E+03  0.11880745366E+03  0.25500000000E-02 0.  1.
         -2   -1    0    0    0  501 -0.00000000000E+00 -0.00000000000E+00 -0.46946724223E+00  0.46947416758E+00  0.25500000000E-02 0. -1.
         31    1    1    2    0    0 -0.25033206556E-01  0.49289080468E+00  0.56994830325E+02  0.57481415935E+02  0.74470750000E+01 0. -1.
        -31    1    1    2    0    0  0.25033206556E-01 -0.49289080468E+00  0.61343156068E+02  0.61795511896E+02  0.74470750000E+01 0.  1.
<mgrwt>
<rscale>  0 0.14936750E+02</rscale>
<asrwt>0</asrwt>
<pdfrwt beam="1">  1        2 0.98626509E+00 0.14936750E+02</pdfrwt>
<pdfrwt beam="2">  1       -2 0.99706374E+00 0.14936750E+02</pdfrwt>
<totfact>-0.22478520E-13</totfact>
</mgrwt>
</event>
<event>
 4    1  0.4996155E-019  0.1493622E+02  0.7818608E-02  0.1870021E+00
         -2   -1    0    0    0  501 -0.00000000000E+00  0.00000000000E+00  0.11892092974E+03  0.11892092977E+03  0.25500000000E-02 0. -1.
          2   -1    0    0  501    0  0.00000000000E+00 -0.00000000000E+00 -0.46898574460E+00  0.46899267706E+00  0.25500000000E-02 0.  1.
         31    1    1    2    0    0  0.14112601366E+00  0.73480911665E-01  0.54933372744E+02  0.55436086469E+02  0.74470750000E+01 0.  1.
        -31    1    1    2    0    0 -0.14112601366E+00 -0.73480911665E-01  0.63518571252E+02  0.63953835975E+02  0.74470750000E+01 0. -1.
<mgrwt>
<rscale>  0 0.14936216E+02</rscale>
<asrwt>0</asrwt>
<pdfrwt beam="2">  1        2 0.99604890E+00 0.14936216E+02</pdfrwt>
<pdfrwt beam="1">  1       -2 0.98719941E+00 0.14936216E+02</pdfrwt>
<totfact> 0.19821684E-13</totfact>
</mgrwt>
</event>
<event>
 4    1 -0.4996155E-019  0.1493894E+02  0.7818608E-02  0.1869938E+00
         -2   -1    0    0    0  501 -0.00000000000E+00  0.00000000000E+00  0.12021722423E+03  0.12021722426E+03  0.25500000000E-02 0.  1.
          2   -1    0    0  501    0  0.00000000000E+00 -0.00000000000E+00 -0.46409785203E+00  0.46410485750E+00  0.25500000000E-02 0. -1.
         31    1    1    2    0    0 -0.41890309997E+00 -0.28517232041E+00  0.62121849516E+02  0.62568681594E+02  0.74470750000E+01 0.  1.
        -31    1    1    2    0    0  0.41890309997E+00  0.28517232041E+00  0.57631276864E+02  0.58112647522E+02  0.74470750000E+01 0.  1.
<mgrwt>
<rscale>  0 0.14938940E+02</rscale>
<asrwt>0</asrwt>
<pdfrwt beam="2">  1        2 0.98574965E+00 0.14938940E+02</pdfrwt>
<pdfrwt beam="1">  1       -2 0.99787767E+00 0.14938940E+02</pdfrwt>
<totfact>-0.19194807E-13</totfact>
</mgrwt>
</event>
<event>
 4    1 -0.4996155E-019  0.1502608E+02  0.7818608E-02  0.1867274E+00
          2   -1    0    0  501    0  0.00000000000E+00  0.00000000000E+00  0.12019738383E+03  0.12019738386E+03  0.25500000000E-02 0. -1.
         -2   -1    0    0    0  501 -0.00000000000E+00 -0.00000000000E+00 -0.46960563168E+00  0.46961255499E+00  0.25500000000E-02 0.  1.
         31    1    1    2    0    0  0.53943055920E+00  0.38868574178E+00  0.53936530918E+02  0.54452275944E+02  0.74470750000E+01 0.  1.
        -31    1    1    2    0    0 -0.53943055920E+00 -0.38868574178E+00  0.65791247281E+02  0.66214720469E+02  0.74470750000E+01 0. -1.
<mgrwt>
<rscale>  0 0.15026082E+02</rscale>
<asrwt>0</asrwt>
<pdfrwt beam="1">  1        2 0.99775915E+00 0.15026082E+02</pdfrwt>
<pdfrwt beam="2">  1       -2 0.99740190E+00 0.15026082E+02</pdfrwt>
<totfact>-0.51892683E-14</totfact>
</mgrwt>
</event>
<event>
 4    1  0.4996155E-019  0.1493265E+02  0.7818608E-02  0.1870131E+00
         -2   -1    0    0    0  501 -0.00000000000E+00  0.00000000000E+00  0.11866839155E+03  0.11866839157E+03  0.25500000000E-02 0. -1.
          2   -1    0    0  501    0  0.00000000000E+00 -0.00000000000E+00 -0.46975919346E+00  0.46976611451E+00  0.25500000000E-02 0.  1.
         31    1    1    2    0    0 -0.21135245808E+00 -0.15168433953E+00  0.55362425461E+02  0.55861657306E+02  0.74470750000E+01 0.  1.
        -31    1    1    2    0    0  0.21135245808E+00  0.15168433953E+00  0.62836206890E+02  0.63276500381E+02  0.74470750000E+01 0. -1.
<mgrwt>
<rscale>  0 0.14932646E+02</rscale>
<asrwt>0</asrwt>
<pdfrwt beam="2">  1        2 0.99767674E+00 0.14932646E+02</pdfrwt>
<pdfrwt beam="1">  1       -2 0.98511764E+00 0.14932646E+02</pdfrwt>
<totfact> 0.28862760E-13</totfact>
</mgrwt>
</event>
<event>
 4    1  0.4996155E-019  0.1491017E+02  0.7818608E-02  0.1870822E+00
         -2   -1    0    0    0  501 -0.00000000000E+00  0.00000000000E+00  0.11826334202E+03  0.11826334205E+03  0.25500000000E-02 0. -1.
          2   -1    0    0  501    0  0.00000000000E+00 -0.00000000000E+00 -0.46994989209E+00  0.46995681033E+00  0.25500000000E-02 0.  1.
         31    1    1    2    0    0  0.22472095978E+00 -0.24053811351E+00  0.58062528907E+02  0.58539085637E+02  0.74470750000E+01 0.  1.
        -31    1    1    2    0    0 -0.22472095978E+00  0.24053811351E+00  0.59730863223E+02  0.60194213223E+02  0.74470750000E+01 0. -1.
<mgrwt>
<rscale>  0 0.14910165E+02</rscale>
<asrwt>0</asrwt>
<pdfrwt beam="2">  1        2 0.99806666E+00 0.14910165E+02</pdfrwt>
<pdfrwt beam="1">  1       -2 0.98176999E+00 0.14910165E+02</pdfrwt>
<totfact> 0.54924997E-13</totfact>
</mgrwt>
</event>
<event>
 4    1 -0.4996155E-019  0.1494774E+02  0.7818608E-02  0.1869667E+00
         -2   -1    0    0    0  501 -0.00000000000E+00  0.00000000000E+00  0.11972677436E+03  0.11972677438E+03  0.25500000000E-02 0.  1.
          2   -1    0    0  501    0  0.00000000000E+00 -0.00000000000E+00 -0.46654840904E+00  0.46655537772E+00  0.25500000000E-02 0. -1.
         31    1    1    2    0    0  0.17659800362E+00  0.58703837799E+00  0.58383655137E+02  0.58859883742E+02  0.74470750000E+01 0. -1.
        -31    1    1    2    0    0 -0.17659800362E+00 -0.58703837799E+00  0.60876570810E+02  0.61333446018E+02  0.74470750000E+01 0.  1.
<mgrwt>
<rscale>  0 0.14947743E+02</rscale>
<asrwt>0</asrwt>
<pdfrwt beam="2">  1        2 0.99091877E+00 0.14947743E+02</pdfrwt>
<pdfrwt beam="1">  1       -2 0.99384255E+00 0.14947743E+02</pdfrwt>
<totfact>-0.15917712E-13</totfact>
</mgrwt>
</event>
<event>
 4    1 -0.4996155E-019  0.1500255E+02  0.7818608E-02  0.1867991E+00
         -2   -1    0    0    0  501 -0.00000000000E+00  0.00000000000E+00  0.11981575263E+03  0.11981575266E+03  0.25500000000E-02 0. -1.
          2   -1    0    0  501    0  0.00000000000E+00 -0.00000000000E+00 -0.46962680522E+00  0.46963372821E+00  0.25500000000E-02 0.  1.
         31    1    1    2    0    0 -0.80555896261E+00  0.38737170117E+00  0.60521534515E+02  0.60984539419E+02  0.74470750000E+01 0.  1.
        -31    1    1    2    0    0  0.80555896261E+00 -0.38737170117E+00  0.58824591314E+02  0.59300846970E+02  0.74470750000E+01 0.  1.
<mgrwt>
<rscale>  0 0.15002547E+02</rscale>
<asrwt>0</asrwt>
<pdfrwt beam="2">  1        2 0.99743433E+00 0.15002547E+02</pdfrwt>
<pdfrwt beam="1">  1       -2 0.99460373E+00 0.15002547E+02</pdfrwt>
<totfact>-0.79087096E-14</totfact>
</mgrwt>
</event>
<event>
 4    1  0.4996155E-019  0.1491640E+02  0.7818608E-02  0.1870630E+00
         -2   -1    0    0    0  501 -0.00000000000E+00  0.00000000000E+00  0.11861577265E+03  0.11861577268E+03  0.25500000000E-02 0. -1.
          2   -1    0    0  501    0  0.00000000000E+00 -0.00000000000E+00 -0.46894567580E+00  0.46895260885E+00  0.25500000000E-02 0.  1.
         31    1    1    2    0    0 -0.23746334401E+00 -0.27705042317E+00  0.60516994305E+02  0.60974573976E+02  0.74470750000E+01 0. -1.
        -31    1    1    2    0    0  0.23746334401E+00  0.27705042317E+00  0.57629832670E+02  0.58110151311E+02  0.74470750000E+01 0.  1.
<mgrwt>
<rscale>  0 0.14916403E+02</rscale>
<asrwt>0</asrwt>
<pdfrwt beam="2">  1        2 0.99595407E+00 0.14916403E+02</pdfrwt>
<pdfrwt beam="1">  1       -2 0.98467583E+00 0.14916403E+02</pdfrwt>
<totfact> 0.47225243E-13</totfact>
</mgrwt>
</event>
<event>
 4    1 -0.4996155E-019  0.1490681E+02  0.7818608E-02  0.1870926E+00
          2   -1    0    0  501    0  0.00000000000E+00  0.00000000000E+00  0.11889029122E+03  0.11889029125E+03  0.25500000000E-02 0.  1.
         -2   -1    0    0    0  501 -0.00000000000E+00 -0.00000000000E+00 -0.46726136756E+00  0.46726832561E+00  0.25500000000E-02 0. -1.
         31    1    1    2    0    0 -0.75911229570E-01 -0.29716694175E+00  0.59340668320E+02  0.59806921953E+02  0.74470750000E+01 0. -1.
        -31    1    1    2    0    0  0.75911229570E-01  0.29716694175E+00  0.59082361534E+02  0.59550637622E+02  0.74470750000E+01 0. -1.
<mgrwt>
<rscale>  0 0.14906811E+02</rscale>
<asrwt>0</asrwt>
<pdfrwt beam="1">  1        2 0.98693181E+00 0.14906811E+02</pdfrwt>
<pdfrwt beam="2">  1       -2 0.99239999E+00 0.14906811E+02</pdfrwt>
<totfact>-0.19500720E-13</totfact>
</mgrwt>
</event>
<event>
 4    1 -0.4996155E-019  0.1495036E+02  0.7818608E-02  0.1869587E+00
         -2   -1    0    0    0  501 -0.00000000000E+00  0.00000000000E+00  0.12034074259E+03  0.12034074261E+03  0.25500000000E-02 0.  1.
          2   -1    0    0  501    0  0.00000000000E+00 -0.00000000000E+00 -0.46433061606E+00  0.46433761802E+00  0.25500000000E-02 0. -1.
         31    1    1    2    0    0  0.31196897204E+00 -0.12986792652E+00  0.55474194104E+02  0.55972844558E+02  0.74470750000E+01 0. -1.
        -31    1    1    2    0    0 -0.31196897204E+00  0.12986792652E+00  0.64402217867E+02  0.64832235675E+02  0.74470750000E+01 0.  1.
<mgrwt>
<rscale>  0 0.14950360E+02</rscale>
<asrwt>0</asrwt>
<pdfrwt beam="2">  1        2 0.98624603E+00 0.14950360E+02</pdfrwt>
<pdfrwt beam="1">  1       -2 0.99890093E+00 0.14950360E+02</pdfrwt>
<totfact>-0.10114645E-13</totfact>
</mgrwt>
</event>
<event>
 4    1 -0.4996155E-019  0.1497959E+02  0.7818608E-02  0.1868692E+00
          2   -1    0    0  501    0  0.00000000000E+00  0.00000000000E+00  0.11994900853E+03  0.11994900855E+03  0.25500000000E-02 0. -1.
         -2   -1    0    0    0  501 -0.00000000000E+00 -0.00000000000E+00 -0.46767028165E+00  0.46767723361E+00  0.25500000000E-02 0.  1.
         31    1    1    2    0    0 -0.35243266669E+00  0.53279755142E+00  0.63595892497E+02  0.64033620470E+02  0.74470750000E+01 0. -1.
        -31    1    1    2    0    0  0.35243266669E+00 -0.53279755142E+00  0.55885445747E+02  0.56383065315E+02  0.74470750000E+01 0.  1.
<mgrwt>
<rscale>  0 0.14979587E+02</rscale>
<asrwt>0</asrwt>
<pdfrwt beam="1">  1        2 0.99568941E+00 0.14979587E+02</pdfrwt>
<pdfrwt beam="2">  1       -2 0.99329941E+00 0.14979587E+02</pdfrwt>
<totfact>-0.10029634E-13</totfact>
</mgrwt>
</event>
<event>
 4    1  0.4996155E-019  0.1492342E+02  0.7818608E-02  0.1870414E+00
          2   -1    0    0  501    0  0.00000000000E+00  0.00000000000E+00  0.12014176833E+03  0.12014176835E+03  0.25500000000E-02 0. -1.
         -2   -1    0    0    0  501 -0.00000000000E+00 -0.00000000000E+00 -0.46342522939E+00  0.46343224504E+00  0.25500000000E-02 0.  1.
         31    1    1    2    0    0 -0.14086922559E+00 -0.27185408794E+00  0.62690459299E+02  0.63131975748E+02  0.74470750000E+01 0. -1.
        -31    1    1    2    0    0  0.14086922559E+00  0.27185408794E+00  0.56987883800E+02  0.57473224851E+02  0.74470750000E+01 0.  1.
<mgrwt>
<rscale>  0 0.14923425E+02</rscale>
<asrwt>0</asrwt>
<pdfrwt beam="1">  1        2 0.99724818E+00 0.14923425E+02</pdfrwt>
<pdfrwt beam="2">  1       -2 0.98432412E+00 0.14923425E+02</pdfrwt>
<totfact> 0.40466606E-13</totfact>
</mgrwt>
</event>
<event>
 4    1 -0.4996155E-019  0.1490860E+02  0.7818608E-02  0.1870870E+00
         -2   -1    0    0    0  501 -0.00000000000E+00  0.00000000000E+00  0.11976587360E+03  0.11976587362E+03  0.25500000000E-02 0.  1.
          2   -1    0    0  501    0  0.00000000000E+00 -0.00000000000E+00 -0.46395676483E+00  0.46396377244E+00  0.25500000000E-02 0. -1.
         31    1    1    2    0    0 -0.25770564497E+00 -0.19701843813E+00  0.59251330069E+02  0.59718374638E+02  0.74470750000E+01 0.  1.
        -31    1    1    2    0    0  0.25770564497E+00  0.19701843813E+00  0.60050586763E+02  0.60511462758E+02  0.74470750000E+01 0. -1.
<mgrwt>
<rscale>  0 0.14908603E+02</rscale>
<asrwt>0</asrwt>
<pdfrwt beam="2">  1        2 0.98543686E+00 0.14908603E+02</pdfrwt>
<pdfrwt beam="1">  1       -2 0.99414442E+00 0.14908603E+02</pdfrwt>
<totfact>-0.31950698E-13</totfact>
</mgrwt>
</event>
<event>
 4    1  0.4996155E-019  0.1491282E+02  0.7818608E-02  0.1870741E+00
         -2   -1    0    0    0  501 -0.00000000000E+00  0.00000000000E+00  0.11840645950E+03  0.11840645953E+03  0.25500000000E-02 0. -1.
          2   -1    0    0  501    0  0.00000000000E+00 -0.00000000000E+00 -0.46954887228E+00  0.46955579643E+00  0.25500000000E-02 0.  1.
         31    1    1    2    0    0 -0.24996170881E+00 -0.11056197358E+00  0.60991398716E+02  0.61444970080E+02  0.74470750000E+01 0. -1.
        -31    1    1    2    0    0  0.24996170881E+00  0.11056197358E+00  0.56945511914E+02  0.57431045246E+02  0.74470750000E+01 0.  1.
<mgrwt>
<rscale>  0 0.14912818E+02</rscale>
<asrwt>0</asrwt>
<pdfrwt beam="2">  1        2 0.99722313E+00 0.14912818E+02</pdfrwt>
<pdfrwt beam="1">  1       -2 0.98295007E+00 0.14912818E+02</pdfrwt>
<totfact> 0.56369135E-13</totfact>
</mgrwt>
</event>
<event>
 4    1 -0.4996155E-019  0.1497540E+02  0.7818608E-02  0.1868820E+00
          2   -1    0    0  501    0  0.00000000000E+00  0.00000000000E+00  0.11920097783E+03  0.11920097785E+03  0.25500000000E-02 0. -1.
         -2   -1    0    0    0  501 -0.00000000000E+00 -0.00000000000E+00 -0.47034239409E+00  0.47034930655E+00  0.25500000000E-02 0.  1.
         31    1    1    2    0    0 -0.60918961283E+00  0.48429564723E+00  0.59099291629E+02  0.59571728625E+02  0.74470750000E+01 0.  1.
        -31    1    1    2    0    0  0.60918961283E+00 -0.48429564723E+00  0.59631343804E+02  0.60099598536E+02  0.74470750000E+01 0.  1.
<mgrwt>
<rscale>  0 0.14975405E+02</rscale>
<asrwt>0</asrwt>
<pdfrwt beam="1">  1        2 0.98952626E+00 0.14975405E+02</pdfrwt>
<pdfrwt beam="2">  1       -2 0.99892805E+00 0.14975405E+02</pdfrwt>
<totfact>-0.64848687E-14</totfact>
</mgrwt>
</event>
<event>
 4    1 -0.4996155E-019  0.1497331E+02  0.7818608E-02  0.1868884E+00
          2   -1    0    0  501    0  0.00000000000E+00  0.00000000000E+00  0.11984792221E+03  0.11984792224E+03  0.25500000000E-02 0. -1.
         -2   -1    0    0    0  501 -0.00000000000E+00 -0.00000000000E+00 -0.46767277250E+00  0.46767972443E+00  0.25500000000E-02 0.  1.
         31    1    1    2    0    0 -0.62959710599E-01  0.45393989321E+00  0.64650462469E+02  0.65079576280E+02  0.74470750000E+01 0. -1.
        -31    1    1    2    0    0  0.62959710599E-01 -0.45393989321E+00  0.54729786967E+02  0.55236025679E+02  0.74470750000E+01 0.  1.
<mgrwt>
<rscale>  0 0.14973314E+02</rscale>
<asrwt>0</asrwt>
<pdfrwt beam="1">  1        2 0.99485358E+00 0.14973314E+02</pdfrwt>
<pdfrwt beam="2">  1       -2 0.99330142E+00 0.14973314E+02</pdfrwt>
<totfact>-0.11026750E-13</totfact>
</mgrwt>
</event>
<event>
 4    1 -0.4996155E-019  0.1494407E+02  0.7818608E-02  0.1869780E+00
         -2   -1    0    0    0  501 -0.00000000000E+00  0.00000000000E+00  0.11963573921E+03  0.11963573924E+03  0.25500000000E-02 0.  1.
          2   -1    0    0  501    0  0.00000000000E+00 -0.00000000000E+00 -0.46667368797E+00  0.46668065477E+00  0.25500000000E-02 0. -1.
         31    1    1    2    0    0 -0.39272129651E+00 -0.55040750992E-01  0.55857277420E+02  0.56352920300E+02  0.74470750000E+01 0. -1.
        -31    1    1    2    0    0  0.39272129651E+00  0.55040750992E-01  0.63311788104E+02  0.63749499594E+02  0.74470750000E+01 0.  1.
<mgrwt>
<rscale>  0 0.14944065E+02</rscale>
<asrwt>0</asrwt>
<pdfrwt beam="2">  1        2 0.99118089E+00 0.14944065E+02</pdfrwt>
<pdfrwt beam="1">  1       -2 0.99309084E+00 0.14944065E+02</pdfrwt>
<totfact>-0.14203848E-13</totfact>
</mgrwt>
</event>
<event>
 4    1 -0.4996155E-019  0.1497648E+02  0.7818608E-02  0.1868787E+00
         -2   -1    0    0    0  501 -0.00000000000E+00  0.00000000000E+00  0.11985078823E+03  0.11985078826E+03  0.25500000000E-02 0.  1.
          2   -1    0    0  501    0  0.00000000000E+00 -0.00000000000E+00 -0.46785967291E+00  0.46786662205E+00  0.25500000000E-02 0. -1.
         31    1    1    2    0    0  0.74267501428E+00 -0.23712119722E+00  0.59016833613E+02  0.59489943423E+02  0.74470750000E+01 0. -1.
        -31    1    1    2    0    0 -0.74267501428E+00  0.23712119722E+00  0.60366094944E+02  0.60828711456E+02  0.74470750000E+01 0. -1.
<mgrwt>
<rscale>  0 0.14976484E+02</rscale>
<asrwt>0</asrwt>
<pdfrwt beam="2">  1        2 0.99369693E+00 0.14976484E+02</pdfrwt>
<pdfrwt beam="1">  1       -2 0.99487882E+00 0.14976484E+02</pdfrwt>
<totfact>-0.13401208E-13</totfact>
</mgrwt>
</event>
<event>
 4    1 -0.4996155E-019  0.1496857E+02  0.7818608E-02  0.1869029E+00
          2   -1    0    0  501    0  0.00000000000E+00  0.00000000000E+00  0.11971147154E+03  0.11971147156E+03  0.25500000000E-02 0.  1.
         -2   -1    0    0    0  501 -0.00000000000E+00 -0.00000000000E+00 -0.46790926174E+00  0.46791621015E+00  0.25500000000E-02 0. -1.
         31    1    1    2    0    0 -0.59486543614E+00  0.43561758608E+00  0.60500256261E+02  0.60961328408E+02  0.74470750000E+01 0. -1.
        -31    1    1    2    0    0  0.59486543614E+00 -0.43561758608E+00  0.58743306015E+02  0.59218059367E+02  0.74470750000E+01 0. -1.
<mgrwt>
<rscale>  0 0.14968570E+02</rscale>
<asrwt>0</asrwt>
<pdfrwt beam="1">  1        2 0.99372726E+00 0.14968570E+02</pdfrwt>
<pdfrwt beam="2">  1       -2 0.99379734E+00 0.14968570E+02</pdfrwt>
<totfact>-0.12857982E-13</totfact>
</mgrwt>
</event>
<event>
 4    1 -0.4996155E-019  0.1491675E+02  0.7818608E-02  0.1870620E+00
          2   -1    0    0  501    0  0.00000000000E+00  0.00000000000E+00  0.11860147363E+03  0.11860147366E+03  0.25500000000E-02 0. -1.
         -2   -1    0    0    0  501 -0.00000000000E+00 -0.00000000000E+00 -0.46902391569E+00  0.46903084759E+00  0.25500000000E-02 0.  1.
         31    1    1    2    0    0  0.70204114217E-01 -0.37760465143E+00  0.60220271684E+02  0.60680207331E+02  0.74470750000E+01 0. -1.
        -31    1    1    2    0    0 -0.70204114217E-01  0.37760465143E+00  0.57912178034E+02  0.58390297179E+02  0.74470750000E+01 0.  1.
<mgrwt>
<rscale>  0 0.14916748E+02</rscale>
<asrwt>0</asrwt>
<pdfrwt beam="1">  1        2 0.98455824E+00 0.14916748E+02</pdfrwt>
<pdfrwt beam="2">  1       -2 0.99611911E+00 0.14916748E+02</pdfrwt>
<totfact>-0.34546110E-13</totfact>
</mgrwt>
</event>
<event>
 4    1 -0.4996155E-019  0.1499102E+02  0.7818608E-02  0.1868343E+00
         -2   -1    0    0    0  501 -0.00000000000E+00  0.00000000000E+00  0.11971801234E+03  0.11971801236E+03  0.25500000000E-02 0. -1.
          2   -1    0    0  501    0  0.00000000000E+00 -0.00000000000E+00 -0.46928811470E+00  0.46929504269E+00  0.25500000000E-02 0.  1.
         31    1    1    2    0    0  0.91145099472E-01 -0.51674101458E+00  0.64992973487E+02  0.65420339784E+02  0.74470750000E+01 0. -1.
        -31    1    1    2    0    0 -0.91145099472E-01  0.51674101458E+00  0.54255750735E+02  0.54766967623E+02  0.74470750000E+01 0.  1.
<mgrwt>
<rscale>  0 0.14991018E+02</rscale>
<asrwt>0</asrwt>
<pdfrwt beam="2">  1        2 0.99671464E+00 0.14991018E+02</pdfrwt>
<pdfrwt beam="1">  1       -2 0.99379275E+00 0.14991018E+02</pdfrwt>
<totfact>-0.90046100E-14</totfact>
</mgrwt>
</event>
<event>
 4    1  0.4996155E-019  0.1492870E+02  0.7818608E-02  0.1870252E+00
          2   -1    0    0  501    0  0.00000000000E+00  0.00000000000E+00  0.12036237438E+03  0.12036237440E+03  0.25500000000E-02 0. -1.
         -2   -1    0    0    0  501 -0.00000000000E+00 -0.00000000000E+00 -0.46290279180E+00  0.46290981536E+00  0.25500000000E-02 0.  1.
         31    1    1    2    0    0  0.30563991687E+00 -0.33459138613E+00  0.61799091615E+02  0.62247827413E+02  0.74470750000E+01 0. -1.
        -31    1    1    2    0    0 -0.30563991687E+00  0.33459138613E+00  0.58100379969E+02  0.58577456805E+02  0.74470750000E+01 0. -1.
<mgrwt>
<rscale>  0 0.14928698E+02</rscale>
<asrwt>0</asrwt>
<pdfrwt beam="1">  1        2 0.99906799E+00 0.14928698E+02</pdfrwt>
<pdfrwt beam="2">  1       -2 0.98322565E+00 0.14928698E+02</pdfrwt>
<totfact> 0.21820287E-13</totfact>
</mgrwt>
</event>
<event>
 4    1 -0.4996155E-019  0.1495761E+02  0.7818608E-02  0.1869365E+00
         -2   -1    0    0    0  501 -0.00000000000E+00  0.00000000000E+00  0.12002036447E+03  0.12002036450E+03  0.25500000000E-02 0.  1.
          2   -1    0    0  501    0  0.00000000000E+00 -0.00000000000E+00 -0.46602164196E+00  0.46602861852E+00  0.25500000000E-02 0. -1.
         31    1    1    2    0    0  0.10541177427E+00  0.23751703830E+00  0.54644192691E+02  0.55149925175E+02  0.74470750000E+01 0. -1.
        -31    1    1    2    0    0 -0.10541177427E+00 -0.23751703830E+00  0.64910150137E+02  0.65336467940E+02  0.74470750000E+01 0.  1.
<mgrwt>
<rscale>  0 0.14957608E+02</rscale>
<asrwt>0</asrwt>
<pdfrwt beam="2">  1        2 0.98981369E+00 0.14957608E+02</pdfrwt>
<pdfrwt beam="1">  1       -2 0.99626580E+00 0.14957608E+02</pdfrwt>
<totfact>-0.16529259E-13</totfact>
</mgrwt>
</event>
<event>
 4    1 -0.4996155E-019  0.1494958E+02  0.7818608E-02  0.1869611E+00
          2   -1    0    0  501    0  0.00000000000E+00  0.00000000000E+00  0.11909374468E+03  0.11909374471E+03  0.25500000000E-02 0.  1.
         -2   -1    0    0    0  501 -0.00000000000E+00 -0.00000000000E+00 -0.46914385368E+00  0.46915078380E+00  0.25500000000E-02 0. -1.
         31    1    1    2    0    0 -0.12908781688E+00 -0.59730605830E+00  0.57709755810E+02  0.58191479444E+02  0.74470750000E+01 0. -1.
        -31    1    1    2    0    0  0.12908781688E+00  0.59730605830E+00  0.60914845017E+02  0.61371416047E+02  0.74470750000E+01 0.  1.
<mgrwt>
<rscale>  0 0.14949584E+02</rscale>
<asrwt>0</asrwt>
<pdfrwt beam="1">  1        2 0.98862967E+00 0.14949584E+02</pdfrwt>
<pdfrwt beam="2">  1       -2 0.99638906E+00 0.14949584E+02</pdfrwt>
<totfact>-0.18462833E-13</totfact>
</mgrwt>
</event>
<event>
 4    1 -0.4996155E-019  0.1489991E+02  0.7818608E-02  0.1871138E+00
         -2   -1    0    0    0  501 -0.00000000000E+00  0.00000000000E+00  0.11938871903E+03  0.11938871905E+03  0.25500000000E-02 0.  1.
          2   -1    0    0  501    0  0.00000000000E+00 -0.00000000000E+00 -0.46487985223E+00  0.46488684592E+00  0.25500000000E-02 0. -1.
         31    1    1    2    0    0  0.14375677506E+00 -0.52106996930E-01  0.58337968673E+02  0.58811571107E+02  0.74470750000E+01 0. -1.
        -31    1    1    2    0    0 -0.14375677506E+00  0.52106996930E-01  0.60585870501E+02  0.61042034792E+02  0.74470750000E+01 0.  1.
<mgrwt>
<rscale>  0 0.14899910E+02</rscale>
<asrwt>0</asrwt>
<pdfrwt beam="2">  1        2 0.98737781E+00 0.14899910E+02</pdfrwt>
<pdfrwt beam="1">  1       -2 0.99103347E+00 0.14899910E+02</pdfrwt>
<totfact>-0.87932312E-14</totfact>
</mgrwt>
</event>
<event>
 4    1 -0.4996155E-019  0.1493539E+02  0.7818608E-02  0.1870046E+00
         -2   -1    0    0    0  501 -0.00000000000E+00  0.00000000000E+00  0.12017145484E+03  0.12017145487E+03  0.25500000000E-02 0.  1.
          2   -1    0    0  501    0  0.00000000000E+00 -0.00000000000E+00 -0.46405406612E+00  0.46406107226E+00  0.25500000000E-02 0. -1.
         31    1    1    2    0    0  0.51387337923E+00 -0.17049428364E+00  0.60823506781E+02  0.61280103111E+02  0.74470750000E+01 0.  1.
        -31    1    1    2    0    0 -0.51387337923E+00  0.17049428364E+00  0.58883893993E+02  0.59355412828E+02  0.74470750000E+01 0. -1.
<mgrwt>
<rscale>  0 0.14935391E+02</rscale>
<asrwt>0</asrwt>
<pdfrwt beam="2">  1        2 0.98565556E+00 0.14935391E+02</pdfrwt>
<pdfrwt beam="1">  1       -2 0.99749885E+00 0.14935391E+02</pdfrwt>
<totfact>-0.22075746E-13</totfact>
</mgrwt>
</event>
<event>
 4    1 -0.4996155E-019  0.1498718E+02  0.7818608E-02  0.1868460E+00
          2   -1    0    0  501    0  0.00000000000E+00  0.00000000000E+00  0.11974357959E+03  0.11974357961E+03  0.25500000000E-02 0.  1.
         -2   -1    0    0    0  501 -0.00000000000E+00 -0.00000000000E+00 -0.46894769330E+00  0.46895462632E+00  0.25500000000E-02 0. -1.
         31    1    1    2    0    0  0.66404577667E+00 -0.50387649185E+00  0.59549663957E+02  0.60019298995E+02  0.74470750000E+01 0. -1.
        -31    1    1    2    0    0 -0.66404577667E+00  0.50387649185E+00  0.59724967935E+02  0.60193235245E+02  0.74470750000E+01 0. -1.
<mgrwt>
<rscale>  0 0.14987180E+02</rscale>
<asrwt>0</asrwt>
<pdfrwt beam="1">  1        2 0.99400134E+00 0.14987180E+02</pdfrwt>
<pdfrwt beam="2">  1       -2 0.99599528E+00 0.14987180E+02</pdfrwt>
<totfact>-0.12263249E-13</totfact>
</mgrwt>
</event>
<event>
 4    1  0.4996155E-019  0.1491605E+02  0.7818608E-02  0.1870641E+00
          2   -1    0    0  501    0  0.00000000000E+00  0.00000000000E+00  0.12030643349E+03  0.12030643351E+03  0.25500000000E-02 0.  1.
         -2   -1    0    0    0  501 -0.00000000000E+00 -0.00000000000E+00 -0.46233358957E+00  0.46234062178E+00  0.25500000000E-02 0. -1.
         31    1    1    2    0    0 -0.33044256469E+00 -0.15948151568E+00  0.58553303726E+02  0.59026120743E+02  0.74470750000E+01 0. -1.
        -31    1    1    2    0    0  0.33044256469E+00  0.15948151568E+00  0.61290796172E+02  0.61742653394E+02  0.74470750000E+01 0. -1.
<mgrwt>
<rscale>  0 0.14916049E+02</rscale>
<asrwt>0</asrwt>
<pdfrwt beam="1">  1        2 0.99860072E+00 0.14916049E+02</pdfrwt>
<pdfrwt beam="2">  1       -2 0.98201953E+00 0.14916049E+02</pdfrwt>
<totfact> 0.40152367E-13</totfact>
</mgrwt>
</event>
<event>
 4    1 -0.4996155E-019  0.1490922E+02  0.7818608E-02  0.1870851E+00
         -2   -1    0    0    0  501 -0.00000000000E+00  0.00000000000E+00  0.11970471281E+03  0.11970471283E+03  0.25500000000E-02 0. -1.
          2   -1    0    0  501    0  0.00000000000E+00 -0.00000000000E+00 -0.46423216446E+00  0.46423916790E+00  0.25500000000E-02 0.  1.
         31    1    1    2    0    0  0.22293253440E+00 -0.24954848326E+00  0.59760062115E+02  0.60223217478E+02  0.74470750000E+01 0. -1.
        -31    1    1    2    0    0 -0.22293253440E+00  0.24954848326E+00  0.59480418528E+02  0.59945734525E+02  0.74470750000E+01 0.  1.
<mgrwt>
<rscale>  0 0.14909219E+02</rscale>
<asrwt>0</asrwt>
<pdfrwt beam="2">  1        2 0.98601759E+00 0.14909219E+02</pdfrwt>
<pdfrwt beam="1">  1       -2 0.99364097E+00 0.14909219E+02</pdfrwt>
<totfact>-0.28068849E-13</totfact>
</mgrwt>
</event>
<event>
 4    1 -0.4996155E-019  0.1495358E+02  0.7818608E-02  0.1869488E+00
          2   -1    0    0  501    0  0.00000000000E+00  0.00000000000E+00  0.11978877790E+03  0.11978877793E+03  0.25500000000E-02 0.  1.
         -2   -1    0    0    0  501 -0.00000000000E+00 -0.00000000000E+00 -0.46667141280E+00  0.46667837964E+00  0.25500000000E-02 0. -1.
         31    1    1    2    0    0  0.33515450735E+00  0.11462177295E-01  0.64288005217E+02  0.64718768535E+02  0.74470750000E+01 0.  1.
        -31    1    1    2    0    0 -0.33515450735E+00 -0.11462177295E-01  0.55034101275E+02  0.55536687776E+02  0.74470750000E+01 0. -1.
<mgrwt>
<rscale>  0 0.14953584E+02</rscale>
<asrwt>0</asrwt>
<pdfrwt beam="1">  1        2 0.99435625E+00 0.14953584E+02</pdfrwt>
<pdfrwt beam="2">  1       -2 0.99118099E+00 0.14953584E+02</pdfrwt>
<totfact>-0.52510468E-14</totfact>
</mgrwt>
</event>
<event>
 4    1 -0.4996155E-019  0.1493878E+02  0.7818608E-02  0.1869942E+00
          2   -1    0    0  501    0  0.00000000000E+00  0.00000000000E+00  0.11934400664E+03  0.11934400667E+03  0.25500000000E-02 0. -1.
         -2   -1    0    0    0  501 -0.00000000000E+00 -0.00000000000E+00 -0.46748357799E+00  0.46749053273E+00  0.25500000000E-02 0.  1.
         31    1    1    2    0    0 -0.55989603353E+00  0.13894022099E+00  0.59504149106E+02  0.59971122008E+02  0.74470750000E+01 0. -1.
        -31    1    1    2    0    0  0.55989603353E+00 -0.13894022099E+00  0.59372373961E+02  0.59840375197E+02  0.74470750000E+01 0.  1.
<mgrwt>
<rscale>  0 0.14938779E+02</rscale>
<asrwt>0</asrwt>
<pdfrwt beam="1">  1        2 0.99068529E+00 0.14938779E+02</pdfrwt>
<pdfrwt beam="2">  1       -2 0.99288487E+00 0.14938779E+02</pdfrwt>
<totfact>-0.14248747E-13</totfact>
</mgrwt>
</event>
<event>
 4    1 -0.4996155E-019  0.1493486E+02  0.7818608E-02  0.1870063E+00
          2   -1    0    0  501    0  0.00000000000E+00  0.00000000000E+00  0.11902170179E+03  0.11902170182E+03  0.25500000000E-02 0.  1.
         -2   -1    0    0    0  501 -0.00000000000E+00 -0.00000000000E+00 -0.46850344177E+00  0.46851038137E+00  0.25500000000E-02 0. -1.
         31    1    1    2    0    0 -0.55020051940E-01 -0.34129893497E+00  0.55844143037E+02  0.56339566468E+02  0.74470750000E+01 0.  1.
        -31    1    1    2    0    0  0.55020051940E-01  0.34129893497E+00  0.62709055315E+02  0.63150645735E+02  0.74470750000E+01 0.  1.
<mgrwt>
<rscale>  0 0.14934858E+02</rscale>
<asrwt>0</asrwt>
<pdfrwt beam="1">  1        2 0.98802868E+00 0.14934858E+02</pdfrwt>
<pdfrwt beam="2">  1       -2 0.99503191E+00 0.14934858E+02</pdfrwt>
<totfact>-0.22220954E-13</totfact>
</mgrwt>
</event>
<event>
 4    1 -0.4996155E-019  0.1503113E+02  0.7818608E-02  0.1867120E+00
         -2   -1    0    0    0  501 -0.00000000000E+00  0.00000000000E+00  0.12039343972E+03  0.12039343975E+03  0.25500000000E-02 0. -1.
          2   -1    0    0  501    0  0.00000000000E+00 -0.00000000000E+00 -0.46915606068E+00  0.46916299063E+00  0.25500000000E-02 0.  1.
         31    1    1    2    0    0  0.88698599307E+00 -0.22551778794E+00  0.63441167558E+02  0.63883317616E+02  0.74470750000E+01 0. -1.
        -31    1    1    2    0    0 -0.88698599307E+00  0.22551778794E+00  0.56483116103E+02  0.56979285123E+02  0.74470750000E+01 0. -1.
<mgrwt>
<rscale>  0 0.15031132E+02</rscale>
<asrwt>0</asrwt>
<pdfrwt beam="2">  1        2 0.99645709E+00 0.15031132E+02</pdfrwt>
<pdfrwt beam="1">  1       -2 0.99937656E+00 0.15031132E+02</pdfrwt>
<totfact>-0.20503388E-14</totfact>
</mgrwt>
</event>
<event>
 4    1 -0.4996155E-019  0.1496850E+02  0.7818608E-02  0.1869031E+00
         -2   -1    0    0    0  501 -0.00000000000E+00  0.00000000000E+00  0.11975796948E+03  0.11975796951E+03  0.25500000000E-02 0. -1.
          2   -1    0    0  501    0  0.00000000000E+00 -0.00000000000E+00 -0.46772292645E+00  0.46772987763E+00  0.25500000000E-02 0.  1.
         31    1    1    2    0    0 -0.69826321739E+00 -0.25822524702E+00  0.59419430305E+02  0.59888912794E+02  0.74470750000E+01 0.  1.
        -31    1    1    2    0    0  0.69826321739E+00  0.25822524702E+00  0.59870816246E+02  0.60336786589E+02  0.74470750000E+01 0. -1.
<mgrwt>
<rscale>  0 0.14968496E+02</rscale>
<asrwt>0</asrwt>
<pdfrwt beam="2">  1        2 0.99340463E+00 0.14968496E+02</pdfrwt>
<pdfrwt beam="1">  1       -2 0.99411020E+00 0.14968496E+02</pdfrwt>
<totfact>-0.13471775E-13</totfact>
</mgrwt>
</event>
<event>
 4    1 -0.4996155E-019  0.1494930E+02  0.7818608E-02  0.1869620E+00
          2   -1    0    0  501    0  0.00000000000E+00  0.00000000000E+00  0.11875023681E+03  0.11875023684E+03  0.25500000000E-02 0. -1.
         -2   -1    0    0    0  501 -0.00000000000E+00 -0.00000000000E+00 -0.47048308048E+00  0.47048999088E+00  0.25500000000E-02 0.  1.
         31    1    1    2    0    0 -0.65716344194E-03 -0.35377300355E+00  0.63407129805E+02  0.63843936219E+02  0.74470750000E+01 0. -1.
        -31    1    1    2    0    0  0.65716344194E-03  0.35377300355E+00  0.54872623928E+02  0.55376790613E+02  0.74470750000E+01 0.  1.
<mgrwt>
<rscale>  0 0.14949300E+02</rscale>
<asrwt>0</asrwt>
<pdfrwt beam="1">  1        2 0.98580038E+00 0.14949300E+02</pdfrwt>
<pdfrwt beam="2">  1       -2 0.99921076E+00 0.14949300E+02</pdfrwt>
<totfact>-0.79771005E-14</totfact>
</mgrwt>
</event>
<event>
 4    1 -0.4996155E-019  0.1500562E+02  0.7818608E-02  0.1867897E+00
         -2   -1    0    0    0  501 -0.00000000000E+00  0.00000000000E+00  0.11997552208E+03  0.11997552211E+03  0.25500000000E-02 0. -1.
          2   -1    0    0  501    0  0.00000000000E+00 -0.00000000000E+00 -0.46919373442E+00  0.46920066381E+00  0.25500000000E-02 0.  1.
         31    1    1    2    0    0  0.36623326259E+00 -0.10825594806E+00  0.66408065996E+02  0.66825414338E+02  0.74470750000E+01 0. -1.
        -31    1    1    2    0    0 -0.36623326259E+00  0.10825594806E+00  0.53098262354E+02  0.53619308436E+02  0.74470750000E+01 0.  1.
<mgrwt>
<rscale>  0 0.15005623E+02</rscale>
<asrwt>0</asrwt>
<pdfrwt beam="2">  1        2 0.99652332E+00 0.15005623E+02</pdfrwt>
<pdfrwt beam="1">  1       -2 0.99592124E+00 0.15005623E+02</pdfrwt>
<totfact>-0.91726187E-14</totfact>
</mgrwt>
</event>
<event>
 4    1  0.4996155E-019  0.1496008E+02  0.7818608E-02  0.1869289E+00
         -2   -1    0    0    0  501 -0.00000000000E+00  0.00000000000E+00  0.11911937894E+03  0.11911937897E+03  0.25500000000E-02 0.  1.
          2   -1    0    0  501    0  0.00000000000E+00 -0.00000000000E+00 -0.46970176826E+00  0.46970869015E+00  0.25500000000E-02 0. -1.
         31    1    1    2    0    0 -0.55283820670E-01 -0.69206212433E+00  0.58522812693E+02  0.58998818106E+02  0.74470750000E+01 0. -1.
        -31    1    1    2    0    0  0.55283820670E-01  0.69206212433E+00  0.60126864481E+02  0.60590269554E+02  0.74470750000E+01 0. -1.
<mgrwt>
<rscale>  0 0.14960080E+02</rscale>
<asrwt>0</asrwt>
<pdfrwt beam="2">  1        2 0.99757015E+00 0.14960080E+02</pdfrwt>
<pdfrwt beam="1">  1       -2 0.98884625E+00 0.14960080E+02</pdfrwt>
<totfact> 0.53211255E-14</totfact>
</mgrwt>
</event>
<event>
 4    1 -0.4996155E-019  0.1491085E+02  0.7818608E-02  0.1870801E+00
         -2   -1    0    0    0  501 -0.00000000000E+00  0.00000000000E+00  0.11950110695E+03  0.11950110697E+03  0.25500000000E-02 0.  1.
          2   -1    0    0  501    0  0.00000000000E+00 -0.00000000000E+00 -0.46512470064E+00  0.46513169065E+00  0.25500000000E-02 0. -1.
         31    1    1    2    0    0 -0.33652968989E+00 -0.93429948356E-01  0.59121379154E+02  0.59589582819E+02  0.74470750000E+01 0.  1.
        -31    1    1    2    0    0  0.33652968989E+00  0.93429948356E-01  0.59914603092E+02  0.60376655846E+02  0.74470750000E+01 0.  1.
<mgrwt>
<rscale>  0 0.14910847E+02</rscale>
<asrwt>0</asrwt>
<pdfrwt beam="2">  1        2 0.98789943E+00 0.14910847E+02</pdfrwt>
<pdfrwt beam="1">  1       -2 0.99196480E+00 0.14910847E+02</pdfrwt>
<totfact>-0.14736970E-13</totfact>
</mgrwt>
</event>
<event>
 4    1 -0.4996155E-019  0.1495793E+02  0.7818608E-02  0.1869355E+00
         -2   -1    0    0    0  501 -0.00000000000E+00  0.00000000000E+00  0.11964353144E+03  0.11964353146E+03  0.25500000000E-02 0. -1.
          2   -1    0    0  501    0  0.00000000000E+00 -0.00000000000E+00 -0.46750942676E+00  0.46751638111E+00  0.25500000000E-02 0.  1.
         31    1    1    2    0    0 -0.52042324364E+00 -0.25872950647E+00  0.62573056541E+02  0.63017331840E+02  0.74470750000E+01 0. -1.
        -31    1    1    2    0    0  0.52042324364E+00  0.25872950647E+00  0.56602965470E+02  0.57093716006E+02  0.74470750000E+01 0.  1.
<mgrwt>
<rscale>  0 0.14957927E+02</rscale>
<asrwt>0</asrwt>
<pdfrwt beam="2">  1        2 0.99294925E+00 0.14957927E+02</pdfrwt>
<pdfrwt beam="1">  1       -2 0.99316218E+00 0.14957927E+02</pdfrwt>
<totfact>-0.12609766E-13</totfact>
</mgrwt>
</event>
<event>
 4    1  0.4996155E-019  0.1493091E+02  0.7818608E-02  0.1870184E+00
          2   -1    0    0  501    0  0.00000000000E+00  0.00000000000E+00  0.12027018084E+03  0.12027018087E+03  0.25500000000E-02 0. -1.
         -2   -1    0    0    0  501 -0.00000000000E+00 -0.00000000000E+00 -0.46339468433E+00  0.46340170043E+00  0.25500000000E-02 0.  1.
         31    1    1    2    0    0  0.41982194070E+00 -0.52100774641E-01  0.62396980155E+02  0.62841236648E+02  0.74470750000E+01 0. -1.
        -31    1    1    2    0    0 -0.41982194070E+00  0.52100774641E-01  0.57409806005E+02  0.57892345924E+02  0.74470750000E+01 0.  1.
<mgrwt>
<rscale>  0 0.14930906E+02</rscale>
<asrwt>0</asrwt>
<pdfrwt beam="1">  1        2 0.99830973E+00 0.14930906E+02</pdfrwt>
<pdfrwt beam="2">  1       -2 0.98426353E+00 0.14930906E+02</pdfrwt>
<totfact> 0.28377827E-13</totfact>
</mgrwt>
</event>
<event>
 4    1  0.4996155E-019  0.1491178E+02  0.7818608E-02  0.1870773E+00
         -2   -1    0    0    0  501 -0.00000000000E+00  0.00000000000E+00  0.11877945879E+03  0.11877945882E+03  0.25500000000E-02 0. -1.
          2   -1    0    0  501    0  0.00000000000E+00 -0.00000000000E+00 -0.46800912204E+00  0.46801606897E+00  0.25500000000E-02 0.  1.
         31    1    1    2    0    0  0.26340616390E+00 -0.10825385250E+00  0.60948490948E+02  0.61402431358E+02  0.74470750000E+01 0. -1.
        -31    1    1    2    0    0 -0.26340616390E+00  0.10825385250E+00  0.57362958720E+02  0.57845043529E+02  0.74470750000E+01 0.  1.
<mgrwt>
<rscale>  0 0.14911779E+02</rscale>
<asrwt>0</asrwt>
<pdfrwt beam="2">  1        2 0.99397823E+00 0.14911779E+02</pdfrwt>
<pdfrwt beam="1">  1       -2 0.98602156E+00 0.14911779E+02</pdfrwt>
<totfact> 0.38836609E-13</totfact>
</mgrwt>
</event>
<event>
 4    1  0.4996155E-019  0.1494059E+02  0.7818608E-02  0.1869887E+00
          2   -1    0    0  501    0  0.00000000000E+00  0.00000000000E+00  0.12010708145E+03  0.12010708148E+03  0.25500000000E-02 0.  1.
         -2   -1    0    0    0  501 -0.00000000000E+00 -0.00000000000E+00 -0.46462640000E+00  0.46463339751E+00  0.25500000000E-02 0. -1.
         31    1    1    2    0    0 -0.10417895174E-01  0.54542497635E+00  0.61604355379E+02  0.62055242523E+02  0.74470750000E+01 0.  1.
        -31    1    1    2    0    0  0.10417895174E-01 -0.54542497635E+00  0.58038099675E+02  0.58516472355E+02  0.74470750000E+01 0. -1.
<mgrwt>
<rscale>  0 0.14940595E+02</rscale>
<asrwt>0</asrwt>
<pdfrwt beam="1">  1        2 0.99697130E+00 0.14940595E+02</pdfrwt>
<pdfrwt beam="2">  1       -2 0.98686447E+00 0.14940595E+02</pdfrwt>
<totfact> 0.19303835E-13</totfact>
</mgrwt>
</event>
<event>
 4    1 -0.4996155E-019  0.1497683E+02  0.7818608E-02  0.1868776E+00
         -2   -1    0    0    0  501 -0.00000000000E+00  0.00000000000E+00  0.11985461844E+03  0.11985461846E+03  0.25500000000E-02 0. -1.
          2   -1    0    0  501    0  0.00000000000E+00 -0.00000000000E+00 -0.46786618412E+00  0.46787313317E+00  0.25500000000E-02 0.  1.
         31    1    1    2    0    0 -0.11129133146E+00  0.71479830025E+00  0.57228991372E+02  0.57716026386E+02  0.74470750000E+01 0.  1.
        -31    1    1    2    0    0  0.11129133146E+00 -0.71479830025E+00  0.62157760881E+02  0.62606465210E+02  0.74470750000E+01 0.  1.
<mgrwt>
<rscale>  0 0.14976828E+02</rscale>
<asrwt>0</asrwt>
<pdfrwt beam="2">  1        2 0.99371083E+00 0.14976828E+02</pdfrwt>
<pdfrwt beam="1">  1       -2 0.99491055E+00 0.14976828E+02</pdfrwt>
<totfact>-0.13381633E-13</totfact>
</mgrwt>
</event>
<event>
 4    1 -0.4996155E-019  0.1489630E+02  0.7818608E-02  0.1871249E+00
          2   -1    0    0  501    0  0.00000000000E+00  0.00000000000E+00  0.11809995165E+03  0.11809995168E+03  0.25500000000E-02 0. -1.
         -2   -1    0    0    0  501 -0.00000000000E+00 -0.00000000000E+00 -0.46972544670E+00  0.46973236824E+00  0.25500000000E-02 0.  1.
         31    1    1    2    0    0 -0.42228632116E-01  0.10150551232E+00  0.59315486980E+02  0.59781251312E+02  0.74470750000E+01 0. -1.
        -31    1    1    2    0    0  0.42228632116E-01 -0.10150551232E+00  0.58314739223E+02  0.58788432734E+02  0.74470750000E+01 0. -1.
<mgrwt>
<rscale>  0 0.14896304E+02</rscale>
<asrwt>0</asrwt>
<pdfrwt beam="1">  1        2 0.98041711E+00 0.14896304E+02</pdfrwt>
<pdfrwt beam="2">  1       -2 0.99758642E+00 0.14896304E+02</pdfrwt>
<totfact>-0.51391082E-13</totfact>
</mgrwt>
</event>
<event>
 4    1  0.4996155E-019  0.1492099E+02  0.7818608E-02  0.1870489E+00
         -2   -1    0    0    0  501 -0.00000000000E+00  0.00000000000E+00  0.11870106976E+03  0.11870106979E+03  0.25500000000E-02 0.  1.
          2   -1    0    0  501    0  0.00000000000E+00 -0.00000000000E+00 -0.46889726509E+00  0.46890419886E+00  0.25500000000E-02 0. -1.
         31    1    1    2    0    0 -0.29558181230E+00  0.26226883494E+00  0.57441877113E+02  0.57923952955E+02  0.74470750000E+01 0.  1.
        -31    1    1    2    0    0  0.29558181230E+00 -0.26226883494E+00  0.60790295380E+02  0.61246021030E+02  0.74470750000E+01 0.  1.
<mgrwt>
<rscale>  0 0.14920995E+02</rscale>
<asrwt>0</asrwt>
<pdfrwt beam="2">  1        2 0.99585448E+00 0.14920995E+02</pdfrwt>
<pdfrwt beam="1">  1       -2 0.98538072E+00 0.14920995E+02</pdfrwt>
<totfact> 0.39194417E-13</totfact>
</mgrwt>
</event>
<event>
 4    1  0.4996155E-019  0.1494652E+02  0.7818608E-02  0.1869705E+00
         -2   -1    0    0    0  501 -0.00000000000E+00  0.00000000000E+00  0.11867238805E+03  0.11867238807E+03  0.25500000000E-02 0.  1.
          2   -1    0    0  501    0  0.00000000000E+00 -0.00000000000E+00 -0.47061639086E+00  0.47062329931E+00  0.25500000000E-02 0. -1.
         31    1    1    2    0    0  0.36662271162E-01 -0.50346851985E+00  0.62038751280E+02  0.62486161757E+02  0.74470750000E+01 0.  1.
        -31    1    1    2    0    0 -0.36662271162E-01  0.50346851985E+00  0.56163020374E+02  0.56656849615E+02  0.74470750000E+01 0. -1.
<mgrwt>
<rscale>  0 0.14946516E+02</rscale>
<asrwt>0</asrwt>
<pdfrwt beam="2">  1        2 0.99949017E+00 0.14946516E+02</pdfrwt>
<pdfrwt beam="1">  1       -2 0.98515778E+00 0.14946516E+02</pdfrwt>
<totfact> 0.76525443E-14</totfact>
</mgrwt>
</event>
<event>
 4    1  0.4996155E-019  0.1492321E+02  0.7818608E-02  0.1870421E+00
          2   -1    0    0  501    0  0.00000000000E+00  0.00000000000E+00  0.12017443827E+03  0.12017443830E+03  0.25500000000E-02 0. -1.
         -2   -1    0    0    0  501 -0.00000000000E+00 -0.00000000000E+00 -0.46328592463E+00  0.46329294238E+00  0.25500000000E-02 0.  1.
         31    1    1    2    0    0 -0.18392268467E+00  0.20730519176E+00  0.62878366960E+02  0.63318439342E+02  0.74470750000E+01 0. -1.
        -31    1    1    2    0    0  0.18392268467E+00 -0.20730519176E+00  0.56832785385E+02  0.57319291898E+02  0.74470750000E+01 0. -1.
<mgrwt>
<rscale>  0 0.14923210E+02</rscale>
<asrwt>0</asrwt>
<pdfrwt beam="1">  1        2 0.99751717E+00 0.14923210E+02</pdfrwt>
<pdfrwt beam="2">  1       -2 0.98403040E+00 0.14923210E+02</pdfrwt>
<totfact> 0.40494709E-13</totfact>
</mgrwt>
</event>
<event>
 4    1 -0.4996155E-019  0.1501964E+02  0.7818608E-02  0.1867470E+00
          2   -1    0    0  501    0  0.00000000000E+00  0.00000000000E+00  0.12024265915E+03  0.12024265917E+03  0.25500000000E-02 0.  1.
         -2   -1    0    0    0  501 -0.00000000000E+00 -0.00000000000E+00 -0.46902633284E+00  0.46903326470E+00  0.25500000000E-02 0. -1.
         31    1    1    2    0    0 -0.21301279692E+00 -0.79594749436E+00  0.55792238128E+02  0.56293087215E+02  0.74470750000E+01 0.  1.
        -31    1    1    2    0    0  0.21301279692E+00  0.79594749436E+00  0.63981394687E+02  0.64418605224E+02  0.74470750000E+01 0.  1.
<mgrwt>
<rscale>  0 0.15019640E+02</rscale>
<asrwt>0</asrwt>
<pdfrwt beam="1">  1        2 0.99812873E+00 0.15019640E+02</pdfrwt>
<pdfrwt beam="2">  1       -2 0.99617778E+00 0.15019640E+02</pdfrwt>
<totfact>-0.57158920E-14</totfact>
</mgrwt>
</event>
<event>
 4    1 -0.4996155E-019  0.1501606E+02  0.7818608E-02  0.1867579E+00
         -2   -1    0    0    0  501 -0.00000000000E+00  0.00000000000E+00  0.12001465276E+03  0.12001465278E+03  0.25500000000E-02 0.  1.
          2   -1    0    0  501    0  0.00000000000E+00 -0.00000000000E+00 -0.46969375755E+00  0.46970067956E+00  0.25500000000E-02 0. -1.
         31    1    1    2    0    0 -0.31624847155E+00  0.45491741678E+00  0.66011711729E+02  0.66432762808E+02  0.74470750000E+01 0.  1.
        -31    1    1    2    0    0  0.31624847155E+00 -0.45491741678E+00  0.53533247270E+02  0.54051590655E+02  0.74470750000E+01 0. -1.
<mgrwt>
<rscale>  0 0.15016065E+02</rscale>
<asrwt>0</asrwt>
<pdfrwt beam="2">  1        2 0.99758243E+00 0.15016065E+02</pdfrwt>
<pdfrwt beam="1">  1       -2 0.99624893E+00 0.15016065E+02</pdfrwt>
<totfact>-0.68902867E-14</totfact>
</mgrwt>
</event>
<event>
 4    1 -0.4996155E-019  0.1499754E+02  0.7818608E-02  0.1868143E+00
          2   -1    0    0  501    0  0.00000000000E+00  0.00000000000E+00  0.12026898382E+03  0.12026898384E+03  0.25500000000E-02 0.  1.
         -2   -1    0    0    0  501 -0.00000000000E+00 -0.00000000000E+00 -0.46754496433E+00  0.46755191816E+00  0.25500000000E-02 0. -1.
         31    1    1    2    0    0 -0.14810541425E+00 -0.67412163679E+00  0.64282677506E+02  0.64716287970E+02  0.74470750000E+01 0.  1.
        -31    1    1    2    0    0  0.14810541425E+00  0.67412163679E+00  0.55518761345E+02  0.56020247791E+02  0.74470750000E+01 0. -1.
<mgrwt>
<rscale>  0 0.14997544E+02</rscale>
<asrwt>0</asrwt>
<pdfrwt beam="1">  1        2 0.99833415E+00 0.14997544E+02</pdfrwt>
<pdfrwt beam="2">  1       -2 0.99304454E+00 0.14997544E+02</pdfrwt>
<totfact>-0.49505376E-14</totfact>
</mgrwt>
</event>
<event>
 4    1 -0.4996155E-019  0.1491839E+02  0.7818608E-02  0.1870569E+00
         -2   -1    0    0    0  501 -0.00000000000E+00  0.00000000000E+00  0.12004649275E+03  0.12004649278E+03  0.25500000000E-02 0. -1.
          2   -1    0    0  501    0  0.00000000000E+00 -0.00000000000E+00 -0.46347996284E+00  0.46348697765E+00  0.25500000000E-02 0.  1.
         31    1    1    2    0    0  0.31206618640E+00  0.28697718677E+00  0.60033985136E+02  0.60495603465E+02  0.74470750000E+01 0. -1.
        -31    1    1    2    0    0 -0.31206618640E+00 -0.28697718677E+00  0.59549027652E+02  0.60014376291E+02  0.74470750000E+01 0.  1.
<mgrwt>
<rscale>  0 0.14918387E+02</rscale>
<asrwt>0</asrwt>
<pdfrwt beam="2">  1        2 0.98443693E+00 0.14918387E+02</pdfrwt>
<pdfrwt beam="1">  1       -2 0.99646083E+00 0.14918387E+02</pdfrwt>
<totfact>-0.33652487E-13</totfact>
</mgrwt>
</event>
<event>
 4    1 -0.4996155E-019  0.1494129E+02  0.7818608E-02  0.1869865E+00
         -2   -1    0    0    0  501 -0.00000000000E+00  0.00000000000E+00  0.11981465688E+03  0.11981465690E+03  0.25500000000E-02 0. -1.
          2   -1    0    0  501    0  0.00000000000E+00 -0.00000000000E+00 -0.46580345210E+00  0.46581043192E+00  0.25500000000E-02 0.  1.
         31    1    1    2    0    0 -0.32989867906E+00  0.15738782121E+00  0.55915987201E+02  0.56410904573E+02  0.74470750000E+01 0. -1.
        -31    1    1    2    0    0  0.32989867906E+00 -0.15738782121E+00  0.63432866224E+02  0.63869562763E+02  0.74470750000E+01 0. -1.
<mgrwt>
<rscale>  0 0.14941285E+02</rscale>
<asrwt>0</asrwt>
<pdfrwt beam="2">  1        2 0.98934550E+00 0.14941285E+02</pdfrwt>
<pdfrwt beam="1">  1       -2 0.99456306E+00 0.14941285E+02</pdfrwt>
<totfact>-0.19094690E-13</totfact>
</mgrwt>
</event>
<event>
 4    1 -0.4996155E-019  0.1489729E+02  0.7818608E-02  0.1871219E+00
         -2   -1    0    0    0  501 -0.00000000000E+00  0.00000000000E+00  0.11942004973E+03  0.11942004976E+03  0.25500000000E-02 0.  1.
          2   -1    0    0  501    0  0.00000000000E+00 -0.00000000000E+00 -0.46459418579E+00  0.46460118378E+00  0.25500000000E-02 0. -1.
         31    1    1    2    0    0 -0.11290809188E+00 -0.64077574153E-01  0.60126613524E+02  0.60586181874E+02  0.74470750000E+01 0.  1.
        -31    1    1    2    0    0  0.11290809188E+00  0.64077574153E-01  0.58828842020E+02  0.59298469067E+02  0.74470750000E+01 0. -1.
<mgrwt>
<rscale>  0 0.14897286E+02</rscale>
<asrwt>0</asrwt>
<pdfrwt beam="2">  1        2 0.98677443E+00 0.14897286E+02</pdfrwt>
<pdfrwt beam="1">  1       -2 0.99129017E+00 0.14897286E+02</pdfrwt>
<totfact>-0.11923997E-13</totfact>
</mgrwt>
</event>
<event>
 4    1  0.4996155E-019  0.1491220E+02  0.7818608E-02  0.1870760E+00
          2   -1    0    0  501    0  0.00000000000E+00  0.00000000000E+00  0.12025968087E+03  0.12025968089E+03  0.25500000000E-02 0. -1.
         -2   -1    0    0    0  501 -0.00000000000E+00 -0.00000000000E+00 -0.46227481495E+00  0.46228184805E+00  0.25500000000E-02 0.  1.
         31    1    1    2    0    0 -0.25825065057E+00  0.59302775097E-01  0.57845702082E+02  0.58323703462E+02  0.74470750000E+01 0. -1.
        -31    1    1    2    0    0  0.25825065057E+00 -0.59302775097E-01  0.61951703970E+02  0.62398259279E+02  0.74470750000E+01 0. -1.
<mgrwt>
<rscale>  0 0.14912203E+02</rscale>
<asrwt>0</asrwt>
<pdfrwt beam="1">  1        2 0.99821365E+00 0.14912203E+02</pdfrwt>
<pdfrwt beam="2">  1       -2 0.98189371E+00 0.14912203E+02</pdfrwt>
<totfact> 0.50346284E-13</totfact>
</mgrwt>
</event>
<event>
 4    1 -0.4996155E-019  0.1497018E+02  0.7818608E-02  0.1868980E+00
          2   -1    0    0  501    0  0.00000000000E+00  0.00000000000E+00  0.11950694480E+03  0.11950694482E+03  0.25500000000E-02 0. -1.
         -2   -1    0    0    0  501 -0.00000000000E+00 -0.00000000000E+00 -0.46881085762E+00  0.46881779267E+00  0.25500000000E-02 0.  1.
         31    1    1    2    0    0 -0.69707028827E+00 -0.24836490946E+00  0.60653956529E+02  0.61113901534E+02  0.74470750000E+01 0.  1.
        -31    1    1    2    0    0  0.69707028827E+00  0.24836490946E+00  0.58384177411E+02  0.58861861083E+02  0.74470750000E+01 0. -1.
<mgrwt>
<rscale>  0 0.14970180E+02</rscale>
<asrwt>0</asrwt>
<pdfrwt beam="1">  1        2 0.99204355E+00 0.14970180E+02</pdfrwt>
<pdfrwt beam="2">  1       -2 0.99569811E+00 0.14970180E+02</pdfrwt>
<totfact>-0.14564794E-13</totfact>
</mgrwt>
</event>
<event>
 4    1  0.4996155E-019  0.1490921E+02  0.7818608E-02  0.1870852E+00
         -2   -1    0    0    0  501 -0.00000000000E+00  0.00000000000E+00  0.11867635618E+03  0.11867635620E+03  0.25500000000E-02 0.  1.
          2   -1    0    0  501    0  0.00000000000E+00 -0.00000000000E+00 -0.46825459162E+00  0.46826153491E+00  0.25500000000E-02 0. -1.
         31    1    1    2    0    0  0.20962019151E+00  0.92955236371E-01  0.61055912004E+02  0.61508827805E+02  0.74470750000E+01 0.  1.
        -31    1    1    2    0    0 -0.20962019151E+00 -0.92955236371E-01  0.57152189581E+02  0.57635789934E+02  0.74470750000E+01 0. -1.
<mgrwt>
<rscale>  0 0.14909214E+02</rscale>
<asrwt>0</asrwt>
<pdfrwt beam="2">  1        2 0.99449413E+00 0.14909214E+02</pdfrwt>
<pdfrwt beam="1">  1       -2 0.98517106E+00 0.14909214E+02</pdfrwt>
<totfact> 0.48463424E-13</totfact>
</mgrwt>
</event>
<event>
 4    1 -0.4996155E-019  0.1499415E+02  0.7818608E-02  0.1868247E+00
         -2   -1    0    0    0  501 -0.00000000000E+00  0.00000000000E+00  0.12018564100E+03  0.12018564103E+03  0.25500000000E-02 0. -1.
          2   -1    0    0  501    0  0.00000000000E+00 -0.00000000000E+00 -0.46765769126E+00  0.46766464341E+00  0.25500000000E-02 0.  1.
         31    1    1    2    0    0 -0.58463324162E+00  0.47013007437E+00  0.63314537295E+02  0.63755410572E+02  0.74470750000E+01 0.  1.
        -31    1    1    2    0    0  0.58463324162E+00 -0.47013007437E+00  0.56403446014E+02  0.56897895098E+02  0.74470750000E+01 0.  1.
<mgrwt>
<rscale>  0 0.14994154E+02</rscale>
<asrwt>0</asrwt>
<pdfrwt beam="2">  1        2 0.99328037E+00 0.14994154E+02</pdfrwt>
<pdfrwt beam="1">  1       -2 0.99764595E+00 0.14994154E+02</pdfrwt>
<totfact>-0.93189973E-14</totfact>
</mgrwt>
</event>
<event>
 4    1 -0.4996155E-019  0.1493185E+02  0.7818608E-02  0.1870155E+00
         -2   -1    0    0    0  501 -0.00000000000E+00  0.00000000000E+00  0.12009267051E+03  0.12009267054E+03  0.25500000000E-02 0.  1.
          2   -1    0    0  501    0  0.00000000000E+00 -0.00000000000E+00 -0.46413863010E+00  0.46414563496E+00  0.25500000000E-02 0. -1.
         31    1    1    2    0    0  0.42467978606E+00 -0.31479798213E+00  0.60146638274E+02  0.60608221162E+02  0.74470750000E+01 0.  1.
        -31    1    1    2    0    0 -0.42467978606E+00  0.31479798213E+00  0.59481893606E+02  0.59948595011E+02  0.74470750000E+01 0. -1.
<mgrwt>
<rscale>  0 0.14931855E+02</rscale>
<asrwt>0</asrwt>
<pdfrwt beam="2">  1        2 0.98583199E+00 0.14931855E+02</pdfrwt>
<pdfrwt beam="1">  1       -2 0.99684811E+00 0.14931855E+02</pdfrwt>
<totfact>-0.25136949E-13</totfact>
</mgrwt>
</event>
<event>
 4    1  0.4996155E-019  0.1492812E+02  0.7818608E-02  0.1870270E+00
          2   -1    0    0  501    0  0.00000000000E+00  0.00000000000E+00  0.12010823494E+03  0.12010823497E+03  0.25500000000E-02 0.  1.
         -2   -1    0    0    0  501 -0.00000000000E+00 -0.00000000000E+00 -0.46384623458E+00  0.46385324386E+00  0.25500000000E-02 0. -1.
         31    1    1    2    0    0  0.28323766723E+00 -0.35488981027E+00  0.61574707796E+02  0.62025073451E+02  0.74470750000E+01 0. -1.
        -31    1    1    2    0    0 -0.28323766723E+00  0.35488981027E+00  0.58069680913E+02  0.58547014763E+02  0.74470750000E+01 0. -1.
<mgrwt>
<rscale>  0 0.14928118E+02</rscale>
<asrwt>0</asrwt>
<pdfrwt beam="1">  1        2 0.99697439E+00 0.14928118E+02</pdfrwt>
<pdfrwt beam="2">  1       -2 0.98521383E+00 0.14928118E+02</pdfrwt>
<totfact> 0.33850703E-13</totfact>
</mgrwt>
</event>
<event>
 4    1  0.4996155E-019  0.1492039E+02  0.7818608E-02  0.1870508E+00
          2   -1    0    0  501    0  0.00000000000E+00  0.00000000000E+00  0.12006014141E+03  0.12006014144E+03  0.25500000000E-02 0. -1.
         -2   -1    0    0    0  501 -0.00000000000E+00 -0.00000000000E+00 -0.46355189188E+00  0.46355890561E+00  0.25500000000E-02 0.  1.
         31    1    1    2    0    0 -0.64779387147E-01 -0.84544521106E-01  0.56330866545E+02  0.56821094638E+02  0.74470750000E+01 0.  1.
        -31    1    1    2    0    0  0.64779387147E-01  0.84544521106E-01  0.63265722975E+02  0.63702605706E+02  0.74470750000E+01 0. -1.
<mgrwt>
<rscale>  0 0.14920393E+02</rscale>
<asrwt>0</asrwt>
<pdfrwt beam="1">  1        2 0.99657428E+00 0.14920393E+02</pdfrwt>
<pdfrwt beam="2">  1       -2 0.98458954E+00 0.14920393E+02</pdfrwt>
<totfact> 0.43690438E-13</totfact>
</mgrwt>
</event>
<event>
 4    1  0.4996155E-019  0.1493477E+02  0.7818608E-02  0.1870065E+00
          2   -1    0    0  501    0  0.00000000000E+00  0.00000000000E+00  0.12013668166E+03  0.12013668169E+03  0.25500000000E-02 0. -1.
         -2   -1    0    0    0  501 -0.00000000000E+00 -0.00000000000E+00 -0.46414992060E+00  0.46415692529E+00  0.25500000000E-02 0.  1.
         31    1    1    2    0    0  0.13842584898E+00 -0.30491078831E+00  0.56309006507E+02  0.56800310493E+02  0.74470750000E+01 0.  1.
        -31    1    1    2    0    0 -0.13842584898E+00  0.30491078831E+00  0.63363525235E+02  0.63800528121E+02  0.74470750000E+01 0. -1.
<mgrwt>
<rscale>  0 0.14934772E+02</rscale>
<asrwt>0</asrwt>
<pdfrwt beam="1">  1        2 0.99721211E+00 0.14934772E+02</pdfrwt>
<pdfrwt beam="2">  1       -2 0.98585727E+00 0.14934772E+02</pdfrwt>
<totfact> 0.26248241E-13</totfact>
</mgrwt>
</event>
<event>
 4    1 -0.4996155E-019  0.1497513E+02  0.7818608E-02  0.1868828E+00
          2   -1    0    0  501    0  0.00000000000E+00  0.00000000000E+00  0.11953961057E+03  0.11953961060E+03  0.25500000000E-02 0.  1.
         -2   -1    0    0    0  501 -0.00000000000E+00 -0.00000000000E+00 -0.46899284612E+00  0.46899977848E+00  0.25500000000E-02 0. -1.
         31    1    1    2    0    0 -0.42276663127E+00 -0.49287055458E+00  0.56106530945E+02  0.56602326753E+02  0.74470750000E+01 0. -1.
        -31    1    1    2    0    0  0.42276663127E+00  0.49287055458E+00  0.62964086780E+02  0.63406283625E+02  0.74470750000E+01 0.  1.
<mgrwt>
<rscale>  0 0.14975131E+02</rscale>
<asrwt>0</asrwt>
<pdfrwt beam="1">  1        2 0.99231516E+00 0.14975131E+02</pdfrwt>
<pdfrwt beam="2">  1       -2 0.99608417E+00 0.14975131E+02</pdfrwt>
<totfact>-0.13754995E-13</totfact>
</mgrwt>
</event>
<event>
 4    1  0.4996155E-019  0.1494287E+02  0.7818608E-02  0.1869817E+00
          2   -1    0    0  501    0  0.00000000000E+00  0.00000000000E+00  0.12017504253E+03  0.12017504255E+03  0.25500000000E-02 0.  1.
         -2   -1    0    0    0  501 -0.00000000000E+00 -0.00000000000E+00 -0.46450491784E+00  0.46451191717E+00  0.25500000000E-02 0. -1.
         31    1    1    2    0    0  0.25324687193E+00  0.37813709772E+00  0.63046804318E+02  0.63486735484E+02  0.74470750000E+01 0. -1.
        -31    1    1    2    0    0 -0.25324687193E+00 -0.37813709772E+00  0.56663733290E+02  0.57152818986E+02  0.74470750000E+01 0. -1.
<mgrwt>
<rscale>  0 0.14942867E+02</rscale>
<asrwt>0</asrwt>
<pdfrwt beam="1">  1        2 0.99753224E+00 0.14942867E+02</pdfrwt>
<pdfrwt beam="2">  1       -2 0.98660959E+00 0.14942867E+02</pdfrwt>
<totfact> 0.18475907E-13</totfact>
</mgrwt>
</event>
<event>
 4    1 -0.4996155E-019  0.1492262E+02  0.7818608E-02  0.1870439E+00
         -2   -1    0    0    0  501 -0.00000000000E+00  0.00000000000E+00  0.11985523110E+03  0.11985523113E+03  0.25500000000E-02 0.  1.
          2   -1    0    0  501    0  0.00000000000E+00 -0.00000000000E+00 -0.46448326922E+00  0.46449026888E+00  0.25500000000E-02 0. -1.
         31    1    1    2    0    0  0.40181513333E+00 -0.16230113189E-01  0.57882968918E+02  0.58361449054E+02  0.74470750000E+01 0. -1.
        -31    1    1    2    0    0 -0.40181513333E+00  0.16230113189E-01  0.61507778914E+02  0.61958272344E+02  0.74470750000E+01 0.  1.
<mgrwt>
<rscale>  0 0.14922623E+02</rscale>
<asrwt>0</asrwt>
<pdfrwt beam="2">  1        2 0.98655365E+00 0.14922623E+02</pdfrwt>
<pdfrwt beam="1">  1       -2 0.99488764E+00 0.14922623E+02</pdfrwt>
<totfact>-0.27309968E-13</totfact>
</mgrwt>
</event>
<event>
 4    1 -0.4996155E-019  0.1500311E+02  0.7818608E-02  0.1867974E+00
         -2   -1    0    0    0  501 -0.00000000000E+00  0.00000000000E+00  0.11995169298E+03  0.11995169301E+03  0.25500000000E-02 0.  1.
          2   -1    0    0  501    0  0.00000000000E+00 -0.00000000000E+00 -0.46912980901E+00  0.46913673935E+00  0.25500000000E-02 0. -1.
         31    1    1    2    0    0 -0.23077955115E+00 -0.84023504777E+00  0.57856300571E+02  0.58340120809E+02  0.74470750000E+01 0. -1.
        -31    1    1    2    0    0  0.23077955115E+00  0.84023504777E+00  0.61626262600E+02  0.62080708938E+02  0.74470750000E+01 0.  1.
<mgrwt>
<rscale>  0 0.15003111E+02</rscale>
<asrwt>0</asrwt>
<pdfrwt beam="2">  1        2 0.99638731E+00 0.15003111E+02</pdfrwt>
<pdfrwt beam="1">  1       -2 0.99572367E+00 0.15003111E+02</pdfrwt>
<totfact>-0.95648146E-14</totfact>
</mgrwt>
</event>
<event>
 4    1 -0.4996155E-019  0.1501011E+02  0.7818608E-02  0.1867760E+00
         -2   -1    0    0    0  501 -0.00000000000E+00  0.00000000000E+00  0.11995517950E+03  0.11995517953E+03  0.25500000000E-02 0.  1.
          2   -1    0    0  501    0  0.00000000000E+00 -0.00000000000E+00 -0.46955410402E+00  0.46956102809E+00  0.25500000000E-02 0. -1.
         31    1    1    2    0    0 -0.16581423536E-01  0.92433908307E+00  0.58854417726E+02  0.59330903327E+02  0.74470750000E+01 0. -1.
        -31    1    1    2    0    0  0.16581423536E-01 -0.92433908307E+00  0.60631207675E+02  0.61093837233E+02  0.74470750000E+01 0.  1.
<mgrwt>
<rscale>  0 0.15010112E+02</rscale>
<asrwt>0</asrwt>
<pdfrwt beam="2">  1        2 0.99728505E+00 0.15010112E+02</pdfrwt>
<pdfrwt beam="1">  1       -2 0.99575601E+00 0.15010112E+02</pdfrwt>
<totfact>-0.78972651E-14</totfact>
</mgrwt>
</event>
<event>
 4    1 -0.4996155E-019  0.1498764E+02  0.7818608E-02  0.1868446E+00
         -2   -1    0    0    0  501 -0.00000000000E+00  0.00000000000E+00  0.11956633248E+03  0.11956633251E+03  0.25500000000E-02 0.  1.
          2   -1    0    0  501    0  0.00000000000E+00 -0.00000000000E+00 -0.46967166817E+00  0.46967859051E+00  0.25500000000E-02 0. -1.
         31    1    1    2    0    0  0.48256555954E+00  0.69934904628E-01  0.64984131990E+02  0.65411268884E+02  0.74470750000E+01 0.  1.
        -31    1    1    2    0    0 -0.48256555954E+00 -0.69934904628E-01  0.54112528822E+02  0.54624742214E+02  0.74470750000E+01 0. -1.
<mgrwt>
<rscale>  0 0.14987640E+02</rscale>
<asrwt>0</asrwt>
<pdfrwt beam="2">  1        2 0.99752112E+00 0.14987640E+02</pdfrwt>
<pdfrwt beam="1">  1       -2 0.99254172E+00 0.14987640E+02</pdfrwt>
<totfact>-0.60452126E-14</totfact>
</mgrwt>
</event>
<event>
 4    1 -0.4996155E-019  0.1497295E+02  0.7818608E-02  0.1868895E+00
         -2   -1    0    0    0  501 -0.00000000000E+00  0.00000000000E+00  0.12016951427E+03  0.12016951430E+03  0.25500000000E-02 0.  1.
          2   -1    0    0  501    0  0.00000000000E+00 -0.00000000000E+00 -0.46639865069E+00  0.46640562161E+00  0.25500000000E-02 0. -1.
         31    1    1    2    0    0 -0.68490852109E+00  0.26708253612E+00  0.58087062342E+02  0.58567108264E+02  0.74470750000E+01 0. -1.
        -31    1    1    2    0    0  0.68490852109E+00 -0.26708253612E+00  0.61616053277E+02  0.62068811655E+02  0.74470750000E+01 0.  1.
<mgrwt>
<rscale>  0 0.14972952E+02</rscale>
<asrwt>0</asrwt>
<pdfrwt beam="2">  1        2 0.99061609E+00 0.14972952E+02</pdfrwt>
<pdfrwt beam="1">  1       -2 0.99750219E+00 0.14972952E+02</pdfrwt>
<totfact>-0.11913080E-13</totfact>
</mgrwt>
</event>
<event>
 4    1  0.4996155E-019  0.1494650E+02  0.7818608E-02  0.1869705E+00
         -2   -1    0    0    0  501 -0.00000000000E+00  0.00000000000E+00  0.11894158759E+03  0.11894158761E+03  0.25500000000E-02 0.  1.
          2   -1    0    0  501    0  0.00000000000E+00 -0.00000000000E+00 -0.46955027830E+00  0.46955720243E+00  0.25500000000E-02 0. -1.
         31    1    1    2    0    0  0.56987081481E+00  0.22121037063E+00  0.60273320928E+02  0.60734716831E+02  0.74470750000E+01 0. -1.
        -31    1    1    2    0    0 -0.56987081481E+00 -0.22121037063E+00  0.58198716381E+02  0.58676427986E+02  0.74470750000E+01 0. -1.
<mgrwt>
<rscale>  0 0.14946501E+02</rscale>
<asrwt>0</asrwt>
<pdfrwt beam="2">  1        2 0.99724383E+00 0.14946501E+02</pdfrwt>
<pdfrwt beam="1">  1       -2 0.98737489E+00 0.14946501E+02</pdfrwt>
<totfact> 0.14520356E-13</totfact>
</mgrwt>
</event>
<event>
 4    1  0.4996155E-019  0.1490188E+02  0.7818608E-02  0.1871077E+00
         -2   -1    0    0    0  501 -0.00000000000E+00  0.00000000000E+00  0.11794977703E+03  0.11794977706E+03  0.25500000000E-02 0.  1.
          2   -1    0    0  501    0  0.00000000000E+00 -0.00000000000E+00 -0.47067591699E+00  0.47068282456E+00  0.25500000000E-02 0. -1.
         31    1    1    2    0    0 -0.10300384647E+00 -0.16914100638E+00  0.59817067499E+02  0.60279181387E+02  0.74470750000E+01 0.  1.
        -31    1    1    2    0    0  0.10300384647E+00  0.16914100638E+00  0.57662033619E+02  0.58141278500E+02  0.74470750000E+01 0.  1.
<mgrwt>
<rscale>  0 0.14901883E+02</rscale>
<asrwt>0</asrwt>
<pdfrwt beam="2">  1        2 0.99959190E+00 0.14901883E+02</pdfrwt>
<pdfrwt beam="1">  1       -2 0.97918322E+00 0.14901883E+02</pdfrwt>
<totfact> 0.21612881E-13</totfact>
</mgrwt>
</event>
<event>
 4    1 -0.4996155E-019  0.1492674E+02  0.7818608E-02  0.1870312E+00
         -2   -1    0    0    0  501 -0.00000000000E+00  0.00000000000E+00  0.11995386890E+03  0.11995386892E+03  0.25500000000E-02 0. -1.
          2   -1    0    0  501    0  0.00000000000E+00 -0.00000000000E+00 -0.46435740805E+00  0.46436440961E+00  0.25500000000E-02 0.  1.
         31    1    1    2    0    0 -0.80359830939E-01  0.48406327120E+00  0.59367242482E+02  0.59834514964E+02  0.74470750000E+01 0.  1.
        -31    1    1    2    0    0  0.80359830939E-01 -0.48406327120E+00  0.60122269006E+02  0.60583718370E+02  0.74470750000E+01 0.  1.
<mgrwt>
<rscale>  0 0.14926740E+02</rscale>
<asrwt>0</asrwt>
<pdfrwt beam="2">  1        2 0.98629049E+00 0.14926740E+02</pdfrwt>
<pdfrwt beam="1">  1       -2 0.99570221E+00 0.14926740E+02</pdfrwt>
<totfact>-0.27360289E-13</totfact>
</mgrwt>
</event>
<event>
 4    1 -0.4996155E-019  0.1499434E+02  0.7818608E-02  0.1868241E+00
         -2   -1    0    0    0  501 -0.00000000000E+00  0.00000000000E+00  0.11987724516E+03  0.11987724519E+03  0.25500000000E-02 0.  1.
          2   -1    0    0  501    0  0.00000000000E+00 -0.00000000000E+00 -0.46887217998E+00  0.46887911412E+00  0.25500000000E-02 0. -1.
         31    1    1    2    0    0  0.57848546987E+00  0.14137123121E+00  0.64741914486E+02  0.65171535571E+02  0.74470750000E+01 0.  1.
        -31    1    1    2    0    0 -0.57848546987E+00 -0.14137123121E+00  0.54666458498E+02  0.55174588735E+02  0.74470750000E+01 0. -1.
<mgrwt>
<rscale>  0 0.14994335E+02</rscale>
<asrwt>0</asrwt>
<pdfrwt beam="2">  1        2 0.99583986E+00 0.14994335E+02</pdfrwt>
<pdfrwt beam="1">  1       -2 0.99510596E+00 0.14994335E+02</pdfrwt>
<totfact>-0.10765452E-13</totfact>
</mgrwt>
</event>
<event>
 4    1 -0.4996155E-019  0.1495395E+02  0.7818608E-02  0.1869477E+00
         -2   -1    0    0    0  501 -0.00000000000E+00  0.00000000000E+00  0.12027320425E+03  0.12027320428E+03  0.25500000000E-02 0.  1.
          2   -1    0    0  501    0  0.00000000000E+00 -0.00000000000E+00 -0.46481426502E+00  0.46482125970E+00  0.25500000000E-02 0. -1.
         31    1    1    2    0    0 -0.17255551205E+00 -0.55450536590E+00  0.57239199786E+02  0.57724536982E+02  0.74470750000E+01 0. -1.
        -31    1    1    2    0    0  0.17255551205E+00  0.55450536590E+00  0.62569190197E+02  0.63013488553E+02  0.74470750000E+01 0.  1.
<mgrwt>
<rscale>  0 0.14953946E+02</rscale>
<asrwt>0</asrwt>
<pdfrwt beam="2">  1        2 0.98726720E+00 0.14953946E+02</pdfrwt>
<pdfrwt beam="1">  1       -2 0.99834647E+00 0.14953946E+02</pdfrwt>
<totfact>-0.12496658E-13</totfact>
</mgrwt>
</event>
<event>
 4    1 -0.4996155E-019  0.1493227E+02  0.7818608E-02  0.1870142E+00
         -2   -1    0    0    0  501 -0.00000000000E+00  0.00000000000E+00  0.11979225489E+03  0.11979225491E+03  0.25500000000E-02 0.  1.
          2   -1    0    0  501    0  0.00000000000E+00 -0.00000000000E+00 -0.46532841154E+00  0.46533539849E+00  0.25500000000E-02 0. -1.
         31    1    1    2    0    0  0.21393853162E+00  0.42093838158E+00  0.61657044240E+02  0.62106947995E+02  0.74470750000E+01 0. -1.
        -31    1    1    2    0    0 -0.21393853162E+00 -0.42093838158E+00  0.57669882236E+02  0.58150642317E+02  0.74470750000E+01 0.  1.
<mgrwt>
<rscale>  0 0.14932269E+02</rscale>
<asrwt>0</asrwt>
<pdfrwt beam="2">  1        2 0.98833973E+00 0.14932269E+02</pdfrwt>
<pdfrwt beam="1">  1       -2 0.99437390E+00 0.14932269E+02</pdfrwt>
<totfact>-0.21321771E-13</totfact>
</mgrwt>
</event>
<event>
 4    1 -0.4996155E-019  0.1494100E+02  0.7818608E-02  0.1869874E+00
          2   -1    0    0  501    0  0.00000000000E+00  0.00000000000E+00  0.11924444112E+03  0.11924444115E+03  0.25500000000E-02 0.  1.
         -2   -1    0    0    0  501 -0.00000000000E+00 -0.00000000000E+00 -0.46801296954E+00  0.46801991641E+00  0.25500000000E-02 0. -1.
         31    1    1    2    0    0 -0.28905623243E+00 -0.40770948091E+00  0.56858851275E+02  0.57346644844E+02  0.74470750000E+01 0. -1.
        -31    1    1    2    0    0  0.28905623243E+00  0.40770948091E+00  0.61917576874E+02  0.62365816218E+02  0.74470750000E+01 0.  1.
<mgrwt>
<rscale>  0 0.14940999E+02</rscale>
<asrwt>0</asrwt>
<pdfrwt beam="1">  1        2 0.98986639E+00 0.14940999E+02</pdfrwt>
<pdfrwt beam="2">  1       -2 0.99400159E+00 0.14940999E+02</pdfrwt>
<totfact>-0.17703610E-13</totfact>
</mgrwt>
</event>
<event>
 4    1 -0.4996155E-019  0.1499046E+02  0.7818608E-02  0.1868360E+00
         -2   -1    0    0    0  501 -0.00000000000E+00  0.00000000000E+00  0.11994338757E+03  0.11994338759E+03  0.25500000000E-02 0.  1.
          2   -1    0    0  501    0  0.00000000000E+00 -0.00000000000E+00 -0.46837111364E+00  0.46837805520E+00  0.25500000000E-02 0. -1.
         31    1    1    2    0    0  0.46990192960E+00  0.12584495967E+00  0.54155792143E+02  0.54667589973E+02  0.74470750000E+01 0. -1.
        -31    1    1    2    0    0 -0.46990192960E+00 -0.12584495967E+00  0.65319224310E+02  0.65744175675E+02  0.74470750000E+01 0.  1.
<mgrwt>
<rscale>  0 0.14990455E+02</rscale>
<asrwt>0</asrwt>
<pdfrwt beam="2">  1        2 0.99478193E+00 0.14990455E+02</pdfrwt>
<pdfrwt beam="1">  1       -2 0.99564873E+00 0.14990455E+02</pdfrwt>
<totfact>-0.11814742E-13</totfact>
</mgrwt>
</event>
<event>
 4    1 -0.4996155E-019  0.1492090E+02  0.7818608E-02  0.1870492E+00
         -2   -1    0    0    0  501 -0.00000000000E+00  0.00000000000E+00  0.12012041860E+03  0.12012041863E+03  0.25500000000E-02 0. -1.
          2   -1    0    0  501    0  0.00000000000E+00 -0.00000000000E+00 -0.46335096060E+00  0.46335797737E+00  0.25500000000E-02 0.  1.
         31    1    1    2    0    0  0.35613650487E+00  0.26042774473E+00  0.60385758690E+02  0.60844830795E+02  0.74470750000E+01 0.  1.
        -31    1    1    2    0    0 -0.35613650487E+00 -0.26042774473E+00  0.59271308949E+02  0.59738945810E+02  0.74470750000E+01 0. -1.
<mgrwt>
<rscale>  0 0.14920903E+02</rscale>
<asrwt>0</asrwt>
<pdfrwt beam="2">  1        2 0.98416631E+00 0.14920903E+02</pdfrwt>
<pdfrwt beam="1">  1       -2 0.99707103E+00 0.14920903E+02</pdfrwt>
<totfact>-0.31388966E-13</totfact>
</mgrwt>
</event>
<event>
 4    1 -0.4996155E-019  0.1490457E+02  0.7818608E-02  0.1870995E+00
          2   -1    0    0  501    0  0.00000000000E+00  0.00000000000E+00  0.11849637213E+03  0.11849637215E+03  0.25500000000E-02 0.  1.
         -2   -1    0    0    0  501 -0.00000000000E+00 -0.00000000000E+00 -0.46867396222E+00  0.46868089929E+00  0.25500000000E-02 0. -1.
         31    1    1    2    0    0 -0.34849084312E-01 -0.89933022383E-01  0.56927104842E+02  0.57412224257E+02  0.74470750000E+01 0. -1.
        -31    1    1    2    0    0  0.34849084312E-01  0.89933022383E-01  0.61100593323E+02  0.61552828796E+02  0.74470750000E+01 0.  1.
<mgrwt>
<rscale>  0 0.14904574E+02</rscale>
<asrwt>0</asrwt>
<pdfrwt beam="1">  1        2 0.98368629E+00 0.14904574E+02</pdfrwt>
<pdfrwt beam="2">  1       -2 0.99537533E+00 0.14904574E+02</pdfrwt>
<totfact>-0.42541027E-13</totfact>
</mgrwt>
</event>
<event>
 4    1 -0.4996155E-019  0.1496516E+02  0.7818608E-02  0.1869134E+00
         -2   -1    0    0    0  501 -0.00000000000E+00  0.00000000000E+00  0.11978288741E+03  0.11978288744E+03  0.25500000000E-02 0. -1.
          2   -1    0    0  501    0  0.00000000000E+00 -0.00000000000E+00 -0.46741715586E+00  0.46742411159E+00  0.25500000000E-02 0.  1.
         31    1    1    2    0    0 -0.57581711003E+00  0.31087324226E+00  0.62222294395E+02  0.62669777831E+02  0.74470750000E+01 0. -1.
        -31    1    1    2    0    0  0.57581711003E+00 -0.31087324226E+00  0.57093175863E+02  0.57580533722E+02  0.74470750000E+01 0.  1.
<mgrwt>
<rscale>  0 0.14965159E+02</rscale>
<asrwt>0</asrwt>
<pdfrwt beam="2">  1        2 0.99275854E+00 0.14965159E+02</pdfrwt>
<pdfrwt beam="1">  1       -2 0.99431371E+00 0.14965159E+02</pdfrwt>
<totfact>-0.14252956E-13</totfact>
</mgrwt>
</event>
<event>
 4    1 -0.4996155E-019  0.1494953E+02  0.7818608E-02  0.1869612E+00
          2   -1    0    0  501    0  0.00000000000E+00  0.00000000000E+00  0.11920211037E+03  0.11920211040E+03  0.25500000000E-02 0.  1.
         -2   -1    0    0    0  501 -0.00000000000E+00 -0.00000000000E+00 -0.46871409285E+00  0.46872102933E+00  0.25500000000E-02 0. -1.
         31    1    1    2    0    0  0.38053317737E+00  0.50981228768E+00  0.60104095572E+02  0.60567036782E+02  0.74470750000E+01 0. -1.
        -31    1    1    2    0    0 -0.38053317737E+00 -0.50981228768E+00  0.58629300709E+02  0.59103794648E+02  0.74470750000E+01 0. -1.
<mgrwt>
<rscale>  0 0.14949532E+02</rscale>
<asrwt>0</asrwt>
<pdfrwt beam="1">  1        2 0.98952216E+00 0.14949532E+02</pdfrwt>
<pdfrwt beam="2">  1       -2 0.99548345E+00 0.14949532E+02</pdfrwt>
<totfact>-0.18351173E-13</totfact>
</mgrwt>
</event>
<event>
 4    1  0.4996155E-019  0.1490000E+02  0.7818608E-02  0.1871135E+00
          2   -1    0    0  501    0  0.00000000000E+00  0.00000000000E+00  0.12028633435E+03  0.12028633438E+03  0.25500000000E-02 0.  1.
         -2   -1    0    0    0  501 -0.00000000000E+00 -0.00000000000E+00 -0.46141618753E+00  0.46142323372E+00  0.25500000000E-02 0. -1.
         31    1    1    2    0    0  0.16340650939E+00  0.45548447606E-01  0.60897886605E+02  0.61351774997E+02  0.74470750000E+01 0.  1.
        -31    1    1    2    0    0 -0.16340650939E+00 -0.45548447606E-01  0.58927031560E+02  0.59395982615E+02  0.74470750000E+01 0. -1.
<mgrwt>
<rscale>  0 0.14899999E+02</rscale>
<asrwt>0</asrwt>
<pdfrwt beam="1">  1        2 0.99842694E+00 0.14899999E+02</pdfrwt>
<pdfrwt beam="2">  1       -2 0.98007778E+00 0.14899999E+02</pdfrwt>
<totfact> 0.63227111E-13</totfact>
</mgrwt>
</event>
<event>
 4    1  0.4996155E-019  0.1491272E+02  0.7818608E-02  0.1870744E+00
          2   -1    0    0  501    0  0.00000000000E+00  0.00000000000E+00  0.12020117094E+03  0.12020117096E+03  0.25500000000E-02 0.  1.
         -2   -1    0    0    0  501 -0.00000000000E+00 -0.00000000000E+00 -0.46253174421E+00  0.46253877340E+00  0.25500000000E-02 0. -1.
         31    1    1    2    0    0 -0.17845157525E+00  0.29336023513E+00  0.58712182595E+02  0.59183589079E+02  0.74470750000E+01 0. -1.
        -31    1    1    2    0    0  0.17845157525E+00 -0.29336023513E+00  0.61026456597E+02  0.61480120657E+02  0.74470750000E+01 0. -1.
<mgrwt>
<rscale>  0 0.14912717E+02</rscale>
<asrwt>0</asrwt>
<pdfrwt beam="1">  1        2 0.99773198E+00 0.14912717E+02</pdfrwt>
<pdfrwt beam="2">  1       -2 0.98243551E+00 0.14912717E+02</pdfrwt>
<totfact> 0.54320943E-13</totfact>
</mgrwt>
</event>
<event>
 4    1 -0.4996155E-019  0.1495693E+02  0.7818608E-02  0.1869386E+00
         -2   -1    0    0    0  501 -0.00000000000E+00  0.00000000000E+00  0.12027246600E+03  0.12027246603E+03  0.25500000000E-02 0.  1.
          2   -1    0    0  501    0  0.00000000000E+00 -0.00000000000E+00 -0.46500263827E+00  0.46500963012E+00  0.25500000000E-02 0. -1.
         31    1    1    2    0    0  0.22750675762E-01  0.67531632231E+00  0.60785870752E+02  0.61244081991E+02  0.74470750000E+01 0.  1.
        -31    1    1    2    0    0 -0.22750675762E-01 -0.67531632231E+00  0.59021592611E+02  0.59493393668E+02  0.74470750000E+01 0. -1.
<mgrwt>
<rscale>  0 0.14956930E+02</rscale>
<asrwt>0</asrwt>
<pdfrwt beam="2">  1        2 0.98766574E+00 0.14956930E+02</pdfrwt>
<pdfrwt beam="1">  1       -2 0.99834192E+00 0.14956930E+02</pdfrwt>
<totfact>-0.11866361E-13</totfact>
</mgrwt>
</event>
<event>
 4    1 -0.4996155E-019  0.1491660E+02  0.7818608E-02  0.1870624E+00
          2   -1    0    0  501    0  0.00000000000E+00  0.00000000000E+00  0.11907947741E+03  0.11907947744E+03  0.25500000000E-02 0. -1.
         -2   -1    0    0    0  501 -0.00000000000E+00 -0.00000000000E+00 -0.46713216629E+00  0.46713912626E+00  0.25500000000E-02 0.  1.
         31    1    1    2    0    0  0.19585254870E+00  0.22879505242E+00  0.57087484172E+02  0.57571959151E+02  0.74470750000E+01 0.  1.
        -31    1    1    2    0    0 -0.19585254870E+00 -0.22879505242E+00  0.61524861074E+02  0.61974657414E+02  0.74470750000E+01 0. -1.
<mgrwt>
<rscale>  0 0.14916604E+02</rscale>
<asrwt>0</asrwt>
<pdfrwt beam="1">  1        2 0.98849507E+00 0.14916604E+02</pdfrwt>
<pdfrwt beam="2">  1       -2 0.99213283E+00 0.14916604E+02</pdfrwt>
<totfact>-0.14572312E-13</totfact>
</mgrwt>
</event>
<event>
 4    1 -0.4996155E-019  0.1493766E+02  0.7818608E-02  0.1869977E+00
          2   -1    0    0  501    0  0.00000000000E+00  0.00000000000E+00  0.11932126204E+03  0.11932126206E+03  0.25500000000E-02 0.  1.
         -2   -1    0    0    0  501 -0.00000000000E+00 -0.00000000000E+00 -0.46750291270E+00  0.46750986715E+00  0.25500000000E-02 0. -1.
         31    1    1    2    0    0 -0.53283457937E+00 -0.17202719711E+00  0.60268847116E+02  0.60729781531E+02  0.74470750000E+01 0.  1.
        -31    1    1    2    0    0  0.53283457937E+00  0.17202719711E+00  0.58584912006E+02  0.59058990398E+02  0.74470750000E+01 0. -1.
<mgrwt>
<rscale>  0 0.14937665E+02</rscale>
<asrwt>0</asrwt>
<pdfrwt beam="1">  1        2 0.99049738E+00 0.14937665E+02</pdfrwt>
<pdfrwt beam="2">  1       -2 0.99292503E+00 0.14937665E+02</pdfrwt>
<totfact>-0.14598118E-13</totfact>
</mgrwt>
</event>
<event>
 4    1 -0.4996155E-019  0.1491811E+02  0.7818608E-02  0.1870578E+00
          2   -1    0    0  501    0  0.00000000000E+00  0.00000000000E+00  0.11871875374E+03  0.11871875377E+03  0.25500000000E-02 0. -1.
         -2   -1    0    0    0  501 -0.00000000000E+00 -0.00000000000E+00 -0.46864586198E+00  0.46865279947E+00  0.25500000000E-02 0.  1.
         31    1    1    2    0    0  0.28627333679E+00  0.11614262885E-01  0.61606344696E+02  0.62055480984E+02  0.74470750000E+01 0. -1.
        -31    1    1    2    0    0 -0.28627333679E+00 -0.11614262885E-01  0.56643763184E+02  0.57131925585E+02  0.74470750000E+01 0. -1.
<mgrwt>
<rscale>  0 0.14918105E+02</rscale>
<asrwt>0</asrwt>
<pdfrwt beam="1">  1        2 0.98552487E+00 0.14918105E+02</pdfrwt>
<pdfrwt beam="2">  1       -2 0.99532324E+00 0.14918105E+02</pdfrwt>
<totfact>-0.31557926E-13</totfact>
</mgrwt>
</event>
<event>
 4    1  0.4996155E-019  0.1489872E+02  0.7818608E-02  0.1871175E+00
          2   -1    0    0  501    0  0.00000000000E+00  0.00000000000E+00  0.12008408927E+03  0.12008408929E+03  0.25500000000E-02 0. -1.
         -2   -1    0    0    0  501 -0.00000000000E+00 -0.00000000000E+00 -0.46211401744E+00  0.46212105299E+00  0.25500000000E-02 0.  1.
         31    1    1    2    0    0 -0.40892568262E-01 -0.16924738713E+00  0.59317256733E+02  0.59783159746E+02  0.74470750000E+01 0. -1.
        -31    1    1    2    0    0  0.40892568262E-01  0.16924738713E+00  0.60304718515E+02  0.60763050600E+02  0.74470750000E+01 0. -1.
<mgrwt>
<rscale>  0 0.14898720E+02</rscale>
<asrwt>0</asrwt>
<pdfrwt beam="1">  1        2 0.99676041E+00 0.14898720E+02</pdfrwt>
<pdfrwt beam="2">  1       -2 0.98154799E+00 0.14898720E+02</pdfrwt>
<totfact> 0.83258928E-13</totfact>
</mgrwt>
</event>
<event>
 4    1  0.4996155E-019  0.1493052E+02  0.7818608E-02  0.1870196E+00
         -2   -1    0    0    0  501 -0.00000000000E+00  0.00000000000E+00  0.11889472713E+03  0.11889472715E+03  0.25500000000E-02 0.  1.
          2   -1    0    0  501    0  0.00000000000E+00 -0.00000000000E+00 -0.46873157918E+00  0.46873851540E+00  0.25500000000E-02 0. -1.
         31    1    1    2    0    0 -0.40290866660E+00 -0.10989085056E+00  0.56725775039E+02  0.57214044528E+02  0.74470750000E+01 0. -1.
        -31    1    1    2    0    0  0.40290866660E+00  0.10989085056E+00  0.61700220508E+02  0.62149421141E+02  0.74470750000E+01 0.  1.
<mgrwt>
<rscale>  0 0.14930523E+02</rscale>
<asrwt>0</asrwt>
<pdfrwt beam="2">  1        2 0.99551036E+00 0.14930523E+02</pdfrwt>
<pdfrwt beam="1">  1       -2 0.98698065E+00 0.14930523E+02</pdfrwt>
<totfact> 0.23397961E-13</totfact>
</mgrwt>
</event>
<event>
 4    1 -0.4996155E-019  0.1492672E+02  0.7818608E-02  0.1870313E+00
          2   -1    0    0  501    0  0.00000000000E+00  0.00000000000E+00  0.11873906084E+03  0.11873906087E+03  0.25500000000E-02 0. -1.
         -2   -1    0    0    0  501 -0.00000000000E+00 -0.00000000000E+00 -0.46910682634E+00  0.46911375702E+00  0.25500000000E-02 0.  1.
         31    1    1    2    0    0 -0.17876175786E+00 -0.24291584667E+00  0.62246828155E+02  0.62691446827E+02  0.74470750000E+01 0. -1.
        -31    1    1    2    0    0  0.17876175786E+00  0.24291584667E+00  0.56023125862E+02  0.56516727800E+02  0.74470750000E+01 0.  1.
<mgrwt>
<rscale>  0 0.14926717E+02</rscale>
<asrwt>0</asrwt>
<pdfrwt beam="1">  1        2 0.98569659E+00 0.14926717E+02</pdfrwt>
<pdfrwt beam="2">  1       -2 0.99629905E+00 0.14926717E+02</pdfrwt>
<totfact>-0.28112449E-13</totfact>
</mgrwt>
</event>
<event>
 4    1 -0.4996155E-019  0.1491980E+02  0.7818608E-02  0.1870526E+00
         -2   -1    0    0    0  501 -0.00000000000E+00  0.00000000000E+00  0.12002157276E+03  0.12002157279E+03  0.25500000000E-02 0. -1.
          2   -1    0    0  501    0  0.00000000000E+00 -0.00000000000E+00 -0.46366424773E+00  0.46367125975E+00  0.25500000000E-02 0.  1.
         31    1    1    2    0    0 -0.37663961463E-01  0.67093527245E-02  0.63296646281E+02  0.63733239523E+02  0.74470750000E+01 0. -1.
        -31    1    1    2    0    0  0.37663961463E-01 -0.67093527245E-02  0.56261262232E+02  0.56752004525E+02  0.74470750000E+01 0.  1.
<mgrwt>
<rscale>  0 0.14919804E+02</rscale>
<asrwt>0</asrwt>
<pdfrwt beam="2">  1        2 0.98482605E+00 0.14919804E+02</pdfrwt>
<pdfrwt beam="1">  1       -2 0.99625630E+00 0.14919804E+02</pdfrwt>
<totfact>-0.32501009E-13</totfact>
</mgrwt>
</event>
<event>
 4    1  0.4996155E-019  0.1494768E+02  0.7818608E-02  0.1869669E+00
          2   -1    0    0  501    0  0.00000000000E+00  0.00000000000E+00  0.12010367539E+03  0.12010367542E+03  0.25500000000E-02 0. -1.
         -2   -1    0    0    0  501 -0.00000000000E+00 -0.00000000000E+00 -0.46508034267E+00  0.46508733335E+00  0.25500000000E-02 0.  1.
         31    1    1    2    0    0 -0.46698531947E-01  0.55482971557E+00  0.62230207271E+02  0.62676691360E+02  0.74470750000E+01 0. -1.
        -31    1    1    2    0    0  0.46698531947E-01 -0.55482971557E+00  0.57408387781E+02  0.57892071395E+02  0.74470750000E+01 0.  1.
<mgrwt>
<rscale>  0 0.14947680E+02</rscale>
<asrwt>0</asrwt>
<pdfrwt beam="1">  1        2 0.99694689E+00 0.14947680E+02</pdfrwt>
<pdfrwt beam="2">  1       -2 0.98782480E+00 0.14947680E+02</pdfrwt>
<totfact> 0.12453485E-13</totfact>
</mgrwt>
</event>
<event>
 4    1 -0.4996155E-019  0.1495946E+02  0.7818608E-02  0.1869308E+00
         -2   -1    0    0    0  501 -0.00000000000E+00  0.00000000000E+00  0.12020651193E+03  0.12020651196E+03  0.25500000000E-02 0. -1.
          2   -1    0    0  501    0  0.00000000000E+00 -0.00000000000E+00 -0.46541523157E+00  0.46542221722E+00  0.25500000000E-02 0.  1.
         31    1    1    2    0    0  0.22616361507E+00 -0.65543568801E+00  0.59210627506E+02  0.59681136732E+02  0.74470750000E+01 0.  1.
        -31    1    1    2    0    0 -0.22616361507E+00  0.65543568801E+00  0.60530469191E+02  0.60990797440E+02  0.74470750000E+01 0.  1.
<mgrwt>
<rscale>  0 0.14959461E+02</rscale>
<asrwt>0</asrwt>
<pdfrwt beam="2">  1        2 0.98853660E+00 0.14959461E+02</pdfrwt>
<pdfrwt beam="1">  1       -2 0.99779998E+00 0.14959461E+02</pdfrwt>
<totfact>-0.13388245E-13</totfact>
</mgrwt>
</event>
<event>
 4    1  0.4996155E-019  0.1492023E+02  0.7818608E-02  0.1870513E+00
         -2   -1    0    0    0  501 -0.00000000000E+00  0.00000000000E+00  0.11836470141E+03  0.11836470143E+03  0.25500000000E-02 0.  1.
          2   -1    0    0  501    0  0.00000000000E+00 -0.00000000000E+00 -0.47018158266E+00  0.47018849749E+00  0.25500000000E-02 0. -1.
         31    1    1    2    0    0 -0.26413208790E+00 -0.34094515583E-01  0.61745810334E+02  0.62193849761E+02  0.74470750000E+01 0. -1.
        -31    1    1    2    0    0  0.26413208790E+00  0.34094515583E-01  0.56148709489E+02  0.56641040170E+02  0.74470750000E+01 0. -1.
<mgrwt>
<rscale>  0 0.14920230E+02</rscale>
<asrwt>0</asrwt>
<pdfrwt beam="2">  1        2 0.99856015E+00 0.14920230E+02</pdfrwt>
<pdfrwt beam="1">  1       -2 0.98261001E+00 0.14920230E+02</pdfrwt>
<totfact> 0.36440319E-13</totfact>
</mgrwt>
</event>
<event>
 4    1  0.4996155E-019  0.1491488E+02  0.7818608E-02  0.1870677E+00
          2   -1    0    0  501    0  0.00000000000E+00  0.00000000000E+00  0.11987199096E+03  0.11987199099E+03  0.25500000000E-02 0. -1.
         -2   -1    0    0    0  501 -0.00000000000E+00 -0.00000000000E+00 -0.46393616474E+00  0.46394317266E+00  0.25500000000E-02 0.  1.
         31    1    1    2    0    0  0.11134408463E+00 -0.43621171661E-01  0.62724467232E+02  0.63165117081E+02  0.74470750000E+01 0. -1.
        -31    1    1    2    0    0 -0.11134408463E+00  0.43621171661E-01  0.56683587561E+02  0.57170817076E+02  0.74470750000E+01 0.  1.
<mgrwt>
<rscale>  0 0.14914875E+02</rscale>
<asrwt>0</asrwt>
<pdfrwt beam="1">  1        2 0.99502170E+00 0.14914875E+02</pdfrwt>
<pdfrwt beam="2">  1       -2 0.98539664E+00 0.14914875E+02</pdfrwt>
<totfact> 0.43087871E-13</totfact>
</mgrwt>
</event>
<event>
 4    1 -0.4996155E-019  0.1491336E+02  0.7818608E-02  0.1870724E+00
         -2   -1    0    0    0  501 -0.00000000000E+00  0.00000000000E+00  0.12027082500E+03  0.12027082503E+03  0.25500000000E-02 0. -1.
          2   -1    0    0  501    0  0.00000000000E+00 -0.00000000000E+00 -0.46230355467E+00  0.46231058733E+00  0.25500000000E-02 0.  1.
         31    1    1    2    0    0 -0.36588826614E+00  0.92040411089E-01  0.59677528698E+02  0.60141572171E+02  0.74470750000E+01 0. -1.
        -31    1    1    2    0    0  0.36588826614E+00 -0.92040411089E-01  0.60130992749E+02  0.60591563445E+02  0.74470750000E+01 0.  1.
<mgrwt>
<rscale>  0 0.14913357E+02</rscale>
<asrwt>0</asrwt>
<pdfrwt beam="2">  1        2 0.98195487E+00 0.14913357E+02</pdfrwt>
<pdfrwt beam="1">  1       -2 0.99830604E+00 0.14913357E+02</pdfrwt>
<totfact>-0.29942194E-13</totfact>
</mgrwt>
</event>
<event>
 4    1  0.4996155E-019  0.1491107E+02  0.7818608E-02  0.1870794E+00
          2   -1    0    0  501    0  0.00000000000E+00  0.00000000000E+00  0.12027710746E+03  0.12027710749E+03  0.25500000000E-02 0.  1.
         -2   -1    0    0    0  501 -0.00000000000E+00 -0.00000000000E+00 -0.46213777684E+00  0.46214481203E+00  0.25500000000E-02 0. -1.
         31    1    1    2    0    0 -0.31217964502E+00  0.11201342103E+00  0.58880303135E+02  0.59350307720E+02  0.74470750000E+01 0. -1.
        -31    1    1    2    0    0  0.31217964502E+00 -0.11201342103E+00  0.60934666550E+02  0.61388944581E+02  0.74470750000E+01 0.  1.
<mgrwt>
<rscale>  0 0.14911073E+02</rscale>
<asrwt>0</asrwt>
<pdfrwt beam="1">  1        2 0.99835661E+00 0.14911073E+02</pdfrwt>
<pdfrwt beam="2">  1       -2 0.98160430E+00 0.14911073E+02</pdfrwt>
<totfact> 0.49780807E-13</totfact>
</mgrwt>
</event>
<event>
 4    1 -0.4996155E-019  0.1497611E+02  0.7818608E-02  0.1868798E+00
          2   -1    0    0  501    0  0.00000000000E+00  0.00000000000E+00  0.11945410692E+03  0.11945410695E+03  0.25500000000E-02 0.  1.
         -2   -1    0    0    0  501 -0.00000000000E+00 -0.00000000000E+00 -0.46939004165E+00  0.46939696814E+00  0.25500000000E-02 0. -1.
         31    1    1    2    0    0  0.25770324427E+00  0.73716558036E+00  0.59113784525E+02  0.59586141602E+02  0.74470750000E+01 0.  1.
        -31    1    1    2    0    0 -0.25770324427E+00 -0.73716558036E+00  0.59870932356E+02  0.60337362316E+02  0.74470750000E+01 0.  1.
<mgrwt>
<rscale>  0 0.14976112E+02</rscale>
<asrwt>0</asrwt>
<pdfrwt beam="1">  1        2 0.99161144E+00 0.14976112E+02</pdfrwt>
<pdfrwt beam="2">  1       -2 0.99692167E+00 0.14976112E+02</pdfrwt>
<totfact>-0.12689665E-13</totfact>
</mgrwt>
</event>
<event>
 4    1  0.4996155E-019  0.1491802E+02  0.7818608E-02  0.1870581E+00
         -2   -1    0    0    0  501 -0.00000000000E+00  0.00000000000E+00  0.11852786996E+03  0.11852786999E+03  0.25500000000E-02 0.  1.
          2   -1    0    0  501    0  0.00000000000E+00 -0.00000000000E+00 -0.46939500345E+00  0.46940192986E+00  0.25500000000E-02 0. -1.
         31    1    1    2    0    0 -0.56776295140E-01 -0.20347339776E+00  0.56117422039E+02  0.56609792504E+02  0.74470750000E+01 0. -1.
        -31    1    1    2    0    0  0.56776295140E-01  0.20347339776E+00  0.61941052918E+02  0.62387479414E+02  0.74470750000E+01 0.  1.
<mgrwt>
<rscale>  0 0.14918016E+02</rscale>
<asrwt>0</asrwt>
<pdfrwt beam="2">  1        2 0.99690167E+00 0.14918016E+02</pdfrwt>
<pdfrwt beam="1">  1       -2 0.98395270E+00 0.14918016E+02</pdfrwt>
<totfact> 0.48164029E-13</totfact>
</mgrwt>
</event>
<event>
 4    1  0.4996155E-019  0.1490271E+02  0.7818608E-02  0.1871052E+00
         -2   -1    0    0    0  501 -0.00000000000E+00  0.00000000000E+00  0.11828231531E+03  0.11828231534E+03  0.25500000000E-02 0.  1.
          2   -1    0    0  501    0  0.00000000000E+00 -0.00000000000E+00 -0.46940446555E+00  0.46941139183E+00  0.25500000000E-02 0. -1.
         31    1    1    2    0    0  0.11140448405E+00  0.20908873578E+00  0.58211562349E+02  0.58686463910E+02  0.74470750000E+01 0. -1.
        -31    1    1    2    0    0 -0.11140448405E+00 -0.20908873578E+00  0.59601348498E+02  0.60065262822E+02  0.74470750000E+01 0.  1.
<mgrwt>
<rscale>  0 0.14902706E+02</rscale>
<asrwt>0</asrwt>
<pdfrwt beam="2">  1        2 0.99691352E+00 0.14902706E+02</pdfrwt>
<pdfrwt beam="1">  1       -2 0.98192236E+00 0.14902706E+02</pdfrwt>
<totfact> 0.74990929E-13</totfact>
</mgrwt>
</event>
<event>
 4    1  0.4996155E-019  0.1491453E+02  0.7818608E-02  0.1870688E+00
          2   -1    0    0  501    0  0.00000000000E+00  0.00000000000E+00  0.12006467047E+03  0.12006467050E+03  0.25500000000E-02 0.  1.
         -2   -1    0    0    0  501 -0.00000000000E+00 -0.00000000000E+00 -0.46317017721E+00  0.46317719672E+00  0.25500000000E-02 0. -1.
         31    1    1    2    0    0  0.14798635127E+00  0.25497594631E+00  0.57741055389E+02  0.58220059397E+02  0.74470750000E+01 0. -1.
        -31    1    1    2    0    0 -0.14798635127E+00 -0.25497594631E+00  0.61860444902E+02  0.62307788295E+02  0.74470750000E+01 0.  1.
<mgrwt>
<rscale>  0 0.14914530E+02</rscale>
<asrwt>0</asrwt>
<pdfrwt beam="1">  1        2 0.99660857E+00 0.14914530E+02</pdfrwt>
<pdfrwt beam="2">  1       -2 0.98378205E+00 0.14914530E+02</pdfrwt>
<totfact> 0.53241009E-13</totfact>
</mgrwt>
</event>
<event>
 4    1  0.4996155E-019  0.1490249E+02  0.7818608E-02  0.1871059E+00
         -2   -1    0    0    0  501 -0.00000000000E+00  0.00000000000E+00  0.11851546382E+03  0.11851546385E+03  0.25500000000E-02 0. -1.
          2   -1    0    0  501    0  0.00000000000E+00 -0.00000000000E+00 -0.46846754026E+00  0.46847448039E+00  0.25500000000E-02 0.  1.
         31    1    1    2    0    0  0.24195505632E+00  0.49306115805E-01  0.59295772603E+02  0.59762099595E+02  0.74470750000E+01 0. -1.
        -31    1    1    2    0    0 -0.24195505632E+00 -0.49306115805E-01  0.58751223676E+02  0.59221838732E+02  0.74470750000E+01 0.  1.
<mgrwt>
<rscale>  0 0.14902491E+02</rscale>
<asrwt>0</asrwt>
<pdfrwt beam="2">  1        2 0.99493930E+00 0.14902491E+02</pdfrwt>
<pdfrwt beam="1">  1       -2 0.98384245E+00 0.14902491E+02</pdfrwt>
<totfact> 0.65992858E-13</totfact>
</mgrwt>
</event>
<event>
 4    1 -0.4996155E-019  0.1490760E+02  0.7818608E-02  0.1870901E+00
          2   -1    0    0  501    0  0.00000000000E+00  0.00000000000E+00  0.11843446614E+03  0.11843446617E+03  0.25500000000E-02 0. -1.
         -2   -1    0    0    0  501 -0.00000000000E+00 -0.00000000000E+00 -0.46910928144E+00  0.46911621208E+00  0.25500000000E-02 0.  1.
         31    1    1    2    0    0 -0.14831043044E+00  0.27958785581E+00  0.59026052691E+02  0.59494823201E+02  0.74470750000E+01 0. -1.
        -31    1    1    2    0    0  0.14831043044E+00 -0.27958785581E+00  0.58939304172E+02  0.59408759183E+02  0.74470750000E+01 0. -1.
<mgrwt>
<rscale>  0 0.14907598E+02</rscale>
<asrwt>0</asrwt>
<pdfrwt beam="1">  1        2 0.98317801E+00 0.14907598E+02</pdfrwt>
<pdfrwt beam="2">  1       -2 0.99629416E+00 0.14907598E+02</pdfrwt>
<totfact>-0.42552284E-13</totfact>
</mgrwt>
</event>
<event>
 4    1 -0.4996155E-019  0.1492394E+02  0.7818608E-02  0.1870399E+00
          2   -1    0    0  501    0  0.00000000000E+00  0.00000000000E+00  0.11854995654E+03  0.11854995656E+03  0.25500000000E-02 0.  1.
         -2   -1    0    0    0  501 -0.00000000000E+00 -0.00000000000E+00 -0.46968001563E+00  0.46968693785E+00  0.25500000000E-02 0. -1.
         31    1    1    2    0    0  0.30009941997E+00  0.15747970009E+00  0.61650969963E+02  0.62100047367E+02  0.74470750000E+01 0.  1.
        -31    1    1    2    0    0 -0.30009941997E+00 -0.15747970009E+00  0.56429306559E+02  0.56919596136E+02  0.74470750000E+01 0. -1.
<mgrwt>
<rscale>  0 0.14923935E+02</rscale>
<asrwt>0</asrwt>
<pdfrwt beam="1">  1        2 0.98413769E+00 0.14923935E+02</pdfrwt>
<pdfrwt beam="2">  1       -2 0.99750532E+00 0.14923935E+02</pdfrwt>
<totfact>-0.28189287E-13</totfact>
</mgrwt>
</event>
<event>
 4    1 -0.4996155E-019  0.1492719E+02  0.7818608E-02  0.1870298E+00
         -2   -1    0    0    0  501 -0.00000000000E+00  0.00000000000E+00  0.11959305768E+03  0.11959305770E+03  0.25500000000E-02 0.  1.
          2   -1    0    0  501    0  0.00000000000E+00 -0.00000000000E+00 -0.46578667735E+00  0.46579365743E+00  0.25500000000E-02 0. -1.
         31    1    1    2    0    0 -0.93038380840E-01  0.30541525282E+00  0.56507172900E+02  0.56996679288E+02  0.74470750000E+01 0. -1.
        -31    1    1    2    0    0  0.93038380840E-01 -0.30541525282E+00  0.62620098100E+02  0.63062172074E+02  0.74470750000E+01 0.  1.
<mgrwt>
<rscale>  0 0.14927193E+02</rscale>
<asrwt>0</asrwt>
<pdfrwt beam="2">  1        2 0.98930291E+00 0.14927193E+02</pdfrwt>
<pdfrwt beam="1">  1       -2 0.99273058E+00 0.14927193E+02</pdfrwt>
<totfact>-0.15745209E-13</totfact>
</mgrwt>
</event>
<event>
 4    1  0.4996155E-019  0.1491313E+02  0.7818608E-02  0.1870731E+00
          2   -1    0    0  501    0  0.00000000000E+00  0.00000000000E+00  0.12004674967E+03  0.12004674970E+03  0.25500000000E-02 0.  1.
         -2   -1    0    0    0  501 -0.00000000000E+00 -0.00000000000E+00 -0.46315212775E+00  0.46315914753E+00  0.25500000000E-02 0. -1.
         31    1    1    2    0    0  0.27342939586E+00 -0.62942213549E-01  0.61814916305E+02  0.62262521064E+02  0.74470750000E+01 0. -1.
        -31    1    1    2    0    0 -0.27342939586E+00  0.62942213549E-01  0.57768681240E+02  0.58247387783E+02  0.74470750000E+01 0. -1.
<mgrwt>
<rscale>  0 0.14913126E+02</rscale>
<asrwt>0</asrwt>
<pdfrwt beam="1">  1        2 0.99646024E+00 0.14913126E+02</pdfrwt>
<pdfrwt beam="2">  1       -2 0.98374330E+00 0.14913126E+02</pdfrwt>
<totfact> 0.55205935E-13</totfact>
</mgrwt>
</event>
<event>
 4    1 -0.4996155E-019  0.1490400E+02  0.7818608E-02  0.1871012E+00
         -2   -1    0    0    0  501 -0.00000000000E+00  0.00000000000E+00  0.12029959312E+03  0.12029959314E+03  0.25500000000E-02 0. -1.
          2   -1    0    0  501    0  0.00000000000E+00 -0.00000000000E+00 -0.46161335536E+00  0.46162039854E+00  0.25500000000E-02 0.  1.
         31    1    1    2    0    0 -0.16057179962E-02 -0.19558117139E+00  0.61437986983E+02  0.61887990960E+02  0.74470750000E+01 0. -1.
        -31    1    1    2    0    0  0.16057179962E-02  0.19558117139E+00  0.58399992778E+02  0.58873222582E+02  0.74470750000E+01 0.  1.
<mgrwt>
<rscale>  0 0.14904003E+02</rscale>
<asrwt>0</asrwt>
<pdfrwt beam="2">  1        2 0.98049538E+00 0.14904003E+02</pdfrwt>
<pdfrwt beam="1">  1       -2 0.99853821E+00 0.14904003E+02</pdfrwt>
<totfact>-0.33691012E-13</totfact>
</mgrwt>
</event>
<event>
 4    1  0.4996155E-019  0.1491981E+02  0.7818608E-02  0.1870525E+00
          2   -1    0    0  501    0  0.00000000000E+00  0.00000000000E+00  0.12001154946E+03  0.12001154948E+03  0.25500000000E-02 0. -1.
         -2   -1    0    0    0  501 -0.00000000000E+00 -0.00000000000E+00 -0.46370326189E+00  0.46371027333E+00  0.25500000000E-02 0.  1.
         31    1    1    2    0    0 -0.18894378116E+00 -0.24525355201E+00  0.62267939445E+02  0.62712447391E+02  0.74470750000E+01 0. -1.
        -31    1    1    2    0    0  0.18894378116E+00  0.24525355201E+00  0.57279906751E+02  0.57762812367E+02  0.74470750000E+01 0.  1.
<mgrwt>
<rscale>  0 0.14919808E+02</rscale>
<asrwt>0</asrwt>
<pdfrwt beam="1">  1        2 0.99617374E+00 0.14919808E+02</pdfrwt>
<pdfrwt beam="2">  1       -2 0.98490828E+00 0.14919808E+02</pdfrwt>
<totfact> 0.42876345E-13</totfact>
</mgrwt>
</event>
<event>
 4    1 -0.4996155E-019  0.1495180E+02  0.7818608E-02  0.1869543E+00
          2   -1    0    0  501    0  0.00000000000E+00  0.00000000000E+00  0.11884159524E+03  0.11884159527E+03  0.25500000000E-02 0.  1.
         -2   -1    0    0    0  501 -0.00000000000E+00 -0.00000000000E+00 -0.47027886907E+00  0.47028578247E+00  0.25500000000E-02 0. -1.
         31    1    1    2    0    0 -0.34130624615E+00  0.93434115251E-01  0.63592332297E+02  0.64027875748E+02  0.74470750000E+01 0.  1.
        -31    1    1    2    0    0  0.34130624615E+00 -0.93434115251E-01  0.54778984076E+02  0.55284005303E+02  0.74470750000E+01 0. -1.
<mgrwt>
<rscale>  0 0.14951803E+02</rscale>
<asrwt>0</asrwt>
<pdfrwt beam="1">  1        2 0.98655411E+00 0.14951803E+02</pdfrwt>
<pdfrwt beam="2">  1       -2 0.99878180E+00 0.14951803E+02</pdfrwt>
<totfact>-0.10598801E-13</totfact>
</mgrwt>
</event>
<event>
 4    1 -0.4996155E-019  0.1500674E+02  0.7818608E-02  0.1867863E+00
         -2   -1    0    0    0  501 -0.00000000000E+00  0.00000000000E+00  0.12013629403E+03  0.12013629406E+03  0.25500000000E-02 0.  1.
          2   -1    0    0  501    0  0.00000000000E+00 -0.00000000000E+00 -0.46863536000E+00  0.46864229764E+00  0.25500000000E-02 0. -1.
         31    1    1    2    0    0 -0.65647418065E+00  0.61251320240E+00  0.58320052575E+02  0.58800455689E+02  0.74470750000E+01 0.  1.
        -31    1    1    2    0    0  0.65647418065E+00 -0.61251320240E+00  0.61347606096E+02  0.61804480667E+02  0.74470750000E+01 0. -1.
<mgrwt>
<rscale>  0 0.15006737E+02</rscale>
<asrwt>0</asrwt>
<pdfrwt beam="2">  1        2 0.99534720E+00 0.15006737E+02</pdfrwt>
<pdfrwt beam="1">  1       -2 0.99724600E+00 0.15006737E+02</pdfrwt>
<totfact>-0.86894857E-14</totfact>
</mgrwt>
</event>
<event>
 4    1  0.4996155E-019  0.1489738E+02  0.7818608E-02  0.1871216E+00
         -2   -1    0    0    0  501 -0.00000000000E+00  0.00000000000E+00  0.11801521161E+03  0.11801521164E+03  0.25500000000E-02 0. -1.
          2   -1    0    0  501    0  0.00000000000E+00 -0.00000000000E+00 -0.47013086892E+00  0.47013778450E+00  0.25500000000E-02 0.  1.
         31    1    1    2    0    0  0.86005399171E-01  0.32434635809E-01  0.57778191933E+02  0.58256217162E+02  0.74470750000E+01 0.  1.
        -31    1    1    2    0    0 -0.86005399171E-01 -0.32434635809E-01  0.59766888808E+02  0.60229132260E+02  0.74470750000E+01 0. -1.
<mgrwt>
<rscale>  0 0.14897383E+02</rscale>
<asrwt>0</asrwt>
<pdfrwt beam="2">  1        2 0.99844117E+00 0.14897383E+02</pdfrwt>
<pdfrwt beam="1">  1       -2 0.97971977E+00 0.14897383E+02</pdfrwt>
<totfact> 0.66626772E-13</totfact>
</mgrwt>
</event>
<event>
 4    1 -0.4996155E-019  0.1493510E+02  0.7818608E-02  0.1870055E+00
         -2   -1    0    0    0  501 -0.00000000000E+00  0.00000000000E+00  0.12042866469E+03  0.12042866472E+03  0.25500000000E-02 0. -1.
          2   -1    0    0  501    0  0.00000000000E+00 -0.00000000000E+00 -0.46304488415E+00  0.46305190556E+00  0.25500000000E-02 0.  1.
         31    1    1    2    0    0 -0.38331675533E-01  0.21253155839E+00  0.55865452164E+02  0.56360041790E+02  0.74470750000E+01 0.  1.
        -31    1    1    2    0    0  0.38331675533E-01 -0.21253155839E+00  0.64100167644E+02  0.64531674835E+02  0.74470750000E+01 0. -1.
<mgrwt>
<rscale>  0 0.14935100E+02</rscale>
<asrwt>0</asrwt>
<pdfrwt beam="2">  1        2 0.98352837E+00 0.14935100E+02</pdfrwt>
<pdfrwt beam="1">  1       -2 0.99961730E+00 0.14935100E+02</pdfrwt>
<totfact>-0.57839018E-14</totfact>
</mgrwt>
</event>
<event>
 4    1 -0.4996155E-019  0.1496590E+02  0.7818608E-02  0.1869111E+00
         -2   -1    0    0    0  501 -0.00000000000E+00  0.00000000000E+00  0.11950651971E+03  0.11950651974E+03  0.25500000000E-02 0. -1.
          2   -1    0    0  501    0  0.00000000000E+00 -0.00000000000E+00 -0.46854475789E+00  0.46855169688E+00  0.25500000000E-02 0.  1.
         31    1    1    2    0    0  0.71528756883E+00  0.14431561960E+00  0.59066788804E+02  0.59538869060E+02  0.74470750000E+01 0. -1.
        -31    1    1    2    0    0 -0.71528756883E+00 -0.14431561960E+00  0.59971186151E+02  0.60436202377E+02  0.74470750000E+01 0. -1.
<mgrwt>
<rscale>  0 0.14965904E+02</rscale>
<asrwt>0</asrwt>
<pdfrwt beam="2">  1        2 0.99513514E+00 0.14965904E+02</pdfrwt>
<pdfrwt beam="1">  1       -2 0.99203783E+00 0.14965904E+02</pdfrwt>
<totfact>-0.78796822E-14</totfact>
</mgrwt>
</event>
<event>
 4    1 -0.4996155E-019  0.1495719E+02  0.7818608E-02  0.1869378E+00
         -2   -1    0    0    0  501 -0.00000000000E+00  0.00000000000E+00  0.12029521567E+03  0.12029521569E+03  0.25500000000E-02 0.  1.
          2   -1    0    0  501    0  0.00000000000E+00 -0.00000000000E+00 -0.46493102457E+00  0.46493801749E+00  0.25500000000E-02 0. -1.
         31    1    1    2    0    0  0.55255248433E+00  0.34685645811E+00  0.61625018336E+02  0.62076786600E+02  0.74470750000E+01 0.  1.
        -31    1    1    2    0    0 -0.55255248433E+00 -0.34685645811E+00  0.58205266305E+02  0.58683367110E+02  0.74470750000E+01 0. -1.
<mgrwt>
<rscale>  0 0.14957192E+02</rscale>
<asrwt>0</asrwt>
<pdfrwt beam="2">  1        2 0.98751494E+00 0.14957192E+02</pdfrwt>
<pdfrwt beam="1">  1       -2 0.99852944E+00 0.14957192E+02</pdfrwt>
<totfact>-0.10923311E-13</totfact>
</mgrwt>
</event>
<event>
 4    1 -0.4996155E-019  0.1499689E+02  0.7818608E-02  0.1868164E+00
         -2   -1    0    0    0  501 -0.00000000000E+00  0.00000000000E+00  0.12004487302E+03  0.12004487305E+03  0.25500000000E-02 0. -1.
          2   -1    0    0  501    0  0.00000000000E+00 -0.00000000000E+00 -0.46837676607E+00  0.46838370754E+00  0.25500000000E-02 0.  1.
         31    1    1    2    0    0 -0.50051800471E+00  0.27532095635E+00  0.54449351172E+02  0.54959231154E+02  0.74470750000E+01 0.  1.
        -31    1    1    2    0    0  0.50051800471E+00 -0.27532095635E+00  0.65127145080E+02  0.65554025599E+02  0.74470750000E+01 0. -1.
<mgrwt>
<rscale>  0 0.14996886E+02</rscale>
<asrwt>0</asrwt>
<pdfrwt beam="2">  1        2 0.99479716E+00 0.14996886E+02</pdfrwt>
<pdfrwt beam="1">  1       -2 0.99648793E+00 0.14996886E+02</pdfrwt>
<totfact>-0.10720238E-13</totfact>
</mgrwt>
</event>
<event>
 4    1 -0.4996155E-019  0.1489740E+02  0.7818608E-02  0.1871216E+00
          2   -1    0    0  501    0  0.00000000000E+00  0.00000000000E+00  0.11825146429E+03  0.11825146432E+03  0.25500000000E-02 0. -1.
         -2   -1    0    0    0  501 -0.00000000000E+00 -0.00000000000E+00 -0.46919258972E+00  0.46919951912E+00  0.25500000000E-02 0.  1.
         31    1    1    2    0    0  0.18294876132E-01 -0.71891518403E-01  0.59980752649E+02  0.60441336166E+02  0.74470750000E+01 0. -1.
        -31    1    1    2    0    0 -0.18294876132E-01  0.71891518403E-01  0.57801519055E+02  0.58279327675E+02  0.74470750000E+01 0. -1.
<mgrwt>
<rscale>  0 0.14897399E+02</rscale>
<asrwt>0</asrwt>
<pdfrwt beam="1">  1        2 0.98166551E+00 0.14897399E+02</pdfrwt>
<pdfrwt beam="2">  1       -2 0.99646430E+00 0.14897399E+02</pdfrwt>
<totfact>-0.53609703E-13</totfact>
</mgrwt>
</event>
<event>
 4    1  0.4996155E-019  0.1490546E+02  0.7818608E-02  0.1870967E+00
         -2   -1    0    0    0  501 -0.00000000000E+00  0.00000000000E+00  0.11824492448E+03  0.11824492450E+03  0.25500000000E-02 0.  1.
          2   -1    0    0  501    0  0.00000000000E+00 -0.00000000000E+00 -0.46972671304E+00  0.46973363457E+00  0.25500000000E-02 0. -1.
         31    1    1    2    0    0 -0.13352718205E+00 -0.12123814892E+00  0.60699553473E+02  0.61154944576E+02  0.74470750000E+01 0.  1.
        -31    1    1    2    0    0  0.13352718205E+00  0.12123814892E+00  0.57075644291E+02  0.57559713563E+02  0.74470750000E+01 0.  1.
<mgrwt>
<rscale>  0 0.14905464E+02</rscale>
<asrwt>0</asrwt>
<pdfrwt beam="2">  1        2 0.99759394E+00 0.14905464E+02</pdfrwt>
<pdfrwt beam="1">  1       -2 0.98161585E+00 0.14905464E+02</pdfrwt>
<totfact> 0.66843828E-13</totfact>
</mgrwt>
</event>
<event>
 4    1 -0.4996155E-019  0.1496463E+02  0.7818608E-02  0.1869150E+00
          2   -1    0    0  501    0  0.00000000000E+00  0.00000000000E+00  0.11994885265E+03  0.11994885267E+03  0.25500000000E-02 0. -1.
         -2   -1    0    0    0  501 -0.00000000000E+00 -0.00000000000E+00 -0.46673734585E+00  0.46674431171E+00  0.25500000000E-02 0.  1.
         31    1    1    2    0    0  0.63616466224E+00 -0.27260567572E+00  0.57995006357E+02  0.58475282878E+02  0.74470750000E+01 0. -1.
        -31    1    1    2    0    0 -0.63616466224E+00  0.27260567572E+00  0.61487108945E+02  0.61940314108E+02  0.74470750000E+01 0. -1.
<mgrwt>
<rscale>  0 0.14964629E+02</rscale>
<asrwt>0</asrwt>
<pdfrwt beam="1">  1        2 0.99568041E+00 0.14964629E+02</pdfrwt>
<pdfrwt beam="2">  1       -2 0.99132562E+00 0.14964629E+02</pdfrwt>
<totfact>-0.51039448E-14</totfact>
</mgrwt>
</event>
<event>
 4    1  0.4996155E-019  0.1491785E+02  0.7818608E-02  0.1870586E+00
         -2   -1    0    0    0  501 -0.00000000000E+00  0.00000000000E+00  0.11886184307E+03  0.11886184310E+03  0.25500000000E-02 0. -1.
          2   -1    0    0  501    0  0.00000000000E+00 -0.00000000000E+00 -0.46806545683E+00  0.46807240292E+00  0.25500000000E-02 0.  1.
         31    1    1    2    0    0  0.11872006829E+00  0.86894473706E-01  0.62345825313E+02  0.62789190989E+02  0.74470750000E+01 0. -1.
        -31    1    1    2    0    0 -0.11872006829E+00 -0.86894473706E-01  0.56047952302E+02  0.56540724513E+02  0.74470750000E+01 0.  1.
<mgrwt>
<rscale>  0 0.14917847E+02</rscale>
<asrwt>0</asrwt>
<pdfrwt beam="2">  1        2 0.99410011E+00 0.14917847E+02</pdfrwt>
<pdfrwt beam="1">  1       -2 0.98670323E+00 0.14917847E+02</pdfrwt>
<totfact> 0.30072522E-13</totfact>
</mgrwt>
</event>
<event>
 4    1 -0.4996155E-019  0.1495837E+02  0.7818608E-02  0.1869342E+00
         -2   -1    0    0    0  501 -0.00000000000E+00  0.00000000000E+00  0.12009650607E+03  0.12009650610E+03  0.25500000000E-02 0. -1.
          2   -1    0    0  501    0  0.00000000000E+00 -0.00000000000E+00 -0.46577343622E+00  0.46578041649E+00  0.25500000000E-02 0.  1.
         31    1    1    2    0    0 -0.52240499228E+00  0.41179335650E+00  0.61361050933E+02  0.61814884764E+02  0.74470750000E+01 0. -1.
        -31    1    1    2    0    0  0.52240499228E+00 -0.41179335650E+00  0.58269681702E+02  0.58747401751E+02  0.74470750000E+01 0.  1.
<mgrwt>
<rscale>  0 0.14958367E+02</rscale>
<asrwt>0</asrwt>
<pdfrwt beam="2">  1        2 0.98929098E+00 0.14958367E+02</pdfrwt>
<pdfrwt beam="1">  1       -2 0.99689334E+00 0.14958367E+02</pdfrwt>
<totfact>-0.15713301E-13</totfact>
</mgrwt>
</event>
<event>
 4    1 -0.4996155E-019  0.1494105E+02  0.7818608E-02  0.1869873E+00
         -2   -1    0    0    0  501 -0.00000000000E+00  0.00000000000E+00  0.11985347235E+03  0.11985347237E+03  0.25500000000E-02 0.  1.
          2   -1    0    0  501    0  0.00000000000E+00 -0.00000000000E+00 -0.46563821014E+00  0.46564519244E+00  0.25500000000E-02 0. -1.
         31    1    1    2    0    0 -0.52037651441E-01 -0.58504447003E+00  0.60255721373E+02  0.60717014660E+02  0.74470750000E+01 0. -1.
        -31    1    1    2    0    0  0.52037651441E-01  0.58504447003E+00  0.59132112764E+02  0.59602102907E+02  0.74470750000E+01 0.  1.
<mgrwt>
<rscale>  0 0.14941055E+02</rscale>
<asrwt>0</asrwt>
<pdfrwt beam="2">  1        2 0.98899713E+00 0.14941055E+02</pdfrwt>
<pdfrwt beam="1">  1       -2 0.99488265E+00 0.14941055E+02</pdfrwt>
<totfact>-0.19844397E-13</totfact>
</mgrwt>
</event>
<event>
 4    1 -0.4996155E-019  0.1496247E+02  0.7818608E-02  0.1869216E+00
          2   -1    0    0  501    0  0.00000000000E+00  0.00000000000E+00  0.11953300019E+03  0.11953300022E+03  0.25500000000E-02 0.  1.
         -2   -1    0    0    0  501 -0.00000000000E+00 -0.00000000000E+00 -0.46822604142E+00  0.46823298513E+00  0.25500000000E-02 0. -1.
         31    1    1    2    0    0  0.26286664623E+00  0.15543076632E+00  0.54355208310E+02  0.54863839222E+02  0.74470750000E+01 0. -1.
        -31    1    1    2    0    0 -0.26286664623E+00 -0.15543076632E+00  0.64709565838E+02  0.65137393981E+02  0.74470750000E+01 0.  1.
<mgrwt>
<rscale>  0 0.14962471E+02</rscale>
<asrwt>0</asrwt>
<pdfrwt beam="1">  1        2 0.99225416E+00 0.14962471E+02</pdfrwt>
<pdfrwt beam="2">  1       -2 0.99446174E+00 0.14962471E+02</pdfrwt>
<totfact>-0.14845269E-13</totfact>
</mgrwt>
</event>
<event>
 4    1 -0.4996155E-019  0.1495209E+02  0.7818608E-02  0.1869534E+00
          2   -1    0    0  501    0  0.00000000000E+00  0.00000000000E+00  0.11962307118E+03  0.11962307121E+03  0.25500000000E-02 0.  1.
         -2   -1    0    0    0  501 -0.00000000000E+00 -0.00000000000E+00 -0.46722479313E+00  0.46723175172E+00  0.25500000000E-02 0. -1.
         31    1    1    2    0    0 -0.42547423098E+00 -0.49293440656E+00  0.60311643625E+02  0.60773162625E+02  0.74470750000E+01 0.  1.
        -31    1    1    2    0    0  0.42547423098E+00  0.49293440656E+00  0.58844202766E+02  0.59317140337E+02  0.74470750000E+01 0.  1.
<mgrwt>
<rscale>  0 0.14952095E+02</rscale>
<asrwt>0</asrwt>
<pdfrwt beam="1">  1        2 0.99299065E+00 0.14952095E+02</pdfrwt>
<pdfrwt beam="2">  1       -2 0.99234641E+00 0.14952095E+02</pdfrwt>
<totfact>-0.10480392E-13</totfact>
</mgrwt>
</event>
<event>
 4    1 -0.4996155E-019  0.1501447E+02  0.7818608E-02  0.1867627E+00
          2   -1    0    0  501    0  0.00000000000E+00  0.00000000000E+00  0.12004871808E+03  0.12004871811E+03  0.25500000000E-02 0. -1.
         -2   -1    0    0    0  501 -0.00000000000E+00 -0.00000000000E+00 -0.46946045899E+00  0.46946738444E+00  0.25500000000E-02 0.  1.
         31    1    1    2    0    0 -0.52926847282E+00 -0.67991802463E+00  0.62972189123E+02  0.63416858505E+02  0.74470750000E+01 0. -1.
        -31    1    1    2    0    0  0.52926847282E+00  0.67991802463E+00  0.56607068500E+02  0.57101326988E+02  0.74470750000E+01 0. -1.
<mgrwt>
<rscale>  0 0.15014466E+02</rscale>
<asrwt>0</asrwt>
<pdfrwt beam="1">  1        2 0.99652868E+00 0.15014466E+02</pdfrwt>
<pdfrwt beam="2">  1       -2 0.99708997E+00 0.15014466E+02</pdfrwt>
<totfact>-0.76059096E-14</totfact>
</mgrwt>
</event>
<event>
 4    1  0.4996155E-019  0.1489638E+02  0.7818608E-02  0.1871247E+00
         -2   -1    0    0    0  501 -0.00000000000E+00  0.00000000000E+00  0.11856673020E+03  0.11856673023E+03  0.25500000000E-02 0. -1.
          2   -1    0    0  501    0  0.00000000000E+00 -0.00000000000E+00 -0.46788127401E+00  0.46788822284E+00  0.25500000000E-02 0.  1.
         31    1    1    2    0    0 -0.45110451285E-01  0.10286921663E+00  0.58542468570E+02  0.59014338676E+02  0.74470750000E+01 0.  1.
        -31    1    1    2    0    0  0.45110451285E-01 -0.10286921663E+00  0.59556380354E+02  0.60020279772E+02  0.74470750000E+01 0. -1.
<mgrwt>
<rscale>  0 0.14896385E+02</rscale>
<asrwt>0</asrwt>
<pdfrwt beam="2">  1        2 0.99370078E+00 0.14896385E+02</pdfrwt>
<pdfrwt beam="1">  1       -2 0.98426151E+00 0.14896385E+02</pdfrwt>
<totfact> 0.66261890E-13</totfact>
</mgrwt>
</event>
<event>
 4    1  0.4996155E-019  0.1490137E+02  0.7818608E-02  0.1871093E+00
         -2   -1    0    0    0  501 -0.00000000000E+00  0.00000000000E+00  0.11826199756E+03  0.11826199759E+03  0.25500000000E-02 0. -1.
          2   -1    0    0  501    0  0.00000000000E+00 -0.00000000000E+00 -0.46940093017E+00  0.46940785650E+00  0.25500000000E-02 0.  1.
         31    1    1    2    0    0 -0.20615890802E+00  0.41273485837E-01  0.59675900667E+02  0.60139140761E+02  0.74470750000E+01 0. -1.
        -31    1    1    2    0    0  0.20615890802E+00 -0.41273485837E-01  0.58116695966E+02  0.58592264686E+02  0.74470750000E+01 0.  1.
<mgrwt>
<rscale>  0 0.14901370E+02</rscale>
<asrwt>0</asrwt>
<pdfrwt beam="2">  1        2 0.99690537E+00 0.14901370E+02</pdfrwt>
<pdfrwt beam="1">  1       -2 0.98175433E+00 0.14901370E+02</pdfrwt>
<totfact> 0.77638366E-13</totfact>
</mgrwt>
</event>
<event>
 4    1 -0.4996155E-019  0.1494521E+02  0.7818608E-02  0.1869745E+00
          2   -1    0    0  501    0  0.00000000000E+00  0.00000000000E+00  0.11873559642E+03  0.11873559645E+03  0.25500000000E-02 0.  1.
         -2   -1    0    0    0  501 -0.00000000000E+00 -0.00000000000E+00 -0.47028347760E+00  0.47029039093E+00  0.25500000000E-02 0. -1.
         31    1    1    2    0    0 -0.17354137204E+00 -0.26719664768E-01  0.63851749117E+02  0.64284800863E+02  0.74470750000E+01 0.  1.
        -31    1    1    2    0    0  0.17354137204E+00  0.26719664768E-01  0.54413563824E+02  0.54921085974E+02  0.74470750000E+01 0. -1.
<mgrwt>
<rscale>  0 0.14945207E+02</rscale>
<asrwt>0</asrwt>
<pdfrwt beam="1">  1        2 0.98567768E+00 0.14945207E+02</pdfrwt>
<pdfrwt beam="2">  1       -2 0.99878803E+00 0.14945207E+02</pdfrwt>
<totfact>-0.12058427E-13</totfact>
</mgrwt>
</event>
<event>
 4    1 -0.4996155E-019  0.1492343E+02  0.7818608E-02  0.1870414E+00
          2   -1    0    0  501    0  0.00000000000E+00  0.00000000000E+00  0.11855077490E+03  0.11855077493E+03  0.25500000000E-02 0.  1.
         -2   -1    0    0    0  501 -0.00000000000E+00 -0.00000000000E+00 -0.46964509691E+00  0.46965201964E+00  0.25500000000E-02 0. -1.
         31    1    1    2    0    0 -0.38861915587E+00  0.20953565572E+00  0.60259202675E+02  0.60719233882E+02  0.74470750000E+01 0. -1.
        -31    1    1    2    0    0  0.38861915587E+00 -0.20953565572E+00  0.57821927128E+02  0.58301193066E+02  0.74470750000E+01 0.  1.
<mgrwt>
<rscale>  0 0.14923432E+02</rscale>
<asrwt>0</asrwt>
<pdfrwt beam="1">  1        2 0.98414416E+00 0.14923432E+02</pdfrwt>
<pdfrwt beam="2">  1       -2 0.99743148E+00 0.14923432E+02</pdfrwt>
<totfact>-0.28763403E-13</totfact>
</mgrwt>
</event>
<event>
 4    1 -0.4996155E-019  0.1501407E+02  0.7818608E-02  0.1867639E+00
         -2   -1    0    0    0  501 -0.00000000000E+00  0.00000000000E+00  0.12002402356E+03  0.12002402358E+03  0.25500000000E-02 0.  1.
          2   -1    0    0  501    0  0.00000000000E+00 -0.00000000000E+00 -0.46953222763E+00  0.46953915203E+00  0.25500000000E-02 0. -1.
         31    1    1    2    0    0 -0.29613369441E+00 -0.28728794552E-01  0.66991695304E+02  0.67405004905E+02  0.74470750000E+01 0.  1.
        -31    1    1    2    0    0  0.29613369441E+00  0.28728794552E-01  0.52562796026E+02  0.53088557831E+02  0.74470750000E+01 0. -1.
<mgrwt>
<rscale>  0 0.15014069E+02</rscale>
<asrwt>0</asrwt>
<pdfrwt beam="2">  1        2 0.99724100E+00 0.15014069E+02</pdfrwt>
<pdfrwt beam="1">  1       -2 0.99632508E+00 0.15014069E+02</pdfrwt>
<totfact>-0.74976014E-14</totfact>
</mgrwt>
</event>
<event>
 4    1  0.4996155E-019  0.1491733E+02  0.7818608E-02  0.1870602E+00
         -2   -1    0    0    0  501 -0.00000000000E+00  0.00000000000E+00  0.11841983940E+03  0.11841983942E+03  0.25500000000E-02 0. -1.
          2   -1    0    0  501    0  0.00000000000E+00 -0.00000000000E+00 -0.46978029460E+00  0.46978721533E+00  0.25500000000E-02 0.  1.
         31    1    1    2    0    0 -0.22594569625E+00 -0.14529383458E+00  0.61503287242E+02  0.61953090556E+02  0.74470750000E+01 0. -1.
        -31    1    1    2    0    0  0.22594569625E+00  0.14529383458E+00  0.56446771860E+02  0.56936536084E+02  0.74470750000E+01 0.  1.
<mgrwt>
<rscale>  0 0.14917335E+02</rscale>
<asrwt>0</asrwt>
<pdfrwt beam="2">  1        2 0.99771312E+00 0.14917335E+02</pdfrwt>
<pdfrwt beam="1">  1       -2 0.98306262E+00 0.14917335E+02</pdfrwt>
<totfact> 0.47789423E-13</totfact>
</mgrwt>
</event>
<event>
 4    1 -0.4996155E-019  0.1501348E+02  0.7818608E-02  0.1867657E+00
          2   -1    0    0  501    0  0.00000000000E+00  0.00000000000E+00  0.12008191638E+03  0.12008191641E+03  0.25500000000E-02 0. -1.
         -2   -1    0    0    0  501 -0.00000000000E+00 -0.00000000000E+00 -0.46926895480E+00  0.46927588308E+00  0.25500000000E-02 0.  1.
         31    1    1    2    0    0  0.69480362473E+00  0.40164495696E+00  0.55806538521E+02  0.56306951067E+02  0.74470750000E+01 0.  1.
        -31    1    1    2    0    0 -0.69480362473E+00 -0.40164495696E+00  0.63806108909E+02  0.64244241228E+02  0.74470750000E+01 0.  1.
<mgrwt>
<rscale>  0 0.15013479E+02</rscale>
<asrwt>0</asrwt>
<pdfrwt beam="1">  1        2 0.99680160E+00 0.15013479E+02</pdfrwt>
<pdfrwt beam="2">  1       -2 0.99668589E+00 0.15013479E+02</pdfrwt>
<totfact>-0.78296372E-14</totfact>
</mgrwt>
</event>
<event>
 4    1 -0.4996155E-019  0.1498588E+02  0.7818608E-02  0.1868500E+00
         -2   -1    0    0    0  501 -0.00000000000E+00  0.00000000000E+00  0.11974082790E+03  0.11974082792E+03  0.25500000000E-02 0.  1.
          2   -1    0    0  501    0  0.00000000000E+00 -0.00000000000E+00 -0.46887707870E+00  0.46888401277E+00  0.25500000000E-02 0. -1.
         31    1    1    2    0    0 -0.25641824032E+00 -0.27449887310E+00  0.53718922525E+02  0.54233962267E+02  0.74470750000E+01 0. -1.
        -31    1    1    2    0    0  0.25641824032E+00  0.27449887310E+00  0.65553028292E+02  0.65975749668E+02  0.74470750000E+01 0.  1.
<mgrwt>
<rscale>  0 0.14985880E+02</rscale>
<asrwt>0</asrwt>
<pdfrwt beam="2">  1        2 0.99584580E+00 0.14985880E+02</pdfrwt>
<pdfrwt beam="1">  1       -2 0.99397800E+00 0.14985880E+02</pdfrwt>
<totfact>-0.10539129E-13</totfact>
</mgrwt>
</event>
<event>
 4    1 -0.4996155E-019  0.1492853E+02  0.7818608E-02  0.1870257E+00
         -2   -1    0    0    0  501 -0.00000000000E+00  0.00000000000E+00  0.12033943167E+03  0.12033943170E+03  0.25500000000E-02 0.  1.
          2   -1    0    0  501    0  0.00000000000E+00 -0.00000000000E+00 -0.46298070757E+00  0.46298772995E+00  0.25500000000E-02 0. -1.
         31    1    1    2    0    0  0.18952472292E+00  0.14099898445E+00  0.63561933831E+02  0.63997141801E+02  0.74470750000E+01 0.  1.
        -31    1    1    2    0    0 -0.18952472292E+00 -0.14099898445E+00  0.56314517131E+02  0.56805277625E+02  0.74470750000E+01 0. -1.
<mgrwt>
<rscale>  0 0.14928531E+02</rscale>
<asrwt>0</asrwt>
<pdfrwt beam="2">  1        2 0.98338979E+00 0.14928531E+02</pdfrwt>
<pdfrwt beam="1">  1       -2 0.99887892E+00 0.14928531E+02</pdfrwt>
<totfact>-0.16356771E-13</totfact>
</mgrwt>
</event>
<event>
 4    1 -0.4996155E-019  0.1497820E+02  0.7818608E-02  0.1868735E+00
         -2   -1    0    0    0  501 -0.00000000000E+00  0.00000000000E+00  0.12003009609E+03  0.12003009612E+03  0.25500000000E-02 0.  1.
          2   -1    0    0  501    0  0.00000000000E+00 -0.00000000000E+00 -0.46726758430E+00  0.46727454225E+00  0.25500000000E-02 0. -1.
         31    1    1    2    0    0 -0.14308310033E+00  0.63971583867E+00  0.63360773900E+02  0.63800284516E+02  0.74470750000E+01 0. -1.
        -31    1    1    2    0    0  0.14308310033E+00 -0.63971583867E+00  0.56202054607E+02  0.56697086144E+02  0.74470750000E+01 0.  1.
<mgrwt>
<rscale>  0 0.14978197E+02</rscale>
<asrwt>0</asrwt>
<pdfrwt beam="2">  1        2 0.99245004E+00 0.14978197E+02</pdfrwt>
<pdfrwt beam="1">  1       -2 0.99635657E+00 0.14978197E+02</pdfrwt>
<totfact>-0.13155445E-13</totfact>
</mgrwt>
</event>
<event>
 4    1 -0.4996155E-019  0.1496387E+02  0.7818608E-02  0.1869173E+00
         -2   -1    0    0    0  501 -0.00000000000E+00  0.00000000000E+00  0.12013549843E+03  0.12013549846E+03  0.25500000000E-02 0.  1.
          2   -1    0    0  501    0  0.00000000000E+00 -0.00000000000E+00 -0.46596465132E+00  0.46597162873E+00  0.25500000000E-02 0. -1.
         31    1    1    2    0    0  0.37807942887E+00 -0.22101842045E+00  0.55214769131E+02  0.55716437874E+02  0.74470750000E+01 0. -1.
        -31    1    1    2    0    0 -0.37807942887E+00  0.22101842045E+00  0.64454764650E+02  0.64885032213E+02  0.74470750000E+01 0.  1.
<mgrwt>
<rscale>  0 0.14963866E+02</rscale>
<asrwt>0</asrwt>
<pdfrwt beam="2">  1        2 0.98969678E+00 0.14963866E+02</pdfrwt>
<pdfrwt beam="1">  1       -2 0.99721734E+00 0.14963866E+02</pdfrwt>
<totfact>-0.14013221E-13</totfact>
</mgrwt>
</event>
<event>
 4    1 -0.4996155E-019  0.1495023E+02  0.7818608E-02  0.1869591E+00
         -2   -1    0    0    0  501 -0.00000000000E+00  0.00000000000E+00  0.12012862666E+03  0.12012862669E+03  0.25500000000E-02 0.  1.
          2   -1    0    0  501    0  0.00000000000E+00 -0.00000000000E+00 -0.46514232056E+00  0.46514931031E+00  0.25500000000E-02 0. -1.
         31    1    1    2    0    0 -0.36662797535E+00 -0.52703882483E+00  0.59195613896E+02  0.59665666984E+02  0.74470750000E+01 0.  1.
        -31    1    1    2    0    0  0.36662797535E+00  0.52703882483E+00  0.60467870441E+02  0.60928109012E+02  0.74470750000E+01 0.  1.
<mgrwt>
<rscale>  0 0.14950228E+02</rscale>
<asrwt>0</asrwt>
<pdfrwt beam="2">  1        2 0.98795672E+00 0.14950228E+02</pdfrwt>
<pdfrwt beam="1">  1       -2 0.99715372E+00 0.14950228E+02</pdfrwt>
<totfact>-0.17362296E-13</totfact>
</mgrwt>
</event>
<event>
 4    1 -0.4996155E-019  0.1491072E+02  0.7818608E-02  0.1870805E+00
          2   -1    0    0  501    0  0.00000000000E+00  0.00000000000E+00  0.11838977075E+03  0.11838977077E+03  0.25500000000E-02 0. -1.
         -2   -1    0    0    0  501 -0.00000000000E+00 -0.00000000000E+00 -0.46948317697E+00  0.46949010209E+00  0.25500000000E-02 0.  1.
         31    1    1    2    0    0  0.77814113439E-01 -0.60310880906E-01  0.56271048598E+02  0.56761778767E+02  0.74470750000E+01 0.  1.
        -31    1    1    2    0    0 -0.77814113439E-01  0.60310880906E-01  0.61649238970E+02  0.62097482107E+02  0.74470750000E+01 0. -1.
<mgrwt>
<rscale>  0 0.14910724E+02</rscale>
<asrwt>0</asrwt>
<pdfrwt beam="1">  1        2 0.98281153E+00 0.14910724E+02</pdfrwt>
<pdfrwt beam="2">  1       -2 0.99708360E+00 0.14910724E+02</pdfrwt>
<totfact>-0.39304198E-13</totfact>
</mgrwt>
</event>
<event>
 4    1 -0.4996155E-019  0.1493865E+02  0.7818608E-02  0.1869946E+00
         -2   -1    0    0    0  501 -0.00000000000E+00  0.00000000000E+00  0.12025903247E+03  0.12025903250E+03  0.25500000000E-02 0.  1.
          2   -1    0    0  501    0  0.00000000000E+00 -0.00000000000E+00 -0.46391876750E+00  0.46392577568E+00  0.25500000000E-02 0. -1.
         31    1    1    2    0    0  0.51058000012E+00 -0.21016188020E+00  0.61226934885E+02  0.61680639924E+02  0.74470750000E+01 0.  1.
        -31    1    1    2    0    0 -0.51058000012E+00  0.21016188020E+00  0.58568178821E+02  0.59042318352E+02  0.74470750000E+01 0. -1.
<mgrwt>
<rscale>  0 0.14938654E+02</rscale>
<asrwt>0</asrwt>
<pdfrwt beam="2">  1        2 0.98537205E+00 0.14938654E+02</pdfrwt>
<pdfrwt beam="1">  1       -2 0.99822188E+00 0.14938654E+02</pdfrwt>
<totfact>-0.17647693E-13</totfact>
</mgrwt>
</event>
<event>
 4    1  0.4996155E-019  0.1491828E+02  0.7818608E-02  0.1870573E+00
          2   -1    0    0  501    0  0.00000000000E+00  0.00000000000E+00  0.11960683542E+03  0.11960683545E+03  0.25500000000E-02 0.  1.
         -2   -1    0    0    0  501 -0.00000000000E+00 -0.00000000000E+00 -0.46517668507E+00  0.46518367430E+00  0.25500000000E-02 0. -1.
         31    1    1    2    0    0 -0.38639648066E-01 -0.41883488247E+00  0.59138090755E+02  0.59606623960E+02  0.74470750000E+01 0.  1.
        -31    1    1    2    0    0  0.38639648066E-01  0.41883488247E+00  0.60003567979E+02  0.60465395160E+02  0.74470750000E+01 0.  1.
<mgrwt>
<rscale>  0 0.14918275E+02</rscale>
<asrwt>0</asrwt>
<pdfrwt beam="1">  1        2 0.99283946E+00 0.14918275E+02</pdfrwt>
<pdfrwt beam="2">  1       -2 0.98801280E+00 0.14918275E+02</pdfrwt>
<totfact> 0.17939925E-13</totfact>
</mgrwt>
</event>
<event>
 4    1  0.4996155E-019  0.1491199E+02  0.7818608E-02  0.1870766E+00
         -2   -1    0    0    0  501 -0.00000000000E+00  0.00000000000E+00  0.11859926382E+03  0.11859926385E+03  0.25500000000E-02 0.  1.
          2   -1    0    0  501    0  0.00000000000E+00 -0.00000000000E+00 -0.46873357542E+00  0.46874051161E+00  0.25500000000E-02 0. -1.
         31    1    1    2    0    0  0.22762908901E-01  0.45671307804E-01  0.56182556542E+02  0.56673990416E+02  0.74470750000E+01 0. -1.
        -31    1    1    2    0    0 -0.22762908901E-01 -0.45671307804E-01  0.61947973706E+02  0.62394013946E+02  0.74470750000E+01 0.  1.
<mgrwt>
<rscale>  0 0.14911991E+02</rscale>
<asrwt>0</asrwt>
<pdfrwt beam="2">  1        2 0.99550484E+00 0.14911991E+02</pdfrwt>
<pdfrwt beam="1">  1       -2 0.98453757E+00 0.14911991E+02</pdfrwt>
<totfact> 0.51993155E-13</totfact>
</mgrwt>
</event>
<event>
 4    1  0.4996155E-019  0.1489536E+02  0.7818608E-02  0.1871278E+00
          2   -1    0    0  501    0  0.00000000000E+00  0.00000000000E+00  0.12002580256E+03  0.12002580258E+03  0.25500000000E-02 0.  1.
         -2   -1    0    0    0  501 -0.00000000000E+00 -0.00000000000E+00 -0.46212994458E+00  0.46213697989E+00  0.25500000000E-02 0. -1.
         31    1    1    2    0    0 -0.72891712336E-01 -0.59841713389E-01  0.59692248634E+02  0.60155069340E+02  0.74470750000E+01 0. -1.
        -31    1    1    2    0    0  0.72891712336E-01  0.59841713389E-01  0.59871423977E+02  0.60332870223E+02  0.74470750000E+01 0. -1.
<mgrwt>
<rscale>  0 0.14895361E+02</rscale>
<asrwt>0</asrwt>
<pdfrwt beam="1">  1        2 0.99627859E+00 0.14895361E+02</pdfrwt>
<pdfrwt beam="2">  1       -2 0.98157986E+00 0.14895361E+02</pdfrwt>
<totfact> 0.90294447E-13</totfact>
</mgrwt>
</event>
<event>
 4    1  0.4996155E-019  0.1491622E+02  0.7818608E-02  0.1870636E+00
          2   -1    0    0  501    0  0.00000000000E+00  0.00000000000E+00  0.11992399889E+03  0.11992399892E+03  0.25500000000E-02 0.  1.
         -2   -1    0    0    0  501 -0.00000000000E+00 -0.00000000000E+00 -0.46381844688E+00  0.46382545657E+00  0.25500000000E-02 0. -1.
         31    1    1    2    0    0  0.68593780432E-01  0.38114752238E+00  0.60701352305E+02  0.61157690246E+02  0.74470750000E+01 0.  1.
        -31    1    1    2    0    0 -0.68593780432E-01 -0.38114752238E+00  0.58758828142E+02  0.59230134131E+02  0.74470750000E+01 0. -1.
<mgrwt>
<rscale>  0 0.14916218E+02</rscale>
<asrwt>0</asrwt>
<pdfrwt beam="1">  1        2 0.99545076E+00 0.14916218E+02</pdfrwt>
<pdfrwt beam="2">  1       -2 0.98514922E+00 0.14916218E+02</pdfrwt>
<totfact> 0.44190418E-13</totfact>
</mgrwt>
</event>
<event>
 4    1 -0.4996155E-019  0.1495414E+02  0.7818608E-02  0.1869471E+00
         -2   -1    0    0    0  501 -0.00000000000E+00  0.00000000000E+00  0.11986103953E+03  0.11986103955E+03  0.25500000000E-02 0. -1.
          2   -1    0    0  501    0  0.00000000000E+00 -0.00000000000E+00 -0.46642489412E+00  0.46643186465E+00  0.25500000000E-02 0.  1.
         31    1    1    2    0    0  0.42513814562E+00  0.13414641926E+00  0.55682711535E+02  0.56180263684E+02  0.74470750000E+01 0.  1.
        -31    1    1    2    0    0 -0.42513814562E+00 -0.13414641926E+00  0.63711903096E+02  0.64147207733E+02  0.74470750000E+01 0. -1.
<mgrwt>
<rscale>  0 0.14954142E+02</rscale>
<asrwt>0</asrwt>
<pdfrwt beam="2">  1        2 0.99066176E+00 0.14954142E+02</pdfrwt>
<pdfrwt beam="1">  1       -2 0.99495172E+00 0.14954142E+02</pdfrwt>
<totfact>-0.16831559E-13</totfact>
</mgrwt>
</event>
<event>
 4    1 -0.4996155E-019  0.1494199E+02  0.7818608E-02  0.1869844E+00
         -2   -1    0    0    0  501 -0.00000000000E+00  0.00000000000E+00  0.12000338232E+03  0.12000338235E+03  0.25500000000E-02 0. -1.
          2   -1    0    0  501    0  0.00000000000E+00 -0.00000000000E+00 -0.46511496490E+00  0.46512195505E+00  0.25500000000E-02 0.  1.
         31    1    1    2    0    0 -0.16546416571E+00 -0.47998132553E+00  0.57231008610E+02  0.57715726046E+02  0.74470750000E+01 0.  1.
        -31    1    1    2    0    0  0.16546416571E+00  0.47998132553E+00  0.62307258749E+02  0.62752778260E+02  0.74470750000E+01 0. -1.
<mgrwt>
<rscale>  0 0.14941993E+02</rscale>
<asrwt>0</asrwt>
<pdfrwt beam="2">  1        2 0.98789486E+00 0.14941993E+02</pdfrwt>
<pdfrwt beam="1">  1       -2 0.99611788E+00 0.14941993E+02</pdfrwt>
<totfact>-0.20951036E-13</totfact>
</mgrwt>
</event>
<event>
 4    1 -0.4996155E-019  0.1498671E+02  0.7818608E-02  0.1868474E+00
         -2   -1    0    0    0  501 -0.00000000000E+00  0.00000000000E+00  0.11978938863E+03  0.11978938866E+03  0.25500000000E-02 0.  1.
          2   -1    0    0  501    0  0.00000000000E+00 -0.00000000000E+00 -0.46873900332E+00  0.46874593943E+00  0.25500000000E-02 0. -1.
         31    1    1    2    0    0  0.59799973318E+00 -0.43242191870E+00  0.56585231996E+02  0.57077946691E+02  0.74470750000E+01 0. -1.
        -31    1    1    2    0    0 -0.59799973318E+00  0.43242191870E+00  0.62735417631E+02  0.63180187906E+02  0.74470750000E+01 0.  1.
<mgrwt>
<rscale>  0 0.14986711E+02</rscale>
<asrwt>0</asrwt>
<pdfrwt beam="2">  1        2 0.99555526E+00 0.14986711E+02</pdfrwt>
<pdfrwt beam="1">  1       -2 0.99437840E+00 0.14986711E+02</pdfrwt>
<totfact>-0.11167024E-13</totfact>
</mgrwt>
</event>
<event>
 4    1  0.4996155E-019  0.1493374E+02  0.7818608E-02  0.1870097E+00
          2   -1    0    0  501    0  0.00000000000E+00  0.00000000000E+00  0.12017857713E+03  0.12017857716E+03  0.25500000000E-02 0.  1.
         -2   -1    0    0    0  501 -0.00000000000E+00 -0.00000000000E+00 -0.46392372972E+00  0.46393073783E+00  0.25500000000E-02 0. -1.
         31    1    1    2    0    0  0.52804035222E+00  0.74651717655E-01  0.60696581902E+02  0.61154054487E+02  0.74470750000E+01 0. -1.
        -31    1    1    2    0    0 -0.52804035222E+00 -0.74651717655E-01  0.59018071497E+02  0.59488453407E+02  0.74470750000E+01 0.  1.
<mgrwt>
<rscale>  0 0.14933736E+02</rscale>
<asrwt>0</asrwt>
<pdfrwt beam="1">  1        2 0.99755666E+00 0.14933736E+02</pdfrwt>
<pdfrwt beam="2">  1       -2 0.98538002E+00 0.14933736E+02</pdfrwt>
<totfact> 0.27732983E-13</totfact>
</mgrwt>
</event>
<event>
 4    1 -0.4996155E-019  0.1497724E+02  0.7818608E-02  0.1868764E+00
          2   -1    0    0  501    0  0.00000000000E+00  0.00000000000E+00  0.11998803177E+03  0.11998803180E+03  0.25500000000E-02 0. -1.
         -2   -1    0    0    0  501 -0.00000000000E+00 -0.00000000000E+00 -0.46737155005E+00  0.46737850646E+00  0.25500000000E-02 0.  1.
         31    1    1    2    0    0  0.52908033511E+00  0.77494929030E-02  0.55067296024E+02  0.55571089637E+02  0.74470750000E+01 0.  1.
        -31    1    1    2    0    0 -0.52908033511E+00 -0.77494929030E-02  0.64453364197E+02  0.64884320667E+02  0.74470750000E+01 0. -1.
<mgrwt>
<rscale>  0 0.14977238E+02</rscale>
<asrwt>0</asrwt>
<pdfrwt beam="1">  1        2 0.99600961E+00 0.14977238E+02</pdfrwt>
<pdfrwt beam="2">  1       -2 0.99266865E+00 0.14977238E+02</pdfrwt>
<totfact>-0.85357294E-14</totfact>
</mgrwt>
</event>
<event>
 4    1 -0.4996155E-019  0.1497017E+02  0.7818608E-02  0.1868980E+00
         -2   -1    0    0    0  501 -0.00000000000E+00  0.00000000000E+00  0.11966502043E+03  0.11966502046E+03  0.25500000000E-02 0.  1.
          2   -1    0    0  501    0  0.00000000000E+00 -0.00000000000E+00 -0.46819092641E+00  0.46819787064E+00  0.25500000000E-02 0. -1.
         31    1    1    2    0    0  0.63356227826E+00  0.15247300740E+00  0.62632189473E+02  0.63076736864E+02  0.74470750000E+01 0.  1.
        -31    1    1    2    0    0 -0.63356227826E+00 -0.15247300740E+00  0.56564640029E+02  0.57056481462E+02  0.74470750000E+01 0. -1.
<mgrwt>
<rscale>  0 0.14970170E+02</rscale>
<asrwt>0</asrwt>
<pdfrwt beam="2">  1        2 0.99439173E+00 0.14970170E+02</pdfrwt>
<pdfrwt beam="1">  1       -2 0.99334550E+00 0.14970170E+02</pdfrwt>
<totfact>-0.11581741E-13</totfact>
</mgrwt>
</event>
<event>
 4    1 -0.4996155E-019  0.1494215E+02  0.7818608E-02  0.1869839E+00
         -2   -1    0    0    0  501 -0.00000000000E+00  0.00000000000E+00  0.11936644001E+03  0.11936644004E+03  0.25500000000E-02 0.  1.
          2   -1    0    0  501    0  0.00000000000E+00 -0.00000000000E+00 -0.46760645834E+00  0.46761341125E+00  0.25500000000E-02 0. -1.
         31    1    1    2    0    0 -0.25825471235E+00  0.18484385042E-01  0.63775489323E+02  0.64209337339E+02  0.74470750000E+01 0.  1.
        -31    1    1    2    0    0  0.25825471235E+00 -0.18484385042E-01  0.55123344229E+02  0.55624716110E+02  0.74470750000E+01 0. -1.
<mgrwt>
<rscale>  0 0.14942147E+02</rscale>
<asrwt>0</asrwt>
<pdfrwt beam="2">  1        2 0.99314556E+00 0.14942147E+02</pdfrwt>
<pdfrwt beam="1">  1       -2 0.99087180E+00 0.14942147E+02</pdfrwt>
<totfact>-0.42174114E-14</totfact>
</mgrwt>
</event>
<event>
 4    1 -0.4996155E-019  0.1497239E+02  0.7818608E-02  0.1868912E+00
         -2   -1    0    0    0  501 -0.00000000000E+00  0.00000000000E+00  0.11968333481E+03  0.11968333484E+03  0.25500000000E-02 0.  1.
          2   -1    0    0  501    0  0.00000000000E+00 -0.00000000000E+00 -0.46825799329E+00  0.46826493653E+00  0.25500000000E-02 0. -1.
         31    1    1    2    0    0 -0.68850367732E+00  0.26881285050E+00  0.58045813155E+02  0.58526247518E+02  0.74470750000E+01 0. -1.
        -31    1    1    2    0    0  0.68850367732E+00 -0.26881285050E+00  0.61169263662E+02  0.61625352256E+02  0.74470750000E+01 0.  1.
<mgrwt>
<rscale>  0 0.14972388E+02</rscale>
<asrwt>0</asrwt>
<pdfrwt beam="2">  1        2 0.99453421E+00 0.14972388E+02</pdfrwt>
<pdfrwt beam="1">  1       -2 0.99349749E+00 0.14972388E+02</pdfrwt>
<totfact>-0.11659024E-13</totfact>
</mgrwt>
</event>
<event>
 4    1 -0.4996155E-019  0.1492206E+02  0.7818608E-02  0.1870456E+00
         -2   -1    0    0    0  501 -0.00000000000E+00  0.00000000000E+00  0.11962798924E+03  0.11962798926E+03  0.25500000000E-02 0. -1.
          2   -1    0    0  501    0  0.00000000000E+00 -0.00000000000E+00 -0.46533026387E+00  0.46533725079E+00  0.25500000000E-02 0.  1.
         31    1    1    2    0    0  0.85938890019E-01 -0.27193995758E+00  0.62445822588E+02  0.62888957867E+02  0.74470750000E+01 0. -1.
        -31    1    1    2    0    0 -0.85938890019E-01  0.27193995758E+00  0.56716836383E+02  0.57204368646E+02  0.74470750000E+01 0.  1.
<mgrwt>
<rscale>  0 0.14922057E+02</rscale>
<asrwt>0</asrwt>
<pdfrwt beam="2">  1        2 0.98833840E+00 0.14922057E+02</pdfrwt>
<pdfrwt beam="1">  1       -2 0.99301565E+00 0.14922057E+02</pdfrwt>
<totfact>-0.18622286E-13</totfact>
</mgrwt>
</event>
<event>
 4    1 -0.4996155E-019  0.1490452E+02  0.7818608E-02  0.1870996E+00
         -2   -1    0    0    0  501 -0.00000000000E+00  0.00000000000E+00  0.11971554842E+03  0.11971554845E+03  0.25500000000E-02 0.  1.
          2   -1    0    0  501    0  0.00000000000E+00 -0.00000000000E+00 -0.46389752353E+00  0.46390453203E+00  0.25500000000E-02 0. -1.
         31    1    1    2    0    0  0.12924850404E+00 -0.29617536771E-01  0.57656322023E+02  0.58135427905E+02  0.74470750000E+01 0. -1.
        -31    1    1    2    0    0 -0.12924850404E+00  0.29617536771E-01  0.61595328878E+02  0.62044025079E+02  0.74470750000E+01 0.  1.
<mgrwt>
<rscale>  0 0.14904519E+02</rscale>
<asrwt>0</asrwt>
<pdfrwt beam="2">  1        2 0.98530992E+00 0.14904519E+02</pdfrwt>
<pdfrwt beam="1">  1       -2 0.99372780E+00 0.14904519E+02</pdfrwt>
<totfact>-0.31632807E-13</totfact>
</mgrwt>
</event>
<event>
 4    1  0.4996155E-019  0.1490523E+02  0.7818608E-02  0.1870974E+00
          2   -1    0    0  501    0  0.00000000000E+00  0.00000000000E+00  0.11986255740E+03  0.11986255743E+03  0.25500000000E-02 0.  1.
         -2   -1    0    0    0  501 -0.00000000000E+00 -0.00000000000E+00 -0.46337296540E+00  0.46337998183E+00  0.25500000000E-02 0. -1.
         31    1    1    2    0    0 -0.14309244093E+00  0.11929966684E-01  0.57690331823E+02  0.58169183677E+02  0.74470750000E+01 0. -1.
        -31    1    1    2    0    0  0.14309244093E+00 -0.11929966684E-01  0.61708852610E+02  0.62156753730E+02  0.74470750000E+01 0.  1.
<mgrwt>
<rscale>  0 0.14905233E+02</rscale>
<asrwt>0</asrwt>
<pdfrwt beam="1">  1        2 0.99493904E+00 0.14905233E+02</pdfrwt>
<pdfrwt beam="2">  1       -2 0.98420473E+00 0.14905233E+02</pdfrwt>
<totfact> 0.60337338E-13</totfact>
</mgrwt>
</event>
<event>
 4    1 -0.4996155E-019  0.1498817E+02  0.7818608E-02  0.1868430E+00
          2   -1    0    0  501    0  0.00000000000E+00  0.00000000000E+00  0.11993962160E+03  0.11993962163E+03  0.25500000000E-02 0. -1.
         -2   -1    0    0    0  501 -0.00000000000E+00 -0.00000000000E+00 -0.46824277529E+00  0.46824971875E+00  0.25500000000E-02 0.  1.
         31    1    1    2    0    0  0.69367143382E+00 -0.43109736379E-02  0.55957741346E+02  0.56455371235E+02  0.74470750000E+01 0.  1.
        -31    1    1    2    0    0 -0.69367143382E+00  0.43109736379E-02  0.63513637484E+02  0.63952500116E+02  0.74470750000E+01 0. -1.
<mgrwt>
<rscale>  0 0.14988166E+02</rscale>
<asrwt>0</asrwt>
<pdfrwt beam="1">  1        2 0.99561653E+00 0.14988166E+02</pdfrwt>
<pdfrwt beam="2">  1       -2 0.99451030E+00 0.14988166E+02</pdfrwt>
<totfact>-0.11119819E-13</totfact>
</mgrwt>
</event>
<event>
 4    1  0.4996155E-019  0.1493934E+02  0.7818608E-02  0.1869925E+00
         -2   -1    0    0    0  501 -0.00000000000E+00  0.00000000000E+00  0.11891479607E+03  0.11891479610E+03  0.25500000000E-02 0.  1.
          2   -1    0    0  501    0  0.00000000000E+00 -0.00000000000E+00 -0.46920594143E+00  0.46921287064E+00  0.25500000000E-02 0. -1.
         31    1    1    2    0    0 -0.32658876067E+00 -0.46043349997E+00  0.58140022811E+02  0.58617743370E+02  0.74470750000E+01 0. -1.
        -31    1    1    2    0    0  0.32658876067E+00  0.46043349997E+00  0.60305567322E+02  0.60766265603E+02  0.74470750000E+01 0.  1.
<mgrwt>
<rscale>  0 0.14939337E+02</rscale>
<asrwt>0</asrwt>
<pdfrwt beam="2">  1        2 0.99651452E+00 0.14939337E+02</pdfrwt>
<pdfrwt beam="1">  1       -2 0.98715051E+00 0.14939337E+02</pdfrwt>
<totfact> 0.18764476E-13</totfact>
</mgrwt>
</event>
<event>
 4    1  0.4996155E-019  0.1494091E+02  0.7818608E-02  0.1869877E+00
          2   -1    0    0  501    0  0.00000000000E+00  0.00000000000E+00  0.12011948177E+03  0.12011948180E+03  0.25500000000E-02 0. -1.
         -2   -1    0    0    0  501 -0.00000000000E+00 -0.00000000000E+00 -0.46459832221E+00  0.46460532014E+00  0.25500000000E-02 0.  1.
         31    1    1    2    0    0 -0.17039812975E+00  0.32371022112E+00  0.56085343032E+02  0.56578780942E+02  0.74470750000E+01 0.  1.
        -31    1    1    2    0    0  0.17039812975E+00 -0.32371022112E+00  0.63569540417E+02  0.64005306176E+02  0.74470750000E+01 0. -1.
<mgrwt>
<rscale>  0 0.14940915E+02</rscale>
<asrwt>0</asrwt>
<pdfrwt beam="1">  1        2 0.99707360E+00 0.14940915E+02</pdfrwt>
<pdfrwt beam="2">  1       -2 0.98680545E+00 0.14940915E+02</pdfrwt>
<totfact> 0.19311130E-13</totfact>
</mgrwt>
</event>
<event>
 4    1 -0.4996155E-019  0.1501663E+02  0.7818608E-02  0.1867561E+00
          2   -1    0    0  501    0  0.00000000000E+00  0.00000000000E+00  0.11998943233E+03  0.11998943236E+03  0.25500000000E-02 0.  1.
         -2   -1    0    0    0  501 -0.00000000000E+00 -0.00000000000E+00 -0.46982814860E+00  0.46983506863E+00  0.25500000000E-02 0. -1.
         31    1    1    2    0    0  0.10397906806E-01 -0.13047254792E+00  0.67364690520E+02  0.67775198901E+02  0.74470750000E+01 0.  1.
        -31    1    1    2    0    0 -0.10397906806E-01  0.13047254792E+00  0.52154913663E+02  0.52684068526E+02  0.74470750000E+01 0. -1.
<mgrwt>
<rscale>  0 0.15016635E+02</rscale>
<asrwt>0</asrwt>
<pdfrwt beam="1">  1        2 0.99604150E+00 0.15016635E+02</pdfrwt>
<pdfrwt beam="2">  1       -2 0.99786593E+00 0.15016635E+02</pdfrwt>
<totfact>-0.65674142E-14</totfact>
</mgrwt>
</event>
<event>
 4    1 -0.4996155E-019  0.1490638E+02  0.7818608E-02  0.1870939E+00
          2   -1    0    0  501    0  0.00000000000E+00  0.00000000000E+00  0.11846193010E+03  0.11846193013E+03  0.25500000000E-02 0. -1.
         -2   -1    0    0    0  501 -0.00000000000E+00 -0.00000000000E+00 -0.46892359598E+00  0.46893052937E+00  0.25500000000E-02 0.  1.
         31    1    1    2    0    0  0.17686436662E+00 -0.86777049639E-01  0.57172387739E+02  0.57655699259E+02  0.74470750000E+01 0.  1.
        -31    1    1    2    0    0 -0.17686436662E+00  0.86777049639E-01  0.60820618767E+02  0.61275161399E+02  0.74470750000E+01 0. -1.
<mgrwt>
<rscale>  0 0.14906376E+02</rscale>
<asrwt>0</asrwt>
<pdfrwt beam="1">  1        2 0.98340357E+00 0.14906376E+02</pdfrwt>
<pdfrwt beam="2">  1       -2 0.99590227E+00 0.14906376E+02</pdfrwt>
<totfact>-0.42879305E-13</totfact>
</mgrwt>
</event>
<event>
 4    1  0.4996155E-019  0.1492380E+02  0.7818608E-02  0.1870403E+00
         -2   -1    0    0    0  501 -0.00000000000E+00  0.00000000000E+00  0.11862717744E+03  0.11862717747E+03  0.25500000000E-02 0.  1.
          2   -1    0    0  501    0  0.00000000000E+00 -0.00000000000E+00 -0.46936578361E+00  0.46937271046E+00  0.25500000000E-02 0. -1.
         31    1    1    2    0    0 -0.29634827069E+00  0.36496659005E+00  0.59064528541E+02  0.59534011125E+02  0.74470750000E+01 0.  1.
        -31    1    1    2    0    0  0.29634827069E+00 -0.36496659005E+00  0.59093283116E+02  0.59562539053E+02  0.74470750000E+01 0.  1.
<mgrwt>
<rscale>  0 0.14923800E+02</rscale>
<asrwt>0</asrwt>
<pdfrwt beam="2">  1        2 0.99684315E+00 0.14923800E+02</pdfrwt>
<pdfrwt beam="1">  1       -2 0.98477360E+00 0.14923800E+02</pdfrwt>
<totfact> 0.39433802E-13</totfact>
</mgrwt>
</event>
<event>
 4    1 -0.4996155E-019  0.1494273E+02  0.7818608E-02  0.1869821E+00
         -2   -1    0    0    0  501 -0.00000000000E+00  0.00000000000E+00  0.11939441619E+03  0.11939441621E+03  0.25500000000E-02 0. -1.
          2   -1    0    0  501    0  0.00000000000E+00 -0.00000000000E+00 -0.46753343773E+00  0.46754039172E+00  0.25500000000E-02 0.  1.
         31    1    1    2    0    0 -0.21015195823E+00 -0.26118985284E+00  0.63474074001E+02  0.63910322955E+02  0.74470750000E+01 0. -1.
        -31    1    1    2    0    0  0.21015195823E+00  0.26118985284E+00  0.55452808749E+02  0.55951633651E+02  0.74470750000E+01 0.  1.
<mgrwt>
<rscale>  0 0.14942731E+02</rscale>
<asrwt>0</asrwt>
<pdfrwt beam="2">  1        2 0.99299198E+00 0.14942731E+02</pdfrwt>
<pdfrwt beam="1">  1       -2 0.99110252E+00 0.14942731E+02</pdfrwt>
<totfact>-0.54533539E-14</totfact>
</mgrwt>
</event>
<event>
 4    1 -0.4996155E-019  0.1499444E+02  0.7818608E-02  0.1868238E+00
          2   -1    0    0  501    0  0.00000000000E+00  0.00000000000E+00  0.12024154760E+03  0.12024154763E+03  0.25500000000E-02 0. -1.
         -2   -1    0    0    0  501 -0.00000000000E+00 -0.00000000000E+00 -0.46745814233E+00  0.46746509745E+00  0.25500000000E-02 0.  1.
         31    1    1    2    0    0  0.36275924072E+00  0.26787426531E+00  0.53938377911E+02  0.54451913545E+02  0.74470750000E+01 0.  1.
        -31    1    1    2    0    0 -0.36275924072E+00 -0.26787426531E+00  0.65835711547E+02  0.66257099180E+02  0.74470750000E+01 0. -1.
<mgrwt>
<rscale>  0 0.14994441E+02</rscale>
<asrwt>0</asrwt>
<pdfrwt beam="1">  1        2 0.99810657E+00 0.14994441E+02</pdfrwt>
<pdfrwt beam="2">  1       -2 0.99285997E+00 0.14994441E+02</pdfrwt>
<totfact>-0.52987263E-14</totfact>
</mgrwt>
</event>
<event>
 4    1 -0.4996155E-019  0.1493798E+02  0.7818608E-02  0.1869967E+00
         -2   -1    0    0    0  501 -0.00000000000E+00  0.00000000000E+00  0.11950383809E+03  0.11950383811E+03  0.25500000000E-02 0.  1.
          2   -1    0    0  501    0  0.00000000000E+00 -0.00000000000E+00 -0.46680850170E+00  0.46681546650E+00  0.25500000000E-02 0. -1.
         31    1    1    2    0    0  0.98609779193E-01  0.55808884712E+00  0.60125600536E+02  0.60587688130E+02  0.74470750000E+01 0.  1.
        -31    1    1    2    0    0 -0.98609779193E-01 -0.55808884712E+00  0.58911429048E+02  0.59382965450E+02  0.74470750000E+01 0.  1.
<mgrwt>
<rscale>  0 0.14937982E+02</rscale>
<asrwt>0</asrwt>
<pdfrwt beam="2">  1        2 0.99146185E+00 0.14937982E+02</pdfrwt>
<pdfrwt beam="1">  1       -2 0.99200130E+00 0.14937982E+02</pdfrwt>
<totfact>-0.10415369E-13</totfact>
</mgrwt>
</event>
<event>
 4    1 -0.4996155E-019  0.1497168E+02  0.7818608E-02  0.1868934E+00
         -2   -1    0    0    0  501 -0.00000000000E+00  0.00000000000E+00  0.12029807808E+03  0.12029807811E+03  0.25500000000E-02 0. -1.
          2   -1    0    0  501    0  0.00000000000E+00 -0.00000000000E+00 -0.46582129299E+00  0.46582827255E+00  0.25500000000E-02 0.  1.
         31    1    1    2    0    0 -0.30000517120E+00 -0.65145959468E+00  0.61964686754E+02  0.62414707668E+02  0.74470750000E+01 0.  1.
        -31    1    1    2    0    0  0.30000517120E+00  0.65145959468E+00  0.57867570038E+02  0.58349198716E+02  0.74470750000E+01 0.  1.
<mgrwt>
<rscale>  0 0.14971684E+02</rscale>
<asrwt>0</asrwt>
<pdfrwt beam="2">  1        2 0.98939864E+00 0.14971684E+02</pdfrwt>
<pdfrwt beam="1">  1       -2 0.99856047E+00 0.14971684E+02</pdfrwt>
<totfact>-0.85494829E-14</totfact>
</mgrwt>
</event>
<event>
 4    1 -0.4996155E-019  0.1496611E+02  0.7818608E-02  0.1869104E+00
          2   -1    0    0  501    0  0.00000000000E+00  0.00000000000E+00  0.11935915180E+03  0.11935915183E+03  0.25500000000E-02 0. -1.
         -2   -1    0    0    0  501 -0.00000000000E+00 -0.00000000000E+00 -0.46913610197E+00  0.46914303221E+00  0.25500000000E-02 0.  1.
         31    1    1    2    0    0  0.65819573566E+00 -0.14487531379E+00  0.61751248040E+02  0.62202329306E+02  0.74470750000E+01 0. -1.
        -31    1    1    2    0    0 -0.65819573566E+00  0.14487531379E+00  0.57138767655E+02  0.57625965551E+02  0.74470750000E+01 0.  1.
<mgrwt>
<rscale>  0 0.14966109E+02</rscale>
<asrwt>0</asrwt>
<pdfrwt beam="1">  1        2 0.99082418E+00 0.14966109E+02</pdfrwt>
<pdfrwt beam="2">  1       -2 0.99638135E+00 0.14966109E+02</pdfrwt>
<totfact>-0.14840721E-13</totfact>
</mgrwt>
</event>
<event>
 4    1  0.4996155E-019  0.1490959E+02  0.7818608E-02  0.1870840E+00
         -2   -1    0    0    0  501 -0.00000000000E+00  0.00000000000E+00  0.11827349641E+03  0.11827349643E+03  0.25500000000E-02 0.  1.
          2   -1    0    0  501    0  0.00000000000E+00 -0.00000000000E+00 -0.46987308469E+00  0.46988000406E+00  0.25500000000E-02 0. -1.
         31    1    1    2    0    0 -0.20853582374E+00 -0.26700417166E+00  0.59025338536E+02  0.59494237483E+02  0.74470750000E+01 0.  1.
        -31    1    1    2    0    0  0.20853582374E+00  0.26700417166E+00  0.58778284785E+02  0.59249138954E+02  0.74470750000E+01 0.  1.
<mgrwt>
<rscale>  0 0.14909587E+02</rscale>
<asrwt>0</asrwt>
<pdfrwt beam="2">  1        2 0.99790452E+00 0.14909587E+02</pdfrwt>
<pdfrwt beam="1">  1       -2 0.98185332E+00 0.14909587E+02</pdfrwt>
<totfact> 0.57528387E-13</totfact>
</mgrwt>
</event>
<event>
 4    1 -0.4996155E-019  0.1496475E+02  0.7818608E-02  0.1869146E+00
          2   -1    0    0  501    0  0.00000000000E+00  0.00000000000E+00  0.11993550008E+03  0.11993550011E+03  0.25500000000E-02 0.  1.
         -2   -1    0    0    0  501 -0.00000000000E+00 -0.00000000000E+00 -0.46679664907E+00  0.46680361404E+00  0.25500000000E-02 0. -1.
         31    1    1    2    0    0  0.53062319025E+00  0.34203604388E+00  0.62617764173E+02  0.63062206318E+02  0.74470750000E+01 0. -1.
        -31    1    1    2    0    0 -0.53062319025E+00 -0.34203604388E+00  0.56850939256E+02  0.57340097401E+02  0.74470750000E+01 0.  1.
<mgrwt>
<rscale>  0 0.14964747E+02</rscale>
<asrwt>0</asrwt>
<pdfrwt beam="1">  1        2 0.99557049E+00 0.14964747E+02</pdfrwt>
<pdfrwt beam="2">  1       -2 0.99145066E+00 0.14964747E+02</pdfrwt>
<totfact>-0.56258975E-14</totfact>
</mgrwt>
</event>
<event>
 4    1 -0.4996155E-019  0.1490928E+02  0.7818608E-02  0.1870850E+00
          2   -1    0    0  501    0  0.00000000000E+00  0.00000000000E+00  0.11859213922E+03  0.11859213924E+03  0.25500000000E-02 0.  1.
         -2   -1    0    0    0  501 -0.00000000000E+00 -0.00000000000E+00 -0.46859129181E+00  0.46859823011E+00  0.25500000000E-02 0. -1.
         31    1    1    2    0    0  0.30217886562E+00  0.60921637650E-01  0.57999083802E+02  0.58476043569E+02  0.74470750000E+01 0. -1.
        -31    1    1    2    0    0 -0.30217886562E+00 -0.60921637650E-01  0.60124464121E+02  0.60584693904E+02  0.74470750000E+01 0.  1.
<mgrwt>
<rscale>  0 0.14909280E+02</rscale>
<asrwt>0</asrwt>
<pdfrwt beam="1">  1        2 0.98447748E+00 0.14909280E+02</pdfrwt>
<pdfrwt beam="2">  1       -2 0.99520362E+00 0.14909280E+02</pdfrwt>
<totfact>-0.37581121E-13</totfact>
</mgrwt>
</event>
<event>
 4    1 -0.4996155E-019  0.1495372E+02  0.7818608E-02  0.1869484E+00
         -2   -1    0    0    0  501 -0.00000000000E+00  0.00000000000E+00  0.12011887606E+03  0.12011887609E+03  0.25500000000E-02 0. -1.
          2   -1    0    0  501    0  0.00000000000E+00 -0.00000000000E+00 -0.46539771089E+00  0.46540469680E+00  0.25500000000E-02 0.  1.
         31    1    1    2    0    0  0.52217111993E+00 -0.20144331093E+00  0.62748746796E+02  0.63191592737E+02  0.74470750000E+01 0. -1.
        -31    1    1    2    0    0 -0.52217111993E+00  0.20144331093E+00  0.56904731555E+02  0.57392688049E+02  0.74470750000E+01 0. -1.
<mgrwt>
<rscale>  0 0.14953725E+02</rscale>
<asrwt>0</asrwt>
<pdfrwt beam="2">  1        2 0.98849675E+00 0.14953725E+02</pdfrwt>
<pdfrwt beam="1">  1       -2 0.99707520E+00 0.14953725E+02</pdfrwt>
<totfact>-0.16535150E-13</totfact>
</mgrwt>
</event>
<event>
 4    1  0.4996155E-019  0.1491247E+02  0.7818608E-02  0.1870751E+00
         -2   -1    0    0    0  501 -0.00000000000E+00  0.00000000000E+00  0.11882023531E+03  0.11882023534E+03  0.25500000000E-02 0. -1.
          2   -1    0    0  501    0  0.00000000000E+00 -0.00000000000E+00 -0.46789194192E+00  0.46789889059E+00  0.25500000000E-02 0.  1.
         31    1    1    2    0    0 -0.19856822764E+00  0.10011891124E+00  0.61536518058E+02  0.61985897057E+02  0.74470750000E+01 0. -1.
        -31    1    1    2    0    0  0.19856822764E+00 -0.10011891124E+00  0.56815825312E+02  0.57302237174E+02  0.74470750000E+01 0.  1.
<mgrwt>
<rscale>  0 0.14912471E+02</rscale>
<asrwt>0</asrwt>
<pdfrwt beam="2">  1        2 0.99373168E+00 0.14912471E+02</pdfrwt>
<pdfrwt beam="1">  1       -2 0.98635776E+00 0.14912471E+02</pdfrwt>
<totfact> 0.35232733E-13</totfact>
</mgrwt>
</event>
<event>
 4    1  0.4996155E-019  0.1490490E+02  0.7818608E-02  0.1870984E+00
          2   -1    0    0  501    0  0.00000000000E+00  0.00000000000E+00  0.11932519705E+03  0.11932519708E+03  0.25500000000E-02 0. -1.
         -2   -1    0    0    0  501 -0.00000000000E+00 -0.00000000000E+00 -0.46543909139E+00  0.46544607668E+00  0.25500000000E-02 0.  1.
         31    1    1    2    0    0 -0.13962500953E+00  0.21944297456E+00  0.58532938172E+02  0.59005350838E+02  0.74470750000E+01 0. -1.
        -31    1    1    2    0    0  0.13962500953E+00 -0.21944297456E+00  0.60326819787E+02  0.60785292316E+02  0.74470750000E+01 0.  1.
<mgrwt>
<rscale>  0 0.14904903E+02</rscale>
<asrwt>0</asrwt>
<pdfrwt beam="1">  1        2 0.99051285E+00 0.14904903E+02</pdfrwt>
<pdfrwt beam="2">  1       -2 0.98855892E+00 0.14904903E+02</pdfrwt>
<totfact> 0.15047911E-13</totfact>
</mgrwt>
</event>
<event>
 4    1 -0.4996155E-019  0.1490454E+02  0.7818608E-02  0.1870996E+00
         -2   -1    0    0    0  501 -0.00000000000E+00  0.00000000000E+00  0.12011327751E+03  0.12011327754E+03  0.25500000000E-02 0. -1.
          2   -1    0    0  501    0  0.00000000000E+00 -0.00000000000E+00 -0.46236245209E+00  0.46236948386E+00  0.25500000000E-02 0.  1.
         31    1    1    2    0    0 -0.24476232578E+00 -0.30659948622E-01  0.60865261253E+02  0.61319652658E+02  0.74470750000E+01 0. -1.
        -31    1    1    2    0    0  0.24476232578E+00  0.30659948622E-01  0.58785653804E+02  0.59255994362E+02  0.74470750000E+01 0.  1.
<mgrwt>
<rscale>  0 0.14904536E+02</rscale>
<asrwt>0</asrwt>
<pdfrwt beam="2">  1        2 0.98207456E+00 0.14904536E+02</pdfrwt>
<pdfrwt beam="1">  1       -2 0.99700381E+00 0.14904536E+02</pdfrwt>
<totfact>-0.45316536E-13</totfact>
</mgrwt>
</event>
<event>
 4    1 -0.4996155E-019  0.1494049E+02  0.7818608E-02  0.1869890E+00
         -2   -1    0    0    0  501 -0.00000000000E+00  0.00000000000E+00  0.11989631071E+03  0.11989631073E+03  0.25500000000E-02 0.  1.
          2   -1    0    0  501    0  0.00000000000E+00 -0.00000000000E+00 -0.46543643196E+00  0.46544341729E+00  0.25500000000E-02 0. -1.
         31    1    1    2    0    0 -0.33847437879E+00 -0.43898009229E+00  0.58138037062E+02  0.58615676639E+02  0.74470750000E+01 0.  1.
        -31    1    1    2    0    0  0.33847437879E+00  0.43898009229E+00  0.61292837212E+02  0.61746077510E+02  0.74470750000E+01 0.  1.
<mgrwt>
<rscale>  0 0.14940486E+02</rscale>
<asrwt>0</asrwt>
<pdfrwt beam="2">  1        2 0.98857159E+00 0.14940486E+02</pdfrwt>
<pdfrwt beam="1">  1       -2 0.99523520E+00 0.14940486E+02</pdfrwt>
<totfact>-0.20649424E-13</totfact>
</mgrwt>
</event>
<event>
 4    1  0.4996155E-019  0.1492844E+02  0.7818608E-02  0.1870260E+00
          2   -1    0    0  501    0  0.00000000000E+00  0.00000000000E+00  0.12021420439E+03  0.12021420442E+03  0.25500000000E-02 0. -1.
         -2   -1    0    0    0  501 -0.00000000000E+00 -0.00000000000E+00 -0.46345732716E+00  0.46346434232E+00  0.25500000000E-02 0.  1.
         31    1    1    2    0    0 -0.42409215606E+00  0.11323350850E+00  0.61904002174E+02  0.62351881184E+02  0.74470750000E+01 0.  1.
        -31    1    1    2    0    0  0.42409215606E+00 -0.11323350850E+00  0.57846744890E+02  0.58325787577E+02  0.74470750000E+01 0.  1.
<mgrwt>
<rscale>  0 0.14928440E+02</rscale>
<asrwt>0</asrwt>
<pdfrwt beam="1">  1        2 0.99784740E+00 0.14928440E+02</pdfrwt>
<pdfrwt beam="2">  1       -2 0.98439431E+00 0.14928440E+02</pdfrwt>
<totfact> 0.33201919E-13</totfact>
</mgrwt>
</event>
<event>
 4    1  0.4996155E-019  0.1494591E+02  0.7818608E-02  0.1869724E+00
          2   -1    0    0  501    0  0.00000000000E+00  0.00000000000E+00  0.12018705842E+03  0.12018705845E+03  0.25500000000E-02 0. -1.
         -2   -1    0    0    0  501 -0.00000000000E+00 -0.00000000000E+00 -0.46464770515E+00  0.46465470234E+00  0.25500000000E-02 0.  1.
         31    1    1    2    0    0 -0.39677771785E+00  0.47633905791E+00  0.59518039428E+02  0.59985333832E+02  0.74470750000E+01 0. -1.
        -31    1    1    2    0    0  0.39677771785E+00 -0.47633905791E+00  0.60204371288E+02  0.60666379319E+02  0.74470750000E+01 0. -1.
<mgrwt>
<rscale>  0 0.14945911E+02</rscale>
<asrwt>0</asrwt>
<pdfrwt beam="1">  1        2 0.99763278E+00 0.14945911E+02</pdfrwt>
<pdfrwt beam="2">  1       -2 0.98691207E+00 0.14945911E+02</pdfrwt>
<totfact> 0.15909426E-13</totfact>
</mgrwt>
</event>
<event>
 4    1 -0.4996155E-019  0.1495465E+02  0.7818608E-02  0.1869456E+00
         -2   -1    0    0    0  501 -0.00000000000E+00  0.00000000000E+00  0.12011137116E+03  0.12011137118E+03  0.25500000000E-02 0.  1.
          2   -1    0    0  501    0  0.00000000000E+00 -0.00000000000E+00 -0.46548423064E+00  0.46549121525E+00  0.25500000000E-02 0. -1.
         31    1    1    2    0    0 -0.30650655874E-01  0.34412958491E+00  0.64469272438E+02  0.64898885810E+02  0.74470750000E+01 0.  1.
        -31    1    1    2    0    0  0.30650655874E-01 -0.34412958491E+00  0.55176614490E+02  0.55677976591E+02  0.74470750000E+01 0. -1.
<mgrwt>
<rscale>  0 0.14954648E+02</rscale>
<asrwt>0</asrwt>
<pdfrwt beam="2">  1        2 0.98867957E+00 0.14954648E+02</pdfrwt>
<pdfrwt beam="1">  1       -2 0.99701386E+00 0.14954648E+02</pdfrwt>
<totfact>-0.16403526E-13</totfact>
</mgrwt>
</event>
<event>
 4    1  0.4996155E-019  0.1489674E+02  0.7818608E-02  0.1871236E+00
          2   -1    0    0  501    0  0.00000000000E+00  0.00000000000E+00  0.12001445950E+03  0.12001445953E+03  0.25500000000E-02 0.  1.
         -2   -1    0    0    0  501 -0.00000000000E+00 -0.00000000000E+00 -0.46225915094E+00  0.46226618428E+00  0.25500000000E-02 0. -1.
         31    1    1    2    0    0  0.24524913816E-01  0.13891663065E-01  0.58676475192E+02  0.59147176277E+02  0.74470750000E+01 0. -1.
        -31    1    1    2    0    0 -0.24524913816E-01 -0.13891663065E-01  0.60875725155E+02  0.61329549433E+02  0.74470750000E+01 0.  1.
<mgrwt>
<rscale>  0 0.14896739E+02</rscale>
<asrwt>0</asrwt>
<pdfrwt beam="1">  1        2 0.99618586E+00 0.14896739E+02</pdfrwt>
<pdfrwt beam="2">  1       -2 0.98185289E+00 0.14896739E+02</pdfrwt>
<totfact> 0.86918914E-13</totfact>
</mgrwt>
</event>
<event>
 4    1  0.4996155E-019  0.1496373E+02  0.7818608E-02  0.1869177E+00
         -2   -1    0    0    0  501 -0.00000000000E+00  0.00000000000E+00  0.11918003297E+03  0.11918003300E+03  0.25500000000E-02 0. -1.
          2   -1    0    0  501    0  0.00000000000E+00 -0.00000000000E+00 -0.46969207941E+00  0.46969900145E+00  0.25500000000E-02 0.  1.
         31    1    1    2    0    0  0.92071240596E-01  0.51582721037E+00  0.55398554372E+02  0.55899314015E+02  0.74470750000E+01 0. -1.
        -31    1    1    2    0    0 -0.92071240596E-01 -0.51582721037E+00  0.63311786519E+02  0.63750417984E+02  0.74470750000E+01 0. -1.
<mgrwt>
<rscale>  0 0.14963734E+02</rscale>
<asrwt>0</asrwt>
<pdfrwt beam="2">  1        2 0.99755165E+00 0.14963734E+02</pdfrwt>
<pdfrwt beam="1">  1       -2 0.98934770E+00 0.14963734E+02</pdfrwt>
<totfact> 0.31075603E-14</totfact>
</mgrwt>
</event>
<event>
 4    1 -0.4996155E-019  0.1493290E+02  0.7818608E-02  0.1870123E+00
          2   -1    0    0  501    0  0.00000000000E+00  0.00000000000E+00  0.11906371397E+03  0.11906371400E+03  0.25500000000E-02 0.  1.
         -2   -1    0    0    0  501 -0.00000000000E+00 -0.00000000000E+00 -0.46821507296E+00  0.46822201683E+00  0.25500000000E-02 0. -1.
         31    1    1    2    0    0  0.33669399948E+00  0.21798700179E+00  0.62161954824E+02  0.62607734624E+02  0.74470750000E+01 0.  1.
        -31    1    1    2    0    0 -0.33669399948E+00 -0.21798700179E+00  0.56433544077E+02  0.56924201394E+02  0.74470750000E+01 0. -1.
<mgrwt>
<rscale>  0 0.14932896E+02</rscale>
<asrwt>0</asrwt>
<pdfrwt beam="1">  1        2 0.98837368E+00 0.14932896E+02</pdfrwt>
<pdfrwt beam="2">  1       -2 0.99442324E+00 0.14932896E+02</pdfrwt>
<totfact>-0.21264816E-13</totfact>
</mgrwt>
</event>
<event>
 4    1  0.4996155E-019  0.1489584E+02  0.7818608E-02  0.1871264E+00
          2   -1    0    0  501    0  0.00000000000E+00  0.00000000000E+00  0.12028992118E+03  0.12028992121E+03  0.25500000000E-02 0. -1.
         -2   -1    0    0    0  501 -0.00000000000E+00 -0.00000000000E+00 -0.46114470838E+00  0.46115175871E+00  0.25500000000E-02 0.  1.
         31    1    1    2    0    0 -0.48129615997E-01 -0.15701587916E-01  0.60724978707E+02  0.61179935665E+02  0.74470750000E+01 0. -1.
        -31    1    1    2    0    0  0.48129615997E-01  0.15701587916E-01  0.59103797764E+02  0.59571137299E+02  0.74470750000E+01 0.  1.
<mgrwt>
<rscale>  0 0.14895837E+02</rscale>
<asrwt>0</asrwt>
<pdfrwt beam="1">  1        2 0.99845436E+00 0.14895837E+02</pdfrwt>
<pdfrwt beam="2">  1       -2 0.97950346E+00 0.14895837E+02</pdfrwt>
<totfact> 0.68545999E-13</totfact>
</mgrwt>
</event>
<event>
 4    1  0.4996155E-019  0.1492465E+02  0.7818608E-02  0.1870377E+00
         -2   -1    0    0    0  501 -0.00000000000E+00  0.00000000000E+00  0.11873938105E+03  0.11873938108E+03  0.25500000000E-02 0. -1.
          2   -1    0    0  501    0  0.00000000000E+00 -0.00000000000E+00 -0.46897574325E+00  0.46898267586E+00  0.25500000000E-02 0.  1.
         31    1    1    2    0    0  0.31910051893E+00  0.35408550299E+00  0.59029061884E+02  0.59498876247E+02  0.74470750000E+01 0.  1.
        -31    1    1    2    0    0 -0.31910051893E+00 -0.35408550299E+00  0.59241343426E+02  0.59709487510E+02  0.74470750000E+01 0. -1.
<mgrwt>
<rscale>  0 0.14924651E+02</rscale>
<asrwt>0</asrwt>
<pdfrwt beam="2">  1        2 0.99602176E+00 0.14924651E+02</pdfrwt>
<pdfrwt beam="1">  1       -2 0.98569816E+00 0.14924651E+02</pdfrwt>
<totfact> 0.34703978E-13</totfact>
</mgrwt>
</event>
<event>
 4    1 -0.4996155E-019  0.1492593E+02  0.7818608E-02  0.1870337E+00
          2   -1    0    0  501    0  0.00000000000E+00  0.00000000000E+00  0.11871396246E+03  0.11871396249E+03  0.25500000000E-02 0. -1.
         -2   -1    0    0    0  501 -0.00000000000E+00 -0.00000000000E+00 -0.46915651691E+00  0.46916344684E+00  0.25500000000E-02 0.  1.
         31    1    1    2    0    0  0.41572432723E+00 -0.26220593163E-01  0.61133022042E+02  0.61586352581E+02  0.74470750000E+01 0. -1.
        -31    1    1    2    0    0 -0.41572432723E+00  0.26220593163E-01  0.57111783899E+02  0.57596773351E+02  0.74470750000E+01 0.  1.
<mgrwt>
<rscale>  0 0.14925930E+02</rscale>
<asrwt>0</asrwt>
<pdfrwt beam="1">  1        2 0.98548947E+00 0.14925930E+02</pdfrwt>
<pdfrwt beam="2">  1       -2 0.99640334E+00 0.14925930E+02</pdfrwt>
<totfact>-0.28620095E-13</totfact>
</mgrwt>
</event>
<event>
 4    1 -0.4996155E-019  0.1500461E+02  0.7818608E-02  0.1867928E+00
          2   -1    0    0  501    0  0.00000000000E+00  0.00000000000E+00  0.11968745772E+03  0.11968745774E+03  0.25500000000E-02 0. -1.
         -2   -1    0    0    0  501 -0.00000000000E+00 -0.00000000000E+00 -0.47025972372E+00  0.47026663740E+00  0.25500000000E-02 0.  1.
         31    1    1    2    0    0 -0.67442716942E+00 -0.46884060496E+00  0.56496584920E+02  0.56991207192E+02  0.74470750000E+01 0.  1.
        -31    1    1    2    0    0  0.67442716942E+00  0.46884060496E+00  0.62720613074E+02  0.63166517190E+02  0.74470750000E+01 0. -1.
<mgrwt>
<rscale>  0 0.15004614E+02</rscale>
<asrwt>0</asrwt>
<pdfrwt beam="1">  1        2 0.99354814E+00 0.15004614E+02</pdfrwt>
<pdfrwt beam="2">  1       -2 0.99876912E+00 0.15004614E+02</pdfrwt>
<totfact>-0.53125788E-14</totfact>
</mgrwt>
</event>
<event>
 4    1 -0.4996155E-019  0.1492915E+02  0.7818608E-02  0.1870238E+00
         -2   -1    0    0    0  501 -0.00000000000E+00  0.00000000000E+00  0.11958007719E+03  0.11958007721E+03  0.25500000000E-02 0.  1.
          2   -1    0    0  501    0  0.00000000000E+00 -0.00000000000E+00 -0.46595960019E+00  0.46596657767E+00  0.25500000000E-02 0. -1.
         31    1    1    2    0    0  0.31521006572E+00 -0.34614115222E+00  0.61201217404E+02  0.61654416783E+02  0.74470750000E+01 0.  1.
        -31    1    1    2    0    0 -0.31521006572E+00  0.34614115222E+00  0.57912900181E+02  0.58391627007E+02  0.74470750000E+01 0.  1.
<mgrwt>
<rscale>  0 0.14929153E+02</rscale>
<asrwt>0</asrwt>
<pdfrwt beam="2">  1        2 0.98966834E+00 0.14929153E+02</pdfrwt>
<pdfrwt beam="1">  1       -2 0.99262468E+00 0.14929153E+02</pdfrwt>
<totfact>-0.14790260E-13</totfact>
</mgrwt>
</event>
<event>
 4    1  0.4996155E-019  0.1493374E+02  0.7818608E-02  0.1870097E+00
         -2   -1    0    0    0  501 -0.00000000000E+00  0.00000000000E+00  0.11872952596E+03  0.11872952598E+03  0.25500000000E-02 0.  1.
          2   -1    0    0  501    0  0.00000000000E+00 -0.00000000000E+00 -0.46958612689E+00  0.46959305049E+00  0.25500000000E-02 0. -1.
         31    1    1    2    0    0 -0.43743453220E+00  0.19090165988E+00  0.57057233610E+02  0.57543154464E+02  0.74470750000E+01 0.  1.
        -31    1    1    2    0    0  0.43743453220E+00 -0.19090165988E+00  0.61202706220E+02  0.61655964571E+02  0.74470750000E+01 0.  1.
<mgrwt>
<rscale>  0 0.14933741E+02</rscale>
<asrwt>0</asrwt>
<pdfrwt beam="2">  1        2 0.99731266E+00 0.14933741E+02</pdfrwt>
<pdfrwt beam="1">  1       -2 0.98562172E+00 0.14933741E+02</pdfrwt>
<totfact> 0.27578372E-13</totfact>
</mgrwt>
</event>
<event>
 4    1 -0.4996155E-019  0.1498303E+02  0.7818608E-02  0.1868587E+00
         -2   -1    0    0    0  501 -0.00000000000E+00  0.00000000000E+00  0.11991258914E+03  0.11991258916E+03  0.25500000000E-02 0.  1.
          2   -1    0    0  501    0  0.00000000000E+00 -0.00000000000E+00 -0.46802755191E+00  0.46803449856E+00  0.25500000000E-02 0. -1.
         31    1    1    2    0    0 -0.67999745619E+00 -0.32387765787E+00  0.62219383138E+02  0.62667997075E+02  0.74470750000E+01 0. -1.
        -31    1    1    2    0    0  0.67999745619E+00  0.32387765787E+00  0.57225178447E+02  0.57712626588E+02  0.74470750000E+01 0. -1.
<mgrwt>
<rscale>  0 0.14983032E+02</rscale>
<asrwt>0</asrwt>
<pdfrwt beam="2">  1        2 0.99405409E+00 0.14983032E+02</pdfrwt>
<pdfrwt beam="1">  1       -2 0.99539122E+00 0.14983032E+02</pdfrwt>
<totfact>-0.12813448E-13</totfact>
</mgrwt>
</event>
<event>
 4    1  0.4996155E-019  0.1492703E+02  0.7818608E-02  0.1870304E+00
         -2   -1    0    0    0  501 -0.00000000000E+00  0.00000000000E+00  0.11876688764E+03  0.11876688766E+03  0.25500000000E-02 0. -1.
          2   -1    0    0  501    0  0.00000000000E+00 -0.00000000000E+00 -0.46901631304E+00  0.46902324505E+00  0.25500000000E-02 0.  1.
         31    1    1    2    0    0  0.26999957522E+00 -0.29126197659E+00  0.56787923152E+02  0.57275517241E+02  0.74470750000E+01 0.  1.
        -31    1    1    2    0    0 -0.26999957522E+00  0.29126197659E+00  0.61509948171E+02  0.61960393667E+02  0.74470750000E+01 0. -1.
<mgrwt>
<rscale>  0 0.14927026E+02</rscale>
<asrwt>0</asrwt>
<pdfrwt beam="2">  1        2 0.99610849E+00 0.14927026E+02</pdfrwt>
<pdfrwt beam="1">  1       -2 0.98592594E+00 0.14927026E+02</pdfrwt>
<totfact> 0.31824418E-13</totfact>
</mgrwt>
</event>
<event>
 4    1 -0.4996155E-019  0.1493416E+02  0.7818608E-02  0.1870084E+00
          2   -1    0    0  501    0  0.00000000000E+00  0.00000000000E+00  0.11871645688E+03  0.11871645691E+03  0.25500000000E-02 0. -1.
         -2   -1    0    0    0  501 -0.00000000000E+00 -0.00000000000E+00 -0.46966442915E+00  0.46967135160E+00  0.25500000000E-02 0.  1.
         31    1    1    2    0    0  0.39768648603E+00  0.26712217494E+00  0.57028899965E+02  0.57515075121E+02  0.74470750000E+01 0.  1.
        -31    1    1    2    0    0 -0.39768648603E+00 -0.26712217494E+00  0.61217892489E+02  0.61671053142E+02  0.74470750000E+01 0. -1.
<mgrwt>
<rscale>  0 0.14934164E+02</rscale>
<asrwt>0</asrwt>
<pdfrwt beam="1">  1        2 0.98551430E+00 0.14934164E+02</pdfrwt>
<pdfrwt beam="2">  1       -2 0.99747787E+00 0.14934164E+02</pdfrwt>
<totfact>-0.22710981E-13</totfact>
</mgrwt>
</event>
<event>
 4    1  0.4996155E-019  0.1490571E+02  0.7818608E-02  0.1870959E+00
          2   -1    0    0  501    0  0.00000000000E+00  0.00000000000E+00  0.11988177942E+03  0.11988177945E+03  0.25500000000E-02 0.  1.
         -2   -1    0    0    0  501 -0.00000000000E+00 -0.00000000000E+00 -0.46332840511E+00  0.46333542222E+00  0.25500000000E-02 0. -1.
         31    1    1    2    0    0 -0.24105728638E+00  0.23971189584E-01  0.58371604666E+02  0.58845236345E+02  0.74470750000E+01 0. -1.
        -31    1    1    2    0    0  0.24105728638E+00 -0.23971189584E-01  0.61046846352E+02  0.61499878527E+02  0.74470750000E+01 0. -1.
<mgrwt>
<rscale>  0 0.14905711E+02</rscale>
<asrwt>0</asrwt>
<pdfrwt beam="1">  1        2 0.99509761E+00 0.14905711E+02</pdfrwt>
<pdfrwt beam="2">  1       -2 0.98411106E+00 0.14905711E+02</pdfrwt>
<totfact> 0.60767618E-13</totfact>
</mgrwt>
</event>
<event>
 4    1 -0.4996155E-019  0.1497611E+02  0.7818608E-02  0.1868798E+00
          2   -1    0    0  501    0  0.00000000000E+00  0.00000000000E+00  0.11988122381E+03  0.11988122384E+03  0.25500000000E-02 0. -1.
         -2   -1    0    0    0  501 -0.00000000000E+00 -0.00000000000E+00 -0.46771761671E+00  0.46772456797E+00  0.25500000000E-02 0.  1.
         31    1    1    2    0    0  0.56522759146E+00  0.20348919487E+00  0.55679378872E+02  0.56178403749E+02  0.74470750000E+01 0.  1.
        -31    1    1    2    0    0 -0.56522759146E+00 -0.20348919487E+00  0.63734127321E+02  0.64170544656E+02  0.74470750000E+01 0. -1.
<mgrwt>
<rscale>  0 0.14976112E+02</rscale>
<asrwt>0</asrwt>
<pdfrwt beam="1">  1        2 0.99512931E+00 0.14976112E+02</pdfrwt>
<pdfrwt beam="2">  1       -2 0.99339737E+00 0.14976112E+02</pdfrwt>
<totfact>-0.10858635E-13</totfact>
</mgrwt>
</event>
<event>
 4    1 -0.4996155E-019  0.1490913E+02  0.7818608E-02  0.1870854E+00
          2   -1    0    0  501    0  0.00000000000E+00  0.00000000000E+00  0.11873604378E+03  0.11873604380E+03  0.25500000000E-02 0. -1.
         -2   -1    0    0    0  501 -0.00000000000E+00 -0.00000000000E+00 -0.46801369448E+00  0.46802064134E+00  0.25500000000E-02 0.  1.
         31    1    1    2    0    0 -0.20296350914E+00 -0.26409771855E+00  0.59336654489E+02  0.59803080471E+02  0.74470750000E+01 0. -1.
        -31    1    1    2    0    0  0.20296350914E+00  0.26409771855E+00  0.58931375592E+02  0.59400983974E+02  0.74470750000E+01 0.  1.
<mgrwt>
<rscale>  0 0.14909126E+02</rscale>
<asrwt>0</asrwt>
<pdfrwt beam="1">  1        2 0.98566261E+00 0.14909126E+02</pdfrwt>
<pdfrwt beam="2">  1       -2 0.99398648E+00 0.14909126E+02</pdfrwt>
<totfact>-0.30540902E-13</totfact>
</mgrwt>
</event>
<event>
 4    1 -0.4996155E-019  0.1493516E+02  0.7818608E-02  0.1870054E+00
         -2   -1    0    0    0  501 -0.00000000000E+00  0.00000000000E+00  0.12031596533E+03  0.12031596536E+03  0.25500000000E-02 0.  1.
          2   -1    0    0  501    0  0.00000000000E+00 -0.00000000000E+00 -0.46348236076E+00  0.46348937553E+00  0.25500000000E-02 0. -1.
         31    1    1    2    0    0 -0.40664704145E-01  0.18370823261E+00  0.64131630797E+02  0.64562840683E+02  0.74470750000E+01 0.  1.
        -31    1    1    2    0    0  0.40664704145E-01 -0.18370823261E+00  0.55720852176E+02  0.56216614054E+02  0.74470750000E+01 0. -1.
<mgrwt>
<rscale>  0 0.14935160E+02</rscale>
<asrwt>0</asrwt>
<pdfrwt beam="2">  1        2 0.98445048E+00 0.14935160E+02</pdfrwt>
<pdfrwt beam="1">  1       -2 0.99868904E+00 0.14935160E+02</pdfrwt>
<totfact>-0.15763819E-13</totfact>
</mgrwt>
</event>
<event>
 4    1  0.4996155E-019  0.1490028E+02  0.7818608E-02  0.1871127E+00
          2   -1    0    0  501    0  0.00000000000E+00  0.00000000000E+00  0.12000322923E+03  0.12000322926E+03  0.25500000000E-02 0.  1.
         -2   -1    0    0    0  501 -0.00000000000E+00 -0.00000000000E+00 -0.46252225828E+00  0.46252928762E+00  0.25500000000E-02 0. -1.
         31    1    1    2    0    0  0.69521964187E-01 -0.42315429002E-01  0.61367784788E+02  0.61818043966E+02  0.74470750000E+01 0.  1.
        -31    1    1    2    0    0 -0.69521964187E-01  0.42315429002E-01  0.58172922186E+02  0.58647714582E+02  0.74470750000E+01 0. -1.
<mgrwt>
<rscale>  0 0.14900280E+02</rscale>
<asrwt>0</asrwt>
<pdfrwt beam="1">  1        2 0.99609518E+00 0.14900280E+02</pdfrwt>
<pdfrwt beam="2">  1       -2 0.98240923E+00 0.14900280E+02</pdfrwt>
<totfact> 0.78796003E-13</totfact>
</mgrwt>
</event>
<event>
 4    1 -0.4996155E-019  0.1493376E+02  0.7818608E-02  0.1870096E+00
          2   -1    0    0  501    0  0.00000000000E+00  0.00000000000E+00  0.11883969245E+03  0.11883969248E+03  0.25500000000E-02 0.  1.
         -2   -1    0    0    0  501 -0.00000000000E+00 -0.00000000000E+00 -0.46915229914E+00  0.46915922914E+00  0.25500000000E-02 0. -1.
         31    1    1    2    0    0 -0.39962438645E+00 -0.16454906976E+00  0.56552129686E+02  0.57041993953E+02  0.74470750000E+01 0. -1.
        -31    1    1    2    0    0  0.39962438645E+00  0.16454906976E+00  0.61818410463E+02  0.62266857752E+02  0.74470750000E+01 0.  1.
<mgrwt>
<rscale>  0 0.14933764E+02</rscale>
<asrwt>0</asrwt>
<pdfrwt beam="1">  1        2 0.98652906E+00 0.14933764E+02</pdfrwt>
<pdfrwt beam="2">  1       -2 0.99639856E+00 0.14933764E+02</pdfrwt>
<totfact>-0.24414909E-13</totfact>
</mgrwt>
</event>
<event>
 4    1  0.4996155E-019  0.1491747E+02  0.7818608E-02  0.1870598E+00
         -2   -1    0    0    0  501 -0.00000000000E+00  0.00000000000E+00  0.11862511295E+03  0.11862511298E+03  0.25500000000E-02 0.  1.
          2   -1    0    0  501    0  0.00000000000E+00 -0.00000000000E+00 -0.46897565617E+00  0.46898258878E+00  0.25500000000E-02 0. -1.
         31    1    1    2    0    0 -0.14750053731E+00 -0.23617894802E+00  0.56601349657E+02  0.57089834874E+02  0.74470750000E+01 0. -1.
        -31    1    1    2    0    0  0.14750053731E+00  0.23617894802E+00  0.61554787642E+02  0.62004260697E+02  0.74470750000E+01 0.  1.
<mgrwt>
<rscale>  0 0.14917467E+02</rscale>
<asrwt>0</asrwt>
<pdfrwt beam="2">  1        2 0.99601780E+00 0.14917467E+02</pdfrwt>
<pdfrwt beam="1">  1       -2 0.98475331E+00 0.14917467E+02</pdfrwt>
<totfact> 0.45817853E-13</totfact>
</mgrwt>
</event>
<event>
 4    1 -0.4996155E-019  0.1494344E+02  0.7818608E-02  0.1869799E+00
          2   -1    0    0  501    0  0.00000000000E+00  0.00000000000E+00  0.11884392974E+03  0.11884392977E+03  0.25500000000E-02 0. -1.
         -2   -1    0    0    0  501 -0.00000000000E+00 -0.00000000000E+00 -0.46974377816E+00  0.46975069944E+00  0.25500000000E-02 0.  1.
         31    1    1    2    0    0  0.47392686592E+00 -0.33716180472E+00  0.60556130708E+02  0.61015097944E+02  0.74470750000E+01 0.  1.
        -31    1    1    2    0    0 -0.47392686592E+00  0.33716180472E+00  0.57818055255E+02  0.58298582524E+02  0.74470750000E+01 0.  1.
<mgrwt>
<rscale>  0 0.14943442E+02</rscale>
<asrwt>0</asrwt>
<pdfrwt beam="1">  1        2 0.98656899E+00 0.14943442E+02</pdfrwt>
<pdfrwt beam="2">  1       -2 0.99764994E+00 0.14943442E+02</pdfrwt>
<totfact>-0.18334568E-13</totfact>
</mgrwt>
</event>
<event>
 4    1  0.4996155E-019  0.1493368E+02  0.7818608E-02  0.1870099E+00
          2   -1    0    0  501    0  0.00000000000E+00  0.00000000000E+00  0.12000829853E+03  0.12000829856E+03  0.25500000000E-02 0. -1.
         -2   -1    0    0    0  501 -0.00000000000E+00 -0.00000000000E+00 -0.46457870268E+00  0.46458570090E+00  0.25500000000E-02 0.  1.
         31    1    1    2    0    0 -0.26943318404E+00 -0.46928329510E+00  0.59413281212E+02  0.59880629017E+02  0.74470750000E+01 0. -1.
        -31    1    1    2    0    0  0.26943318404E+00  0.46928329510E+00  0.60130438616E+02  0.60592255242E+02  0.74470750000E+01 0.  1.
<mgrwt>
<rscale>  0 0.14933683E+02</rscale>
<asrwt>0</asrwt>
<pdfrwt beam="1">  1        2 0.99615410E+00 0.14933683E+02</pdfrwt>
<pdfrwt beam="2">  1       -2 0.98676042E+00 0.14933683E+02</pdfrwt>
<totfact> 0.23411785E-13</totfact>
</mgrwt>
</event>
<event>
 4    1 -0.4996155E-019  0.1492793E+02  0.7818608E-02  0.1870276E+00
          2   -1    0    0  501    0  0.00000000000E+00  0.00000000000E+00  0.11848786487E+03  0.11848786489E+03  0.25500000000E-02 0.  1.
         -2   -1    0    0    0  501 -0.00000000000E+00 -0.00000000000E+00 -0.47017762572E+00  0.47018454061E+00  0.25500000000E-02 0. -1.
         31    1    1    2    0    0 -0.31970030058E+00  0.94887363665E-02  0.62090333178E+02  0.62536155131E+02  0.74470750000E+01 0. -1.
        -31    1    1    2    0    0  0.31970030058E+00 -0.94887363665E-02  0.55927354063E+02  0.56421894304E+02  0.74470750000E+01 0.  1.
<mgrwt>
<rscale>  0 0.14927928E+02</rscale>
<asrwt>0</asrwt>
<pdfrwt beam="1">  1        2 0.98362838E+00 0.14927928E+02</pdfrwt>
<pdfrwt beam="2">  1       -2 0.99855588E+00 0.14927928E+02</pdfrwt>
<totfact>-0.19683321E-13</totfact>
</mgrwt>
</event>
<event>
 4    1 -0.4996155E-019  0.1496252E+02  0.7818608E-02  0.1869214E+00
         -2   -1    0    0    0  501 -0.00000000000E+00  0.00000000000E+00  0.11985408238E+03  0.11985408240E+03  0.25500000000E-02 0.  1.
          2   -1    0    0  501    0  0.00000000000E+00 -0.00000000000E+00 -0.46697484391E+00  0.46698180622E+00  0.25500000000E-02 0. -1.
         31    1    1    2    0    0 -0.53456883661E+00 -0.39457334255E+00  0.57583003625E+02  0.58066364485E+02  0.74470750000E+01 0.  1.
        -31    1    1    2    0    0  0.53456883661E+00  0.39457334255E+00  0.61804103907E+02  0.62254699724E+02  0.74470750000E+01 0.  1.
<mgrwt>
<rscale>  0 0.14962521E+02</rscale>
<asrwt>0</asrwt>
<pdfrwt beam="2">  1        2 0.99182505E+00 0.14962521E+02</pdfrwt>
<pdfrwt beam="1">  1       -2 0.99489874E+00 0.14962521E+02</pdfrwt>
<totfact>-0.15356604E-13</totfact>
</mgrwt>
</event>
<event>
 4    1 -0.4996155E-019  0.1500659E+02  0.7818608E-02  0.1867867E+00
         -2   -1    0    0    0  501 -0.00000000000E+00  0.00000000000E+00  0.11989656522E+03  0.11989656524E+03  0.25500000000E-02 0.  1.
          2   -1    0    0  501    0  0.00000000000E+00 -0.00000000000E+00 -0.46956339853E+00  0.46957032247E+00  0.25500000000E-02 0. -1.
         31    1    1    2    0    0 -0.38069590639E+00 -0.65932191014E+00  0.63810407515E+02  0.64248009059E+02  0.74470750000E+01 0.  1.
        -31    1    1    2    0    0  0.38069590639E+00  0.65932191014E+00  0.55616594304E+02  0.56118126508E+02  0.74470750000E+01 0. -1.
<mgrwt>
<rscale>  0 0.15006593E+02</rscale>
<asrwt>0</asrwt>
<pdfrwt beam="2">  1        2 0.99730282E+00 0.15006593E+02</pdfrwt>
<pdfrwt beam="1">  1       -2 0.99527142E+00 0.15006593E+02</pdfrwt>
<totfact>-0.81091355E-14</totfact>
</mgrwt>
</event>
<event>
 4    1 -0.4996155E-019  0.1493738E+02  0.7818608E-02  0.1869985E+00
         -2   -1    0    0    0  501 -0.00000000000E+00  0.00000000000E+00  0.12019032715E+03  0.12019032718E+03  0.25500000000E-02 0.  1.
          2   -1    0    0  501    0  0.00000000000E+00 -0.00000000000E+00 -0.46410485639E+00  0.46411186176E+00  0.25500000000E-02 0. -1.
         31    1    1    2    0    0  0.51902023698E+00  0.22866857151E+00  0.59643177066E+02  0.60108977432E+02  0.74470750000E+01 0. -1.
        -31    1    1    2    0    0 -0.51902023698E+00 -0.22866857151E+00  0.60083045229E+02  0.60545461608E+02  0.74470750000E+01 0.  1.
<mgrwt>
<rscale>  0 0.14937381E+02</rscale>
<asrwt>0</asrwt>
<pdfrwt beam="2">  1        2 0.98576362E+00 0.14937381E+02</pdfrwt>
<pdfrwt beam="1">  1       -2 0.99765532E+00 0.14937381E+02</pdfrwt>
<totfact>-0.20685818E-13</totfact>
</mgrwt>
</event>
<event>
 4    1  0.4996155E-019  0.1489469E+02  0.7818608E-02  0.1871299E+00
         -2   -1    0    0    0  501 -0.00000000000E+00  0.00000000000E+00  0.11876840321E+03  0.11876840324E+03  0.25500000000E-02 0.  1.
          2   -1    0    0  501    0  0.00000000000E+00 -0.00000000000E+00 -0.46698067608E+00  0.46698763831E+00  0.25500000000E-02 0. -1.
         31    1    1    2    0    0 -0.61093412511E-01  0.13670892132E-01  0.59238615343E+02  0.59704910963E+02  0.74470750000E+01 0.  1.
        -31    1    1    2    0    0  0.61093412511E-01 -0.13670892132E-01  0.59062807193E+02  0.59530479915E+02  0.74470750000E+01 0. -1.
<mgrwt>
<rscale>  0 0.14894692E+02</rscale>
<asrwt>0</asrwt>
<pdfrwt beam="2">  1        2 0.99180220E+00 0.14894692E+02</pdfrwt>
<pdfrwt beam="1">  1       -2 0.98592164E+00 0.14894692E+02</pdfrwt>
<totfact> 0.47137266E-13</totfact>
</mgrwt>
</event>
<event>
 4    1  0.4996155E-019  0.1490551E+02  0.7818608E-02  0.1870966E+00
          2   -1    0    0  501    0  0.00000000000E+00  0.00000000000E+00  0.11937204947E+03  0.11937204950E+03  0.25500000000E-02 0.  1.
         -2   -1    0    0    0  501 -0.00000000000E+00 -0.00000000000E+00 -0.46529422087E+00  0.46530120833E+00  0.25500000000E-02 0. -1.
         31    1    1    2    0    0  0.27644990014E-01  0.28956917473E+00  0.59436406939E+02  0.59901836452E+02  0.74470750000E+01 0. -1.
        -31    1    1    2    0    0 -0.27644990014E-01 -0.28956917473E+00  0.59470348312E+02  0.59935514255E+02  0.74470750000E+01 0.  1.
<mgrwt>
<rscale>  0 0.14905508E+02</rscale>
<asrwt>0</asrwt>
<pdfrwt beam="1">  1        2 0.99089906E+00 0.14905508E+02</pdfrwt>
<pdfrwt beam="2">  1       -2 0.98825394E+00 0.14905508E+02</pdfrwt>
<totfact> 0.17941967E-13</totfact>
</mgrwt>
</event>
<event>
 4    1 -0.4996155E-019  0.1500677E+02  0.7818608E-02  0.1867862E+00
          2   -1    0    0  501    0  0.00000000000E+00  0.00000000000E+00  0.12004467930E+03  0.12004467933E+03  0.25500000000E-02 0.  1.
         -2   -1    0    0    0  501 -0.00000000000E+00 -0.00000000000E+00 -0.46899493319E+00  0.46900186551E+00  0.25500000000E-02 0. -1.
         31    1    1    2    0    0  0.78476697203E+00  0.34918711136E+00  0.62378247706E+02  0.62827084158E+02  0.74470750000E+01 0. -1.
        -31    1    1    2    0    0 -0.78476697203E+00 -0.34918711136E+00  0.57197436663E+02  0.57686597037E+02  0.74470750000E+01 0.  1.
<mgrwt>
<rscale>  0 0.15006767E+02</rscale>
<asrwt>0</asrwt>
<pdfrwt beam="1">  1        2 0.99649144E+00 0.15006767E+02</pdfrwt>
<pdfrwt beam="2">  1       -2 0.99610497E+00 0.15006767E+02</pdfrwt>
<totfact>-0.90436246E-14</totfact>
</mgrwt>
</event>
<event>
 4    1 -0.4996155E-019  0.1492706E+02  0.7818608E-02  0.1870303E+00
          2   -1    0    0  501    0  0.00000000000E+00  0.00000000000E+00  0.11894178991E+03  0.11894178994E+03  0.25500000000E-02 0. -1.
         -2   -1    0    0    0  501 -0.00000000000E+00 -0.00000000000E+00 -0.46832863542E+00  0.46833557760E+00  0.25500000000E-02 0.  1.
         31    1    1    2    0    0 -0.97209815452E-02  0.32904317661E+00  0.62197355236E+02  0.62642463939E+02  0.74470750000E+01 0. -1.
        -31    1    1    2    0    0  0.97209815452E-02 -0.32904317661E+00  0.56276106042E+02  0.56767661579E+02  0.74470750000E+01 0.  1.
<mgrwt>
<rscale>  0 0.14927058E+02</rscale>
<asrwt>0</asrwt>
<pdfrwt beam="1">  1        2 0.98736646E+00 0.14927058E+02</pdfrwt>
<pdfrwt beam="2">  1       -2 0.99465949E+00 0.14927058E+02</pdfrwt>
<totfact>-0.24332381E-13</totfact>
</mgrwt>
</event>
<event>
 4    1 -0.4996155E-019  0.1493034E+02  0.7818608E-02  0.1870202E+00
         -2   -1    0    0    0  501 -0.00000000000E+00  0.00000000000E+00  0.12025496866E+03  0.12025496869E+03  0.25500000000E-02 0.  1.
          2   -1    0    0  501    0  0.00000000000E+00 -0.00000000000E+00 -0.46341787002E+00  0.46342488578E+00  0.25500000000E-02 0. -1.
         31    1    1    2    0    0  0.34779518908E+00 -0.33049873971E+00  0.58286597936E+02  0.58762374151E+02  0.74470750000E+01 0. -1.
        -31    1    1    2    0    0 -0.34779518908E+00  0.33049873971E+00  0.61504952855E+02  0.61956019422E+02  0.74470750000E+01 0.  1.
<mgrwt>
<rscale>  0 0.14930335E+02</rscale>
<asrwt>0</asrwt>
<pdfrwt beam="2">  1        2 0.98431211E+00 0.14930335E+02</pdfrwt>
<pdfrwt beam="1">  1       -2 0.99818414E+00 0.14930335E+02</pdfrwt>
<totfact>-0.21340326E-13</totfact>
</mgrwt>
</event>
<event>
 4    1 -0.4996155E-019  0.1490757E+02  0.7818608E-02  0.1870902E+00
          2   -1    0    0  501    0  0.00000000000E+00  0.00000000000E+00  0.11898699095E+03  0.11898699097E+03  0.25500000000E-02 0.  1.
         -2   -1    0    0    0  501 -0.00000000000E+00 -0.00000000000E+00 -0.46692944500E+00  0.46693640799E+00  0.25500000000E-02 0. -1.
         31    1    1    2    0    0 -0.20390384962E-01 -0.20445172092E-01  0.56736424897E+02  0.57223086861E+02  0.74470750000E+01 0. -1.
        -31    1    1    2    0    0  0.20390384962E-01  0.20445172092E-01  0.61783636604E+02  0.62230840520E+02  0.74470750000E+01 0.  1.
<mgrwt>
<rscale>  0 0.14907575E+02</rscale>
<asrwt>0</asrwt>
<pdfrwt beam="1">  1        2 0.98772865E+00 0.14907575E+02</pdfrwt>
<pdfrwt beam="2">  1       -2 0.99170096E+00 0.14907575E+02</pdfrwt>
<totfact>-0.13392851E-13</totfact>
</mgrwt>
</event>
<event>
 4    1 -0.4996155E-019  0.1495716E+02  0.7818608E-02  0.1869379E+00
          2   -1    0    0  501    0  0.00000000000E+00  0.00000000000E+00  0.11917355368E+03  0.11917355371E+03  0.25500000000E-02 0. -1.
         -2   -1    0    0    0  501 -0.00000000000E+00 -0.00000000000E+00 -0.46930505751E+00  0.46931198525E+00  0.25500000000E-02 0.  1.
         31    1    1    2    0    0  0.67671721769E+00  0.10949780570E+00  0.59212311696E+02  0.59682717083E+02  0.74470750000E+01 0. -1.
        -31    1    1    2    0    0 -0.67671721769E+00 -0.10949780570E+00  0.59491936925E+02  0.59960148609E+02  0.74470750000E+01 0. -1.
<mgrwt>
<rscale>  0 0.14957161E+02</rscale>
<asrwt>0</asrwt>
<pdfrwt beam="1">  1        2 0.98929092E+00 0.14957161E+02</pdfrwt>
<pdfrwt beam="2">  1       -2 0.99673270E+00 0.14957161E+02</pdfrwt>
<totfact>-0.16206677E-13</totfact>
</mgrwt>
</event>
<event>
 4    1 -0.4996155E-019  0.1489581E+02  0.7818608E-02  0.1871265E+00
          2   -1    0    0  501    0  0.00000000000E+00  0.00000000000E+00  0.11888187038E+03  0.11888187041E+03  0.25500000000E-02 0.  1.
         -2   -1    0    0    0  501 -0.00000000000E+00 -0.00000000000E+00 -0.46660487952E+00  0.46661184735E+00  0.25500000000E-02 0. -1.
         31    1    1    2    0    0  0.89061356236E-01  0.64855617673E-01  0.59090421970E+02  0.59557946849E+02  0.74470750000E+01 0. -1.
        -31    1    1    2    0    0 -0.89061356236E-01 -0.64855617673E-01  0.59324843534E+02  0.59790535410E+02  0.74470750000E+01 0.  1.
<mgrwt>
<rscale>  0 0.14895809E+02</rscale>
<asrwt>0</asrwt>
<pdfrwt beam="1">  1        2 0.98685676E+00 0.14895809E+02</pdfrwt>
<pdfrwt beam="2">  1       -2 0.99101090E+00 0.14895809E+02</pdfrwt>
<totfact>-0.92499423E-14</totfact>
</mgrwt>
</event>
<event>
 4    1  0.4996155E-019  0.1490482E+02  0.7818608E-02  0.1870987E+00
          2   -1    0    0  501    0  0.00000000000E+00  0.00000000000E+00  0.11928843645E+03  0.11928843648E+03  0.25500000000E-02 0. -1.
         -2   -1    0    0    0  501 -0.00000000000E+00 -0.00000000000E+00 -0.46557745707E+00  0.46558444028E+00  0.25500000000E-02 0.  1.
         31    1    1    2    0    0  0.16511762326E+00 -0.22380479881E-01  0.57583921422E+02  0.58063712395E+02  0.74470750000E+01 0.  1.
        -31    1    1    2    0    0 -0.16511762326E+00  0.22380479881E-01  0.61238937570E+02  0.61690308522E+02  0.74470750000E+01 0. -1.
<mgrwt>
<rscale>  0 0.14904822E+02</rscale>
<asrwt>0</asrwt>
<pdfrwt beam="1">  1        2 0.99021003E+00 0.14904822E+02</pdfrwt>
<pdfrwt beam="2">  1       -2 0.98885047E+00 0.14904822E+02</pdfrwt>
<totfact> 0.12222713E-13</totfact>
</mgrwt>
</event>
<event>
 4    1 -0.4996155E-019  0.1502933E+02  0.7818608E-02  0.1867175E+00
          2   -1    0    0  501    0  0.00000000000E+00  0.00000000000E+00  0.11995610340E+03  0.11995610343E+03  0.25500000000E-02 0.  1.
         -2   -1    0    0    0  501 -0.00000000000E+00 -0.00000000000E+00 -0.47075352861E+00  0.47076043504E+00  0.25500000000E-02 0. -1.
         31    1    1    2    0    0 -0.58903393610E+00 -0.76956497377E+00  0.57591734332E+02  0.58079307681E+02  0.74470750000E+01 0. -1.
        -31    1    1    2    0    0  0.58903393610E+00  0.76956497377E+00  0.61893615540E+02  0.62347556182E+02  0.74470750000E+01 0.  1.
<mgrwt>
<rscale>  0 0.15029328E+02</rscale>
<asrwt>0</asrwt>
<pdfrwt beam="1">  1        2 0.99577357E+00 0.15029328E+02</pdfrwt>
<pdfrwt beam="2">  1       -2 0.99982254E+00 0.15029328E+02</pdfrwt>
<totfact>-0.67018392E-15</totfact>
</mgrwt>
</event>
<event>
 4    1  0.4996155E-019  0.1495188E+02  0.7818608E-02  0.1869541E+00
          2   -1    0    0  501    0  0.00000000000E+00  0.00000000000E+00  0.12021535060E+03  0.12021535063E+03  0.25500000000E-02 0. -1.
         -2   -1    0    0    0  501 -0.00000000000E+00 -0.00000000000E+00 -0.46490928560E+00  0.46491627885E+00  0.25500000000E-02 0.  1.
         31    1    1    2    0    0 -0.26662589749E+00 -0.53097187465E+00  0.57625241555E+02  0.58107490144E+02  0.74470750000E+01 0.  1.
        -31    1    1    2    0    0  0.26662589749E+00  0.53097187465E+00  0.62125199759E+02  0.62572776762E+02  0.74470750000E+01 0.  1.
<mgrwt>
<rscale>  0 0.14951877E+02</rscale>
<asrwt>0</asrwt>
<pdfrwt beam="1">  1        2 0.99786888E+00 0.14951877E+02</pdfrwt>
<pdfrwt beam="2">  1       -2 0.98746642E+00 0.14951877E+02</pdfrwt>
<totfact> 0.11520599E-13</totfact>
</mgrwt>
</event>
<event>
 4    1 -0.4996155E-019  0.1498596E+02  0.7818608E-02  0.1868497E+00
         -2   -1    0    0    0  501 -0.00000000000E+00  0.00000000000E+00  0.11990625715E+03  0.11990625718E+03  0.25500000000E-02 0.  1.
          2   -1    0    0  501    0  0.00000000000E+00 -0.00000000000E+00 -0.46823541600E+00  0.46824235957E+00  0.25500000000E-02 0. -1.
         31    1    1    2    0    0  0.46965601441E+00  0.55863846481E+00  0.62862945543E+02  0.63306725568E+02  0.74470750000E+01 0.  1.
        -31    1    1    2    0    0 -0.46965601441E+00 -0.55863846481E+00  0.56575076194E+02  0.57067773972E+02  0.74470750000E+01 0.  1.
<mgrwt>
<rscale>  0 0.14985964E+02</rscale>
<asrwt>0</asrwt>
<pdfrwt beam="2">  1        2 0.99449365E+00 0.14985964E+02</pdfrwt>
<pdfrwt beam="1">  1       -2 0.99534058E+00 0.14985964E+02</pdfrwt>
<totfact>-0.12372837E-13</totfact>
</mgrwt>
</event>
<event>
 4    1  0.4996155E-019  0.1491998E+02  0.7818608E-02  0.1870520E+00
          2   -1    0    0  501    0  0.00000000000E+00  0.00000000000E+00  0.11987058954E+03  0.11987058957E+03  0.25500000000E-02 0.  1.
         -2   -1    0    0    0  501 -0.00000000000E+00 -0.00000000000E+00 -0.46425904894E+00  0.46426605198E+00  0.25500000000E-02 0. -1.
         31    1    1    2    0    0 -0.43326637039E+00 -0.60595905135E-01  0.59434307288E+02  0.59900644407E+02  0.74470750000E+01 0.  1.
        -31    1    1    2    0    0  0.43326637039E+00  0.60595905135E-01  0.59972023208E+02  0.60434211217E+02  0.74470750000E+01 0. -1.
<mgrwt>
<rscale>  0 0.14919977E+02</rscale>
<asrwt>0</asrwt>
<pdfrwt beam="1">  1        2 0.99501278E+00 0.14919977E+02</pdfrwt>
<pdfrwt beam="2">  1       -2 0.98607974E+00 0.14919977E+02</pdfrwt>
<totfact> 0.34671635E-13</totfact>
</mgrwt>
</event>
<event>
 4    1 -0.4996155E-019  0.1492849E+02  0.7818608E-02  0.1870258E+00
          2   -1    0    0  501    0  0.00000000000E+00  0.00000000000E+00  0.11844495628E+03  0.11844495631E+03  0.25500000000E-02 0.  1.
         -2   -1    0    0    0  501 -0.00000000000E+00 -0.00000000000E+00 -0.47038344763E+00  0.47039035949E+00  0.25500000000E-02 0. -1.
         31    1    1    2    0    0  0.54722256978E-01 -0.49389260952E+00  0.59747537782E+02  0.60211910130E+02  0.74470750000E+01 0.  1.
        -31    1    1    2    0    0 -0.54722256978E-01  0.49389260952E+00  0.58227035051E+02  0.58703436537E+02  0.74470750000E+01 0.  1.
<mgrwt>
<rscale>  0 0.14928491E+02</rscale>
<asrwt>0</asrwt>
<pdfrwt beam="1">  1        2 0.98327529E+00 0.14928491E+02</pdfrwt>
<pdfrwt beam="2">  1       -2 0.99898984E+00 0.14928491E+02</pdfrwt>
<totfact>-0.15165443E-13</totfact>
</mgrwt>
</event>
<event>
 4    1 -0.4996155E-019  0.1492933E+02  0.7818608E-02  0.1870233E+00
         -2   -1    0    0    0  501 -0.00000000000E+00  0.00000000000E+00  0.11981694792E+03  0.11981694795E+03  0.25500000000E-02 0. -1.
          2   -1    0    0  501    0  0.00000000000E+00 -0.00000000000E+00 -0.46504935417E+00  0.46505634531E+00  0.25500000000E-02 0.  1.
         31    1    1    2    0    0  0.44044264929E+00 -0.11168867329E-02  0.61781513606E+02  0.62230284753E+02  0.74470750000E+01 0. -1.
        -31    1    1    2    0    0 -0.44044264929E+00  0.11168867329E-02  0.57570384963E+02  0.58051719542E+02  0.74470750000E+01 0.  1.
<mgrwt>
<rscale>  0 0.14929329E+02</rscale>
<asrwt>0</asrwt>
<pdfrwt beam="2">  1        2 0.98775012E+00 0.14929329E+02</pdfrwt>
<pdfrwt beam="1">  1       -2 0.99457577E+00 0.14929329E+02</pdfrwt>
<totfact>-0.23088049E-13</totfact>
</mgrwt>
</event>
<event>
 4    1 -0.4996155E-019  0.1497059E+02  0.7818608E-02  0.1868967E+00
          2   -1    0    0  501    0  0.00000000000E+00  0.00000000000E+00  0.11958797276E+03  0.11958797278E+03  0.25500000000E-02 0.  1.
         -2   -1    0    0    0  501 -0.00000000000E+00 -0.00000000000E+00 -0.46851904306E+00  0.46852598242E+00  0.25500000000E-02 0. -1.
         31    1    1    2    0    0 -0.52964523830E+00  0.11222794746E+00  0.55334319956E+02  0.55835821927E+02  0.74470750000E+01 0.  1.
        -31    1    1    2    0    0  0.52964523830E+00 -0.11222794746E+00  0.63785133757E+02  0.64220676839E+02  0.74470750000E+01 0. -1.
<mgrwt>
<rscale>  0 0.14970593E+02</rscale>
<asrwt>0</asrwt>
<pdfrwt beam="1">  1        2 0.99271113E+00 0.14970593E+02</pdfrwt>
<pdfrwt beam="2">  1       -2 0.99508339E+00 0.14970593E+02</pdfrwt>
<totfact>-0.14348885E-13</totfact>
</mgrwt>
</event>
<event>
 4    1 -0.4996155E-019  0.1496345E+02  0.7818608E-02  0.1869186E+00
          2   -1    0    0  501    0  0.00000000000E+00  0.00000000000E+00  0.11934208646E+03  0.11934208648E+03  0.25500000000E-02 0.  1.
         -2   -1    0    0    0  501 -0.00000000000E+00 -0.00000000000E+00 -0.46903670790E+00  0.46904363961E+00  0.25500000000E-02 0. -1.
         31    1    1    2    0    0 -0.21682478498E-01  0.70910420381E+00  0.58488752489E+02  0.58965213412E+02  0.74470750000E+01 0. -1.
        -31    1    1    2    0    0  0.21682478498E-01 -0.70910420381E+00  0.60384297260E+02  0.60845916712E+02  0.74470750000E+01 0.  1.
<mgrwt>
<rscale>  0 0.14963454E+02</rscale>
<asrwt>0</asrwt>
<pdfrwt beam="1">  1        2 0.99068225E+00 0.14963454E+02</pdfrwt>
<pdfrwt beam="2">  1       -2 0.99617052E+00 0.14963454E+02</pdfrwt>
<totfact>-0.15449417E-13</totfact>
</mgrwt>
</event>
<event>
 4    1 -0.4996155E-019  0.1493513E+02  0.7818608E-02  0.1870055E+00
          2   -1    0    0  501    0  0.00000000000E+00  0.00000000000E+00  0.11900162074E+03  0.11900162077E+03  0.25500000000E-02 0.  1.
         -2   -1    0    0    0  501 -0.00000000000E+00 -0.00000000000E+00 -0.46859955278E+00  0.46860649096E+00  0.25500000000E-02 0. -1.
         31    1    1    2    0    0  0.44261897042E+00  0.32900449175E+00  0.59570143904E+02  0.60036365033E+02  0.74470750000E+01 0.  1.
        -31    1    1    2    0    0 -0.44261897042E+00 -0.32900449175E+00  0.58962877282E+02  0.59433862225E+02  0.74470750000E+01 0. -1.
<mgrwt>
<rscale>  0 0.14935129E+02</rscale>
<asrwt>0</asrwt>
<pdfrwt beam="1">  1        2 0.98786343E+00 0.14935129E+02</pdfrwt>
<pdfrwt beam="2">  1       -2 0.99523457E+00 0.14935129E+02</pdfrwt>
<totfact>-0.22549950E-13</totfact>
</mgrwt>
</event>
<event>
 4    1  0.4996155E-019  0.1490133E+02  0.7818608E-02  0.1871094E+00
          2   -1    0    0  501    0  0.00000000000E+00  0.00000000000E+00  0.12015175021E+03  0.12015175023E+03  0.25500000000E-02 0.  1.
         -2   -1    0    0    0  501 -0.00000000000E+00 -0.00000000000E+00 -0.46201566341E+00  0.46202270046E+00  0.25500000000E-02 0. -1.
         31    1    1    2    0    0 -0.17477943917E+00  0.27271767698E-01  0.61050841296E+02  0.61503621362E+02  0.74470750000E+01 0.  1.
        -31    1    1    2    0    0  0.17477943917E+00 -0.27271767698E-01  0.58638893248E+02  0.59110151574E+02  0.74470750000E+01 0. -1.
<mgrwt>
<rscale>  0 0.14901331E+02</rscale>
<asrwt>0</asrwt>
<pdfrwt beam="1">  1        2 0.99731906E+00 0.14901331E+02</pdfrwt>
<pdfrwt beam="2">  1       -2 0.98134200E+00 0.14901331E+02</pdfrwt>
<totfact> 0.76123873E-13</totfact>
</mgrwt>
</event>
<event>
 4    1 -0.4996155E-019  0.1497399E+02  0.7818608E-02  0.1868863E+00
          2   -1    0    0  501    0  0.00000000000E+00  0.00000000000E+00  0.11933650204E+03  0.11933650207E+03  0.25500000000E-02 0. -1.
         -2   -1    0    0    0  501 -0.00000000000E+00 -0.00000000000E+00 -0.46971919728E+00  0.46972611892E+00  0.25500000000E-02 0.  1.
         31    1    1    2    0    0 -0.17072942332E+00 -0.37124903830E+00  0.64674854028E+02  0.65103476435E+02  0.74470750000E+01 0. -1.
        -31    1    1    2    0    0  0.17072942332E+00  0.37124903830E+00  0.54191928816E+02  0.54702751752E+02  0.74470750000E+01 0.  1.
<mgrwt>
<rscale>  0 0.14973986E+02</rscale>
<asrwt>0</asrwt>
<pdfrwt beam="1">  1        2 0.99064172E+00 0.14973986E+02</pdfrwt>
<pdfrwt beam="2">  1       -2 0.99761415E+00 0.14973986E+02</pdfrwt>
<totfact>-0.11489239E-13</totfact>
</mgrwt>
</event>
<event>
 4    1 -0.4996155E-019  0.1490391E+02  0.7818608E-02  0.1871015E+00
         -2   -1    0    0    0  501 -0.00000000000E+00  0.00000000000E+00  0.11972383063E+03  0.11972383066E+03  0.25500000000E-02 0.  1.
          2   -1    0    0  501    0  0.00000000000E+00 -0.00000000000E+00 -0.46382736182E+00  0.46383437138E+00  0.25500000000E-02 0. -1.
         31    1    1    2    0    0 -0.17795257904E+00 -0.16753003113E+00  0.60547755582E+02  0.61004502830E+02  0.74470750000E+01 0.  1.
        -31    1    1    2    0    0  0.17795257904E+00  0.16753003113E+00  0.58712247688E+02  0.59183162201E+02  0.74470750000E+01 0. -1.
<mgrwt>
<rscale>  0 0.14903907E+02</rscale>
<asrwt>0</asrwt>
<pdfrwt beam="2">  1        2 0.98516174E+00 0.14903907E+02</pdfrwt>
<pdfrwt beam="1">  1       -2 0.99379571E+00 0.14903907E+02</pdfrwt>
<totfact>-0.32591805E-13</totfact>
</mgrwt>
</event>
<event>
 4    1  0.4996155E-019  0.1493134E+02  0.7818608E-02  0.1870171E+00
          2   -1    0    0  501    0  0.00000000000E+00  0.00000000000E+00  0.12013612285E+03  0.12013612288E+03  0.25500000000E-02 0. -1.
         -2   -1    0    0    0  501 -0.00000000000E+00 -0.00000000000E+00 -0.46393878720E+00  0.46394579507E+00  0.25500000000E-02 0.  1.
         31    1    1    2    0    0  0.28506939652E+00  0.38337711069E+00  0.61625150567E+02  0.62075328038E+02  0.74470750000E+01 0. -1.
        -31    1    1    2    0    0 -0.28506939652E+00 -0.38337711069E+00  0.58047033496E+02  0.58524740634E+02  0.74470750000E+01 0.  1.
<mgrwt>
<rscale>  0 0.14931340E+02</rscale>
<asrwt>0</asrwt>
<pdfrwt beam="1">  1        2 0.99720575E+00 0.14931340E+02</pdfrwt>
<pdfrwt beam="2">  1       -2 0.98541054E+00 0.14931340E+02</pdfrwt>
<totfact> 0.30240869E-13</totfact>
</mgrwt>
</event>
<event>
 4    1  0.4996155E-019  0.1491445E+02  0.7818608E-02  0.1870690E+00
          2   -1    0    0  501    0  0.00000000000E+00  0.00000000000E+00  0.12005348946E+03  0.12005348948E+03  0.25500000000E-02 0.  1.
         -2   -1    0    0    0  501 -0.00000000000E+00 -0.00000000000E+00 -0.46320817937E+00  0.46321519830E+00  0.25500000000E-02 0. -1.
         31    1    1    2    0    0  0.12185402786E+00 -0.11140077745E+00  0.62640570579E+02  0.63081909190E+02  0.74470750000E+01 0.  1.
        -31    1    1    2    0    0 -0.12185402786E+00  0.11140077745E+00  0.56949710698E+02  0.57434795491E+02  0.74470750000E+01 0. -1.
<mgrwt>
<rscale>  0 0.14914447E+02</rscale>
<asrwt>0</asrwt>
<pdfrwt beam="1">  1        2 0.99651644E+00 0.14914447E+02</pdfrwt>
<pdfrwt beam="2">  1       -2 0.98386210E+00 0.14914447E+02</pdfrwt>
<totfact> 0.53115249E-13</totfact>
</mgrwt>
</event>
<event>
 4    1 -0.4996155E-019  0.1497605E+02  0.7818608E-02  0.1868800E+00
          2   -1    0    0  501    0  0.00000000000E+00  0.00000000000E+00  0.11952748929E+03  0.11952748931E+03  0.25500000000E-02 0.  1.
         -2   -1    0    0    0  501 -0.00000000000E+00 -0.00000000000E+00 -0.46909783352E+00  0.46910476433E+00  0.25500000000E-02 0. -1.
         31    1    1    2    0    0 -0.14072419319E+00  0.98406669421E-01  0.53416018943E+02  0.53932916599E+02  0.74470750000E+01 0. -1.
        -31    1    1    2    0    0  0.14072419319E+00 -0.98406669421E-01  0.65642372509E+02  0.66063677477E+02  0.74470750000E+01 0.  1.
<mgrwt>
<rscale>  0 0.14976048E+02</rscale>
<asrwt>0</asrwt>
<pdfrwt beam="1">  1        2 0.99221580E+00 0.14976048E+02</pdfrwt>
<pdfrwt beam="2">  1       -2 0.99630589E+00 0.14976048E+02</pdfrwt>
<totfact>-0.13473444E-13</totfact>
</mgrwt>
</event>
<event>
 4    1 -0.4996155E-019  0.1490512E+02  0.7818608E-02  0.1870978E+00
          2   -1    0    0  501    0  0.00000000000E+00  0.00000000000E+00  0.11855544158E+03  0.11855544161E+03  0.25500000000E-02 0. -1.
         -2   -1    0    0    0  501 -0.00000000000E+00 -0.00000000000E+00 -0.46847465932E+00  0.46848159934E+00  0.25500000000E-02 0.  1.
         31    1    1    2    0    0 -0.47818296279E-01 -0.27290469679E+00  0.59605032701E+02  0.60069090329E+02  0.74470750000E+01 0. -1.
        -31    1    1    2    0    0  0.47818296279E-01  0.27290469679E+00  0.58481934221E+02  0.58954832880E+02  0.74470750000E+01 0.  1.
<mgrwt>
<rscale>  0 0.14905118E+02</rscale>
<asrwt>0</asrwt>
<pdfrwt beam="1">  1        2 0.98417307E+00 0.14905118E+02</pdfrwt>
<pdfrwt beam="2">  1       -2 0.99495568E+00 0.14905118E+02</pdfrwt>
<totfact>-0.39799573E-13</totfact>
</mgrwt>
</event>
<event>
 4    1 -0.4996155E-019  0.1497648E+02  0.7818608E-02  0.1868787E+00
         -2   -1    0    0    0  501 -0.00000000000E+00  0.00000000000E+00  0.12004203880E+03  0.12004203883E+03  0.25500000000E-02 0.  1.
          2   -1    0    0  501    0  0.00000000000E+00 -0.00000000000E+00 -0.46711392822E+00  0.46712088846E+00  0.25500000000E-02 0. -1.
         31    1    1    2    0    0  0.28767563994E+00 -0.72581966169E+00  0.60369479942E+02  0.60832085333E+02  0.74470750000E+01 0.  1.
        -31    1    1    2    0    0 -0.28767563994E+00  0.72581966169E+00  0.59205444932E+02  0.59677074385E+02  0.74470750000E+01 0.  1.
<mgrwt>
<rscale>  0 0.14976479E+02</rscale>
<asrwt>0</asrwt>
<pdfrwt beam="2">  1        2 0.99212533E+00 0.14976479E+02</pdfrwt>
<pdfrwt beam="1">  1       -2 0.99645405E+00 0.14976479E+02</pdfrwt>
<totfact>-0.13275653E-13</totfact>
</mgrwt>
</event>
<event>
 4    1 -0.4996155E-019  0.1503065E+02  0.7818608E-02  0.1867135E+00
          2   -1    0    0  501    0  0.00000000000E+00  0.00000000000E+00  0.12015204285E+03  0.12015204288E+03  0.25500000000E-02 0. -1.
         -2   -1    0    0    0  501 -0.00000000000E+00 -0.00000000000E+00 -0.47006869241E+00  0.47007560890E+00  0.25500000000E-02 0.  1.
         31    1    1    2    0    0  0.96410189090E+00  0.26811765930E+00  0.58710993335E+02  0.59189872816E+02  0.74470750000E+01 0.  1.
        -31    1    1    2    0    0 -0.96410189090E+00 -0.26811765930E+00  0.60970980828E+02  0.61432245675E+02  0.74470750000E+01 0.  1.
<mgrwt>
<rscale>  0 0.15030653E+02</rscale>
<asrwt>0</asrwt>
<pdfrwt beam="1">  1        2 0.99738807E+00 0.15030653E+02</pdfrwt>
<pdfrwt beam="2">  1       -2 0.99838009E+00 0.15030653E+02</pdfrwt>
<totfact>-0.39926579E-14</totfact>
</mgrwt>
</event>
<event>
 4    1  0.4996155E-019  0.1491486E+02  0.7818608E-02  0.1870678E+00
          2   -1    0    0  501    0  0.00000000000E+00  0.00000000000E+00  0.12027449990E+03  0.12027449993E+03  0.25500000000E-02 0.  1.
         -2   -1    0    0    0  501 -0.00000000000E+00 -0.00000000000E+00 -0.46238230491E+00  0.46238933637E+00  0.25500000000E-02 0. -1.
         31    1    1    2    0    0 -0.20125923882E+00  0.18371462832E+00  0.57615793149E+02  0.58095721035E+02  0.74470750000E+01 0. -1.
        -31    1    1    2    0    0  0.20125923882E+00 -0.18371462832E+00  0.62196324446E+02  0.62641168228E+02  0.74470750000E+01 0.  1.
<mgrwt>
<rscale>  0 0.14914855E+02</rscale>
<asrwt>0</asrwt>
<pdfrwt beam="1">  1        2 0.99833708E+00 0.14914855E+02</pdfrwt>
<pdfrwt beam="2">  1       -2 0.98212161E+00 0.14914855E+02</pdfrwt>
<totfact> 0.45405150E-13</totfact>
</mgrwt>
</event>
<event>
 4    1  0.4996155E-019  0.1491346E+02  0.7818608E-02  0.1870721E+00
         -2   -1    0    0    0  501 -0.00000000000E+00  0.00000000000E+00  0.11821748718E+03  0.11821748720E+03  0.25500000000E-02 0. -1.
          2   -1    0    0  501    0  0.00000000000E+00 -0.00000000000E+00 -0.47033980864E+00  0.47034672115E+00  0.25500000000E-02 0.  1.
         31    1    1    2    0    0  0.27267660614E+00  0.26366912182E+00  0.58885246307E+02  0.59355497072E+02  0.74470750000E+01 0.  1.
        -31    1    1    2    0    0 -0.27267660614E+00 -0.26366912182E+00  0.58861901060E+02  0.59332336853E+02  0.74470750000E+01 0.  1.
<mgrwt>
<rscale>  0 0.14913457E+02</rscale>
<asrwt>0</asrwt>
<pdfrwt beam="2">  1        2 0.99888992E+00 0.14913457E+02</pdfrwt>
<pdfrwt beam="1">  1       -2 0.98139405E+00 0.14913457E+02</pdfrwt>
<totfact> 0.37129998E-13</totfact>
</mgrwt>
</event>
<event>
 4    1  0.4996155E-019  0.1495852E+02  0.7818608E-02  0.1869337E+00
          2   -1    0    0  501    0  0.00000000000E+00  0.00000000000E+00  0.12019788307E+03  0.12019788310E+03  0.25500000000E-02 0.  1.
         -2   -1    0    0    0  501 -0.00000000000E+00 -0.00000000000E+00 -0.46539004130E+00  0.46539702733E+00  0.25500000000E-02 0. -1.
         31    1    1    2    0    0 -0.67067620596E-01 -0.17424122150E+00  0.54481958239E+02  0.54988885765E+02  0.74470750000E+01 0. -1.
        -31    1    1    2    0    0  0.67067620596E-01  0.17424122150E+00  0.65250534791E+02  0.65674394361E+02  0.74470750000E+01 0.  1.
<mgrwt>
<rscale>  0 0.14958519E+02</rscale>
<asrwt>0</asrwt>
<pdfrwt beam="1">  1        2 0.99772842E+00 0.14958519E+02</pdfrwt>
<pdfrwt beam="2">  1       -2 0.98848303E+00 0.14958519E+02</pdfrwt>
<totfact> 0.67403648E-14</totfact>
</mgrwt>
</event>
<event>
 4    1 -0.4996155E-019  0.1490114E+02  0.7818608E-02  0.1871100E+00
          2   -1    0    0  501    0  0.00000000000E+00  0.00000000000E+00  0.11847357792E+03  0.11847357795E+03  0.25500000000E-02 0.  1.
         -2   -1    0    0    0  501 -0.00000000000E+00 -0.00000000000E+00 -0.46854798953E+00  0.46855492847E+00  0.25500000000E-02 0. -1.
         31    1    1    2    0    0  0.22366601297E+00  0.44444622852E-01  0.59054966452E+02  0.59523104678E+02  0.74470750000E+01 0. -1.
        -31    1    1    2    0    0 -0.22366601297E+00 -0.44444622852E-01  0.58950063480E+02  0.59419028199E+02  0.74470750000E+01 0. -1.
<mgrwt>
<rscale>  0 0.14901137E+02</rscale>
<asrwt>0</asrwt>
<pdfrwt beam="1">  1        2 0.98349677E+00 0.14901137E+02</pdfrwt>
<pdfrwt beam="2">  1       -2 0.99510810E+00 0.14901137E+02</pdfrwt>
<totfact>-0.44407236E-13</totfact>
</mgrwt>
</event>
<event>
 4    1  0.4996155E-019  0.1489899E+02  0.7818608E-02  0.1871167E+00
         -2   -1    0    0    0  501 -0.00000000000E+00  0.00000000000E+00  0.11884466919E+03  0.11884466922E+03  0.25500000000E-02 0.  1.
          2   -1    0    0  501    0  0.00000000000E+00 -0.00000000000E+00 -0.46695012918E+00  0.46695709187E+00  0.25500000000E-02 0. -1.
         31    1    1    2    0    0 -0.37996497689E-01 -0.17906986129E+00  0.58787272498E+02  0.59257369530E+02  0.74470750000E+01 0. -1.
        -31    1    1    2    0    0  0.37996497689E-01  0.17906986129E+00  0.59590446561E+02  0.60054256778E+02  0.74470750000E+01 0.  1.
<mgrwt>
<rscale>  0 0.14898987E+02</rscale>
<asrwt>0</asrwt>
<pdfrwt beam="2">  1        2 0.99174007E+00 0.14898987E+02</pdfrwt>
<pdfrwt beam="1">  1       -2 0.98655200E+00 0.14898987E+02</pdfrwt>
<totfact> 0.37949451E-13</totfact>
</mgrwt>
</event>
<event>
 4    1 -0.4996155E-019  0.1490918E+02  0.7818608E-02  0.1870853E+00
          2   -1    0    0  501    0  0.00000000000E+00  0.00000000000E+00  0.11883559516E+03  0.11883559519E+03  0.25500000000E-02 0. -1.
         -2   -1    0    0    0  501 -0.00000000000E+00 -0.00000000000E+00 -0.46762478582E+00  0.46763173845E+00  0.25500000000E-02 0.  1.
         31    1    1    2    0    0 -0.83429252993E-01 -0.20098641319E+00  0.61217879929E+02  0.61669563847E+02  0.74470750000E+01 0. -1.
        -31    1    1    2    0    0  0.83429252993E-01  0.20098641319E+00  0.57150090449E+02  0.57633663083E+02  0.74470750000E+01 0.  1.
<mgrwt>
<rscale>  0 0.14909177E+02</rscale>
<asrwt>0</asrwt>
<pdfrwt beam="1">  1        2 0.98648255E+00 0.14909177E+02</pdfrwt>
<pdfrwt beam="2">  1       -2 0.99316702E+00 0.14909177E+02</pdfrwt>
<totfact>-0.24603582E-13</totfact>
</mgrwt>
</event>
<event>
 4    1 -0.4996155E-019  0.1493756E+02  0.7818608E-02  0.1869980E+00
         -2   -1    0    0    0  501 -0.00000000000E+00  0.00000000000E+00  0.11963916206E+03  0.11963916209E+03  0.25500000000E-02 0.  1.
          2   -1    0    0  501    0  0.00000000000E+00 -0.00000000000E+00 -0.46625442503E+00  0.46626139810E+00  0.25500000000E-02 0. -1.
         31    1    1    2    0    0  0.14062971050E+00  0.50057100796E+00  0.61445095652E+02  0.61896922814E+02  0.74470750000E+01 0. -1.
        -31    1    1    2    0    0 -0.14062971050E+00 -0.50057100796E+00  0.57727811981E+02  0.58208500670E+02  0.74470750000E+01 0. -1.
<mgrwt>
<rscale>  0 0.14937565E+02</rscale>
<asrwt>0</asrwt>
<pdfrwt beam="2">  1        2 0.99029398E+00 0.14937565E+02</pdfrwt>
<pdfrwt beam="1">  1       -2 0.99311567E+00 0.14937565E+02</pdfrwt>
<totfact>-0.15383216E-13</totfact>
</mgrwt>
</event>
<event>
 4    1 -0.4996155E-019  0.1495737E+02  0.7818608E-02  0.1869372E+00
          2   -1    0    0  501    0  0.00000000000E+00  0.00000000000E+00  0.11938178592E+03  0.11938178595E+03  0.25500000000E-02 0. -1.
         -2   -1    0    0    0  501 -0.00000000000E+00 -0.00000000000E+00 -0.46849961168E+00  0.46850655134E+00  0.25500000000E-02 0.  1.
         31    1    1    2    0    0  0.22526649635E+00  0.24580546464E+00  0.64268632612E+02  0.64699514907E+02  0.74470750000E+01 0.  1.
        -31    1    1    2    0    0 -0.22526649635E+00 -0.24580546464E+00  0.54644653701E+02  0.55150777596E+02  0.74470750000E+01 0.  1.
<mgrwt>
<rscale>  0 0.14957371E+02</rscale>
<asrwt>0</asrwt>
<pdfrwt beam="1">  1        2 0.99100607E+00 0.14957371E+02</pdfrwt>
<pdfrwt beam="2">  1       -2 0.99503557E+00 0.14957371E+02</pdfrwt>
<totfact>-0.16324277E-13</totfact>
</mgrwt>
</event>
<event>
 4    1  0.4996155E-019  0.1496262E+02  0.7818608E-02  0.1869211E+00
          2   -1    0    0  501    0  0.00000000000E+00  0.00000000000E+00  0.12029243497E+03  0.12029243500E+03  0.25500000000E-02 0.  1.
         -2   -1    0    0    0  501 -0.00000000000E+00 -0.00000000000E+00 -0.46527940925E+00  0.46528639693E+00  0.25500000000E-02 0. -1.
         31    1    1    2    0    0 -0.28713983431E+00 -0.10791332136E+00  0.54701953032E+02  0.55207397024E+02  0.74470750000E+01 0. -1.
        -31    1    1    2    0    0  0.28713983431E+00  0.10791332136E+00  0.65125202527E+02  0.65550324369E+02  0.74470750000E+01 0.  1.
<mgrwt>
<rscale>  0 0.14962622E+02</rscale>
<asrwt>0</asrwt>
<pdfrwt beam="1">  1        2 0.99850933E+00 0.14962622E+02</pdfrwt>
<pdfrwt beam="2">  1       -2 0.98825196E+00 0.14962622E+02</pdfrwt>
<totfact> 0.56314792E-14</totfact>
</mgrwt>
</event>
<event>
 4    1 -0.4996155E-019  0.1490605E+02  0.7818608E-02  0.1870949E+00
          2   -1    0    0  501    0  0.00000000000E+00  0.00000000000E+00  0.11833283820E+03  0.11833283822E+03  0.25500000000E-02 0. -1.
         -2   -1    0    0    0  501 -0.00000000000E+00 -0.00000000000E+00 -0.46941475267E+00  0.46942167880E+00  0.25500000000E-02 0.  1.
         31    1    1    2    0    0 -0.44481423648E-01  0.16275133988E+00  0.56976194336E+02  0.57461066068E+02  0.74470750000E+01 0.  1.
        -31    1    1    2    0    0  0.44481423648E-01 -0.16275133988E+00  0.60887229107E+02  0.61341193834E+02  0.74470750000E+01 0.  1.
<mgrwt>
<rscale>  0 0.14906052E+02</rscale>
<asrwt>0</asrwt>
<pdfrwt beam="1">  1        2 0.98234021E+00 0.14906052E+02</pdfrwt>
<pdfrwt beam="2">  1       -2 0.99693697E+00 0.14906052E+02</pdfrwt>
<totfact>-0.43946475E-13</totfact>
</mgrwt>
</event>
<event>
 4    1 -0.4996155E-019  0.1498388E+02  0.7818608E-02  0.1868561E+00
         -2   -1    0    0    0  501 -0.00000000000E+00  0.00000000000E+00  0.11981915214E+03  0.11981915217E+03  0.25500000000E-02 0. -1.
          2   -1    0    0  501    0  0.00000000000E+00 -0.00000000000E+00 -0.46844573424E+00  0.46845267469E+00  0.25500000000E-02 0.  1.
         31    1    1    2    0    0  0.41963126296E+00 -0.63978392637E+00  0.57336936044E+02  0.57823598771E+02  0.74470750000E+01 0.  1.
        -31    1    1    2    0    0 -0.41963126296E+00  0.63978392637E+00  0.62013770361E+02  0.62464006070E+02  0.74470750000E+01 0.  1.
<mgrwt>
<rscale>  0 0.14983883E+02</rscale>
<asrwt>0</asrwt>
<pdfrwt beam="2">  1        2 0.99493579E+00 0.14983883E+02</pdfrwt>
<pdfrwt beam="1">  1       -2 0.99462208E+00 0.14983883E+02</pdfrwt>
<totfact>-0.12029614E-13</totfact>
</mgrwt>
</event>
<event>
 4    1  0.4996155E-019  0.1491376E+02  0.7818608E-02  0.1870712E+00
         -2   -1    0    0    0  501 -0.00000000000E+00  0.00000000000E+00  0.11874759173E+03  0.11874759176E+03  0.25500000000E-02 0. -1.
          2   -1    0    0  501    0  0.00000000000E+00 -0.00000000000E+00 -0.46825902476E+00  0.46826596798E+00  0.25500000000E-02 0.  1.
         31    1    1    2    0    0 -0.11163504648E+00  0.27929474489E+00  0.57253885409E+02  0.57736962064E+02  0.74470750000E+01 0.  1.
        -31    1    1    2    0    0  0.11163504648E+00 -0.27929474489E+00  0.61025447299E+02  0.61478895663E+02  0.74470750000E+01 0. -1.
<mgrwt>
<rscale>  0 0.14913758E+02</rscale>
<asrwt>0</asrwt>
<pdfrwt beam="2">  1        2 0.99450585E+00 0.14913758E+02</pdfrwt>
<pdfrwt beam="1">  1       -2 0.98576012E+00 0.14913758E+02</pdfrwt>
<totfact> 0.40458216E-13</totfact>
</mgrwt>
</event>
<event>
 4    1 -0.4996155E-019  0.1491818E+02  0.7818608E-02  0.1870576E+00
         -2   -1    0    0    0  501 -0.00000000000E+00  0.00000000000E+00  0.12033970214E+03  0.12033970216E+03  0.25500000000E-02 0. -1.
          2   -1    0    0  501    0  0.00000000000E+00 -0.00000000000E+00 -0.46233771132E+00  0.46234474346E+00  0.25500000000E-02 0.  1.
         31    1    1    2    0    0  0.26580247289E+00 -0.28759074841E+00  0.61237423589E+02  0.61689823580E+02  0.74470750000E+01 0. -1.
        -31    1    1    2    0    0 -0.26580247289E+00  0.28759074841E+00  0.58639940836E+02  0.59112223327E+02  0.74470750000E+01 0. -1.
<mgrwt>
<rscale>  0 0.14918178E+02</rscale>
<asrwt>0</asrwt>
<pdfrwt beam="2">  1        2 0.98202929E+00 0.14918178E+02</pdfrwt>
<pdfrwt beam="1">  1       -2 0.99887584E+00 0.14918178E+02</pdfrwt>
<totfact>-0.20635766E-13</totfact>
</mgrwt>
</event>
<event>
 4    1 -0.4996155E-019  0.1489757E+02  0.7818608E-02  0.1871210E+00
          2   -1    0    0  501    0  0.00000000000E+00  0.00000000000E+00  0.11831892538E+03  0.11831892541E+03  0.25500000000E-02 0. -1.
         -2   -1    0    0    0  501 -0.00000000000E+00 -0.00000000000E+00 -0.46893587103E+00  0.46894280423E+00  0.25500000000E-02 0.  1.
         31    1    1    2    0    0 -0.14764679792E+00 -0.33805698669E-01  0.58523666439E+02  0.58995774442E+02  0.74470750000E+01 0.  1.
        -31    1    1    2    0    0  0.14764679792E+00  0.33805698669E-01  0.59326323073E+02  0.59792093773E+02  0.74470750000E+01 0. -1.
<mgrwt>
<rscale>  0 0.14897571E+02</rscale>
<asrwt>0</asrwt>
<pdfrwt beam="1">  1        2 0.98222121E+00 0.14897571E+02</pdfrwt>
<pdfrwt beam="2">  1       -2 0.99592349E+00 0.14897571E+02</pdfrwt>
<totfact>-0.52252500E-13</totfact>
</mgrwt>
</event>
<event>
 4    1 -0.4996155E-019  0.1493235E+02  0.7818608E-02  0.1870140E+00
          2   -1    0    0  501    0  0.00000000000E+00  0.00000000000E+00  0.11851306437E+03  0.11851306440E+03  0.25500000000E-02 0. -1.
         -2   -1    0    0    0  501 -0.00000000000E+00 -0.00000000000E+00 -0.47035642211E+00  0.47036333437E+00  0.25500000000E-02 0.  1.
         31    1    1    2    0    0 -0.41385824703E+00  0.73134240856E-01  0.56399834768E+02  0.56890921202E+02  0.74470750000E+01 0.  1.
        -31    1    1    2    0    0  0.41385824703E+00 -0.73134240856E-01  0.61642873184E+02  0.62092506535E+02  0.74470750000E+01 0. -1.
<mgrwt>
<rscale>  0 0.14932353E+02</rscale>
<asrwt>0</asrwt>
<pdfrwt beam="1">  1        2 0.98383823E+00 0.14932353E+02</pdfrwt>
<pdfrwt beam="2">  1       -2 0.99893494E+00 0.14932353E+02</pdfrwt>
<totfact>-0.14479738E-13</totfact>
</mgrwt>
</event>
<event>
 4    1 -0.4996155E-019  0.1491830E+02  0.7818608E-02  0.1870572E+00
         -2   -1    0    0    0  501 -0.00000000000E+00  0.00000000000E+00  0.11954735511E+03  0.11954735514E+03  0.25500000000E-02 0. -1.
          2   -1    0    0  501    0  0.00000000000E+00 -0.00000000000E+00 -0.46540989072E+00  0.46541687644E+00  0.25500000000E-02 0.  1.
         31    1    1    2    0    0  0.22074481386E+00 -0.15849854401E-01  0.56628883913E+02  0.57116883658E+02  0.74470750000E+01 0.  1.
        -31    1    1    2    0    0 -0.22074481386E+00  0.15849854401E-01  0.62453061309E+02  0.62895888358E+02  0.74470750000E+01 0. -1.
<mgrwt>
<rscale>  0 0.14918303E+02</rscale>
<asrwt>0</asrwt>
<pdfrwt beam="2">  1        2 0.98850428E+00 0.14918303E+02</pdfrwt>
<pdfrwt beam="1">  1       -2 0.99234957E+00 0.14918303E+02</pdfrwt>
<totfact>-0.15614526E-13</totfact>
</mgrwt>
</event>
<event>
 4    1  0.4996155E-019  0.1491444E+02  0.7818608E-02  0.1870691E+00
          2   -1    0    0  501    0  0.00000000000E+00  0.00000000000E+00  0.11973179042E+03  0.11973179044E+03  0.25500000000E-02 0.  1.
         -2   -1    0    0    0  501 -0.00000000000E+00 -0.00000000000E+00 -0.46445246249E+00  0.46445946262E+00  0.25500000000E-02 0. -1.
         31    1    1    2    0    0  0.70860438521E-02 -0.32660620527E+00  0.57933622868E+02  0.58411217300E+02  0.74470750000E+01 0. -1.
        -31    1    1    2    0    0 -0.70860438521E-02  0.32660620527E+00  0.61333715087E+02  0.61785032607E+02  0.74470750000E+01 0.  1.
<mgrwt>
<rscale>  0 0.14914442E+02</rscale>
<asrwt>0</asrwt>
<pdfrwt beam="1">  1        2 0.99386669E+00 0.14914442E+02</pdfrwt>
<pdfrwt beam="2">  1       -2 0.98648454E+00 0.14914442E+02</pdfrwt>
<totfact> 0.33288733E-13</totfact>
</mgrwt>
</event>
<event>
 4    1 -0.4996155E-019  0.1495962E+02  0.7818608E-02  0.1869303E+00
         -2   -1    0    0    0  501 -0.00000000000E+00  0.00000000000E+00  0.11986625142E+03  0.11986625145E+03  0.25500000000E-02 0. -1.
          2   -1    0    0  501    0  0.00000000000E+00 -0.00000000000E+00 -0.46674653083E+00  0.46675349655E+00  0.25500000000E-02 0.  1.
         31    1    1    2    0    0 -0.60547206607E+00 -0.34800510533E+00  0.59947382786E+02  0.60412211786E+02  0.74470750000E+01 0. -1.
        -31    1    1    2    0    0  0.60547206607E+00  0.34800510533E+00  0.59452122106E+02  0.59920793160E+02  0.74470750000E+01 0.  1.
<mgrwt>
<rscale>  0 0.14959623E+02</rscale>
<asrwt>0</asrwt>
<pdfrwt beam="2">  1        2 0.99134241E+00 0.14959623E+02</pdfrwt>
<pdfrwt beam="1">  1       -2 0.99499748E+00 0.14959623E+02</pdfrwt>
<totfact>-0.15904843E-13</totfact>
</mgrwt>
</event>
<event>
 4    1 -0.4996155E-019  0.1490848E+02  0.7818608E-02  0.1870874E+00
         -2   -1    0    0    0  501 -0.00000000000E+00  0.00000000000E+00  0.12005307680E+03  0.12005307683E+03  0.25500000000E-02 0. -1.
          2   -1    0    0  501    0  0.00000000000E+00 -0.00000000000E+00 -0.46283909569E+00  0.46284612022E+00  0.25500000000E-02 0.  1.
         31    1    1    2    0    0  0.16520690868E+00  0.27339774115E+00  0.59239942613E+02  0.59707049555E+02  0.74470750000E+01 0.  1.
        -31    1    1    2    0    0 -0.16520690868E+00 -0.27339774115E+00  0.60350295092E+02  0.60808873393E+02  0.74470750000E+01 0.  1.
<mgrwt>
<rscale>  0 0.14908478E+02</rscale>
<asrwt>0</asrwt>
<pdfrwt beam="2">  1        2 0.98308117E+00 0.14908478E+02</pdfrwt>
<pdfrwt beam="1">  1       -2 0.99650997E+00 0.14908478E+02</pdfrwt>
<totfact>-0.41907332E-13</totfact>
</mgrwt>
</event>
<event>
 4    1 -0.4996155E-019  0.1502248E+02  0.7818608E-02  0.1867383E+00
         -2   -1    0    0    0  501 -0.00000000000E+00  0.00000000000E+00  0.12009040637E+03  0.12009040640E+03  0.25500000000E-02 0. -1.
          2   -1    0    0  501    0  0.00000000000E+00 -0.00000000000E+00 -0.46979871052E+00  0.46980563098E+00  0.25500000000E-02 0.  1.
         31    1    1    2    0    0  0.90990927124E+00 -0.35508835411E+00  0.60420870859E+02  0.60885914496E+02  0.74470750000E+01 0. -1.
        -31    1    1    2    0    0 -0.90990927124E+00  0.35508835411E+00  0.59199736802E+02  0.59674297533E+02  0.74470750000E+01 0. -1.
<mgrwt>
<rscale>  0 0.15022481E+02</rscale>
<asrwt>0</asrwt>
<pdfrwt beam="2">  1        2 0.99780692E+00 0.15022481E+02</pdfrwt>
<pdfrwt beam="1">  1       -2 0.99687618E+00 0.15022481E+02</pdfrwt>
<totfact>-0.57803813E-14</totfact>
</mgrwt>
</event>
<event>
 4    1 -0.4996155E-019  0.1500636E+02  0.7818608E-02  0.1867874E+00
         -2   -1    0    0    0  501 -0.00000000000E+00  0.00000000000E+00  0.12041349392E+03  0.12041349395E+03  0.25500000000E-02 0.  1.
          2   -1    0    0  501    0  0.00000000000E+00 -0.00000000000E+00 -0.46753306534E+00  0.46754001934E+00  0.25500000000E-02 0. -1.
         31    1    1    2    0    0 -0.31437419198E+00 -0.39784509735E+00  0.53829385055E+02  0.54344445285E+02  0.74470750000E+01 0. -1.
        -31    1    1    2    0    0  0.31437419198E+00  0.39784509735E+00  0.66116575799E+02  0.66536588681E+02  0.74470750000E+01 0.  1.
<mgrwt>
<rscale>  0 0.15006360E+02</rscale>
<asrwt>0</asrwt>
<pdfrwt beam="2">  1        2 0.99302398E+00 0.15006360E+02</pdfrwt>
<pdfrwt beam="1">  1       -2 0.99952896E+00 0.15006360E+02</pdfrwt>
<totfact>-0.22466047E-14</totfact>
</mgrwt>
</event>
<event>
 4    1 -0.4996155E-019  0.1496314E+02  0.7818608E-02  0.1869195E+00
          2   -1    0    0  501    0  0.00000000000E+00  0.00000000000E+00  0.11952379146E+03  0.11952379148E+03  0.25500000000E-02 0. -1.
         -2   -1    0    0    0  501 -0.00000000000E+00 -0.00000000000E+00 -0.46830391221E+00  0.46831085476E+00  0.25500000000E-02 0.  1.
         31    1    1    2    0    0 -0.58034467538E+00 -0.33280743358E+00  0.57445990041E+02  0.57930546852E+02  0.74470750000E+01 0. -1.
        -31    1    1    2    0    0  0.58034467538E+00  0.33280743358E+00  0.61609497502E+02  0.62061555485E+02  0.74470750000E+01 0. -1.
<mgrwt>
<rscale>  0 0.14963138E+02</rscale>
<asrwt>0</asrwt>
<pdfrwt beam="1">  1        2 0.99217866E+00 0.14963138E+02</pdfrwt>
<pdfrwt beam="2">  1       -2 0.99462618E+00 0.14963138E+02</pdfrwt>
<totfact>-0.14969021E-13</totfact>
</mgrwt>
</event>
<event>
 4    1 -0.4996155E-019  0.1495030E+02  0.7818608E-02  0.1869589E+00
         -2   -1    0    0    0  501 -0.00000000000E+00  0.00000000000E+00  0.11950092678E+03  0.11950092681E+03  0.25500000000E-02 0.  1.
          2   -1    0    0  501    0  0.00000000000E+00 -0.00000000000E+00 -0.46759029536E+00  0.46759724851E+00  0.25500000000E-02 0. -1.
         31    1    1    2    0    0 -0.45594839285E+00  0.44666079017E+00  0.58653466539E+02  0.59127789218E+02  0.74470750000E+01 0. -1.
        -31    1    1    2    0    0  0.45594839285E+00 -0.44666079017E+00  0.60379869949E+02  0.60840734840E+02  0.74470750000E+01 0. -1.
<mgrwt>
<rscale>  0 0.14950303E+02</rscale>
<asrwt>0</asrwt>
<pdfrwt beam="2">  1        2 0.99311572E+00 0.14950303E+02</pdfrwt>
<pdfrwt beam="1">  1       -2 0.99198369E+00 0.14950303E+02</pdfrwt>
<totfact>-0.91665652E-14</totfact>
</mgrwt>
</event>
<event>
 4    1 -0.4996155E-019  0.1490969E+02  0.7818608E-02  0.1870837E+00
         -2   -1    0    0    0  501 -0.00000000000E+00  0.00000000000E+00  0.11975611882E+03  0.11975611885E+03  0.25500000000E-02 0.  1.
          2   -1    0    0  501    0  0.00000000000E+00 -0.00000000000E+00 -0.46406217152E+00  0.46406917753E+00  0.25500000000E-02 0. -1.
         31    1    1    2    0    0  0.69818068847E-01  0.80361406705E-01  0.57040112243E+02  0.57524296286E+02  0.74470750000E+01 0. -1.
        -31    1    1    2    0    0 -0.69818068847E-01 -0.80361406705E-01  0.62251944410E+02  0.62695891742E+02  0.74470750000E+01 0.  1.
<mgrwt>
<rscale>  0 0.14909689E+02</rscale>
<asrwt>0</asrwt>
<pdfrwt beam="2">  1        2 0.98565956E+00 0.14909689E+02</pdfrwt>
<pdfrwt beam="1">  1       -2 0.99406463E+00 0.14909689E+02</pdfrwt>
<totfact>-0.30708121E-13</totfact>
</mgrwt>
</event>
<event>
 4    1  0.4996155E-019  0.1491751E+02  0.7818608E-02  0.1870596E+00
          2   -1    0    0  501    0  0.00000000000E+00  0.00000000000E+00  0.11973864712E+03  0.11973864715E+03  0.25500000000E-02 0. -1.
         -2   -1    0    0    0  501 -0.00000000000E+00 -0.00000000000E+00 -0.46461700579E+00  0.46462400344E+00  0.25500000000E-02 0.  1.
         31    1    1    2    0    0  0.27388188791E+00 -0.21351419241E-01  0.57106272654E+02  0.57590457279E+02  0.74470750000E+01 0.  1.
        -31    1    1    2    0    0 -0.27388188791E+00  0.21351419241E-01  0.62167757462E+02  0.62612813873E+02  0.74470750000E+01 0. -1.
<mgrwt>
<rscale>  0 0.14917511E+02</rscale>
<asrwt>0</asrwt>
<pdfrwt beam="1">  1        2 0.99392475E+00 0.14917511E+02</pdfrwt>
<pdfrwt beam="2">  1       -2 0.98683289E+00 0.14917511E+02</pdfrwt>
<totfact> 0.28983840E-13</totfact>
</mgrwt>
</event>
<event>
 4    1  0.4996155E-019  0.1491216E+02  0.7818608E-02  0.1870761E+00
          2   -1    0    0  501    0  0.00000000000E+00  0.00000000000E+00  0.12007233136E+03  0.12007233139E+03  0.25500000000E-02 0.  1.
         -2   -1    0    0    0  501 -0.00000000000E+00 -0.00000000000E+00 -0.46299373566E+00  0.46300075784E+00  0.25500000000E-02 0. -1.
         31    1    1    2    0    0 -0.11370905580E+00 -0.31065680600E+00  0.61077549082E+02  0.61530767631E+02  0.74470750000E+01 0.  1.
        -31    1    1    2    0    0  0.11370905580E+00  0.31065680600E+00  0.58531788545E+02  0.59004564516E+02  0.74470750000E+01 0. -1.
<mgrwt>
<rscale>  0 0.14912164E+02</rscale>
<asrwt>0</asrwt>
<pdfrwt beam="1">  1        2 0.99667046E+00 0.14912164E+02</pdfrwt>
<pdfrwt beam="2">  1       -2 0.98340897E+00 0.14912164E+02</pdfrwt>
<totfact> 0.57436970E-13</totfact>
</mgrwt>
</event>
<event>
 4    1  0.4996155E-019  0.1493533E+02  0.7818608E-02  0.1870048E+00
          2   -1    0    0  501    0  0.00000000000E+00  0.00000000000E+00  0.11998040725E+03  0.11998040728E+03  0.25500000000E-02 0.  1.
         -2   -1    0    0    0  501 -0.00000000000E+00 -0.00000000000E+00 -0.46478915833E+00  0.46479615338E+00  0.25500000000E-02 0. -1.
         31    1    1    2    0    0  0.15787268820E-01 -0.41746030199E+00  0.62694054900E+02  0.63136185886E+02  0.74470750000E+01 0.  1.
        -31    1    1    2    0    0 -0.15787268820E-01  0.41746030199E+00  0.56821563193E+02  0.57309017546E+02  0.74470750000E+01 0. -1.
<mgrwt>
<rscale>  0 0.14935329E+02</rscale>
<asrwt>0</asrwt>
<pdfrwt beam="1">  1        2 0.99592521E+00 0.14935329E+02</pdfrwt>
<pdfrwt beam="2">  1       -2 0.98720481E+00 0.14935329E+02</pdfrwt>
<totfact> 0.20132706E-13</totfact>
</mgrwt>
</event>
<event>
 4    1 -0.4996155E-019  0.1497245E+02  0.7818608E-02  0.1868910E+00
          2   -1    0    0  501    0  0.00000000000E+00  0.00000000000E+00  0.11967969645E+03  0.11967969648E+03  0.25500000000E-02 0.  1.
         -2   -1    0    0    0  501 -0.00000000000E+00 -0.00000000000E+00 -0.46827614281E+00  0.46828308577E+00  0.25500000000E-02 0. -1.
         31    1    1    2    0    0  0.32608570991E+00  0.18701601696E+00  0.64948749106E+02  0.65375379489E+02  0.74470750000E+01 0.  1.
        -31    1    1    2    0    0 -0.32608570991E+00 -0.18701601696E+00  0.54262671201E+02  0.54772600073E+02  0.74470750000E+01 0. -1.
<mgrwt>
<rscale>  0 0.14972450E+02</rscale>
<asrwt>0</asrwt>
<pdfrwt beam="1">  1        2 0.99346756E+00 0.14972450E+02</pdfrwt>
<pdfrwt beam="2">  1       -2 0.99457249E+00 0.14972450E+02</pdfrwt>
<totfact>-0.13628426E-13</totfact>
</mgrwt>
</event>
<event>
 4    1  0.4996155E-019  0.1492193E+02  0.7818608E-02  0.1870460E+00
         -2   -1    0    0    0  501 -0.00000000000E+00  0.00000000000E+00  0.11861462463E+03  0.11861462466E+03  0.25500000000E-02 0.  1.
          2   -1    0    0  501    0  0.00000000000E+00 -0.00000000000E+00 -0.46929750628E+00  0.46930443413E+00  0.25500000000E-02 0. -1.
         31    1    1    2    0    0  0.14440997565E+00  0.40186599904E+00  0.57818813091E+02  0.58297996739E+02  0.74470750000E+01 0. -1.
        -31    1    1    2    0    0 -0.14440997565E+00 -0.40186599904E+00  0.60326514035E+02  0.60785932354E+02  0.74470750000E+01 0.  1.
<mgrwt>
<rscale>  0 0.14921925E+02</rscale>
<asrwt>0</asrwt>
<pdfrwt beam="2">  1        2 0.99669830E+00 0.14921925E+02</pdfrwt>
<pdfrwt beam="1">  1       -2 0.98466924E+00 0.14921925E+02</pdfrwt>
<totfact> 0.41771025E-13</totfact>
</mgrwt>
</event>
<event>
 4    1 -0.4996155E-019  0.1492576E+02  0.7818608E-02  0.1870342E+00
         -2   -1    0    0    0  501 -0.00000000000E+00  0.00000000000E+00  0.12030053413E+03  0.12030053416E+03  0.25500000000E-02 0. -1.
          2   -1    0    0  501    0  0.00000000000E+00 -0.00000000000E+00 -0.46295842259E+00  0.46296544531E+00  0.25500000000E-02 0.  1.
         31    1    1    2    0    0 -0.31445284997E+00  0.36131742848E+00  0.60556601672E+02  0.61014673341E+02  0.74470750000E+01 0. -1.
        -31    1    1    2    0    0  0.31445284997E+00 -0.36131742848E+00  0.59280974035E+02  0.59748826261E+02  0.74470750000E+01 0. -1.
<mgrwt>
<rscale>  0 0.14925759E+02</rscale>
<asrwt>0</asrwt>
<pdfrwt beam="2">  1        2 0.98334142E+00 0.14925759E+02</pdfrwt>
<pdfrwt beam="1">  1       -2 0.99855711E+00 0.14925759E+02</pdfrwt>
<totfact>-0.20641860E-13</totfact>
</mgrwt>
</event>
<event>
 4    1 -0.4996155E-019  0.1490619E+02  0.7818608E-02  0.1870945E+00
         -2   -1    0    0    0  501 -0.00000000000E+00  0.00000000000E+00  0.12024637424E+03  0.12024637426E+03  0.25500000000E-02 0. -1.
          2   -1    0    0  501    0  0.00000000000E+00 -0.00000000000E+00 -0.46195322206E+00  0.46196026005E+00  0.25500000000E-02 0.  1.
         31    1    1    2    0    0  0.24015630398E+00 -0.16127184307E+00  0.60520341374E+02  0.60977490353E+02  0.74470750000E+01 0. -1.
        -31    1    1    2    0    0 -0.24015630398E+00  0.16127184307E+00  0.59264079640E+02  0.59730844170E+02  0.74470750000E+01 0.  1.
<mgrwt>
<rscale>  0 0.14906190E+02</rscale>
<asrwt>0</asrwt>
<pdfrwt beam="2">  1        2 0.98121284E+00 0.14906190E+02</pdfrwt>
<pdfrwt beam="1">  1       -2 0.99810097E+00 0.14906190E+02</pdfrwt>
<totfact>-0.37299681E-13</totfact>
</mgrwt>
</event>
<event>
 4    1  0.4996155E-019  0.1492316E+02  0.7818608E-02  0.1870422E+00
         -2   -1    0    0    0  501 -0.00000000000E+00  0.00000000000E+00  0.11857323476E+03  0.11857323478E+03  0.25500000000E-02 0.  1.
          2   -1    0    0  501    0  0.00000000000E+00 -0.00000000000E+00 -0.46953884953E+00  0.46954577383E+00  0.25500000000E-02 0. -1.
         31    1    1    2    0    0 -0.37381559687E+00  0.17314161560E+00  0.60772226754E+02  0.61228197644E+02  0.74470750000E+01 0.  1.
        -31    1    1    2    0    0  0.37381559687E+00 -0.17314161560E+00  0.57331469153E+02  0.57814582913E+02  0.74470750000E+01 0. -1.
<mgrwt>
<rscale>  0 0.14923157E+02</rscale>
<asrwt>0</asrwt>
<pdfrwt beam="2">  1        2 0.99720747E+00 0.14923157E+02</pdfrwt>
<pdfrwt beam="1">  1       -2 0.98432900E+00 0.14923157E+02</pdfrwt>
<totfact> 0.40831906E-13</totfact>
</mgrwt>
</event>
<event>
 4    1 -0.4996155E-019  0.1497773E+02  0.7818608E-02  0.1868749E+00
          2   -1    0    0  501    0  0.00000000000E+00  0.00000000000E+00  0.11975941960E+03  0.11975941962E+03  0.25500000000E-02 0. -1.
         -2   -1    0    0    0  501 -0.00000000000E+00 -0.00000000000E+00 -0.46829449274E+00  0.46830143543E+00  0.25500000000E-02 0.  1.
         31    1    1    2    0    0 -0.31002637348E+00 -0.72525644351E+00  0.60009564525E+02  0.60475026861E+02  0.74470750000E+01 0. -1.
        -31    1    1    2    0    0  0.31002637348E+00  0.72525644351E+00  0.59281560578E+02  0.59752694198E+02  0.74470750000E+01 0.  1.
<mgrwt>
<rscale>  0 0.14977730E+02</rscale>
<asrwt>0</asrwt>
<pdfrwt beam="1">  1        2 0.99412692E+00 0.14977730E+02</pdfrwt>
<pdfrwt beam="2">  1       -2 0.99461389E+00 0.14977730E+02</pdfrwt>
<totfact>-0.12949279E-13</totfact>
</mgrwt>
</event>
<event>
 4    1 -0.4996155E-019  0.1493708E+02  0.7818608E-02  0.1869995E+00
         -2   -1    0    0    0  501 -0.00000000000E+00  0.00000000000E+00  0.11951391869E+03  0.11951391872E+03  0.25500000000E-02 0. -1.
          2   -1    0    0  501    0  0.00000000000E+00 -0.00000000000E+00 -0.46671251875E+00  0.46671948498E+00  0.25500000000E-02 0.  1.
         31    1    1    2    0    0  0.49292675024E+00 -0.24148119481E+00  0.60626284345E+02  0.61084421660E+02  0.74470750000E+01 0. -1.
        -31    1    1    2    0    0 -0.49292675024E+00  0.24148119481E+00  0.58420921825E+02  0.58896216542E+02  0.74470750000E+01 0.  1.
<mgrwt>
<rscale>  0 0.14937076E+02</rscale>
<asrwt>0</asrwt>
<pdfrwt beam="2">  1        2 0.99125911E+00 0.14937076E+02</pdfrwt>
<pdfrwt beam="1">  1       -2 0.99208386E+00 0.14937076E+02</pdfrwt>
<totfact>-0.10916388E-13</totfact>
</mgrwt>
</event>
<event>
 4    1 -0.4996155E-019  0.1499105E+02  0.7818608E-02  0.1868342E+00
          2   -1    0    0  501    0  0.00000000000E+00  0.00000000000E+00  0.11982591742E+03  0.11982591744E+03  0.25500000000E-02 0. -1.
         -2   -1    0    0    0  501 -0.00000000000E+00 -0.00000000000E+00 -0.46886772809E+00  0.46887466230E+00  0.25500000000E-02 0.  1.
         31    1    1    2    0    0  0.24238832527E+00  0.65700776017E+00  0.55800246172E+02  0.56299349999E+02  0.74470750000E+01 0.  1.
        -31    1    1    2    0    0 -0.24238832527E+00 -0.65700776017E+00  0.63556803516E+02  0.63995442107E+02  0.74470750000E+01 0. -1.
<mgrwt>
<rscale>  0 0.14991054E+02</rscale>
<asrwt>0</asrwt>
<pdfrwt beam="1">  1        2 0.99468151E+00 0.14991054E+02</pdfrwt>
<pdfrwt beam="2">  1       -2 0.99582878E+00 0.14991054E+02</pdfrwt>
<totfact>-0.11750641E-13</totfact>
</mgrwt>
</event>
<event>
 4    1 -0.4996155E-019  0.1494260E+02  0.7818608E-02  0.1869825E+00
          2   -1    0    0  501    0  0.00000000000E+00  0.00000000000E+00  0.11932989885E+03  0.11932989888E+03  0.25500000000E-02 0. -1.
         -2   -1    0    0    0  501 -0.00000000000E+00 -0.00000000000E+00 -0.46777804565E+00  0.46778499601E+00  0.25500000000E-02 0.  1.
         31    1    1    2    0    0  0.42798551866E+00 -0.30351039528E+00  0.61783646463E+02  0.62233055416E+02  0.74470750000E+01 0. -1.
        -31    1    1    2    0    0 -0.42798551866E+00  0.30351039528E+00  0.57078474345E+02  0.57564628460E+02  0.74470750000E+01 0. -1.
<mgrwt>
<rscale>  0 0.14942600E+02</rscale>
<asrwt>0</asrwt>
<pdfrwt beam="1">  1        2 0.99057107E+00 0.14942600E+02</pdfrwt>
<pdfrwt beam="2">  1       -2 0.99350737E+00 0.14942600E+02</pdfrwt>
<totfact>-0.15858844E-13</totfact>
</mgrwt>
</event>
<event>
 4    1  0.4996155E-019  0.1491226E+02  0.7818608E-02  0.1870758E+00
         -2   -1    0    0    0  501 -0.00000000000E+00  0.00000000000E+00  0.11843624643E+03  0.11843624646E+03  0.25500000000E-02 0. -1.
          2   -1    0    0  501    0  0.00000000000E+00 -0.00000000000E+00 -0.46939567204E+00  0.46940259845E+00  0.25500000000E-02 0.  1.
         31    1    1    2    0    0 -0.24563995251E+00  0.27225281131E+00  0.58807230568E+02  0.59278020832E+02  0.74470750000E+01 0.  1.
        -31    1    1    2    0    0  0.24563995251E+00 -0.27225281131E+00  0.59159620192E+02  0.59627628227E+02  0.74470750000E+01 0. -1.
<mgrwt>
<rscale>  0 0.14912260E+02</rscale>
<asrwt>0</asrwt>
<pdfrwt beam="2">  1        2 0.99690004E+00 0.14912260E+02</pdfrwt>
<pdfrwt beam="1">  1       -2 0.98319510E+00 0.14912260E+02</pdfrwt>
<totfact> 0.57545609E-13</totfact>
</mgrwt>
</event>
<event>
 4    1 -0.4996155E-019  0.1492577E+02  0.7818608E-02  0.1870342E+00
         -2   -1    0    0    0  501 -0.00000000000E+00  0.00000000000E+00  0.12028298692E+03  0.12028298695E+03  0.25500000000E-02 0.  1.
          2   -1    0    0  501    0  0.00000000000E+00 -0.00000000000E+00 -0.46302682869E+00  0.46303385037E+00  0.25500000000E-02 0. -1.
         31    1    1    2    0    0 -0.28093521348E+00 -0.35945382613E+00  0.61254387064E+02  0.61707106497E+02  0.74470750000E+01 0.  1.
        -31    1    1    2    0    0  0.28093521348E+00  0.35945382613E+00  0.58565573032E+02  0.59038914305E+02  0.74470750000E+01 0.  1.
<mgrwt>
<rscale>  0 0.14925773E+02</rscale>
<asrwt>0</asrwt>
<pdfrwt beam="2">  1        2 0.98348561E+00 0.14925773E+02</pdfrwt>
<pdfrwt beam="1">  1       -2 0.99841258E+00 0.14925773E+02</pdfrwt>
<totfact>-0.21878378E-13</totfact>
</mgrwt>
</event>
<event>
 4    1  0.4996155E-019  0.1489856E+02  0.7818608E-02  0.1871180E+00
          2   -1    0    0  501    0  0.00000000000E+00  0.00000000000E+00  0.11919077301E+03  0.11919077304E+03  0.25500000000E-02 0.  1.
         -2   -1    0    0    0  501 -0.00000000000E+00 -0.00000000000E+00 -0.46556760966E+00  0.46557459302E+00  0.25500000000E-02 0. -1.
         31    1    1    2    0    0 -0.71247656769E-01 -0.31649878912E-01  0.60676877911E+02  0.61132221594E+02  0.74470750000E+01 0.  1.
        -31    1    1    2    0    0  0.71247656769E-01  0.31649878912E-01  0.58048327492E+02  0.58524126039E+02  0.74470750000E+01 0. -1.
<mgrwt>
<rscale>  0 0.14898561E+02</rscale>
<asrwt>0</asrwt>
<pdfrwt beam="1">  1        2 0.98940240E+00 0.14898561E+02</pdfrwt>
<pdfrwt beam="2">  1       -2 0.98882649E+00 0.14898561E+02</pdfrwt>
<totfact> 0.13516415E-13</totfact>
</mgrwt>
</event>
<event>
 4    1  0.4996155E-019  0.1491701E+02  0.7818608E-02  0.1870612E+00
          2   -1    0    0  501    0  0.00000000000E+00  0.00000000000E+00  0.12008327054E+03  0.12008327057E+03  0.25500000000E-02 0.  1.
         -2   -1    0    0    0  501 -0.00000000000E+00 -0.00000000000E+00 -0.46325251940E+00  0.46325953766E+00  0.25500000000E-02 0. -1.
         31    1    1    2    0    0 -0.74115470759E-01  0.21469214657E+00  0.62595254976E+02  0.63037103815E+02  0.74470750000E+01 0.  1.
        -31    1    1    2    0    0  0.74115470759E-01 -0.21469214657E+00  0.57024763043E+02  0.57509426289E+02  0.74470750000E+01 0. -1.
<mgrwt>
<rscale>  0 0.14917011E+02</rscale>
<asrwt>0</asrwt>
<pdfrwt beam="1">  1        2 0.99676305E+00 0.14917011E+02</pdfrwt>
<pdfrwt beam="2">  1       -2 0.98395686E+00 0.14917011E+02</pdfrwt>
<totfact> 0.49520672E-13</totfact>
</mgrwt>
</event>
<event>
 4    1  0.4996155E-019  0.1489764E+02  0.7818608E-02  0.1871208E+00
         -2   -1    0    0    0  501 -0.00000000000E+00  0.00000000000E+00  0.11870064207E+03  0.11870064210E+03  0.25500000000E-02 0. -1.
          2   -1    0    0  501    0  0.00000000000E+00 -0.00000000000E+00 -0.46743213521E+00  0.46743909071E+00  0.25500000000E-02 0.  1.
         31    1    1    2    0    0 -0.50300983446E-01  0.14091708231E+00  0.59596337509E+02  0.60060009644E+02  0.74470750000E+01 0. -1.
        -31    1    1    2    0    0  0.50300983446E-01 -0.14091708231E+00  0.58636872429E+02  0.59108071548E+02  0.74470750000E+01 0. -1.
<mgrwt>
<rscale>  0 0.14897639E+02</rscale>
<asrwt>0</asrwt>
<pdfrwt beam="2">  1        2 0.99275504E+00 0.14897639E+02</pdfrwt>
<pdfrwt beam="1">  1       -2 0.98536507E+00 0.14897639E+02</pdfrwt>
<totfact> 0.52395135E-13</totfact>
</mgrwt>
</event>
<event>
 4    1 -0.4996155E-019  0.1492502E+02  0.7818608E-02  0.1870365E+00
         -2   -1    0    0    0  501 -0.00000000000E+00  0.00000000000E+00  0.12036359087E+03  0.12036359089E+03  0.25500000000E-02 0.  1.
          2   -1    0    0  501    0  0.00000000000E+00 -0.00000000000E+00 -0.46266997591E+00  0.46267700301E+00  0.25500000000E-02 0. -1.
         31    1    1    2    0    0 -0.29458151401E+00  0.30462590930E-01  0.63005537298E+02  0.63444813519E+02  0.74470750000E+01 0.  1.
        -31    1    1    2    0    0  0.29458151401E+00 -0.30462590930E-01  0.56895383592E+02  0.57381454377E+02  0.74470750000E+01 0. -1.
<mgrwt>
<rscale>  0 0.14925019E+02</rscale>
<asrwt>0</asrwt>
<pdfrwt beam="2">  1        2 0.98273308E+00 0.14925019E+02</pdfrwt>
<pdfrwt beam="1">  1       -2 0.99907612E+00 0.14925019E+02</pdfrwt>
<totfact>-0.15308752E-13</totfact>
</mgrwt>
</event>
<event>
 4    1 -0.4996155E-019  0.1496143E+02  0.7818608E-02  0.1869248E+00
         -2   -1    0    0    0  501 -0.00000000000E+00  0.00000000000E+00  0.11944913666E+03  0.11944913668E+03  0.25500000000E-02 0. -1.
          2   -1    0    0  501    0  0.00000000000E+00 -0.00000000000E+00 -0.46848963748E+00  0.46849657728E+00  0.25500000000E-02 0.  1.
         31    1    1    2    0    0  0.68243967806E+00  0.11686276430E+00  0.60700409636E+02  0.61159447650E+02  0.74470750000E+01 0. -1.
        -31    1    1    2    0    0 -0.68243967806E+00 -0.11686276430E+00  0.58280237384E+02  0.58758185612E+02  0.74470750000E+01 0.  1.
<mgrwt>
<rscale>  0 0.14961430E+02</rscale>
<asrwt>0</asrwt>
<pdfrwt beam="2">  1        2 0.99501667E+00 0.14961430E+02</pdfrwt>
<pdfrwt beam="1">  1       -2 0.99156289E+00 0.14961430E+02</pdfrwt>
<totfact>-0.64044911E-14</totfact>
</mgrwt>
</event>
<event>
 4    1 -0.4996155E-019  0.1498604E+02  0.7818608E-02  0.1868495E+00
          2   -1    0    0  501    0  0.00000000000E+00  0.00000000000E+00  0.11964050880E+03  0.11964050883E+03  0.25500000000E-02 0.  1.
         -2   -1    0    0    0  501 -0.00000000000E+00 -0.00000000000E+00 -0.46928018806E+00  0.46928711618E+00  0.25500000000E-02 0. -1.
         31    1    1    2    0    0  0.23299727106E+00 -0.50792630593E+00  0.64487982202E+02  0.64918957566E+02  0.74470750000E+01 0.  1.
        -31    1    1    2    0    0 -0.23299727106E+00  0.50792630593E+00  0.54683246414E+02  0.55190838382E+02  0.74470750000E+01 0. -1.
<mgrwt>
<rscale>  0 0.14986039E+02</rscale>
<asrwt>0</asrwt>
<pdfrwt beam="1">  1        2 0.99315183E+00 0.14986039E+02</pdfrwt>
<pdfrwt beam="2">  1       -2 0.99669535E+00 0.14986039E+02</pdfrwt>
<totfact>-0.11851242E-13</totfact>
</mgrwt>
</event>
<event>
 4    1 -0.4996155E-019  0.1499836E+02  0.7818608E-02  0.1868118E+00
         -2   -1    0    0    0  501 -0.00000000000E+00  0.00000000000E+00  0.12007817107E+03  0.12007817110E+03  0.25500000000E-02 0.  1.
          2   -1    0    0  501    0  0.00000000000E+00 -0.00000000000E+00 -0.46833901758E+00  0.46834595962E+00  0.25500000000E-02 0. -1.
         31    1    1    2    0    0  0.79124989188E+00 -0.38164627728E+00  0.60480069138E+02  0.60943165484E+02  0.74470750000E+01 0.  1.
        -31    1    1    2    0    0 -0.79124989188E+00  0.38164627728E+00  0.59129762913E+02  0.59603351571E+02  0.74470750000E+01 0. -1.
<mgrwt>
<rscale>  0 0.14998362E+02</rscale>
<asrwt>0</asrwt>
<pdfrwt beam="2">  1        2 0.99471837E+00 0.14998362E+02</pdfrwt>
<pdfrwt beam="1">  1       -2 0.99676295E+00 0.14998362E+02</pdfrwt>
<totfact>-0.10307167E-13</totfact>
</mgrwt>
</event>
<event>
 4    1 -0.4996155E-019  0.1491315E+02  0.7818608E-02  0.1870730E+00
         -2   -1    0    0    0  501 -0.00000000000E+00  0.00000000000E+00  0.12012060961E+03  0.12012060964E+03  0.25500000000E-02 0.  1.
          2   -1    0    0  501    0  0.00000000000E+00 -0.00000000000E+00 -0.46286875117E+00  0.46287577525E+00  0.25500000000E-02 0. -1.
         31    1    1    2    0    0  0.57820104193E-01 -0.36446352653E+00  0.59234759850E+02  0.59702193238E+02  0.74470750000E+01 0. -1.
        -31    1    1    2    0    0 -0.57820104193E-01  0.36446352653E+00  0.60422981011E+02  0.60881292177E+02  0.74470750000E+01 0. -1.
<mgrwt>
<rscale>  0 0.14913149E+02</rscale>
<asrwt>0</asrwt>
<pdfrwt beam="2">  1        2 0.98314604E+00 0.14913149E+02</pdfrwt>
<pdfrwt beam="1">  1       -2 0.99706863E+00 0.14913149E+02</pdfrwt>
<totfact>-0.37270215E-13</totfact>
</mgrwt>
</event>
<event>
 4    1 -0.4996155E-019  0.1490850E+02  0.7818608E-02  0.1870873E+00
          2   -1    0    0  501    0  0.00000000000E+00  0.00000000000E+00  0.11845793303E+03  0.11845793306E+03  0.25500000000E-02 0. -1.
         -2   -1    0    0    0  501 -0.00000000000E+00 -0.00000000000E+00 -0.46907336554E+00  0.46908029671E+00  0.25500000000E-02 0.  1.
         31    1    1    2    0    0  0.43224438969E-01  0.30944569148E+00  0.59764710557E+02  0.60227711055E+02  0.74470750000E+01 0.  1.
        -31    1    1    2    0    0 -0.43224438969E-01 -0.30944569148E+00  0.58224149111E+02  0.58699302302E+02  0.74470750000E+01 0.  1.
<mgrwt>
<rscale>  0 0.14908504E+02</rscale>
<asrwt>0</asrwt>
<pdfrwt beam="1">  1        2 0.98337176E+00 0.14908504E+02</pdfrwt>
<pdfrwt beam="2">  1       -2 0.99621896E+00 0.14908504E+02</pdfrwt>
<totfact>-0.41594333E-13</totfact>
</mgrwt>
</event>
<event>
 4    1 -0.4996155E-019  0.1495930E+02  0.7818608E-02  0.1869313E+00
         -2   -1    0    0    0  501 -0.00000000000E+00  0.00000000000E+00  0.11993000053E+03  0.11993000056E+03  0.25500000000E-02 0. -1.
          2   -1    0    0  501    0  0.00000000000E+00 -0.00000000000E+00 -0.46647825101E+00  0.46648522074E+00  0.25500000000E-02 0.  1.
         31    1    1    2    0    0  0.37457329672E+00  0.40662491048E+00  0.63151878957E+02  0.63591857897E+02  0.74470750000E+01 0. -1.
        -31    1    1    2    0    0 -0.37457329672E+00 -0.40662491048E+00  0.56311643323E+02  0.56804627881E+02  0.74470750000E+01 0.  1.
<mgrwt>
<rscale>  0 0.14959299E+02</rscale>
<asrwt>0</asrwt>
<pdfrwt beam="2">  1        2 0.99077685E+00 0.14959299E+02</pdfrwt>
<pdfrwt beam="1">  1       -2 0.99552238E+00 0.14959299E+02</pdfrwt>
<totfact>-0.16282348E-13</totfact>
</mgrwt>
</event>
<event>
 4    1 -0.4996155E-019  0.1492062E+02  0.7818608E-02  0.1870500E+00
         -2   -1    0    0    0  501 -0.00000000000E+00  0.00000000000E+00  0.12040301257E+03  0.12040301260E+03  0.25500000000E-02 0. -1.
          2   -1    0    0  501    0  0.00000000000E+00 -0.00000000000E+00 -0.46224598365E+00  0.46225301719E+00  0.25500000000E-02 0.  1.
         31    1    1    2    0    0  0.43967070254E+00 -0.10923781110E-01  0.60474961058E+02  0.60933351054E+02  0.74470750000E+01 0. -1.
        -31    1    1    2    0    0 -0.43967070254E+00  0.10923781110E-01  0.59465805532E+02  0.59931914564E+02  0.74470750000E+01 0.  1.
<mgrwt>
<rscale>  0 0.14920621E+02</rscale>
<asrwt>0</asrwt>
<pdfrwt beam="2">  1        2 0.98183718E+00 0.14920621E+02</pdfrwt>
<pdfrwt beam="1">  1       -2 0.99939858E+00 0.14920621E+02</pdfrwt>
<totfact>-0.11895245E-13</totfact>
</mgrwt>
</event>
<event>
 4    1  0.4996155E-019  0.1489956E+02  0.7818608E-02  0.1871149E+00
          2   -1    0    0  501    0  0.00000000000E+00  0.00000000000E+00  0.11987529534E+03  0.11987529537E+03  0.25500000000E-02 0.  1.
         -2   -1    0    0    0  501 -0.00000000000E+00 -0.00000000000E+00 -0.46297100759E+00  0.46297803012E+00  0.25500000000E-02 0. -1.
         31    1    1    2    0    0  0.14386833877E-01 -0.19851588680E+00  0.59915040611E+02  0.60376407917E+02  0.74470750000E+01 0.  1.
        -31    1    1    2    0    0 -0.14386833877E-01  0.19851588680E+00  0.59497283722E+02  0.59961865480E+02  0.74470750000E+01 0. -1.
<mgrwt>
<rscale>  0 0.14899558E+02</rscale>
<asrwt>0</asrwt>
<pdfrwt beam="1">  1        2 0.99504104E+00 0.14899558E+02</pdfrwt>
<pdfrwt beam="2">  1       -2 0.98335467E+00 0.14899558E+02</pdfrwt>
<totfact> 0.73237924E-13</totfact>
</mgrwt>
</event>
<event>
 4    1  0.4996155E-019  0.1493022E+02  0.7818608E-02  0.1870205E+00
         -2   -1    0    0    0  501 -0.00000000000E+00  0.00000000000E+00  0.11906005098E+03  0.11906005100E+03  0.25500000000E-02 0.  1.
          2   -1    0    0  501    0  0.00000000000E+00 -0.00000000000E+00 -0.46806152216E+00  0.46806846831E+00  0.25500000000E-02 0. -1.
         31    1    1    2    0    0  0.34559628720E+00  0.38137035716E+00  0.58787186097E+02  0.59259236034E+02  0.74470750000E+01 0.  1.
        -31    1    1    2    0    0 -0.34559628720E+00 -0.38137035716E+00  0.59804803358E+02  0.60268883438E+02  0.74470750000E+01 0. -1.
<mgrwt>
<rscale>  0 0.14930217E+02</rscale>
<asrwt>0</asrwt>
<pdfrwt beam="2">  1        2 0.99409828E+00 0.14930217E+02</pdfrwt>
<pdfrwt beam="1">  1       -2 0.98834212E+00 0.14930217E+02</pdfrwt>
<totfact> 0.13317462E-13</totfact>
</mgrwt>
</event>
<event>
 4    1 -0.4996155E-019  0.1497858E+02  0.7818608E-02  0.1868723E+00
          2   -1    0    0  501    0  0.00000000000E+00  0.00000000000E+00  0.11989727376E+03  0.11989727379E+03  0.25500000000E-02 0. -1.
         -2   -1    0    0    0  501 -0.00000000000E+00 -0.00000000000E+00 -0.46780918940E+00  0.46781613929E+00  0.25500000000E-02 0.  1.
         31    1    1    2    0    0 -0.66016811388E+00  0.23659706516E+00  0.62707899789E+02  0.63152445892E+02  0.74470750000E+01 0. -1.
        -31    1    1    2    0    0  0.66016811388E+00 -0.23659706516E+00  0.56721564786E+02  0.57212644039E+02  0.74470750000E+01 0.  1.
<mgrwt>
<rscale>  0 0.14978580E+02</rscale>
<asrwt>0</asrwt>
<pdfrwt beam="1">  1        2 0.99526278E+00 0.14978580E+02</pdfrwt>
<pdfrwt beam="2">  1       -2 0.99359162E+00 0.14978580E+02</pdfrwt>
<totfact>-0.10951140E-13</totfact>
</mgrwt>
</event>
<event>
 4    1  0.4996155E-019  0.1491178E+02  0.7818608E-02  0.1870773E+00
          2   -1    0    0  501    0  0.00000000000E+00  0.00000000000E+00  0.12009100631E+03  0.12009100634E+03  0.25500000000E-02 0. -1.
         -2   -1    0    0    0  501 -0.00000000000E+00 -0.00000000000E+00 -0.46289775050E+00  0.46290477413E+00  0.25500000000E-02 0.  1.
         31    1    1    2    0    0 -0.76376883586E-01 -0.34924122148E+00  0.59332178952E+02  0.59798780825E+02  0.74470750000E+01 0.  1.
        -31    1    1    2    0    0  0.76376883586E-01  0.34924122148E+00  0.60295929611E+02  0.60755130290E+02  0.74470750000E+01 0. -1.
<mgrwt>
<rscale>  0 0.14911778E+02</rscale>
<asrwt>0</asrwt>
<pdfrwt beam="1">  1        2 0.99682408E+00 0.14911778E+02</pdfrwt>
<pdfrwt beam="2">  1       -2 0.98320647E+00 0.14911778E+02</pdfrwt>
<totfact> 0.58324402E-13</totfact>
</mgrwt>
</event>
<event>
 4    1 -0.4996155E-019  0.1497857E+02  0.7818608E-02  0.1868723E+00
         -2   -1    0    0    0  501 -0.00000000000E+00  0.00000000000E+00  0.12014838679E+03  0.12014838682E+03  0.25500000000E-02 0.  1.
          2   -1    0    0  501    0  0.00000000000E+00 -0.00000000000E+00 -0.46683079635E+00  0.46683776081E+00  0.25500000000E-02 0. -1.
         31    1    1    2    0    0 -0.25229487369E+00  0.25403194522E+00  0.54133832220E+02  0.54644843323E+02  0.74470750000E+01 0. -1.
        -31    1    1    2    0    0  0.25229487369E+00 -0.25403194522E+00  0.65547723774E+02  0.65970381255E+02  0.74470750000E+01 0.  1.
<mgrwt>
<rscale>  0 0.14978570E+02</rscale>
<asrwt>0</asrwt>
<pdfrwt beam="2">  1        2 0.99152972E+00 0.14978570E+02</pdfrwt>
<pdfrwt beam="1">  1       -2 0.99733107E+00 0.14978570E+02</pdfrwt>
<totfact>-0.11602208E-13</totfact>
</mgrwt>
</event>
<event>
 4    1 -0.4996155E-019  0.1490522E+02  0.7818608E-02  0.1870974E+00
          2   -1    0    0  501    0  0.00000000000E+00  0.00000000000E+00  0.11877651508E+03  0.11877651511E+03  0.25500000000E-02 0. -1.
         -2   -1    0    0    0  501 -0.00000000000E+00 -0.00000000000E+00 -0.46760931216E+00  0.46761626503E+00  0.25500000000E-02 0.  1.
         31    1    1    2    0    0  0.25545430373E-01  0.16319657686E+00  0.57274689167E+02  0.57757044860E+02  0.74470750000E+01 0.  1.
        -31    1    1    2    0    0 -0.25545430373E-01 -0.16319657686E+00  0.61034216605E+02  0.61487086517E+02  0.74470750000E+01 0. -1.
<mgrwt>
<rscale>  0 0.14905223E+02</rscale>
<asrwt>0</asrwt>
<pdfrwt beam="1">  1        2 0.98599391E+00 0.14905223E+02</pdfrwt>
<pdfrwt beam="2">  1       -2 0.99313235E+00 0.14905223E+02</pdfrwt>
<totfact>-0.26344954E-13</totfact>
</mgrwt>
</event>
<event>
 4    1 -0.4996155E-019  0.1491354E+02  0.7818608E-02  0.1870718E+00
          2   -1    0    0  501    0  0.00000000000E+00  0.00000000000E+00  0.11877517237E+03  0.11877517240E+03  0.25500000000E-02 0. -1.
         -2   -1    0    0    0  501 -0.00000000000E+00 -0.00000000000E+00 -0.46813634196E+00  0.46814328700E+00  0.25500000000E-02 0.  1.
         31    1    1    2    0    0 -0.68190707093E-01 -0.37292923126E+00  0.58936280865E+02  0.59406126405E+02  0.74470750000E+01 0. -1.
        -31    1    1    2    0    0  0.68190707093E-01  0.37292923126E+00  0.59370755167E+02  0.59837189284E+02  0.74470750000E+01 0. -1.
<mgrwt>
<rscale>  0 0.14913536E+02</rscale>
<asrwt>0</asrwt>
<pdfrwt beam="1">  1        2 0.98598716E+00 0.14913536E+02</pdfrwt>
<pdfrwt beam="2">  1       -2 0.99424722E+00 0.14913536E+02</pdfrwt>
<totfact>-0.29458977E-13</totfact>
</mgrwt>
</event>
<event>
 4    1  0.4996155E-019  0.1489982E+02  0.7818608E-02  0.1871141E+00
          2   -1    0    0  501    0  0.00000000000E+00  0.00000000000E+00  0.11981499153E+03  0.11981499155E+03  0.25500000000E-02 0. -1.
         -2   -1    0    0    0  501 -0.00000000000E+00 -0.00000000000E+00 -0.46322029339E+00  0.46322731213E+00  0.25500000000E-02 0.  1.
         31    1    1    2    0    0 -0.18232075539E+00  0.35726356461E-01  0.58966795647E+02  0.59435481256E+02  0.74470750000E+01 0.  1.
        -31    1    1    2    0    0  0.18232075539E+00 -0.35726356461E-01  0.60384975586E+02  0.60842737609E+02  0.74470750000E+01 0. -1.
<mgrwt>
<rscale>  0 0.14899820E+02</rscale>
<asrwt>0</asrwt>
<pdfrwt beam="1">  1        2 0.99454447E+00 0.14899820E+02</pdfrwt>
<pdfrwt beam="2">  1       -2 0.98388021E+00 0.14899820E+02</pdfrwt>
<totfact> 0.67917380E-13</totfact>
</mgrwt>
</event>
<event>
 4    1 -0.4996155E-019  0.1493664E+02  0.7818608E-02  0.1870008E+00
         -2   -1    0    0    0  501 -0.00000000000E+00  0.00000000000E+00  0.12008561382E+03  0.12008561385E+03  0.25500000000E-02 0. -1.
          2   -1    0    0  501    0  0.00000000000E+00 -0.00000000000E+00 -0.46446318720E+00  0.46447018717E+00  0.25500000000E-02 0.  1.
         31    1    1    2    0    0 -0.28321914304E+00  0.13443782144E+00  0.63583671774E+02  0.64019063793E+02  0.74470750000E+01 0. -1.
        -31    1    1    2    0    0  0.28321914304E+00 -0.13443782144E+00  0.56037478858E+02  0.56531020240E+02  0.74470750000E+01 0.  1.
<mgrwt>
<rscale>  0 0.14936636E+02</rscale>
<asrwt>0</asrwt>
<pdfrwt beam="2">  1        2 0.98651846E+00 0.14936636E+02</pdfrwt>
<pdfrwt beam="1">  1       -2 0.99679244E+00 0.14936636E+02</pdfrwt>
<totfact>-0.22892588E-13</totfact>
</mgrwt>
</event>
<event>
 4    1 -0.4996155E-019  0.1491439E+02  0.7818608E-02  0.1870692E+00
          2   -1    0    0  501    0  0.00000000000E+00  0.00000000000E+00  0.11839285487E+03  0.11839285490E+03  0.25500000000E-02 0. -1.
         -2   -1    0    0    0  501 -0.00000000000E+00 -0.00000000000E+00 -0.46970198699E+00  0.46970890888E+00  0.25500000000E-02 0.  1.
         31    1    1    2    0    0  0.31150167006E+00 -0.13974003134E+00  0.60437266671E+02  0.60895309255E+02  0.74470750000E+01 0. -1.
        -31    1    1    2    0    0 -0.31150167006E+00  0.13974003134E+00  0.57485886216E+02  0.57967254555E+02  0.74470750000E+01 0.  1.
<mgrwt>
<rscale>  0 0.14914392E+02</rscale>
<asrwt>0</asrwt>
<pdfrwt beam="1">  1        2 0.98283884E+00 0.14914392E+02</pdfrwt>
<pdfrwt beam="2">  1       -2 0.99754657E+00 0.14914392E+02</pdfrwt>
<totfact>-0.34639490E-13</totfact>
</mgrwt>
</event>
<event>
 4    1  0.4996155E-019  0.1491952E+02  0.7818608E-02  0.1870534E+00
         -2   -1    0    0    0  501 -0.00000000000E+00  0.00000000000E+00  0.11878221810E+03  0.11878221813E+03  0.25500000000E-02 0.  1.
          2   -1    0    0  501    0  0.00000000000E+00 -0.00000000000E+00 -0.46848420744E+00  0.46849114732E+00  0.25500000000E-02 0. -1.
         31    1    1    2    0    0 -0.24746384254E+00  0.34697717110E+00  0.59846817900E+02  0.60309884516E+02  0.74470750000E+01 0.  1.
        -31    1    1    2    0    0  0.24746384254E+00 -0.34697717110E+00  0.58466915993E+02  0.58940824759E+02  0.74470750000E+01 0. -1.
<mgrwt>
<rscale>  0 0.14919519E+02</rscale>
<asrwt>0</asrwt>
<pdfrwt beam="2">  1        2 0.99498335E+00 0.14919519E+02</pdfrwt>
<pdfrwt beam="1">  1       -2 0.98604830E+00 0.14919519E+02</pdfrwt>
<totfact> 0.35149528E-13</totfact>
</mgrwt>
</event>
<event>
 4    1 -0.4996155E-019  0.1494932E+02  0.7818608E-02  0.1869619E+00
         -2   -1    0    0    0  501 -0.00000000000E+00  0.00000000000E+00  0.12014460404E+03  0.12014460407E+03  0.25500000000E-02 0.  1.
          2   -1    0    0  501    0  0.00000000000E+00 -0.00000000000E+00 -0.46502383047E+00  0.46503082200E+00  0.25500000000E-02 0. -1.
         31    1    1    2    0    0 -0.12513463427E+00  0.25231202940E+00  0.55189142095E+02  0.55690031885E+02  0.74470750000E+01 0. -1.
        -31    1    1    2    0    0  0.12513463427E+00 -0.25231202940E+00  0.64490438116E+02  0.64919603006E+02  0.74470750000E+01 0.  1.
<mgrwt>
<rscale>  0 0.14949318E+02</rscale>
<asrwt>0</asrwt>
<pdfrwt beam="2">  1        2 0.98770653E+00 0.14949318E+02</pdfrwt>
<pdfrwt beam="1">  1       -2 0.99728485E+00 0.14949318E+02</pdfrwt>
<totfact>-0.17365423E-13</totfact>
</mgrwt>
</event>
<event>
 4    1 -0.4996155E-019  0.1492429E+02  0.7818608E-02  0.1870388E+00
          2   -1    0    0  501    0  0.00000000000E+00  0.00000000000E+00  0.11879565753E+03  0.11879565756E+03  0.25500000000E-02 0.  1.
         -2   -1    0    0    0  501 -0.00000000000E+00 -0.00000000000E+00 -0.46873095932E+00  0.46873789556E+00  0.25500000000E-02 0. -1.
         31    1    1    2    0    0  0.12362234621E+00 -0.44838133490E+00  0.58432646042E+02  0.58907125018E+02  0.74470750000E+01 0. -1.
        -31    1    1    2    0    0 -0.12362234621E+00  0.44838133490E+00  0.59894280526E+02  0.60357270433E+02  0.74470750000E+01 0. -1.
<mgrwt>
<rscale>  0 0.14924291E+02</rscale>
<asrwt>0</asrwt>
<pdfrwt beam="1">  1        2 0.98616147E+00 0.14924291E+02</pdfrwt>
<pdfrwt beam="2">  1       -2 0.99550579E+00 0.14924291E+02</pdfrwt>
<totfact>-0.28297815E-13</totfact>
</mgrwt>
</event>
<event>
 4    1  0.4996155E-019  0.1491218E+02  0.7818608E-02  0.1870760E+00
         -2   -1    0    0    0  501 -0.00000000000E+00  0.00000000000E+00  0.11907407611E+03  0.11907407613E+03  0.25500000000E-02 0.  1.
          2   -1    0    0  501    0  0.00000000000E+00 -0.00000000000E+00 -0.46687616155E+00  0.46688312534E+00  0.25500000000E-02 0. -1.
         31    1    1    2    0    0 -0.55578847060E-01  0.35504495752E+00  0.58725897315E+02  0.59197289528E+02  0.74470750000E+01 0. -1.
        -31    1    1    2    0    0  0.55578847060E-01 -0.35504495752E+00  0.59881302630E+02  0.60343669731E+02  0.74470750000E+01 0.  1.
<mgrwt>
<rscale>  0 0.14912178E+02</rscale>
<asrwt>0</asrwt>
<pdfrwt beam="2">  1        2 0.99159107E+00 0.14912178E+02</pdfrwt>
<pdfrwt beam="1">  1       -2 0.98844829E+00 0.14912178E+02</pdfrwt>
<totfact> 0.14921316E-13</totfact>
</mgrwt>
</event>
<event>
 4    1 -0.4996155E-019  0.1492699E+02  0.7818608E-02  0.1870305E+00
          2   -1    0    0  501    0  0.00000000000E+00  0.00000000000E+00  0.11893745231E+03  0.11893745234E+03  0.25500000000E-02 0.  1.
         -2   -1    0    0    0  501 -0.00000000000E+00 -0.00000000000E+00 -0.46834154877E+00  0.46834849077E+00  0.25500000000E-02 0. -1.
         31    1    1    2    0    0  0.24716633129E+00 -0.96950122894E-01  0.62574692465E+02  0.63016835478E+02  0.74470750000E+01 0.  1.
        -31    1    1    2    0    0 -0.24716633129E+00  0.96950122894E-01  0.55894418297E+02  0.56388965351E+02  0.74470750000E+01 0. -1.
<mgrwt>
<rscale>  0 0.14926991E+02</rscale>
<asrwt>0</asrwt>
<pdfrwt beam="1">  1        2 0.98733071E+00 0.14926991E+02</pdfrwt>
<pdfrwt beam="2">  1       -2 0.99468666E+00 0.14926991E+02</pdfrwt>
<totfact>-0.24456372E-13</totfact>
</mgrwt>
</event>
<event>
 4    1  0.4996155E-019  0.1493578E+02  0.7818608E-02  0.1870035E+00
          2   -1    0    0  501    0  0.00000000000E+00  0.00000000000E+00  0.12023937794E+03  0.12023937797E+03  0.25500000000E-02 0. -1.
         -2   -1    0    0    0  501 -0.00000000000E+00 -0.00000000000E+00 -0.46381612884E+00  0.46382313857E+00  0.25500000000E-02 0.  1.
         31    1    1    2    0    0 -0.14120727867E+00 -0.90280163297E-01  0.55593393377E+02  0.56090216645E+02  0.74470750000E+01 0.  1.
        -31    1    1    2    0    0  0.14120727867E+00  0.90280163297E-01  0.64182168434E+02  0.64612984461E+02  0.74470750000E+01 0. -1.
<mgrwt>
<rscale>  0 0.14935781E+02</rscale>
<asrwt>0</asrwt>
<pdfrwt beam="1">  1        2 0.99805852E+00 0.14935781E+02</pdfrwt>
<pdfrwt beam="2">  1       -2 0.98515427E+00 0.14935781E+02</pdfrwt>
<totfact> 0.24893550E-13</totfact>
</mgrwt>
</event>
<event>
 4    1 -0.4996155E-019  0.1499441E+02  0.7818608E-02  0.1868239E+00
          2   -1    0    0  501    0  0.00000000000E+00  0.00000000000E+00  0.11975875996E+03  0.11975875999E+03  0.25500000000E-02 0.  1.
         -2   -1    0    0    0  501 -0.00000000000E+00 -0.00000000000E+00 -0.46934086460E+00  0.46934779182E+00  0.25500000000E-02 0. -1.
         31    1    1    2    0    0 -0.86988461437E-01  0.73726633350E+00  0.56076448216E+02  0.56573651988E+02  0.74470750000E+01 0. -1.
        -31    1    1    2    0    0  0.86988461437E-01 -0.73726633350E+00  0.63212970882E+02  0.63654455794E+02  0.74470750000E+01 0. -1.
<mgrwt>
<rscale>  0 0.14994412E+02</rscale>
<asrwt>0</asrwt>
<pdfrwt beam="1">  1        2 0.99413011E+00 0.14994412E+02</pdfrwt>
<pdfrwt beam="2">  1       -2 0.99682756E+00 0.14994412E+02</pdfrwt>
<totfact>-0.10726186E-13</totfact>
</mgrwt>
</event>
<event>
 4    1 -0.4996155E-019  0.1501538E+02  0.7818608E-02  0.1867600E+00
         -2   -1    0    0    0  501 -0.00000000000E+00  0.00000000000E+00  0.12030292002E+03  0.12030292005E+03  0.25500000000E-02 0. -1.
          2   -1    0    0  501    0  0.00000000000E+00 -0.00000000000E+00 -0.46852555580E+00  0.46853249507E+00  0.25500000000E-02 0.  1.
         31    1    1    2    0    0  0.27941714565E-01 -0.80256747944E+00  0.55803427372E+02  0.56303874892E+02  0.74470750000E+01 0.  1.
        -31    1    1    2    0    0 -0.27941714565E-01  0.80256747944E+00  0.64030967095E+02  0.64467577653E+02  0.74470750000E+01 0. -1.
<mgrwt>
<rscale>  0 0.15015381E+02</rscale>
<asrwt>0</asrwt>
<pdfrwt beam="2">  1        2 0.99512025E+00 0.15015381E+02</pdfrwt>
<pdfrwt beam="1">  1       -2 0.99862287E+00 0.15015381E+02</pdfrwt>
<totfact>-0.51095110E-14</totfact>
</mgrwt>
</event>
<event>
 4    1 -0.4996155E-019  0.1494222E+02  0.7818608E-02  0.1869837E+00
         -2   -1    0    0    0  501 -0.00000000000E+00  0.00000000000E+00  0.11971207088E+03  0.11971207090E+03  0.25500000000E-02 0. -1.
          2   -1    0    0  501    0  0.00000000000E+00 -0.00000000000E+00 -0.46626102452E+00  0.46626799749E+00  0.25500000000E-02 0.  1.
         31    1    1    2    0    0 -0.38313408909E+00  0.34647988991E+00  0.57186999333E+02  0.57672165373E+02  0.74470750000E+01 0.  1.
        -31    1    1    2    0    0  0.38313408909E+00 -0.34647988991E+00  0.62058810520E+02  0.62506173530E+02  0.74470750000E+01 0. -1.
<mgrwt>
<rscale>  0 0.14942221E+02</rscale>
<asrwt>0</asrwt>
<pdfrwt beam="2">  1        2 0.99031029E+00 0.14942221E+02</pdfrwt>
<pdfrwt beam="1">  1       -2 0.99371859E+00 0.14942221E+02</pdfrwt>
<totfact>-0.16598199E-13</totfact>
</mgrwt>
</event>
<event>
 4    1 -0.4996155E-019  0.1497219E+02  0.7818608E-02  0.1868918E+00
         -2   -1    0    0    0  501 -0.00000000000E+00  0.00000000000E+00  0.12002085819E+03  0.12002085822E+03  0.25500000000E-02 0.  1.
          2   -1    0    0  501    0  0.00000000000E+00 -0.00000000000E+00 -0.46692881524E+00  0.46693577824E+00  0.25500000000E-02 0. -1.
         31    1    1    2    0    0 -0.76013581816E+00  0.62035706017E-01  0.60036147538E+02  0.60501071000E+02  0.74470750000E+01 0. -1.
        -31    1    1    2    0    0  0.76013581816E+00 -0.62035706017E-01  0.59517781836E+02  0.59986722994E+02  0.74470750000E+01 0. -1.
<mgrwt>
<rscale>  0 0.14972190E+02</rscale>
<asrwt>0</asrwt>
<pdfrwt beam="2">  1        2 0.99173302E+00 0.14972190E+02</pdfrwt>
<pdfrwt beam="1">  1       -2 0.99627738E+00 0.14972190E+02</pdfrwt>
<totfact>-0.14013389E-13</totfact>
</mgrwt>
</event>
<event>
 4    1 -0.4996155E-019  0.1499419E+02  0.7818608E-02  0.1868246E+00
         -2   -1    0    0    0  501 -0.00000000000E+00  0.00000000000E+00  0.11961961526E+03  0.11961961528E+03  0.25500000000E-02 0.  1.
          2   -1    0    0  501    0  0.00000000000E+00 -0.00000000000E+00 -0.46987286621E+00  0.46987978558E+00  0.25500000000E-02 0. -1.
         31    1    1    2    0    0 -0.79967442683E+00 -0.99096463971E-01  0.62084704644E+02  0.62534940442E+02  0.74470750000E+01 0.  1.
        -31    1    1    2    0    0  0.79967442683E+00  0.99096463971E-01  0.57065037745E+02  0.57554554626E+02  0.74470750000E+01 0. -1.
<mgrwt>
<rscale>  0 0.14994189E+02</rscale>
<asrwt>0</asrwt>
<pdfrwt beam="2">  1        2 0.99794850E+00 0.14994189E+02</pdfrwt>
<pdfrwt beam="1">  1       -2 0.99298397E+00 0.14994189E+02</pdfrwt>
<totfact>-0.57787988E-14</totfact>
</mgrwt>
</event>
<event>
 4    1  0.4996155E-019  0.1490187E+02  0.7818608E-02  0.1871078E+00
         -2   -1    0    0    0  501 -0.00000000000E+00  0.00000000000E+00  0.11868616992E+03  0.11868616995E+03  0.25500000000E-02 0. -1.
          2   -1    0    0  501    0  0.00000000000E+00 -0.00000000000E+00 -0.46775453874E+00  0.46776148945E+00  0.25500000000E-02 0.  1.
         31    1    1    2    0    0 -0.76730306781E-01  0.18485939073E+00  0.60164661559E+02  0.60624132877E+02  0.74470750000E+01 0.  1.
        -31    1    1    2    0    0  0.76730306781E-01 -0.18485939073E+00  0.58053753822E+02  0.58529798560E+02  0.74470750000E+01 0. -1.
<mgrwt>
<rscale>  0 0.14901867E+02</rscale>
<asrwt>0</asrwt>
<pdfrwt beam="2">  1        2 0.99343661E+00 0.14901867E+02</pdfrwt>
<pdfrwt beam="1">  1       -2 0.98524807E+00 0.14901867E+02</pdfrwt>
<totfact> 0.51623365E-13</totfact>
</mgrwt>
</event>
<event>
 4    1 -0.4996155E-019  0.1500191E+02  0.7818608E-02  0.1868010E+00
          2   -1    0    0  501    0  0.00000000000E+00  0.00000000000E+00  0.12024790820E+03  0.12024790823E+03  0.25500000000E-02 0. -1.
         -2   -1    0    0    0  501 -0.00000000000E+00 -0.00000000000E+00 -0.46789897758E+00  0.46790592614E+00  0.25500000000E-02 0.  1.
         31    1    1    2    0    0  0.56457085243E+00 -0.55002135978E+00  0.63342634128E+02  0.63783771353E+02  0.74470750000E+01 0. -1.
        -31    1    1    2    0    0 -0.56457085243E+00  0.55002135978E+00  0.56437375095E+02  0.56932042800E+02  0.74470750000E+01 0.  1.
<mgrwt>
<rscale>  0 0.15001906E+02</rscale>
<asrwt>0</asrwt>
<pdfrwt beam="1">  1        2 0.99816281E+00 0.15001906E+02</pdfrwt>
<pdfrwt beam="2">  1       -2 0.99379285E+00 0.15001906E+02</pdfrwt>
<totfact>-0.58998513E-14</totfact>
</mgrwt>
</event>
<event>
 4    1  0.4996155E-019  0.1492850E+02  0.7818608E-02  0.1870258E+00
          2   -1    0    0  501    0  0.00000000000E+00  0.00000000000E+00  0.12034696729E+03  0.12034696731E+03  0.25500000000E-02 0. -1.
         -2   -1    0    0    0  501 -0.00000000000E+00 -0.00000000000E+00 -0.46294979461E+00  0.46295681745E+00  0.25500000000E-02 0.  1.
         31    1    1    2    0    0 -0.38093256306E+00  0.28718438621E+00  0.61308649141E+02  0.61761128309E+02  0.74470750000E+01 0. -1.
        -31    1    1    2    0    0  0.38093256306E+00 -0.28718438621E+00  0.58575368350E+02  0.59048795821E+02  0.74470750000E+01 0.  1.
<mgrwt>
<rscale>  0 0.14928500E+02</rscale>
<asrwt>0</asrwt>
<pdfrwt beam="1">  1        2 0.99894098E+00 0.14928500E+02</pdfrwt>
<pdfrwt beam="2">  1       -2 0.98332462E+00 0.14928500E+02</pdfrwt>
<totfact> 0.23905451E-13</totfact>
</mgrwt>
</event>
<event>
 4    1 -0.4996155E-019  0.1493661E+02  0.7818608E-02  0.1870009E+00
          2   -1    0    0  501    0  0.00000000000E+00  0.00000000000E+00  0.11852787147E+03  0.11852787150E+03  0.25500000000E-02 0.  1.
         -2   -1    0    0    0  501 -0.00000000000E+00 -0.00000000000E+00 -0.47056561845E+00  0.47057252764E+00  0.25500000000E-02 0. -1.
         31    1    1    2    0    0  0.32523307007E+00  0.11319806312E+00  0.62574034752E+02  0.63016564026E+02  0.74470750000E+01 0.  1.
        -31    1    1    2    0    0 -0.32523307007E+00 -0.11319806312E+00  0.55483271102E+02  0.55981880002E+02  0.74470750000E+01 0.  1.
<mgrwt>
<rscale>  0 0.14936607E+02</rscale>
<asrwt>0</asrwt>
<pdfrwt beam="1">  1        2 0.98396239E+00 0.14936607E+02</pdfrwt>
<pdfrwt beam="2">  1       -2 0.99937796E+00 0.14936607E+02</pdfrwt>
<totfact>-0.85835957E-14</totfact>
</mgrwt>
</event>
<event>
 4    1 -0.4996155E-019  0.1498467E+02  0.7818608E-02  0.1868537E+00
          2   -1    0    0  501    0  0.00000000000E+00  0.00000000000E+00  0.11977005032E+03  0.11977005035E+03  0.25500000000E-02 0.  1.
         -2   -1    0    0    0  501 -0.00000000000E+00 -0.00000000000E+00 -0.46868716890E+00  0.46869410578E+00  0.25500000000E-02 0. -1.
         31    1    1    2    0    0 -0.35180974540E+00 -0.87575689965E-01  0.65572994264E+02  0.65995514562E+02  0.74470750000E+01 0.  1.
        -31    1    1    2    0    0  0.35180974540E+00  0.87575689965E-01  0.53728368889E+02  0.54243229892E+02  0.74470750000E+01 0. -1.
<mgrwt>
<rscale>  0 0.14984673E+02</rscale>
<asrwt>0</asrwt>
<pdfrwt beam="1">  1        2 0.99421807E+00 0.14984673E+02</pdfrwt>
<pdfrwt beam="2">  1       -2 0.99544498E+00 0.14984673E+02</pdfrwt>
<totfact>-0.12602224E-13</totfact>
</mgrwt>
</event>
<event>
 4    1 -0.4996155E-019  0.1493838E+02  0.7818608E-02  0.1869955E+00
          2   -1    0    0  501    0  0.00000000000E+00  0.00000000000E+00  0.11912087490E+03  0.11912087492E+03  0.25500000000E-02 0. -1.
         -2   -1    0    0    0  501 -0.00000000000E+00 -0.00000000000E+00 -0.46833414107E+00  0.46834108318E+00  0.25500000000E-02 0.  1.
         31    1    1    2    0    0  0.47965457350E+00  0.31124524750E+00  0.59758952119E+02  0.60223900791E+02  0.74470750000E+01 0.  1.
        -31    1    1    2    0    0 -0.47965457350E+00 -0.31124524750E+00  0.58893588637E+02  0.59365315216E+02  0.74470750000E+01 0.  1.
<mgrwt>
<rscale>  0 0.14938379E+02</rscale>
<asrwt>0</asrwt>
<pdfrwt beam="1">  1        2 0.98884731E+00 0.14938379E+02</pdfrwt>
<pdfrwt beam="2">  1       -2 0.99467700E+00 0.14938379E+02</pdfrwt>
<totfact>-0.20194487E-13</totfact>
</mgrwt>
</event>
<event>
 4    1 -0.4996155E-019  0.1494316E+02  0.7818608E-02  0.1869808E+00
          2   -1    0    0  501    0  0.00000000000E+00  0.00000000000E+00  0.11930206524E+03  0.11930206527E+03  0.25500000000E-02 0. -1.
         -2   -1    0    0    0  501 -0.00000000000E+00 -0.00000000000E+00 -0.46792235511E+00  0.46792930333E+00  0.25500000000E-02 0.  1.
         31    1    1    2    0    0 -0.37192337559E+00  0.83531548960E-02  0.55596678730E+02  0.56094456131E+02  0.74470750000E+01 0.  1.
        -31    1    1    2    0    0  0.37192337559E+00 -0.83531548960E-02  0.63237464157E+02  0.63675538441E+02  0.74470750000E+01 0. -1.
<mgrwt>
<rscale>  0 0.14943162E+02</rscale>
<asrwt>0</asrwt>
<pdfrwt beam="1">  1        2 0.99034211E+00 0.14943162E+02</pdfrwt>
<pdfrwt beam="2">  1       -2 0.99381176E+00 0.14943162E+02</pdfrwt>
<totfact>-0.16689186E-13</totfact>
</mgrwt>
</event>
<event>
 4    1 -0.4996155E-019  0.1492756E+02  0.7818608E-02  0.1870287E+00
         -2   -1    0    0    0  501 -0.00000000000E+00  0.00000000000E+00  0.12016705151E+03  0.12016705154E+03  0.25500000000E-02 0. -1.
          2   -1    0    0  501    0  0.00000000000E+00 -0.00000000000E+00 -0.46358476054E+00  0.46359177377E+00  0.25500000000E-02 0.  1.
         31    1    1    2    0    0 -0.56513557015E-01 -0.11444172928E+00  0.55952489190E+02  0.56446047366E+02  0.74470750000E+01 0.  1.
        -31    1    1    2    0    0  0.56513557015E-01  0.11444172928E+00  0.63750977561E+02  0.64184595946E+02  0.74470750000E+01 0. -1.
<mgrwt>
<rscale>  0 0.14927564E+02</rscale>
<asrwt>0</asrwt>
<pdfrwt beam="2">  1        2 0.98466246E+00 0.14927564E+02</pdfrwt>
<pdfrwt beam="1">  1       -2 0.99745856E+00 0.14927564E+02</pdfrwt>
<totfact>-0.26200550E-13</totfact>
</mgrwt>
</event>
<event>
 4    1 -0.4996155E-019  0.1493670E+02  0.7818608E-02  0.1870006E+00
         -2   -1    0    0    0  501 -0.00000000000E+00  0.00000000000E+00  0.12029099592E+03  0.12029099595E+03  0.25500000000E-02 0. -1.
          2   -1    0    0  501    0  0.00000000000E+00 -0.00000000000E+00 -0.46367386690E+00  0.46368087878E+00  0.25500000000E-02 0.  1.
         31    1    1    2    0    0 -0.49316692619E+00 -0.24668776657E+00  0.58984067590E+02  0.59454883938E+02  0.74470750000E+01 0.  1.
        -31    1    1    2    0    0  0.49316692619E+00  0.24668776657E+00  0.60843254467E+02  0.61299792893E+02  0.74470750000E+01 0. -1.
<mgrwt>
<rscale>  0 0.14936695E+02</rscale>
<asrwt>0</asrwt>
<pdfrwt beam="2">  1        2 0.98485489E+00 0.14936695E+02</pdfrwt>
<pdfrwt beam="1">  1       -2 0.99848416E+00 0.14936695E+02</pdfrwt>
<totfact>-0.16751563E-13</totfact>
</mgrwt>
</event>
<event>
 4    1 -0.4996155E-019  0.1491890E+02  0.7818608E-02  0.1870553E+00
         -2   -1    0    0    0  501 -0.00000000000E+00  0.00000000000E+00  0.12014828500E+03  0.12014828502E+03  0.25500000000E-02 0.  1.
          2   -1    0    0  501    0  0.00000000000E+00 -0.00000000000E+00 -0.46311907943E+00  0.46312609971E+00  0.25500000000E-02 0. -1.
         31    1    1    2    0    0  0.38588031651E+00 -0.64621355063E-01  0.61274756661E+02  0.61726880769E+02  0.74470750000E+01 0. -1.
        -31    1    1    2    0    0 -0.38588031651E+00  0.64621355063E-01  0.58410409256E+02  0.58884530355E+02  0.74470750000E+01 0.  1.
<mgrwt>
<rscale>  0 0.14918899E+02</rscale>
<asrwt>0</asrwt>
<pdfrwt beam="2">  1        2 0.98367657E+00 0.14918899E+02</pdfrwt>
<pdfrwt beam="1">  1       -2 0.99729953E+00 0.14918899E+02</pdfrwt>
<totfact>-0.32230925E-13</totfact>
</mgrwt>
</event>
<event>
 4    1 -0.4996155E-019  0.1494161E+02  0.7818608E-02  0.1869855E+00
         -2   -1    0    0    0  501 -0.00000000000E+00  0.00000000000E+00  0.11932139684E+03  0.11932139687E+03  0.25500000000E-02 0.  1.
          2   -1    0    0  501    0  0.00000000000E+00 -0.00000000000E+00 -0.46774946378E+00  0.46775641457E+00  0.25500000000E-02 0. -1.
         31    1    1    2    0    0  0.20927927452E+00 -0.55658332568E+00  0.59260872719E+02  0.59729921684E+02  0.74470750000E+01 0.  1.
        -31    1    1    2    0    0 -0.20927927452E+00  0.55658332568E+00  0.59592774661E+02  0.60059231602E+02  0.74470750000E+01 0. -1.
<mgrwt>
<rscale>  0 0.14941611E+02</rscale>
<asrwt>0</asrwt>
<pdfrwt beam="2">  1        2 0.99344663E+00 0.14941611E+02</pdfrwt>
<pdfrwt beam="1">  1       -2 0.99050053E+00 0.14941611E+02</pdfrwt>
<totfact>-0.21051463E-14</totfact>
</mgrwt>
</event>
<event>
 4    1 -0.4996155E-019  0.1495198E+02  0.7818608E-02  0.1869538E+00
          2   -1    0    0  501    0  0.00000000000E+00  0.00000000000E+00  0.11957924180E+03  0.11957924183E+03  0.25500000000E-02 0.  1.
         -2   -1    0    0    0  501 -0.00000000000E+00 -0.00000000000E+00 -0.46738856962E+00  0.46739552577E+00  0.25500000000E-02 0. -1.
         31    1    1    2    0    0 -0.46857292591E+00  0.20600428057E+00  0.56250769341E+02  0.56743898137E+02  0.74470750000E+01 0. -1.
        -31    1    1    2    0    0  0.46857292591E+00 -0.20600428057E+00  0.62861083888E+02  0.63302739214E+02  0.74470750000E+01 0.  1.
<mgrwt>
<rscale>  0 0.14951975E+02</rscale>
<asrwt>0</asrwt>
<pdfrwt beam="1">  1        2 0.99262959E+00 0.14951975E+02</pdfrwt>
<pdfrwt beam="2">  1       -2 0.99269149E+00 0.14951975E+02</pdfrwt>
<totfact>-0.11778556E-13</totfact>
</mgrwt>
</event>
<event>
 4    1  0.4996155E-019  0.1492212E+02  0.7818608E-02  0.1870455E+00
          2   -1    0    0  501    0  0.00000000000E+00  0.00000000000E+00  0.12030501145E+03  0.12030501148E+03  0.25500000000E-02 0. -1.
         -2   -1    0    0    0  501 -0.00000000000E+00 -0.00000000000E+00 -0.46271517117E+00  0.46272219758E+00  0.25500000000E-02 0.  1.
         31    1    1    2    0    0 -0.17431677908E+00 -0.37162156119E+00  0.61539078809E+02  0.61989399381E+02  0.74470750000E+01 0. -1.
        -31    1    1    2    0    0  0.17431677908E+00  0.37162156119E+00  0.58303217474E+02  0.58778334298E+02  0.74470750000E+01 0. -1.
<mgrwt>
<rscale>  0 0.14922115E+02</rscale>
<asrwt>0</asrwt>
<pdfrwt beam="1">  1        2 0.99859212E+00 0.14922115E+02</pdfrwt>
<pdfrwt beam="2">  1       -2 0.98282687E+00 0.14922115E+02</pdfrwt>
<totfact> 0.34140436E-13</totfact>
</mgrwt>
</event>
<event>
 4    1  0.4996155E-019  0.1492666E+02  0.7818608E-02  0.1870315E+00
         -2   -1    0    0    0  501 -0.00000000000E+00  0.00000000000E+00  0.11855295861E+03  0.11855295864E+03  0.25500000000E-02 0. -1.
          2   -1    0    0  501    0  0.00000000000E+00 -0.00000000000E+00 -0.46983994735E+00  0.46984686721E+00  0.25500000000E-02 0.  1.
         31    1    1    2    0    0 -0.44093119981E+00 -0.21759666571E+00  0.58840690207E+02  0.59312119493E+02  0.74470750000E+01 0.  1.
        -31    1    1    2    0    0  0.44093119981E+00  0.21759666571E+00  0.59242428458E+02  0.59710686014E+02  0.74470750000E+01 0.  1.
<mgrwt>
<rscale>  0 0.14926665E+02</rscale>
<asrwt>0</asrwt>
<pdfrwt beam="2">  1        2 0.99784373E+00 0.14926665E+02</pdfrwt>
<pdfrwt beam="1">  1       -2 0.98416383E+00 0.14926665E+02</pdfrwt>
<totfact> 0.35262134E-13</totfact>
</mgrwt>
</event>
<event>
 4    1 -0.4996155E-019  0.1490847E+02  0.7818608E-02  0.1870874E+00
          2   -1    0    0  501    0  0.00000000000E+00  0.00000000000E+00  0.11803566438E+03  0.11803566441E+03  0.25500000000E-02 0. -1.
         -2   -1    0    0    0  501 -0.00000000000E+00 -0.00000000000E+00 -0.47074948163E+00  0.47075638812E+00  0.25500000000E-02 0.  1.
         31    1    1    2    0    0  0.26074585572E-01 -0.34859803934E-01  0.61355966549E+02  0.61806273567E+02  0.74470750000E+01 0. -1.
        -31    1    1    2    0    0 -0.26074585572E-01  0.34859803934E-01  0.56208948347E+02  0.56700147226E+02  0.74470750000E+01 0.  1.
<mgrwt>
<rscale>  0 0.14908473E+02</rscale>
<asrwt>0</asrwt>
<pdfrwt beam="1">  1        2 0.97989400E+00 0.14908473E+02</pdfrwt>
<pdfrwt beam="2">  1       -2 0.99975040E+00 0.14908473E+02</pdfrwt>
<totfact>-0.70042106E-14</totfact>
</mgrwt>
</event>
<event>
 4    1  0.4996155E-019  0.1492502E+02  0.7818608E-02  0.1870365E+00
          2   -1    0    0  501    0  0.00000000000E+00  0.00000000000E+00  0.11971352285E+03  0.11971352288E+03  0.25500000000E-02 0.  1.
         -2   -1    0    0    0  501 -0.00000000000E+00 -0.00000000000E+00 -0.46518261521E+00  0.46518960435E+00  0.25500000000E-02 0. -1.
         31    1    1    2    0    0  0.39686006115E+00  0.18924600820E+00  0.61169540025E+02  0.61622762555E+02  0.74470750000E+01 0. -1.
        -31    1    1    2    0    0 -0.39686006115E+00 -0.18924600820E+00  0.58078800215E+02  0.58555949932E+02  0.74470750000E+01 0. -1.
<mgrwt>
<rscale>  0 0.14925022E+02</rscale>
<asrwt>0</asrwt>
<pdfrwt beam="1">  1        2 0.99372168E+00 0.14925022E+02</pdfrwt>
<pdfrwt beam="2">  1       -2 0.98802876E+00 0.14925022E+02</pdfrwt>
<totfact> 0.16656216E-13</totfact>
</mgrwt>
</event>
<event>
 4    1 -0.4996155E-019  0.1496626E+02  0.7818608E-02  0.1869100E+00
          2   -1    0    0  501    0  0.00000000000E+00  0.00000000000E+00  0.11902829507E+03  0.11902829510E+03  0.25500000000E-02 0. -1.
         -2   -1    0    0    0  501 -0.00000000000E+00 -0.00000000000E+00 -0.47044957406E+00  0.47045648496E+00  0.25500000000E-02 0.  1.
         31    1    1    2    0    0 -0.10134952563E+00 -0.33365618889E+00  0.54124709188E+02  0.54635745341E+02  0.74470750000E+01 0.  1.
        -31    1    1    2    0    0  0.10134952563E+00  0.33365618889E+00  0.64433136309E+02  0.64863006243E+02  0.74470750000E+01 0. -1.
<mgrwt>
<rscale>  0 0.14966259E+02</rscale>
<asrwt>0</asrwt>
<pdfrwt beam="1">  1        2 0.98809929E+00 0.14966259E+02</pdfrwt>
<pdfrwt beam="2">  1       -2 0.99914909E+00 0.14966259E+02</pdfrwt>
<totfact>-0.61722732E-14</totfact>
</mgrwt>
</event>
<event>
 4    1 -0.4996155E-019  0.1490242E+02  0.7818608E-02  0.1871061E+00
          2   -1    0    0  501    0  0.00000000000E+00  0.00000000000E+00  0.11863022852E+03  0.11863022855E+03  0.25500000000E-02 0. -1.
         -2   -1    0    0    0  501 -0.00000000000E+00 -0.00000000000E+00 -0.46800992015E+00  0.46801686706E+00  0.25500000000E-02 0.  1.
         31    1    1    2    0    0 -0.24740718169E+00 -0.15065449162E-01  0.59187059681E+02  0.59654240395E+02  0.74470750000E+01 0.  1.
        -31    1    1    2    0    0  0.24740718169E+00  0.15065449162E-01  0.58975158920E+02  0.59444005021E+02  0.74470750000E+01 0.  1.
<mgrwt>
<rscale>  0 0.14902421E+02</rscale>
<asrwt>0</asrwt>
<pdfrwt beam="1">  1        2 0.98478762E+00 0.14902421E+02</pdfrwt>
<pdfrwt beam="2">  1       -2 0.99397502E+00 0.14902421E+02</pdfrwt>
<totfact>-0.35114042E-13</totfact>
</mgrwt>
</event>
<event>
 4    1 -0.4996155E-019  0.1497028E+02  0.7818608E-02  0.1868977E+00
         -2   -1    0    0    0  501 -0.00000000000E+00  0.00000000000E+00  0.11998002477E+03  0.11998002479E+03  0.25500000000E-02 0. -1.
          2   -1    0    0  501    0  0.00000000000E+00 -0.00000000000E+00 -0.46696860197E+00  0.46697556438E+00  0.25500000000E-02 0.  1.
         31    1    1    2    0    0 -0.32847589544E+00 -0.65527519623E+00  0.58337251388E+02  0.58815228534E+02  0.74470750000E+01 0.  1.
        -31    1    1    2    0    0  0.32847589544E+00  0.65527519623E+00  0.61175804777E+02  0.61631771824E+02  0.74470750000E+01 0.  1.
<mgrwt>
<rscale>  0 0.14970281E+02</rscale>
<asrwt>0</asrwt>
<pdfrwt beam="2">  1        2 0.99181588E+00 0.14970281E+02</pdfrwt>
<pdfrwt beam="1">  1       -2 0.99594007E+00 0.14970281E+02</pdfrwt>
<totfact>-0.14489449E-13</totfact>
</mgrwt>
</event>
