<event>
 4    1 -0.5109406E-019  0.1497956E+02  0.7818608E-02  0.1868693E+00
         -2   -1    0    0    0  501 -0.00000000000E+00  0.00000000000E+00  0.11959344442E+03  0.11959344444E+03  0.25500000000E-02 0.  1.
          2   -1    0    0  501    0  0.00000000000E+00 -0.00000000000E+00 -0.46905882311E+00  0.46906575449E+00  0.25500000000E-02 0. -1.
         31    1    1    2    0    0 -0.44586288239E+00 -0.46761796321E+00  0.55799436610E+02  0.56297899715E+02  0.74470750000E+01 0. -1.
        -31    1    1    2    0    0  0.44586288239E+00  0.46761796321E+00  0.63324948984E+02  0.63764610484E+02  0.74470750000E+01 0. -1.
<mgrwt>
<rscale>  0 0.14979556E+02</rscale>
<asrwt>0</asrwt>
<pdfrwt beam="2">  1        2 0.99622550E+00 0.14979556E+02</pdfrwt>
<pdfrwt beam="1">  1       -2 0.99276084E+00 0.14979556E+02</pdfrwt>
<totfact>-0.84331216E-14</totfact>
</mgrwt>
</event>
<event>
 4    1  0.5109406E-019  0.1490559E+02  0.7818608E-02  0.1870963E+00
          2   -1    0    0  501    0  0.00000000000E+00  0.00000000000E+00  0.12000793876E+03  0.12000793879E+03  0.25500000000E-02 0.  1.
         -2   -1    0    0    0  501 -0.00000000000E+00 -0.00000000000E+00 -0.46283401190E+00  0.46284103650E+00  0.25500000000E-02 0. -1.
         31    1    1    2    0    0 -0.13933046544E+00  0.25565030902E+00  0.59950435763E+02  0.60411906478E+02  0.74470750000E+01 0.  1.
        -31    1    1    2    0    0  0.13933046544E+00 -0.25565030902E+00  0.59594668984E+02  0.60058873345E+02  0.74470750000E+01 0. -1.
<mgrwt>
<rscale>  0 0.14905594E+02</rscale>
<asrwt>0</asrwt>
<pdfrwt beam="1">  1        2 0.99613670E+00 0.14905594E+02</pdfrwt>
<pdfrwt beam="2">  1       -2 0.98306900E+00 0.14905594E+02</pdfrwt>
<totfact> 0.67990010E-13</totfact>
</mgrwt>
</event>
<event>
 4    1  0.5109406E-019  0.1493275E+02  0.7818608E-02  0.1870128E+00
         -2   -1    0    0    0  501 -0.00000000000E+00  0.00000000000E+00  0.11870145626E+03  0.11870145629E+03  0.25500000000E-02 0.  1.
          2   -1    0    0  501    0  0.00000000000E+00 -0.00000000000E+00 -0.46963495320E+00  0.46964187608E+00  0.25500000000E-02 0. -1.
         31    1    1    2    0    0  0.33952786221E+00 -0.41414758598E+00  0.58858108499E+02  0.59329778859E+02  0.74470750000E+01 0.  1.
        -31    1    1    2    0    0 -0.33952786221E+00  0.41414758598E+00  0.59373712811E+02  0.59841319307E+02  0.74470750000E+01 0.  1.
<mgrwt>
<rscale>  0 0.14932752E+02</rscale>
<asrwt>0</asrwt>
<pdfrwt beam="2">  1        2 0.99741501E+00 0.14932752E+02</pdfrwt>
<pdfrwt beam="1">  1       -2 0.98539002E+00 0.14932752E+02</pdfrwt>
<totfact> 0.28801353E-13</totfact>
</mgrwt>
</event>
<event>
 4    1 -0.5109406E-019  0.1497186E+02  0.7818608E-02  0.1868928E+00
          2   -1    0    0  501    0  0.00000000000E+00  0.00000000000E+00  0.11994924150E+03  0.11994924152E+03  0.25500000000E-02 0. -1.
         -2   -1    0    0    0  501 -0.00000000000E+00 -0.00000000000E+00 -0.46718688298E+00  0.46719384214E+00  0.25500000000E-02 0.  1.
         31    1    1    2    0    0  0.75472270651E+00  0.55745664064E-01  0.60437228105E+02  0.60899016256E+02  0.74470750000E+01 0. -1.
        -31    1    1    2    0    0 -0.75472270651E+00 -0.55745664064E-01  0.59044826508E+02  0.59517419108E+02  0.74470750000E+01 0.  1.
<mgrwt>
<rscale>  0 0.14971858E+02</rscale>
<asrwt>0</asrwt>
<pdfrwt beam="1">  1        2 0.99568734E+00 0.14971858E+02</pdfrwt>
<pdfrwt beam="2">  1       -2 0.99227671E+00 0.14971858E+02</pdfrwt>
<totfact>-0.80179088E-14</totfact>
</mgrwt>
</event>
<event>
 4    1 -0.5109406E-019  0.1492980E+02  0.7818608E-02  0.1870218E+00
         -2   -1    0    0    0  501 -0.00000000000E+00  0.00000000000E+00  0.12021010590E+03  0.12021010593E+03  0.25500000000E-02 0.  1.
          2   -1    0    0  501    0  0.00000000000E+00 -0.00000000000E+00 -0.46355759661E+00  0.46356461025E+00  0.25500000000E-02 0. -1.
         31    1    1    2    0    0 -0.14330265370E+00 -0.46355304590E+00  0.58464244872E+02  0.58938631403E+02  0.74470750000E+01 0.  1.
        -31    1    1    2    0    0  0.14330265370E+00  0.46355304590E+00  0.61282303431E+02  0.61735039135E+02  0.74470750000E+01 0. -1.
<mgrwt>
<rscale>  0 0.14929800E+02</rscale>
<asrwt>0</asrwt>
<pdfrwt beam="2">  1        2 0.98460634E+00 0.14929800E+02</pdfrwt>
<pdfrwt beam="1">  1       -2 0.99781434E+00 0.14929800E+02</pdfrwt>
<totfact>-0.23600263E-13</totfact>
</mgrwt>
</event>
<event>
 4    1 -0.5109406E-019  0.1495231E+02  0.7818608E-02  0.1869527E+00
          2   -1    0    0  501    0  0.00000000000E+00  0.00000000000E+00  0.11938811858E+03  0.11938811861E+03  0.25500000000E-02 0. -1.
         -2   -1    0    0    0  501 -0.00000000000E+00 -0.00000000000E+00 -0.46815785008E+00  0.46816479480E+00  0.25500000000E-02 0.  1.
         31    1    1    2    0    0 -0.19373039707E+00 -0.49365490689E+00  0.62592856011E+02  0.63036543181E+02  0.74470750000E+01 0.  1.
        -31    1    1    2    0    0  0.19373039707E+00  0.49365490689E+00  0.56327104722E+02  0.56819740224E+02  0.74470750000E+01 0.  1.
<mgrwt>
<rscale>  0 0.14952311E+02</rscale>
<asrwt>0</asrwt>
<pdfrwt beam="1">  1        2 0.99105561E+00 0.14952311E+02</pdfrwt>
<pdfrwt beam="2">  1       -2 0.99431277E+00 0.14952311E+02</pdfrwt>
<totfact>-0.16184413E-13</totfact>
</mgrwt>
</event>
<event>
 4    1  0.5109406E-019  0.1494738E+02  0.7818608E-02  0.1869678E+00
          2   -1    0    0  501    0  0.00000000000E+00  0.00000000000E+00  0.12036422391E+03  0.12036422394E+03  0.25500000000E-02 0. -1.
         -2   -1    0    0    0  501 -0.00000000000E+00 -0.00000000000E+00 -0.46405519166E+00  0.46406219777E+00  0.25500000000E-02 0.  1.
         31    1    1    2    0    0  0.52687845363E+00  0.10106683315E+00  0.62622881687E+02  0.63066409857E+02  0.74470750000E+01 0.  1.
        -31    1    1    2    0    0 -0.52687845363E+00 -0.10106683315E+00  0.57277287036E+02  0.57761876282E+02  0.74470750000E+01 0.  1.
<mgrwt>
<rscale>  0 0.14947383E+02</rscale>
<asrwt>0</asrwt>
<pdfrwt beam="1">  1        2 0.99909281E+00 0.14947383E+02</pdfrwt>
<pdfrwt beam="2">  1       -2 0.98566401E+00 0.14947383E+02</pdfrwt>
<totfact> 0.11184820E-13</totfact>
</mgrwt>
</event>
<event>
 4    1 -0.5109406E-019  0.1490277E+02  0.7818608E-02  0.1871050E+00
          2   -1    0    0  501    0  0.00000000000E+00  0.00000000000E+00  0.11828047043E+03  0.11828047045E+03  0.25500000000E-02 0.  1.
         -2   -1    0    0    0  501 -0.00000000000E+00 -0.00000000000E+00 -0.46941606913E+00  0.46942299524E+00  0.25500000000E-02 0. -1.
         31    1    1    2    0    0 -0.16084968491E+00 -0.17463281747E+00  0.59612467194E+02  0.60076297657E+02  0.74470750000E+01 0.  1.
        -31    1    1    2    0    0  0.16084968491E+00  0.17463281747E+00  0.58198587163E+02  0.58673595792E+02  0.74470750000E+01 0. -1.
<mgrwt>
<rscale>  0 0.14902774E+02</rscale>
<asrwt>0</asrwt>
<pdfrwt beam="1">  1        2 0.98190720E+00 0.14902774E+02</pdfrwt>
<pdfrwt beam="2">  1       -2 0.99693801E+00 0.14902774E+02</pdfrwt>
<totfact>-0.47271128E-13</totfact>
</mgrwt>
</event>
<event>
 4    1  0.5109406E-019  0.1490504E+02  0.7818608E-02  0.1870980E+00
          2   -1    0    0  501    0  0.00000000000E+00  0.00000000000E+00  0.11933194997E+03  0.11933195000E+03  0.25500000000E-02 0. -1.
         -2   -1    0    0    0  501 -0.00000000000E+00 -0.00000000000E+00 -0.46542152472E+00  0.46542851027E+00  0.25500000000E-02 0.  1.
         31    1    1    2    0    0 -0.21325196864E+00  0.99908689013E-02  0.57917289606E+02  0.58394494069E+02  0.74470750000E+01 0.  1.
        -31    1    1    2    0    0  0.21325196864E+00 -0.99908689013E-02  0.60949238839E+02  0.61402884438E+02  0.74470750000E+01 0.  1.
<mgrwt>
<rscale>  0 0.14905043E+02</rscale>
<asrwt>0</asrwt>
<pdfrwt beam="1">  1        2 0.99056854E+00 0.14905043E+02</pdfrwt>
<pdfrwt beam="2">  1       -2 0.98852198E+00 0.14905043E+02</pdfrwt>
<totfact> 0.15385415E-13</totfact>
</mgrwt>
</event>
<event>
 4    1 -0.5109406E-019  0.1491118E+02  0.7818608E-02  0.1870791E+00
         -2   -1    0    0    0  501 -0.00000000000E+00  0.00000000000E+00  0.12010670919E+03  0.12010670922E+03  0.25500000000E-02 0.  1.
          2   -1    0    0  501    0  0.00000000000E+00 -0.00000000000E+00 -0.46280027550E+00  0.46280730061E+00  0.25500000000E-02 0. -1.
         31    1    1    2    0    0  0.95219007772E-01 -0.30972305206E+00  0.58624753419E+02  0.59096748087E+02  0.74470750000E+01 0. -1.
        -31    1    1    2    0    0 -0.95219007772E-01  0.30972305206E+00  0.61019155499E+02  0.61472768433E+02  0.74470750000E+01 0.  1.
<mgrwt>
<rscale>  0 0.14911183E+02</rscale>
<asrwt>0</asrwt>
<pdfrwt beam="2">  1        2 0.98300072E+00 0.14911183E+02</pdfrwt>
<pdfrwt beam="1">  1       -2 0.99695312E+00 0.14911183E+02</pdfrwt>
<totfact>-0.39169282E-13</totfact>
</mgrwt>
</event>
<event>
 4    1 -0.5109406E-019  0.1489877E+02  0.7818608E-02  0.1871173E+00
         -2   -1    0    0    0  501 -0.00000000000E+00  0.00000000000E+00  0.11949799043E+03  0.11949799046E+03  0.25500000000E-02 0.  1.
          2   -1    0    0  501    0  0.00000000000E+00 -0.00000000000E+00 -0.46438393980E+00  0.46439094096E+00  0.25500000000E-02 0. -1.
         31    1    1    2    0    0 -0.12817997259E+00  0.19847478102E-01  0.60585577952E+02  0.61041690719E+02  0.74470750000E+01 0.  1.
        -31    1    1    2    0    0  0.12817997259E+00 -0.19847478102E-01  0.58448028541E+02  0.58920690681E+02  0.74470750000E+01 0. -1.
<mgrwt>
<rscale>  0 0.14898774E+02</rscale>
<asrwt>0</asrwt>
<pdfrwt beam="2">  1        2 0.98633211E+00 0.14898774E+02</pdfrwt>
<pdfrwt beam="1">  1       -2 0.99193290E+00 0.14898774E+02</pdfrwt>
<totfact>-0.18131803E-13</totfact>
</mgrwt>
</event>
<event>
 4    1 -0.5109406E-019  0.1498531E+02  0.7818608E-02  0.1868517E+00
          2   -1    0    0  501    0  0.00000000000E+00  0.00000000000E+00  0.11976840863E+03  0.11976840866E+03  0.25500000000E-02 0. -1.
         -2   -1    0    0    0  501 -0.00000000000E+00 -0.00000000000E+00 -0.46873367029E+00  0.46874060648E+00  0.25500000000E-02 0.  1.
         31    1    1    2    0    0 -0.17180800306E+00  0.31648148967E+00  0.65607374667E+02  0.66029661632E+02  0.74470750000E+01 0. -1.
        -31    1    1    2    0    0  0.17180800306E+00 -0.31648148967E+00  0.53692300292E+02  0.54207487631E+02  0.74470750000E+01 0.  1.
<mgrwt>
<rscale>  0 0.14985313E+02</rscale>
<asrwt>0</asrwt>
<pdfrwt beam="1">  1        2 0.99420488E+00 0.14985313E+02</pdfrwt>
<pdfrwt beam="2">  1       -2 0.99554330E+00 0.14985313E+02</pdfrwt>
<totfact>-0.12539036E-13</totfact>
</mgrwt>
</event>
<event>
 4    1 -0.5109406E-019  0.1495617E+02  0.7818608E-02  0.1869409E+00
          2   -1    0    0  501    0  0.00000000000E+00  0.00000000000E+00  0.11957529866E+03  0.11957529869E+03  0.25500000000E-02 0.  1.
         -2   -1    0    0    0  501 -0.00000000000E+00 -0.00000000000E+00 -0.46766639754E+00  0.46767334956E+00  0.25500000000E-02 0. -1.
         31    1    1    2    0    0 -0.98897132896E-01  0.66346233709E+00  0.58642940910E+02  0.59117708071E+02  0.74470750000E+01 0.  1.
        -31    1    1    2    0    0  0.98897132896E-01 -0.66346233709E+00  0.60464691353E+02  0.60925263967E+02  0.74470750000E+01 0. -1.
<mgrwt>
<rscale>  0 0.14956172E+02</rscale>
<asrwt>0</asrwt>
<pdfrwt beam="1">  1        2 0.99259928E+00 0.14956172E+02</pdfrwt>
<pdfrwt beam="2">  1       -2 0.99327913E+00 0.14956172E+02</pdfrwt>
<totfact>-0.13161776E-13</totfact>
</mgrwt>
</event>
<event>
 4    1 -0.5109406E-019  0.1494206E+02  0.7818608E-02  0.1869842E+00
         -2   -1    0    0    0  501 -0.00000000000E+00  0.00000000000E+00  0.12013467253E+03  0.12013467256E+03  0.25500000000E-02 0. -1.
          2   -1    0    0  501    0  0.00000000000E+00 -0.00000000000E+00 -0.46461095772E+00  0.46461795545E+00  0.25500000000E-02 0.  1.
         31    1    1    2    0    0 -0.71761184807E-01  0.37056598065E+00  0.56093351688E+02  0.56586796149E+02  0.74470750000E+01 0.  1.
        -31    1    1    2    0    0  0.71761184807E-01 -0.37056598065E+00  0.63576709887E+02  0.64012494366E+02  0.74470750000E+01 0. -1.
<mgrwt>
<rscale>  0 0.14942063E+02</rscale>
<asrwt>0</asrwt>
<pdfrwt beam="2">  1        2 0.98683267E+00 0.14942063E+02</pdfrwt>
<pdfrwt beam="1">  1       -2 0.99719931E+00 0.14942063E+02</pdfrwt>
<totfact>-0.20023508E-13</totfact>
</mgrwt>
</event>
<event>
 4    1 -0.5109406E-019  0.1490681E+02  0.7818608E-02  0.1870926E+00
         -2   -1    0    0    0  501 -0.00000000000E+00  0.00000000000E+00  0.12003994159E+03  0.12003994161E+03  0.25500000000E-02 0. -1.
          2   -1    0    0  501    0  0.00000000000E+00 -0.00000000000E+00 -0.46278586031E+00  0.46279288565E+00  0.25500000000E-02 0.  1.
         31    1    1    2    0    0 -0.17765926122E+00  0.24766866231E+00  0.60089301871E+02  0.60549781404E+02  0.74470750000E+01 0. -1.
        -31    1    1    2    0    0  0.17765926122E+00 -0.24766866231E+00  0.59487853854E+02  0.59952953095E+02  0.74470750000E+01 0.  1.
<mgrwt>
<rscale>  0 0.14906806E+02</rscale>
<asrwt>0</asrwt>
<pdfrwt beam="2">  1        2 0.98296812E+00 0.14906806E+02</pdfrwt>
<pdfrwt beam="1">  1       -2 0.99640092E+00 0.14906806E+02</pdfrwt>
<totfact>-0.43429800E-13</totfact>
</mgrwt>
</event>
<event>
 4    1  0.5109406E-019  0.1489823E+02  0.7818608E-02  0.1871190E+00
         -2   -1    0    0    0  501 -0.00000000000E+00  0.00000000000E+00  0.11825957486E+03  0.11825957488E+03  0.25500000000E-02 0. -1.
          2   -1    0    0  501    0  0.00000000000E+00 -0.00000000000E+00 -0.46921285236E+00  0.46921978146E+00  0.25500000000E-02 0.  1.
         31    1    1    2    0    0  0.15335346230E+00  0.78256886920E-01  0.58675781221E+02  0.59146731688E+02  0.74470750000E+01 0.  1.
        -31    1    1    2    0    0 -0.15335346230E+00 -0.78256886920E-01  0.59114580783E+02  0.59582062978E+02  0.74470750000E+01 0. -1.
<mgrwt>
<rscale>  0 0.14898231E+02</rscale>
<asrwt>0</asrwt>
<pdfrwt beam="2">  1        2 0.99650744E+00 0.14898231E+02</pdfrwt>
<pdfrwt beam="1">  1       -2 0.98173274E+00 0.14898231E+02</pdfrwt>
<totfact> 0.84304469E-13</totfact>
</mgrwt>
</event>
<event>
 4    1  0.5109406E-019  0.1490644E+02  0.7818608E-02  0.1870937E+00
         -2   -1    0    0    0  501 -0.00000000000E+00  0.00000000000E+00  0.11843242147E+03  0.11843242150E+03  0.25500000000E-02 0.  1.
          2   -1    0    0  501    0  0.00000000000E+00 -0.00000000000E+00 -0.46904423816E+00  0.46905116976E+00  0.25500000000E-02 0. -1.
         31    1    1    2    0    0  0.19360838991E+00 -0.98075683834E-01  0.57300373076E+02  0.57782685847E+02  0.74470750000E+01 0. -1.
        -31    1    1    2    0    0 -0.19360838991E+00  0.98075683834E-01  0.60663004161E+02  0.61118786825E+02  0.74470750000E+01 0. -1.
<mgrwt>
<rscale>  0 0.14906436E+02</rscale>
<asrwt>0</asrwt>
<pdfrwt beam="2">  1        2 0.99615650E+00 0.14906436E+02</pdfrwt>
<pdfrwt beam="1">  1       -2 0.98316057E+00 0.14906436E+02</pdfrwt>
<totfact> 0.66415184E-13</totfact>
</mgrwt>
</event>
<event>
 4    1  0.5109406E-019  0.1493390E+02  0.7818608E-02  0.1870092E+00
         -2   -1    0    0    0  501 -0.00000000000E+00  0.00000000000E+00  0.11870143725E+03  0.11870143728E+03  0.25500000000E-02 0. -1.
          2   -1    0    0  501    0  0.00000000000E+00 -0.00000000000E+00 -0.46970705072E+00  0.46971397254E+00  0.25500000000E-02 0.  1.
         31    1    1    2    0    0 -0.43362772691E+00 -0.54486046371E-02  0.61742302309E+02  0.62191308743E+02  0.74470750000E+01 0. -1.
        -31    1    1    2    0    0  0.43362772691E+00  0.54486046371E-02  0.56489427893E+02  0.56979842510E+02  0.74470750000E+01 0.  1.
<mgrwt>
<rscale>  0 0.14933896E+02</rscale>
<asrwt>0</asrwt>
<pdfrwt beam="2">  1        2 0.99756753E+00 0.14933896E+02</pdfrwt>
<pdfrwt beam="1">  1       -2 0.98539046E+00 0.14933896E+02</pdfrwt>
<totfact> 0.27556110E-13</totfact>
</mgrwt>
</event>
<event>
 4    1 -0.5109406E-019  0.1496612E+02  0.7818608E-02  0.1869104E+00
          2   -1    0    0  501    0  0.00000000000E+00  0.00000000000E+00  0.11950633790E+03  0.11950633793E+03  0.25500000000E-02 0.  1.
         -2   -1    0    0    0  501 -0.00000000000E+00 -0.00000000000E+00 -0.46855871330E+00  0.46856565208E+00  0.25500000000E-02 0. -1.
         31    1    1    2    0    0 -0.37394462373E+00 -0.27593843440E+00  0.64062526807E+02  0.64495598637E+02  0.74470750000E+01 0.  1.
        -31    1    1    2    0    0  0.37394462373E+00  0.27593843440E+00  0.54975252378E+02  0.55479304941E+02  0.74470750000E+01 0. -1.
<mgrwt>
<rscale>  0 0.14966116E+02</rscale>
<asrwt>0</asrwt>
<pdfrwt beam="1">  1        2 0.99203644E+00 0.14966116E+02</pdfrwt>
<pdfrwt beam="2">  1       -2 0.99516466E+00 0.14966116E+02</pdfrwt>
<totfact>-0.15024151E-13</totfact>
</mgrwt>
</event>
<event>
 4    1 -0.5109406E-019  0.1489965E+02  0.7818608E-02  0.1871146E+00
          2   -1    0    0  501    0  0.00000000000E+00  0.00000000000E+00  0.11801792320E+03  0.11801792323E+03  0.25500000000E-02 0. -1.
         -2   -1    0    0    0  501 -0.00000000000E+00 -0.00000000000E+00 -0.47026309786E+00  0.47027001149E+00  0.25500000000E-02 0.  1.
         31    1    1    2    0    0  0.49280431651E-01  0.19629090511E+00  0.58780259925E+02  0.59250475454E+02  0.74470750000E+01 0. -1.
        -31    1    1    2    0    0 -0.49280431651E-01 -0.19629090511E+00  0.58767400176E+02  0.59237717783E+02  0.74470750000E+01 0. -1.
<mgrwt>
<rscale>  0 0.14899649E+02</rscale>
<asrwt>0</asrwt>
<pdfrwt beam="1">  1        2 0.97974328E+00 0.14899649E+02</pdfrwt>
<pdfrwt beam="2">  1       -2 0.99872096E+00 0.14899649E+02</pdfrwt>
<totfact>-0.33894130E-13</totfact>
</mgrwt>
</event>
<event>
 4    1  0.5109406E-019  0.1492723E+02  0.7818608E-02  0.1870297E+00
         -2   -1    0    0    0  501 -0.00000000000E+00  0.00000000000E+00  0.11864585415E+03  0.11864585418E+03  0.25500000000E-02 0. -1.
          2   -1    0    0  501    0  0.00000000000E+00 -0.00000000000E+00 -0.46950783291E+00  0.46951475766E+00  0.25500000000E-02 0.  1.
         31    1    1    2    0    0 -0.28028994976E+00  0.40397240953E+00  0.58530179022E+02  0.59004089169E+02  0.74470750000E+01 0.  1.
        -31    1    1    2    0    0  0.28028994976E+00 -0.40397240953E+00  0.59646167296E+02  0.60111279768E+02  0.74470750000E+01 0. -1.
<mgrwt>
<rscale>  0 0.14927233E+02</rscale>
<asrwt>0</asrwt>
<pdfrwt beam="2">  1        2 0.99714426E+00 0.14927233E+02</pdfrwt>
<pdfrwt beam="1">  1       -2 0.98492921E+00 0.14927233E+02</pdfrwt>
<totfact> 0.35304767E-13</totfact>
</mgrwt>
</event>
<event>
 4    1  0.5109406E-019  0.1489833E+02  0.7818608E-02  0.1871187E+00
          2   -1    0    0  501    0  0.00000000000E+00  0.00000000000E+00  0.12040821339E+03  0.12040821341E+03  0.25500000000E-02 0. -1.
         -2   -1    0    0    0  501 -0.00000000000E+00 -0.00000000000E+00 -0.46084609039E+00  0.46085314530E+00  0.25500000000E-02 0.  1.
         31    1    1    2    0    0  0.43595643881E-01 -0.15887910853E+00  0.59459732860E+02  0.59924501675E+02  0.74470750000E+01 0. -1.
        -31    1    1    2    0    0 -0.43595643881E-01  0.15887910853E+00  0.60487634435E+02  0.60944564883E+02  0.74470750000E+01 0. -1.
<mgrwt>
<rscale>  0 0.14898333E+02</rscale>
<asrwt>0</asrwt>
<pdfrwt beam="1">  1        2 0.99943001E+00 0.14898333E+02</pdfrwt>
<pdfrwt beam="2">  1       -2 0.97887527E+00 0.14898333E+02</pdfrwt>
<totfact> 0.31122962E-13</totfact>
</mgrwt>
</event>
<event>
 4    1 -0.5109406E-019  0.1492903E+02  0.7818608E-02  0.1870242E+00
          2   -1    0    0  501    0  0.00000000000E+00  0.00000000000E+00  0.11872257546E+03  0.11872257548E+03  0.25500000000E-02 0.  1.
         -2   -1    0    0    0  501 -0.00000000000E+00 -0.00000000000E+00 -0.46931761319E+00  0.46932454075E+00  0.25500000000E-02 0. -1.
         31    1    1    2    0    0  0.42040013234E+00 -0.83257884095E-02  0.56822632916E+02  0.57310098091E+02  0.74470750000E+01 0.  1.
        -31    1    1    2    0    0 -0.42040013234E+00  0.83257884095E-02  0.61430624928E+02  0.61881801934E+02  0.74470750000E+01 0.  1.
<mgrwt>
<rscale>  0 0.14929033E+02</rscale>
<asrwt>0</asrwt>
<pdfrwt beam="1">  1        2 0.98556202E+00 0.14929033E+02</pdfrwt>
<pdfrwt beam="2">  1       -2 0.99674441E+00 0.14929033E+02</pdfrwt>
<totfact>-0.26745494E-13</totfact>
</mgrwt>
</event>
<event>
 4    1 -0.5109406E-019  0.1490273E+02  0.7818608E-02  0.1871051E+00
          2   -1    0    0  501    0  0.00000000000E+00  0.00000000000E+00  0.11841132010E+03  0.11841132013E+03  0.25500000000E-02 0.  1.
         -2   -1    0    0    0  501 -0.00000000000E+00 -0.00000000000E+00 -0.46889466615E+00  0.46890159996E+00  0.25500000000E-02 0. -1.
         31    1    1    2    0    0  0.49416525772E-01  0.22232529844E+00  0.59847007021E+02  0.60308996394E+02  0.74470750000E+01 0.  1.
        -31    1    1    2    0    0 -0.49416525772E-01 -0.22232529844E+00  0.58095418415E+02  0.58571225337E+02  0.74470750000E+01 0. -1.
<mgrwt>
<rscale>  0 0.14902731E+02</rscale>
<asrwt>0</asrwt>
<pdfrwt beam="1">  1        2 0.98298485E+00 0.14902731E+02</pdfrwt>
<pdfrwt beam="2">  1       -2 0.99583939E+00 0.14902731E+02</pdfrwt>
<totfact>-0.46296169E-13</totfact>
</mgrwt>
</event>
<event>
 4    1 -0.5109406E-019  0.1495858E+02  0.7818608E-02  0.1869335E+00
         -2   -1    0    0    0  501 -0.00000000000E+00  0.00000000000E+00  0.12016233018E+03  0.12016233020E+03  0.25500000000E-02 0. -1.
          2   -1    0    0  501    0  0.00000000000E+00 -0.00000000000E+00 -0.46553143098E+00  0.46553841488E+00  0.25500000000E-02 0.  1.
         31    1    1    2    0    0 -0.15965089572E+00 -0.56404019733E+00  0.56861311792E+02  0.57349902655E+02  0.74470750000E+01 0.  1.
        -31    1    1    2    0    0  0.15965089572E+00  0.56404019733E+00  0.62835486952E+02  0.63277965962E+02  0.74470750000E+01 0.  1.
<mgrwt>
<rscale>  0 0.14958578E+02</rscale>
<asrwt>0</asrwt>
<pdfrwt beam="2">  1        2 0.98878105E+00 0.14958578E+02</pdfrwt>
<pdfrwt beam="1">  1       -2 0.99743562E+00 0.14958578E+02</pdfrwt>
<totfact>-0.14597884E-13</totfact>
</mgrwt>
</event>
<event>
 4    1 -0.5109406E-019  0.1495489E+02  0.7818608E-02  0.1869448E+00
          2   -1    0    0  501    0  0.00000000000E+00  0.00000000000E+00  0.11953688125E+03  0.11953688127E+03  0.25500000000E-02 0. -1.
         -2   -1    0    0    0  501 -0.00000000000E+00 -0.00000000000E+00 -0.46773669192E+00  0.46774364289E+00  0.25500000000E-02 0.  1.
         31    1    1    2    0    0 -0.66367732572E+00 -0.48356417022E-02  0.60441975292E+02  0.60902641931E+02  0.74470750000E+01 0.  1.
        -31    1    1    2    0    0  0.66367732572E+00  0.48356417022E-02  0.58627169262E+02  0.59101982985E+02  0.74470750000E+01 0.  1.
<mgrwt>
<rscale>  0 0.14954893E+02</rscale>
<asrwt>0</asrwt>
<pdfrwt beam="1">  1        2 0.99228220E+00 0.14954893E+02</pdfrwt>
<pdfrwt beam="2">  1       -2 0.99342660E+00 0.14954893E+02</pdfrwt>
<totfact>-0.13736424E-13</totfact>
</mgrwt>
</event>
<event>
 4    1  0.5109406E-019  0.1490664E+02  0.7818608E-02  0.1870931E+00
         -2   -1    0    0    0  501 -0.00000000000E+00  0.00000000000E+00  0.11858606911E+03  0.11858606914E+03  0.25500000000E-02 0.  1.
          2   -1    0    0  501    0  0.00000000000E+00 -0.00000000000E+00 -0.46844902202E+00  0.46845596243E+00  0.25500000000E-02 0. -1.
         31    1    1    2    0    0  0.12759492157E+00  0.26803616827E+00  0.59617476358E+02  0.60081532414E+02  0.74470750000E+01 0.  1.
        -31    1    1    2    0    0 -0.12759492157E+00 -0.26803616827E+00  0.58500143730E+02  0.58972992686E+02  0.74470750000E+01 0. -1.
<mgrwt>
<rscale>  0 0.14906635E+02</rscale>
<asrwt>0</asrwt>
<pdfrwt beam="2">  1        2 0.99490246E+00 0.14906635E+02</pdfrwt>
<pdfrwt beam="1">  1       -2 0.98442611E+00 0.14906635E+02</pdfrwt>
<totfact> 0.57213433E-13</totfact>
</mgrwt>
</event>
<event>
 4    1  0.5109406E-019  0.1491633E+02  0.7818608E-02  0.1870633E+00
         -2   -1    0    0    0  501 -0.00000000000E+00  0.00000000000E+00  0.11895635687E+03  0.11895635690E+03  0.25500000000E-02 0. -1.
          2   -1    0    0  501    0  0.00000000000E+00 -0.00000000000E+00 -0.46759827465E+00  0.46760522769E+00  0.25500000000E-02 0.  1.
         31    1    1    2    0    0 -0.31214913945E+00  0.18565218297E+00  0.60707010381E+02  0.61163158350E+02  0.74470750000E+01 0. -1.
        -31    1    1    2    0    0  0.31214913945E+00 -0.18565218297E+00  0.57781748212E+02  0.58260803773E+02  0.74470750000E+01 0.  1.
<mgrwt>
<rscale>  0 0.14916327E+02</rscale>
<asrwt>0</asrwt>
<pdfrwt beam="2">  1        2 0.99311488E+00 0.14916327E+02</pdfrwt>
<pdfrwt beam="1">  1       -2 0.98748088E+00 0.14916327E+02</pdfrwt>
<totfact> 0.23225095E-13</totfact>
</mgrwt>
</event>
<event>
 4    1 -0.5109406E-019  0.1493623E+02  0.7818608E-02  0.1870021E+00
         -2   -1    0    0    0  501 -0.00000000000E+00  0.00000000000E+00  0.11954073948E+03  0.11954073951E+03  0.25500000000E-02 0. -1.
          2   -1    0    0  501    0  0.00000000000E+00 -0.00000000000E+00 -0.46655487895E+00  0.46656184753E+00  0.25500000000E-02 0.  1.
         31    1    1    2    0    0 -0.46155387703E+00  0.23243132218E+00  0.57799812236E+02  0.58279878834E+02  0.74470750000E+01 0.  1.
        -31    1    1    2    0    0  0.46155387703E+00 -0.23243132218E+00  0.61274372366E+02  0.61727422522E+02  0.74470750000E+01 0.  1.
<mgrwt>
<rscale>  0 0.14936229E+02</rscale>
<asrwt>0</asrwt>
<pdfrwt beam="2">  1        2 0.99092647E+00 0.14936229E+02</pdfrwt>
<pdfrwt beam="1">  1       -2 0.99230433E+00 0.14936229E+02</pdfrwt>
<totfact>-0.12076107E-13</totfact>
</mgrwt>
</event>
<event>
 4    1 -0.5109406E-019  0.1503190E+02  0.7818608E-02  0.1867097E+00
         -2   -1    0    0    0  501 -0.00000000000E+00  0.00000000000E+00  0.12014525409E+03  0.12014525412E+03  0.25500000000E-02 0.  1.
          2   -1    0    0  501    0  0.00000000000E+00 -0.00000000000E+00 -0.47017340193E+00  0.47018031688E+00  0.25500000000E-02 0. -1.
         31    1    1    2    0    0 -0.37139843968E+00  0.52512578378E+00  0.66139808443E+02  0.66560850962E+02  0.74470750000E+01 0.  1.
        -31    1    1    2    0    0  0.37139843968E+00 -0.52512578378E+00  0.53535272249E+02  0.54054583475E+02  0.74470750000E+01 0.  1.
<mgrwt>
<rscale>  0 0.15031902E+02</rscale>
<asrwt>0</asrwt>
<pdfrwt beam="2">  1        2 0.99860139E+00 0.15031902E+02</pdfrwt>
<pdfrwt beam="1">  1       -2 0.99733280E+00 0.15031902E+02</pdfrwt>
<totfact>-0.36218449E-14</totfact>
</mgrwt>
</event>
<event>
 4    1 -0.5109406E-019  0.1490031E+02  0.7818608E-02  0.1871126E+00
          2   -1    0    0  501    0  0.00000000000E+00  0.00000000000E+00  0.11833131112E+03  0.11833131115E+03  0.25500000000E-02 0.  1.
         -2   -1    0    0    0  501 -0.00000000000E+00 -0.00000000000E+00 -0.46905937594E+00  0.46906630731E+00  0.25500000000E-02 0. -1.
         31    1    1    2    0    0 -0.60025830873E-01  0.20545346918E+00  0.59004209578E+02  0.59472695317E+02  0.74470750000E+01 0. -1.
        -31    1    1    2    0    0  0.60025830873E-01 -0.20545346918E+00  0.58858042170E+02  0.59327682142E+02  0.74470750000E+01 0. -1.
<mgrwt>
<rscale>  0 0.14900312E+02</rscale>
<asrwt>0</asrwt>
<pdfrwt beam="1">  1        2 0.98232464E+00 0.14900312E+02</pdfrwt>
<pdfrwt beam="2">  1       -2 0.99618516E+00 0.14900312E+02</pdfrwt>
<totfact>-0.49858792E-13</totfact>
</mgrwt>
</event>
<event>
 4    1 -0.5109406E-019  0.1496247E+02  0.7818608E-02  0.1869216E+00
         -2   -1    0    0    0  501 -0.00000000000E+00  0.00000000000E+00  0.12011570870E+03  0.12011570872E+03  0.25500000000E-02 0.  1.
          2   -1    0    0  501    0  0.00000000000E+00 -0.00000000000E+00 -0.46595471343E+00  0.46596169099E+00  0.25500000000E-02 0. -1.
         31    1    1    2    0    0 -0.60139041260E+00 -0.19456413528E+00  0.57146552301E+02  0.57633209972E+02  0.74470750000E+01 0. -1.
        -31    1    1    2    0    0  0.60139041260E+00  0.19456413528E+00  0.62503201682E+02  0.62948460444E+02  0.74470750000E+01 0.  1.
<mgrwt>
<rscale>  0 0.14962473E+02</rscale>
<asrwt>0</asrwt>
<pdfrwt beam="2">  1        2 0.98967513E+00 0.14962473E+02</pdfrwt>
<pdfrwt beam="1">  1       -2 0.99705362E+00 0.14962473E+02</pdfrwt>
<totfact>-0.14594340E-13</totfact>
</mgrwt>
</event>
<event>
 4    1  0.5109406E-019  0.1491516E+02  0.7818608E-02  0.1870669E+00
         -2   -1    0    0    0  501 -0.00000000000E+00  0.00000000000E+00  0.11875119541E+03  0.11875119544E+03  0.25500000000E-02 0. -1.
          2   -1    0    0  501    0  0.00000000000E+00 -0.00000000000E+00 -0.46833275917E+00  0.46833970129E+00  0.25500000000E-02 0.  1.
         31    1    1    2    0    0 -0.20645672049E-01  0.39418324324E+00  0.59361457729E+02  0.59828065291E+02  0.74470750000E+01 0. -1.
        -31    1    1    2    0    0  0.20645672049E-01 -0.39418324324E+00  0.58921404923E+02  0.59391469849E+02  0.74470750000E+01 0.  1.
<mgrwt>
<rscale>  0 0.14915159E+02</rscale>
<asrwt>0</asrwt>
<pdfrwt beam="2">  1        2 0.99466195E+00 0.14915159E+02</pdfrwt>
<pdfrwt beam="1">  1       -2 0.98579053E+00 0.14915159E+02</pdfrwt>
<totfact> 0.39494029E-13</totfact>
</mgrwt>
</event>
<event>
 4    1  0.5109406E-019  0.1490607E+02  0.7818608E-02  0.1870948E+00
         -2   -1    0    0    0  501 -0.00000000000E+00  0.00000000000E+00  0.11837878268E+03  0.11837878271E+03  0.25500000000E-02 0. -1.
          2   -1    0    0  501    0  0.00000000000E+00 -0.00000000000E+00 -0.46923370170E+00  0.46924063050E+00  0.25500000000E-02 0.  1.
         31    1    1    2    0    0  0.26324985021E+00 -0.44166959729E-01  0.60011041446E+02  0.60471937895E+02  0.74470750000E+01 0. -1.
        -31    1    1    2    0    0 -0.26324985021E+00  0.44166959729E-01  0.57898507535E+02  0.58376085446E+02  0.74470750000E+01 0.  1.
<mgrwt>
<rscale>  0 0.14906070E+02</rscale>
<asrwt>0</asrwt>
<pdfrwt beam="2">  1        2 0.99655551E+00 0.14906070E+02</pdfrwt>
<pdfrwt beam="1">  1       -2 0.98271861E+00 0.14906070E+02</pdfrwt>
<totfact> 0.68385353E-13</totfact>
</mgrwt>
</event>
<event>
 4    1 -0.5109406E-019  0.1493736E+02  0.7818608E-02  0.1869986E+00
         -2   -1    0    0    0  501 -0.00000000000E+00  0.00000000000E+00  0.12017455239E+03  0.12017455241E+03  0.25500000000E-02 0. -1.
          2   -1    0    0  501    0  0.00000000000E+00 -0.00000000000E+00 -0.46416449506E+00  0.46417149953E+00  0.25500000000E-02 0.  1.
         31    1    1    2    0    0 -0.40161972819E-01  0.48421878345E+00  0.62226077968E+02  0.62672001613E+02  0.74470750000E+01 0.  1.
        -31    1    1    2    0    0  0.40161972819E-01 -0.48421878345E+00  0.57484309925E+02  0.57966722302E+02  0.74470750000E+01 0. -1.
<mgrwt>
<rscale>  0 0.14937360E+02</rscale>
<asrwt>0</asrwt>
<pdfrwt beam="2">  1        2 0.98588930E+00 0.14937360E+02</pdfrwt>
<pdfrwt beam="1">  1       -2 0.99752538E+00 0.14937360E+02</pdfrwt>
<totfact>-0.21119542E-13</totfact>
</mgrwt>
</event>
<event>
 4    1 -0.5109406E-019  0.1496536E+02  0.7818608E-02  0.1869128E+00
         -2   -1    0    0    0  501 -0.00000000000E+00  0.00000000000E+00  0.11970022977E+03  0.11970022980E+03  0.25500000000E-02 0. -1.
          2   -1    0    0  501    0  0.00000000000E+00 -0.00000000000E+00 -0.46775222028E+00  0.46775917102E+00  0.25500000000E-02 0.  1.
         31    1    1    2    0    0  0.33319594784E+00 -0.63255375885E+00  0.60763049728E+02  0.61221877479E+02  0.74470750000E+01 0.  1.
        -31    1    1    2    0    0 -0.33319594784E+00  0.63255375885E+00  0.58469427825E+02  0.58946111492E+02  0.74470750000E+01 0.  1.
<mgrwt>
<rscale>  0 0.14965356E+02</rscale>
<asrwt>0</asrwt>
<pdfrwt beam="2">  1        2 0.99346474E+00 0.14965356E+02</pdfrwt>
<pdfrwt beam="1">  1       -2 0.99363301E+00 0.14965356E+02</pdfrwt>
<totfact>-0.12913875E-13</totfact>
</mgrwt>
</event>
<event>
 4    1 -0.5109406E-019  0.1496879E+02  0.7818608E-02  0.1869022E+00
         -2   -1    0    0    0  501 -0.00000000000E+00  0.00000000000E+00  0.11983503470E+03  0.11983503473E+03  0.25500000000E-02 0.  1.
          2   -1    0    0  501    0  0.00000000000E+00 -0.00000000000E+00 -0.46744025656E+00  0.46744721195E+00  0.25500000000E-02 0. -1.
         31    1    1    2    0    0 -0.14028714556E+00 -0.39237160908E+00  0.64661334085E+02  0.65090096694E+02  0.74470750000E+01 0.  1.
        -31    1    1    2    0    0  0.14028714556E+00  0.39237160908E+00  0.54706260361E+02  0.55212385248E+02  0.74470750000E+01 0. -1.
<mgrwt>
<rscale>  0 0.14968786E+02</rscale>
<asrwt>0</asrwt>
<pdfrwt beam="2">  1        2 0.99280909E+00 0.14968786E+02</pdfrwt>
<pdfrwt beam="1">  1       -2 0.99474509E+00 0.14968786E+02</pdfrwt>
<totfact>-0.14316152E-13</totfact>
</mgrwt>
</event>
<event>
 4    1  0.5109406E-019  0.1491952E+02  0.7818608E-02  0.1870534E+00
         -2   -1    0    0    0  501 -0.00000000000E+00  0.00000000000E+00  0.11862560779E+03  0.11862560782E+03  0.25500000000E-02 0.  1.
          2   -1    0    0  501    0  0.00000000000E+00 -0.00000000000E+00 -0.46910295616E+00  0.46910988689E+00  0.25500000000E-02 0. -1.
         31    1    1    2    0    0  0.39078778557E+00  0.12503242115E-01  0.57558640947E+02  0.58039718686E+02  0.74470750000E+01 0. -1.
        -31    1    1    2    0    0 -0.39078778557E+00 -0.12503242115E-01  0.60597863885E+02  0.61054999016E+02  0.74470750000E+01 0.  1.
<mgrwt>
<rscale>  0 0.14919522E+02</rscale>
<asrwt>0</asrwt>
<pdfrwt beam="2">  1        2 0.99628711E+00 0.14919522E+02</pdfrwt>
<pdfrwt beam="1">  1       -2 0.98475845E+00 0.14919522E+02</pdfrwt>
<totfact> 0.43883126E-13</totfact>
</mgrwt>
</event>
<event>
 4    1  0.5109406E-019  0.1491174E+02  0.7818608E-02  0.1870774E+00
          2   -1    0    0  501    0  0.00000000000E+00  0.00000000000E+00  0.11958208409E+03  0.11958208411E+03  0.25500000000E-02 0.  1.
         -2   -1    0    0    0  501 -0.00000000000E+00 -0.00000000000E+00 -0.46486512076E+00  0.46487211468E+00  0.25500000000E-02 0. -1.
         31    1    1    2    0    0 -0.28683594703E+00 -0.47487044826E-01  0.57822508752E+02  0.58300823101E+02  0.74470750000E+01 0. -1.
        -31    1    1    2    0    0  0.28683594703E+00  0.47487044826E-01  0.61294710213E+02  0.61746133126E+02  0.74470750000E+01 0.  1.
<mgrwt>
<rscale>  0 0.14911735E+02</rscale>
<asrwt>0</asrwt>
<pdfrwt beam="1">  1        2 0.99263223E+00 0.14911735E+02</pdfrwt>
<pdfrwt beam="2">  1       -2 0.98735283E+00 0.14911735E+02</pdfrwt>
<totfact> 0.25530953E-13</totfact>
</mgrwt>
</event>
<event>
 4    1 -0.5109406E-019  0.1492131E+02  0.7818608E-02  0.1870479E+00
         -2   -1    0    0    0  501 -0.00000000000E+00  0.00000000000E+00  0.11969807152E+03  0.11969807154E+03  0.25500000000E-02 0.  1.
          2   -1    0    0  501    0  0.00000000000E+00 -0.00000000000E+00 -0.46501157358E+00  0.46501856529E+00  0.25500000000E-02 0. -1.
         31    1    1    2    0    0 -0.83661336227E-01  0.15299050952E+00  0.56275904170E+02  0.56766774803E+02  0.74470750000E+01 0. -1.
        -31    1    1    2    0    0  0.83661336227E-01 -0.15299050952E+00  0.62957155773E+02  0.63396315307E+02  0.74470750000E+01 0.  1.
<mgrwt>
<rscale>  0 0.14921315E+02</rscale>
<asrwt>0</asrwt>
<pdfrwt beam="2">  1        2 0.98766639E+00 0.14921315E+02</pdfrwt>
<pdfrwt beam="1">  1       -2 0.99359250E+00 0.14921315E+02</pdfrwt>
<totfact>-0.22024805E-13</totfact>
</mgrwt>
</event>
<event>
 4    1  0.5109406E-019  0.1490024E+02  0.7818608E-02  0.1871128E+00
          2   -1    0    0  501    0  0.00000000000E+00  0.00000000000E+00  0.11980509689E+03  0.11980509692E+03  0.25500000000E-02 0.  1.
         -2   -1    0    0    0  501 -0.00000000000E+00 -0.00000000000E+00 -0.46328451294E+00  0.46329153072E+00  0.25500000000E-02 0. -1.
         31    1    1    2    0    0  0.19942498951E+00  0.41135786568E-01  0.60173750768E+02  0.60633164770E+02  0.74470750000E+01 0. -1.
        -31    1    1    2    0    0 -0.19942498951E+00 -0.41135786568E-01  0.59168061608E+02  0.59635223677E+02  0.74470750000E+01 0. -1.
<mgrwt>
<rscale>  0 0.14900238E+02</rscale>
<asrwt>0</asrwt>
<pdfrwt beam="1">  1        2 0.99446318E+00 0.14900238E+02</pdfrwt>
<pdfrwt beam="2">  1       -2 0.98401577E+00 0.14900238E+02</pdfrwt>
<totfact> 0.66181644E-13</totfact>
</mgrwt>
</event>
<event>
 4    1  0.5109406E-019  0.1491682E+02  0.7818608E-02  0.1870617E+00
          2   -1    0    0  501    0  0.00000000000E+00  0.00000000000E+00  0.12033796254E+03  0.12033796257E+03  0.25500000000E-02 0. -1.
         -2   -1    0    0    0  501 -0.00000000000E+00 -0.00000000000E+00 -0.46226036137E+00  0.46226739469E+00  0.25500000000E-02 0.  1.
         31    1    1    2    0    0 -0.28660072742E+00  0.74098553587E-01  0.62247485161E+02  0.62692072589E+02  0.74470750000E+01 0. -1.
        -31    1    1    2    0    0  0.28660072742E+00 -0.74098553587E-01  0.57628217019E+02  0.58108157375E+02  0.74470750000E+01 0.  1.
<mgrwt>
<rscale>  0 0.14916822E+02</rscale>
<asrwt>0</asrwt>
<pdfrwt beam="1">  1        2 0.99886082E+00 0.14916822E+02</pdfrwt>
<pdfrwt beam="2">  1       -2 0.98186558E+00 0.14916822E+02</pdfrwt>
<totfact> 0.34686433E-13</totfact>
</mgrwt>
</event>
<event>
 4    1  0.5109406E-019  0.1491422E+02  0.7818608E-02  0.1870697E+00
          2   -1    0    0  501    0  0.00000000000E+00  0.00000000000E+00  0.12044586851E+03  0.12044586854E+03  0.25500000000E-02 0.  1.
         -2   -1    0    0    0  501 -0.00000000000E+00 -0.00000000000E+00 -0.46168523082E+00  0.46169227290E+00  0.25500000000E-02 0. -1.
         31    1    1    2    0    0 -0.32427806816E+00  0.15592893766E+00  0.61141718132E+02  0.61594627138E+02  0.74470750000E+01 0. -1.
        -31    1    1    2    0    0  0.32427806816E+00 -0.15592893766E+00  0.58842465150E+02  0.59312933674E+02  0.74470750000E+01 0.  1.
<mgrwt>
<rscale>  0 0.14914222E+02</rscale>
<asrwt>0</asrwt>
<pdfrwt beam="1">  1        2 0.99974831E+00 0.14914222E+02</pdfrwt>
<pdfrwt beam="2">  1       -2 0.98065201E+00 0.14914222E+02</pdfrwt>
<totfact> 0.10600860E-13</totfact>
</mgrwt>
</event>
<event>
 4    1  0.5109406E-019  0.1491210E+02  0.7818608E-02  0.1870763E+00
         -2   -1    0    0    0  501 -0.00000000000E+00  0.00000000000E+00  0.11849557128E+03  0.11849557130E+03  0.25500000000E-02 0. -1.
          2   -1    0    0  501    0  0.00000000000E+00 -0.00000000000E+00 -0.46915035778E+00  0.46915728781E+00  0.25500000000E-02 0.  1.
         31    1    1    2    0    0 -0.19250370811E+00 -0.13741224852E+00  0.56788185756E+02  0.57274888977E+02  0.74470750000E+01 0.  1.
        -31    1    1    2    0    0  0.19250370811E+00  0.13741224852E+00  0.61238235162E+02  0.61689839614E+02  0.74470750000E+01 0. -1.
<mgrwt>
<rscale>  0 0.14912096E+02</rscale>
<asrwt>0</asrwt>
<pdfrwt beam="2">  1        2 0.99638308E+00 0.14912096E+02</pdfrwt>
<pdfrwt beam="1">  1       -2 0.98368361E+00 0.14912096E+02</pdfrwt>
<totfact> 0.56749227E-13</totfact>
</mgrwt>
</event>
<event>
 4    1 -0.5109406E-019  0.1500729E+02  0.7818608E-02  0.1867846E+00
         -2   -1    0    0    0  501 -0.00000000000E+00  0.00000000000E+00  0.12025815621E+03  0.12025815624E+03  0.25500000000E-02 0. -1.
          2   -1    0    0  501    0  0.00000000000E+00 -0.00000000000E+00 -0.46819474351E+00  0.46820168768E+00  0.25500000000E-02 0.  1.
         31    1    1    2    0    0  0.61012004382E+00 -0.44132271182E+00  0.55647970136E+02  0.56149109686E+02  0.74470750000E+01 0.  1.
        -31    1    1    2    0    0 -0.61012004382E+00  0.44132271182E+00  0.64141991329E+02  0.64577248238E+02  0.74470750000E+01 0. -1.
<mgrwt>
<rscale>  0 0.15007286E+02</rscale>
<asrwt>0</asrwt>
<pdfrwt beam="2">  1        2 0.99441892E+00 0.15007286E+02</pdfrwt>
<pdfrwt beam="1">  1       -2 0.99825000E+00 0.15007286E+02</pdfrwt>
<totfact>-0.67182249E-14</totfact>
</mgrwt>
</event>
<event>
 4    1  0.5109406E-019  0.1496716E+02  0.7818608E-02  0.1869072E+00
         -2   -1    0    0    0  501 -0.00000000000E+00  0.00000000000E+00  0.11904572823E+03  0.11904572826E+03  0.25500000000E-02 0. -1.
          2   -1    0    0  501    0  0.00000000000E+00 -0.00000000000E+00 -0.47043702081E+00  0.47044393189E+00  0.25500000000E-02 0.  1.
         31    1    1    2    0    0 -0.32233759438E+00  0.82903058325E-01  0.54025676926E+02  0.54537541820E+02  0.74470750000E+01 0.  1.
        -31    1    1    2    0    0  0.32233759438E+00 -0.82903058325E-01  0.64549614282E+02  0.64978630367E+02  0.74470750000E+01 0. -1.
<mgrwt>
<rscale>  0 0.14967155E+02</rscale>
<asrwt>0</asrwt>
<pdfrwt beam="2">  1        2 0.99912311E+00 0.14967155E+02</pdfrwt>
<pdfrwt beam="1">  1       -2 0.98824333E+00 0.14967155E+02</pdfrwt>
<totfact> 0.35654615E-14</totfact>
</mgrwt>
</event>
<event>
 4    1 -0.5109406E-019  0.1498755E+02  0.7818608E-02  0.1868449E+00
         -2   -1    0    0    0  501 -0.00000000000E+00  0.00000000000E+00  0.11996883287E+03  0.11996883289E+03  0.25500000000E-02 0.  1.
          2   -1    0    0  501    0  0.00000000000E+00 -0.00000000000E+00 -0.46809035355E+00  0.46809729928E+00  0.25500000000E-02 0. -1.
         31    1    1    2    0    0 -0.20351695862E+00  0.76510809519E+00  0.57610106586E+02  0.58094837261E+02  0.74470750000E+01 0.  1.
        -31    1    1    2    0    0  0.20351695862E+00 -0.76510809519E+00  0.61890635927E+02  0.62342092931E+02  0.74470750000E+01 0. -1.
<mgrwt>
<rscale>  0 0.14987551E+02</rscale>
<asrwt>0</asrwt>
<pdfrwt beam="2">  1        2 0.99418877E+00 0.14987551E+02</pdfrwt>
<pdfrwt beam="1">  1       -2 0.99585680E+00 0.14987551E+02</pdfrwt>
<totfact>-0.12244279E-13</totfact>
</mgrwt>
</event>
<event>
 4    1 -0.5109406E-019  0.1498889E+02  0.7818608E-02  0.1868408E+00
          2   -1    0    0  501    0  0.00000000000E+00  0.00000000000E+00  0.11950238235E+03  0.11950238237E+03  0.25500000000E-02 0. -1.
         -2   -1    0    0    0  501 -0.00000000000E+00 -0.00000000000E+00 -0.47000112689E+00  0.47000804438E+00  0.25500000000E-02 0.  1.
         31    1    1    2    0    0  0.75153173357E+00 -0.11449115651E+00  0.62400293530E+02  0.62847700570E+02  0.74470750000E+01 0.  1.
        -31    1    1    2    0    0 -0.75153173357E+00  0.11449115651E+00  0.56632087688E+02  0.57124689847E+02  0.74470750000E+01 0. -1.
<mgrwt>
<rscale>  0 0.14988885E+02</rscale>
<asrwt>0</asrwt>
<pdfrwt beam="1">  1        2 0.99201566E+00 0.14988885E+02</pdfrwt>
<pdfrwt beam="2">  1       -2 0.99821600E+00 0.14988885E+02</pdfrwt>
<totfact>-0.81855145E-14</totfact>
</mgrwt>
</event>
<event>
 4    1 -0.5109406E-019  0.1495248E+02  0.7818608E-02  0.1869522E+00
         -2   -1    0    0    0  501 -0.00000000000E+00  0.00000000000E+00  0.11965598822E+03  0.11965598825E+03  0.25500000000E-02 0. -1.
          2   -1    0    0  501    0  0.00000000000E+00 -0.00000000000E+00 -0.46712061977E+00  0.46712757991E+00  0.25500000000E-02 0.  1.
         31    1    1    2    0    0 -0.26982764117E+00  0.12228087126E+00  0.64330295548E+02  0.64760586863E+02  0.74470750000E+01 0. -1.
        -31    1    1    2    0    0  0.26982764117E+00 -0.12228087126E+00  0.54858572051E+02  0.55362528962E+02  0.74470750000E+01 0.  1.
<mgrwt>
<rscale>  0 0.14952485E+02</rscale>
<asrwt>0</asrwt>
<pdfrwt beam="2">  1        2 0.99212708E+00 0.14952485E+02</pdfrwt>
<pdfrwt beam="1">  1       -2 0.99326197E+00 0.14952485E+02</pdfrwt>
<totfact>-0.13582566E-13</totfact>
</mgrwt>
</event>
<event>
 4    1 -0.5109406E-019  0.1497637E+02  0.7818608E-02  0.1868790E+00
          2   -1    0    0  501    0  0.00000000000E+00  0.00000000000E+00  0.11942373090E+03  0.11942373093E+03  0.25500000000E-02 0.  1.
         -2   -1    0    0    0  501 -0.00000000000E+00 -0.00000000000E+00 -0.46952552144E+00  0.46953244594E+00  0.25500000000E-02 0. -1.
         31    1    1    2    0    0 -0.64264065304E+00 -0.26797109425E+00  0.56599745575E+02  0.57091811328E+02  0.74470750000E+01 0. -1.
        -31    1    1    2    0    0  0.64264065304E+00  0.26797109425E+00  0.62354459804E+02  0.62801452045E+02  0.74470750000E+01 0.  1.
<mgrwt>
<rscale>  0 0.14976369E+02</rscale>
<asrwt>0</asrwt>
<pdfrwt beam="1">  1        2 0.99136139E+00 0.14976369E+02</pdfrwt>
<pdfrwt beam="2">  1       -2 0.99720728E+00 0.14976369E+02</pdfrwt>
<totfact>-0.12130475E-13</totfact>
</mgrwt>
</event>
<event>
 4    1 -0.5109406E-019  0.1496462E+02  0.7818608E-02  0.1869150E+00
          2   -1    0    0  501    0  0.00000000000E+00  0.00000000000E+00  0.11903135476E+03  0.11903135479E+03  0.25500000000E-02 0. -1.
         -2   -1    0    0    0  501 -0.00000000000E+00 -0.00000000000E+00 -0.47033470255E+00  0.47034161513E+00  0.25500000000E-02 0.  1.
         31    1    1    2    0    0 -0.50157409134E+00  0.28754295639E+00  0.55783140349E+02  0.56281008616E+02  0.74470750000E+01 0.  1.
        -31    1    1    2    0    0  0.50157409134E+00 -0.28754295639E+00  0.62777879713E+02  0.63220687791E+02  0.74470750000E+01 0. -1.
<mgrwt>
<rscale>  0 0.14964624E+02</rscale>
<asrwt>0</asrwt>
<pdfrwt beam="1">  1        2 0.98812364E+00 0.14964624E+02</pdfrwt>
<pdfrwt beam="2">  1       -2 0.99890619E+00 0.14964624E+02</pdfrwt>
<totfact>-0.77535182E-14</totfact>
</mgrwt>
</event>
<event>
 4    1 -0.5109406E-019  0.1498292E+02  0.7818608E-02  0.1868590E+00
         -2   -1    0    0    0  501 -0.00000000000E+00  0.00000000000E+00  0.11961428292E+03  0.11961428295E+03  0.25500000000E-02 0.  1.
          2   -1    0    0  501    0  0.00000000000E+00 -0.00000000000E+00 -0.46918756716E+00  0.46919449664E+00  0.25500000000E-02 0. -1.
         31    1    1    2    0    0 -0.48441043340E+00 -0.58242032967E+00  0.61965696924E+02  0.62416186909E+02  0.74470750000E+01 0.  1.
        -31    1    1    2    0    0  0.48441043340E+00  0.58242032967E+00  0.57179398433E+02  0.57667290539E+02  0.74470750000E+01 0. -1.
<mgrwt>
<rscale>  0 0.14982917E+02</rscale>
<asrwt>0</asrwt>
<pdfrwt beam="2">  1        2 0.99649855E+00 0.14982917E+02</pdfrwt>
<pdfrwt beam="1">  1       -2 0.99293421E+00 0.14982917E+02</pdfrwt>
<totfact>-0.83442875E-14</totfact>
</mgrwt>
</event>
<event>
 4    1  0.5109406E-019  0.1491206E+02  0.7818608E-02  0.1870764E+00
         -2   -1    0    0    0  501 -0.00000000000E+00  0.00000000000E+00  0.11818084296E+03  0.11818084299E+03  0.25500000000E-02 0.  1.
          2   -1    0    0  501    0  0.00000000000E+00 -0.00000000000E+00 -0.47039751614E+00  0.47040442779E+00  0.25500000000E-02 0. -1.
         31    1    1    2    0    0  0.11408130292E+00  0.29293520741E+00  0.60336008966E+02  0.60794668595E+02  0.74470750000E+01 0. -1.
        -31    1    1    2    0    0 -0.11408130292E+00 -0.29293520741E+00  0.57374436480E+02  0.57856578822E+02  0.74470750000E+01 0. -1.
<mgrwt>
<rscale>  0 0.14912060E+02</rscale>
<asrwt>0</asrwt>
<pdfrwt beam="2">  1        2 0.99901077E+00 0.14912060E+02</pdfrwt>
<pdfrwt beam="1">  1       -2 0.98109153E+00 0.14912060E+02</pdfrwt>
<totfact> 0.35475639E-13</totfact>
</mgrwt>
</event>
<event>
 4    1 -0.5109406E-019  0.1494709E+02  0.7818608E-02  0.1869687E+00
         -2   -1    0    0    0  501 -0.00000000000E+00  0.00000000000E+00  0.11940678293E+03  0.11940678295E+03  0.25500000000E-02 0.  1.
          2   -1    0    0  501    0  0.00000000000E+00 -0.00000000000E+00 -0.46775760747E+00  0.46776455813E+00  0.25500000000E-02 0. -1.
         31    1    1    2    0    0 -0.49899604323E-02  0.55890720369E+00  0.61773356164E+02  0.62223137658E+02  0.74470750000E+01 0. -1.
        -31    1    1    2    0    0  0.49899604323E-02 -0.55890720369E+00  0.57165669156E+02  0.57651409855E+02  0.74470750000E+01 0. -1.
<mgrwt>
<rscale>  0 0.14947087E+02</rscale>
<asrwt>0</asrwt>
<pdfrwt beam="2">  1        2 0.99346663E+00 0.14947087E+02</pdfrwt>
<pdfrwt beam="1">  1       -2 0.99120663E+00 0.14947087E+02</pdfrwt>
<totfact>-0.57588577E-14</totfact>
</mgrwt>
</event>
<event>
 4    1 -0.5109406E-019  0.1495221E+02  0.7818608E-02  0.1869530E+00
          2   -1    0    0  501    0  0.00000000000E+00  0.00000000000E+00  0.11961659640E+03  0.11961659643E+03  0.25500000000E-02 0. -1.
         -2   -1    0    0    0  501 -0.00000000000E+00 -0.00000000000E+00 -0.46725706518E+00  0.46726402329E+00  0.25500000000E-02 0.  1.
         31    1    1    2    0    0 -0.59968996718E+00  0.25728041906E+00  0.60264223251E+02  0.60726117539E+02  0.74470750000E+01 0.  1.
        -31    1    1    2    0    0  0.59968996718E+00 -0.25728041906E+00  0.58885116083E+02  0.59357742911E+02  0.74470750000E+01 0.  1.
<mgrwt>
<rscale>  0 0.14952206E+02</rscale>
<asrwt>0</asrwt>
<pdfrwt beam="1">  1        2 0.99293738E+00 0.14952206E+02</pdfrwt>
<pdfrwt beam="2">  1       -2 0.99241448E+00 0.14952206E+02</pdfrwt>
<totfact>-0.10731430E-13</totfact>
</mgrwt>
</event>
<event>
 4    1 -0.5109406E-019  0.1491633E+02  0.7818608E-02  0.1870633E+00
         -2   -1    0    0    0  501 -0.00000000000E+00  0.00000000000E+00  0.11975092821E+03  0.11975092823E+03  0.25500000000E-02 0.  1.
          2   -1    0    0  501    0  0.00000000000E+00 -0.00000000000E+00 -0.46449572239E+00  0.46450272186E+00  0.25500000000E-02 0. -1.
         31    1    1    2    0    0  0.32290687883E-01  0.68739564624E-01  0.62862128130E+02  0.63301752321E+02  0.74470750000E+01 0.  1.
        -31    1    1    2    0    0 -0.32290687883E-01 -0.68739564624E-01  0.56424304354E+02  0.56913678635E+02  0.74470750000E+01 0. -1.
<mgrwt>
<rscale>  0 0.14916329E+02</rscale>
<asrwt>0</asrwt>
<pdfrwt beam="2">  1        2 0.98657668E+00 0.14916329E+02</pdfrwt>
<pdfrwt beam="1">  1       -2 0.99402529E+00 0.14916329E+02</pdfrwt>
<totfact>-0.26634656E-13</totfact>
</mgrwt>
</event>
<event>
 4    1 -0.5109406E-019  0.1498692E+02  0.7818608E-02  0.1868468E+00
         -2   -1    0    0    0  501 -0.00000000000E+00  0.00000000000E+00  0.11973836724E+03  0.11973836727E+03  0.25500000000E-02 0.  1.
          2   -1    0    0  501    0  0.00000000000E+00 -0.00000000000E+00 -0.46895166088E+00  0.46895859385E+00  0.25500000000E-02 0. -1.
         31    1    1    2    0    0  0.79184549234E+00 -0.15675861459E+00  0.58002596334E+02  0.58484285925E+02  0.74470750000E+01 0.  1.
        -31    1    1    2    0    0 -0.79184549234E+00  0.15675861459E+00  0.61266819247E+02  0.61723039938E+02  0.74470750000E+01 0.  1.
<mgrwt>
<rscale>  0 0.14986918E+02</rscale>
<asrwt>0</asrwt>
<pdfrwt beam="2">  1        2 0.99600351E+00 0.14986918E+02</pdfrwt>
<pdfrwt beam="1">  1       -2 0.99395828E+00 0.14986918E+02</pdfrwt>
<totfact>-0.10292030E-13</totfact>
</mgrwt>
</event>
<event>
 4    1 -0.5109406E-019  0.1497176E+02  0.7818608E-02  0.1868931E+00
          2   -1    0    0  501    0  0.00000000000E+00  0.00000000000E+00  0.11980875755E+03  0.11980875758E+03  0.25500000000E-02 0. -1.
         -2   -1    0    0    0  501 -0.00000000000E+00 -0.00000000000E+00 -0.46772884460E+00  0.46773579569E+00  0.25500000000E-02 0.  1.
         31    1    1    2    0    0  0.15621405016E+00  0.72846447554E+00  0.60926475919E+02  0.61384439863E+02  0.74470750000E+01 0.  1.
        -31    1    1    2    0    0 -0.15621405016E+00 -0.72846447554E+00  0.58414552786E+02  0.58892053510E+02  0.74470750000E+01 0. -1.
<mgrwt>
<rscale>  0 0.14971764E+02</rscale>
<asrwt>0</asrwt>
<pdfrwt beam="1">  1        2 0.99453020E+00 0.14971764E+02</pdfrwt>
<pdfrwt beam="2">  1       -2 0.99341879E+00 0.14971764E+02</pdfrwt>
<totfact>-0.11550773E-13</totfact>
</mgrwt>
</event>
<event>
 4    1 -0.5109406E-019  0.1489674E+02  0.7818608E-02  0.1871236E+00
          2   -1    0    0  501    0  0.00000000000E+00  0.00000000000E+00  0.11822750983E+03  0.11822750986E+03  0.25500000000E-02 0. -1.
         -2   -1    0    0    0  501 -0.00000000000E+00 -0.00000000000E+00 -0.46924643896E+00  0.46925336757E+00  0.25500000000E-02 0.  1.
         31    1    1    2    0    0 -0.12856860358E+00 -0.51917785865E-01  0.58958576914E+02  0.59427198681E+02  0.74470750000E+01 0. -1.
        -31    1    1    2    0    0  0.12856860358E+00  0.51917785865E-01  0.58799686480E+02  0.59269564547E+02  0.74470750000E+01 0.  1.
<mgrwt>
<rscale>  0 0.14896745E+02</rscale>
<asrwt>0</asrwt>
<pdfrwt beam="1">  1        2 0.98146789E+00 0.14896745E+02</pdfrwt>
<pdfrwt beam="2">  1       -2 0.99657741E+00 0.14896745E+02</pdfrwt>
<totfact>-0.54433204E-13</totfact>
</mgrwt>
</event>
<event>
 4    1 -0.5109406E-019  0.1493937E+02  0.7818608E-02  0.1869924E+00
          2   -1    0    0  501    0  0.00000000000E+00  0.00000000000E+00  0.11924159757E+03  0.11924159760E+03  0.25500000000E-02 0.  1.
         -2   -1    0    0    0  501 -0.00000000000E+00 -0.00000000000E+00 -0.46792196761E+00  0.46792891583E+00  0.25500000000E-02 0. -1.
         31    1    1    2    0    0 -0.18310852767E+00  0.34052349609E+00  0.62859071338E+02  0.63299851979E+02  0.74470750000E+01 0.  1.
        -31    1    1    2    0    0  0.18310852767E+00 -0.34052349609E+00  0.55914604263E+02  0.56409674533E+02  0.74470750000E+01 0. -1.
<mgrwt>
<rscale>  0 0.14939368E+02</rscale>
<asrwt>0</asrwt>
<pdfrwt beam="1">  1        2 0.98984212E+00 0.14939368E+02</pdfrwt>
<pdfrwt beam="2">  1       -2 0.99380898E+00 0.14939368E+02</pdfrwt>
<totfact>-0.17489233E-13</totfact>
</mgrwt>
</event>
<event>
 4    1  0.5109406E-019  0.1489879E+02  0.7818608E-02  0.1871173E+00
         -2   -1    0    0    0  501 -0.00000000000E+00  0.00000000000E+00  0.11885069412E+03  0.11885069414E+03  0.25500000000E-02 0. -1.
          2   -1    0    0  501    0  0.00000000000E+00 -0.00000000000E+00 -0.46691426945E+00  0.46692123267E+00  0.25500000000E-02 0.  1.
         31    1    1    2    0    0  0.51141393734E-01 -0.22837803099E-01  0.57771891404E+02  0.58249922742E+02  0.74470750000E+01 0.  1.
        -31    1    1    2    0    0 -0.51141393734E-01  0.22837803099E-01  0.60611888444E+02  0.61067692635E+02  0.74470750000E+01 0. -1.
<mgrwt>
<rscale>  0 0.14898792E+02</rscale>
<asrwt>0</asrwt>
<pdfrwt beam="2">  1        2 0.99166441E+00 0.14898792E+02</pdfrwt>
<pdfrwt beam="1">  1       -2 0.98660153E+00 0.14898792E+02</pdfrwt>
<totfact> 0.37460105E-13</totfact>
</mgrwt>
</event>
<event>
 4    1 -0.5109406E-019  0.1494139E+02  0.7818608E-02  0.1869862E+00
          2   -1    0    0  501    0  0.00000000000E+00  0.00000000000E+00  0.11934628751E+03  0.11934628753E+03  0.25500000000E-02 0.  1.
         -2   -1    0    0    0  501 -0.00000000000E+00 -0.00000000000E+00 -0.46763789724E+00  0.46764484969E+00  0.25500000000E-02 0. -1.
         31    1    1    2    0    0  0.15856938852E+00  0.28813534990E+00  0.55476863666E+02  0.55975436528E+02  0.74470750000E+01 0. -1.
        -31    1    1    2    0    0 -0.15856938852E+00 -0.28813534990E+00  0.63401785943E+02  0.63838495855E+02  0.74470750000E+01 0. -1.
<mgrwt>
<rscale>  0 0.14941387E+02</rscale>
<asrwt>0</asrwt>
<pdfrwt beam="1">  1        2 0.99070542E+00 0.14941387E+02</pdfrwt>
<pdfrwt beam="2">  1       -2 0.99321141E+00 0.14941387E+02</pdfrwt>
<totfact>-0.15062552E-13</totfact>
</mgrwt>
</event>
<event>
 4    1 -0.5109406E-019  0.1492359E+02  0.7818608E-02  0.1870409E+00
         -2   -1    0    0    0  501 -0.00000000000E+00  0.00000000000E+00  0.11948304865E+03  0.11948304867E+03  0.25500000000E-02 0.  1.
          2   -1    0    0  501    0  0.00000000000E+00 -0.00000000000E+00 -0.46599030152E+00  0.46599727855E+00  0.25500000000E-02 0. -1.
         31    1    1    2    0    0 -0.24672031939E-01 -0.44152242965E+00  0.58266341256E+02  0.58741986689E+02  0.74470750000E+01 0. -1.
        -31    1    1    2    0    0  0.24672031939E-01  0.44152242965E+00  0.60750717090E+02  0.61207059264E+02  0.74470750000E+01 0.  1.
<mgrwt>
<rscale>  0 0.14923587E+02</rscale>
<asrwt>0</asrwt>
<pdfrwt beam="2">  1        2 0.98973017E+00 0.14923587E+02</pdfrwt>
<pdfrwt beam="1">  1       -2 0.99182264E+00 0.14923587E+02</pdfrwt>
<totfact>-0.11245994E-13</totfact>
</mgrwt>
</event>
<event>
 4    1 -0.5109406E-019  0.1497898E+02  0.7818608E-02  0.1868711E+00
          2   -1    0    0  501    0  0.00000000000E+00  0.00000000000E+00  0.11980326282E+03  0.11980326284E+03  0.25500000000E-02 0. -1.
         -2   -1    0    0    0  501 -0.00000000000E+00 -0.00000000000E+00 -0.46820125239E+00  0.46820819647E+00  0.25500000000E-02 0.  1.
         31    1    1    2    0    0 -0.29244528484E+00 -0.67741797944E+00  0.57270645477E+02  0.57757511882E+02  0.74470750000E+01 0.  1.
        -31    1    1    2    0    0  0.29244528484E+00  0.67741797944E+00  0.62064416087E+02  0.62513959158E+02  0.74470750000E+01 0.  1.
<mgrwt>
<rscale>  0 0.14978980E+02</rscale>
<asrwt>0</asrwt>
<pdfrwt beam="1">  1        2 0.99448867E+00 0.14978980E+02</pdfrwt>
<pdfrwt beam="2">  1       -2 0.99441805E+00 0.14978980E+02</pdfrwt>
<totfact>-0.12503398E-13</totfact>
</mgrwt>
</event>
<event>
 4    1 -0.5109406E-019  0.1490613E+02  0.7818608E-02  0.1870947E+00
          2   -1    0    0  501    0  0.00000000000E+00  0.00000000000E+00  0.11882379053E+03  0.11882379056E+03  0.25500000000E-02 0. -1.
         -2   -1    0    0    0  501 -0.00000000000E+00 -0.00000000000E+00 -0.46747997492E+00  0.46748692971E+00  0.25500000000E-02 0.  1.
         31    1    1    2    0    0 -0.23941973347E+00 -0.15166225877E+00  0.58422755235E+02  0.58896159285E+02  0.74470750000E+01 0.  1.
        -31    1    1    2    0    0  0.23941973347E+00  0.15166225877E+00  0.59933555318E+02  0.60395118200E+02  0.74470750000E+01 0. -1.
<mgrwt>
<rscale>  0 0.14906127E+02</rscale>
<asrwt>0</asrwt>
<pdfrwt beam="1">  1        2 0.98638375E+00 0.14906127E+02</pdfrwt>
<pdfrwt beam="2">  1       -2 0.99286028E+00 0.14906127E+02</pdfrwt>
<totfact>-0.23627544E-13</totfact>
</mgrwt>
</event>
<event>
 4    1 -0.5109406E-019  0.1494044E+02  0.7818608E-02  0.1869892E+00
         -2   -1    0    0    0  501 -0.00000000000E+00  0.00000000000E+00  0.12032314176E+03  0.12032314178E+03  0.25500000000E-02 0. -1.
          2   -1    0    0  501    0  0.00000000000E+00 -0.00000000000E+00 -0.46378231696E+00  0.46378932720E+00  0.25500000000E-02 0.  1.
         31    1    1    2    0    0 -0.13401905910E+00 -0.52406274581E-02  0.64554558229E+02  0.64982827753E+02  0.74470750000E+01 0. -1.
        -31    1    1    2    0    0  0.13401905910E+00  0.52406274581E-02  0.55304801210E+02  0.55804103357E+02  0.74470750000E+01 0.  1.
<mgrwt>
<rscale>  0 0.14940438E+02</rscale>
<asrwt>0</asrwt>
<pdfrwt beam="2">  1        2 0.98508536E+00 0.14940438E+02</pdfrwt>
<pdfrwt beam="1">  1       -2 0.99875086E+00 0.14940438E+02</pdfrwt>
<totfact>-0.13613579E-13</totfact>
</mgrwt>
</event>
<event>
 4    1 -0.5109406E-019  0.1490235E+02  0.7818608E-02  0.1871063E+00
          2   -1    0    0  501    0  0.00000000000E+00  0.00000000000E+00  0.11812133482E+03  0.11812133484E+03  0.25500000000E-02 0.  1.
         -2   -1    0    0    0  501 -0.00000000000E+00 -0.00000000000E+00 -0.47002205895E+00  0.47002897613E+00  0.25500000000E-02 0. -1.
         31    1    1    2    0    0 -0.88701381338E-01 -0.15219295800E-02  0.60661990798E+02  0.61117460058E+02  0.74470750000E+01 0.  1.
        -31    1    1    2    0    0  0.88701381338E-01  0.15219295800E-02  0.56989321959E+02  0.57473903762E+02  0.74470750000E+01 0. -1.
<mgrwt>
<rscale>  0 0.14902355E+02</rscale>
<asrwt>0</asrwt>
<pdfrwt beam="1">  1        2 0.98059637E+00 0.14902355E+02</pdfrwt>
<pdfrwt beam="2">  1       -2 0.99821456E+00 0.14902355E+02</pdfrwt>
<totfact>-0.39285235E-13</totfact>
</mgrwt>
</event>
<event>
 4    1 -0.5109406E-019  0.1494246E+02  0.7818608E-02  0.1869829E+00
         -2   -1    0    0    0  501 -0.00000000000E+00  0.00000000000E+00  0.11988728341E+03  0.11988728343E+03  0.25500000000E-02 0. -1.
          2   -1    0    0  501    0  0.00000000000E+00 -0.00000000000E+00 -0.46559443247E+00  0.46560141542E+00  0.25500000000E-02 0.  1.
         31    1    1    2    0    0  0.38851513158E+00 -0.45317374043E+00  0.59199086401E+02  0.59668643920E+02  0.74470750000E+01 0.  1.
        -31    1    1    2    0    0 -0.38851513158E+00  0.45317374043E+00  0.60222602574E+02  0.60684240930E+02  0.74470750000E+01 0.  1.
<mgrwt>
<rscale>  0 0.14942459E+02</rscale>
<asrwt>0</asrwt>
<pdfrwt beam="2">  1        2 0.98890559E+00 0.14942459E+02</pdfrwt>
<pdfrwt beam="1">  1       -2 0.99516186E+00 0.14942459E+02</pdfrwt>
<totfact>-0.19920769E-13</totfact>
</mgrwt>
</event>
<event>
 4    1 -0.5109406E-019  0.1496348E+02  0.7818608E-02  0.1869185E+00
         -2   -1    0    0    0  501 -0.00000000000E+00  0.00000000000E+00  0.12002238513E+03  0.12002238516E+03  0.25500000000E-02 0. -1.
          2   -1    0    0  501    0  0.00000000000E+00 -0.00000000000E+00 -0.46637990345E+00  0.46638687465E+00  0.25500000000E-02 0.  1.
         31    1    1    2    0    0 -0.40864945780E+00  0.24273049793E-01  0.64541335535E+02  0.64970843478E+02  0.74470750000E+01 0. -1.
        -31    1    1    2    0    0  0.40864945780E+00 -0.24273049793E-01  0.55014669692E+02  0.55517928554E+02  0.74470750000E+01 0.  1.
<mgrwt>
<rscale>  0 0.14963482E+02</rscale>
<asrwt>0</asrwt>
<pdfrwt beam="2">  1        2 0.99057173E+00 0.14963482E+02</pdfrwt>
<pdfrwt beam="1">  1       -2 0.99628547E+00 0.14963482E+02</pdfrwt>
<totfact>-0.15368488E-13</totfact>
</mgrwt>
</event>
<event>
 4    1 -0.5109406E-019  0.1498467E+02  0.7818608E-02  0.1868537E+00
          2   -1    0    0  501    0  0.00000000000E+00  0.00000000000E+00  0.12000521181E+03  0.12000521183E+03  0.25500000000E-02 0. -1.
         -2   -1    0    0    0  501 -0.00000000000E+00 -0.00000000000E+00 -0.46776835007E+00  0.46777530058E+00  0.25500000000E-02 0.  1.
         31    1    1    2    0    0  0.50158265140E+00 -0.23068594745E+00  0.54869530756E+02  0.55375347697E+02  0.74470750000E+01 0.  1.
        -31    1    1    2    0    0 -0.50158265140E+00  0.23068594745E+00  0.64667912702E+02  0.65097639438E+02  0.74470750000E+01 0.  1.
<mgrwt>
<rscale>  0 0.14984667E+02</rscale>
<asrwt>0</asrwt>
<pdfrwt beam="1">  1        2 0.99615495E+00 0.14984667E+02</pdfrwt>
<pdfrwt beam="2">  1       -2 0.99350869E+00 0.14984667E+02</pdfrwt>
<totfact>-0.96466510E-14</totfact>
</mgrwt>
</event>
<event>
 4    1  0.5109406E-019  0.1490036E+02  0.7818608E-02  0.1871124E+00
         -2   -1    0    0    0  501 -0.00000000000E+00  0.00000000000E+00  0.11793782442E+03  0.11793782445E+03  0.25500000000E-02 0. -1.
          2   -1    0    0  501    0  0.00000000000E+00 -0.00000000000E+00 -0.47062762809E+00  0.47063453637E+00  0.25500000000E-02 0.  1.
         31    1    1    2    0    0  0.11993471157E+00  0.15504068491E+00  0.59438178215E+02  0.59903208408E+02  0.74470750000E+01 0. -1.
        -31    1    1    2    0    0 -0.11993471157E+00 -0.15504068491E+00  0.58029018578E+02  0.58505250578E+02  0.74470750000E+01 0.  1.
<mgrwt>
<rscale>  0 0.14900364E+02</rscale>
<asrwt>0</asrwt>
<pdfrwt beam="2">  1        2 0.99948935E+00 0.14900364E+02</pdfrwt>
<pdfrwt beam="1">  1       -2 0.97908399E+00 0.14900364E+02</pdfrwt>
<totfact> 0.27162825E-13</totfact>
</mgrwt>
</event>
<event>
 4    1  0.5109406E-019  0.1492444E+02  0.7818608E-02  0.1870383E+00
         -2   -1    0    0    0  501 -0.00000000000E+00  0.00000000000E+00  0.11902967948E+03  0.11902967950E+03  0.25500000000E-02 0. -1.
          2   -1    0    0  501    0  0.00000000000E+00 -0.00000000000E+00 -0.46781839486E+00  0.46782534462E+00  0.25500000000E-02 0.  1.
         31    1    1    2    0    0  0.31863920892E-01  0.39739435304E+00  0.57211092522E+02  0.57695120861E+02  0.74470750000E+01 0.  1.
        -31    1    1    2    0    0 -0.31863920892E-01 -0.39739435304E+00  0.61350768559E+02  0.61802383986E+02  0.74470750000E+01 0. -1.
<mgrwt>
<rscale>  0 0.14924435E+02</rscale>
<asrwt>0</asrwt>
<pdfrwt beam="2">  1        2 0.99358295E+00 0.14924435E+02</pdfrwt>
<pdfrwt beam="1">  1       -2 0.98808898E+00 0.14924435E+02</pdfrwt>
<totfact> 0.16250741E-13</totfact>
</mgrwt>
</event>
<event>
 4    1  0.5109406E-019  0.1490272E+02  0.7818608E-02  0.1871052E+00
         -2   -1    0    0    0  501 -0.00000000000E+00  0.00000000000E+00  0.11852366309E+03  0.11852366312E+03  0.25500000000E-02 0.  1.
          2   -1    0    0  501    0  0.00000000000E+00 -0.00000000000E+00 -0.46844959503E+00  0.46845653543E+00  0.25500000000E-02 0. -1.
         31    1    1    2    0    0  0.17447347075E+00  0.14258667771E+00  0.59940735579E+02  0.60401998972E+02  0.74470750000E+01 0. -1.
        -31    1    1    2    0    0 -0.17447347075E+00 -0.14258667771E+00  0.58114477920E+02  0.58590120686E+02  0.74470750000E+01 0. -1.
<mgrwt>
<rscale>  0 0.14902721E+02</rscale>
<asrwt>0</asrwt>
<pdfrwt beam="2">  1        2 0.99490161E+00 0.14902721E+02</pdfrwt>
<pdfrwt beam="1">  1       -2 0.98391010E+00 0.14902721E+02</pdfrwt>
<totfact> 0.65164622E-13</totfact>
</mgrwt>
</event>
<event>
 4    1 -0.5109406E-019  0.1496695E+02  0.7818608E-02  0.1869079E+00
          2   -1    0    0  501    0  0.00000000000E+00  0.00000000000E+00  0.11954461685E+03  0.11954461688E+03  0.25500000000E-02 0. -1.
         -2   -1    0    0    0  501 -0.00000000000E+00 -0.00000000000E+00 -0.46846064799E+00  0.46846758822E+00  0.25500000000E-02 0.  1.
         31    1    1    2    0    0 -0.71787687218E+00 -0.72678535759E-01  0.58327003805E+02  0.58804922653E+02  0.74470750000E+01 0.  1.
        -31    1    1    2    0    0  0.71787687218E+00  0.72678535759E-01  0.60749152401E+02  0.61208161815E+02  0.74470750000E+01 0.  1.
<mgrwt>
<rscale>  0 0.14966946E+02</rscale>
<asrwt>0</asrwt>
<pdfrwt beam="1">  1        2 0.99235215E+00 0.14966946E+02</pdfrwt>
<pdfrwt beam="2">  1       -2 0.99495844E+00 0.14966946E+02</pdfrwt>
<totfact>-0.14764433E-13</totfact>
</mgrwt>
</event>
<event>
 4    1 -0.5109406E-019  0.1490232E+02  0.7818608E-02  0.1871064E+00
         -2   -1    0    0    0  501 -0.00000000000E+00  0.00000000000E+00  0.12020927105E+03  0.12020927107E+03  0.25500000000E-02 0.  1.
          2   -1    0    0  501    0  0.00000000000E+00 -0.00000000000E+00 -0.46185563203E+00  0.46186267151E+00  0.25500000000E-02 0. -1.
         31    1    1    2    0    0 -0.17810274056E+00 -0.14718598436E+00  0.59175028292E+02  0.59642235737E+02  0.74470750000E+01 0. -1.
        -31    1    1    2    0    0  0.17810274056E+00  0.14718598436E+00  0.60572387122E+02  0.61028898007E+02  0.74470750000E+01 0.  1.
<mgrwt>
<rscale>  0 0.14902316E+02</rscale>
<asrwt>0</asrwt>
<pdfrwt beam="2">  1        2 0.98100519E+00 0.14902316E+02</pdfrwt>
<pdfrwt beam="1">  1       -2 0.99779336E+00 0.14902316E+02</pdfrwt>
<totfact>-0.43531489E-13</totfact>
</mgrwt>
</event>
<event>
 4    1 -0.5109406E-019  0.1494881E+02  0.7818608E-02  0.1869635E+00
         -2   -1    0    0    0  501 -0.00000000000E+00  0.00000000000E+00  0.12029186186E+03  0.12029186189E+03  0.25500000000E-02 0.  1.
          2   -1    0    0  501    0  0.00000000000E+00 -0.00000000000E+00 -0.46442290012E+00  0.46442990069E+00  0.25500000000E-02 0. -1.
         31    1    1    2    0    0 -0.23131599791E+00 -0.43509579702E+00  0.63194796451E+02  0.63633984945E+02  0.74470750000E+01 0.  1.
        -31    1    1    2    0    0  0.23131599791E+00  0.43509579702E+00  0.56632642514E+02  0.57122306848E+02  0.74470750000E+01 0. -1.
<mgrwt>
<rscale>  0 0.14948809E+02</rscale>
<asrwt>0</asrwt>
<pdfrwt beam="2">  1        2 0.98643974E+00 0.14948809E+02</pdfrwt>
<pdfrwt beam="1">  1       -2 0.99849751E+00 0.14948809E+02</pdfrwt>
<totfact>-0.12968747E-13</totfact>
</mgrwt>
</event>
<event>
 4    1 -0.5109406E-019  0.1490097E+02  0.7818608E-02  0.1871106E+00
         -2   -1    0    0    0  501 -0.00000000000E+00  0.00000000000E+00  0.11944327787E+03  0.11944327790E+03  0.25500000000E-02 0.  1.
          2   -1    0    0  501    0  0.00000000000E+00 -0.00000000000E+00 -0.46473340282E+00  0.46474039872E+00  0.25500000000E-02 0. -1.
         31    1    1    2    0    0  0.12824166540E-03 -0.15535877717E+00  0.58175870098E+02  0.58650787924E+02  0.74470750000E+01 0. -1.
        -31    1    1    2    0    0 -0.12824166540E-03  0.15535877717E+00  0.60802674368E+02  0.61257230371E+02  0.74470750000E+01 0.  1.
<mgrwt>
<rscale>  0 0.14900967E+02</rscale>
<asrwt>0</asrwt>
<pdfrwt beam="2">  1        2 0.98706972E+00 0.14900967E+02</pdfrwt>
<pdfrwt beam="1">  1       -2 0.99148339E+00 0.14900967E+02</pdfrwt>
<totfact>-0.13004283E-13</totfact>
</mgrwt>
</event>
<event>
 4    1  0.5109406E-019  0.1489840E+02  0.7818608E-02  0.1871185E+00
          2   -1    0    0  501    0  0.00000000000E+00  0.00000000000E+00  0.11982536397E+03  0.11982536399E+03  0.25500000000E-02 0.  1.
         -2   -1    0    0    0  501 -0.00000000000E+00 -0.00000000000E+00 -0.46309220730E+00  0.46309922799E+00  0.25500000000E-02 0. -1.
         31    1    1    2    0    0 -0.36826418374E-01 -0.17407118665E+00  0.59727627732E+02  0.60190365487E+02  0.74470750000E+01 0.  1.
        -31    1    1    2    0    0  0.36826418374E-01  0.17407118665E+00  0.59634644029E+02  0.60098097736E+02  0.74470750000E+01 0.  1.
<mgrwt>
<rscale>  0 0.14898405E+02</rscale>
<asrwt>0</asrwt>
<pdfrwt beam="1">  1        2 0.99462918E+00 0.14898405E+02</pdfrwt>
<pdfrwt beam="2">  1       -2 0.98360953E+00 0.14898405E+02</pdfrwt>
<totfact> 0.71894935E-13</totfact>
</mgrwt>
</event>
<event>
 4    1 -0.5109406E-019  0.1494117E+02  0.7818608E-02  0.1869869E+00
         -2   -1    0    0    0  501 -0.00000000000E+00  0.00000000000E+00  0.11996094629E+03  0.11996094632E+03  0.25500000000E-02 0. -1.
          2   -1    0    0  501    0  0.00000000000E+00 -0.00000000000E+00 -0.46522797268E+00  0.46523496114E+00  0.25500000000E-02 0.  1.
         31    1    1    2    0    0  0.10543076283E+00  0.48705447538E+00  0.62326393635E+02  0.62771702281E+02  0.74470750000E+01 0.  1.
        -31    1    1    2    0    0 -0.10543076283E+00 -0.48705447538E+00  0.57169324685E+02  0.57654478999E+02  0.74470750000E+01 0.  1.
<mgrwt>
<rscale>  0 0.14941166E+02</rscale>
<asrwt>0</asrwt>
<pdfrwt beam="2">  1        2 0.98813261E+00 0.14941166E+02</pdfrwt>
<pdfrwt beam="1">  1       -2 0.99576792E+00 0.14941166E+02</pdfrwt>
<totfact>-0.21064288E-13</totfact>
</mgrwt>
</event>
<event>
 4    1  0.5109406E-019  0.1489703E+02  0.7818608E-02  0.1871227E+00
          2   -1    0    0  501    0  0.00000000000E+00  0.00000000000E+00  0.11962666135E+03  0.11962666138E+03  0.25500000000E-02 0.  1.
         -2   -1    0    0    0  501 -0.00000000000E+00 -0.00000000000E+00 -0.46377599960E+00  0.46378300994E+00  0.25500000000E-02 0. -1.
         31    1    1    2    0    0  0.85713036974E-01  0.10623446577E+00  0.59151954514E+02  0.59619051329E+02  0.74470750000E+01 0. -1.
        -31    1    1    2    0    0 -0.85713036974E-01 -0.10623446577E+00  0.60010930839E+02  0.60471393061E+02  0.74470750000E+01 0. -1.
<mgrwt>
<rscale>  0 0.14897033E+02</rscale>
<asrwt>0</asrwt>
<pdfrwt beam="1">  1        2 0.99299182E+00 0.14897033E+02</pdfrwt>
<pdfrwt beam="2">  1       -2 0.98504998E+00 0.14897033E+02</pdfrwt>
<totfact> 0.56476805E-13</totfact>
</mgrwt>
</event>
<event>
 4    1  0.5109406E-019  0.1490055E+02  0.7818608E-02  0.1871118E+00
          2   -1    0    0  501    0  0.00000000000E+00  0.00000000000E+00  0.12016841660E+03  0.12016841663E+03  0.25500000000E-02 0. -1.
         -2   -1    0    0    0  501 -0.00000000000E+00 -0.00000000000E+00 -0.46190319249E+00  0.46191023125E+00  0.25500000000E-02 0.  1.
         31    1    1    2    0    0  0.12159638687E+00 -0.84833039866E-01  0.58555593209E+02  0.59027437725E+02  0.74470750000E+01 0. -1.
        -31    1    1    2    0    0 -0.12159638687E+00  0.84833039866E-01  0.61150920197E+02  0.61602889132E+02  0.74470750000E+01 0. -1.
<mgrwt>
<rscale>  0 0.14900551E+02</rscale>
<asrwt>0</asrwt>
<pdfrwt beam="1">  1        2 0.99745594E+00 0.14900551E+02</pdfrwt>
<pdfrwt beam="2">  1       -2 0.98110455E+00 0.14900551E+02</pdfrwt>
<totfact> 0.76635002E-13</totfact>
</mgrwt>
</event>
<event>
 4    1  0.5109406E-019  0.1491551E+02  0.7818608E-02  0.1870658E+00
          2   -1    0    0  501    0  0.00000000000E+00  0.00000000000E+00  0.11990273334E+03  0.11990273337E+03  0.25500000000E-02 0. -1.
         -2   -1    0    0    0  501 -0.00000000000E+00 -0.00000000000E+00 -0.46385641471E+00  0.46386342383E+00  0.25500000000E-02 0.  1.
         31    1    1    2    0    0 -0.26793774342E+00  0.59072702127E-01  0.57382381820E+02  0.57864254507E+02  0.74470750000E+01 0.  1.
        -31    1    1    2    0    0  0.26793774342E+00 -0.59072702127E-01  0.62056495109E+02  0.62502342288E+02  0.74470750000E+01 0. -1.
<mgrwt>
<rscale>  0 0.14915505E+02</rscale>
<asrwt>0</asrwt>
<pdfrwt beam="1">  1        2 0.99527524E+00 0.14915505E+02</pdfrwt>
<pdfrwt beam="2">  1       -2 0.98522888E+00 0.14915505E+02</pdfrwt>
<totfact> 0.44064246E-13</totfact>
</mgrwt>
</event>
<event>
 4    1 -0.5109406E-019  0.1490411E+02  0.7818608E-02  0.1871009E+00
          2   -1    0    0  501    0  0.00000000000E+00  0.00000000000E+00  0.11845733181E+03  0.11845733184E+03  0.25500000000E-02 0. -1.
         -2   -1    0    0    0  501 -0.00000000000E+00 -0.00000000000E+00 -0.46879903173E+00  0.46880596696E+00  0.25500000000E-02 0.  1.
         31    1    1    2    0    0 -0.29553668794E-01  0.86810131370E-01  0.56948031034E+02  0.57432965918E+02  0.74470750000E+01 0.  1.
        -31    1    1    2    0    0  0.29553668794E-01 -0.86810131370E-01  0.61040501743E+02  0.61493171885E+02  0.74470750000E+01 0. -1.
<mgrwt>
<rscale>  0 0.14904106E+02</rscale>
<asrwt>0</asrwt>
<pdfrwt beam="1">  1        2 0.98336452E+00 0.14904106E+02</pdfrwt>
<pdfrwt beam="2">  1       -2 0.99563862E+00 0.14904106E+02</pdfrwt>
<totfact>-0.44159189E-13</totfact>
</mgrwt>
</event>
<event>
 4    1  0.5109406E-019  0.1490979E+02  0.7818608E-02  0.1870834E+00
          2   -1    0    0  501    0  0.00000000000E+00  0.00000000000E+00  0.12019062874E+03  0.12019062877E+03  0.25500000000E-02 0. -1.
         -2   -1    0    0    0  501 -0.00000000000E+00 -0.00000000000E+00 -0.46239075032E+00  0.46239778165E+00  0.25500000000E-02 0.  1.
         31    1    1    2    0    0 -0.16230391107E+00  0.12346341350E+00  0.57648732206E+02  0.58128107115E+02  0.74470750000E+01 0.  1.
        -31    1    1    2    0    0  0.16230391107E+00 -0.12346341350E+00  0.62079505786E+02  0.62524919435E+02  0.74470750000E+01 0. -1.
<mgrwt>
<rscale>  0 0.14909790E+02</rscale>
<asrwt>0</asrwt>
<pdfrwt beam="1">  1        2 0.99764364E+00 0.14909790E+02</pdfrwt>
<pdfrwt beam="2">  1       -2 0.98213686E+00 0.14909790E+02</pdfrwt>
<totfact> 0.59409180E-13</totfact>
</mgrwt>
</event>
<event>
 4    1 -0.5109406E-019  0.1492667E+02  0.7818608E-02  0.1870315E+00
          2   -1    0    0  501    0  0.00000000000E+00  0.00000000000E+00  0.11859797898E+03  0.11859797901E+03  0.25500000000E-02 0.  1.
         -2   -1    0    0    0  501 -0.00000000000E+00 -0.00000000000E+00 -0.46966182832E+00  0.46966875080E+00  0.25500000000E-02 0. -1.
         31    1    1    2    0    0  0.31803365292E+00 -0.90919533324E-01  0.56154857485E+02  0.56647474409E+02  0.74470750000E+01 0.  1.
        -31    1    1    2    0    0 -0.31803365292E+00  0.90919533324E-01  0.61973459671E+02  0.62420173353E+02  0.74470750000E+01 0.  1.
<mgrwt>
<rscale>  0 0.14926668E+02</rscale>
<asrwt>0</asrwt>
<pdfrwt beam="1">  1        2 0.98453462E+00 0.14926668E+02</pdfrwt>
<pdfrwt beam="2">  1       -2 0.99746844E+00 0.14926668E+02</pdfrwt>
<totfact>-0.26681059E-13</totfact>
</mgrwt>
</event>
<event>
 4    1  0.5109406E-019  0.1490126E+02  0.7818608E-02  0.1871097E+00
          2   -1    0    0  501    0  0.00000000000E+00  0.00000000000E+00  0.12002425763E+03  0.12002425766E+03  0.25500000000E-02 0. -1.
         -2   -1    0    0    0  501 -0.00000000000E+00 -0.00000000000E+00 -0.46250217278E+00  0.46250920242E+00  0.25500000000E-02 0.  1.
         31    1    1    2    0    0 -0.69391196527E-01 -0.15425130381E-01  0.61550993112E+02  0.61999909130E+02  0.74470750000E+01 0. -1.
        -31    1    1    2    0    0  0.69391196527E-01  0.15425130381E-01  0.58010762345E+02  0.58486857728E+02  0.74470750000E+01 0.  1.
<mgrwt>
<rscale>  0 0.14901262E+02</rscale>
<asrwt>0</asrwt>
<pdfrwt beam="1">  1        2 0.99626889E+00 0.14901262E+02</pdfrwt>
<pdfrwt beam="2">  1       -2 0.98236739E+00 0.14901262E+02</pdfrwt>
<totfact> 0.77344121E-13</totfact>
</mgrwt>
</event>
<event>
 4    1 -0.5109406E-019  0.1499887E+02  0.7818608E-02  0.1868103E+00
          2   -1    0    0  501    0  0.00000000000E+00  0.00000000000E+00  0.12012082338E+03  0.12012082341E+03  0.25500000000E-02 0. -1.
         -2   -1    0    0    0  501 -0.00000000000E+00 -0.00000000000E+00 -0.46820439674E+00  0.46821134077E+00  0.25500000000E-02 0.  1.
         31    1    1    2    0    0  0.45353843421E+00  0.61878232162E+00  0.56285082257E+02  0.56780788999E+02  0.74470750000E+01 0.  1.
        -31    1    1    2    0    0 -0.45353843421E+00 -0.61878232162E+00  0.63367536728E+02  0.63808245750E+02  0.74470750000E+01 0. -1.
<mgrwt>
<rscale>  0 0.14998869E+02</rscale>
<asrwt>0</asrwt>
<pdfrwt beam="1">  1        2 0.99711451E+00 0.14998869E+02</pdfrwt>
<pdfrwt beam="2">  1       -2 0.99443493E+00 0.14998869E+02</pdfrwt>
<totfact>-0.85611072E-14</totfact>
</mgrwt>
</event>
<event>
 4    1 -0.5109406E-019  0.1494814E+02  0.7818608E-02  0.1869655E+00
         -2   -1    0    0    0  501 -0.00000000000E+00  0.00000000000E+00  0.11937830850E+03  0.11937830852E+03  0.25500000000E-02 0.  1.
          2   -1    0    0  501    0  0.00000000000E+00 -0.00000000000E+00 -0.46793516968E+00  0.46794211770E+00  0.25500000000E-02 0. -1.
         31    1    1    2    0    0 -0.19098165097E+00  0.16886254249E+00  0.54795302930E+02  0.55299630539E+02  0.74470750000E+01 0. -1.
        -31    1    1    2    0    0  0.19098165097E+00 -0.16886254249E+00  0.64115070396E+02  0.64546620101E+02  0.74470750000E+01 0.  1.
<mgrwt>
<rscale>  0 0.14948141E+02</rscale>
<asrwt>0</asrwt>
<pdfrwt beam="2">  1        2 0.99384135E+00 0.14948141E+02</pdfrwt>
<pdfrwt beam="1">  1       -2 0.99097265E+00 0.14948141E+02</pdfrwt>
<totfact>-0.44990869E-14</totfact>
</mgrwt>
</event>
<event>
 4    1 -0.5109406E-019  0.1492465E+02  0.7818608E-02  0.1870377E+00
         -2   -1    0    0    0  501 -0.00000000000E+00  0.00000000000E+00  0.11984530698E+03  0.11984530701E+03  0.25500000000E-02 0. -1.
          2   -1    0    0  501    0  0.00000000000E+00 -0.00000000000E+00 -0.46464786625E+00  0.46465486343E+00  0.25500000000E-02 0.  1.
         31    1    1    2    0    0  0.18375943614E+00 -0.44015384383E-01  0.56161256263E+02  0.56653167043E+02  0.74470750000E+01 0.  1.
        -31    1    1    2    0    0 -0.18375943614E+00  0.44015384383E-01  0.63219402853E+02  0.63656794830E+02  0.74470750000E+01 0. -1.
<mgrwt>
<rscale>  0 0.14924649E+02</rscale>
<asrwt>0</asrwt>
<pdfrwt beam="2">  1        2 0.98690158E+00 0.14924649E+02</pdfrwt>
<pdfrwt beam="1">  1       -2 0.99480694E+00 0.14924649E+02</pdfrwt>
<totfact>-0.25977943E-13</totfact>
</mgrwt>
</event>
<event>
 4    1 -0.5109406E-019  0.1501608E+02  0.7818608E-02  0.1867578E+00
          2   -1    0    0  501    0  0.00000000000E+00  0.00000000000E+00  0.11995820543E+03  0.11995820546E+03  0.25500000000E-02 0. -1.
         -2   -1    0    0    0  501 -0.00000000000E+00 -0.00000000000E+00 -0.46991555353E+00  0.46992247228E+00  0.25500000000E-02 0.  1.
         31    1    1    2    0    0 -0.10096550397E+00 -0.73626083751E-01  0.67336047244E+02  0.67746717997E+02  0.74470750000E+01 0. -1.
        -31    1    1    2    0    0  0.10096550397E+00  0.73626083751E-01  0.52152242631E+02  0.52681409931E+02  0.74470750000E+01 0.  1.
<mgrwt>
<rscale>  0 0.15016077E+02</rscale>
<asrwt>0</asrwt>
<pdfrwt beam="1">  1        2 0.99578402E+00 0.15016077E+02</pdfrwt>
<pdfrwt beam="2">  1       -2 0.99804983E+00 0.15016077E+02</pdfrwt>
<totfact>-0.63375496E-14</totfact>
</mgrwt>
</event>
<event>
 4    1 -0.5109406E-019  0.1496485E+02  0.7818608E-02  0.1869143E+00
          2   -1    0    0  501    0  0.00000000000E+00  0.00000000000E+00  0.11926105778E+03  0.11926105781E+03  0.25500000000E-02 0. -1.
         -2   -1    0    0    0  501 -0.00000000000E+00 -0.00000000000E+00 -0.46944284411E+00  0.46944976982E+00  0.25500000000E-02 0.  1.
         31    1    1    2    0    0  0.46562315426E+00  0.55675178782E+00  0.59147542303E+02  0.59618935449E+02  0.74470750000E+01 0.  1.
        -31    1    1    2    0    0 -0.46562315426E+00 -0.55675178782E+00  0.59644072634E+02  0.60111572130E+02  0.74470750000E+01 0.  1.
<mgrwt>
<rscale>  0 0.14964848E+02</rscale>
<asrwt>0</asrwt>
<pdfrwt beam="1">  1        2 0.99001561E+00 0.14964848E+02</pdfrwt>
<pdfrwt beam="2">  1       -2 0.99702705E+00 0.14964848E+02</pdfrwt>
<totfact>-0.14199766E-13</totfact>
</mgrwt>
</event>
<event>
 4    1  0.5109406E-019  0.1490993E+02  0.7818608E-02  0.1870830E+00
         -2   -1    0    0    0  501 -0.00000000000E+00  0.00000000000E+00  0.11856665235E+03  0.11856665238E+03  0.25500000000E-02 0. -1.
          2   -1    0    0  501    0  0.00000000000E+00 -0.00000000000E+00 -0.46873286882E+00  0.46873980503E+00  0.25500000000E-02 0.  1.
         31    1    1    2    0    0 -0.14909398117E+00  0.30868913366E+00  0.58988415304E+02  0.59457628477E+02  0.74470750000E+01 0.  1.
        -31    1    1    2    0    0  0.14909398117E+00 -0.30868913366E+00  0.59109504179E+02  0.59577763707E+02  0.74470750000E+01 0.  1.
<mgrwt>
<rscale>  0 0.14909930E+02</rscale>
<asrwt>0</asrwt>
<pdfrwt beam="2">  1        2 0.99550227E+00 0.14909930E+02</pdfrwt>
<pdfrwt beam="1">  1       -2 0.98426791E+00 0.14909930E+02</pdfrwt>
<totfact> 0.55783836E-13</totfact>
</mgrwt>
</event>
<event>
 4    1  0.5109406E-019  0.1491638E+02  0.7818608E-02  0.1870631E+00
         -2   -1    0    0    0  501 -0.00000000000E+00  0.00000000000E+00  0.11814326129E+03  0.11814326132E+03  0.25500000000E-02 0.  1.
          2   -1    0    0  501    0  0.00000000000E+00 -0.00000000000E+00 -0.47081963239E+00  0.47082653785E+00  0.25500000000E-02 0. -1.
         31    1    1    2    0    0  0.25989078493E+00 -0.31287568902E+00  0.58718933051E+02  0.59190687267E+02  0.74470750000E+01 0.  1.
        -31    1    1    2    0    0 -0.25989078493E+00  0.31287568902E+00  0.58953508604E+02  0.59423400586E+02  0.74470750000E+01 0.  1.
<mgrwt>
<rscale>  0 0.14916377E+02</rscale>
<asrwt>0</asrwt>
<pdfrwt beam="2">  1        2 0.99990241E+00 0.14916377E+02</pdfrwt>
<pdfrwt beam="1">  1       -2 0.98078427E+00 0.14916377E+02</pdfrwt>
<totfact> 0.40834715E-14</totfact>
</mgrwt>
</event>
<event>
 4    1  0.5109406E-019  0.1494909E+02  0.7818608E-02  0.1869626E+00
          2   -1    0    0  501    0  0.00000000000E+00  0.00000000000E+00  0.12023632114E+03  0.12023632117E+03  0.25500000000E-02 0.  1.
         -2   -1    0    0    0  501 -0.00000000000E+00 -0.00000000000E+00 -0.46465478585E+00  0.46466178293E+00  0.25500000000E-02 0. -1.
         31    1    1    2    0    0 -0.33771672251E+00  0.26304751507E+00  0.56042057783E+02  0.56536310573E+02  0.74470750000E+01 0. -1.
        -31    1    1    2    0    0  0.33771672251E+00 -0.26304751507E+00  0.63729608575E+02  0.64164672381E+02  0.74470750000E+01 0. -1.
<mgrwt>
<rscale>  0 0.14949088E+02</rscale>
<asrwt>0</asrwt>
<pdfrwt beam="1">  1        2 0.99804018E+00 0.14949088E+02</pdfrwt>
<pdfrwt beam="2">  1       -2 0.98692861E+00 0.14949088E+02</pdfrwt>
<totfact> 0.13684331E-13</totfact>
</mgrwt>
</event>
<event>
 4    1  0.5109406E-019  0.1493866E+02  0.7818608E-02  0.1869946E+00
          2   -1    0    0  501    0  0.00000000000E+00  0.00000000000E+00  0.12020083523E+03  0.12020083526E+03  0.25500000000E-02 0. -1.
         -2   -1    0    0    0  501 -0.00000000000E+00 -0.00000000000E+00 -0.46414369347E+00  0.46415069825E+00  0.25500000000E-02 0.  1.
         31    1    1    2    0    0  0.62115092335E-01  0.23052242731E+00  0.55632856626E+02  0.56129588109E+02  0.74470750000E+01 0.  1.
        -31    1    1    2    0    0 -0.62115092335E-01 -0.23052242731E+00  0.64103834913E+02  0.64535397848E+02  0.74470750000E+01 0. -1.
<mgrwt>
<rscale>  0 0.14938659E+02</rscale>
<asrwt>0</asrwt>
<pdfrwt beam="1">  1        2 0.99774253E+00 0.14938659E+02</pdfrwt>
<pdfrwt beam="2">  1       -2 0.98584612E+00 0.14938659E+02</pdfrwt>
<totfact> 0.22610291E-13</totfact>
</mgrwt>
</event>
<event>
 4    1 -0.5109406E-019  0.1493408E+02  0.7818608E-02  0.1870087E+00
          2   -1    0    0  501    0  0.00000000000E+00  0.00000000000E+00  0.11892545244E+03  0.11892545246E+03  0.25500000000E-02 0.  1.
         -2   -1    0    0    0  501 -0.00000000000E+00 -0.00000000000E+00 -0.46883359803E+00  0.46884053274E+00  0.25500000000E-02 0. -1.
         31    1    1    2    0    0  0.36817404577E+00  0.24157928739E+00  0.56652252795E+02  0.57141321174E+02  0.74470750000E+01 0. -1.
        -31    1    1    2    0    0 -0.36817404577E+00 -0.24157928739E+00  0.61804366043E+02  0.62252971822E+02  0.74470750000E+01 0. -1.
<mgrwt>
<rscale>  0 0.14934077E+02</rscale>
<asrwt>0</asrwt>
<pdfrwt beam="1">  1        2 0.98723555E+00 0.14934077E+02</pdfrwt>
<pdfrwt beam="2">  1       -2 0.99572719E+00 0.14934077E+02</pdfrwt>
<totfact>-0.23804700E-13</totfact>
</mgrwt>
</event>
<event>
 4    1 -0.5109406E-019  0.1492520E+02  0.7818608E-02  0.1870360E+00
         -2   -1    0    0    0  501 -0.00000000000E+00  0.00000000000E+00  0.12003868665E+03  0.12003868668E+03  0.25500000000E-02 0.  1.
          2   -1    0    0  501    0  0.00000000000E+00 -0.00000000000E+00 -0.46393338495E+00  0.46394039291E+00  0.25500000000E-02 0. -1.
         31    1    1    2    0    0 -0.45108442166E+00  0.16691019096E+00  0.59874284800E+02  0.60337552507E+02  0.74470750000E+01 0.  1.
        -31    1    1    2    0    0  0.45108442166E+00 -0.16691019096E+00  0.59700468463E+02  0.60165074561E+02  0.74470750000E+01 0.  1.
<mgrwt>
<rscale>  0 0.14925197E+02</rscale>
<asrwt>0</asrwt>
<pdfrwt beam="2">  1        2 0.98539603E+00 0.14925197E+02</pdfrwt>
<pdfrwt beam="1">  1       -2 0.99640003E+00 0.14925197E+02</pdfrwt>
<totfact>-0.29061909E-13</totfact>
</mgrwt>
</event>
<event>
 4    1 -0.5109406E-019  0.1496065E+02  0.7818608E-02  0.1869272E+00
         -2   -1    0    0    0  501 -0.00000000000E+00  0.00000000000E+00  0.11997854373E+03  0.11997854375E+03  0.25500000000E-02 0. -1.
          2   -1    0    0  501    0  0.00000000000E+00 -0.00000000000E+00 -0.46637397131E+00  0.46638094259E+00  0.25500000000E-02 0.  1.
         31    1    1    2    0    0 -0.11020568359E+00  0.69357024648E+00  0.59302065570E+02  0.59771959077E+02  0.74470750000E+01 0.  1.
        -31    1    1    2    0    0  0.11020568359E+00 -0.69357024648E+00  0.60210104186E+02  0.60672965620E+02  0.74470750000E+01 0. -1.
<mgrwt>
<rscale>  0 0.14960654E+02</rscale>
<asrwt>0</asrwt>
<pdfrwt beam="2">  1        2 0.99055778E+00 0.14960654E+02</pdfrwt>
<pdfrwt beam="1">  1       -2 0.99592291E+00 0.14960654E+02</pdfrwt>
<totfact>-0.16053884E-13</totfact>
</mgrwt>
</event>
<event>
 4    1 -0.5109406E-019  0.1491634E+02  0.7818608E-02  0.1870632E+00
          2   -1    0    0  501    0  0.00000000000E+00  0.00000000000E+00  0.11832764946E+03  0.11832764949E+03  0.25500000000E-02 0. -1.
         -2   -1    0    0    0  501 -0.00000000000E+00 -0.00000000000E+00 -0.47008377649E+00  0.47009069276E+00  0.25500000000E-02 0.  1.
         31    1    1    2    0    0  0.48283053352E-01 -0.40206274016E+00  0.59227736503E+02  0.59695457809E+02  0.74470750000E+01 0.  1.
        -31    1    1    2    0    0 -0.48283053352E-01  0.40206274016E+00  0.58629829180E+02  0.59102282371E+02  0.74470750000E+01 0.  1.
<mgrwt>
<rscale>  0 0.14916343E+02</rscale>
<asrwt>0</asrwt>
<pdfrwt beam="1">  1        2 0.98230283E+00 0.14916343E+02</pdfrwt>
<pdfrwt beam="2">  1       -2 0.99835201E+00 0.14916343E+02</pdfrwt>
<totfact>-0.27583412E-13</totfact>
</mgrwt>
</event>
<event>
 4    1 -0.5109406E-019  0.1491950E+02  0.7818608E-02  0.1870535E+00
          2   -1    0    0  501    0  0.00000000000E+00  0.00000000000E+00  0.11852730785E+03  0.11852730788E+03  0.25500000000E-02 0. -1.
         -2   -1    0    0    0  501 -0.00000000000E+00 -0.00000000000E+00 -0.46949059895E+00  0.46949752395E+00  0.25500000000E-02 0.  1.
         31    1    1    2    0    0  0.32525463647E+00 -0.65754562899E-01  0.56789532138E+02  0.57276696839E+02  0.74470750000E+01 0.  1.
        -31    1    1    2    0    0 -0.32525463647E+00  0.65754562899E-01  0.61268285111E+02  0.61720108561E+02  0.74470750000E+01 0. -1.
<mgrwt>
<rscale>  0 0.14919500E+02</rscale>
<asrwt>0</asrwt>
<pdfrwt beam="1">  1        2 0.98394884E+00 0.14919500E+02</pdfrwt>
<pdfrwt beam="2">  1       -2 0.99710387E+00 0.14919500E+02</pdfrwt>
<totfact>-0.32304679E-13</totfact>
</mgrwt>
</event>
<event>
 4    1  0.5109406E-019  0.1490844E+02  0.7818608E-02  0.1870875E+00
         -2   -1    0    0    0  501 -0.00000000000E+00  0.00000000000E+00  0.11863637140E+03  0.11863637143E+03  0.25500000000E-02 0.  1.
          2   -1    0    0  501    0  0.00000000000E+00 -0.00000000000E+00 -0.46836365901E+00  0.46837060068E+00  0.25500000000E-02 0. -1.
         31    1    1    2    0    0 -0.79141544468E-01 -0.94711583933E-01  0.61496922470E+02  0.61946312505E+02  0.74470750000E+01 0.  1.
        -31    1    1    2    0    0  0.79141544468E-01  0.94711583933E-01  0.56671085275E+02  0.57158429527E+02  0.74470750000E+01 0. -1.
<mgrwt>
<rscale>  0 0.14908438E+02</rscale>
<asrwt>0</asrwt>
<pdfrwt beam="2">  1        2 0.99472354E+00 0.14908438E+02</pdfrwt>
<pdfrwt beam="1">  1       -2 0.98484134E+00 0.14908438E+02</pdfrwt>
<totfact> 0.52086965E-13</totfact>
</mgrwt>
</event>
<event>
 4    1 -0.5109406E-019  0.1495219E+02  0.7818608E-02  0.1869531E+00
         -2   -1    0    0    0  501 -0.00000000000E+00  0.00000000000E+00  0.12002841250E+03  0.12002841253E+03  0.25500000000E-02 0.  1.
          2   -1    0    0  501    0  0.00000000000E+00 -0.00000000000E+00 -0.46565262179E+00  0.46565960388E+00  0.25500000000E-02 0. -1.
         31    1    1    2    0    0  0.57943376830E+00 -0.30194907379E+00  0.59150720337E+02  0.59621250902E+02  0.74470750000E+01 0. -1.
        -31    1    1    2    0    0 -0.57943376830E+00  0.30194907379E+00  0.60412039546E+02  0.60872821233E+02  0.74470750000E+01 0. -1.
<mgrwt>
<rscale>  0 0.14952186E+02</rscale>
<asrwt>0</asrwt>
<pdfrwt beam="2">  1        2 0.98903320E+00 0.14952186E+02</pdfrwt>
<pdfrwt beam="1">  1       -2 0.99632929E+00 0.14952186E+02</pdfrwt>
<totfact>-0.17780958E-13</totfact>
</mgrwt>
</event>
<event>
 4    1  0.5109406E-019  0.1490662E+02  0.7818608E-02  0.1870932E+00
          2   -1    0    0  501    0  0.00000000000E+00  0.00000000000E+00  0.11993992246E+03  0.11993992248E+03  0.25500000000E-02 0. -1.
         -2   -1    0    0    0  501 -0.00000000000E+00 -0.00000000000E+00 -0.46316015058E+00  0.46316717023E+00  0.25500000000E-02 0.  1.
         31    1    1    2    0    0  0.45562284395E-01  0.21845734626E+00  0.58061691429E+02  0.58537754801E+02  0.74470750000E+01 0.  1.
        -31    1    1    2    0    0 -0.45562284395E-01 -0.21845734626E+00  0.61415070876E+02  0.61865334852E+02  0.74470750000E+01 0. -1.
<mgrwt>
<rscale>  0 0.14906618E+02</rscale>
<asrwt>0</asrwt>
<pdfrwt beam="1">  1        2 0.99557699E+00 0.14906618E+02</pdfrwt>
<pdfrwt beam="2">  1       -2 0.98375690E+00 0.14906618E+02</pdfrwt>
<totfact> 0.62712003E-13</totfact>
</mgrwt>
</event>
<event>
 4    1 -0.5109406E-019  0.1499148E+02  0.7818608E-02  0.1868329E+00
         -2   -1    0    0    0  501 -0.00000000000E+00  0.00000000000E+00  0.12016280575E+03  0.12016280577E+03  0.25500000000E-02 0.  1.
          2   -1    0    0  501    0  0.00000000000E+00 -0.00000000000E+00 -0.46757977315E+00  0.46758672646E+00  0.25500000000E-02 0. -1.
         31    1    1    2    0    0  0.83437281253E+00  0.38544803511E-01  0.61230334089E+02  0.61687198043E+02  0.74470750000E+01 0.  1.
        -31    1    1    2    0    0 -0.83437281253E+00 -0.38544803511E-01  0.58464891886E+02  0.58943194459E+02  0.74470750000E+01 0. -1.
<mgrwt>
<rscale>  0 0.14991480E+02</rscale>
<asrwt>0</asrwt>
<pdfrwt beam="2">  1        2 0.99311478E+00 0.14991480E+02</pdfrwt>
<pdfrwt beam="1">  1       -2 0.99745649E+00 0.14991480E+02</pdfrwt>
<totfact>-0.99886430E-14</totfact>
</mgrwt>
</event>
<event>
 4    1 -0.5109406E-019  0.1491509E+02  0.7818608E-02  0.1870671E+00
         -2   -1    0    0    0  501 -0.00000000000E+00  0.00000000000E+00  0.11968377799E+03  0.11968377802E+03  0.25500000000E-02 0.  1.
          2   -1    0    0  501    0  0.00000000000E+00 -0.00000000000E+00 -0.46467899234E+00  0.46468598906E+00  0.25500000000E-02 0. -1.
         31    1    1    2    0    0 -0.24242945570E+00 -0.28995791937E+00  0.58684547448E+02  0.59156384971E+02  0.74470750000E+01 0. -1.
        -31    1    1    2    0    0  0.24242945570E+00  0.28995791937E+00  0.60534551553E+02  0.60992079038E+02  0.74470750000E+01 0. -1.
<mgrwt>
<rscale>  0 0.14915088E+02</rscale>
<asrwt>0</asrwt>
<pdfrwt beam="2">  1        2 0.98696229E+00 0.14915088E+02</pdfrwt>
<pdfrwt beam="1">  1       -2 0.99347156E+00 0.14915088E+02</pdfrwt>
<totfact>-0.23937744E-13</totfact>
</mgrwt>
</event>
<event>
 4    1  0.5109406E-019  0.1492665E+02  0.7818608E-02  0.1870315E+00
         -2   -1    0    0    0  501 -0.00000000000E+00  0.00000000000E+00  0.11869502215E+03  0.11869502217E+03  0.25500000000E-02 0. -1.
          2   -1    0    0  501    0  0.00000000000E+00 -0.00000000000E+00 -0.46927689689E+00  0.46928382506E+00  0.25500000000E-02 0.  1.
         31    1    1    2    0    0 -0.20553894707E+00  0.31248965019E+00  0.56557909689E+02  0.57047313438E+02  0.74470750000E+01 0.  1.
        -31    1    1    2    0    0  0.20553894707E+00 -0.31248965019E+00  0.61667835560E+02  0.62116992561E+02  0.74470750000E+01 0. -1.
<mgrwt>
<rscale>  0 0.14926653E+02</rscale>
<asrwt>0</asrwt>
<pdfrwt beam="2">  1        2 0.99665736E+00 0.14926653E+02</pdfrwt>
<pdfrwt beam="1">  1       -2 0.98533386E+00 0.14926653E+02</pdfrwt>
<totfact> 0.34882185E-13</totfact>
</mgrwt>
</event>
<event>
 4    1 -0.5109406E-019  0.1499117E+02  0.7818608E-02  0.1868338E+00
         -2   -1    0    0    0  501 -0.00000000000E+00  0.00000000000E+00  0.11960968382E+03  0.11960968384E+03  0.25500000000E-02 0.  1.
          2   -1    0    0  501    0  0.00000000000E+00 -0.00000000000E+00 -0.46972233687E+00  0.46972925846E+00  0.25500000000E-02 0. -1.
         31    1    1    2    0    0  0.46664876616E+00 -0.56917808829E+00  0.62997541314E+02  0.63440451310E+02  0.74470750000E+01 0. -1.
        -31    1    1    2    0    0 -0.46664876616E+00  0.56917808829E+00  0.56142420166E+02  0.56638961792E+02  0.74470750000E+01 0. -1.
<mgrwt>
<rscale>  0 0.14991165E+02</rscale>
<asrwt>0</asrwt>
<pdfrwt beam="2">  1        2 0.99762973E+00 0.14991165E+02</pdfrwt>
<pdfrwt beam="1">  1       -2 0.99290060E+00 0.14991165E+02</pdfrwt>
<totfact>-0.63447396E-14</totfact>
</mgrwt>
</event>
<event>
 4    1  0.5109406E-019  0.1491658E+02  0.7818608E-02  0.1870625E+00
         -2   -1    0    0    0  501 -0.00000000000E+00  0.00000000000E+00  0.11847985541E+03  0.11847985544E+03  0.25500000000E-02 0.  1.
          2   -1    0    0  501    0  0.00000000000E+00 -0.00000000000E+00 -0.46949453459E+00  0.46950145954E+00  0.25500000000E-02 0. -1.
         31    1    1    2    0    0 -0.34674013829E+00 -0.16850024171E-01  0.60726954371E+02  0.61182860557E+02  0.74470750000E+01 0. -1.
        -31    1    1    2    0    0  0.34674013829E+00  0.16850024171E-01  0.57283406506E+02  0.57766496342E+02  0.74470750000E+01 0. -1.
<mgrwt>
<rscale>  0 0.14916576E+02</rscale>
<asrwt>0</asrwt>
<pdfrwt beam="2">  1        2 0.99711062E+00 0.14916576E+02</pdfrwt>
<pdfrwt beam="1">  1       -2 0.98355651E+00 0.14916576E+02</pdfrwt>
<totfact> 0.50517115E-13</totfact>
</mgrwt>
</event>
<event>
 4    1 -0.5109406E-019  0.1492695E+02  0.7818608E-02  0.1870306E+00
          2   -1    0    0  501    0  0.00000000000E+00  0.00000000000E+00  0.11889423241E+03  0.11889423244E+03  0.25500000000E-02 0.  1.
         -2   -1    0    0    0  501 -0.00000000000E+00 -0.00000000000E+00 -0.46850895289E+00  0.46851589241E+00  0.25500000000E-02 0. -1.
         31    1    1    2    0    0  0.17228507415E-02 -0.39574741475E+00  0.61583419227E+02  0.62033322245E+02  0.74470750000E+01 0.  1.
        -31    1    1    2    0    0 -0.17228507415E-02  0.39574741475E+00  0.56842304229E+02  0.57329426084E+02  0.74470750000E+01 0. -1.
<mgrwt>
<rscale>  0 0.14926946E+02</rscale>
<asrwt>0</asrwt>
<pdfrwt beam="1">  1        2 0.98697472E+00 0.14926946E+02</pdfrwt>
<pdfrwt beam="2">  1       -2 0.99503938E+00 0.14926946E+02</pdfrwt>
<totfact>-0.25618742E-13</totfact>
</mgrwt>
</event>
<event>
 4    1  0.5109406E-019  0.1490301E+02  0.7818608E-02  0.1871043E+00
         -2   -1    0    0    0  501 -0.00000000000E+00  0.00000000000E+00  0.11827110685E+03  0.11827110688E+03  0.25500000000E-02 0. -1.
          2   -1    0    0  501    0  0.00000000000E+00 -0.00000000000E+00 -0.46946782426E+00  0.46947474961E+00  0.25500000000E-02 0.  1.
         31    1    1    2    0    0 -0.15962561269E+00 -0.15491187844E+00  0.59923896215E+02  0.60385277524E+02  0.74470750000E+01 0. -1.
        -31    1    1    2    0    0  0.15962561269E+00  0.15491187844E+00  0.57877742811E+02  0.58355304103E+02  0.74470750000E+01 0.  1.
<mgrwt>
<rscale>  0 0.14903005E+02</rscale>
<asrwt>0</asrwt>
<pdfrwt beam="2">  1        2 0.99704718E+00 0.14903005E+02</pdfrwt>
<pdfrwt beam="1">  1       -2 0.98183021E+00 0.14903005E+02</pdfrwt>
<totfact> 0.74123113E-13</totfact>
</mgrwt>
</event>
<event>
 4    1  0.5109406E-019  0.1495746E+02  0.7818608E-02  0.1869369E+00
         -2   -1    0    0    0  501 -0.00000000000E+00  0.00000000000E+00  0.11915102498E+03  0.11915102501E+03  0.25500000000E-02 0. -1.
          2   -1    0    0  501    0  0.00000000000E+00 -0.00000000000E+00 -0.46941257246E+00  0.46941949862E+00  0.25500000000E-02 0.  1.
         31    1    1    2    0    0  0.66166369428E+00  0.85274855779E-01  0.60664808940E+02  0.61123833653E+02  0.74470750000E+01 0. -1.
        -31    1    1    2    0    0 -0.66166369428E+00 -0.85274855779E-01  0.58016803471E+02  0.58496610857E+02  0.74470750000E+01 0.  1.
<mgrwt>
<rscale>  0 0.14957460E+02</rscale>
<asrwt>0</asrwt>
<pdfrwt beam="2">  1        2 0.99695940E+00 0.14957460E+02</pdfrwt>
<pdfrwt beam="1">  1       -2 0.98910553E+00 0.14957460E+02</pdfrwt>
<totfact> 0.48439780E-14</totfact>
</mgrwt>
</event>
<event>
 4    1  0.5109406E-019  0.1491493E+02  0.7818608E-02  0.1870676E+00
         -2   -1    0    0    0  501 -0.00000000000E+00  0.00000000000E+00  0.11835772208E+03  0.11835772211E+03  0.25500000000E-02 0.  1.
          2   -1    0    0  501    0  0.00000000000E+00 -0.00000000000E+00 -0.46987542226E+00  0.46988234159E+00  0.25500000000E-02 0. -1.
         31    1    1    2    0    0 -0.12255335289E+00  0.37079244060E+00  0.58556480036E+02  0.59029423059E+02  0.74470750000E+01 0.  1.
        -31    1    1    2    0    0  0.12255335289E+00 -0.37079244060E+00  0.59331366622E+02  0.59798181391E+02  0.74470750000E+01 0. -1.
<mgrwt>
<rscale>  0 0.14914932E+02</rscale>
<asrwt>0</asrwt>
<pdfrwt beam="2">  1        2 0.99791228E+00 0.14914932E+02</pdfrwt>
<pdfrwt beam="1">  1       -2 0.98254977E+00 0.14914932E+02</pdfrwt>
<totfact> 0.49806050E-13</totfact>
</mgrwt>
</event>
<event>
 4    1 -0.5109406E-019  0.1494538E+02  0.7818608E-02  0.1869740E+00
          2   -1    0    0  501    0  0.00000000000E+00  0.00000000000E+00  0.11882078771E+03  0.11882078774E+03  0.25500000000E-02 0. -1.
         -2   -1    0    0    0  501 -0.00000000000E+00 -0.00000000000E+00 -0.46995747139E+00  0.46996438952E+00  0.25500000000E-02 0.  1.
         31    1    1    2    0    0  0.12103649318E+00  0.62994502574E-01  0.54362548140E+02  0.54870430875E+02  0.74470750000E+01 0.  1.
        -31    1    1    2    0    0 -0.12103649318E+00 -0.62994502574E-01  0.63988282103E+02  0.64420321256E+02  0.74470750000E+01 0. -1.
<mgrwt>
<rscale>  0 0.14945385E+02</rscale>
<asrwt>0</asrwt>
<pdfrwt beam="1">  1        2 0.98637940E+00 0.14945385E+02</pdfrwt>
<pdfrwt beam="2">  1       -2 0.99810122E+00 0.14945385E+02</pdfrwt>
<totfact>-0.15940186E-13</totfact>
</mgrwt>
</event>
<event>
 4    1  0.5109406E-019  0.1495833E+02  0.7818608E-02  0.1869343E+00
         -2   -1    0    0    0  501 -0.00000000000E+00  0.00000000000E+00  0.11900145982E+03  0.11900145984E+03  0.25500000000E-02 0.  1.
          2   -1    0    0  501    0  0.00000000000E+00 -0.00000000000E+00 -0.47005733800E+00  0.47006425466E+00  0.25500000000E-02 0. -1.
         31    1    1    2    0    0  0.44391078392E+00  0.51836735913E+00  0.60184606011E+02  0.60647435958E+02  0.74470750000E+01 0. -1.
        -31    1    1    2    0    0 -0.44391078392E+00 -0.51836735913E+00  0.58346796466E+02  0.58824088139E+02  0.74470750000E+01 0.  1.
<mgrwt>
<rscale>  0 0.14958332E+02</rscale>
<asrwt>0</asrwt>
<pdfrwt beam="2">  1        2 0.99831845E+00 0.14958332E+02</pdfrwt>
<pdfrwt beam="1">  1       -2 0.98787415E+00 0.14958332E+02</pdfrwt>
<totfact> 0.77653083E-14</totfact>
</mgrwt>
</event>
<event>
 4    1  0.5109406E-019  0.1493292E+02  0.7818608E-02  0.1870122E+00
          2   -1    0    0  501    0  0.00000000000E+00  0.00000000000E+00  0.12001888977E+03  0.12001888979E+03  0.25500000000E-02 0.  1.
         -2   -1    0    0    0  501 -0.00000000000E+00 -0.00000000000E+00 -0.46449052121E+00  0.46449752076E+00  0.25500000000E-02 0. -1.
         31    1    1    2    0    0 -0.25470330254E+00 -0.13078491636E+00  0.63449434592E+02  0.63885613832E+02  0.74470750000E+01 0.  1.
        -31    1    1    2    0    0  0.25470330254E+00  0.13078491636E+00  0.56104964652E+02  0.56597773482E+02  0.74470750000E+01 0.  1.
<mgrwt>
<rscale>  0 0.14932925E+02</rscale>
<asrwt>0</asrwt>
<pdfrwt beam="1">  1        2 0.99624094E+00 0.14932925E+02</pdfrwt>
<pdfrwt beam="2">  1       -2 0.98657418E+00 0.14932925E+02</pdfrwt>
<totfact> 0.24809229E-13</totfact>
</mgrwt>
</event>
<event>
 4    1 -0.5109406E-019  0.1490161E+02  0.7818608E-02  0.1871086E+00
          2   -1    0    0  501    0  0.00000000000E+00  0.00000000000E+00  0.11870740967E+03  0.11870740970E+03  0.25500000000E-02 0. -1.
         -2   -1    0    0    0  501 -0.00000000000E+00 -0.00000000000E+00 -0.46765455626E+00  0.46766150845E+00  0.25500000000E-02 0.  1.
         31    1    1    2    0    0 -0.94561483893E-01 -0.13671922734E+00  0.60456119893E+02  0.60913290771E+02  0.74470750000E+01 0. -1.
        -31    1    1    2    0    0  0.94561483893E-01  0.13671922734E+00  0.57783635224E+02  0.58261780438E+02  0.74470750000E+01 0.  1.
<mgrwt>
<rscale>  0 0.14901608E+02</rscale>
<asrwt>0</asrwt>
<pdfrwt beam="1">  1        2 0.98542287E+00 0.14901608E+02</pdfrwt>
<pdfrwt beam="2">  1       -2 0.99322579E+00 0.14901608E+02</pdfrwt>
<totfact>-0.29234571E-13</totfact>
</mgrwt>
</event>
<event>
 4    1  0.5109406E-019  0.1492865E+02  0.7818608E-02  0.1870254E+00
         -2   -1    0    0    0  501 -0.00000000000E+00  0.00000000000E+00  0.11873244391E+03  0.11873244393E+03  0.25500000000E-02 0. -1.
          2   -1    0    0  501    0  0.00000000000E+00 -0.00000000000E+00 -0.46925428313E+00  0.46926121162E+00  0.25500000000E-02 0.  1.
         31    1    1    2    0    0  0.43025366716E+00 -0.10095692096E+00  0.57145235930E+02  0.57630132969E+02  0.74470750000E+01 0.  1.
        -31    1    1    2    0    0 -0.43025366716E+00  0.10095692096E+00  0.61117953694E+02  0.61571572177E+02  0.74470750000E+01 0.  1.
<mgrwt>
<rscale>  0 0.14928647E+02</rscale>
<asrwt>0</asrwt>
<pdfrwt beam="2">  1        2 0.99661076E+00 0.14928647E+02</pdfrwt>
<pdfrwt beam="1">  1       -2 0.98564310E+00 0.14928647E+02</pdfrwt>
<totfact> 0.32018299E-13</totfact>
</mgrwt>
</event>
<event>
 4    1 -0.5109406E-019  0.1494205E+02  0.7818608E-02  0.1869842E+00
          2   -1    0    0  501    0  0.00000000000E+00  0.00000000000E+00  0.11866291187E+03  0.11866291189E+03  0.25500000000E-02 0.  1.
         -2   -1    0    0    0  501 -0.00000000000E+00 -0.00000000000E+00 -0.47037249866E+00  0.47037941069E+00  0.25500000000E-02 0. -1.
         31    1    1    2    0    0 -0.93250993824E-01 -0.58596091815E+00  0.58520679733E+02  0.58995600924E+02  0.74470750000E+01 0. -1.
        -31    1    1    2    0    0  0.93250993824E-01  0.58596091815E+00  0.59671859634E+02  0.60137690380E+02  0.74470750000E+01 0.  1.
<mgrwt>
<rscale>  0 0.14942046E+02</rscale>
<asrwt>0</asrwt>
<pdfrwt beam="1">  1        2 0.98507741E+00 0.14942046E+02</pdfrwt>
<pdfrwt beam="2">  1       -2 0.99897393E+00 0.14942046E+02</pdfrwt>
<totfact>-0.11409686E-13</totfact>
</mgrwt>
</event>
<event>
 4    1 -0.5109406E-019  0.1496661E+02  0.7818608E-02  0.1869089E+00
          2   -1    0    0  501    0  0.00000000000E+00  0.00000000000E+00  0.11957101750E+03  0.11957101753E+03  0.25500000000E-02 0.  1.
         -2   -1    0    0    0  501 -0.00000000000E+00 -0.00000000000E+00 -0.46833592669E+00  0.46834286877E+00  0.25500000000E-02 0. -1.
         31    1    1    2    0    0 -0.33334350773E+00 -0.48177284820E+00  0.63117276753E+02  0.63557790818E+02  0.74470750000E+01 0.  1.
        -31    1    1    2    0    0  0.33334350773E+00  0.48177284820E+00  0.55985404821E+02  0.56481569578E+02  0.74470750000E+01 0. -1.
<mgrwt>
<rscale>  0 0.14966606E+02</rscale>
<asrwt>0</asrwt>
<pdfrwt beam="1">  1        2 0.99256942E+00 0.14966606E+02</pdfrwt>
<pdfrwt beam="2">  1       -2 0.99469544E+00 0.14966606E+02</pdfrwt>
<totfact>-0.14561947E-13</totfact>
</mgrwt>
</event>
<event>
 4    1  0.5109406E-019  0.1491657E+02  0.7818608E-02  0.1870625E+00
          2   -1    0    0  501    0  0.00000000000E+00  0.00000000000E+00  0.11982934194E+03  0.11982934197E+03  0.25500000000E-02 0. -1.
         -2   -1    0    0    0  501 -0.00000000000E+00 -0.00000000000E+00 -0.46420692559E+00  0.46421392942E+00  0.25500000000E-02 0.  1.
         31    1    1    2    0    0 -0.14478157067E+00 -0.22799925401E+00  0.62157201094E+02  0.62602312412E+02  0.74470750000E+01 0. -1.
        -31    1    1    2    0    0  0.14478157067E+00  0.22799925401E+00  0.57207933921E+02  0.57691243485E+02  0.74470750000E+01 0. -1.
<mgrwt>
<rscale>  0 0.14916572E+02</rscale>
<asrwt>0</asrwt>
<pdfrwt beam="1">  1        2 0.99467129E+00 0.14916572E+02</pdfrwt>
<pdfrwt beam="2">  1       -2 0.98596815E+00 0.14916572E+02</pdfrwt>
<totfact> 0.37230741E-13</totfact>
</mgrwt>
</event>
<event>
 4    1 -0.5109406E-019  0.1493392E+02  0.7818608E-02  0.1870092E+00
         -2   -1    0    0    0  501 -0.00000000000E+00  0.00000000000E+00  0.11986165341E+03  0.11986165343E+03  0.25500000000E-02 0. -1.
          2   -1    0    0  501    0  0.00000000000E+00 -0.00000000000E+00 -0.46516207540E+00  0.46516906485E+00  0.25500000000E-02 0.  1.
         31    1    1    2    0    0 -0.22860090883E+00  0.52004882612E-01  0.63658861790E+02  0.64093405069E+02  0.74470750000E+01 0. -1.
        -31    1    1    2    0    0  0.22860090883E+00 -0.52004882612E-01  0.55737629542E+02  0.56233417430E+02  0.74470750000E+01 0.  1.
<mgrwt>
<rscale>  0 0.14933923E+02</rscale>
<asrwt>0</asrwt>
<pdfrwt beam="2">  1        2 0.98799003E+00 0.14933923E+02</pdfrwt>
<pdfrwt beam="1">  1       -2 0.99494636E+00 0.14933923E+02</pdfrwt>
<totfact>-0.22369751E-13</totfact>
</mgrwt>
</event>
<event>
 4    1 -0.5109406E-019  0.1495721E+02  0.7818608E-02  0.1869377E+00
          2   -1    0    0  501    0  0.00000000000E+00  0.00000000000E+00  0.11919746373E+03  0.11919746376E+03  0.25500000000E-02 0. -1.
         -2   -1    0    0    0  501 -0.00000000000E+00 -0.00000000000E+00 -0.46921388822E+00  0.46922081731E+00  0.25500000000E-02 0.  1.
         31    1    1    2    0    0  0.14743677769E+00  0.17077990763E+00  0.54181041910E+02  0.54690905386E+02  0.74470750000E+01 0.  1.
        -31    1    1    2    0    0 -0.14743677769E+00 -0.17077990763E+00  0.64547207931E+02  0.64975779189E+02  0.74470750000E+01 0. -1.
<mgrwt>
<rscale>  0 0.14957209E+02</rscale>
<asrwt>0</asrwt>
<pdfrwt beam="1">  1        2 0.98948787E+00 0.14957209E+02</pdfrwt>
<pdfrwt beam="2">  1       -2 0.99654061E+00 0.14957209E+02</pdfrwt>
<totfact>-0.16407177E-13</totfact>
</mgrwt>
</event>
<event>
 4    1 -0.5109406E-019  0.1491855E+02  0.7818608E-02  0.1870564E+00
          2   -1    0    0  501    0  0.00000000000E+00  0.00000000000E+00  0.11865537023E+03  0.11865537025E+03  0.25500000000E-02 0.  1.
         -2   -1    0    0    0  501 -0.00000000000E+00 -0.00000000000E+00 -0.46892436656E+00  0.46893129993E+00  0.25500000000E-02 0. -1.
         31    1    1    2    0    0  0.39317342421E+00 -0.12997181179E+00  0.59907723859E+02  0.60370239208E+02  0.74470750000E+01 0. -1.
        -31    1    1    2    0    0 -0.39317342421E+00  0.12997181179E+00  0.58278721999E+02  0.58754062344E+02  0.74470750000E+01 0.  1.
<mgrwt>
<rscale>  0 0.14918553E+02</rscale>
<asrwt>0</asrwt>
<pdfrwt beam="1">  1        2 0.98500307E+00 0.14918553E+02</pdfrwt>
<pdfrwt beam="2">  1       -2 0.99591030E+00 0.14918553E+02</pdfrwt>
<totfact>-0.32862713E-13</totfact>
</mgrwt>
</event>
<event>
 4    1 -0.5109406E-019  0.1501501E+02  0.7818608E-02  0.1867611E+00
          2   -1    0    0  501    0  0.00000000000E+00  0.00000000000E+00  0.12041707364E+03  0.12041707367E+03  0.25500000000E-02 0. -1.
         -2   -1    0    0    0  501 -0.00000000000E+00 -0.00000000000E+00 -0.46805817738E+00  0.46806512358E+00  0.25500000000E-02 0.  1.
         31    1    1    2    0    0 -0.13759624175E+00  0.84148976585E+00  0.63358338927E+02  0.63800196516E+02  0.74470750000E+01 0.  1.
        -31    1    1    2    0    0  0.13759624175E+00 -0.84148976585E+00  0.56590676535E+02  0.57084942275E+02  0.74470750000E+01 0. -1.
<mgrwt>
<rscale>  0 0.15015008E+02</rscale>
<asrwt>0</asrwt>
<pdfrwt beam="1">  1        2 0.99956291E+00 0.15015008E+02</pdfrwt>
<pdfrwt beam="2">  1       -2 0.99413508E+00 0.15015008E+02</pdfrwt>
<totfact>-0.16785458E-14</totfact>
</mgrwt>
</event>
<event>
 4    1 -0.5109406E-019  0.1500508E+02  0.7818608E-02  0.1867913E+00
         -2   -1    0    0    0  501 -0.00000000000E+00  0.00000000000E+00  0.11995381815E+03  0.11995381818E+03  0.25500000000E-02 0.  1.
          2   -1    0    0  501    0  0.00000000000E+00 -0.00000000000E+00 -0.46924475930E+00  0.46925168793E+00  0.25500000000E-02 0. -1.
         31    1    1    2    0    0  0.62653052251E+00 -0.61985374512E+00  0.61580002458E+02  0.62034928774E+02  0.74470750000E+01 0.  1.
        -31    1    1    2    0    0 -0.62653052251E+00  0.61985374512E+00  0.57904570934E+02  0.58388141093E+02  0.74470750000E+01 0. -1.
<mgrwt>
<rscale>  0 0.15005082E+02</rscale>
<asrwt>0</asrwt>
<pdfrwt beam="2">  1        2 0.99663056E+00 0.15005082E+02</pdfrwt>
<pdfrwt beam="1">  1       -2 0.99574220E+00 0.15005082E+02</pdfrwt>
<totfact>-0.91411755E-14</totfact>
</mgrwt>
</event>
<event>
 4    1  0.5109406E-019  0.1493889E+02  0.7818608E-02  0.1869939E+00
          2   -1    0    0  501    0  0.00000000000E+00  0.00000000000E+00  0.12028641790E+03  0.12028641792E+03  0.25500000000E-02 0.  1.
         -2   -1    0    0    0  501 -0.00000000000E+00 -0.00000000000E+00 -0.46382758182E+00  0.46383459137E+00  0.25500000000E-02 0. -1.
         31    1    1    2    0    0  0.15324356037E+00  0.55573719048E+00  0.60206040711E+02  0.60667607432E+02  0.74470750000E+01 0.  1.
        -31    1    1    2    0    0 -0.15324356037E+00 -0.55573719048E+00  0.59616549604E+02  0.60082645083E+02  0.74470750000E+01 0. -1.
<mgrwt>
<rscale>  0 0.14938887E+02</rscale>
<asrwt>0</asrwt>
<pdfrwt beam="1">  1        2 0.99844757E+00 0.14938887E+02</pdfrwt>
<pdfrwt beam="2">  1       -2 0.98517998E+00 0.14938887E+02</pdfrwt>
<totfact> 0.20627233E-13</totfact>
</mgrwt>
</event>
<event>
 4    1 -0.5109406E-019  0.1496809E+02  0.7818608E-02  0.1869044E+00
          2   -1    0    0  501    0  0.00000000000E+00  0.00000000000E+00  0.11971764349E+03  0.11971764351E+03  0.25500000000E-02 0. -1.
         -2   -1    0    0    0  501 -0.00000000000E+00 -0.00000000000E+00 -0.46785507983E+00  0.46786202904E+00  0.25500000000E-02 0.  1.
         31    1    1    2    0    0  0.38758757229E+00  0.51656254909E+00  0.62574444455E+02  0.63019338984E+02  0.74470750000E+01 0. -1.
        -31    1    1    2    0    0 -0.38758757229E+00 -0.51656254909E+00  0.56675343951E+02  0.57166166559E+02  0.74470750000E+01 0. -1.
<mgrwt>
<rscale>  0 0.14968090E+02</rscale>
<asrwt>0</asrwt>
<pdfrwt beam="1">  1        2 0.99377785E+00 0.14968090E+02</pdfrwt>
<pdfrwt beam="2">  1       -2 0.99368291E+00 0.14968090E+02</pdfrwt>
<totfact>-0.12672993E-13</totfact>
</mgrwt>
</event>
<event>
 4    1 -0.5109406E-019  0.1490601E+02  0.7818608E-02  0.1870950E+00
          2   -1    0    0  501    0  0.00000000000E+00  0.00000000000E+00  0.11807843462E+03  0.11807843465E+03  0.25500000000E-02 0. -1.
         -2   -1    0    0    0  501 -0.00000000000E+00 -0.00000000000E+00 -0.47042358563E+00  0.47043049691E+00  0.25500000000E-02 0.  1.
         31    1    1    2    0    0 -0.21000155485E+00  0.19724992224E+00  0.58221871080E+02  0.58696918201E+02  0.74470750000E+01 0. -1.
        -31    1    1    2    0    0  0.21000155485E+00 -0.19724992224E+00  0.59386139956E+02  0.59851946945E+02  0.74470750000E+01 0.  1.
<mgrwt>
<rscale>  0 0.14906011E+02</rscale>
<asrwt>0</asrwt>
<pdfrwt beam="1">  1        2 0.98024496E+00 0.14906011E+02</pdfrwt>
<pdfrwt beam="2">  1       -2 0.99906247E+00 0.14906011E+02</pdfrwt>
<totfact>-0.23550330E-13</totfact>
</mgrwt>
</event>
<event>
 4    1  0.5109406E-019  0.1490763E+02  0.7818608E-02  0.1870900E+00
         -2   -1    0    0    0  501 -0.00000000000E+00  0.00000000000E+00  0.11869317113E+03  0.11869317116E+03  0.25500000000E-02 0. -1.
          2   -1    0    0  501    0  0.00000000000E+00 -0.00000000000E+00 -0.46808883203E+00  0.46809577778E+00  0.25500000000E-02 0.  1.
         31    1    1    2    0    0 -0.21672263867E+00 -0.12096666782E-01  0.60958324017E+02  0.61411915034E+02  0.74470750000E+01 0. -1.
        -31    1    1    2    0    0  0.21672263867E+00  0.12096666782E-01  0.57266758285E+02  0.57749351906E+02  0.74470750000E+01 0.  1.
<mgrwt>
<rscale>  0 0.14907631E+02</rscale>
<asrwt>0</asrwt>
<pdfrwt beam="2">  1        2 0.99414402E+00 0.14907631E+02</pdfrwt>
<pdfrwt beam="1">  1       -2 0.98530873E+00 0.14907631E+02</pdfrwt>
<totfact> 0.47973675E-13</totfact>
</mgrwt>
</event>
<event>
 4    1  0.5109406E-019  0.1493131E+02  0.7818608E-02  0.1870172E+00
         -2   -1    0    0    0  501 -0.00000000000E+00  0.00000000000E+00  0.11896742575E+03  0.11896742578E+03  0.25500000000E-02 0.  1.
          2   -1    0    0  501    0  0.00000000000E+00 -0.00000000000E+00 -0.46849461249E+00  0.46850155222E+00  0.25500000000E-02 0. -1.
         31    1    1    2    0    0  0.11208588666E+00  0.50893213688E+00  0.59843382488E+02  0.60307221200E+02  0.74470750000E+01 0.  1.
        -31    1    1    2    0    0 -0.11208588666E+00 -0.50893213688E+00  0.58655548654E+02  0.59128706134E+02  0.74470750000E+01 0. -1.
<mgrwt>
<rscale>  0 0.14931311E+02</rscale>
<asrwt>0</asrwt>
<pdfrwt beam="2">  1        2 0.99501145E+00 0.14931311E+02</pdfrwt>
<pdfrwt beam="1">  1       -2 0.98757981E+00 0.14931311E+02</pdfrwt>
<totfact> 0.18881753E-13</totfact>
</mgrwt>
</event>
<event>
 4    1  0.5109406E-019  0.1491271E+02  0.7818608E-02  0.1870744E+00
          2   -1    0    0  501    0  0.00000000000E+00  0.00000000000E+00  0.11983802133E+03  0.11983802135E+03  0.25500000000E-02 0. -1.
         -2   -1    0    0    0  501 -0.00000000000E+00 -0.00000000000E+00 -0.46393323647E+00  0.46394024443E+00  0.25500000000E-02 0.  1.
         31    1    1    2    0    0  0.22082519683E+00 -0.13017842476E+00  0.57513001353E+02  0.57993706218E+02  0.74470750000E+01 0.  1.
        -31    1    1    2    0    0 -0.22082519683E+00  0.13017842476E+00  0.61861086736E+02  0.62308255380E+02  0.74470750000E+01 0. -1.
<mgrwt>
<rscale>  0 0.14912715E+02</rscale>
<asrwt>0</asrwt>
<pdfrwt beam="1">  1        2 0.99474079E+00 0.14912715E+02</pdfrwt>
<pdfrwt beam="2">  1       -2 0.98538936E+00 0.14912715E+02</pdfrwt>
<totfact> 0.44409063E-13</totfact>
</mgrwt>
</event>
<event>
 4    1 -0.5109406E-019  0.1496225E+02  0.7818608E-02  0.1869223E+00
          2   -1    0    0  501    0  0.00000000000E+00  0.00000000000E+00  0.11907263864E+03  0.11907263867E+03  0.25500000000E-02 0.  1.
         -2   -1    0    0    0  501 -0.00000000000E+00 -0.00000000000E+00 -0.47002263913E+00  0.47002955630E+00  0.25500000000E-02 0. -1.
         31    1    1    2    0    0 -0.22890194082E+00 -0.31441744845E+00  0.64075533414E+02  0.64508016268E+02  0.74470750000E+01 0. -1.
        -31    1    1    2    0    0  0.22890194082E+00  0.31441744845E+00  0.54527082585E+02  0.55034651954E+02  0.74470750000E+01 0. -1.
<mgrwt>
<rscale>  0 0.14962253E+02</rscale>
<asrwt>0</asrwt>
<pdfrwt beam="1">  1        2 0.98846242E+00 0.14962253E+02</pdfrwt>
<pdfrwt beam="2">  1       -2 0.99824740E+00 0.14962253E+02</pdfrwt>
<totfact>-0.11240070E-13</totfact>
</mgrwt>
</event>
<event>
 4    1 -0.5109406E-019  0.1501366E+02  0.7818608E-02  0.1867652E+00
          2   -1    0    0  501    0  0.00000000000E+00  0.00000000000E+00  0.12020117821E+03  0.12020117824E+03  0.25500000000E-02 0.  1.
         -2   -1    0    0    0  501 -0.00000000000E+00 -0.00000000000E+00 -0.46881448207E+00  0.46882141706E+00  0.25500000000E-02 0. -1.
         31    1    1    2    0    0 -0.20925410699E+00  0.58874183217E+00  0.65567279653E+02  0.65991798668E+02  0.74470750000E+01 0.  1.
        -31    1    1    2    0    0  0.20925410699E+00 -0.58874183217E+00  0.54165084073E+02  0.54678200985E+02  0.74470750000E+01 0. -1.
<mgrwt>
<rscale>  0 0.15013657E+02</rscale>
<asrwt>0</asrwt>
<pdfrwt beam="1">  1        2 0.99778399E+00 0.15013657E+02</pdfrwt>
<pdfrwt beam="2">  1       -2 0.99572825E+00 0.15013657E+02</pdfrwt>
<totfact>-0.68246212E-14</totfact>
</mgrwt>
</event>
<event>
 4    1 -0.5109406E-019  0.1499564E+02  0.7818608E-02  0.1868202E+00
          2   -1    0    0  501    0  0.00000000000E+00  0.00000000000E+00  0.12015052592E+03  0.12015052595E+03  0.25500000000E-02 0. -1.
         -2   -1    0    0    0  501 -0.00000000000E+00 -0.00000000000E+00 -0.46788726348E+00  0.46789421222E+00  0.25500000000E-02 0.  1.
         31    1    1    2    0    0 -0.82523580543E+00  0.16394240336E+00  0.58033678092E+02  0.58515592881E+02  0.74470750000E+01 0. -1.
        -31    1    1    2    0    0  0.82523580543E+00 -0.16394240336E+00  0.61648960567E+02  0.62102827281E+02  0.74470750000E+01 0.  1.
<mgrwt>
<rscale>  0 0.14995642E+02</rscale>
<asrwt>0</asrwt>
<pdfrwt beam="1">  1        2 0.99735749E+00 0.14995642E+02</pdfrwt>
<pdfrwt beam="2">  1       -2 0.99376494E+00 0.14995642E+02</pdfrwt>
<totfact>-0.77469102E-14</totfact>
</mgrwt>
</event>
<event>
 4    1 -0.5109406E-019  0.1494610E+02  0.7818608E-02  0.1869718E+00
          2   -1    0    0  501    0  0.00000000000E+00  0.00000000000E+00  0.11899034788E+03  0.11899034791E+03  0.25500000000E-02 0. -1.
         -2   -1    0    0    0  501 -0.00000000000E+00 -0.00000000000E+00 -0.46933247844E+00  0.46933940578E+00  0.25500000000E-02 0.  1.
         31    1    1    2    0    0  0.58770760975E+00 -0.96169534599E-01  0.60709710597E+02  0.61167659230E+02  0.74470750000E+01 0.  1.
        -31    1    1    2    0    0 -0.58770760975E+00  0.96169534599E-01  0.57811304804E+02  0.58292028083E+02  0.74470750000E+01 0.  1.
<mgrwt>
<rscale>  0 0.14946097E+02</rscale>
<asrwt>0</asrwt>
<pdfrwt beam="1">  1        2 0.98777628E+00 0.14946097E+02</pdfrwt>
<pdfrwt beam="2">  1       -2 0.99678469E+00 0.14946097E+02</pdfrwt>
<totfact>-0.19223499E-13</totfact>
</mgrwt>
</event>
<event>
 4    1 -0.5109406E-019  0.1493398E+02  0.7818608E-02  0.1870090E+00
         -2   -1    0    0    0  501 -0.00000000000E+00  0.00000000000E+00  0.12040179621E+03  0.12040179624E+03  0.25500000000E-02 0. -1.
          2   -1    0    0  501    0  0.00000000000E+00 -0.00000000000E+00 -0.46307883955E+00  0.46308586044E+00  0.25500000000E-02 0.  1.
         31    1    1    2    0    0 -0.40381528589E+00 -0.36574850602E+00  0.60079492459E+02  0.60541730889E+02  0.74470750000E+01 0.  1.
        -31    1    1    2    0    0  0.40381528589E+00  0.36574850602E+00  0.59859224911E+02  0.60323151209E+02  0.74470750000E+01 0.  1.
<mgrwt>
<rscale>  0 0.14933981E+02</rscale>
<asrwt>0</asrwt>
<pdfrwt beam="2">  1        2 0.98359938E+00 0.14933981E+02</pdfrwt>
<pdfrwt beam="1">  1       -2 0.99939541E+00 0.14933981E+02</pdfrwt>
<totfact>-0.88779559E-14</totfact>
</mgrwt>
</event>
<event>
 4    1 -0.5109406E-019  0.1498214E+02  0.7818608E-02  0.1868614E+00
         -2   -1    0    0    0  501 -0.00000000000E+00  0.00000000000E+00  0.11986557092E+03  0.11986557095E+03  0.25500000000E-02 0. -1.
          2   -1    0    0  501    0  0.00000000000E+00 -0.00000000000E+00 -0.46815512826E+00  0.46816207302E+00  0.25500000000E-02 0.  1.
         31    1    1    2    0    0 -0.59021168014E-01 -0.18986542004E+00  0.53386484921E+02  0.53903758966E+02  0.74470750000E+01 0.  1.
        -31    1    1    2    0    0  0.59021168014E-01  0.18986542004E+00  0.66010930875E+02  0.66429974059E+02  0.74470750000E+01 0. -1.
<mgrwt>
<rscale>  0 0.14982136E+02</rscale>
<asrwt>0</asrwt>
<pdfrwt beam="2">  1        2 0.99432248E+00 0.14982136E+02</pdfrwt>
<pdfrwt beam="1">  1       -2 0.99500350E+00 0.14982136E+02</pdfrwt>
<totfact>-0.12711637E-13</totfact>
</mgrwt>
</event>
<event>
 4    1  0.5109406E-019  0.1495143E+02  0.7818608E-02  0.1869554E+00
          2   -1    0    0  501    0  0.00000000000E+00  0.00000000000E+00  0.12023324068E+03  0.12023324071E+03  0.25500000000E-02 0. -1.
         -2   -1    0    0    0  501 -0.00000000000E+00 -0.00000000000E+00 -0.46481248719E+00  0.46481948190E+00  0.25500000000E-02 0.  1.
         31    1    1    2    0    0  0.44647099252E+00  0.40668076392E+00  0.61905347488E+02  0.62354596456E+02  0.74470750000E+01 0. -1.
        -31    1    1    2    0    0 -0.44647099252E+00 -0.40668076392E+00  0.57863080708E+02  0.58343463735E+02  0.74470750000E+01 0. -1.
<mgrwt>
<rscale>  0 0.14951433E+02</rscale>
<asrwt>0</asrwt>
<pdfrwt beam="1">  1        2 0.99801601E+00 0.14951433E+02</pdfrwt>
<pdfrwt beam="2">  1       -2 0.98726218E+00 0.14951433E+02</pdfrwt>
<totfact> 0.11977867E-13</totfact>
</mgrwt>
</event>
<event>
 4    1  0.5109406E-019  0.1489825E+02  0.7818608E-02  0.1871190E+00
         -2   -1    0    0    0  501 -0.00000000000E+00  0.00000000000E+00  0.11853946412E+03  0.11853946415E+03  0.25500000000E-02 0.  1.
          2   -1    0    0  501    0  0.00000000000E+00 -0.00000000000E+00 -0.46810581433E+00  0.46811275982E+00  0.25500000000E-02 0. -1.
         31    1    1    2    0    0  0.10466830825E+00 -0.13397641466E+00  0.59354811384E+02  0.59820410109E+02  0.74470750000E+01 0. -1.
        -31    1    1    2    0    0 -0.10466830825E+00  0.13397641466E+00  0.58716546925E+02  0.59187166802E+02  0.74470750000E+01 0. -1.
<mgrwt>
<rscale>  0 0.14898245E+02</rscale>
<asrwt>0</asrwt>
<pdfrwt beam="2">  1        2 0.99417488E+00 0.14898245E+02</pdfrwt>
<pdfrwt beam="1">  1       -2 0.98403791E+00 0.14898245E+02</pdfrwt>
<totfact> 0.67479571E-13</totfact>
</mgrwt>
</event>
<event>
 4    1 -0.5109406E-019  0.1491953E+02  0.7818608E-02  0.1870534E+00
          2   -1    0    0  501    0  0.00000000000E+00  0.00000000000E+00  0.11896898935E+03  0.11896898937E+03  0.25500000000E-02 0. -1.
         -2   -1    0    0    0  501 -0.00000000000E+00 -0.00000000000E+00 -0.46774916439E+00  0.46775611518E+00  0.25500000000E-02 0.  1.
         31    1    1    2    0    0  0.16165364630E+00  0.91187260104E-01  0.56102055088E+02  0.56594469325E+02  0.74470750000E+01 0.  1.
        -31    1    1    2    0    0 -0.16165364630E+00 -0.91187260104E-01  0.62399185094E+02  0.62842276164E+02  0.74470750000E+01 0. -1.
<mgrwt>
<rscale>  0 0.14919526E+02</rscale>
<asrwt>0</asrwt>
<pdfrwt beam="1">  1        2 0.98758658E+00 0.14919526E+02</pdfrwt>
<pdfrwt beam="2">  1       -2 0.99343451E+00 0.14919526E+02</pdfrwt>
<totfact>-0.21854275E-13</totfact>
</mgrwt>
</event>
<event>
 4    1 -0.5109406E-019  0.1495396E+02  0.7818608E-02  0.1869477E+00
          2   -1    0    0  501    0  0.00000000000E+00  0.00000000000E+00  0.11919540419E+03  0.11919540422E+03  0.25500000000E-02 0.  1.
         -2   -1    0    0    0  501 -0.00000000000E+00 -0.00000000000E+00 -0.46901811953E+00  0.46902505151E+00  0.25500000000E-02 0. -1.
         31    1    1    2    0    0  0.64309506226E+00  0.17996020173E+00  0.59216133264E+02  0.59686307657E+02  0.74470750000E+01 0.  1.
        -31    1    1    2    0    0 -0.64309506226E+00 -0.17996020173E+00  0.59510252810E+02  0.59978121615E+02  0.74470750000E+01 0. -1.
<mgrwt>
<rscale>  0 0.14953959E+02</rscale>
<asrwt>0</asrwt>
<pdfrwt beam="1">  1        2 0.98946923E+00 0.14953959E+02</pdfrwt>
<pdfrwt beam="2">  1       -2 0.99612640E+00 0.14953959E+02</pdfrwt>
<totfact>-0.17417218E-13</totfact>
</mgrwt>
</event>
<event>
 4    1 -0.5109406E-019  0.1501267E+02  0.7818608E-02  0.1867682E+00
         -2   -1    0    0    0  501 -0.00000000000E+00  0.00000000000E+00  0.11995419426E+03  0.11995419429E+03  0.25500000000E-02 0.  1.
          2   -1    0    0  501    0  0.00000000000E+00 -0.00000000000E+00 -0.46971774269E+00  0.46972466435E+00  0.25500000000E-02 0. -1.
         31    1    1    2    0    0  0.23477732537E+00 -0.23932740188E+00  0.52686484660E+02  0.53211248716E+02  0.74470750000E+01 0. -1.
        -31    1    1    2    0    0 -0.23477732537E+00  0.23932740188E+00  0.66797991857E+02  0.67212670235E+02  0.74470750000E+01 0.  1.
<mgrwt>
<rscale>  0 0.15012666E+02</rscale>
<asrwt>0</asrwt>
<pdfrwt beam="2">  1        2 0.99763121E+00 0.15012666E+02</pdfrwt>
<pdfrwt beam="1">  1       -2 0.99574922E+00 0.15012666E+02</pdfrwt>
<totfact>-0.71609204E-14</totfact>
</mgrwt>
</event>
<event>
 4    1 -0.5109406E-019  0.1492675E+02  0.7818608E-02  0.1870312E+00
         -2   -1    0    0    0  501 -0.00000000000E+00  0.00000000000E+00  0.11998893969E+03  0.11998893972E+03  0.25500000000E-02 0. -1.
          2   -1    0    0  501    0  0.00000000000E+00 -0.00000000000E+00 -0.46422223988E+00  0.46422924347E+00  0.25500000000E-02 0.  1.
         31    1    1    2    0    0  0.41779342731E+00 -0.11870132814E+00  0.61644334433E+02  0.62094053943E+02  0.74470750000E+01 0. -1.
        -31    1    1    2    0    0 -0.41779342731E+00  0.11870132814E+00  0.57880383020E+02  0.58359115021E+02  0.74470750000E+01 0.  1.
<mgrwt>
<rscale>  0 0.14926749E+02</rscale>
<asrwt>0</asrwt>
<pdfrwt beam="2">  1        2 0.98600561E+00 0.14926749E+02</pdfrwt>
<pdfrwt beam="1">  1       -2 0.99599108E+00 0.14926749E+02</pdfrwt>
<totfact>-0.27813105E-13</totfact>
</mgrwt>
</event>
<event>
 4    1 -0.5109406E-019  0.1494446E+02  0.7818608E-02  0.1869768E+00
          2   -1    0    0  501    0  0.00000000000E+00  0.00000000000E+00  0.11912154007E+03  0.11912154009E+03  0.25500000000E-02 0.  1.
         -2   -1    0    0    0  501 -0.00000000000E+00 -0.00000000000E+00 -0.46871278275E+00  0.46871971925E+00  0.25500000000E-02 0. -1.
         31    1    1    2    0    0 -0.45729220183E+00 -0.30352296038E+00  0.57149011365E+02  0.57634795640E+02  0.74470750000E+01 0.  1.
        -31    1    1    2    0    0  0.45729220183E+00  0.30352296038E+00  0.61503815919E+02  0.61955464174E+02  0.74470750000E+01 0. -1.
<mgrwt>
<rscale>  0 0.14944458E+02</rscale>
<asrwt>0</asrwt>
<pdfrwt beam="1">  1        2 0.98885594E+00 0.14944458E+02</pdfrwt>
<pdfrwt beam="2">  1       -2 0.99547804E+00 0.14944458E+02</pdfrwt>
<totfact>-0.19732246E-13</totfact>
</mgrwt>
</event>
<event>
 4    1 -0.5109406E-019  0.1490420E+02  0.7818608E-02  0.1871006E+00
         -2   -1    0    0    0  501 -0.00000000000E+00  0.00000000000E+00  0.12009669638E+03  0.12009669641E+03  0.25500000000E-02 0.  1.
          2   -1    0    0  501    0  0.00000000000E+00 -0.00000000000E+00 -0.46240546719E+00  0.46241249830E+00  0.25500000000E-02 0. -1.
         31    1    1    2    0    0 -0.23864986318E+00 -0.11964921120E+00  0.59331896032E+02  0.59798027413E+02  0.74470750000E+01 0. -1.
        -31    1    1    2    0    0  0.23864986318E+00  0.11964921120E+00  0.60302394879E+02  0.60761081490E+02  0.74470750000E+01 0.  1.
<mgrwt>
<rscale>  0 0.14904200E+02</rscale>
<asrwt>0</asrwt>
<pdfrwt beam="2">  1        2 0.98216505E+00 0.14904200E+02</pdfrwt>
<pdfrwt beam="1">  1       -2 0.99686706E+00 0.14904200E+02</pdfrwt>
<totfact>-0.45915747E-13</totfact>
</mgrwt>
</event>
<event>
 4    1 -0.5109406E-019  0.1492521E+02  0.7818608E-02  0.1870359E+00
          2   -1    0    0  501    0  0.00000000000E+00  0.00000000000E+00  0.11885114614E+03  0.11885114616E+03  0.25500000000E-02 0. -1.
         -2   -1    0    0    0  501 -0.00000000000E+00 -0.00000000000E+00 -0.46856978666E+00  0.46857672527E+00  0.25500000000E-02 0.  1.
         31    1    1    2    0    0 -0.57523049859E-01 -0.88478371708E-01  0.55438052279E+02  0.55936103760E+02  0.74470750000E+01 0.  1.
        -31    1    1    2    0    0  0.57523049859E-01  0.88478371708E-01  0.62944524070E+02  0.63383619128E+02  0.74470750000E+01 0. -1.
<mgrwt>
<rscale>  0 0.14925210E+02</rscale>
<asrwt>0</asrwt>
<pdfrwt beam="1">  1        2 0.98661895E+00 0.14925210E+02</pdfrwt>
<pdfrwt beam="2">  1       -2 0.99516666E+00 0.14925210E+02</pdfrwt>
<totfact>-0.26871123E-13</totfact>
</mgrwt>
</event>
<event>
 4    1  0.5109406E-019  0.1490466E+02  0.7818608E-02  0.1870992E+00
          2   -1    0    0  501    0  0.00000000000E+00  0.00000000000E+00  0.12023966236E+03  0.12023966239E+03  0.25500000000E-02 0. -1.
         -2   -1    0    0    0  501 -0.00000000000E+00 -0.00000000000E+00 -0.46188435238E+00  0.46189139143E+00  0.25500000000E-02 0.  1.
         31    1    1    2    0    0  0.12498659665E+00 -0.89265538077E-01  0.61783409860E+02  0.62230798243E+02  0.74470750000E+01 0. -1.
        -31    1    1    2    0    0 -0.12498659665E+00  0.89265538077E-01  0.57994368150E+02  0.58470755538E+02  0.74470750000E+01 0.  1.
<mgrwt>
<rscale>  0 0.14904663E+02</rscale>
<asrwt>0</asrwt>
<pdfrwt beam="1">  1        2 0.99804490E+00 0.14904663E+02</pdfrwt>
<pdfrwt beam="2">  1       -2 0.98106691E+00 0.14904663E+02</pdfrwt>
<totfact> 0.63280079E-13</totfact>
</mgrwt>
</event>
<event>
 4    1 -0.5109406E-019  0.1497757E+02  0.7818608E-02  0.1868754E+00
         -2   -1    0    0    0  501 -0.00000000000E+00  0.00000000000E+00  0.11975102361E+03  0.11975102363E+03  0.25500000000E-02 0. -1.
          2   -1    0    0  501    0  0.00000000000E+00 -0.00000000000E+00 -0.46831704326E+00  0.46832398563E+00  0.25500000000E-02 0.  1.
         31    1    1    2    0    0  0.23044217610E-01 -0.77795723654E+00  0.58588986556E+02  0.59065506179E+02  0.74470750000E+01 0.  1.
        -31    1    1    2    0    0 -0.23044217610E-01  0.77795723654E+00  0.60693720008E+02  0.61153841440E+02  0.74470750000E+01 0. -1.
<mgrwt>
<rscale>  0 0.14977565E+02</rscale>
<asrwt>0</asrwt>
<pdfrwt beam="2">  1        2 0.99466133E+00 0.14977565E+02</pdfrwt>
<pdfrwt beam="1">  1       -2 0.99405768E+00 0.14977565E+02</pdfrwt>
<totfact>-0.12111474E-13</totfact>
</mgrwt>
</event>
<event>
 4    1 -0.5109406E-019  0.1493028E+02  0.7818608E-02  0.1870203E+00
          2   -1    0    0  501    0  0.00000000000E+00  0.00000000000E+00  0.11876216071E+03  0.11876216074E+03  0.25500000000E-02 0. -1.
         -2   -1    0    0    0  501 -0.00000000000E+00 -0.00000000000E+00 -0.46923978721E+00  0.46924671592E+00  0.25500000000E-02 0.  1.
         31    1    1    2    0    0  0.45982996028E+00  0.18646680323E+00  0.60362995352E+02  0.60822663106E+02  0.74470750000E+01 0.  1.
        -31    1    1    2    0    0 -0.45982996028E+00 -0.18646680323E+00  0.57929925570E+02  0.58408744346E+02  0.74470750000E+01 0. -1.
<mgrwt>
<rscale>  0 0.14930284E+02</rscale>
<asrwt>0</asrwt>
<pdfrwt beam="1">  1        2 0.98588870E+00 0.14930284E+02</pdfrwt>
<pdfrwt beam="2">  1       -2 0.99658108E+00 0.14930284E+02</pdfrwt>
<totfact>-0.26149721E-13</totfact>
</mgrwt>
</event>
<event>
 4    1 -0.5109406E-019  0.1500753E+02  0.7818608E-02  0.1867839E+00
          2   -1    0    0  501    0  0.00000000000E+00  0.00000000000E+00  0.12030186189E+03  0.12030186192E+03  0.25500000000E-02 0.  1.
         -2   -1    0    0    0  501 -0.00000000000E+00 -0.00000000000E+00 -0.46803972534E+00  0.46804667181E+00  0.25500000000E-02 0. -1.
         31    1    1    2    0    0  0.76512928561E-01  0.89455295717E+00  0.58278221155E+02  0.58758965838E+02  0.74470750000E+01 0. -1.
        -31    1    1    2    0    0 -0.76512928561E-01 -0.89455295717E+00  0.61555601012E+02  0.62010942754E+02  0.74470750000E+01 0.  1.
<mgrwt>
<rscale>  0 0.15007528E+02</rscale>
<asrwt>0</asrwt>
<pdfrwt beam="1">  1        2 0.99861010E+00 0.15007528E+02</pdfrwt>
<pdfrwt beam="2">  1       -2 0.99409235E+00 0.15007528E+02</pdfrwt>
<totfact>-0.47924067E-14</totfact>
</mgrwt>
</event>
<event>
 4    1 -0.5109406E-019  0.1503540E+02  0.7818608E-02  0.1866990E+00
          2   -1    0    0  501    0  0.00000000000E+00  0.00000000000E+00  0.12016274634E+03  0.12016274636E+03  0.25500000000E-02 0.  1.
         -2   -1    0    0    0  501 -0.00000000000E+00 -0.00000000000E+00 -0.47032359306E+00  0.47033050580E+00  0.25500000000E-02 0. -1.
         31    1    1    2    0    0  0.94211196052E+00 -0.34672648226E+00  0.58068863136E+02  0.58553049332E+02  0.74470750000E+01 0.  1.
        -31    1    1    2    0    0 -0.94211196052E+00  0.34672648226E+00  0.61623559609E+02  0.62080027538E+02  0.74470750000E+01 0.  1.
<mgrwt>
<rscale>  0 0.15035397E+02</rscale>
<asrwt>0</asrwt>
<pdfrwt beam="1">  1        2 0.99747868E+00 0.15035397E+02</pdfrwt>
<pdfrwt beam="2">  1       -2 0.99891970E+00 0.15035397E+02</pdfrwt>
<totfact>-0.27217105E-14</totfact>
</mgrwt>
</event>
<event>
 4    1 -0.5109406E-019  0.1490174E+02  0.7818608E-02  0.1871082E+00
         -2   -1    0    0    0  501 -0.00000000000E+00  0.00000000000E+00  0.11990171223E+03  0.11990171226E+03  0.25500000000E-02 0. -1.
          2   -1    0    0  501    0  0.00000000000E+00 -0.00000000000E+00 -0.46300454365E+00  0.46301156567E+00  0.25500000000E-02 0.  1.
         31    1    1    2    0    0 -0.22844892978E+00  0.61467252169E-01  0.59526750186E+02  0.59991240035E+02  0.74470750000E+01 0.  1.
        -31    1    1    2    0    0  0.22844892978E+00 -0.61467252169E-01  0.59911957504E+02  0.60373483792E+02  0.74470750000E+01 0. -1.
<mgrwt>
<rscale>  0 0.14901740E+02</rscale>
<asrwt>0</asrwt>
<pdfrwt beam="2">  1        2 0.98342646E+00 0.14901740E+02</pdfrwt>
<pdfrwt beam="1">  1       -2 0.99525975E+00 0.14901740E+02</pdfrwt>
<totfact>-0.44686997E-13</totfact>
</mgrwt>
</event>
<event>
 4    1 -0.5109406E-019  0.1495481E+02  0.7818608E-02  0.1869451E+00
         -2   -1    0    0    0  501 -0.00000000000E+00  0.00000000000E+00  0.12040396070E+03  0.12040396073E+03  0.25500000000E-02 0. -1.
          2   -1    0    0  501    0  0.00000000000E+00 -0.00000000000E+00 -0.46436316897E+00  0.46437017045E+00  0.25500000000E-02 0.  1.
         31    1    1    2    0    0 -0.14968539869E+00  0.45142045845E-01  0.54680902514E+02  0.55185908249E+02  0.74470750000E+01 0.  1.
        -31    1    1    2    0    0  0.14968539869E+00 -0.45142045845E-01  0.65258695020E+02  0.65682422651E+02  0.74470750000E+01 0. -1.
<mgrwt>
<rscale>  0 0.14954811E+02</rscale>
<asrwt>0</asrwt>
<pdfrwt beam="2">  1        2 0.98631689E+00 0.14954811E+02</pdfrwt>
<pdfrwt beam="1">  1       -2 0.99942393E+00 0.14954811E+02</pdfrwt>
<totfact>-0.54704560E-14</totfact>
</mgrwt>
</event>
<event>
 4    1  0.5109406E-019  0.1491208E+02  0.7818608E-02  0.1870763E+00
          2   -1    0    0  501    0  0.00000000000E+00  0.00000000000E+00  0.11933169397E+03  0.11933169400E+03  0.25500000000E-02 0. -1.
         -2   -1    0    0    0  501 -0.00000000000E+00 -0.00000000000E+00 -0.46586239695E+00  0.46586937589E+00  0.25500000000E-02 0.  1.
         31    1    1    2    0    0  0.96422072079E-01 -0.35170347120E+00  0.59228091486E+02  0.59695550418E+02  0.74470750000E+01 0. -1.
        -31    1    1    2    0    0 -0.96422072079E-01  0.35170347120E+00  0.59637740090E+02  0.60102012959E+02  0.74470750000E+01 0. -1.
<mgrwt>
<rscale>  0 0.14912085E+02</rscale>
<asrwt>0</asrwt>
<pdfrwt beam="1">  1        2 0.99057007E+00 0.14912085E+02</pdfrwt>
<pdfrwt beam="2">  1       -2 0.98945469E+00 0.14912085E+02</pdfrwt>
<totfact> 0.58994193E-14</totfact>
</mgrwt>
</event>
<event>
 4    1 -0.5109406E-019  0.1497068E+02  0.7818608E-02  0.1868964E+00
         -2   -1    0    0    0  501 -0.00000000000E+00  0.00000000000E+00  0.11988410915E+03  0.11988410918E+03  0.25500000000E-02 0.  1.
          2   -1    0    0  501    0  0.00000000000E+00 -0.00000000000E+00 -0.46736741008E+00  0.46737436654E+00  0.25500000000E-02 0. -1.
         31    1    1    2    0    0 -0.21476600072E+00  0.60721018467E+00  0.56527153088E+02  0.57019231764E+02  0.74470750000E+01 0. -1.
        -31    1    1    2    0    0  0.21476600072E+00 -0.60721018467E+00  0.62889588650E+02  0.63332251778E+02  0.74470750000E+01 0.  1.
<mgrwt>
<rscale>  0 0.14970684E+02</rscale>
<asrwt>0</asrwt>
<pdfrwt beam="2">  1        2 0.99265655E+00 0.14970684E+02</pdfrwt>
<pdfrwt beam="1">  1       -2 0.99515027E+00 0.14970684E+02</pdfrwt>
<totfact>-0.14375295E-13</totfact>
</mgrwt>
</event>
<event>
 4    1 -0.5109406E-019  0.1490773E+02  0.7818608E-02  0.1870897E+00
         -2   -1    0    0    0  501 -0.00000000000E+00  0.00000000000E+00  0.11961433017E+03  0.11961433020E+03  0.25500000000E-02 0. -1.
          2   -1    0    0  501    0  0.00000000000E+00 -0.00000000000E+00 -0.46449006225E+00  0.46449706181E+00  0.25500000000E-02 0.  1.
         31    1    1    2    0    0 -0.11145579328E+00  0.29083286562E+00  0.60094273396E+02  0.60554749007E+02  0.74470750000E+01 0. -1.
        -31    1    1    2    0    0  0.11145579328E+00 -0.29083286562E+00  0.59055566712E+02  0.59524078253E+02  0.74470750000E+01 0. -1.
<mgrwt>
<rscale>  0 0.14907728E+02</rscale>
<asrwt>0</asrwt>
<pdfrwt beam="2">  1        2 0.98656035E+00 0.14907728E+02</pdfrwt>
<pdfrwt beam="1">  1       -2 0.99289576E+00 0.14907728E+02</pdfrwt>
<totfact>-0.23178450E-13</totfact>
</mgrwt>
</event>
<event>
 4    1 -0.5109406E-019  0.1500128E+02  0.7818608E-02  0.1868029E+00
         -2   -1    0    0    0  501 -0.00000000000E+00  0.00000000000E+00  0.12039356038E+03  0.12039356041E+03  0.25500000000E-02 0.  1.
          2   -1    0    0  501    0  0.00000000000E+00 -0.00000000000E+00 -0.46729409782E+00  0.46730105538E+00  0.25500000000E-02 0. -1.
         31    1    1    2    0    0  0.41441026185E+00  0.70269923230E+00  0.57001003418E+02  0.57491206622E+02  0.74470750000E+01 0. -1.
        -31    1    1    2    0    0 -0.41441026185E+00 -0.70269923230E+00  0.62925262862E+02  0.63369654839E+02  0.74470750000E+01 0.  1.
<mgrwt>
<rscale>  0 0.15001283E+02</rscale>
<asrwt>0</asrwt>
<pdfrwt beam="2">  1        2 0.99251775E+00 0.15001283E+02</pdfrwt>
<pdfrwt beam="1">  1       -2 0.99936216E+00 0.15001283E+02</pdfrwt>
<totfact>-0.31141818E-14</totfact>
</mgrwt>
</event>
<event>
 4    1 -0.5109406E-019  0.1490695E+02  0.7818608E-02  0.1870921E+00
          2   -1    0    0  501    0  0.00000000000E+00  0.00000000000E+00  0.11835764992E+03  0.11835764995E+03  0.25500000000E-02 0. -1.
         -2   -1    0    0    0  501 -0.00000000000E+00 -0.00000000000E+00 -0.46937321339E+00  0.46938014013E+00  0.25500000000E-02 0.  1.
         31    1    1    2    0    0 -0.93042243150E-01  0.19241430940E+00  0.57166756255E+02  0.57650174561E+02  0.74470750000E+01 0.  1.
        -31    1    1    2    0    0  0.93042243150E-01 -0.19241430940E+00  0.60721520451E+02  0.61176855526E+02  0.74470750000E+01 0. -1.
<mgrwt>
<rscale>  0 0.14906955E+02</rscale>
<asrwt>0</asrwt>
<pdfrwt beam="1">  1        2 0.98254502E+00 0.14906955E+02</pdfrwt>
<pdfrwt beam="2">  1       -2 0.99684992E+00 0.14906955E+02</pdfrwt>
<totfact>-0.43204955E-13</totfact>
</mgrwt>
</event>
<event>
 4    1  0.5109406E-019  0.1494763E+02  0.7818608E-02  0.1869671E+00
          2   -1    0    0  501    0  0.00000000000E+00  0.00000000000E+00  0.12031268587E+03  0.12031268589E+03  0.25500000000E-02 0.  1.
         -2   -1    0    0    0  501 -0.00000000000E+00 -0.00000000000E+00 -0.46426946038E+00  0.46427646326E+00  0.25500000000E-02 0. -1.
         31    1    1    2    0    0  0.55985702338E+00  0.34918434277E-01  0.62270821002E+02  0.62717052972E+02  0.74470750000E+01 0.  1.
        -31    1    1    2    0    0 -0.55985702338E+00 -0.34918434277E-01  0.57577595404E+02  0.58059909385E+02  0.74470750000E+01 0.  1.
<mgrwt>
<rscale>  0 0.14947633E+02</rscale>
<asrwt>0</asrwt>
<pdfrwt beam="1">  1        2 0.99866843E+00 0.14947633E+02</pdfrwt>
<pdfrwt beam="2">  1       -2 0.98611575E+00 0.14947633E+02</pdfrwt>
<totfact> 0.13504926E-13</totfact>
</mgrwt>
</event>
<event>
 4    1 -0.5109406E-019  0.1494250E+02  0.7818608E-02  0.1869828E+00
         -2   -1    0    0    0  501 -0.00000000000E+00  0.00000000000E+00  0.11979402022E+03  0.11979402025E+03  0.25500000000E-02 0.  1.
          2   -1    0    0  501    0  0.00000000000E+00 -0.00000000000E+00 -0.46595956843E+00  0.46596654591E+00  0.25500000000E-02 0. -1.
         31    1    1    2    0    0  0.17624995595E+00  0.44604398891E+00  0.56755017935E+02  0.57243523705E+02  0.74470750000E+01 0. -1.
        -31    1    1    2    0    0 -0.17624995595E+00 -0.44604398891E+00  0.62573042719E+02  0.63016463091E+02  0.74470750000E+01 0. -1.
<mgrwt>
<rscale>  0 0.14942502E+02</rscale>
<asrwt>0</asrwt>
<pdfrwt beam="2">  1        2 0.98967513E+00 0.14942502E+02</pdfrwt>
<pdfrwt beam="1">  1       -2 0.99439371E+00 0.14942502E+02</pdfrwt>
<totfact>-0.18384699E-13</totfact>
</mgrwt>
</event>
<event>
 4    1 -0.5109406E-019  0.1489547E+02  0.7818608E-02  0.1871275E+00
         -2   -1    0    0    0  501 -0.00000000000E+00  0.00000000000E+00  0.12005926247E+03  0.12005926250E+03  0.25500000000E-02 0. -1.
          2   -1    0    0  501    0  0.00000000000E+00 -0.00000000000E+00 -0.46200796159E+00  0.46201499875E+00  0.25500000000E-02 0.  1.
         31    1    1    2    0    0 -0.84890447222E-01 -0.50366472907E-01  0.59876063563E+02  0.60337481362E+02  0.74470750000E+01 0. -1.
        -31    1    1    2    0    0  0.84890447222E-01  0.50366472907E-01  0.59721190946E+02  0.60183796135E+02  0.74470750000E+01 0. -1.
<mgrwt>
<rscale>  0 0.14895471E+02</rscale>
<asrwt>0</asrwt>
<pdfrwt beam="2">  1        2 0.98132281E+00 0.14895471E+02</pdfrwt>
<pdfrwt beam="1">  1       -2 0.99655425E+00 0.14895471E+02</pdfrwt>
<totfact>-0.55987110E-13</totfact>
</mgrwt>
</event>
<event>
 4    1 -0.5109406E-019  0.1501465E+02  0.7818608E-02  0.1867622E+00
         -2   -1    0    0    0  501 -0.00000000000E+00  0.00000000000E+00  0.12023272900E+03  0.12023272902E+03  0.25500000000E-02 0. -1.
          2   -1    0    0  501    0  0.00000000000E+00 -0.00000000000E+00 -0.46875326073E+00  0.46876019663E+00  0.25500000000E-02 0.  1.
         31    1    1    2    0    0 -0.37607124425E+00  0.83434930116E+00  0.61906288369E+02  0.62359321949E+02  0.74470750000E+01 0. -1.
        -31    1    1    2    0    0  0.37607124425E+00 -0.83434930116E+00  0.57857687368E+02  0.58342167272E+02  0.74470750000E+01 0.  1.
<mgrwt>
<rscale>  0 0.15014647E+02</rscale>
<asrwt>0</asrwt>
<pdfrwt beam="2">  1        2 0.99559974E+00 0.15014647E+02</pdfrwt>
<pdfrwt beam="1">  1       -2 0.99804436E+00 0.15014647E+02</pdfrwt>
<totfact>-0.65058900E-14</totfact>
</mgrwt>
</event>
<event>
 4    1  0.5109406E-019  0.1495484E+02  0.7818608E-02  0.1869450E+00
         -2   -1    0    0    0  501 -0.00000000000E+00  0.00000000000E+00  0.11901511508E+03  0.11901511511E+03  0.25500000000E-02 0. -1.
          2   -1    0    0  501    0  0.00000000000E+00 -0.00000000000E+00 -0.46978399691E+00  0.46979091759E+00  0.25500000000E-02 0.  1.
         31    1    1    2    0    0 -0.12247041174E+00 -0.40699945734E+00  0.63441412994E+02  0.63878419331E+02  0.74470750000E+01 0.  1.
        -31    1    1    2    0    0  0.12247041174E+00  0.40699945734E+00  0.55103918091E+02  0.55606486695E+02  0.74470750000E+01 0.  1.
<mgrwt>
<rscale>  0 0.14954840E+02</rscale>
<asrwt>0</asrwt>
<pdfrwt beam="2">  1        2 0.99774067E+00 0.14954840E+02</pdfrwt>
<pdfrwt beam="1">  1       -2 0.98798480E+00 0.14954840E+02</pdfrwt>
<totfact> 0.92031747E-14</totfact>
</mgrwt>
</event>
<event>
 4    1 -0.5109406E-019  0.1497961E+02  0.7818608E-02  0.1868691E+00
          2   -1    0    0  501    0  0.00000000000E+00  0.00000000000E+00  0.11970183905E+03  0.11970183908E+03  0.25500000000E-02 0. -1.
         -2   -1    0    0    0  501 -0.00000000000E+00 -0.00000000000E+00 -0.46863744410E+00  0.46864438171E+00  0.25500000000E-02 0.  1.
         31    1    1    2    0    0  0.66150486841E+00 -0.32575343210E+00  0.57149803680E+02  0.57637684641E+02  0.74470750000E+01 0.  1.
        -31    1    1    2    0    0 -0.66150486841E+00  0.32575343210E+00  0.62083397926E+02  0.62532798819E+02  0.74470750000E+01 0. -1.
<mgrwt>
<rscale>  0 0.14979610E+02</rscale>
<asrwt>0</asrwt>
<pdfrwt beam="1">  1        2 0.99365364E+00 0.14979610E+02</pdfrwt>
<pdfrwt beam="2">  1       -2 0.99533757E+00 0.14979610E+02</pdfrwt>
<totfact>-0.13261384E-13</totfact>
</mgrwt>
</event>
<event>
 4    1 -0.5109406E-019  0.1491919E+02  0.7818608E-02  0.1870545E+00
          2   -1    0    0  501    0  0.00000000000E+00  0.00000000000E+00  0.11892606691E+03  0.11892606694E+03  0.25500000000E-02 0.  1.
         -2   -1    0    0    0  501 -0.00000000000E+00 -0.00000000000E+00 -0.46789667520E+00  0.46790362380E+00  0.25500000000E-02 0. -1.
         31    1    1    2    0    0  0.43760449288E-01  0.34612776962E-01  0.62657093607E+02  0.63098125316E+02  0.74470750000E+01 0.  1.
        -31    1    1    2    0    0 -0.43760449288E-01 -0.34612776962E-01  0.55801076626E+02  0.56295845244E+02  0.74470750000E+01 0. -1.
<mgrwt>
<rscale>  0 0.14919186E+02</rscale>
<asrwt>0</asrwt>
<pdfrwt beam="1">  1        2 0.98723288E+00 0.14919186E+02</pdfrwt>
<pdfrwt beam="2">  1       -2 0.99374516E+00 0.14919186E+02</pdfrwt>
<totfact>-0.23721078E-13</totfact>
</mgrwt>
</event>
<event>
 4    1  0.5109406E-019  0.1491256E+02  0.7818608E-02  0.1870749E+00
         -2   -1    0    0    0  501 -0.00000000000E+00  0.00000000000E+00  0.11844486822E+03  0.11844486824E+03  0.25500000000E-02 0.  1.
          2   -1    0    0  501    0  0.00000000000E+00 -0.00000000000E+00 -0.46938007733E+00  0.46938700397E+00  0.25500000000E-02 0. -1.
         31    1    1    2    0    0  0.50634954038E-01  0.22496077603E+00  0.56676937978E+02  0.57164564162E+02  0.74470750000E+01 0.  1.
        -31    1    1    2    0    0 -0.50634954038E-01 -0.22496077603E+00  0.61298550160E+02  0.61749691084E+02  0.74470750000E+01 0.  1.
<mgrwt>
<rscale>  0 0.14912555E+02</rscale>
<asrwt>0</asrwt>
<pdfrwt beam="2">  1        2 0.99686734E+00 0.14912555E+02</pdfrwt>
<pdfrwt beam="1">  1       -2 0.98326626E+00 0.14912555E+02</pdfrwt>
<totfact> 0.57025484E-13</totfact>
</mgrwt>
</event>
<event>
 4    1  0.5109406E-019  0.1491599E+02  0.7818608E-02  0.1870643E+00
         -2   -1    0    0    0  501 -0.00000000000E+00  0.00000000000E+00  0.11886062715E+03  0.11886062717E+03  0.25500000000E-02 0. -1.
          2   -1    0    0  501    0  0.00000000000E+00 -0.00000000000E+00 -0.46795352557E+00  0.46796047333E+00  0.25500000000E-02 0.  1.
         31    1    1    2    0    0  0.28637148143E+00 -0.23075091075E+00  0.57870040420E+02  0.58348399797E+02  0.74470750000E+01 0. -1.
        -31    1    1    2    0    0 -0.28637148143E+00  0.23075091075E+00  0.60522633201E+02  0.60980187850E+02  0.74470750000E+01 0.  1.
<mgrwt>
<rscale>  0 0.14915987E+02</rscale>
<asrwt>0</asrwt>
<pdfrwt beam="2">  1        2 0.99386328E+00 0.14915987E+02</pdfrwt>
<pdfrwt beam="1">  1       -2 0.98669225E+00 0.14915987E+02</pdfrwt>
<totfact> 0.30782931E-13</totfact>
</mgrwt>
</event>
<event>
 4    1 -0.5109406E-019  0.1499515E+02  0.7818608E-02  0.1868217E+00
         -2   -1    0    0    0  501 -0.00000000000E+00  0.00000000000E+00  0.12013110709E+03  0.12013110712E+03  0.25500000000E-02 0.  1.
          2   -1    0    0  501    0  0.00000000000E+00 -0.00000000000E+00 -0.46793208210E+00  0.46793903017E+00  0.25500000000E-02 0. -1.
         31    1    1    2    0    0 -0.43824576091E-01 -0.81365923957E+00  0.57409038766E+02  0.57895773767E+02  0.74470750000E+01 0. -1.
        -31    1    1    2    0    0  0.43824576091E-01  0.81365923957E+00  0.62254136245E+02  0.62703272384E+02  0.74470750000E+01 0. -1.
<mgrwt>
<rscale>  0 0.14995149E+02</rscale>
<asrwt>0</asrwt>
<pdfrwt beam="2">  1        2 0.99385914E+00 0.14995149E+02</pdfrwt>
<pdfrwt beam="1">  1       -2 0.99719729E+00 0.14995149E+02</pdfrwt>
<totfact>-0.10114227E-13</totfact>
</mgrwt>
</event>
<event>
 4    1 -0.5109406E-019  0.1494616E+02  0.7818608E-02  0.1869716E+00
          2   -1    0    0  501    0  0.00000000000E+00  0.00000000000E+00  0.11931781723E+03  0.11931781726E+03  0.25500000000E-02 0.  1.
         -2   -1    0    0    0  501 -0.00000000000E+00 -0.00000000000E+00 -0.46804847703E+00  0.46805542338E+00  0.25500000000E-02 0. -1.
         31    1    1    2    0    0  0.38164695399E+00  0.46162148861E+00  0.58053833563E+02  0.58532600029E+02  0.74470750000E+01 0.  1.
        -31    1    1    2    0    0 -0.38164695399E+00 -0.46162148861E+00  0.60795935191E+02  0.61253272652E+02  0.74470750000E+01 0. -1.
<mgrwt>
<rscale>  0 0.14946162E+02</rscale>
<asrwt>0</asrwt>
<pdfrwt beam="1">  1        2 0.99047341E+00 0.14946162E+02</pdfrwt>
<pdfrwt beam="2">  1       -2 0.99407909E+00 0.14946162E+02</pdfrwt>
<totfact>-0.16813402E-13</totfact>
</mgrwt>
</event>
<event>
 4    1  0.5109406E-019  0.1495619E+02  0.7818608E-02  0.1869408E+00
          2   -1    0    0  501    0  0.00000000000E+00  0.00000000000E+00  0.12005721369E+03  0.12005721372E+03  0.25500000000E-02 0.  1.
         -2   -1    0    0    0  501 -0.00000000000E+00 -0.00000000000E+00 -0.46579054883E+00  0.46579752885E+00  0.25500000000E-02 0. -1.
         31    1    1    2    0    0  0.24088107390E+00 -0.50326978894E+00  0.62934430163E+02  0.63375963347E+02  0.74470750000E+01 0.  1.
        -31    1    1    2    0    0 -0.24088107390E+00  0.50326978894E+00  0.56656992980E+02  0.57147047901E+02  0.74470750000E+01 0. -1.
<mgrwt>
<rscale>  0 0.14956194E+02</rscale>
<asrwt>0</asrwt>
<pdfrwt beam="1">  1        2 0.99656858E+00 0.14956194E+02</pdfrwt>
<pdfrwt beam="2">  1       -2 0.98932594E+00 0.14956194E+02</pdfrwt>
<totfact> 0.40301009E-14</totfact>
</mgrwt>
</event>
<event>
 4    1 -0.5109406E-019  0.1490701E+02  0.7818608E-02  0.1870919E+00
          2   -1    0    0  501    0  0.00000000000E+00  0.00000000000E+00  0.11866518702E+03  0.11866518705E+03  0.25500000000E-02 0.  1.
         -2   -1    0    0    0  501 -0.00000000000E+00 -0.00000000000E+00 -0.46816031938E+00  0.46816726406E+00  0.25500000000E-02 0. -1.
         31    1    1    2    0    0  0.75054725775E-01 -0.12547275927E+00  0.61279028089E+02  0.61730054157E+02  0.74470750000E+01 0.  1.
        -31    1    1    2    0    0 -0.75054725775E-01  0.12547275927E+00  0.56917998610E+02  0.57403300153E+02  0.74470750000E+01 0. -1.
<mgrwt>
<rscale>  0 0.14907011E+02</rscale>
<asrwt>0</asrwt>
<pdfrwt beam="1">  1        2 0.98507793E+00 0.14907011E+02</pdfrwt>
<pdfrwt beam="2">  1       -2 0.99429433E+00 0.14907011E+02</pdfrwt>
<totfact>-0.34074682E-13</totfact>
</mgrwt>
</event>
<event>
 4    1 -0.5109406E-019  0.1496297E+02  0.7818608E-02  0.1869201E+00
         -2   -1    0    0    0  501 -0.00000000000E+00  0.00000000000E+00  0.12012749819E+03  0.12012749822E+03  0.25500000000E-02 0. -1.
          2   -1    0    0  501    0  0.00000000000E+00 -0.00000000000E+00 -0.46594002396E+00  0.46594700174E+00  0.25500000000E-02 0.  1.
         31    1    1    2    0    0 -0.58505038762E+00  0.28533558879E+00  0.62248688314E+02  0.62695947423E+02  0.74470750000E+01 0. -1.
        -31    1    1    2    0    0  0.58505038762E+00 -0.28533558879E+00  0.57412869854E+02  0.57897497798E+02  0.74470750000E+01 0. -1.
<mgrwt>
<rscale>  0 0.14962972E+02</rscale>
<asrwt>0</asrwt>
<pdfrwt beam="2">  1        2 0.98964442E+00 0.14962972E+02</pdfrwt>
<pdfrwt beam="1">  1       -2 0.99715098E+00 0.14962972E+02</pdfrwt>
<totfact>-0.14315129E-13</totfact>
</mgrwt>
</event>
<event>
 4    1 -0.5109406E-019  0.1491977E+02  0.7818608E-02  0.1870527E+00
          2   -1    0    0  501    0  0.00000000000E+00  0.00000000000E+00  0.11850164711E+03  0.11850164714E+03  0.25500000000E-02 0.  1.
         -2   -1    0    0    0  501 -0.00000000000E+00 -0.00000000000E+00 -0.46960896983E+00  0.46961589309E+00  0.25500000000E-02 0. -1.
         31    1    1    2    0    0 -0.40114247871E+00 -0.69652686107E-01  0.60280784309E+02  0.60740411999E+02  0.74470750000E+01 0.  1.
        -31    1    1    2    0    0  0.40114247871E+00  0.69652686107E-01  0.57751253832E+02  0.58230851032E+02  0.74470750000E+01 0. -1.
<mgrwt>
<rscale>  0 0.14919765E+02</rscale>
<asrwt>0</asrwt>
<pdfrwt beam="1">  1        2 0.98373764E+00 0.14919765E+02</pdfrwt>
<pdfrwt beam="2">  1       -2 0.99735342E+00 0.14919765E+02</pdfrwt>
<totfact>-0.31451928E-13</totfact>
</mgrwt>
</event>
<event>
 4    1  0.5109406E-019  0.1493236E+02  0.7818608E-02  0.1870140E+00
          2   -1    0    0  501    0  0.00000000000E+00  0.00000000000E+00  0.11979504081E+03  0.11979504084E+03  0.25500000000E-02 0. -1.
         -2   -1    0    0    0  501 -0.00000000000E+00 -0.00000000000E+00 -0.46532321482E+00  0.46533020184E+00  0.25500000000E-02 0.  1.
         31    1    1    2    0    0  0.39778304486E+00 -0.35088977992E+00  0.59184719904E+02  0.59653762255E+02  0.74470750000E+01 0. -1.
        -31    1    1    2    0    0 -0.39778304486E+00  0.35088977992E+00  0.60144997695E+02  0.60606608788E+02  0.74470750000E+01 0. -1.
<mgrwt>
<rscale>  0 0.14932359E+02</rscale>
<asrwt>0</asrwt>
<pdfrwt beam="1">  1        2 0.99439689E+00 0.14932359E+02</pdfrwt>
<pdfrwt beam="2">  1       -2 0.98832883E+00 0.14932359E+02</pdfrwt>
<totfact> 0.13098384E-13</totfact>
</mgrwt>
</event>
<event>
 4    1 -0.5109406E-019  0.1493638E+02  0.7818608E-02  0.1870016E+00
         -2   -1    0    0    0  501 -0.00000000000E+00  0.00000000000E+00  0.12028648976E+03  0.12028648979E+03  0.25500000000E-02 0.  1.
          2   -1    0    0  501    0  0.00000000000E+00 -0.00000000000E+00 -0.46367159722E+00  0.46367860913E+00  0.25500000000E-02 0. -1.
         31    1    1    2    0    0 -0.19231747198E+00 -0.20755925429E+00  0.63829258880E+02  0.64262845269E+02  0.74470750000E+01 0.  1.
        -31    1    1    2    0    0  0.19231747198E+00  0.20755925429E+00  0.55993559285E+02  0.56487323130E+02  0.74470750000E+01 0. -1.
<mgrwt>
<rscale>  0 0.14936379E+02</rscale>
<asrwt>0</asrwt>
<pdfrwt beam="2">  1        2 0.98484995E+00 0.14936379E+02</pdfrwt>
<pdfrwt beam="1">  1       -2 0.99844688E+00 0.14936379E+02</pdfrwt>
<totfact>-0.17119675E-13</totfact>
</mgrwt>
</event>
<event>
 4    1  0.5109406E-019  0.1490771E+02  0.7818608E-02  0.1870898E+00
          2   -1    0    0  501    0  0.00000000000E+00  0.00000000000E+00  0.11955634005E+03  0.11955634008E+03  0.25500000000E-02 0. -1.
         -2   -1    0    0    0  501 -0.00000000000E+00 -0.00000000000E+00 -0.46471407930E+00  0.46472107549E+00  0.25500000000E-02 0.  1.
         31    1    1    2    0    0 -0.18666607035E-01  0.15343981009E+00  0.61781564941E+02  0.62228969016E+02  0.74470750000E+01 0. -1.
        -31    1    1    2    0    0  0.18666607035E-01 -0.15343981009E+00  0.57310061031E+02  0.57792092138E+02  0.74470750000E+01 0.  1.
<mgrwt>
<rscale>  0 0.14907708E+02</rscale>
<asrwt>0</asrwt>
<pdfrwt beam="1">  1        2 0.99241811E+00 0.14907708E+02</pdfrwt>
<pdfrwt beam="2">  1       -2 0.98703245E+00 0.14907708E+02</pdfrwt>
<totfact> 0.29845752E-13</totfact>
</mgrwt>
</event>
<event>
 4    1  0.5109406E-019  0.1491923E+02  0.7818608E-02  0.1870543E+00
          2   -1    0    0  501    0  0.00000000000E+00  0.00000000000E+00  0.11951409477E+03  0.11951409480E+03  0.25500000000E-02 0.  1.
         -2   -1    0    0    0  501 -0.00000000000E+00 -0.00000000000E+00 -0.46559700053E+00  0.46560398345E+00  0.25500000000E-02 0. -1.
         31    1    1    2    0    0 -0.30407725357E+00  0.21046008537E+00  0.57723460216E+02  0.58203037221E+02  0.74470750000E+01 0. -1.
        -31    1    1    2    0    0  0.30407725357E+00 -0.21046008537E+00  0.61325037553E+02  0.61776661559E+02  0.74470750000E+01 0.  1.
<mgrwt>
<rscale>  0 0.14919226E+02</rscale>
<asrwt>0</asrwt>
<pdfrwt beam="1">  1        2 0.99207610E+00 0.14919226E+02</pdfrwt>
<pdfrwt beam="2">  1       -2 0.98889908E+00 0.14919226E+02</pdfrwt>
<totfact> 0.10058316E-13</totfact>
</mgrwt>
</event>
<event>
 4    1 -0.5109406E-019  0.1491176E+02  0.7818608E-02  0.1870773E+00
         -2   -1    0    0    0  501 -0.00000000000E+00  0.00000000000E+00  0.12020029879E+03  0.12020029882E+03  0.25500000000E-02 0. -1.
          2   -1    0    0  501    0  0.00000000000E+00 -0.00000000000E+00 -0.46247578958E+00  0.46248281962E+00  0.25500000000E-02 0.  1.
         31    1    1    2    0    0 -0.19636242655E+00  0.24794302657E+00  0.61298065130E+02  0.61749589057E+02  0.74470750000E+01 0. -1.
        -31    1    1    2    0    0  0.19636242655E+00 -0.24794302657E+00  0.58439757874E+02  0.58913192584E+02  0.74470750000E+01 0.  1.
<mgrwt>
<rscale>  0 0.14911761E+02</rscale>
<asrwt>0</asrwt>
<pdfrwt beam="2">  1        2 0.98231709E+00 0.14911761E+02</pdfrwt>
<pdfrwt beam="1">  1       -2 0.99772430E+00 0.14911761E+02</pdfrwt>
<totfact>-0.35750393E-13</totfact>
</mgrwt>
</event>
<event>
 4    1 -0.5109406E-019  0.1496109E+02  0.7818608E-02  0.1869258E+00
          2   -1    0    0  501    0  0.00000000000E+00  0.00000000000E+00  0.11924876370E+03  0.11924876373E+03  0.25500000000E-02 0. -1.
         -2   -1    0    0    0  501 -0.00000000000E+00 -0.00000000000E+00 -0.46925557390E+00  0.46926250238E+00  0.25500000000E-02 0.  1.
         31    1    1    2    0    0 -0.27741947701E+00 -0.27288951858E-01  0.64587523891E+02  0.65016035520E+02  0.74470750000E+01 0. -1.
        -31    1    1    2    0    0  0.27741947701E+00  0.27288951858E-01  0.54191984234E+02  0.54701990709E+02  0.74470750000E+01 0.  1.
<mgrwt>
<rscale>  0 0.14961091E+02</rscale>
<asrwt>0</asrwt>
<pdfrwt beam="1">  1        2 0.98991240E+00 0.14961091E+02</pdfrwt>
<pdfrwt beam="2">  1       -2 0.99663048E+00 0.14961091E+02</pdfrwt>
<totfact>-0.15491811E-13</totfact>
</mgrwt>
</event>
<event>
 4    1 -0.5109406E-019  0.1494769E+02  0.7818608E-02  0.1869669E+00
          2   -1    0    0  501    0  0.00000000000E+00  0.00000000000E+00  0.11908466567E+03  0.11908466570E+03  0.25500000000E-02 0. -1.
         -2   -1    0    0    0  501 -0.00000000000E+00 -0.00000000000E+00 -0.46906095598E+00  0.46906788733E+00  0.25500000000E-02 0.  1.
         31    1    1    2    0    0 -0.54526941360E+00 -0.29197343214E+00  0.60347247166E+02  0.60808155158E+02  0.74470750000E+01 0. -1.
        -31    1    1    2    0    0  0.54526941360E+00  0.29197343214E+00  0.58268357553E+02  0.58745578431E+02  0.74470750000E+01 0. -1.
<mgrwt>
<rscale>  0 0.14947693E+02</rscale>
<asrwt>0</asrwt>
<pdfrwt beam="1">  1        2 0.98855392E+00 0.14947693E+02</pdfrwt>
<pdfrwt beam="2">  1       -2 0.99621339E+00 0.14947693E+02</pdfrwt>
<totfact>-0.19079835E-13</totfact>
</mgrwt>
</event>
<event>
 4    1  0.5109406E-019  0.1492369E+02  0.7818608E-02  0.1870406E+00
         -2   -1    0    0    0  501 -0.00000000000E+00  0.00000000000E+00  0.11898286782E+03  0.11898286785E+03  0.25500000000E-02 0. -1.
          2   -1    0    0  501    0  0.00000000000E+00 -0.00000000000E+00 -0.46795602215E+00  0.46796296986E+00  0.25500000000E-02 0.  1.
         31    1    1    2    0    0 -0.43109996484E+00 -0.12870074646E+00  0.58188705459E+02  0.58665038823E+02  0.74470750000E+01 0.  1.
        -31    1    1    2    0    0  0.43109996484E+00  0.12870074646E+00  0.60326206342E+02  0.60785791997E+02  0.74470750000E+01 0.  1.
<mgrwt>
<rscale>  0 0.14923695E+02</rscale>
<asrwt>0</asrwt>
<pdfrwt beam="2">  1        2 0.99387257E+00 0.14923695E+02</pdfrwt>
<pdfrwt beam="1">  1       -2 0.98770304E+00 0.14923695E+02</pdfrwt>
<totfact> 0.19653785E-13</totfact>
</mgrwt>
</event>
<event>
 4    1  0.5109406E-019  0.1495330E+02  0.7818608E-02  0.1869497E+00
         -2   -1    0    0    0  501 -0.00000000000E+00  0.00000000000E+00  0.11900440752E+03  0.11900440754E+03  0.25500000000E-02 0. -1.
          2   -1    0    0  501    0  0.00000000000E+00 -0.00000000000E+00 -0.46972941726E+00  0.46973633874E+00  0.25500000000E-02 0.  1.
         31    1    1    2    0    0  0.54523052897E+00  0.15536063986E+00  0.56500198517E+02  0.56991690375E+02  0.74470750000E+01 0. -1.
        -31    1    1    2    0    0 -0.54523052897E+00 -0.15536063986E+00  0.62034479582E+02  0.62482453508E+02  0.74470750000E+01 0. -1.
<mgrwt>
<rscale>  0 0.14953299E+02</rscale>
<asrwt>0</asrwt>
<pdfrwt beam="2">  1        2 0.99762486E+00 0.14953299E+02</pdfrwt>
<pdfrwt beam="1">  1       -2 0.98789581E+00 0.14953299E+02</pdfrwt>
<totfact> 0.10039242E-13</totfact>
</mgrwt>
</event>
<event>
 4    1 -0.5109406E-019  0.1495281E+02  0.7818608E-02  0.1869512E+00
         -2   -1    0    0    0  501 -0.00000000000E+00  0.00000000000E+00  0.12018241297E+03  0.12018241300E+03  0.25500000000E-02 0.  1.
          2   -1    0    0  501    0  0.00000000000E+00 -0.00000000000E+00 -0.46509447457E+00  0.46510146503E+00  0.25500000000E-02 0. -1.
         31    1    1    2    0    0  0.43884189021E+00  0.45906998404E+00  0.58363339994E+02  0.58839966934E+02  0.74470750000E+01 0. -1.
        -31    1    1    2    0    0 -0.43884189021E+00 -0.45906998404E+00  0.61353978500E+02  0.61807547527E+02  0.74470750000E+01 0. -1.
<mgrwt>
<rscale>  0 0.14952806E+02</rscale>
<asrwt>0</asrwt>
<pdfrwt beam="2">  1        2 0.98785719E+00 0.14952806E+02</pdfrwt>
<pdfrwt beam="1">  1       -2 0.99759806E+00 0.14952806E+02</pdfrwt>
<totfact>-0.15580008E-13</totfact>
</mgrwt>
</event>
<event>
 4    1 -0.5109406E-019  0.1490350E+02  0.7818608E-02  0.1871028E+00
         -2   -1    0    0    0  501 -0.00000000000E+00  0.00000000000E+00  0.11995892943E+03  0.11995892946E+03  0.25500000000E-02 0. -1.
          2   -1    0    0  501    0  0.00000000000E+00 -0.00000000000E+00 -0.46289318619E+00  0.46290020990E+00  0.25500000000E-02 0.  1.
         31    1    1    2    0    0 -0.23656988541E+00  0.11427988337E+00  0.59953121571E+02  0.60414441464E+02  0.74470750000E+01 0. -1.
        -31    1    1    2    0    0  0.23656988541E+00 -0.11427988337E+00  0.59542914677E+02  0.60007388208E+02  0.74470750000E+01 0.  1.
<mgrwt>
<rscale>  0 0.14903502E+02</rscale>
<asrwt>0</asrwt>
<pdfrwt beam="2">  1        2 0.98319265E+00 0.14903502E+02</pdfrwt>
<pdfrwt beam="1">  1       -2 0.99573194E+00 0.14903502E+02</pdfrwt>
<totfact>-0.45123617E-13</totfact>
</mgrwt>
</event>
<event>
 4    1 -0.5109406E-019  0.1494264E+02  0.7818608E-02  0.1869824E+00
          2   -1    0    0  501    0  0.00000000000E+00  0.00000000000E+00  0.11895157687E+03  0.11895157690E+03  0.25500000000E-02 0. -1.
         -2   -1    0    0    0  501 -0.00000000000E+00 -0.00000000000E+00 -0.46926814757E+00  0.46927507586E+00  0.25500000000E-02 0.  1.
         31    1    1    2    0    0 -0.59584986609E+00  0.11767219560E-01  0.59885479541E+02  0.60349687335E+02  0.74470750000E+01 0. -1.
        -31    1    1    2    0    0  0.59584986609E+00 -0.11767219560E-01  0.58596829183E+02  0.59071164639E+02  0.74470750000E+01 0.  1.
<mgrwt>
<rscale>  0 0.14942637E+02</rscale>
<asrwt>0</asrwt>
<pdfrwt beam="1">  1        2 0.98745516E+00 0.14942637E+02</pdfrwt>
<pdfrwt beam="2">  1       -2 0.99664732E+00 0.14942637E+02</pdfrwt>
<totfact>-0.20570734E-13</totfact>
</mgrwt>
</event>
<event>
 4    1 -0.5109406E-019  0.1492659E+02  0.7818608E-02  0.1870317E+00
         -2   -1    0    0    0  501 -0.00000000000E+00  0.00000000000E+00  0.12030122249E+03  0.12030122251E+03  0.25500000000E-02 0.  1.
          2   -1    0    0  501    0  0.00000000000E+00 -0.00000000000E+00 -0.46300742027E+00  0.46301444224E+00  0.25500000000E-02 0. -1.
         31    1    1    2    0    0 -0.22644226572E-01 -0.45461396588E+00  0.61425592721E+02  0.61877051916E+02  0.74470750000E+01 0.  1.
        -31    1    1    2    0    0  0.22644226572E-01  0.45461396588E+00  0.58412622344E+02  0.58887185039E+02  0.74470750000E+01 0. -1.
<mgrwt>
<rscale>  0 0.14926592E+02</rscale>
<asrwt>0</asrwt>
<pdfrwt beam="2">  1        2 0.98344511E+00 0.14926592E+02</pdfrwt>
<pdfrwt beam="1">  1       -2 0.99856321E+00 0.14926592E+02</pdfrwt>
<totfact>-0.20209633E-13</totfact>
</mgrwt>
</event>
<event>
 4    1 -0.5109406E-019  0.1502765E+02  0.7818608E-02  0.1867226E+00
         -2   -1    0    0    0  501 -0.00000000000E+00  0.00000000000E+00  0.12017122152E+03  0.12017122154E+03  0.25500000000E-02 0.  1.
          2   -1    0    0  501    0  0.00000000000E+00 -0.00000000000E+00 -0.46980606789E+00  0.46981298825E+00  0.25500000000E-02 0. -1.
         31    1    1    2    0    0 -0.97820318244E+00  0.19802974821E+00  0.60257275101E+02  0.60723918071E+02  0.74470750000E+01 0.  1.
        -31    1    1    2    0    0  0.97820318244E+00 -0.19802974821E+00  0.59444140346E+02  0.59917116459E+02  0.74470750000E+01 0.  1.
<mgrwt>
<rscale>  0 0.15027653E+02</rscale>
<asrwt>0</asrwt>
<pdfrwt beam="2">  1        2 0.99782510E+00 0.15027653E+02</pdfrwt>
<pdfrwt beam="1">  1       -2 0.99754448E+00 0.15027653E+02</pdfrwt>
<totfact>-0.48689168E-14</totfact>
</mgrwt>
</event>
<event>
 4    1 -0.5109406E-019  0.1490214E+02  0.7818608E-02  0.1871069E+00
         -2   -1    0    0    0  501 -0.00000000000E+00  0.00000000000E+00  0.11985700449E+03  0.11985700452E+03  0.25500000000E-02 0.  1.
          2   -1    0    0  501    0  0.00000000000E+00 -0.00000000000E+00 -0.46320213858E+00  0.46320915760E+00  0.25500000000E-02 0. -1.
         31    1    1    2    0    0 -0.15169419403E+00  0.17119104039E+00  0.60382059202E+02  0.60839989456E+02  0.74470750000E+01 0.  1.
        -31    1    1    2    0    0  0.15169419403E+00 -0.17119104039E+00  0.59011743154E+02  0.59480224223E+02  0.74470750000E+01 0.  1.
<mgrwt>
<rscale>  0 0.14902140E+02</rscale>
<asrwt>0</asrwt>
<pdfrwt beam="2">  1        2 0.98384312E+00 0.14902140E+02</pdfrwt>
<pdfrwt beam="1">  1       -2 0.99489171E+00 0.14902140E+02</pdfrwt>
<totfact>-0.42092770E-13</totfact>
</mgrwt>
</event>
<event>
 4    1  0.5109406E-019  0.1489681E+02  0.7818608E-02  0.1871234E+00
         -2   -1    0    0    0  501 -0.00000000000E+00  0.00000000000E+00  0.11876398580E+03  0.11876398583E+03  0.25500000000E-02 0.  1.
          2   -1    0    0  501    0  0.00000000000E+00 -0.00000000000E+00 -0.46713074461E+00  0.46713770461E+00  0.25500000000E-02 0. -1.
         31    1    1    2    0    0 -0.25167498062E-01 -0.15805343787E-02  0.60256418730E+02  0.60714870996E+02  0.74470750000E+01 0.  1.
        -31    1    1    2    0    0  0.25167498062E-01  0.15805343787E-02  0.58040436327E+02  0.58516252537E+02  0.74470750000E+01 0. -1.
<mgrwt>
<rscale>  0 0.14896808E+02</rscale>
<asrwt>0</asrwt>
<pdfrwt beam="2">  1        2 0.99211953E+00 0.14896808E+02</pdfrwt>
<pdfrwt beam="1">  1       -2 0.98588635E+00 0.14896808E+02</pdfrwt>
<totfact> 0.46586414E-13</totfact>
</mgrwt>
</event>
<event>
 4    1  0.5109406E-019  0.1494675E+02  0.7818608E-02  0.1869698E+00
          2   -1    0    0  501    0  0.00000000000E+00  0.00000000000E+00  0.12032347238E+03  0.12032347241E+03  0.25500000000E-02 0.  1.
         -2   -1    0    0    0  501 -0.00000000000E+00 -0.00000000000E+00 -0.46417321386E+00  0.46418021819E+00  0.25500000000E-02 0. -1.
         31    1    1    2    0    0  0.14288827245E+00  0.26511423833E+00  0.55490660256E+02  0.55988954307E+02  0.74470750000E+01 0.  1.
        -31    1    1    2    0    0 -0.14288827245E+00 -0.26511423833E+00  0.64368638911E+02  0.64798698319E+02  0.74470750000E+01 0.  1.
<mgrwt>
<rscale>  0 0.14946753E+02</rscale>
<asrwt>0</asrwt>
<pdfrwt beam="1">  1        2 0.99875682E+00 0.14946753E+02</pdfrwt>
<pdfrwt beam="2">  1       -2 0.98591245E+00 0.14946753E+02</pdfrwt>
<totfact> 0.13631878E-13</totfact>
</mgrwt>
</event>
<event>
 4    1 -0.5109406E-019  0.1499563E+02  0.7818608E-02  0.1868202E+00
         -2   -1    0    0    0  501 -0.00000000000E+00  0.00000000000E+00  0.12028136506E+03  0.12028136509E+03  0.25500000000E-02 0. -1.
          2   -1    0    0  501    0  0.00000000000E+00 -0.00000000000E+00 -0.46737756145E+00  0.46738451776E+00  0.25500000000E-02 0.  1.
         31    1    1    2    0    0 -0.42311376200E+00  0.74778101083E+00  0.61048739592E+02  0.61507281955E+02  0.74470750000E+01 0. -1.
        -31    1    1    2    0    0  0.42311376200E+00 -0.74778101083E+00  0.58765247905E+02  0.59241467648E+02  0.74470750000E+01 0. -1.
<mgrwt>
<rscale>  0 0.14995630E+02</rscale>
<asrwt>0</asrwt>
<pdfrwt beam="2">  1        2 0.99269076E+00 0.14995630E+02</pdfrwt>
<pdfrwt beam="1">  1       -2 0.99843515E+00 0.14995630E+02</pdfrwt>
<totfact>-0.69798551E-14</totfact>
</mgrwt>
</event>
<event>
 4    1 -0.5109406E-019  0.1491028E+02  0.7818608E-02  0.1870819E+00
          2   -1    0    0  501    0  0.00000000000E+00  0.00000000000E+00  0.11847830812E+03  0.11847830814E+03  0.25500000000E-02 0. -1.
         -2   -1    0    0    0  501 -0.00000000000E+00 -0.00000000000E+00 -0.46910421802E+00  0.46911114873E+00  0.25500000000E-02 0.  1.
         31    1    1    2    0    0  0.30732561908E+00 -0.15671113974E+00  0.58733549001E+02  0.59204794668E+02  0.74470750000E+01 0.  1.
        -31    1    1    2    0    0 -0.30732561908E+00  0.15671113974E+00  0.59275654898E+02  0.59742624624E+02  0.74470750000E+01 0.  1.
<mgrwt>
<rscale>  0 0.14910277E+02</rscale>
<asrwt>0</asrwt>
<pdfrwt beam="1">  1        2 0.98354049E+00 0.14910277E+02</pdfrwt>
<pdfrwt beam="2">  1       -2 0.99628490E+00 0.14910277E+02</pdfrwt>
<totfact>-0.40080886E-13</totfact>
</mgrwt>
</event>
<event>
 4    1  0.5109406E-019  0.1489804E+02  0.7818608E-02  0.1871196E+00
         -2   -1    0    0    0  501 -0.00000000000E+00  0.00000000000E+00  0.11816578378E+03  0.11816578381E+03  0.25500000000E-02 0.  1.
          2   -1    0    0  501    0  0.00000000000E+00 -0.00000000000E+00 -0.46957340747E+00  0.46958033125E+00  0.25500000000E-02 0. -1.
         31    1    1    2    0    0 -0.10370186997E+00 -0.66543275610E-01  0.57912174725E+02  0.58389160720E+02  0.74470750000E+01 0. -1.
        -31    1    1    2    0    0  0.10370186997E+00  0.66543275610E-01  0.59784035650E+02  0.60246203422E+02  0.74470750000E+01 0.  1.
<mgrwt>
<rscale>  0 0.14898043E+02</rscale>
<asrwt>0</asrwt>
<pdfrwt beam="2">  1        2 0.99726701E+00 0.14898043E+02</pdfrwt>
<pdfrwt beam="1">  1       -2 0.98096020E+00 0.14898043E+02</pdfrwt>
<totfact> 0.82795930E-13</totfact>
</mgrwt>
</event>
<event>
 4    1 -0.5109406E-019  0.1502137E+02  0.7818608E-02  0.1867417E+00
         -2   -1    0    0    0  501 -0.00000000000E+00  0.00000000000E+00  0.12001683008E+03  0.12001683011E+03  0.25500000000E-02 0. -1.
          2   -1    0    0  501    0  0.00000000000E+00 -0.00000000000E+00 -0.47001706906E+00  0.47002398631E+00  0.25500000000E-02 0.  1.
         31    1    1    2    0    0 -0.73542152756E+00  0.51402941009E+00  0.62842223323E+02  0.63288300888E+02  0.74470750000E+01 0. -1.
        -31    1    1    2    0    0  0.73542152756E+00 -0.51402941009E+00  0.56704589689E+02  0.57198553206E+02  0.74470750000E+01 0.  1.
<mgrwt>
<rscale>  0 0.15021368E+02</rscale>
<asrwt>0</asrwt>
<pdfrwt beam="2">  1        2 0.99826649E+00 0.15021368E+02</pdfrwt>
<pdfrwt beam="1">  1       -2 0.99626961E+00 0.15021368E+02</pdfrwt>
<totfact>-0.53134072E-14</totfact>
</mgrwt>
</event>
<event>
 4    1  0.5109406E-019  0.1490447E+02  0.7818608E-02  0.1870998E+00
          2   -1    0    0  501    0  0.00000000000E+00  0.00000000000E+00  0.12033825217E+03  0.12033825220E+03  0.25500000000E-02 0. -1.
         -2   -1    0    0    0  501 -0.00000000000E+00 -0.00000000000E+00 -0.46149384032E+00  0.46150088533E+00  0.25500000000E-02 0.  1.
         31    1    1    2    0    0 -0.11199232239E+00  0.21674839490E+00  0.58871076441E+02  0.59340728758E+02  0.74470750000E+01 0.  1.
        -31    1    1    2    0    0  0.11199232239E+00 -0.21674839490E+00  0.61005681887E+02  0.61459024322E+02  0.74470750000E+01 0. -1.
<mgrwt>
<rscale>  0 0.14904468E+02</rscale>
<asrwt>0</asrwt>
<pdfrwt beam="1">  1        2 0.99885688E+00 0.14904468E+02</pdfrwt>
<pdfrwt beam="2">  1       -2 0.98024370E+00 0.14904468E+02</pdfrwt>
<totfact> 0.46845609E-13</totfact>
</mgrwt>
</event>
<event>
 4    1  0.5109406E-019  0.1491529E+02  0.7818608E-02  0.1870665E+00
          2   -1    0    0  501    0  0.00000000000E+00  0.00000000000E+00  0.11963783088E+03  0.11963783091E+03  0.25500000000E-02 0. -1.
         -2   -1    0    0    0  501 -0.00000000000E+00 -0.00000000000E+00 -0.46487001467E+00  0.46487700851E+00  0.25500000000E-02 0.  1.
         31    1    1    2    0    0 -0.12874253668E+00  0.36625726328E+00  0.58921652091E+02  0.59391672229E+02  0.74470750000E+01 0. -1.
        -31    1    1    2    0    0  0.12874253668E+00 -0.36625726328E+00  0.60251308780E+02  0.60711035691E+02  0.74470750000E+01 0.  1.
<mgrwt>
<rscale>  0 0.14915289E+02</rscale>
<asrwt>0</asrwt>
<pdfrwt beam="1">  1        2 0.99309322E+00 0.14915289E+02</pdfrwt>
<pdfrwt beam="2">  1       -2 0.98736497E+00 0.14915289E+02</pdfrwt>
<totfact> 0.24562049E-13</totfact>
</mgrwt>
</event>
<event>
 4    1  0.5109406E-019  0.1493248E+02  0.7818608E-02  0.1870136E+00
          2   -1    0    0  501    0  0.00000000000E+00  0.00000000000E+00  0.12028092196E+03  0.12028092199E+03  0.25500000000E-02 0.  1.
         -2   -1    0    0    0  501 -0.00000000000E+00 -0.00000000000E+00 -0.46345088714E+00  0.46345790240E+00  0.25500000000E-02 0. -1.
         31    1    1    2    0    0  0.99443321977E-03  0.43683483436E+00  0.57416804014E+02  0.57899388036E+02  0.74470750000E+01 0. -1.
        -31    1    1    2    0    0 -0.99443321977E-03 -0.43683483436E+00  0.62400667061E+02  0.62844991856E+02  0.74470750000E+01 0.  1.
<mgrwt>
<rscale>  0 0.14932478E+02</rscale>
<asrwt>0</asrwt>
<pdfrwt beam="1">  1        2 0.99839901E+00 0.14932478E+02</pdfrwt>
<pdfrwt beam="2">  1       -2 0.98438279E+00 0.14932478E+02</pdfrwt>
<totfact> 0.26326702E-13</totfact>
</mgrwt>
</event>
<event>
 4    1  0.5109406E-019  0.1489700E+02  0.7818608E-02  0.1871228E+00
          2   -1    0    0  501    0  0.00000000000E+00  0.00000000000E+00  0.12001601649E+03  0.12001601652E+03  0.25500000000E-02 0.  1.
         -2   -1    0    0    0  501 -0.00000000000E+00 -0.00000000000E+00 -0.46226963430E+00  0.46227666748E+00  0.25500000000E-02 0. -1.
         31    1    1    2    0    0  0.36107319178E-01 -0.48043714660E-01  0.60851233363E+02  0.61305261925E+02  0.74470750000E+01 0.  1.
        -31    1    1    2    0    0 -0.36107319178E-01  0.48043714660E-01  0.58702513495E+02  0.59173031261E+02  0.74470750000E+01 0. -1.
<mgrwt>
<rscale>  0 0.14897004E+02</rscale>
<asrwt>0</asrwt>
<pdfrwt beam="1">  1        2 0.99619882E+00 0.14897004E+02</pdfrwt>
<pdfrwt beam="2">  1       -2 0.98187512E+00 0.14897004E+02</pdfrwt>
<totfact> 0.86363730E-13</totfact>
</mgrwt>
</event>
<event>
 4    1  0.5109406E-019  0.1494517E+02  0.7818608E-02  0.1869746E+00
         -2   -1    0    0    0  501 -0.00000000000E+00  0.00000000000E+00  0.11900214358E+03  0.11900214360E+03  0.25500000000E-02 0.  1.
          2   -1    0    0  501    0  0.00000000000E+00 -0.00000000000E+00 -0.46922776710E+00  0.46923469599E+00  0.25500000000E-02 0. -1.
         31    1    1    2    0    0 -0.29580902047E+00  0.20017129732E+00  0.63287580965E+02  0.63725225790E+02  0.74470750000E+01 0.  1.
        -31    1    1    2    0    0  0.29580902047E+00 -0.20017129732E+00  0.55245334844E+02  0.55746152509E+02  0.74470750000E+01 0. -1.
<mgrwt>
<rscale>  0 0.14945170E+02</rscale>
<asrwt>0</asrwt>
<pdfrwt beam="2">  1        2 0.99656356E+00 0.14945170E+02</pdfrwt>
<pdfrwt beam="1">  1       -2 0.98787295E+00 0.14945170E+02</pdfrwt>
<totfact> 0.13104703E-13</totfact>
</mgrwt>
</event>
<event>
 4    1 -0.5109406E-019  0.1496922E+02  0.7818608E-02  0.1869009E+00
          2   -1    0    0  501    0  0.00000000000E+00  0.00000000000E+00  0.11963059387E+03  0.11963059390E+03  0.25500000000E-02 0. -1.
         -2   -1    0    0    0  501 -0.00000000000E+00 -0.00000000000E+00 -0.46826622515E+00  0.46827316826E+00  0.25500000000E-02 0.  1.
         31    1    1    2    0    0  0.21871894591E+00  0.19170913885E+00  0.65115726815E+02  0.65540837613E+02  0.74470750000E+01 0. -1.
        -31    1    1    2    0    0 -0.21871894591E+00 -0.19170913885E+00  0.54046600834E+02  0.54558029456E+02  0.74470750000E+01 0.  1.
<mgrwt>
<rscale>  0 0.14969220E+02</rscale>
<asrwt>0</asrwt>
<pdfrwt beam="1">  1        2 0.99306146E+00 0.14969220E+02</pdfrwt>
<pdfrwt beam="2">  1       -2 0.99454992E+00 0.14969220E+02</pdfrwt>
<totfact>-0.14035572E-13</totfact>
</mgrwt>
</event>
<event>
 4    1 -0.5109406E-019  0.1501227E+02  0.7818608E-02  0.1867694E+00
          2   -1    0    0  501    0  0.00000000000E+00  0.00000000000E+00  0.12015814036E+03  0.12015814039E+03  0.25500000000E-02 0.  1.
         -2   -1    0    0    0  501 -0.00000000000E+00 -0.00000000000E+00 -0.46889566321E+00  0.46890259700E+00  0.25500000000E-02 0. -1.
         31    1    1    2    0    0 -0.81173208809E+00 -0.47224369053E+00  0.60123157147E+02  0.60589890860E+02  0.74470750000E+01 0.  1.
        -31    1    1    2    0    0  0.81173208809E+00  0.47224369053E+00  0.59566087550E+02  0.60037152124E+02  0.74470750000E+01 0. -1.
<mgrwt>
<rscale>  0 0.15012268E+02</rscale>
<asrwt>0</asrwt>
<pdfrwt beam="1">  1        2 0.99742879E+00 0.15012268E+02</pdfrwt>
<pdfrwt beam="2">  1       -2 0.99589861E+00 0.15012268E+02</pdfrwt>
<totfact>-0.74993506E-14</totfact>
</mgrwt>
</event>
<event>
 4    1 -0.5109406E-019  0.1499186E+02  0.7818608E-02  0.1868317E+00
          2   -1    0    0  501    0  0.00000000000E+00  0.00000000000E+00  0.11989419950E+03  0.11989419953E+03  0.25500000000E-02 0.  1.
         -2   -1    0    0    0  501 -0.00000000000E+00 -0.00000000000E+00 -0.46865107344E+00  0.46865801085E+00  0.25500000000E-02 0. -1.
         31    1    1    2    0    0  0.29713164125E-01 -0.14215426509E+00  0.66472733319E+02  0.66888745628E+02  0.74470750000E+01 0.  1.
        -31    1    1    2    0    0 -0.29713164125E-01  0.14215426509E+00  0.52952815105E+02  0.53474111908E+02  0.74470750000E+01 0. -1.
<mgrwt>
<rscale>  0 0.14991860E+02</rscale>
<asrwt>0</asrwt>
<pdfrwt beam="1">  1        2 0.99524432E+00 0.14991860E+02</pdfrwt>
<pdfrwt beam="2">  1       -2 0.99537263E+00 0.14991860E+02</pdfrwt>
<totfact>-0.11461330E-13</totfact>
</mgrwt>
</event>
<event>
 4    1 -0.5109406E-019  0.1490173E+02  0.7818608E-02  0.1871082E+00
          2   -1    0    0  501    0  0.00000000000E+00  0.00000000000E+00  0.11806269809E+03  0.11806269811E+03  0.25500000000E-02 0. -1.
         -2   -1    0    0    0  501 -0.00000000000E+00 -0.00000000000E+00 -0.47021634553E+00  0.47022325985E+00  0.25500000000E-02 0.  1.
         31    1    1    2    0    0  0.80868076231E-02 -0.28364712758E-01  0.60672273942E+02  0.61127609321E+02  0.74470750000E+01 0. -1.
        -31    1    1    2    0    0 -0.80868076231E-02  0.28364712758E-01  0.56920207798E+02  0.57405312052E+02  0.74470750000E+01 0.  1.
<mgrwt>
<rscale>  0 0.14901734E+02</rscale>
<asrwt>0</asrwt>
<pdfrwt beam="1">  1        2 0.98011313E+00 0.14901734E+02</pdfrwt>
<pdfrwt beam="2">  1       -2 0.99862357E+00 0.14901734E+02</pdfrwt>
<totfact>-0.34043478E-13</totfact>
</mgrwt>
</event>
<event>
 4    1 -0.5109406E-019  0.1499531E+02  0.7818608E-02  0.1868212E+00
         -2   -1    0    0    0  501 -0.00000000000E+00  0.00000000000E+00  0.11980197876E+03  0.11980197879E+03  0.25500000000E-02 0. -1.
          2   -1    0    0  501    0  0.00000000000E+00 -0.00000000000E+00 -0.46922782609E+00  0.46923475498E+00  0.25500000000E-02 0.  1.
         31    1    1    2    0    0 -0.27457312232E+00 -0.58427661580E-01  0.66266252705E+02  0.66683985917E+02  0.74470750000E+01 0. -1.
        -31    1    1    2    0    0  0.27457312232E+00  0.58427661580E-01  0.53066498233E+02  0.53587227629E+02  0.74470750000E+01 0. -1.
<mgrwt>
<rscale>  0 0.14995311E+02</rscale>
<asrwt>0</asrwt>
<pdfrwt beam="2">  1        2 0.99658982E+00 0.14995311E+02</pdfrwt>
<pdfrwt beam="1">  1       -2 0.99448654E+00 0.14995311E+02</pdfrwt>
<totfact>-0.95728224E-14</totfact>
</mgrwt>
</event>
<event>
 4    1  0.5109406E-019  0.1489854E+02  0.7818608E-02  0.1871180E+00
          2   -1    0    0  501    0  0.00000000000E+00  0.00000000000E+00  0.12021431368E+03  0.12021431371E+03  0.25500000000E-02 0.  1.
         -2   -1    0    0    0  501 -0.00000000000E+00 -0.00000000000E+00 -0.46160235170E+00  0.46160939505E+00  0.25500000000E-02 0. -1.
         31    1    1    2    0    0  0.13602077875E+00  0.76119655213E-01  0.59133347133E+02  0.59600637287E+02  0.74470750000E+01 0. -1.
        -31    1    1    2    0    0 -0.13602077875E+00 -0.76119655213E-01  0.60619364199E+02  0.61075285819E+02  0.74470750000E+01 0. -1.
<mgrwt>
<rscale>  0 0.14898542E+02</rscale>
<asrwt>0</asrwt>
<pdfrwt beam="1">  1        2 0.99783296E+00 0.14898542E+02</pdfrwt>
<pdfrwt beam="2">  1       -2 0.98046944E+00 0.14898542E+02</pdfrwt>
<totfact> 0.76244608E-13</totfact>
</mgrwt>
</event>
<event>
 4    1 -0.5109406E-019  0.1491441E+02  0.7818608E-02  0.1870692E+00
          2   -1    0    0  501    0  0.00000000000E+00  0.00000000000E+00  0.11916642141E+03  0.11916642144E+03  0.25500000000E-02 0. -1.
         -2   -1    0    0    0  501 -0.00000000000E+00 -0.00000000000E+00 -0.46665383473E+00  0.46666080183E+00  0.25500000000E-02 0.  1.
         31    1    1    2    0    0 -0.25662660158E+00 -0.81743663231E-01  0.57103621880E+02  0.57587803371E+02  0.74470750000E+01 0. -1.
        -31    1    1    2    0    0  0.25662660158E+00  0.81743663231E-01  0.61596145694E+02  0.62045278867E+02  0.74470750000E+01 0.  1.
<mgrwt>
<rscale>  0 0.14914407E+02</rscale>
<asrwt>0</asrwt>
<pdfrwt beam="1">  1        2 0.98921003E+00 0.14914407E+02</pdfrwt>
<pdfrwt beam="2">  1       -2 0.99112372E+00 0.14914407E+02</pdfrwt>
<totfact>-0.76378545E-14</totfact>
</mgrwt>
</event>
<event>
 4    1 -0.5109406E-019  0.1503259E+02  0.7818608E-02  0.1867076E+00
         -2   -1    0    0    0  501 -0.00000000000E+00  0.00000000000E+00  0.12021781416E+03  0.12021781418E+03  0.25500000000E-02 0.  1.
          2   -1    0    0  501    0  0.00000000000E+00 -0.00000000000E+00 -0.46993270327E+00  0.46993962176E+00  0.25500000000E-02 0. -1.
         31    1    1    2    0    0 -0.16526356116E+00 -0.76918361688E+00  0.65057208069E+02  0.65486778844E+02  0.74470750000E+01 0. -1.
        -31    1    1    2    0    0  0.16526356116E+00  0.76918361688E+00  0.54690673384E+02  0.55200974962E+02  0.74470750000E+01 0. -1.
<mgrwt>
<rscale>  0 0.15032591E+02</rscale>
<asrwt>0</asrwt>
<pdfrwt beam="2">  1        2 0.99809452E+00 0.15032591E+02</pdfrwt>
<pdfrwt beam="1">  1       -2 0.99793079E+00 0.15032591E+02</pdfrwt>
<totfact>-0.38528284E-14</totfact>
</mgrwt>
</event>
<event>
 4    1  0.5109406E-019  0.1494112E+02  0.7818608E-02  0.1869871E+00
         -2   -1    0    0    0  501 -0.00000000000E+00  0.00000000000E+00  0.11857260332E+03  0.11857260334E+03  0.25500000000E-02 0. -1.
          2   -1    0    0  501    0  0.00000000000E+00 -0.00000000000E+00 -0.47067248801E+00  0.47067939563E+00  0.25500000000E-02 0.  1.
         31    1    1    2    0    0 -0.50155387029E+00  0.10319709422E+00  0.61416425721E+02  0.61868396458E+02  0.74470750000E+01 0.  1.
        -31    1    1    2    0    0  0.50155387029E+00 -0.10319709422E+00  0.56685505107E+02  0.57174886281E+02  0.74470750000E+01 0.  1.
<mgrwt>
<rscale>  0 0.14941121E+02</rscale>
<asrwt>0</asrwt>
<pdfrwt beam="2">  1        2 0.99960552E+00 0.14941121E+02</pdfrwt>
<pdfrwt beam="1">  1       -2 0.98433315E+00 0.14941121E+02</pdfrwt>
<totfact> 0.75097962E-14</totfact>
</mgrwt>
</event>
<event>
 4    1 -0.5109406E-019  0.1495171E+02  0.7818608E-02  0.1869546E+00
          2   -1    0    0  501    0  0.00000000000E+00  0.00000000000E+00  0.11919942361E+03  0.11919942364E+03  0.25500000000E-02 0. -1.
         -2   -1    0    0    0  501 -0.00000000000E+00 -0.00000000000E+00 -0.46886134430E+00  0.46886827860E+00  0.25500000000E-02 0.  1.
         31    1    1    2    0    0  0.57832991601E+00  0.27625348939E+00  0.58270476422E+02  0.58747920218E+02  0.74470750000E+01 0.  1.
        -31    1    1    2    0    0 -0.57832991601E+00 -0.27625348939E+00  0.60460085849E+02  0.60920371703E+02  0.74470750000E+01 0. -1.
<mgrwt>
<rscale>  0 0.14951711E+02</rscale>
<asrwt>0</asrwt>
<pdfrwt beam="1">  1        2 0.98950117E+00 0.14951711E+02</pdfrwt>
<pdfrwt beam="2">  1       -2 0.99579487E+00 0.14951711E+02</pdfrwt>
<totfact>-0.17966333E-13</totfact>
</mgrwt>
</event>
<event>
 4    1 -0.5109406E-019  0.1495792E+02  0.7818608E-02  0.1869355E+00
          2   -1    0    0  501    0  0.00000000000E+00  0.00000000000E+00  0.11897031958E+03  0.11897031960E+03  0.25500000000E-02 0. -1.
         -2   -1    0    0    0  501 -0.00000000000E+00 -0.00000000000E+00 -0.47015445423E+00  0.47016136946E+00  0.25500000000E-02 0.  1.
         31    1    1    2    0    0  0.57503646701E+00  0.11654751512E+00  0.56352646841E+02  0.56845615330E+02  0.74470750000E+01 0.  1.
        -31    1    1    2    0    0 -0.57503646701E+00 -0.11654751512E+00  0.62147518282E+02  0.62594865644E+02  0.74470750000E+01 0. -1.
<mgrwt>
<rscale>  0 0.14957920E+02</rscale>
<asrwt>0</asrwt>
<pdfrwt beam="1">  1        2 0.98761746E+00 0.14957920E+02</pdfrwt>
<pdfrwt beam="2">  1       -2 0.99852287E+00 0.14957920E+02</pdfrwt>
<totfact>-0.10815788E-13</totfact>
</mgrwt>
</event>
<event>
 4    1  0.5109406E-019  0.1492740E+02  0.7818608E-02  0.1870292E+00
          2   -1    0    0  501    0  0.00000000000E+00  0.00000000000E+00  0.12010644893E+03  0.12010644896E+03  0.25500000000E-02 0. -1.
         -2   -1    0    0    0  501 -0.00000000000E+00 -0.00000000000E+00 -0.46380872735E+00  0.46381573720E+00  0.25500000000E-02 0.  1.
         31    1    1    2    0    0 -0.44334956734E+00  0.21135798005E+00  0.59160853754E+02  0.59629747392E+02  0.74470750000E+01 0.  1.
        -31    1    1    2    0    0  0.44334956734E+00 -0.21135798005E+00  0.60481786448E+02  0.60940517302E+02  0.74470750000E+01 0. -1.
<mgrwt>
<rscale>  0 0.14927403E+02</rscale>
<asrwt>0</asrwt>
<pdfrwt beam="1">  1        2 0.99695931E+00 0.14927403E+02</pdfrwt>
<pdfrwt beam="2">  1       -2 0.98513442E+00 0.14927403E+02</pdfrwt>
<totfact> 0.34756203E-13</totfact>
</mgrwt>
</event>
<event>
 4    1  0.5109406E-019  0.1489983E+02  0.7818608E-02  0.1871141E+00
          2   -1    0    0  501    0  0.00000000000E+00  0.00000000000E+00  0.12034034094E+03  0.12034034096E+03  0.25500000000E-02 0.  1.
         -2   -1    0    0    0  501 -0.00000000000E+00 -0.00000000000E+00 -0.46119879189E+00  0.46120584140E+00  0.25500000000E-02 0. -1.
         31    1    1    2    0    0  0.18571256439E+00 -0.81633874366E-01  0.59662488491E+02  0.60125806541E+02  0.74470750000E+01 0. -1.
        -31    1    1    2    0    0 -0.18571256439E+00  0.81633874366E-01  0.60216653655E+02  0.60675740265E+02  0.74470750000E+01 0.  1.
<mgrwt>
<rscale>  0 0.14899832E+02</rscale>
<asrwt>0</asrwt>
<pdfrwt beam="1">  1        2 0.99887171E+00 0.14899832E+02</pdfrwt>
<pdfrwt beam="2">  1       -2 0.97961946E+00 0.14899832E+02</pdfrwt>
<totfact> 0.51424958E-13</totfact>
</mgrwt>
</event>
<event>
 4    1 -0.5109406E-019  0.1492842E+02  0.7818608E-02  0.1870261E+00
          2   -1    0    0  501    0  0.00000000000E+00  0.00000000000E+00  0.11838291638E+03  0.11838291640E+03  0.25500000000E-02 0. -1.
         -2   -1    0    0    0  501 -0.00000000000E+00 -0.00000000000E+00 -0.47062523076E+00  0.47063213908E+00  0.25500000000E-02 0.  1.
         31    1    1    2    0    0  0.33290742198E+00  0.27124762027E+00  0.61078628106E+02  0.61532447863E+02  0.74470750000E+01 0. -1.
        -31    1    1    2    0    0 -0.33290742198E+00 -0.27124762027E+00  0.56833663040E+02  0.57321100681E+02  0.74470750000E+01 0.  1.
<mgrwt>
<rscale>  0 0.14928416E+02</rscale>
<asrwt>0</asrwt>
<pdfrwt beam="1">  1        2 0.98276430E+00 0.14928416E+02</pdfrwt>
<pdfrwt beam="2">  1       -2 0.99949922E+00 0.14928416E+02</pdfrwt>
<totfact>-0.85339332E-14</totfact>
</mgrwt>
</event>
<event>
 4    1 -0.5109406E-019  0.1499013E+02  0.7818608E-02  0.1868370E+00
         -2   -1    0    0    0  501 -0.00000000000E+00  0.00000000000E+00  0.11999973195E+03  0.11999973197E+03  0.25500000000E-02 0.  1.
          2   -1    0    0  501    0  0.00000000000E+00 -0.00000000000E+00 -0.46813117322E+00  0.46813811834E+00  0.25500000000E-02 0. -1.
         31    1    1    2    0    0 -0.35585415815E+00 -0.14452231811E+00  0.65831026517E+02  0.66252022589E+02  0.74470750000E+01 0.  1.
        -31    1    1    2    0    0  0.35585415815E+00  0.14452231811E+00  0.53700574257E+02  0.54215847503E+02  0.74470750000E+01 0. -1.
<mgrwt>
<rscale>  0 0.14990135E+02</rscale>
<asrwt>0</asrwt>
<pdfrwt beam="2">  1        2 0.99427612E+00 0.14990135E+02</pdfrwt>
<pdfrwt beam="1">  1       -2 0.99611264E+00 0.14990135E+02</pdfrwt>
<totfact>-0.11829866E-13</totfact>
</mgrwt>
</event>
<event>
 4    1 -0.5109406E-019  0.1494978E+02  0.7818608E-02  0.1869605E+00
         -2   -1    0    0    0  501 -0.00000000000E+00  0.00000000000E+00  0.11996233495E+03  0.11996233498E+03  0.25500000000E-02 0. -1.
          2   -1    0    0  501    0  0.00000000000E+00 -0.00000000000E+00 -0.46575941912E+00  0.46576639960E+00  0.25500000000E-02 0.  1.
         31    1    1    2    0    0  0.60091778120E+00 -0.23226055579E+00  0.59699823353E+02  0.60165961154E+02  0.74470750000E+01 0. -1.
        -31    1    1    2    0    0 -0.60091778120E+00  0.23226055579E+00  0.59796752177E+02  0.60262140222E+02  0.74470750000E+01 0. -1.
<mgrwt>
<rscale>  0 0.14949784E+02</rscale>
<asrwt>0</asrwt>
<pdfrwt beam="2">  1        2 0.98925705E+00 0.14949784E+02</pdfrwt>
<pdfrwt beam="1">  1       -2 0.99578380E+00 0.14949784E+02</pdfrwt>
<totfact>-0.18452050E-13</totfact>
</mgrwt>
</event>
<event>
 4    1  0.5109406E-019  0.1491587E+02  0.7818608E-02  0.1870647E+00
          2   -1    0    0  501    0  0.00000000000E+00  0.00000000000E+00  0.11980599447E+03  0.11980599449E+03  0.25500000000E-02 0.  1.
         -2   -1    0    0    0  501 -0.00000000000E+00 -0.00000000000E+00 -0.46425365643E+00  0.46426065956E+00  0.25500000000E-02 0. -1.
         31    1    1    2    0    0  0.36639130781E+00 -0.15820587334E-01  0.58336779887E+02  0.58811336548E+02  0.74470750000E+01 0. -1.
        -31    1    1    2    0    0 -0.36639130781E+00  0.15820587334E-01  0.61004960922E+02  0.61458918605E+02  0.74470750000E+01 0.  1.
<mgrwt>
<rscale>  0 0.14915870E+02</rscale>
<asrwt>0</asrwt>
<pdfrwt beam="1">  1        2 0.99447862E+00 0.14915870E+02</pdfrwt>
<pdfrwt beam="2">  1       -2 0.98606628E+00 0.14915870E+02</pdfrwt>
<totfact> 0.36666172E-13</totfact>
</mgrwt>
</event>
<event>
 4    1 -0.5109406E-019  0.1494044E+02  0.7818608E-02  0.1869891E+00
          2   -1    0    0  501    0  0.00000000000E+00  0.00000000000E+00  0.11898301903E+03  0.11898301906E+03  0.25500000000E-02 0. -1.
         -2   -1    0    0    0  501 -0.00000000000E+00 -0.00000000000E+00 -0.46900633572E+00  0.46901326788E+00  0.25500000000E-02 0.  1.
         31    1    1    2    0    0  0.53240456444E-01  0.50695698695E+00  0.56920003286E+02  0.57407364859E+02  0.74470750000E+01 0. -1.
        -31    1    1    2    0    0 -0.53240456444E-01 -0.50695698695E+00  0.61594009406E+02  0.62044667463E+02  0.74470750000E+01 0. -1.
<mgrwt>
<rscale>  0 0.14940442E+02</rscale>
<asrwt>0</asrwt>
<pdfrwt beam="1">  1        2 0.98771298E+00 0.14940442E+02</pdfrwt>
<pdfrwt beam="2">  1       -2 0.99609450E+00 0.14940442E+02</pdfrwt>
<totfact>-0.21514106E-13</totfact>
</mgrwt>
</event>
<event>
 4    1  0.5109406E-019  0.1494095E+02  0.7818608E-02  0.1869876E+00
         -2   -1    0    0    0  501 -0.00000000000E+00  0.00000000000E+00  0.11866197499E+03  0.11866197502E+03  0.25500000000E-02 0.  1.
          2   -1    0    0  501    0  0.00000000000E+00 -0.00000000000E+00 -0.47030749128E+00  0.47031440426E+00  0.25500000000E-02 0. -1.
         31    1    1    2    0    0 -0.84935129059E-01 -0.35479391009E+00  0.62801689505E+02  0.63242740480E+02  0.74470750000E+01 0.  1.
        -31    1    1    2    0    0  0.84935129059E-01  0.35479391009E+00  0.55389977997E+02  0.55889548944E+02  0.74470750000E+01 0. -1.
<mgrwt>
<rscale>  0 0.14940954E+02</rscale>
<asrwt>0</asrwt>
<pdfrwt beam="2">  1        2 0.99883639E+00 0.14940954E+02</pdfrwt>
<pdfrwt beam="1">  1       -2 0.98506912E+00 0.14940954E+02</pdfrwt>
<totfact> 0.16666216E-13</totfact>
</mgrwt>
</event>
<event>
 4    1 -0.5109406E-019  0.1499646E+02  0.7818608E-02  0.1868177E+00
         -2   -1    0    0    0  501 -0.00000000000E+00  0.00000000000E+00  0.11976003679E+03  0.11976003682E+03  0.25500000000E-02 0. -1.
          2   -1    0    0  501    0  0.00000000000E+00 -0.00000000000E+00 -0.46946414323E+00  0.46947106863E+00  0.25500000000E-02 0.  1.
         31    1    1    2    0    0  0.57600421146E+00  0.57000487210E+00  0.62278156516E+02  0.62727062673E+02  0.74470750000E+01 0.  1.
        -31    1    1    2    0    0 -0.57600421146E+00 -0.57000487210E+00  0.57012416130E+02  0.57502445212E+02  0.74470750000E+01 0. -1.
<mgrwt>
<rscale>  0 0.14996461E+02</rscale>
<asrwt>0</asrwt>
<pdfrwt beam="2">  1        2 0.99708840E+00 0.14996461E+02</pdfrwt>
<pdfrwt beam="1">  1       -2 0.99414169E+00 0.14996461E+02</pdfrwt>
<totfact>-0.85140457E-14</totfact>
</mgrwt>
</event>
<event>
 4    1 -0.5109406E-019  0.1491678E+02  0.7818608E-02  0.1870619E+00
          2   -1    0    0  501    0  0.00000000000E+00  0.00000000000E+00  0.11888821310E+03  0.11888821313E+03  0.25500000000E-02 0.  1.
         -2   -1    0    0    0  501 -0.00000000000E+00 -0.00000000000E+00 -0.46789491887E+00  0.46790186749E+00  0.25500000000E-02 0. -1.
         31    1    1    2    0    0  0.19893104861E+00  0.34423187566E+00  0.58385894288E+02  0.58860255241E+02  0.74470750000E+01 0.  1.
        -31    1    1    2    0    0 -0.19893104861E+00 -0.34423187566E+00  0.60034423895E+02  0.60495859755E+02  0.74470750000E+01 0. -1.
<mgrwt>
<rscale>  0 0.14916783E+02</rscale>
<asrwt>0</asrwt>
<pdfrwt beam="1">  1        2 0.98691987E+00 0.14916783E+02</pdfrwt>
<pdfrwt beam="2">  1       -2 0.99374021E+00 0.14916783E+02</pdfrwt>
<totfact>-0.24782192E-13</totfact>
</mgrwt>
</event>
<event>
 4    1 -0.5109406E-019  0.1496190E+02  0.7818608E-02  0.1869233E+00
         -2   -1    0    0    0  501 -0.00000000000E+00  0.00000000000E+00  0.11986541154E+03  0.11986541157E+03  0.25500000000E-02 0.  1.
          2   -1    0    0  501    0  0.00000000000E+00 -0.00000000000E+00 -0.46689171826E+00  0.46689868182E+00  0.25500000000E-02 0. -1.
         31    1    1    2    0    0  0.59387155396E+00  0.24274178475E+00  0.62165797356E+02  0.62613551999E+02  0.74470750000E+01 0. -1.
        -31    1    1    2    0    0 -0.59387155396E+00 -0.24274178475E+00  0.57232722470E+02  0.57718758254E+02  0.74470750000E+01 0. -1.
<mgrwt>
<rscale>  0 0.14961897E+02</rscale>
<asrwt>0</asrwt>
<pdfrwt beam="2">  1        2 0.99164955E+00 0.14961897E+02</pdfrwt>
<pdfrwt beam="1">  1       -2 0.99499173E+00 0.14961897E+02</pdfrwt>
<totfact>-0.15535791E-13</totfact>
</mgrwt>
</event>
<event>
 4    1  0.5109406E-019  0.1495068E+02  0.7818608E-02  0.1869577E+00
          2   -1    0    0  501    0  0.00000000000E+00  0.00000000000E+00  0.12005700764E+03  0.12005700767E+03  0.25500000000E-02 0. -1.
         -2   -1    0    0    0  501 -0.00000000000E+00 -0.00000000000E+00 -0.46544784237E+00  0.46545482753E+00  0.25500000000E-02 0.  1.
         31    1    1    2    0    0  0.12528680606E+00 -0.50966048592E+00  0.56712162092E+02  0.57201430977E+02  0.74470750000E+01 0.  1.
        -31    1    1    2    0    0 -0.12528680606E+00  0.50966048592E+00  0.62879397706E+02  0.63321031518E+02  0.74470750000E+01 0. -1.
<mgrwt>
<rscale>  0 0.14950679E+02</rscale>
<asrwt>0</asrwt>
<pdfrwt beam="1">  1        2 0.99656405E+00 0.14950679E+02</pdfrwt>
<pdfrwt beam="2">  1       -2 0.98860085E+00 0.14950679E+02</pdfrwt>
<totfact> 0.82381915E-14</totfact>
</mgrwt>
</event>
<event>
 4    1 -0.5109406E-019  0.1490512E+02  0.7818608E-02  0.1870978E+00
          2   -1    0    0  501    0  0.00000000000E+00  0.00000000000E+00  0.11839737489E+03  0.11839737492E+03  0.25500000000E-02 0. -1.
         -2   -1    0    0    0  501 -0.00000000000E+00 -0.00000000000E+00 -0.46910049661E+00  0.46910742738E+00  0.25500000000E-02 0.  1.
         31    1    1    2    0    0  0.22774682520E+00  0.35984707088E-01  0.57615667951E+02  0.58095415335E+02  0.74470750000E+01 0.  1.
        -31    1    1    2    0    0 -0.22774682520E+00 -0.35984707088E-01  0.60312606442E+02  0.60771067008E+02  0.74470750000E+01 0.  1.
<mgrwt>
<rscale>  0 0.14905124E+02</rscale>
<asrwt>0</asrwt>
<pdfrwt beam="1">  1        2 0.98287124E+00 0.14905124E+02</pdfrwt>
<pdfrwt beam="2">  1       -2 0.99627434E+00 0.14905124E+02</pdfrwt>
<totfact>-0.44935613E-13</totfact>
</mgrwt>
</event>
<event>
 4    1 -0.5109406E-019  0.1497414E+02  0.7818608E-02  0.1868859E+00
          2   -1    0    0  501    0  0.00000000000E+00  0.00000000000E+00  0.12010664800E+03  0.12010664803E+03  0.25500000000E-02 0.  1.
         -2   -1    0    0    0  501 -0.00000000000E+00 -0.00000000000E+00 -0.46671679595E+00  0.46672376212E+00  0.25500000000E-02 0. -1.
         31    1    1    2    0    0 -0.62837806941E+00 -0.29280001391E+00  0.57069317950E+02  0.57557332879E+02  0.74470750000E+01 0. -1.
        -31    1    1    2    0    0  0.62837806941E+00  0.29280001391E+00  0.62570613252E+02  0.63016038908E+02  0.74470750000E+01 0.  1.
<mgrwt>
<rscale>  0 0.14974139E+02</rscale>
<asrwt>0</asrwt>
<pdfrwt beam="1">  1        2 0.99698500E+00 0.14974139E+02</pdfrwt>
<pdfrwt beam="2">  1       -2 0.99128719E+00 0.14974139E+02</pdfrwt>
<totfact>-0.39762770E-14</totfact>
</mgrwt>
</event>
<event>
 4    1 -0.5109406E-019  0.1498539E+02  0.7818608E-02  0.1868515E+00
         -2   -1    0    0    0  501 -0.00000000000E+00  0.00000000000E+00  0.11977834050E+03  0.11977834052E+03  0.25500000000E-02 0. -1.
          2   -1    0    0  501    0  0.00000000000E+00 -0.00000000000E+00 -0.46869984425E+00  0.46870678094E+00  0.25500000000E-02 0.  1.
         31    1    1    2    0    0 -0.73282290043E+00  0.38019297236E+00  0.59635049980E+02  0.60103907429E+02  0.74470750000E+01 0. -1.
        -31    1    1    2    0    0  0.73282290043E+00 -0.38019297236E+00  0.59674590673E+02  0.60143139876E+02  0.74470750000E+01 0.  1.
<mgrwt>
<rscale>  0 0.14985394E+02</rscale>
<asrwt>0</asrwt>
<pdfrwt beam="2">  1        2 0.99547206E+00 0.14985394E+02</pdfrwt>
<pdfrwt beam="1">  1       -2 0.99428672E+00 0.14985394E+02</pdfrwt>
<totfact>-0.11243925E-13</totfact>
</mgrwt>
</event>
<event>
 4    1 -0.5109406E-019  0.1500868E+02  0.7818608E-02  0.1867804E+00
          2   -1    0    0  501    0  0.00000000000E+00  0.00000000000E+00  0.11998336080E+03  0.11998336083E+03  0.25500000000E-02 0. -1.
         -2   -1    0    0    0  501 -0.00000000000E+00 -0.00000000000E+00 -0.46935426183E+00  0.46936118885E+00  0.25500000000E-02 0.  1.
         31    1    1    2    0    0 -0.68614880250E+00  0.20176932073E+00  0.64468776075E+02  0.64901413896E+02  0.74470750000E+01 0. -1.
        -31    1    1    2    0    0  0.68614880250E+00 -0.20176932073E+00  0.55045230465E+02  0.55551308122E+02  0.74470750000E+01 0.  1.
<mgrwt>
<rscale>  0 0.15008680E+02</rscale>
<asrwt>0</asrwt>
<pdfrwt beam="1">  1        2 0.99598738E+00 0.15008680E+02</pdfrwt>
<pdfrwt beam="2">  1       -2 0.99686318E+00 0.15008680E+02</pdfrwt>
<totfact>-0.87152343E-14</totfact>
</mgrwt>
</event>
<event>
 4    1  0.5109406E-019  0.1490065E+02  0.7818608E-02  0.1871115E+00
          2   -1    0    0  501    0  0.00000000000E+00  0.00000000000E+00  0.11982066068E+03  0.11982066071E+03  0.25500000000E-02 0.  1.
         -2   -1    0    0    0  501 -0.00000000000E+00 -0.00000000000E+00 -0.46325019262E+00  0.46325721091E+00  0.25500000000E-02 0. -1.
         31    1    1    2    0    0 -0.63124106826E-01  0.16396193295E+00  0.58608583630E+02  0.59080080140E+02  0.74470750000E+01 0. -1.
        -31    1    1    2    0    0  0.63124106826E-01 -0.16396193295E+00  0.60748826858E+02  0.61203837779E+02  0.74470750000E+01 0.  1.
<mgrwt>
<rscale>  0 0.14900653E+02</rscale>
<asrwt>0</asrwt>
<pdfrwt beam="1">  1        2 0.99459159E+00 0.14900653E+02</pdfrwt>
<pdfrwt beam="2">  1       -2 0.98394365E+00 0.14900653E+02</pdfrwt>
<totfact> 0.66586409E-13</totfact>
</mgrwt>
</event>
<event>
 4    1  0.5109406E-019  0.1490635E+02  0.7818608E-02  0.1870940E+00
          2   -1    0    0  501    0  0.00000000000E+00  0.00000000000E+00  0.12038630147E+03  0.12038630150E+03  0.25500000000E-02 0.  1.
         -2   -1    0    0    0  501 -0.00000000000E+00 -0.00000000000E+00 -0.46142602123E+00  0.46143306727E+00  0.25500000000E-02 0. -1.
         31    1    1    2    0    0  0.18068126625E+00 -0.11185118409E+00  0.61695867363E+02  0.62144059508E+02  0.74470750000E+01 0. -1.
        -31    1    1    2    0    0 -0.18068126625E+00  0.11185118409E+00  0.58229008090E+02  0.58703675061E+02  0.74470750000E+01 0. -1.
<mgrwt>
<rscale>  0 0.14906348E+02</rscale>
<asrwt>0</asrwt>
<pdfrwt beam="1">  1        2 0.99925362E+00 0.14906348E+02</pdfrwt>
<pdfrwt beam="2">  1       -2 0.98010169E+00 0.14906348E+02</pdfrwt>
<totfact> 0.32745736E-13</totfact>
</mgrwt>
</event>
<event>
 4    1 -0.5109406E-019  0.1501053E+02  0.7818608E-02  0.1867747E+00
         -2   -1    0    0    0  501 -0.00000000000E+00  0.00000000000E+00  0.12027604334E+03  0.12027604337E+03  0.25500000000E-02 0. -1.
          2   -1    0    0  501    0  0.00000000000E+00 -0.00000000000E+00 -0.46832732233E+00  0.46833426454E+00  0.25500000000E-02 0.  1.
         31    1    1    2    0    0  0.25639774496E+00 -0.88512302068E+00  0.61065912392E+02  0.61525228686E+02  0.74470750000E+01 0. -1.
        -31    1    1    2    0    0 -0.25639774496E+00  0.88512302068E+00  0.58741803629E+02  0.59219148948E+02  0.74470750000E+01 0.  1.
<mgrwt>
<rscale>  0 0.15010527E+02</rscale>
<asrwt>0</asrwt>
<pdfrwt beam="2">  1        2 0.99469999E+00 0.15010527E+02</pdfrwt>
<pdfrwt beam="1">  1       -2 0.99839899E+00 0.15010527E+02</pdfrwt>
<totfact>-0.60735410E-14</totfact>
</mgrwt>
</event>
<event>
 4    1 -0.5109406E-019  0.1498918E+02  0.7818608E-02  0.1868399E+00
          2   -1    0    0  501    0  0.00000000000E+00  0.00000000000E+00  0.11984787246E+03  0.11984787248E+03  0.25500000000E-02 0. -1.
         -2   -1    0    0    0  501 -0.00000000000E+00 -0.00000000000E+00 -0.46866451037E+00  0.46867144758E+00  0.25500000000E-02 0.  1.
         31    1    1    2    0    0  0.41396331776E+00  0.69943154144E+00  0.61473079091E+02  0.61927852773E+02  0.74470750000E+01 0. -1.
        -31    1    1    2    0    0 -0.41396331776E+00 -0.69943154144E+00  0.57906128857E+02  0.58388691160E+02  0.74470750000E+01 0. -1.
<mgrwt>
<rscale>  0 0.14989178E+02</rscale>
<asrwt>0</asrwt>
<pdfrwt beam="1">  1        2 0.99486137E+00 0.14989178E+02</pdfrwt>
<pdfrwt beam="2">  1       -2 0.99539956E+00 0.14989178E+02</pdfrwt>
<totfact>-0.11914523E-13</totfact>
</mgrwt>
</event>
<event>
 4    1 -0.5109406E-019  0.1502673E+02  0.7818608E-02  0.1867254E+00
          2   -1    0    0  501    0  0.00000000000E+00  0.00000000000E+00  0.12005750175E+03  0.12005750178E+03  0.25500000000E-02 0. -1.
         -2   -1    0    0    0  501 -0.00000000000E+00 -0.00000000000E+00 -0.47019304465E+00  0.47019995931E+00  0.25500000000E-02 0.  1.
         31    1    1    2    0    0  0.25289093041E+00  0.83000249828E+00  0.63713535994E+02  0.64153148425E+02  0.74470750000E+01 0. -1.
        -31    1    1    2    0    0 -0.25289093041E+00 -0.83000249828E+00  0.55873772716E+02  0.56374553316E+02  0.74470750000E+01 0. -1.
<mgrwt>
<rscale>  0 0.15026726E+02</rscale>
<asrwt>0</asrwt>
<pdfrwt beam="1">  1        2 0.99660737E+00 0.15026726E+02</pdfrwt>
<pdfrwt beam="2">  1       -2 0.99864010E+00 0.15026726E+02</pdfrwt>
<totfact>-0.40948953E-14</totfact>
</mgrwt>
</event>
<event>
 4    1 -0.5109406E-019  0.1492627E+02  0.7818608E-02  0.1870327E+00
          2   -1    0    0  501    0  0.00000000000E+00  0.00000000000E+00  0.11887734051E+03  0.11887734054E+03  0.25500000000E-02 0.  1.
         -2   -1    0    0    0  501 -0.00000000000E+00 -0.00000000000E+00 -0.46853323528E+00  0.46854017444E+00  0.25500000000E-02 0. -1.
         31    1    1    2    0    0  0.73875475346E-01 -0.12543803565E+00  0.55468760699E+02  0.55966628733E+02  0.74470750000E+01 0. -1.
        -31    1    1    2    0    0 -0.73875475346E-01  0.12543803565E+00  0.62940046580E+02  0.63379251983E+02  0.74470750000E+01 0.  1.
<mgrwt>
<rscale>  0 0.14926272E+02</rscale>
<asrwt>0</asrwt>
<pdfrwt beam="1">  1        2 0.98683524E+00 0.14926272E+02</pdfrwt>
<pdfrwt beam="2">  1       -2 0.99509020E+00 0.14926272E+02</pdfrwt>
<totfact>-0.26101170E-13</totfact>
</mgrwt>
</event>
<event>
 4    1  0.5109406E-019  0.1490825E+02  0.7818608E-02  0.1870881E+00
         -2   -1    0    0    0  501 -0.00000000000E+00  0.00000000000E+00  0.11812859200E+03  0.11812859203E+03  0.25500000000E-02 0.  1.
          2   -1    0    0  501    0  0.00000000000E+00 -0.00000000000E+00 -0.47036504638E+00  0.47037195851E+00  0.25500000000E-02 0. -1.
         31    1    1    2    0    0  0.15855305286E+00 -0.97334280682E-01  0.56717849116E+02  0.57204964361E+02  0.74470750000E+01 0. -1.
        -31    1    1    2    0    0 -0.15855305286E+00  0.97334280682E-01  0.60940377842E+02  0.61393999630E+02  0.74470750000E+01 0.  1.
<mgrwt>
<rscale>  0 0.14908249E+02</rscale>
<asrwt>0</asrwt>
<pdfrwt beam="2">  1        2 0.99894033E+00 0.14908249E+02</pdfrwt>
<pdfrwt beam="1">  1       -2 0.98065921E+00 0.14908249E+02</pdfrwt>
<totfact> 0.40765046E-13</totfact>
</mgrwt>
</event>
<event>
 4    1  0.5109406E-019  0.1490262E+02  0.7818608E-02  0.1871055E+00
          2   -1    0    0  501    0  0.00000000000E+00  0.00000000000E+00  0.11992148235E+03  0.11992148237E+03  0.25500000000E-02 0.  1.
         -2   -1    0    0    0  501 -0.00000000000E+00 -0.00000000000E+00 -0.46298295186E+00  0.46298997420E+00  0.25500000000E-02 0. -1.
         31    1    1    2    0    0 -0.23536975327E-01  0.76840379177E-01  0.57806706757E+02  0.58284481044E+02  0.74470750000E+01 0. -1.
        -31    1    1    2    0    0  0.23536975327E-01 -0.76840379177E-01  0.61651792638E+02  0.62099991305E+02  0.74470750000E+01 0.  1.
<mgrwt>
<rscale>  0 0.14902621E+02</rscale>
<asrwt>0</asrwt>
<pdfrwt beam="1">  1        2 0.99542305E+00 0.14902621E+02</pdfrwt>
<pdfrwt beam="2">  1       -2 0.98338140E+00 0.14902621E+02</pdfrwt>
<totfact> 0.69767590E-13</totfact>
</mgrwt>
</event>
<event>
 4    1 -0.5109406E-019  0.1497794E+02  0.7818608E-02  0.1868742E+00
         -2   -1    0    0    0  501 -0.00000000000E+00  0.00000000000E+00  0.11949786486E+03  0.11949786489E+03  0.25500000000E-02 0.  1.
          2   -1    0    0  501    0  0.00000000000E+00 -0.00000000000E+00 -0.46933270289E+00  0.46933963023E+00  0.25500000000E-02 0. -1.
         31    1    1    2    0    0 -0.31030353202E+00 -0.11181518186E+00  0.53755396077E+02  0.54269792006E+02  0.74470750000E+01 0. -1.
        -31    1    1    2    0    0  0.31030353202E+00  0.11181518186E+00  0.65273136078E+02  0.65697412509E+02  0.74470750000E+01 0.  1.
<mgrwt>
<rscale>  0 0.14977940E+02</rscale>
<asrwt>0</asrwt>
<pdfrwt beam="2">  1        2 0.99680179E+00 0.14977940E+02</pdfrwt>
<pdfrwt beam="1">  1       -2 0.99197278E+00 0.14977940E+02</pdfrwt>
<totfact>-0.60022689E-14</totfact>
</mgrwt>
</event>
<event>
 4    1  0.5109406E-019  0.1489840E+02  0.7818608E-02  0.1871185E+00
          2   -1    0    0  501    0  0.00000000000E+00  0.00000000000E+00  0.11975108491E+03  0.11975108493E+03  0.25500000000E-02 0. -1.
         -2   -1    0    0    0  501 -0.00000000000E+00 -0.00000000000E+00 -0.46337928453E+00  0.46338630087E+00  0.25500000000E-02 0.  1.
         31    1    1    2    0    0 -0.16075436949E+00 -0.75112089926E-01  0.59533936943E+02  0.59998167120E+02  0.74470750000E+01 0.  1.
        -31    1    1    2    0    0  0.16075436949E+00  0.75112089926E-01  0.59753768678E+02  0.60216304114E+02  0.74470750000E+01 0.  1.
<mgrwt>
<rscale>  0 0.14898402E+02</rscale>
<asrwt>0</asrwt>
<pdfrwt beam="1">  1        2 0.99401736E+00 0.14898402E+02</pdfrwt>
<pdfrwt beam="2">  1       -2 0.98421457E+00 0.14898402E+02</pdfrwt>
<totfact> 0.65400919E-13</totfact>
</mgrwt>
</event>
<event>
 4    1 -0.5109406E-019  0.1499294E+02  0.7818608E-02  0.1868284E+00
         -2   -1    0    0    0  501 -0.00000000000E+00  0.00000000000E+00  0.11976799717E+03  0.11976799720E+03  0.25500000000E-02 0.  1.
          2   -1    0    0  501    0  0.00000000000E+00 -0.00000000000E+00 -0.46921268344E+00  0.46921961255E+00  0.25500000000E-02 0. -1.
         31    1    1    2    0    0 -0.73712293230E+00 -0.92197465837E-01  0.63110890963E+02  0.63553090678E+02  0.74470750000E+01 0. -1.
        -31    1    1    2    0    0  0.73712293230E+00  0.92197465837E-01  0.56187893527E+02  0.56684126134E+02  0.74470750000E+01 0. -1.
<mgrwt>
<rscale>  0 0.14992943E+02</rscale>
<asrwt>0</asrwt>
<pdfrwt beam="2">  1        2 0.99655668E+00 0.14992943E+02</pdfrwt>
<pdfrwt beam="1">  1       -2 0.99420543E+00 0.14992943E+02</pdfrwt>
<totfact>-0.95382235E-14</totfact>
</mgrwt>
</event>
<event>
 4    1 -0.5109406E-019  0.1492816E+02  0.7818608E-02  0.1870269E+00
         -2   -1    0    0    0  501 -0.00000000000E+00  0.00000000000E+00  0.11998133605E+03  0.11998133608E+03  0.25500000000E-02 0.  1.
          2   -1    0    0  501    0  0.00000000000E+00 -0.00000000000E+00 -0.46433923175E+00  0.46434623359E+00  0.25500000000E-02 0. -1.
         31    1    1    2    0    0 -0.25301432047E+00  0.26871866947E+00  0.62521986125E+02  0.62965021250E+02  0.74470750000E+01 0. -1.
        -31    1    1    2    0    0  0.25301432047E+00 -0.26871866947E+00  0.56995010693E+02  0.57480661060E+02  0.74470750000E+01 0.  1.
<mgrwt>
<rscale>  0 0.14928157E+02</rscale>
<asrwt>0</asrwt>
<pdfrwt beam="2">  1        2 0.98625290E+00 0.14928157E+02</pdfrwt>
<pdfrwt beam="1">  1       -2 0.99592917E+00 0.14928157E+02</pdfrwt>
<totfact>-0.26956211E-13</totfact>
</mgrwt>
</event>
<event>
 4    1  0.5109406E-019  0.1490969E+02  0.7818608E-02  0.1870837E+00
          2   -1    0    0  501    0  0.00000000000E+00  0.00000000000E+00  0.11960432440E+03  0.11960432443E+03  0.25500000000E-02 0. -1.
         -2   -1    0    0    0  501 -0.00000000000E+00 -0.00000000000E+00 -0.46465099885E+00  0.46465799599E+00  0.25500000000E-02 0.  1.
         31    1    1    2    0    0 -0.20721392127E+00  0.11672675489E+00  0.57610408271E+02  0.58090228352E+02  0.74470750000E+01 0.  1.
        -31    1    1    2    0    0  0.20721392127E+00 -0.11672675489E+00  0.61529265133E+02  0.61978754074E+02  0.74470750000E+01 0. -1.
<mgrwt>
<rscale>  0 0.14909687E+02</rscale>
<asrwt>0</asrwt>
<pdfrwt beam="1">  1        2 0.99281435E+00 0.14909687E+02</pdfrwt>
<pdfrwt beam="2">  1       -2 0.98690053E+00 0.14909687E+02</pdfrwt>
<totfact> 0.30638551E-13</totfact>
</mgrwt>
</event>
<event>
 4    1 -0.5109406E-019  0.1494074E+02  0.7818608E-02  0.1869882E+00
         -2   -1    0    0    0  501 -0.00000000000E+00  0.00000000000E+00  0.12004054090E+03  0.12004054092E+03  0.25500000000E-02 0.  1.
          2   -1    0    0  501    0  0.00000000000E+00 -0.00000000000E+00 -0.46489303331E+00  0.46490002681E+00  0.25500000000E-02 0. -1.
         31    1    1    2    0    0  0.31961006310E+00 -0.22752788437E+00  0.56239082034E+02  0.56731359879E+02  0.74470750000E+01 0. -1.
        -31    1    1    2    0    0 -0.31961006310E+00  0.22752788437E+00  0.63336565829E+02  0.63774081072E+02  0.74470750000E+01 0.  1.
<mgrwt>
<rscale>  0 0.14940741E+02</rscale>
<asrwt>0</asrwt>
<pdfrwt beam="2">  1        2 0.98742649E+00 0.14940741E+02</pdfrwt>
<pdfrwt beam="1">  1       -2 0.99642330E+00 0.14940741E+02</pdfrwt>
<totfact>-0.21407746E-13</totfact>
</mgrwt>
</event>
<event>
 4    1  0.5109406E-019  0.1495746E+02  0.7818608E-02  0.1869369E+00
         -2   -1    0    0    0  501 -0.00000000000E+00  0.00000000000E+00  0.11901998938E+03  0.11901998941E+03  0.25500000000E-02 0.  1.
          2   -1    0    0  501    0  0.00000000000E+00 -0.00000000000E+00 -0.46992918474E+00  0.46993610328E+00  0.25500000000E-02 0. -1.
         31    1    1    2    0    0 -0.33870638879E+00 -0.10212354929E+00  0.54567115459E+02  0.55074078901E+02  0.74470750000E+01 0. -1.
        -31    1    1    2    0    0  0.33870638879E+00  0.10212354929E+00  0.63982944739E+02  0.64415846613E+02  0.74470750000E+01 0.  1.
<mgrwt>
<rscale>  0 0.14957457E+02</rscale>
<asrwt>0</asrwt>
<pdfrwt beam="2">  1        2 0.99804797E+00 0.14957457E+02</pdfrwt>
<pdfrwt beam="1">  1       -2 0.98802631E+00 0.14957457E+02</pdfrwt>
<totfact> 0.80326609E-14</totfact>
</mgrwt>
</event>
<event>
 4    1 -0.5109406E-019  0.1493580E+02  0.7818608E-02  0.1870034E+00
         -2   -1    0    0    0  501 -0.00000000000E+00  0.00000000000E+00  0.11970397054E+03  0.11970397057E+03  0.25500000000E-02 0. -1.
          2   -1    0    0  501    0  0.00000000000E+00 -0.00000000000E+00 -0.46589164506E+00  0.46589862356E+00  0.25500000000E-02 0.  1.
         31    1    1    2    0    0  0.12856685806E+00 -0.12736166646E+00  0.63859883038E+02  0.64292894927E+02  0.74470750000E+01 0. -1.
        -31    1    1    2    0    0 -0.12856685806E+00  0.12736166646E+00  0.55378195862E+02  0.55876974268E+02  0.74470750000E+01 0.  1.
<mgrwt>
<rscale>  0 0.14935796E+02</rscale>
<asrwt>0</asrwt>
<pdfrwt beam="2">  1        2 0.98952854E+00 0.14935796E+02</pdfrwt>
<pdfrwt beam="1">  1       -2 0.99364856E+00 0.14935796E+02</pdfrwt>
<totfact>-0.17780257E-13</totfact>
</mgrwt>
</event>
<event>
 4    1 -0.5109406E-019  0.1500141E+02  0.7818608E-02  0.1868026E+00
         -2   -1    0    0    0  501 -0.00000000000E+00  0.00000000000E+00  0.12004366007E+03  0.12004366010E+03  0.25500000000E-02 0. -1.
          2   -1    0    0  501    0  0.00000000000E+00 -0.00000000000E+00 -0.46866392838E+00  0.46867086560E+00  0.25500000000E-02 0.  1.
         31    1    1    2    0    0 -0.19578160274E+00  0.51706597598E+00  0.54130139242E+02  0.54642809116E+02  0.74470750000E+01 0.  1.
        -31    1    1    2    0    0  0.19578160274E+00 -0.51706597598E+00  0.65444856898E+02  0.65869521846E+02  0.74470750000E+01 0. -1.
<mgrwt>
<rscale>  0 0.15001407E+02</rscale>
<asrwt>0</asrwt>
<pdfrwt beam="2">  1        2 0.99540465E+00 0.15001407E+02</pdfrwt>
<pdfrwt beam="1">  1       -2 0.99648027E+00 0.15001407E+02</pdfrwt>
<totfact>-0.10058945E-13</totfact>
</mgrwt>
</event>
<event>
 4    1  0.5109406E-019  0.1491177E+02  0.7818608E-02  0.1870773E+00
         -2   -1    0    0    0  501 -0.00000000000E+00  0.00000000000E+00  0.11846215784E+03  0.11846215786E+03  0.25500000000E-02 0.  1.
          2   -1    0    0  501    0  0.00000000000E+00 -0.00000000000E+00 -0.46926205311E+00  0.46926898150E+00  0.25500000000E-02 0. -1.
         31    1    1    2    0    0  0.41735267181E-01 -0.21513367745E+00  0.61297795156E+02  0.61748899920E+02  0.74470750000E+01 0.  1.
        -31    1    1    2    0    0 -0.41735267181E-01  0.21513367745E+00  0.56695100626E+02  0.57182526924E+02  0.74470750000E+01 0. -1.
<mgrwt>
<rscale>  0 0.14911768E+02</rscale>
<asrwt>0</asrwt>
<pdfrwt beam="2">  1        2 0.99661825E+00 0.14911768E+02</pdfrwt>
<pdfrwt beam="1">  1       -2 0.98340825E+00 0.14911768E+02</pdfrwt>
<totfact> 0.58021344E-13</totfact>
</mgrwt>
</event>
<event>
 4    1  0.5109406E-019  0.1490475E+02  0.7818608E-02  0.1870989E+00
         -2   -1    0    0    0  501 -0.00000000000E+00  0.00000000000E+00  0.11820145080E+03  0.11820145083E+03  0.25500000000E-02 0. -1.
          2   -1    0    0  501    0  0.00000000000E+00 -0.00000000000E+00 -0.46985430801E+00  0.46986122766E+00  0.25500000000E-02 0.  1.
         31    1    1    2    0    0 -0.12433885456E+00  0.23503297055E+00  0.59588822531E+02  0.60052954943E+02  0.74470750000E+01 0.  1.
        -31    1    1    2    0    0  0.12433885456E+00 -0.23503297055E+00  0.58142773963E+02  0.58618357115E+02  0.74470750000E+01 0.  1.
<mgrwt>
<rscale>  0 0.14904747E+02</rscale>
<asrwt>0</asrwt>
<pdfrwt beam="2">  1        2 0.99786240E+00 0.14904747E+02</pdfrwt>
<pdfrwt beam="1">  1       -2 0.98125744E+00 0.14904747E+02</pdfrwt>
<totfact> 0.65460137E-13</totfact>
</mgrwt>
</event>
<event>
 4    1 -0.5109406E-019  0.1499526E+02  0.7818608E-02  0.1868213E+00
         -2   -1    0    0    0  501 -0.00000000000E+00  0.00000000000E+00  0.12027286241E+03  0.12027286244E+03  0.25500000000E-02 0.  1.
          2   -1    0    0  501    0  0.00000000000E+00 -0.00000000000E+00 -0.46738750165E+00  0.46739445782E+00  0.25500000000E-02 0. -1.
         31    1    1    2    0    0 -0.50219224051E-01 -0.49831613600E+00  0.65622911859E+02  0.66046016745E+02  0.74470750000E+01 0.  1.
        -31    1    1    2    0    0  0.50219224051E-01  0.49831613600E+00  0.54182563049E+02  0.54694240150E+02  0.74470750000E+01 0. -1.
<mgrwt>
<rscale>  0 0.14995260E+02</rscale>
<asrwt>0</asrwt>
<pdfrwt beam="2">  1        2 0.99271152E+00 0.14995260E+02</pdfrwt>
<pdfrwt beam="1">  1       -2 0.99836492E+00 0.14995260E+02</pdfrwt>
<totfact>-0.72356787E-14</totfact>
</mgrwt>
</event>
<event>
 4    1 -0.5109406E-019  0.1492267E+02  0.7818608E-02  0.1870437E+00
          2   -1    0    0  501    0  0.00000000000E+00  0.00000000000E+00  0.11901473529E+03  0.11901473532E+03  0.25500000000E-02 0. -1.
         -2   -1    0    0    0  501 -0.00000000000E+00 -0.00000000000E+00 -0.46776655249E+00  0.46777350302E+00  0.25500000000E-02 0.  1.
         31    1    1    2    0    0  0.15648219273E+00 -0.18545625805E+00  0.56134229845E+02  0.56626580040E+02  0.74470750000E+01 0.  1.
        -31    1    1    2    0    0 -0.15648219273E+00  0.18545625805E+00  0.62412738898E+02  0.62855928785E+02  0.74470750000E+01 0. -1.
<mgrwt>
<rscale>  0 0.14922671E+02</rscale>
<asrwt>0</asrwt>
<pdfrwt beam="1">  1        2 0.98796498E+00 0.14922671E+02</pdfrwt>
<pdfrwt beam="2">  1       -2 0.99347279E+00 0.14922671E+02</pdfrwt>
<totfact>-0.20893817E-13</totfact>
</mgrwt>
</event>
<event>
 4    1 -0.5109406E-019  0.1493315E+02  0.7818608E-02  0.1870115E+00
         -2   -1    0    0    0  501 -0.00000000000E+00  0.00000000000E+00  0.11986668507E+03  0.11986668510E+03  0.25500000000E-02 0.  1.
          2   -1    0    0  501    0  0.00000000000E+00 -0.00000000000E+00 -0.46509462125E+00  0.46510161171E+00  0.25500000000E-02 0. -1.
         31    1    1    2    0    0  0.13166665253E-02 -0.53665144935E+00  0.59270603306E+02  0.59739026932E+02  0.74470750000E+01 0. -1.
        -31    1    1    2    0    0 -0.13166665253E-02  0.53665144935E+00  0.60130987142E+02  0.60592759776E+02  0.74470750000E+01 0. -1.
<mgrwt>
<rscale>  0 0.14933154E+02</rscale>
<asrwt>0</asrwt>
<pdfrwt beam="2">  1        2 0.98784747E+00 0.14933154E+02</pdfrwt>
<pdfrwt beam="1">  1       -2 0.99498740E+00 0.14933154E+02</pdfrwt>
<totfact>-0.22767715E-13</totfact>
</mgrwt>
</event>
<event>
 4    1 -0.5109406E-019  0.1495422E+02  0.7818608E-02  0.1869469E+00
         -2   -1    0    0    0  501 -0.00000000000E+00  0.00000000000E+00  0.12010299861E+03  0.12010299863E+03  0.25500000000E-02 0. -1.
          2   -1    0    0  501    0  0.00000000000E+00 -0.00000000000E+00 -0.46549011089E+00  0.46549709541E+00  0.25500000000E-02 0.  1.
         31    1    1    2    0    0 -0.52305075388E+00  0.40520785960E+00  0.60644099406E+02  0.61103219999E+02  0.74470750000E+01 0. -1.
        -31    1    1    2    0    0  0.52305075388E+00 -0.40520785960E+00  0.58993409090E+02  0.59465275730E+02  0.74470750000E+01 0. -1.
<mgrwt>
<rscale>  0 0.14954221E+02</rscale>
<asrwt>0</asrwt>
<pdfrwt beam="2">  1        2 0.98869174E+00 0.14954221E+02</pdfrwt>
<pdfrwt beam="1">  1       -2 0.99694468E+00 0.14954221E+02</pdfrwt>
<totfact>-0.16623901E-13</totfact>
</mgrwt>
</event>
<event>
 4    1 -0.5109406E-019  0.1501166E+02  0.7818608E-02  0.1867713E+00
          2   -1    0    0  501    0  0.00000000000E+00  0.00000000000E+00  0.11989301784E+03  0.11989301787E+03  0.25500000000E-02 0. -1.
         -2   -1    0    0    0  501 -0.00000000000E+00 -0.00000000000E+00 -0.46989449875E+00  0.46990141781E+00  0.25500000000E-02 0.  1.
         31    1    1    2    0    0  0.87648376028E+00 -0.64630107353E-01  0.57099124858E+02  0.57589420786E+02  0.74470750000E+01 0.  1.
        -31    1    1    2    0    0 -0.87648376028E+00  0.64630107353E-01  0.62323998486E+02  0.62773498502E+02  0.74470750000E+01 0. -1.
<mgrwt>
<rscale>  0 0.15011660E+02</rscale>
<asrwt>0</asrwt>
<pdfrwt beam="1">  1        2 0.99524483E+00 0.15011660E+02</pdfrwt>
<pdfrwt beam="2">  1       -2 0.99800317E+00 0.15011660E+02</pdfrwt>
<totfact>-0.68999775E-14</totfact>
</mgrwt>
</event>
<event>
 4    1 -0.5109406E-019  0.1490983E+02  0.7818608E-02  0.1870833E+00
         -2   -1    0    0    0  501 -0.00000000000E+00  0.00000000000E+00  0.11954959346E+03  0.11954959349E+03  0.25500000000E-02 0. -1.
          2   -1    0    0  501    0  0.00000000000E+00 -0.00000000000E+00 -0.46487243280E+00  0.46487942660E+00  0.25500000000E-02 0.  1.
         31    1    1    2    0    0 -0.23066113816E-01 -0.33858667834E+00  0.59217120458E+02  0.59684516035E+02  0.74470750000E+01 0. -1.
        -31    1    1    2    0    0  0.23066113816E-01  0.33858667834E+00  0.59867600571E+02  0.60329956881E+02  0.74470750000E+01 0. -1.
<mgrwt>
<rscale>  0 0.14909827E+02</rscale>
<asrwt>0</asrwt>
<pdfrwt beam="2">  1        2 0.98736726E+00 0.14909827E+02</pdfrwt>
<pdfrwt beam="1">  1       -2 0.99236363E+00 0.14909827E+02</pdfrwt>
<totfact>-0.18151940E-13</totfact>
</mgrwt>
</event>
<event>
 4    1 -0.5109406E-019  0.1501969E+02  0.7818608E-02  0.1867468E+00
         -2   -1    0    0    0  501 -0.00000000000E+00  0.00000000000E+00  0.12019086360E+03  0.12019086363E+03  0.25500000000E-02 0. -1.
          2   -1    0    0  501    0  0.00000000000E+00 -0.00000000000E+00 -0.46923159916E+00  0.46923852799E+00  0.25500000000E-02 0.  1.
         31    1    1    2    0    0  0.59583663856E+00 -0.48116364208E+00  0.64629099964E+02  0.65061248282E+02  0.74470750000E+01 0. -1.
        -31    1    1    2    0    0 -0.59583663856E+00  0.48116364208E+00  0.55092532036E+02  0.55598853872E+02  0.74470750000E+01 0.  1.
<mgrwt>
<rscale>  0 0.15019690E+02</rscale>
<asrwt>0</asrwt>
<pdfrwt beam="2">  1        2 0.99661038E+00 0.15019690E+02</pdfrwt>
<pdfrwt beam="1">  1       -2 0.99770215E+00 0.15019690E+02</pdfrwt>
<totfact>-0.63245549E-14</totfact>
</mgrwt>
</event>
<event>
 4    1 -0.5109406E-019  0.1495436E+02  0.7818608E-02  0.1869465E+00
          2   -1    0    0  501    0  0.00000000000E+00  0.00000000000E+00  0.11922170634E+03  0.11922170637E+03  0.25500000000E-02 0.  1.
         -2   -1    0    0    0  501 -0.00000000000E+00 -0.00000000000E+00 -0.46893952550E+00  0.46894645864E+00  0.25500000000E-02 0. -1.
         31    1    1    2    0    0 -0.19254984196E+00 -0.50148195404E+00  0.62584884790E+02  0.63028686245E+02  0.74470750000E+01 0.  1.
        -31    1    1    2    0    0  0.19254984196E+00  0.50148195404E+00  0.56167882023E+02  0.56661966579E+02  0.74470750000E+01 0.  1.
<mgrwt>
<rscale>  0 0.14954355E+02</rscale>
<asrwt>0</asrwt>
<pdfrwt beam="1">  1        2 0.98968606E+00 0.14954355E+02</pdfrwt>
<pdfrwt beam="2">  1       -2 0.99596099E+00 0.14954355E+02</pdfrwt>
<totfact>-0.17352314E-13</totfact>
</mgrwt>
</event>
<event>
 4    1  0.5109406E-019  0.1492944E+02  0.7818608E-02  0.1870229E+00
          2   -1    0    0  501    0  0.00000000000E+00  0.00000000000E+00  0.12021707817E+03  0.12021707819E+03  0.25500000000E-02 0. -1.
         -2   -1    0    0    0  501 -0.00000000000E+00 -0.00000000000E+00 -0.46350848165E+00  0.46351549603E+00  0.25500000000E-02 0.  1.
         31    1    1    2    0    0 -0.15163224086E+00  0.41693762959E+00  0.57795331989E+02  0.58274832948E+02  0.74470750000E+01 0. -1.
        -31    1    1    2    0    0  0.15163224086E+00 -0.41693762959E+00  0.61958237695E+02  0.62405760741E+02  0.74470750000E+01 0. -1.
<mgrwt>
<rscale>  0 0.14929442E+02</rscale>
<asrwt>0</asrwt>
<pdfrwt beam="1">  1        2 0.99787158E+00 0.14929442E+02</pdfrwt>
<pdfrwt beam="2">  1       -2 0.98450264E+00 0.14929442E+02</pdfrwt>
<totfact> 0.31997738E-13</totfact>
</mgrwt>
</event>
<event>
 4    1  0.5109406E-019  0.1491645E+02  0.7818608E-02  0.1870629E+00
          2   -1    0    0  501    0  0.00000000000E+00  0.00000000000E+00  0.12027197188E+03  0.12027197191E+03  0.25500000000E-02 0.  1.
         -2   -1    0    0    0  501 -0.00000000000E+00 -0.00000000000E+00 -0.46249103651E+00  0.46249806632E+00  0.25500000000E-02 0. -1.
         31    1    1    2    0    0 -0.24300578768E+00  0.88388118039E-01  0.57353579199E+02  0.57835619105E+02  0.74470750000E+01 0. -1.
        -31    1    1    2    0    0  0.24300578768E+00 -0.88388118039E-01  0.62455901645E+02  0.62898850869E+02  0.74470750000E+01 0.  1.
<mgrwt>
<rscale>  0 0.14916452E+02</rscale>
<asrwt>0</asrwt>
<pdfrwt beam="1">  1        2 0.99831707E+00 0.14916452E+02</pdfrwt>
<pdfrwt beam="2">  1       -2 0.98235160E+00 0.14916452E+02</pdfrwt>
<totfact> 0.43753434E-13</totfact>
</mgrwt>
</event>
<event>
 4    1  0.5109406E-019  0.1490168E+02  0.7818608E-02  0.1871084E+00
         -2   -1    0    0    0  501 -0.00000000000E+00  0.00000000000E+00  0.11818405105E+03  0.11818405108E+03  0.25500000000E-02 0.  1.
          2   -1    0    0  501    0  0.00000000000E+00 -0.00000000000E+00 -0.46973022243E+00  0.46973714390E+00  0.25500000000E-02 0. -1.
         31    1    1    2    0    0 -0.10807906200E+00 -0.10566720062E+00  0.60309300222E+02  0.60767536283E+02  0.74470750000E+01 0.  1.
        -31    1    1    2    0    0  0.10807906200E+00  0.10566720062E+00  0.57405020607E+02  0.57886251939E+02  0.74470750000E+01 0. -1.
<mgrwt>
<rscale>  0 0.14901682E+02</rscale>
<asrwt>0</asrwt>
<pdfrwt beam="2">  1        2 0.99759933E+00 0.14901682E+02</pdfrwt>
<pdfrwt beam="1">  1       -2 0.98111254E+00 0.14901682E+02</pdfrwt>
<totfact> 0.73356204E-13</totfact>
</mgrwt>
</event>
<event>
 4    1  0.5109406E-019  0.1490581E+02  0.7818608E-02  0.1870957E+00
         -2   -1    0    0    0  501 -0.00000000000E+00  0.00000000000E+00  0.11839220017E+03  0.11839220020E+03  0.25500000000E-02 0. -1.
          2   -1    0    0  501    0  0.00000000000E+00 -0.00000000000E+00 -0.46916397825E+00  0.46917090808E+00  0.25500000000E-02 0.  1.
         31    1    1    2    0    0  0.85332433258E-01 -0.17970833740E+00  0.60695167280E+02  0.61150648680E+02  0.74470750000E+01 0. -1.
        -31    1    1    2    0    0 -0.85332433258E-01  0.17970833740E+00  0.57227868914E+02  0.57710722429E+02  0.74470750000E+01 0.  1.
<mgrwt>
<rscale>  0 0.14905807E+02</rscale>
<asrwt>0</asrwt>
<pdfrwt beam="2">  1        2 0.99640846E+00 0.14905807E+02</pdfrwt>
<pdfrwt beam="1">  1       -2 0.98282898E+00 0.14905807E+02</pdfrwt>
<totfact> 0.68552214E-13</totfact>
</mgrwt>
</event>
<event>
 4    1  0.5109406E-019  0.1492097E+02  0.7818608E-02  0.1870490E+00
          2   -1    0    0  501    0  0.00000000000E+00  0.00000000000E+00  0.11999621135E+03  0.11999621138E+03  0.25500000000E-02 0. -1.
         -2   -1    0    0    0  501 -0.00000000000E+00 -0.00000000000E+00 -0.46383459491E+00  0.46384160436E+00  0.25500000000E-02 0.  1.
         31    1    1    2    0    0 -0.20865542036E+00 -0.30827382699E+00  0.57766997655E+02  0.58246231757E+02  0.74470750000E+01 0.  1.
        -31    1    1    2    0    0  0.20865542036E+00  0.30827382699E+00  0.61765379104E+02  0.62213821227E+02  0.74470750000E+01 0. -1.
<mgrwt>
<rscale>  0 0.14920968E+02</rscale>
<asrwt>0</asrwt>
<pdfrwt beam="1">  1        2 0.99604800E+00 0.14920968E+02</pdfrwt>
<pdfrwt beam="2">  1       -2 0.98518567E+00 0.14920968E+02</pdfrwt>
<totfact> 0.40385470E-13</totfact>
</mgrwt>
</event>
<event>
 4    1  0.5109406E-019  0.1493198E+02  0.7818608E-02  0.1870151E+00
          2   -1    0    0  501    0  0.00000000000E+00  0.00000000000E+00  0.12037351000E+03  0.12037351002E+03  0.25500000000E-02 0. -1.
         -2   -1    0    0    0  501 -0.00000000000E+00 -0.00000000000E+00 -0.46306342373E+00  0.46307044486E+00  0.25500000000E-02 0.  1.
         31    1    1    2    0    0 -0.11627686491E+00 -0.12145082442E+00  0.64032084070E+02  0.64463904528E+02  0.74470750000E+01 0. -1.
        -31    1    1    2    0    0  0.11627686491E+00  0.12145082442E+00  0.55878362501E+02  0.56372675939E+02  0.74470750000E+01 0.  1.
<mgrwt>
<rscale>  0 0.14931979E+02</rscale>
<asrwt>0</asrwt>
<pdfrwt beam="1">  1        2 0.99916139E+00 0.14931979E+02</pdfrwt>
<pdfrwt beam="2">  1       -2 0.98356587E+00 0.14931979E+02</pdfrwt>
<totfact> 0.18347178E-13</totfact>
</mgrwt>
</event>
<event>
 4    1 -0.5109406E-019  0.1500077E+02  0.7818608E-02  0.1868045E+00
          2   -1    0    0  501    0  0.00000000000E+00  0.00000000000E+00  0.12008271501E+03  0.12008271504E+03  0.25500000000E-02 0. -1.
         -2   -1    0    0    0  501 -0.00000000000E+00 -0.00000000000E+00 -0.46847160757E+00  0.46847854764E+00  0.25500000000E-02 0.  1.
         31    1    1    2    0    0  0.81170864095E+00  0.32658733962E+00  0.61229035890E+02  0.61686459554E+02  0.74470750000E+01 0. -1.
        -31    1    1    2    0    0 -0.81170864095E+00 -0.32658733962E+00  0.58385207516E+02  0.58864734035E+02  0.74470750000E+01 0. -1.
<mgrwt>
<rscale>  0 0.15000768E+02</rscale>
<asrwt>0</asrwt>
<pdfrwt beam="1">  1        2 0.99680161E+00 0.15000768E+02</pdfrwt>
<pdfrwt beam="2">  1       -2 0.99499903E+00 0.15000768E+02</pdfrwt>
<totfact>-0.91872143E-14</totfact>
</mgrwt>
</event>
<event>
 4    1 -0.5109406E-019  0.1491216E+02  0.7818608E-02  0.1870761E+00
         -2   -1    0    0    0  501 -0.00000000000E+00  0.00000000000E+00  0.11984899253E+03  0.11984899256E+03  0.25500000000E-02 0. -1.
          2   -1    0    0  501    0  0.00000000000E+00 -0.00000000000E+00 -0.46385631801E+00  0.46386332713E+00  0.25500000000E-02 0.  1.
         31    1    1    2    0    0  0.84119170773E-01 -0.34304236863E+00  0.58908030129E+02  0.59377939454E+02  0.74470750000E+01 0.  1.
        -31    1    1    2    0    0 -0.84119170773E-01  0.34304236863E+00  0.60477106086E+02  0.60934916433E+02  0.74470750000E+01 0. -1.
<mgrwt>
<rscale>  0 0.14912161E+02</rscale>
<asrwt>0</asrwt>
<pdfrwt beam="2">  1        2 0.98522697E+00 0.14912161E+02</pdfrwt>
<pdfrwt beam="1">  1       -2 0.99483087E+00 0.14912161E+02</pdfrwt>
<totfact>-0.33546571E-13</totfact>
</mgrwt>
</event>
<event>
 4    1  0.5109406E-019  0.1490577E+02  0.7818608E-02  0.1870958E+00
          2   -1    0    0  501    0  0.00000000000E+00  0.00000000000E+00  0.11987226991E+03  0.11987226993E+03  0.25500000000E-02 0.  1.
         -2   -1    0    0    0  501 -0.00000000000E+00 -0.00000000000E+00 -0.46336884137E+00  0.46337585787E+00  0.25500000000E-02 0. -1.
         31    1    1    2    0    0 -0.43412044562E-01  0.38573097518E-01  0.62033087126E+02  0.62478525886E+02  0.74470750000E+01 0.  1.
        -31    1    1    2    0    0  0.43412044562E-01 -0.38573097518E-01  0.57375813940E+02  0.57857119906E+02  0.74470750000E+01 0. -1.
<mgrwt>
<rscale>  0 0.14905771E+02</rscale>
<asrwt>0</asrwt>
<pdfrwt beam="1">  1        2 0.99501931E+00 0.14905771E+02</pdfrwt>
<pdfrwt beam="2">  1       -2 0.98419631E+00 0.14905771E+02</pdfrwt>
<totfact> 0.59970104E-13</totfact>
</mgrwt>
</event>
<event>
 4    1  0.5109406E-019  0.1492397E+02  0.7818608E-02  0.1870397E+00
          2   -1    0    0  501    0  0.00000000000E+00  0.00000000000E+00  0.12001244066E+03  0.12001244069E+03  0.25500000000E-02 0. -1.
         -2   -1    0    0    0  501 -0.00000000000E+00 -0.00000000000E+00 -0.46395883019E+00  0.46396583776E+00  0.25500000000E-02 0.  1.
         31    1    1    2    0    0  0.45537673209E+00 -0.24674008864E-01  0.58807118760E+02  0.59278530006E+02  0.74470750000E+01 0. -1.
        -31    1    1    2    0    0 -0.45537673209E+00  0.24674008864E-01  0.60741363074E+02  0.61197876523E+02  0.74470750000E+01 0.  1.
<mgrwt>
<rscale>  0 0.14923975E+02</rscale>
<asrwt>0</asrwt>
<pdfrwt beam="1">  1        2 0.99618322E+00 0.14923975E+02</pdfrwt>
<pdfrwt beam="2">  1       -2 0.98544904E+00 0.14923975E+02</pdfrwt>
<totfact> 0.36582663E-13</totfact>
</mgrwt>
</event>
<event>
 4    1 -0.5109406E-019  0.1495994E+02  0.7818608E-02  0.1869293E+00
          2   -1    0    0  501    0  0.00000000000E+00  0.00000000000E+00  0.11952678075E+03  0.11952678078E+03  0.25500000000E-02 0.  1.
         -2   -1    0    0    0  501 -0.00000000000E+00 -0.00000000000E+00 -0.46809212021E+00  0.46809906590E+00  0.25500000000E-02 0. -1.
         31    1    1    2    0    0  0.48295182537E+00 -0.36654758559E+00  0.62347437599E+02  0.62793546650E+02  0.74470750000E+01 0.  1.
        -31    1    1    2    0    0 -0.48295182537E+00  0.36654758559E+00  0.56711251029E+02  0.57201333192E+02  0.74470750000E+01 0. -1.
<mgrwt>
<rscale>  0 0.14959942E+02</rscale>
<asrwt>0</asrwt>
<pdfrwt beam="1">  1        2 0.99220162E+00 0.14959942E+02</pdfrwt>
<pdfrwt beam="2">  1       -2 0.99417822E+00 0.14959942E+02</pdfrwt>
<totfact>-0.14746477E-13</totfact>
</mgrwt>
</event>
<event>
 4    1 -0.5109406E-019  0.1493923E+02  0.7818608E-02  0.1869929E+00
         -2   -1    0    0    0  501 -0.00000000000E+00  0.00000000000E+00  0.11981478571E+03  0.11981478573E+03  0.25500000000E-02 0. -1.
          2   -1    0    0  501    0  0.00000000000E+00 -0.00000000000E+00 -0.46567456143E+00  0.46568154318E+00  0.25500000000E-02 0.  1.
         31    1    1    2    0    0 -0.47907350575E+00 -0.65795777164E-01  0.62250382857E+02  0.62696115768E+02  0.74470750000E+01 0. -1.
        -31    1    1    2    0    0  0.47907350575E+00  0.65795777164E-01  0.57098728287E+02  0.57584351508E+02  0.74470750000E+01 0.  1.
<mgrwt>
<rscale>  0 0.14939226E+02</rscale>
<asrwt>0</asrwt>
<pdfrwt beam="2">  1        2 0.98907281E+00 0.14939226E+02</pdfrwt>
<pdfrwt beam="1">  1       -2 0.99456306E+00 0.14939226E+02</pdfrwt>
<totfact>-0.19665974E-13</totfact>
</mgrwt>
</event>
<event>
 4    1  0.5109406E-019  0.1491142E+02  0.7818608E-02  0.1870784E+00
         -2   -1    0    0    0  501 -0.00000000000E+00  0.00000000000E+00  0.11812655683E+03  0.11812655685E+03  0.25500000000E-02 0.  1.
          2   -1    0    0  501    0  0.00000000000E+00 -0.00000000000E+00 -0.47057320381E+00  0.47058011289E+00  0.25500000000E-02 0. -1.
         31    1    1    2    0    0  0.22697349658E+00 -0.58248546150E-01  0.60988164142E+02  0.61441598298E+02  0.74470750000E+01 0.  1.
        -31    1    1    2    0    0 -0.22697349658E+00  0.58248546150E-01  0.56667819481E+02  0.57155538670E+02  0.74470750000E+01 0. -1.
<mgrwt>
<rscale>  0 0.14911419E+02</rscale>
<asrwt>0</asrwt>
<pdfrwt beam="2">  1        2 0.99938058E+00 0.14911419E+02</pdfrwt>
<pdfrwt beam="1">  1       -2 0.98064411E+00 0.14911419E+02</pdfrwt>
<totfact> 0.25086447E-13</totfact>
</mgrwt>
</event>
<event>
 4    1 -0.5109406E-019  0.1496683E+02  0.7818608E-02  0.1869082E+00
          2   -1    0    0  501    0  0.00000000000E+00  0.00000000000E+00  0.11938184567E+03  0.11938184570E+03  0.25500000000E-02 0.  1.
         -2   -1    0    0    0  501 -0.00000000000E+00 -0.00000000000E+00 -0.46909217065E+00  0.46909910154E+00  0.25500000000E-02 0. -1.
         31    1    1    2    0    0  0.64919150508E+00  0.95592270494E-01  0.62136200081E+02  0.62584318116E+02  0.74470750000E+01 0.  1.
        -31    1    1    2    0    0 -0.64919150508E+00 -0.95592270494E-01  0.56776553418E+02  0.57266626682E+02  0.74470750000E+01 0. -1.
<mgrwt>
<rscale>  0 0.14966831E+02</rscale>
<asrwt>0</asrwt>
<pdfrwt beam="1">  1        2 0.99101147E+00 0.14966831E+02</pdfrwt>
<pdfrwt beam="2">  1       -2 0.99628915E+00 0.14966831E+02</pdfrwt>
<totfact>-0.14801523E-13</totfact>
</mgrwt>
</event>
<event>
 4    1  0.5109406E-019  0.1491439E+02  0.7818608E-02  0.1870692E+00
         -2   -1    0    0    0  501 -0.00000000000E+00  0.00000000000E+00  0.11873715947E+03  0.11873715950E+03  0.25500000000E-02 0.  1.
          2   -1    0    0  501    0  0.00000000000E+00 -0.00000000000E+00 -0.46833998629E+00  0.46834692831E+00  0.25500000000E-02 0. -1.
         31    1    1    2    0    0 -0.13255271625E+00 -0.33699179769E+00  0.60256666678E+02  0.60716191736E+02  0.74470750000E+01 0.  1.
        -31    1    1    2    0    0  0.13255271625E+00  0.33699179769E+00  0.58012152810E+02  0.58489314694E+02  0.74470750000E+01 0.  1.
<mgrwt>
<rscale>  0 0.14914392E+02</rscale>
<asrwt>0</asrwt>
<pdfrwt beam="2">  1        2 0.99467678E+00 0.14914392E+02</pdfrwt>
<pdfrwt beam="1">  1       -2 0.98567453E+00 0.14914392E+02</pdfrwt>
<totfact> 0.40924415E-13</totfact>
</mgrwt>
</event>
<event>
 4    1 -0.5109406E-019  0.1500769E+02  0.7818608E-02  0.1867834E+00
         -2   -1    0    0    0  501 -0.00000000000E+00  0.00000000000E+00  0.11991073337E+03  0.11991073340E+03  0.25500000000E-02 0.  1.
          2   -1    0    0  501    0  0.00000000000E+00 -0.00000000000E+00 -0.46957677401E+00  0.46958369775E+00  0.25500000000E-02 0. -1.
         31    1    1    2    0    0  0.66172554213E-01 -0.69737884952E+00  0.54920741446E+02  0.55427768159E+02  0.74470750000E+01 0. -1.
        -31    1    1    2    0    0 -0.66172554213E-01  0.69737884952E+00  0.64520415149E+02  0.64952548935E+02  0.74470750000E+01 0.  1.
<mgrwt>
<rscale>  0 0.15007693E+02</rscale>
<asrwt>0</asrwt>
<pdfrwt beam="2">  1        2 0.99733157E+00 0.15007693E+02</pdfrwt>
<pdfrwt beam="1">  1       -2 0.99538869E+00 0.15007693E+02</pdfrwt>
<totfact>-0.80022168E-14</totfact>
</mgrwt>
</event>
<event>
 4    1 -0.5109406E-019  0.1495197E+02  0.7818608E-02  0.1869538E+00
         -2   -1    0    0    0  501 -0.00000000000E+00  0.00000000000E+00  0.11982968284E+03  0.11982968287E+03  0.25500000000E-02 0. -1.
          2   -1    0    0  501    0  0.00000000000E+00 -0.00000000000E+00 -0.46641118889E+00  0.46641815962E+00  0.25500000000E-02 0.  1.
         31    1    1    2    0    0 -0.41337785837E+00 -0.42804562830E+00  0.61918450471E+02  0.62367519905E+02  0.74470750000E+01 0. -1.
        -31    1    1    2    0    0  0.41337785837E+00  0.42804562830E+00  0.57444821184E+02  0.57928581126E+02  0.74470750000E+01 0.  1.
<mgrwt>
<rscale>  0 0.14951967E+02</rscale>
<asrwt>0</asrwt>
<pdfrwt beam="2">  1        2 0.99063176E+00 0.14951967E+02</pdfrwt>
<pdfrwt beam="1">  1       -2 0.99469233E+00 0.14951967E+02</pdfrwt>
<totfact>-0.16902809E-13</totfact>
</mgrwt>
</event>
<event>
 4    1 -0.5109406E-019  0.1492589E+02  0.7818608E-02  0.1870339E+00
          2   -1    0    0  501    0  0.00000000000E+00  0.00000000000E+00  0.11857257676E+03  0.11857257679E+03  0.25500000000E-02 0. -1.
         -2   -1    0    0    0  501 -0.00000000000E+00 -0.00000000000E+00 -0.46971316301E+00  0.46972008474E+00  0.25500000000E-02 0.  1.
         31    1    1    2    0    0  0.32235468540E+00 -0.24895945041E+00  0.56930858122E+02  0.57417309463E+02  0.74470750000E+01 0. -1.
        -31    1    1    2    0    0 -0.32235468540E+00  0.24895945041E+00  0.61172005475E+02  0.61624987410E+02  0.74470750000E+01 0.  1.
<mgrwt>
<rscale>  0 0.14925885E+02</rscale>
<asrwt>0</asrwt>
<pdfrwt beam="1">  1        2 0.98432500E+00 0.14925885E+02</pdfrwt>
<pdfrwt beam="2">  1       -2 0.99757619E+00 0.14925885E+02</pdfrwt>
<totfact>-0.26750046E-13</totfact>
</mgrwt>
</event>
<event>
 4    1 -0.5109406E-019  0.1493583E+02  0.7818608E-02  0.1870033E+00
         -2   -1    0    0    0  501 -0.00000000000E+00  0.00000000000E+00  0.12028090663E+03  0.12028090666E+03  0.25500000000E-02 0. -1.
          2   -1    0    0  501    0  0.00000000000E+00 -0.00000000000E+00 -0.46365908538E+00  0.46366609748E+00  0.25500000000E-02 0.  1.
         31    1    1    2    0    0  0.45631923997E+00  0.25492140988E+00  0.61476669002E+02  0.61928288930E+02  0.74470750000E+01 0. -1.
        -31    1    1    2    0    0 -0.45631923997E+00 -0.25492140988E+00  0.58340578547E+02  0.58816283829E+02  0.74470750000E+01 0. -1.
<mgrwt>
<rscale>  0 0.14935831E+02</rscale>
<asrwt>0</asrwt>
<pdfrwt beam="2">  1        2 0.98482330E+00 0.14935831E+02</pdfrwt>
<pdfrwt beam="1">  1       -2 0.99840061E+00 0.14935831E+02</pdfrwt>
<totfact>-0.17632125E-13</totfact>
</mgrwt>
</event>
<event>
 4    1  0.5109406E-019  0.1491891E+02  0.7818608E-02  0.1870553E+00
          2   -1    0    0  501    0  0.00000000000E+00  0.00000000000E+00  0.12036110301E+03  0.12036110303E+03  0.25500000000E-02 0. -1.
         -2   -1    0    0    0  501 -0.00000000000E+00 -0.00000000000E+00 -0.46230089039E+00  0.46230792309E+00  0.25500000000E-02 0.  1.
         31    1    1    2    0    0  0.42829322869E+00  0.27523056445E-01  0.60101542719E+02  0.60562682865E+02  0.74470750000E+01 0. -1.
        -31    1    1    2    0    0 -0.42829322869E+00 -0.27523056445E-01  0.59797259397E+02  0.60260728091E+02  0.74470750000E+01 0.  1.
<mgrwt>
<rscale>  0 0.14918910E+02</rscale>
<asrwt>0</asrwt>
<pdfrwt beam="1">  1        2 0.99905250E+00 0.14918910E+02</pdfrwt>
<pdfrwt beam="2">  1       -2 0.98195205E+00 0.14918910E+02</pdfrwt>
<totfact> 0.28971097E-13</totfact>
</mgrwt>
</event>
<event>
 4    1 -0.5109406E-019  0.1490804E+02  0.7818608E-02  0.1870888E+00
          2   -1    0    0  501    0  0.00000000000E+00  0.00000000000E+00  0.11845809649E+03  0.11845809652E+03  0.25500000000E-02 0. -1.
         -2   -1    0    0    0  501 -0.00000000000E+00 -0.00000000000E+00 -0.46904336282E+00  0.46905029443E+00  0.25500000000E-02 0.  1.
         31    1    1    2    0    0 -0.19020487266E-02 -0.26941284911E-01  0.61551551820E+02  0.62000428925E+02  0.74470750000E+01 0. -1.
        -31    1    1    2    0    0  0.19020487266E-02  0.26941284911E-01  0.56437501307E+02  0.56926717886E+02  0.74470750000E+01 0.  1.
<mgrwt>
<rscale>  0 0.14908038E+02</rscale>
<asrwt>0</asrwt>
<pdfrwt beam="1">  1        2 0.98337286E+00 0.14908038E+02</pdfrwt>
<pdfrwt beam="2">  1       -2 0.99615550E+00 0.14908038E+02</pdfrwt>
<totfact>-0.41917733E-13</totfact>
</mgrwt>
</event>
<event>
 4    1 -0.5109406E-019  0.1499087E+02  0.7818608E-02  0.1868347E+00
         -2   -1    0    0    0  501 -0.00000000000E+00  0.00000000000E+00  0.11986506103E+03  0.11986506106E+03  0.25500000000E-02 0.  1.
          2   -1    0    0  501    0  0.00000000000E+00 -0.00000000000E+00 -0.46870319627E+00  0.46871013291E+00  0.25500000000E-02 0. -1.
         31    1    1    2    0    0 -0.83380507675E+00  0.10504547455E+00  0.60725047082E+02  0.61185754343E+02  0.74470750000E+01 0. -1.
        -31    1    1    2    0    0  0.83380507675E+00 -0.10504547455E+00  0.58671310754E+02  0.59148016849E+02  0.74470750000E+01 0.  1.
<mgrwt>
<rscale>  0 0.14990871E+02</rscale>
<asrwt>0</asrwt>
<pdfrwt beam="2">  1        2 0.99548196E+00 0.14990871E+02</pdfrwt>
<pdfrwt beam="1">  1       -2 0.99500381E+00 0.14990871E+02</pdfrwt>
<totfact>-0.11302151E-13</totfact>
</mgrwt>
</event>
<event>
 4    1 -0.5109406E-019  0.1495145E+02  0.7818608E-02  0.1869554E+00
          2   -1    0    0  501    0  0.00000000000E+00  0.00000000000E+00  0.11925648396E+03  0.11925648399E+03  0.25500000000E-02 0.  1.
         -2   -1    0    0    0  501 -0.00000000000E+00 -0.00000000000E+00 -0.46862048161E+00  0.46862741948E+00  0.25500000000E-02 0. -1.
         31    1    1    2    0    0 -0.55697725932E+00  0.23443654610E+00  0.61393228781E+02  0.61846201584E+02  0.74470750000E+01 0. -1.
        -31    1    1    2    0    0  0.55697725932E+00 -0.23443654610E+00  0.57394634696E+02  0.57878909821E+02  0.74470750000E+01 0. -1.
<mgrwt>
<rscale>  0 0.14951448E+02</rscale>
<asrwt>0</asrwt>
<pdfrwt beam="1">  1        2 0.98997099E+00 0.14951448E+02</pdfrwt>
<pdfrwt beam="2">  1       -2 0.99528719E+00 0.14951448E+02</pdfrwt>
<totfact>-0.17735221E-13</totfact>
</mgrwt>
</event>
<event>
 4    1  0.5109406E-019  0.1492990E+02  0.7818608E-02  0.1870215E+00
          2   -1    0    0  501    0  0.00000000000E+00  0.00000000000E+00  0.11975649757E+03  0.11975649760E+03  0.25500000000E-02 0. -1.
         -2   -1    0    0    0  501 -0.00000000000E+00 -0.00000000000E+00 -0.46531971312E+00  0.46532670020E+00  0.25500000000E-02 0.  1.
         31    1    1    2    0    0 -0.38726522714E+00  0.46215917190E-01  0.62369692949E+02  0.62813928669E+02  0.74470750000E+01 0. -1.
        -31    1    1    2    0    0  0.38726522714E+00 -0.46215917190E-01  0.56921484912E+02  0.57407895632E+02  0.74470750000E+01 0.  1.
<mgrwt>
<rscale>  0 0.14929900E+02</rscale>
<asrwt>0</asrwt>
<pdfrwt beam="1">  1        2 0.99407816E+00 0.14929900E+02</pdfrwt>
<pdfrwt beam="2">  1       -2 0.98832019E+00 0.14929900E+02</pdfrwt>
<totfact> 0.13533714E-13</totfact>
</mgrwt>
</event>
<event>
 4    1  0.5109406E-019  0.1491093E+02  0.7818608E-02  0.1870799E+00
         -2   -1    0    0    0  501 -0.00000000000E+00  0.00000000000E+00  0.11878342815E+03  0.11878342818E+03  0.25500000000E-02 0.  1.
          2   -1    0    0  501    0  0.00000000000E+00 -0.00000000000E+00 -0.46794006917E+00  0.46794701713E+00  0.25500000000E-02 0. -1.
         31    1    1    2    0    0  0.30249985335E+00 -0.15541652378E+00  0.58384208702E+02  0.58858222979E+02  0.74470750000E+01 0. -1.
        -31    1    1    2    0    0 -0.30249985335E+00  0.15541652378E+00  0.59931279377E+02  0.60393152214E+02  0.74470750000E+01 0. -1.
<mgrwt>
<rscale>  0 0.14910928E+02</rscale>
<asrwt>0</asrwt>
<pdfrwt beam="2">  1        2 0.99383229E+00 0.14910928E+02</pdfrwt>
<pdfrwt beam="1">  1       -2 0.98605381E+00 0.14910928E+02</pdfrwt>
<totfact> 0.38865150E-13</totfact>
</mgrwt>
</event>
<event>
 4    1 -0.5109406E-019  0.1491664E+02  0.7818608E-02  0.1870623E+00
          2   -1    0    0  501    0  0.00000000000E+00  0.00000000000E+00  0.11859858458E+03  0.11859858461E+03  0.25500000000E-02 0. -1.
         -2   -1    0    0    0  501 -0.00000000000E+00 -0.00000000000E+00 -0.46902886509E+00  0.46903579691E+00  0.25500000000E-02 0.  1.
         31    1    1    2    0    0  0.40588219207E+00 -0.13457966946E-01  0.58647994547E+02  0.59120310486E+02  0.74470750000E+01 0. -1.
        -31    1    1    2    0    0 -0.40588219207E+00  0.13457966946E-01  0.59481561171E+02  0.59947309922E+02  0.74470750000E+01 0. -1.
<mgrwt>
<rscale>  0 0.14916645E+02</rscale>
<asrwt>0</asrwt>
<pdfrwt beam="1">  1        2 0.98453439E+00 0.14916645E+02</pdfrwt>
<pdfrwt beam="2">  1       -2 0.99612948E+00 0.14916645E+02</pdfrwt>
<totfact>-0.34639222E-13</totfact>
</mgrwt>
</event>
<event>
 4    1  0.5109406E-019  0.1492632E+02  0.7818608E-02  0.1870325E+00
          2   -1    0    0  501    0  0.00000000000E+00  0.00000000000E+00  0.12004668064E+03  0.12004668067E+03  0.25500000000E-02 0.  1.
         -2   -1    0    0    0  501 -0.00000000000E+00 -0.00000000000E+00 -0.46397215359E+00  0.46397916097E+00  0.25500000000E-02 0. -1.
         31    1    1    2    0    0 -0.35796785826E+00  0.33239125350E+00  0.60069847296E+02  0.60531678526E+02  0.74470750000E+01 0.  1.
        -31    1    1    2    0    0  0.35796785826E+00 -0.33239125350E+00  0.59512861195E+02  0.59978981306E+02  0.74470750000E+01 0. -1.
<mgrwt>
<rscale>  0 0.14926318E+02</rscale>
<asrwt>0</asrwt>
<pdfrwt beam="1">  1        2 0.99646645E+00 0.14926318E+02</pdfrwt>
<pdfrwt beam="2">  1       -2 0.98547831E+00 0.14926318E+02</pdfrwt>
<totfact> 0.34589715E-13</totfact>
</mgrwt>
</event>
<event>
 4    1  0.5109406E-019  0.1493645E+02  0.7818608E-02  0.1870014E+00
         -2   -1    0    0    0  501 -0.00000000000E+00  0.00000000000E+00  0.11911596505E+03  0.11911596508E+03  0.25500000000E-02 0. -1.
          2   -1    0    0  501    0  0.00000000000E+00 -0.00000000000E+00 -0.46823246149E+00  0.46823940511E+00  0.25500000000E-02 0.  1.
         31    1    1    2    0    0  0.26330296550E+00 -0.48823505378E+00  0.60028700660E+02  0.60491417002E+02  0.74470750000E+01 0. -1.
        -31    1    1    2    0    0 -0.26330296550E+00  0.48823505378E+00  0.58619031928E+02  0.59092787479E+02  0.74470750000E+01 0. -1.
<mgrwt>
<rscale>  0 0.14936449E+02</rscale>
<asrwt>0</asrwt>
<pdfrwt beam="2">  1        2 0.99446173E+00 0.14936449E+02</pdfrwt>
<pdfrwt beam="1">  1       -2 0.98880587E+00 0.14936449E+02</pdfrwt>
<totfact> 0.91156732E-14</totfact>
</mgrwt>
</event>
<event>
 4    1 -0.5109406E-019  0.1496230E+02  0.7818608E-02  0.1869221E+00
          2   -1    0    0  501    0  0.00000000000E+00  0.00000000000E+00  0.11936937432E+03  0.11936937435E+03  0.25500000000E-02 0. -1.
         -2   -1    0    0    0  501 -0.00000000000E+00 -0.00000000000E+00 -0.46885719002E+00  0.46886412439E+00  0.25500000000E-02 0.  1.
         31    1    1    2    0    0 -0.69782008686E+00  0.76991497014E-01  0.60457015543E+02  0.60917998449E+02  0.74470750000E+01 0. -1.
        -31    1    1    2    0    0  0.69782008686E+00 -0.76991497014E-01  0.58443501586E+02  0.58920240022E+02  0.74470750000E+01 0. -1.
<mgrwt>
<rscale>  0 0.14962300E+02</rscale>
<asrwt>0</asrwt>
<pdfrwt beam="1">  1        2 0.99090640E+00 0.14962300E+02</pdfrwt>
<pdfrwt beam="2">  1       -2 0.99579164E+00 0.14962300E+02</pdfrwt>
<totfact>-0.15778326E-13</totfact>
</mgrwt>
</event>
<event>
 4    1 -0.5109406E-019  0.1501728E+02  0.7818608E-02  0.1867542E+00
          2   -1    0    0  501    0  0.00000000000E+00  0.00000000000E+00  0.12036680142E+03  0.12036680145E+03  0.25500000000E-02 0.  1.
         -2   -1    0    0    0  501 -0.00000000000E+00 -0.00000000000E+00 -0.46839528147E+00  0.46840222267E+00  0.25500000000E-02 0. -1.
         31    1    1    2    0    0  0.55621718389E+00 -0.28983574245E+00  0.65792440855E+02  0.66215538826E+02  0.74470750000E+01 0.  1.
        -31    1    1    2    0    0 -0.55621718389E+00  0.28983574245E+00  0.54105965287E+02  0.54619664847E+02  0.74470750000E+01 0. -1.
<mgrwt>
<rscale>  0 0.15017278E+02</rscale>
<asrwt>0</asrwt>
<pdfrwt beam="1">  1        2 0.99915001E+00 0.15017278E+02</pdfrwt>
<pdfrwt beam="2">  1       -2 0.99484668E+00 0.15017278E+02</pdfrwt>
<totfact>-0.31683380E-14</totfact>
</mgrwt>
</event>
<event>
 4    1  0.5109406E-019  0.1492028E+02  0.7818608E-02  0.1870511E+00
          2   -1    0    0  501    0  0.00000000000E+00  0.00000000000E+00  0.12018276530E+03  0.12018276532E+03  0.25500000000E-02 0.  1.
         -2   -1    0    0    0  501 -0.00000000000E+00 -0.00000000000E+00 -0.46307211355E+00  0.46307913454E+00  0.25500000000E-02 0. -1.
         31    1    1    2    0    0  0.13242064077E+00 -0.18971791270E+00  0.62898925848E+02  0.63338671655E+02  0.74470750000E+01 0.  1.
        -31    1    1    2    0    0 -0.13242064077E+00  0.18971791270E+00  0.56820767334E+02  0.57307172802E+02  0.74470750000E+01 0. -1.
<mgrwt>
<rscale>  0 0.14920283E+02</rscale>
<asrwt>0</asrwt>
<pdfrwt beam="1">  1        2 0.99758425E+00 0.14920283E+02</pdfrwt>
<pdfrwt beam="2">  1       -2 0.98357828E+00 0.14920283E+02</pdfrwt>
<totfact> 0.44257926E-13</totfact>
</mgrwt>
</event>
<event>
 4    1 -0.5109406E-019  0.1493940E+02  0.7818608E-02  0.1869924E+00
         -2   -1    0    0    0  501 -0.00000000000E+00  0.00000000000E+00  0.12026921689E+03  0.12026921691E+03  0.25500000000E-02 0.  1.
          2   -1    0    0  501    0  0.00000000000E+00 -0.00000000000E+00 -0.46392549741E+00  0.46393250549E+00  0.25500000000E-02 0. -1.
         31    1    1    2    0    0  0.57648205799E+00 -0.28940401522E-01  0.59373580905E+02  0.59841575887E+02  0.74470750000E+01 0.  1.
        -31    1    1    2    0    0 -0.57648205799E+00  0.28940401522E-01  0.60431710485E+02  0.60891573533E+02  0.74470750000E+01 0.  1.
<mgrwt>
<rscale>  0 0.14939395E+02</rscale>
<asrwt>0</asrwt>
<pdfrwt beam="2">  1        2 0.98538661E+00 0.14939395E+02</pdfrwt>
<pdfrwt beam="1">  1       -2 0.99830615E+00 0.14939395E+02</pdfrwt>
<totfact>-0.16904918E-13</totfact>
</mgrwt>
</event>
<event>
 4    1  0.5109406E-019  0.1492496E+02  0.7818608E-02  0.1870367E+00
         -2   -1    0    0    0  501 -0.00000000000E+00  0.00000000000E+00  0.11901331763E+03  0.11901331766E+03  0.25500000000E-02 0.  1.
          2   -1    0    0  501    0  0.00000000000E+00 -0.00000000000E+00 -0.46791535947E+00  0.46792230779E+00  0.25500000000E-02 0. -1.
         31    1    1    2    0    0  0.69017828313E-01  0.41615941264E+00  0.61092917192E+02  0.61546579183E+02  0.74470750000E+01 0.  1.
        -31    1    1    2    0    0 -0.69017828313E-01 -0.41615941264E+00  0.57452485081E+02  0.57934660784E+02  0.74470750000E+01 0. -1.
<mgrwt>
<rscale>  0 0.14924956E+02</rscale>
<asrwt>0</asrwt>
<pdfrwt beam="2">  1        2 0.99378754E+00 0.14924956E+02</pdfrwt>
<pdfrwt beam="1">  1       -2 0.98795449E+00 0.14924956E+02</pdfrwt>
<totfact> 0.17287882E-13</totfact>
</mgrwt>
</event>
<event>
 4    1 -0.5109406E-019  0.1498562E+02  0.7818608E-02  0.1868508E+00
         -2   -1    0    0    0  501 -0.00000000000E+00  0.00000000000E+00  0.12008944808E+03  0.12008944811E+03  0.25500000000E-02 0. -1.
          2   -1    0    0  501    0  0.00000000000E+00 -0.00000000000E+00 -0.46749967104E+00  0.46750662554E+00  0.25500000000E-02 0.  1.
         31    1    1    2    0    0  0.82571963610E+00 -0.36120296549E-02  0.59505027414E+02  0.59974903415E+02  0.74470750000E+01 0.  1.
        -31    1    1    2    0    0 -0.82571963610E+00  0.36120296549E-02  0.60116921000E+02  0.60582051323E+02  0.74470750000E+01 0.  1.
<mgrwt>
<rscale>  0 0.14985620E+02</rscale>
<asrwt>0</asrwt>
<pdfrwt beam="2">  1        2 0.99294296E+00 0.14985620E+02</pdfrwt>
<pdfrwt beam="1">  1       -2 0.99684925E+00 0.14985620E+02</pdfrwt>
<totfact>-0.11689270E-13</totfact>
</mgrwt>
</event>
<event>
 4    1 -0.5109406E-019  0.1494404E+02  0.7818608E-02  0.1869781E+00
          2   -1    0    0  501    0  0.00000000000E+00  0.00000000000E+00  0.11873794166E+03  0.11873794169E+03  0.25500000000E-02 0.  1.
         -2   -1    0    0    0  501 -0.00000000000E+00 -0.00000000000E+00 -0.47020052533E+00  0.47020743988E+00  0.25500000000E-02 0. -1.
         31    1    1    2    0    0  0.46806622073E+00 -0.28830301831E+00  0.57024483625E+02  0.57511328131E+02  0.74470750000E+01 0.  1.
        -31    1    1    2    0    0 -0.46806622073E+00  0.28830301831E+00  0.61243257511E+02  0.61696820998E+02  0.74470750000E+01 0. -1.
<mgrwt>
<rscale>  0 0.14944036E+02</rscale>
<asrwt>0</asrwt>
<pdfrwt beam="1">  1        2 0.98569638E+00 0.14944036E+02</pdfrwt>
<pdfrwt beam="2">  1       -2 0.99861264E+00 0.14944036E+02</pdfrwt>
<totfact>-0.13555319E-13</totfact>
</mgrwt>
</event>
<event>
 4    1 -0.5109406E-019  0.1492566E+02  0.7818608E-02  0.1870346E+00
         -2   -1    0    0    0  501 -0.00000000000E+00  0.00000000000E+00  0.12029034017E+03  0.12029034020E+03  0.25500000000E-02 0.  1.
          2   -1    0    0  501    0  0.00000000000E+00 -0.00000000000E+00 -0.46299144710E+00  0.46299846932E+00  0.25500000000E-02 0. -1.
         31    1    1    2    0    0  0.83516288363E-01  0.45205970248E+00  0.61155618042E+02  0.61609089241E+02  0.74470750000E+01 0.  1.
        -31    1    1    2    0    0 -0.83516288363E-01 -0.45205970248E+00  0.58671730680E+02  0.59144249425E+02  0.74470750000E+01 0. -1.
<mgrwt>
<rscale>  0 0.14925659E+02</rscale>
<asrwt>0</asrwt>
<pdfrwt beam="2">  1        2 0.98341097E+00 0.14925659E+02</pdfrwt>
<pdfrwt beam="1">  1       -2 0.99847309E+00 0.14925659E+02</pdfrwt>
<totfact>-0.21427620E-13</totfact>
</mgrwt>
</event>
<event>
 4    1  0.5109406E-019  0.1489565E+02  0.7818608E-02  0.1871270E+00
          2   -1    0    0  501    0  0.00000000000E+00  0.00000000000E+00  0.12018948271E+03  0.12018948274E+03  0.25500000000E-02 0.  1.
         -2   -1    0    0    0  501 -0.00000000000E+00 -0.00000000000E+00 -0.46151855781E+00  0.46152560244E+00  0.25500000000E-02 0. -1.
         31    1    1    2    0    0 -0.94528174626E-01 -0.37822219889E-01  0.59633291898E+02  0.60096578894E+02  0.74470750000E+01 0. -1.
        -31    1    1    2    0    0  0.94528174626E-01  0.37822219889E-01  0.60094672256E+02  0.60554429448E+02  0.74470750000E+01 0.  1.
<mgrwt>
<rscale>  0 0.14895651E+02</rscale>
<asrwt>0</asrwt>
<pdfrwt beam="1">  1        2 0.99762695E+00 0.14895651E+02</pdfrwt>
<pdfrwt beam="2">  1       -2 0.98029136E+00 0.14895651E+02</pdfrwt>
<totfact> 0.84178518E-13</totfact>
</mgrwt>
</event>
<event>
 4    1 -0.5109406E-019  0.1493992E+02  0.7818608E-02  0.1869907E+00
         -2   -1    0    0    0  501 -0.00000000000E+00  0.00000000000E+00  0.12011253861E+03  0.12011253864E+03  0.25500000000E-02 0. -1.
          2   -1    0    0  501    0  0.00000000000E+00 -0.00000000000E+00 -0.46456335661E+00  0.46457035507E+00  0.25500000000E-02 0.  1.
         31    1    1    2    0    0  0.93528247945E-01 -0.24030959410E+00  0.55592506650E+02  0.56089680138E+02  0.74470750000E+01 0.  1.
        -31    1    1    2    0    0 -0.93528247945E-01  0.24030959410E+00  0.64055468602E+02  0.64487428854E+02  0.74470750000E+01 0. -1.
<mgrwt>
<rscale>  0 0.14939921E+02</rscale>
<asrwt>0</asrwt>
<pdfrwt beam="2">  1        2 0.98673125E+00 0.14939921E+02</pdfrwt>
<pdfrwt beam="1">  1       -2 0.99701590E+00 0.14939921E+02</pdfrwt>
<totfact>-0.21199778E-13</totfact>
</mgrwt>
</event>
<event>
 4    1 -0.5109406E-019  0.1491326E+02  0.7818608E-02  0.1870727E+00
          2   -1    0    0  501    0  0.00000000000E+00  0.00000000000E+00  0.11851453565E+03  0.11851453568E+03  0.25500000000E-02 0. -1.
         -2   -1    0    0    0  501 -0.00000000000E+00 -0.00000000000E+00 -0.46914851025E+00  0.46915544031E+00  0.25500000000E-02 0.  1.
         31    1    1    2    0    0  0.19853495300E+00  0.18317902852E+00  0.56920347904E+02  0.57406078966E+02  0.74470750000E+01 0.  1.
        -31    1    1    2    0    0 -0.19853495300E+00 -0.18317902852E+00  0.61125039238E+02  0.61577612154E+02  0.74470750000E+01 0. -1.
<mgrwt>
<rscale>  0 0.14913260E+02</rscale>
<asrwt>0</asrwt>
<pdfrwt beam="1">  1        2 0.98384041E+00 0.14913260E+02</pdfrwt>
<pdfrwt beam="2">  1       -2 0.99637980E+00 0.14913260E+02</pdfrwt>
<totfact>-0.37612802E-13</totfact>
</mgrwt>
</event>
<event>
 4    1 -0.5109406E-019  0.1495286E+02  0.7818608E-02  0.1869510E+00
          2   -1    0    0  501    0  0.00000000000E+00  0.00000000000E+00  0.11889184978E+03  0.11889184981E+03  0.25500000000E-02 0. -1.
         -2   -1    0    0    0  501 -0.00000000000E+00 -0.00000000000E+00 -0.47014645122E+00  0.47015336657E+00  0.25500000000E-02 0.  1.
         31    1    1    2    0    0 -0.48510198473E+00 -0.32131874819E+00  0.56692866726E+02  0.57182852617E+02  0.74470750000E+01 0.  1.
        -31    1    1    2    0    0  0.48510198473E+00  0.32131874819E+00  0.61728836601E+02  0.62179150555E+02  0.74470750000E+01 0. -1.
<mgrwt>
<rscale>  0 0.14952859E+02</rscale>
<asrwt>0</asrwt>
<pdfrwt beam="1">  1        2 0.98696856E+00 0.14952859E+02</pdfrwt>
<pdfrwt beam="2">  1       -2 0.99850335E+00 0.14952859E+02</pdfrwt>
<totfact>-0.11965473E-13</totfact>
</mgrwt>
</event>
<event>
 4    1  0.5109406E-019  0.1491995E+02  0.7818608E-02  0.1870521E+00
          2   -1    0    0  501    0  0.00000000000E+00  0.00000000000E+00  0.12018202292E+03  0.12018202295E+03  0.25500000000E-02 0. -1.
         -2   -1    0    0    0  501 -0.00000000000E+00 -0.00000000000E+00 -0.46305454239E+00  0.46306156365E+00  0.25500000000E-02 0.  1.
         31    1    1    2    0    0 -0.22673418457E-01  0.23085804844E+00  0.56849942901E+02  0.57336103315E+02  0.74470750000E+01 0.  1.
        -31    1    1    2    0    0  0.22673418457E-01 -0.23085804844E+00  0.62869025481E+02  0.63308981200E+02  0.74470750000E+01 0. -1.
<mgrwt>
<rscale>  0 0.14919954E+02</rscale>
<asrwt>0</asrwt>
<pdfrwt beam="1">  1        2 0.99757797E+00 0.14919954E+02</pdfrwt>
<pdfrwt beam="2">  1       -2 0.98354108E+00 0.14919954E+02</pdfrwt>
<totfact> 0.44729883E-13</totfact>
</mgrwt>
</event>
<event>
 4    1  0.5109406E-019  0.1492936E+02  0.7818608E-02  0.1870232E+00
         -2   -1    0    0    0  501 -0.00000000000E+00  0.00000000000E+00  0.11871460992E+03  0.11871460995E+03  0.25500000000E-02 0.  1.
          2   -1    0    0  501    0  0.00000000000E+00 -0.00000000000E+00 -0.46936978125E+00  0.46937670804E+00  0.25500000000E-02 0. -1.
         31    1    1    2    0    0  0.31085801983E+00  0.51291288153E-01  0.55896823687E+02  0.56391604764E+02  0.74470750000E+01 0. -1.
        -31    1    1    2    0    0 -0.31085801983E+00 -0.51291288153E-01  0.62348416450E+02  0.62792381889E+02  0.74470750000E+01 0.  1.
<mgrwt>
<rscale>  0 0.14929362E+02</rscale>
<asrwt>0</asrwt>
<pdfrwt beam="2">  1        2 0.99685450E+00 0.14929362E+02</pdfrwt>
<pdfrwt beam="1">  1       -2 0.98549659E+00 0.14929362E+02</pdfrwt>
<totfact> 0.31922191E-13</totfact>
</mgrwt>
</event>
<event>
 4    1  0.5109406E-019  0.1495244E+02  0.7818608E-02  0.1869523E+00
          2   -1    0    0  501    0  0.00000000000E+00  0.00000000000E+00  0.12015679574E+03  0.12015679577E+03  0.25500000000E-02 0.  1.
         -2   -1    0    0    0  501 -0.00000000000E+00 -0.00000000000E+00 -0.46517106480E+00  0.46517805412E+00  0.25500000000E-02 0. -1.
         31    1    1    2    0    0 -0.48210949782E+00  0.44810299109E+00  0.60181915565E+02  0.60644497797E+02  0.74470750000E+01 0. -1.
        -31    1    1    2    0    0  0.48210949782E+00 -0.44810299109E+00  0.59509709111E+02  0.59977476026E+02  0.74470750000E+01 0.  1.
<mgrwt>
<rscale>  0 0.14952443E+02</rscale>
<asrwt>0</asrwt>
<pdfrwt beam="1">  1        2 0.99738687E+00 0.14952443E+02</pdfrwt>
<pdfrwt beam="2">  1       -2 0.98801843E+00 0.14952443E+02</pdfrwt>
<totfact> 0.10043137E-13</totfact>
</mgrwt>
</event>
<event>
 4    1  0.5109406E-019  0.1492348E+02  0.7818608E-02  0.1870412E+00
          2   -1    0    0  501    0  0.00000000000E+00  0.00000000000E+00  0.11990433134E+03  0.11990433136E+03  0.25500000000E-02 0.  1.
         -2   -1    0    0    0  501 -0.00000000000E+00 -0.00000000000E+00 -0.46434654153E+00  0.46435354325E+00  0.25500000000E-02 0. -1.
         31    1    1    2    0    0 -0.26689098519E+00 -0.37266607138E+00  0.58974284022E+02  0.59444387564E+02  0.74470750000E+01 0. -1.
        -31    1    1    2    0    0  0.26689098519E+00  0.37266607138E+00  0.60465700772E+02  0.60924297342E+02  0.74470750000E+01 0.  1.
<mgrwt>
<rscale>  0 0.14923483E+02</rscale>
<asrwt>0</asrwt>
<pdfrwt beam="1">  1        2 0.99529250E+00 0.14923483E+02</pdfrwt>
<pdfrwt beam="2">  1       -2 0.98626592E+00 0.14923483E+02</pdfrwt>
<totfact> 0.31537872E-13</totfact>
</mgrwt>
</event>
<event>
 4    1 -0.5109406E-019  0.1491315E+02  0.7818608E-02  0.1870730E+00
         -2   -1    0    0    0  501 -0.00000000000E+00  0.00000000000E+00  0.11967021143E+03  0.11967021145E+03  0.25500000000E-02 0. -1.
          2   -1    0    0  501    0  0.00000000000E+00 -0.00000000000E+00 -0.46461117926E+00  0.46461817700E+00  0.25500000000E-02 0.  1.
         31    1    1    2    0    0 -0.20340822322E+00  0.31653630103E+00  0.59549468438E+02  0.60014495645E+02  0.74470750000E+01 0. -1.
        -31    1    1    2    0    0  0.20340822322E+00 -0.31653630103E+00  0.59656131808E+02  0.60120333985E+02  0.74470750000E+01 0. -1.
<mgrwt>
<rscale>  0 0.14913154E+02</rscale>
<asrwt>0</asrwt>
<pdfrwt beam="2">  1        2 0.98681838E+00 0.14913154E+02</pdfrwt>
<pdfrwt beam="1">  1       -2 0.99335883E+00 0.14913154E+02</pdfrwt>
<totfact>-0.24088123E-13</totfact>
</mgrwt>
</event>
<event>
 4    1  0.5109406E-019  0.1493025E+02  0.7818608E-02  0.1870204E+00
         -2   -1    0    0    0  501 -0.00000000000E+00  0.00000000000E+00  0.11860735217E+03  0.11860735220E+03  0.25500000000E-02 0.  1.
          2   -1    0    0  501    0  0.00000000000E+00 -0.00000000000E+00 -0.46985015486E+00  0.46985707456E+00  0.25500000000E-02 0. -1.
         31    1    1    2    0    0  0.41622175813E-01 -0.51603512041E+00  0.59338709326E+02  0.59806432557E+02  0.74470750000E+01 0.  1.
        -31    1    1    2    0    0 -0.41622175813E-01  0.51603512041E+00  0.58798792687E+02  0.59270776713E+02  0.74470750000E+01 0. -1.
<mgrwt>
<rscale>  0 0.14930251E+02</rscale>
<asrwt>0</asrwt>
<pdfrwt beam="2">  1        2 0.99786713E+00 0.14930251E+02</pdfrwt>
<pdfrwt beam="1">  1       -2 0.98461368E+00 0.14930251E+02</pdfrwt>
<totfact> 0.31118482E-13</totfact>
</mgrwt>
</event>
<event>
 4    1  0.5109406E-019  0.1494884E+02  0.7818608E-02  0.1869634E+00
          2   -1    0    0  501    0  0.00000000000E+00  0.00000000000E+00  0.12018218950E+03  0.12018218953E+03  0.25500000000E-02 0.  1.
         -2   -1    0    0    0  501 -0.00000000000E+00 -0.00000000000E+00 -0.46484849376E+00  0.46485548792E+00  0.25500000000E-02 0. -1.
         31    1    1    2    0    0  0.33507241424E+00  0.45839484302E+00  0.62220052258E+02  0.62666707496E+02  0.74470750000E+01 0.  1.
        -31    1    1    2    0    0 -0.33507241424E+00 -0.45839484302E+00  0.57497288752E+02  0.57980337523E+02  0.74470750000E+01 0. -1.
<mgrwt>
<rscale>  0 0.14948837E+02</rscale>
<asrwt>0</asrwt>
<pdfrwt beam="1">  1        2 0.99759418E+00 0.14948837E+02</pdfrwt>
<pdfrwt beam="2">  1       -2 0.98733675E+00 0.14948837E+02</pdfrwt>
<totfact> 0.13404104E-13</totfact>
</mgrwt>
</event>
<event>
 4    1  0.5109406E-019  0.1490819E+02  0.7818608E-02  0.1870883E+00
          2   -1    0    0  501    0  0.00000000000E+00  0.00000000000E+00  0.11993164328E+03  0.11993164330E+03  0.25500000000E-02 0.  1.
         -2   -1    0    0    0  501 -0.00000000000E+00 -0.00000000000E+00 -0.46328970764E+00  0.46329672534E+00  0.25500000000E-02 0. -1.
         31    1    1    2    0    0 -0.34107410832E-01 -0.13424232036E+00  0.62094311845E+02  0.62539440946E+02  0.74470750000E+01 0.  1.
        -31    1    1    2    0    0  0.34107410832E-01  0.13424232036E+00  0.57374041725E+02  0.57855499083E+02  0.74470750000E+01 0. -1.
<mgrwt>
<rscale>  0 0.14908188E+02</rscale>
<asrwt>0</asrwt>
<pdfrwt beam="1">  1        2 0.99550960E+00 0.14908188E+02</pdfrwt>
<pdfrwt beam="2">  1       -2 0.98403076E+00 0.14908188E+02</pdfrwt>
<totfact> 0.59156894E-13</totfact>
</mgrwt>
</event>
<event>
 4    1  0.5109406E-019  0.1492205E+02  0.7818608E-02  0.1870457E+00
         -2   -1    0    0    0  501 -0.00000000000E+00  0.00000000000E+00  0.11890724098E+03  0.11890724101E+03  0.25500000000E-02 0.  1.
          2   -1    0    0  501    0  0.00000000000E+00 -0.00000000000E+00 -0.46815020836E+00  0.46815715319E+00  0.25500000000E-02 0. -1.
         31    1    1    2    0    0 -0.42276070165E+00 -0.13084248161E+00  0.58339793526E+02  0.58814847454E+02  0.74470750000E+01 0.  1.
        -31    1    1    2    0    0  0.42276070165E+00  0.13084248161E+00  0.60099297250E+02  0.60560550711E+02  0.74470750000E+01 0. -1.
<mgrwt>
<rscale>  0 0.14922046E+02</rscale>
<asrwt>0</asrwt>
<pdfrwt beam="2">  1        2 0.99428089E+00 0.14922046E+02</pdfrwt>
<pdfrwt beam="1">  1       -2 0.98707931E+00 0.14922046E+02</pdfrwt>
<totfact> 0.25422675E-13</totfact>
</mgrwt>
</event>
<event>
 4    1  0.5109406E-019  0.1494139E+02  0.7818608E-02  0.1869862E+00
          2   -1    0    0  501    0  0.00000000000E+00  0.00000000000E+00  0.12002731158E+03  0.12002731161E+03  0.25500000000E-02 0. -1.
         -2   -1    0    0    0  501 -0.00000000000E+00 -0.00000000000E+00 -0.46498443719E+00  0.46499142931E+00  0.25500000000E-02 0.  1.
         31    1    1    2    0    0  0.68080195163E-01 -0.45641055562E+00  0.62791906622E+02  0.63233657247E+02  0.74470750000E+01 0.  1.
        -31    1    1    2    0    0 -0.68080195163E-01  0.45641055562E+00  0.56770420521E+02  0.57258645790E+02  0.74470750000E+01 0. -1.
<mgrwt>
<rscale>  0 0.14941386E+02</rscale>
<asrwt>0</asrwt>
<pdfrwt beam="1">  1        2 0.99631467E+00 0.14941386E+02</pdfrwt>
<pdfrwt beam="2">  1       -2 0.98761946E+00 0.14941386E+02</pdfrwt>
<totfact> 0.15619275E-13</totfact>
</mgrwt>
</event>
<event>
 4    1  0.5109406E-019  0.1493914E+02  0.7818608E-02  0.1869931E+00
         -2   -1    0    0    0  501 -0.00000000000E+00  0.00000000000E+00  0.11868867103E+03  0.11868867106E+03  0.25500000000E-02 0.  1.
          2   -1    0    0  501    0  0.00000000000E+00 -0.00000000000E+00 -0.47008782100E+00  0.47009473721E+00  0.25500000000E-02 0. -1.
         31    1    1    2    0    0  0.23520302299E+00 -0.40470908526E+00  0.56387095747E+02  0.56878665621E+02  0.74470750000E+01 0. -1.
        -31    1    1    2    0    0 -0.23520302299E+00  0.40470908526E+00  0.61831487461E+02  0.62280100173E+02  0.74470750000E+01 0.  1.
<mgrwt>
<rscale>  0 0.14939145E+02</rscale>
<asrwt>0</asrwt>
<pdfrwt beam="2">  1        2 0.99837259E+00 0.14939145E+02</pdfrwt>
<pdfrwt beam="1">  1       -2 0.98528805E+00 0.14939145E+02</pdfrwt>
<totfact> 0.20775863E-13</totfact>
</mgrwt>
</event>
<event>
 4    1 -0.5109406E-019  0.1494095E+02  0.7818608E-02  0.1869876E+00
          2   -1    0    0  501    0  0.00000000000E+00  0.00000000000E+00  0.11889436851E+03  0.11889436854E+03  0.25500000000E-02 0.  1.
         -2   -1    0    0    0  501 -0.00000000000E+00 -0.00000000000E+00 -0.46938806730E+00  0.46939499382E+00  0.25500000000E-02 0. -1.
         31    1    1    2    0    0 -0.97272684002E-01 -0.56188447225E-01  0.54578384730E+02  0.55084223012E+02  0.74470750000E+01 0. -1.
        -31    1    1    2    0    0  0.97272684002E-01  0.56188447225E-01  0.63846595716E+02  0.64279540522E+02  0.74470750000E+01 0.  1.
<mgrwt>
<rscale>  0 0.14940952E+02</rscale>
<asrwt>0</asrwt>
<pdfrwt beam="1">  1        2 0.98698311E+00 0.14940952E+02</pdfrwt>
<pdfrwt beam="2">  1       -2 0.99689912E+00 0.14940952E+02</pdfrwt>
<totfact>-0.20953656E-13</totfact>
</mgrwt>
</event>
<event>
 4    1 -0.5109406E-019  0.1499288E+02  0.7818608E-02  0.1868286E+00
         -2   -1    0    0    0  501 -0.00000000000E+00  0.00000000000E+00  0.11963253021E+03  0.11963253023E+03  0.25500000000E-02 0.  1.
          2   -1    0    0  501    0  0.00000000000E+00 -0.00000000000E+00 -0.46974029514E+00  0.46974721647E+00  0.25500000000E-02 0. -1.
         31    1    1    2    0    0 -0.38197531716E+00  0.75109108464E+00  0.60913864498E+02  0.61373185164E+02  0.74470750000E+01 0. -1.
        -31    1    1    2    0    0  0.38197531716E+00 -0.75109108464E+00  0.58248925412E+02  0.58729092285E+02  0.74470750000E+01 0.  1.
<mgrwt>
<rscale>  0 0.14992883E+02</rscale>
<asrwt>0</asrwt>
<pdfrwt beam="2">  1        2 0.99766846E+00 0.14992883E+02</pdfrwt>
<pdfrwt beam="1">  1       -2 0.99308966E+00 0.14992883E+02</pdfrwt>
<totfact>-0.64881763E-14</totfact>
</mgrwt>
</event>
<event>
 4    1 -0.5109406E-019  0.1489946E+02  0.7818608E-02  0.1871152E+00
          2   -1    0    0  501    0  0.00000000000E+00  0.00000000000E+00  0.11837773476E+03  0.11837773479E+03  0.25500000000E-02 0.  1.
         -2   -1    0    0    0  501 -0.00000000000E+00 -0.00000000000E+00 -0.46882169033E+00  0.46882862522E+00  0.25500000000E-02 0. -1.
         31    1    1    2    0    0  0.17897832392E+00 -0.81701073843E-01  0.59184131065E+02  0.59651144199E+02  0.74470750000E+01 0.  1.
        -31    1    1    2    0    0 -0.17897832392E+00  0.81701073843E-01  0.58724782009E+02  0.59195419217E+02  0.74470750000E+01 0. -1.
<mgrwt>
<rscale>  0 0.14899458E+02</rscale>
<asrwt>0</asrwt>
<pdfrwt beam="1">  1        2 0.98270654E+00 0.14899458E+02</pdfrwt>
<pdfrwt beam="2">  1       -2 0.99568391E+00 0.14899458E+02</pdfrwt>
<totfact>-0.49178637E-13</totfact>
</mgrwt>
</event>
<event>
 4    1 -0.5109406E-019  0.1494510E+02  0.7818608E-02  0.1869748E+00
          2   -1    0    0  501    0  0.00000000000E+00  0.00000000000E+00  0.11894286454E+03  0.11894286456E+03  0.25500000000E-02 0.  1.
         -2   -1    0    0    0  501 -0.00000000000E+00 -0.00000000000E+00 -0.46945734142E+00  0.46946426692E+00  0.25500000000E-02 0. -1.
         31    1    1    2    0    0 -0.57484906617E+00 -0.18446719945E+00  0.60234996266E+02  0.60696607655E+02  0.74470750000E+01 0.  1.
        -31    1    1    2    0    0  0.57484906617E+00  0.18446719945E+00  0.58238410929E+02  0.58715721175E+02  0.74470750000E+01 0. -1.
<mgrwt>
<rscale>  0 0.14945102E+02</rscale>
<asrwt>0</asrwt>
<pdfrwt beam="1">  1        2 0.98738468E+00 0.14945102E+02</pdfrwt>
<pdfrwt beam="2">  1       -2 0.99704726E+00 0.14945102E+02</pdfrwt>
<totfact>-0.19195899E-13</totfact>
</mgrwt>
</event>
<event>
 4    1  0.5109406E-019  0.1490841E+02  0.7818608E-02  0.1870876E+00
          2   -1    0    0  501    0  0.00000000000E+00  0.00000000000E+00  0.12006492958E+03  0.12006492961E+03  0.25500000000E-02 0.  1.
         -2   -1    0    0    0  501 -0.00000000000E+00 -0.00000000000E+00 -0.46278884422E+00  0.46279586951E+00  0.25500000000E-02 0. -1.
         31    1    1    2    0    0  0.14430649345E+00 -0.75022506937E-03  0.57438721371E+02  0.57919655245E+02  0.74470750000E+01 0. -1.
        -31    1    1    2    0    0 -0.14430649345E+00  0.75022506937E-03  0.62163419365E+02  0.62608070232E+02  0.74470750000E+01 0.  1.
<mgrwt>
<rscale>  0 0.14908405E+02</rscale>
<asrwt>0</asrwt>
<pdfrwt beam="1">  1        2 0.99660756E+00 0.14908405E+02</pdfrwt>
<pdfrwt beam="2">  1       -2 0.98297522E+00 0.14908405E+02</pdfrwt>
<totfact> 0.64071779E-13</totfact>
</mgrwt>
</event>
<event>
 4    1  0.5109406E-019  0.1490082E+02  0.7818608E-02  0.1871110E+00
         -2   -1    0    0    0  501 -0.00000000000E+00  0.00000000000E+00  0.11891846877E+03  0.11891846879E+03  0.25500000000E-02 0. -1.
          2   -1    0    0  501    0  0.00000000000E+00 -0.00000000000E+00 -0.46677526754E+00  0.46678223284E+00  0.25500000000E-02 0.  1.
         31    1    1    2    0    0 -0.22175771039E+00  0.20196772180E-01  0.59308737186E+02  0.59774867771E+02  0.74470750000E+01 0. -1.
        -31    1    1    2    0    0  0.22175771039E+00 -0.20196772180E-01  0.59142956312E+02  0.59610383255E+02  0.74470750000E+01 0. -1.
<mgrwt>
<rscale>  0 0.14900821E+02</rscale>
<asrwt>0</asrwt>
<pdfrwt beam="2">  1        2 0.99137255E+00 0.14900821E+02</pdfrwt>
<pdfrwt beam="1">  1       -2 0.98716079E+00 0.14900821E+02</pdfrwt>
<totfact> 0.30531162E-13</totfact>
</mgrwt>
</event>
<event>
 4    1 -0.5109406E-019  0.1500398E+02  0.7818608E-02  0.1867947E+00
          2   -1    0    0  501    0  0.00000000000E+00  0.00000000000E+00  0.12012787190E+03  0.12012787193E+03  0.25500000000E-02 0.  1.
         -2   -1    0    0    0  501 -0.00000000000E+00 -0.00000000000E+00 -0.46849575151E+00  0.46850269123E+00  0.25500000000E-02 0. -1.
         31    1    1    2    0    0 -0.68964444384E+00 -0.41018275135E+00  0.56447839354E+02  0.56942614562E+02  0.74470750000E+01 0. -1.
        -31    1    1    2    0    0  0.68964444384E+00  0.41018275135E+00  0.63211536796E+02  0.63653760058E+02  0.74470750000E+01 0. -1.
<mgrwt>
<rscale>  0 0.15003975E+02</rscale>
<asrwt>0</asrwt>
<pdfrwt beam="1">  1        2 0.99717520E+00 0.15003975E+02</pdfrwt>
<pdfrwt beam="2">  1       -2 0.99505157E+00 0.15003975E+02</pdfrwt>
<totfact>-0.84391680E-14</totfact>
</mgrwt>
</event>
<event>
 4    1 -0.5109406E-019  0.1493617E+02  0.7818608E-02  0.1870023E+00
         -2   -1    0    0    0  501 -0.00000000000E+00  0.00000000000E+00  0.11936659211E+03  0.11936659214E+03  0.25500000000E-02 0. -1.
          2   -1    0    0  501    0  0.00000000000E+00 -0.00000000000E+00 -0.46723160578E+00  0.46723856427E+00  0.25500000000E-02 0.  1.
         31    1    1    2    0    0 -0.40637230387E+00 -0.38468427774E+00  0.59567751630E+02  0.60034066002E+02  0.74470750000E+01 0. -1.
        -31    1    1    2    0    0  0.40637230387E+00  0.38468427774E+00  0.59331608879E+02  0.59799764704E+02  0.74470750000E+01 0. -1.
<mgrwt>
<rscale>  0 0.14936166E+02</rscale>
<asrwt>0</asrwt>
<pdfrwt beam="2">  1        2 0.99235253E+00 0.14936166E+02</pdfrwt>
<pdfrwt beam="1">  1       -2 0.99086996E+00 0.14936166E+02</pdfrwt>
<totfact>-0.44548746E-14</totfact>
</mgrwt>
</event>
<event>
 4    1 -0.5109406E-019  0.1499040E+02  0.7818608E-02  0.1868361E+00
         -2   -1    0    0    0  501 -0.00000000000E+00  0.00000000000E+00  0.12000095322E+03  0.12000095325E+03  0.25500000000E-02 0. -1.
          2   -1    0    0  501    0  0.00000000000E+00 -0.00000000000E+00 -0.46814317940E+00  0.46815012434E+00  0.25500000000E-02 0.  1.
         31    1    1    2    0    0 -0.45723214671E+00  0.27974689895E+00  0.54485543969E+02  0.54994733813E+02  0.74470750000E+01 0. -1.
        -31    1    1    2    0    0  0.45723214671E+00 -0.27974689895E+00  0.65047266070E+02  0.65474369556E+02  0.74470750000E+01 0. -1.
<mgrwt>
<rscale>  0 0.14990403E+02</rscale>
<asrwt>0</asrwt>
<pdfrwt beam="2">  1        2 0.99430156E+00 0.14990403E+02</pdfrwt>
<pdfrwt beam="1">  1       -2 0.99612283E+00 0.14990403E+02</pdfrwt>
<totfact>-0.11789897E-13</totfact>
</mgrwt>
</event>
<event>
 4    1  0.5109406E-019  0.1491230E+02  0.7818608E-02  0.1870757E+00
         -2   -1    0    0    0  501 -0.00000000000E+00  0.00000000000E+00  0.11904736138E+03  0.11904736141E+03  0.25500000000E-02 0. -1.
          2   -1    0    0  501    0  0.00000000000E+00 -0.00000000000E+00 -0.46698852074E+00  0.46699548285E+00  0.25500000000E-02 0.  1.
         31    1    1    2    0    0  0.10951063421E+00  0.22021278226E+00  0.61481477670E+02  0.61931345123E+02  0.74470750000E+01 0. -1.
        -31    1    1    2    0    0 -0.10951063421E+00 -0.22021278226E+00  0.57098895194E+02  0.57583011771E+02  0.74470750000E+01 0.  1.
<mgrwt>
<rscale>  0 0.14912299E+02</rscale>
<asrwt>0</asrwt>
<pdfrwt beam="2">  1        2 0.99182790E+00 0.14912299E+02</pdfrwt>
<pdfrwt beam="1">  1       -2 0.98822832E+00 0.14912299E+02</pdfrwt>
<totfact> 0.16956186E-13</totfact>
</mgrwt>
</event>
<event>
 4    1 -0.5109406E-019  0.1494825E+02  0.7818608E-02  0.1869652E+00
          2   -1    0    0  501    0  0.00000000000E+00  0.00000000000E+00  0.11882203804E+03  0.11882203807E+03  0.25500000000E-02 0. -1.
         -2   -1    0    0    0  501 -0.00000000000E+00 -0.00000000000E+00 -0.47013247076E+00  0.47013938632E+00  0.25500000000E-02 0.  1.
         31    1    1    2    0    0 -0.12375106413E+00  0.39589861745E+00  0.55335951899E+02  0.55836355080E+02  0.74470750000E+01 0. -1.
        -31    1    1    2    0    0  0.12375106413E+00 -0.39589861745E+00  0.63015953668E+02  0.63455822371E+02  0.74470750000E+01 0. -1.
<mgrwt>
<rscale>  0 0.14948246E+02</rscale>
<asrwt>0</asrwt>
<pdfrwt beam="1">  1        2 0.98639119E+00 0.14948246E+02</pdfrwt>
<pdfrwt beam="2">  1       -2 0.99847146E+00 0.14948246E+02</pdfrwt>
<totfact>-0.13258492E-13</totfact>
</mgrwt>
</event>
<event>
 4    1  0.5109406E-019  0.1492343E+02  0.7818608E-02  0.1870414E+00
         -2   -1    0    0    0  501 -0.00000000000E+00  0.00000000000E+00  0.11871095812E+03  0.11871095815E+03  0.25500000000E-02 0. -1.
          2   -1    0    0  501    0  0.00000000000E+00 -0.00000000000E+00 -0.46901127844E+00  0.46901821052E+00  0.25500000000E-02 0.  1.
         31    1    1    2    0    0  0.25518046099E+00  0.31946625219E+00  0.60926099045E+02  0.61380906206E+02  0.74470750000E+01 0. -1.
        -31    1    1    2    0    0 -0.25518046099E+00 -0.31946625219E+00  0.57315847801E+02  0.57799070157E+02  0.74470750000E+01 0. -1.
<mgrwt>
<rscale>  0 0.14923430E+02</rscale>
<asrwt>0</asrwt>
<pdfrwt beam="2">  1        2 0.99609599E+00 0.14923430E+02</pdfrwt>
<pdfrwt beam="1">  1       -2 0.98546343E+00 0.14923430E+02</pdfrwt>
<totfact> 0.36915854E-13</totfact>
</mgrwt>
</event>
<event>
 4    1 -0.5109406E-019  0.1497898E+02  0.7818608E-02  0.1868711E+00
          2   -1    0    0  501    0  0.00000000000E+00  0.00000000000E+00  0.11983698910E+03  0.11983698912E+03  0.25500000000E-02 0.  1.
         -2   -1    0    0    0  501 -0.00000000000E+00 -0.00000000000E+00 -0.46806926263E+00  0.46807620867E+00  0.25500000000E-02 0. -1.
         31    1    1    2    0    0  0.64678193578E+00  0.43225362651E+00  0.61036405428E+02  0.61493958107E+02  0.74470750000E+01 0.  1.
        -31    1    1    2    0    0 -0.64678193578E+00 -0.43225362651E+00  0.58332514407E+02  0.58811107226E+02  0.74470750000E+01 0. -1.
<mgrwt>
<rscale>  0 0.14978976E+02</rscale>
<asrwt>0</asrwt>
<pdfrwt beam="1">  1        2 0.99476645E+00 0.14978976E+02</pdfrwt>
<pdfrwt beam="2">  1       -2 0.99413990E+00 0.14978976E+02</pdfrwt>
<totfact>-0.12047342E-13</totfact>
</mgrwt>
</event>
<event>
 4    1  0.5109406E-019  0.1491509E+02  0.7818608E-02  0.1870671E+00
          2   -1    0    0  501    0  0.00000000000E+00  0.00000000000E+00  0.12014942997E+03  0.12014943000E+03  0.25500000000E-02 0.  1.
         -2   -1    0    0    0  501 -0.00000000000E+00 -0.00000000000E+00 -0.46287828118E+00  0.46288530511E+00  0.25500000000E-02 0. -1.
         31    1    1    2    0    0 -0.25704326413E+00 -0.28734200715E+00  0.60540044045E+02  0.60997577786E+02  0.74470750000E+01 0. -1.
        -31    1    1    2    0    0  0.25704326413E+00  0.28734200715E+00  0.59146507644E+02  0.59614737517E+02  0.74470750000E+01 0. -1.
<mgrwt>
<rscale>  0 0.14915091E+02</rscale>
<asrwt>0</asrwt>
<pdfrwt beam="1">  1        2 0.99730701E+00 0.14915091E+02</pdfrwt>
<pdfrwt beam="2">  1       -2 0.98316711E+00 0.14915091E+02</pdfrwt>
<totfact> 0.52584069E-13</totfact>
</mgrwt>
</event>
<event>
 4    1 -0.5109406E-019  0.1492481E+02  0.7818608E-02  0.1870372E+00
          2   -1    0    0  501    0  0.00000000000E+00  0.00000000000E+00  0.11942645729E+03  0.11942645732E+03  0.25500000000E-02 0.  1.
         -2   -1    0    0    0  501 -0.00000000000E+00 -0.00000000000E+00 -0.46628768686E+00  0.46629465944E+00  0.25500000000E-02 0. -1.
         31    1    1    2    0    0  0.14155036993E+00 -0.13749109972E-01  0.63146870448E+02  0.63584639647E+02  0.74470750000E+01 0.  1.
        -31    1    1    2    0    0 -0.14155036993E+00  0.13749109972E-01  0.55813299153E+02  0.56308112328E+02  0.74470750000E+01 0. -1.
<mgrwt>
<rscale>  0 0.14924812E+02</rscale>
<asrwt>0</asrwt>
<pdfrwt beam="1">  1        2 0.99135716E+00 0.14924812E+02</pdfrwt>
<pdfrwt beam="2">  1       -2 0.99035751E+00 0.14924812E+02</pdfrwt>
<totfact>-0.14828335E-14</totfact>
</mgrwt>
</event>
<event>
 4    1 -0.5109406E-019  0.1495569E+02  0.7818608E-02  0.1869424E+00
          2   -1    0    0  501    0  0.00000000000E+00  0.00000000000E+00  0.11960696265E+03  0.11960696268E+03  0.25500000000E-02 0. -1.
         -2   -1    0    0    0  501 -0.00000000000E+00 -0.00000000000E+00 -0.46751258056E+00  0.46751953487E+00  0.25500000000E-02 0.  1.
         31    1    1    2    0    0  0.29286684954E+00 -0.18956872809E+00  0.64234282176E+02  0.64665474869E+02  0.74470750000E+01 0. -1.
        -31    1    1    2    0    0 -0.29286684954E+00  0.18956872809E+00  0.54905167893E+02  0.55409007343E+02  0.74470750000E+01 0.  1.
<mgrwt>
<rscale>  0 0.14955692E+02</rscale>
<asrwt>0</asrwt>
<pdfrwt beam="1">  1        2 0.99285983E+00 0.14955692E+02</pdfrwt>
<pdfrwt beam="2">  1       -2 0.99295474E+00 0.14955692E+02</pdfrwt>
<totfact>-0.12241597E-13</totfact>
</mgrwt>
</event>
<event>
 4    1  0.5109406E-019  0.1492708E+02  0.7818608E-02  0.1870302E+00
         -2   -1    0    0    0  501 -0.00000000000E+00  0.00000000000E+00  0.11880981940E+03  0.11880981942E+03  0.25500000000E-02 0. -1.
          2   -1    0    0  501    0  0.00000000000E+00 -0.00000000000E+00 -0.46885004291E+00  0.46885697738E+00  0.25500000000E-02 0.  1.
         31    1    1    2    0    0  0.40534569531E+00  0.48880975536E-01  0.61413364045E+02  0.61864585215E+02  0.74470750000E+01 0. -1.
        -31    1    1    2    0    0 -0.40534569531E+00 -0.48880975536E-01  0.56927605310E+02  0.57414091187E+02  0.74470750000E+01 0.  1.
<mgrwt>
<rscale>  0 0.14927077E+02</rscale>
<asrwt>0</asrwt>
<pdfrwt beam="2">  1        2 0.99575817E+00 0.14927077E+02</pdfrwt>
<pdfrwt beam="1">  1       -2 0.98627955E+00 0.14927077E+02</pdfrwt>
<totfact> 0.29644627E-13</totfact>
</mgrwt>
</event>
<event>
 4    1 -0.5109406E-019  0.1493539E+02  0.7818608E-02  0.1870046E+00
          2   -1    0    0  501    0  0.00000000000E+00  0.00000000000E+00  0.11905226387E+03  0.11905226390E+03  0.25500000000E-02 0. -1.
         -2   -1    0    0    0  501 -0.00000000000E+00 -0.00000000000E+00 -0.46841673657E+00  0.46842367745E+00  0.25500000000E-02 0.  1.
         31    1    1    2    0    0  0.34055899454E-02 -0.25469450411E+00  0.63234186410E+02  0.63671705944E+02  0.74470750000E+01 0. -1.
        -31    1    1    2    0    0 -0.34055899454E-02  0.25469450411E+00  0.55349660726E+02  0.55848981633E+02  0.74470750000E+01 0.  1.
<mgrwt>
<rscale>  0 0.14935393E+02</rscale>
<asrwt>0</asrwt>
<pdfrwt beam="1">  1        2 0.98828067E+00 0.14935393E+02</pdfrwt>
<pdfrwt beam="2">  1       -2 0.99484949E+00 0.14935393E+02</pdfrwt>
<totfact>-0.21594320E-13</totfact>
</mgrwt>
</event>
<event>
 4    1 -0.5109406E-019  0.1500248E+02  0.7818608E-02  0.1867993E+00
          2   -1    0    0  501    0  0.00000000000E+00  0.00000000000E+00  0.11972708092E+03  0.11972708095E+03  0.25500000000E-02 0.  1.
         -2   -1    0    0    0  501 -0.00000000000E+00 -0.00000000000E+00 -0.46997024834E+00  0.46997716628E+00  0.25500000000E-02 0. -1.
         31    1    1    2    0    0  0.70998284588E-01  0.16214914047E+00  0.66696792534E+02  0.67111492261E+02  0.74470750000E+01 0.  1.
        -31    1    1    2    0    0 -0.70998284588E-01 -0.16214914047E+00  0.52560318137E+02  0.53085565852E+02  0.74470750000E+01 0. -1.
<mgrwt>
<rscale>  0 0.15002478E+02</rscale>
<asrwt>0</asrwt>
<pdfrwt beam="1">  1        2 0.99387337E+00 0.15002478E+02</pdfrwt>
<pdfrwt beam="2">  1       -2 0.99815802E+00 0.15002478E+02</pdfrwt>
<totfact>-0.73360807E-14</totfact>
</mgrwt>
</event>
<event>
 4    1 -0.5109406E-019  0.1491921E+02  0.7818608E-02  0.1870544E+00
         -2   -1    0    0    0  501 -0.00000000000E+00  0.00000000000E+00  0.12011986175E+03  0.12011986178E+03  0.25500000000E-02 0.  1.
          2   -1    0    0  501    0  0.00000000000E+00 -0.00000000000E+00 -0.46324808358E+00  0.46325510190E+00  0.25500000000E-02 0. -1.
         31    1    1    2    0    0 -0.27918686642E+00  0.18032831319E+00  0.62061317199E+02  0.62507411418E+02  0.74470750000E+01 0.  1.
        -31    1    1    2    0    0  0.27918686642E+00 -0.18032831319E+00  0.57595296472E+02  0.58075705466E+02  0.74470750000E+01 0. -1.
<mgrwt>
<rscale>  0 0.14919212E+02</rscale>
<asrwt>0</asrwt>
<pdfrwt beam="2">  1        2 0.98394862E+00 0.14919212E+02</pdfrwt>
<pdfrwt beam="1">  1       -2 0.99706558E+00 0.14919212E+02</pdfrwt>
<totfact>-0.32588938E-13</totfact>
</mgrwt>
</event>
<event>
 4    1 -0.5109406E-019  0.1501721E+02  0.7818608E-02  0.1867544E+00
         -2   -1    0    0    0  501 -0.00000000000E+00  0.00000000000E+00  0.12008419143E+03  0.12008419145E+03  0.25500000000E-02 0. -1.
          2   -1    0    0  501    0  0.00000000000E+00 -0.00000000000E+00 -0.46949333789E+00  0.46950026286E+00  0.25500000000E-02 0.  1.
         31    1    1    2    0    0 -0.92848147535E+00 -0.15753939947E+00  0.61272802539E+02  0.61730884924E+02  0.74470750000E+01 0.  1.
        -31    1    1    2    0    0  0.92848147535E+00  0.15753939947E+00  0.58341895549E+02  0.58822806791E+02  0.74470750000E+01 0.  1.
<mgrwt>
<rscale>  0 0.15017210E+02</rscale>
<asrwt>0</asrwt>
<pdfrwt beam="2">  1        2 0.99716068E+00 0.15017210E+02</pdfrwt>
<pdfrwt beam="1">  1       -2 0.99682227E+00 0.15017210E+02</pdfrwt>
<totfact>-0.70462139E-14</totfact>
</mgrwt>
</event>
<event>
 4    1 -0.5109406E-019  0.1497697E+02  0.7818608E-02  0.1868772E+00
          2   -1    0    0  501    0  0.00000000000E+00  0.00000000000E+00  0.11997349222E+03  0.11997349225E+03  0.25500000000E-02 0. -1.
         -2   -1    0    0    0  501 -0.00000000000E+00 -0.00000000000E+00 -0.46741119988E+00  0.46741815569E+00  0.25500000000E-02 0.  1.
         31    1    1    2    0    0  0.60300495622E+00  0.39736035973E+00  0.62256828949E+02  0.62704809920E+02  0.74470750000E+01 0. -1.
        -31    1    1    2    0    0 -0.60300495622E+00 -0.39736035973E+00  0.57249252075E+02  0.57736100487E+02  0.74470750000E+01 0.  1.
<mgrwt>
<rscale>  0 0.14976966E+02</rscale>
<asrwt>0</asrwt>
<pdfrwt beam="1">  1        2 0.99588972E+00 0.14976966E+02</pdfrwt>
<pdfrwt beam="2">  1       -2 0.99275207E+00 0.14976966E+02</pdfrwt>
<totfact>-0.88498933E-14</totfact>
</mgrwt>
</event>
<event>
 4    1 -0.5109406E-019  0.1495869E+02  0.7818608E-02  0.1869332E+00
          2   -1    0    0  501    0  0.00000000000E+00  0.00000000000E+00  0.11962202389E+03  0.11962202392E+03  0.25500000000E-02 0.  1.
         -2   -1    0    0    0  501 -0.00000000000E+00 -0.00000000000E+00 -0.46764087266E+00  0.46764782506E+00  0.25500000000E-02 0. -1.
         31    1    1    2    0    0 -0.36381657180E+00 -0.53468271885E+00  0.57555888639E+02  0.58039275419E+02  0.74470750000E+01 0.  1.
        -31    1    1    2    0    0  0.36381657180E+00  0.53468271885E+00  0.61598494377E+02  0.62050396322E+02  0.74470750000E+01 0. -1.
<mgrwt>
<rscale>  0 0.14958685E+02</rscale>
<asrwt>0</asrwt>
<pdfrwt beam="1">  1        2 0.99298543E+00 0.14958685E+02</pdfrwt>
<pdfrwt beam="2">  1       -2 0.99322664E+00 0.14958685E+02</pdfrwt>
<totfact>-0.12703574E-13</totfact>
</mgrwt>
</event>
<event>
 4    1 -0.5109406E-019  0.1492869E+02  0.7818608E-02  0.1870252E+00
         -2   -1    0    0    0  501 -0.00000000000E+00  0.00000000000E+00  0.11993970916E+03  0.11993970919E+03  0.25500000000E-02 0.  1.
          2   -1    0    0  501    0  0.00000000000E+00 -0.00000000000E+00 -0.46453360299E+00  0.46454060189E+00  0.25500000000E-02 0. -1.
         31    1    1    2    0    0 -0.29849400538E-02  0.12406635534E+00  0.63706177042E+02  0.64140091369E+02  0.74470750000E+01 0.  1.
        -31    1    1    2    0    0  0.29849400538E-02 -0.12406635534E+00  0.55768998517E+02  0.56264158423E+02  0.74470750000E+01 0. -1.
<mgrwt>
<rscale>  0 0.14928690E+02</rscale>
<asrwt>0</asrwt>
<pdfrwt beam="2">  1        2 0.98666282E+00 0.14928690E+02</pdfrwt>
<pdfrwt beam="1">  1       -2 0.99558658E+00 0.14928690E+02</pdfrwt>
<totfact>-0.26113877E-13</totfact>
</mgrwt>
</event>
<event>
 4    1 -0.5109406E-019  0.1497950E+02  0.7818608E-02  0.1868695E+00
         -2   -1    0    0    0  501 -0.00000000000E+00  0.00000000000E+00  0.11996757193E+03  0.11996757196E+03  0.25500000000E-02 0.  1.
          2   -1    0    0  501    0  0.00000000000E+00 -0.00000000000E+00 -0.46759268922E+00  0.46759964233E+00  0.25500000000E-02 0. -1.
         31    1    1    2    0    0 -0.20704708820E+00 -0.73473050521E+00  0.61631356653E+02  0.62084343810E+02  0.74470750000E+01 0.  1.
        -31    1    1    2    0    0  0.20704708820E+00  0.73473050521E+00  0.57868622587E+02  0.58350827789E+02  0.74470750000E+01 0.  1.
<mgrwt>
<rscale>  0 0.14979503E+02</rscale>
<asrwt>0</asrwt>
<pdfrwt beam="2">  1        2 0.99313585E+00 0.14979503E+02</pdfrwt>
<pdfrwt beam="1">  1       -2 0.99584226E+00 0.14979503E+02</pdfrwt>
<totfact>-0.13298090E-13</totfact>
</mgrwt>
</event>
<event>
 4    1 -0.5109406E-019  0.1497320E+02  0.7818608E-02  0.1868887E+00
         -2   -1    0    0    0  501 -0.00000000000E+00  0.00000000000E+00  0.11967513881E+03  0.11967513883E+03  0.25500000000E-02 0.  1.
          2   -1    0    0  501    0  0.00000000000E+00 -0.00000000000E+00 -0.46834119838E+00  0.46834814038E+00  0.25500000000E-02 0. -1.
         31    1    1    2    0    0 -0.16625201158E+00 -0.58910176764E+00  0.63329201112E+02  0.63768497866E+02  0.74470750000E+01 0.  1.
        -31    1    1    2    0    0  0.16625201158E+00  0.58910176764E+00  0.55877596495E+02  0.56374989107E+02  0.74470750000E+01 0. -1.
<mgrwt>
<rscale>  0 0.14973205E+02</rscale>
<asrwt>0</asrwt>
<pdfrwt beam="2">  1        2 0.99470997E+00 0.14973205E+02</pdfrwt>
<pdfrwt beam="1">  1       -2 0.99343041E+00 0.14973205E+02</pdfrwt>
<totfact>-0.11376342E-13</totfact>
</mgrwt>
</event>
<event>
 4    1 -0.5109406E-019  0.1490564E+02  0.7818608E-02  0.1870962E+00
         -2   -1    0    0    0  501 -0.00000000000E+00  0.00000000000E+00  0.12025194639E+03  0.12025194642E+03  0.25500000000E-02 0. -1.
          2   -1    0    0  501    0  0.00000000000E+00 -0.00000000000E+00 -0.46189781761E+00  0.46190485646E+00  0.25500000000E-02 0.  1.
         31    1    1    2    0    0  0.21815885182E+00 -0.15783101327E+00  0.60822230746E+02  0.61277036342E+02  0.74470750000E+01 0. -1.
        -31    1    1    2    0    0 -0.21815885182E+00  0.15783101327E+00  0.58967817830E+02  0.59436814935E+02  0.74470750000E+01 0.  1.
<mgrwt>
<rscale>  0 0.14905642E+02</rscale>
<asrwt>0</asrwt>
<pdfrwt beam="2">  1        2 0.98109579E+00 0.14905642E+02</pdfrwt>
<pdfrwt beam="1">  1       -2 0.99814658E+00 0.14905642E+02</pdfrwt>
<totfact>-0.37286033E-13</totfact>
</mgrwt>
</event>
<event>
 4    1 -0.5109406E-019  0.1498249E+02  0.7818608E-02  0.1868603E+00
          2   -1    0    0  501    0  0.00000000000E+00  0.00000000000E+00  0.11943162834E+03  0.11943162837E+03  0.25500000000E-02 0. -1.
         -2   -1    0    0    0  501 -0.00000000000E+00 -0.00000000000E+00 -0.46987836070E+00  0.46988528000E+00  0.25500000000E-02 0.  1.
         31    1    1    2    0    0  0.37965867868E+00 -0.26295396785E+00  0.54133112348E+02  0.54644908857E+02  0.74470750000E+01 0.  1.
        -31    1    1    2    0    0 -0.37965867868E+00  0.26295396785E+00  0.64828637630E+02  0.65256604788E+02  0.74470750000E+01 0. -1.
<mgrwt>
<rscale>  0 0.14982490E+02</rscale>
<asrwt>0</asrwt>
<pdfrwt beam="1">  1        2 0.99142961E+00 0.14982490E+02</pdfrwt>
<pdfrwt beam="2">  1       -2 0.99795398E+00 0.14982490E+02</pdfrwt>
<totfact>-0.95648108E-14</totfact>
</mgrwt>
</event>
<event>
 4    1  0.5109406E-019  0.1492930E+02  0.7818608E-02  0.1870234E+00
          2   -1    0    0  501    0  0.00000000000E+00  0.00000000000E+00  0.12019832366E+03  0.12019832369E+03  0.25500000000E-02 0.  1.
         -2   -1    0    0    0  501 -0.00000000000E+00 -0.00000000000E+00 -0.46357193852E+00  0.46357895194E+00  0.25500000000E-02 0. -1.
         31    1    1    2    0    0  0.95430022376E-01  0.48146378438E+00  0.61042897194E+02  0.61497440094E+02  0.74470750000E+01 0.  1.
        -31    1    1    2    0    0 -0.95430022376E-01 -0.48146378438E+00  0.58691854526E+02  0.59164462543E+02  0.74470750000E+01 0.  1.
<mgrwt>
<rscale>  0 0.14929299E+02</rscale>
<asrwt>0</asrwt>
<pdfrwt beam="1">  1        2 0.99771703E+00 0.14929299E+02</pdfrwt>
<pdfrwt beam="2">  1       -2 0.98463631E+00 0.14929299E+02</pdfrwt>
<totfact> 0.32563467E-13</totfact>
</mgrwt>
</event>
<event>
 4    1  0.5109406E-019  0.1495415E+02  0.7818608E-02  0.1869471E+00
         -2   -1    0    0    0  501 -0.00000000000E+00  0.00000000000E+00  0.11885597188E+03  0.11885597191E+03  0.25500000000E-02 0.  1.
          2   -1    0    0  501    0  0.00000000000E+00 -0.00000000000E+00 -0.47036974711E+00  0.47037665917E+00  0.25500000000E-02 0. -1.
         31    1    1    2    0    0 -0.26699258947E+00  0.32355496191E+00  0.55032984749E+02  0.55536153174E+02  0.74470750000E+01 0. -1.
        -31    1    1    2    0    0  0.26699258947E+00 -0.32355496191E+00  0.63352617388E+02  0.63790195397E+02  0.74470750000E+01 0.  1.
<mgrwt>
<rscale>  0 0.14954152E+02</rscale>
<asrwt>0</asrwt>
<pdfrwt beam="2">  1        2 0.99897452E+00 0.14954152E+02</pdfrwt>
<pdfrwt beam="1">  1       -2 0.98667374E+00 0.14954152E+02</pdfrwt>
<totfact> 0.87876494E-14</totfact>
</mgrwt>
</event>
<event>
 4    1 -0.5109406E-019  0.1496032E+02  0.7818608E-02  0.1869282E+00
         -2   -1    0    0    0  501 -0.00000000000E+00  0.00000000000E+00  0.11958559566E+03  0.11958559568E+03  0.25500000000E-02 0. -1.
          2   -1    0    0  501    0  0.00000000000E+00 -0.00000000000E+00 -0.46788526503E+00  0.46789221379E+00  0.25500000000E-02 0.  1.
         31    1    1    2    0    0  0.50852918110E+00  0.23513373195E+00  0.62962930136E+02  0.63404285243E+02  0.74470750000E+01 0. -1.
        -31    1    1    2    0    0 -0.50852918110E+00 -0.23513373195E+00  0.56154780255E+02  0.56649202654E+02  0.74470750000E+01 0.  1.
<mgrwt>
<rscale>  0 0.14960315E+02</rscale>
<asrwt>0</asrwt>
<pdfrwt beam="2">  1        2 0.99374250E+00 0.14960315E+02</pdfrwt>
<pdfrwt beam="1">  1       -2 0.99268624E+00 0.14960315E+02</pdfrwt>
<totfact>-0.10841012E-13</totfact>
</mgrwt>
</event>
<event>
 4    1 -0.5109406E-019  0.1495730E+02  0.7818608E-02  0.1869374E+00
          2   -1    0    0  501    0  0.00000000000E+00  0.00000000000E+00  0.11937451539E+03  0.11937451541E+03  0.25500000000E-02 0. -1.
         -2   -1    0    0    0  501 -0.00000000000E+00 -0.00000000000E+00 -0.46852339324E+00  0.46853033254E+00  0.25500000000E-02 0.  1.
         31    1    1    2    0    0  0.60652864041E+00 -0.26139093520E+00  0.60952872183E+02  0.61409671515E+02  0.74470750000E+01 0. -1.
        -31    1    1    2    0    0 -0.60652864041E+00  0.26139093520E+00  0.57953119812E+02  0.58433374232E+02  0.74470750000E+01 0. -1.
<mgrwt>
<rscale>  0 0.14957295E+02</rscale>
<asrwt>0</asrwt>
<pdfrwt beam="1">  1        2 0.99094615E+00 0.14957295E+02</pdfrwt>
<pdfrwt beam="2">  1       -2 0.99508565E+00 0.14957295E+02</pdfrwt>
<totfact>-0.16383298E-13</totfact>
</mgrwt>
</event>
<event>
 4    1  0.5109406E-019  0.1490011E+02  0.7818608E-02  0.1871132E+00
          2   -1    0    0  501    0  0.00000000000E+00  0.00000000000E+00  0.11965503974E+03  0.11965503977E+03  0.25500000000E-02 0. -1.
         -2   -1    0    0    0  501 -0.00000000000E+00 -0.00000000000E+00 -0.46385733253E+00  0.46386434164E+00  0.25500000000E-02 0.  1.
         31    1    1    2    0    0  0.50571854371E-01 -0.20241851085E+00  0.59362872684E+02  0.59828530904E+02  0.74470750000E+01 0. -1.
        -31    1    1    2    0    0 -0.50571854371E-01  0.20241851085E+00  0.59828309725E+02  0.60290373207E+02  0.74470750000E+01 0. -1.
<mgrwt>
<rscale>  0 0.14900106E+02</rscale>
<asrwt>0</asrwt>
<pdfrwt beam="1">  1        2 0.99322714E+00 0.14900106E+02</pdfrwt>
<pdfrwt beam="2">  1       -2 0.98522296E+00 0.14900106E+02</pdfrwt>
<totfact> 0.52815192E-13</totfact>
</mgrwt>
</event>
<event>
 4    1 -0.5109406E-019  0.1499674E+02  0.7818608E-02  0.1868168E+00
          2   -1    0    0  501    0  0.00000000000E+00  0.00000000000E+00  0.12012274887E+03  0.12012274890E+03  0.25500000000E-02 0. -1.
         -2   -1    0    0    0  501 -0.00000000000E+00 -0.00000000000E+00 -0.46806410099E+00  0.46807104710E+00  0.25500000000E-02 0.  1.
         31    1    1    2    0    0  0.33188161290E-01  0.87078407097E+00  0.60513176318E+02  0.60975919841E+02  0.74470750000E+01 0. -1.
        -31    1    1    2    0    0 -0.33188161290E-01 -0.87078407097E+00  0.59141508453E+02  0.59614900105E+02  0.74470750000E+01 0.  1.
<mgrwt>
<rscale>  0 0.14996742E+02</rscale>
<asrwt>0</asrwt>
<pdfrwt beam="1">  1        2 0.99712927E+00 0.14996742E+02</pdfrwt>
<pdfrwt beam="2">  1       -2 0.99413818E+00 0.14996742E+02</pdfrwt>
<totfact>-0.84303544E-14</totfact>
</mgrwt>
</event>
<event>
 4    1 -0.5109406E-019  0.1495028E+02  0.7818608E-02  0.1869589E+00
         -2   -1    0    0    0  501 -0.00000000000E+00  0.00000000000E+00  0.12004973829E+03  0.12004973832E+03  0.25500000000E-02 0. -1.
          2   -1    0    0  501    0  0.00000000000E+00 -0.00000000000E+00 -0.46545126171E+00  0.46545824681E+00  0.25500000000E-02 0.  1.
         31    1    1    2    0    0 -0.23260327316E+00 -0.37310380098E+00  0.63619986272E+02  0.64055873189E+02  0.74470750000E+01 0.  1.
        -31    1    1    2    0    0  0.23260327316E+00  0.37310380098E+00  0.55964300757E+02  0.56459323375E+02  0.74470750000E+01 0. -1.
<mgrwt>
<rscale>  0 0.14950281E+02</rscale>
<asrwt>0</asrwt>
<pdfrwt beam="2">  1        2 0.98860786E+00 0.14950281E+02</pdfrwt>
<pdfrwt beam="1">  1       -2 0.99650397E+00 0.14950281E+02</pdfrwt>
<totfact>-0.18191861E-13</totfact>
</mgrwt>
</event>
<event>
 4    1 -0.5109406E-019  0.1499684E+02  0.7818608E-02  0.1868165E+00
          2   -1    0    0  501    0  0.00000000000E+00  0.00000000000E+00  0.11990732520E+03  0.11990732522E+03  0.25500000000E-02 0. -1.
         -2   -1    0    0    0  501 -0.00000000000E+00 -0.00000000000E+00 -0.46891107797E+00  0.46891801153E+00  0.25500000000E-02 0.  1.
         31    1    1    2    0    0 -0.39658671378E+00  0.68277493255E+00  0.56674282317E+02  0.57166919322E+02  0.74470750000E+01 0.  1.
        -31    1    1    2    0    0  0.39658671378E+00 -0.68277493255E+00  0.62764131802E+02  0.63209323913E+02  0.74470750000E+01 0. -1.
<mgrwt>
<rscale>  0 0.14996839E+02</rscale>
<asrwt>0</asrwt>
<pdfrwt beam="1">  1        2 0.99535500E+00 0.14996839E+02</pdfrwt>
<pdfrwt beam="2">  1       -2 0.99592312E+00 0.14996839E+02</pdfrwt>
<totfact>-0.10856044E-13</totfact>
</mgrwt>
</event>
<event>
 4    1 -0.5109406E-019  0.1500356E+02  0.7818608E-02  0.1867960E+00
          2   -1    0    0  501    0  0.00000000000E+00  0.00000000000E+00  0.11974071892E+03  0.11974071895E+03  0.25500000000E-02 0.  1.
         -2   -1    0    0    0  501 -0.00000000000E+00 -0.00000000000E+00 -0.46998476146E+00  0.46999167919E+00  0.25500000000E-02 0. -1.
         31    1    1    2    0    0 -0.10858151184E+00  0.87071604800E+00  0.61388328369E+02  0.61844609486E+02  0.74470750000E+01 0. -1.
        -31    1    1    2    0    0  0.10858151184E+00 -0.87071604800E+00  0.57882405792E+02  0.58366101144E+02  0.74470750000E+01 0. -1.
<mgrwt>
<rscale>  0 0.15003564E+02</rscale>
<asrwt>0</asrwt>
<pdfrwt beam="1">  1        2 0.99398626E+00 0.15003564E+02</pdfrwt>
<pdfrwt beam="2">  1       -2 0.99818917E+00 0.15003564E+02</pdfrwt>
<totfact>-0.71685187E-14</totfact>
</mgrwt>
</event>
<event>
 4    1 -0.5109406E-019  0.1501856E+02  0.7818608E-02  0.1867503E+00
         -2   -1    0    0    0  501 -0.00000000000E+00  0.00000000000E+00  0.12020125785E+03  0.12020125788E+03  0.25500000000E-02 0.  1.
          2   -1    0    0  501    0  0.00000000000E+00 -0.00000000000E+00 -0.46912042079E+00  0.46912735126E+00  0.25500000000E-02 0. -1.
         31    1    1    2    0    0 -0.58180943871E-02  0.53388418819E+00  0.66320390655E+02  0.66739330300E+02  0.74470750000E+01 0.  1.
        -31    1    1    2    0    0  0.58180943871E-02 -0.53388418819E+00  0.53411746776E+02  0.53931054930E+02  0.74470750000E+01 0. -1.
<mgrwt>
<rscale>  0 0.15018560E+02</rscale>
<asrwt>0</asrwt>
<pdfrwt beam="2">  1        2 0.99637550E+00 0.15018560E+02</pdfrwt>
<pdfrwt beam="1">  1       -2 0.99778717E+00 0.15018560E+02</pdfrwt>
<totfact>-0.64071058E-14</totfact>
</mgrwt>
</event>
<event>
 4    1 -0.5109406E-019  0.1493962E+02  0.7818608E-02  0.1869917E+00
          2   -1    0    0  501    0  0.00000000000E+00  0.00000000000E+00  0.11927828334E+03  0.11927828336E+03  0.25500000000E-02 0. -1.
         -2   -1    0    0    0  501 -0.00000000000E+00 -0.00000000000E+00 -0.46779404443E+00  0.46780099456E+00  0.25500000000E-02 0.  1.
         31    1    1    2    0    0  0.22377094235E+00  0.51834408576E+00  0.60550294917E+02  0.61009145992E+02  0.74470750000E+01 0.  1.
        -31    1    1    2    0    0 -0.22377094235E+00 -0.51834408576E+00  0.58260194375E+02  0.58736938367E+02  0.74470750000E+01 0.  1.
<mgrwt>
<rscale>  0 0.14939624E+02</rscale>
<asrwt>0</asrwt>
<pdfrwt beam="1">  1        2 0.99014441E+00 0.14939624E+02</pdfrwt>
<pdfrwt beam="2">  1       -2 0.99353954E+00 0.14939624E+02</pdfrwt>
<totfact>-0.16542776E-13</totfact>
</mgrwt>
</event>
<event>
 4    1 -0.5109406E-019  0.1491222E+02  0.7818608E-02  0.1870759E+00
          2   -1    0    0  501    0  0.00000000000E+00  0.00000000000E+00  0.11846985786E+03  0.11846985789E+03  0.25500000000E-02 0.  1.
         -2   -1    0    0    0  501 -0.00000000000E+00 -0.00000000000E+00 -0.46925993115E+00  0.46926685956E+00  0.25500000000E-02 0. -1.
         31    1    1    2    0    0  0.25247679170E+00  0.85742254405E-01  0.56989652409E+02  0.57474781461E+02  0.74470750000E+01 0. -1.
        -31    1    1    2    0    0 -0.25247679170E+00 -0.85742254405E-01  0.61010945517E+02  0.61464343283E+02  0.74470750000E+01 0. -1.
<mgrwt>
<rscale>  0 0.14912219E+02</rscale>
<asrwt>0</asrwt>
<pdfrwt beam="1">  1        2 0.98347190E+00 0.14912219E+02</pdfrwt>
<pdfrwt beam="2">  1       -2 0.99661402E+00 0.14912219E+02</pdfrwt>
<totfact>-0.38572953E-13</totfact>
</mgrwt>
</event>
<event>
 4    1  0.5109406E-019  0.1490940E+02  0.7818608E-02  0.1870846E+00
          2   -1    0    0  501    0  0.00000000000E+00  0.00000000000E+00  0.12039650908E+03  0.12039650910E+03  0.25500000000E-02 0. -1.
         -2   -1    0    0    0  501 -0.00000000000E+00 -0.00000000000E+00 -0.46157576929E+00  0.46158281304E+00  0.25500000000E-02 0.  1.
         31    1    1    2    0    0  0.23687201560E+00 -0.17316433776E+00  0.61312169317E+02  0.61763477287E+02  0.74470750000E+01 0.  1.
        -31    1    1    2    0    0 -0.23687201560E+00  0.17316433776E+00  0.58622763991E+02  0.59094614629E+02  0.74470750000E+01 0.  1.
<mgrwt>
<rscale>  0 0.14909398E+02</rscale>
<asrwt>0</asrwt>
<pdfrwt beam="1">  1        2 0.99933926E+00 0.14909398E+02</pdfrwt>
<pdfrwt beam="2">  1       -2 0.98041887E+00 0.14909398E+02</pdfrwt>
<totfact> 0.27711797E-13</totfact>
</mgrwt>
</event>
<event>
 4    1 -0.5109406E-019  0.1491813E+02  0.7818608E-02  0.1870577E+00
          2   -1    0    0  501    0  0.00000000000E+00  0.00000000000E+00  0.11860968113E+03  0.11860968116E+03  0.25500000000E-02 0. -1.
         -2   -1    0    0    0  501 -0.00000000000E+00 -0.00000000000E+00 -0.46907815545E+00  0.46908508654E+00  0.25500000000E-02 0.  1.
         31    1    1    2    0    0 -0.63699770416E-01  0.50329631304E-01  0.62381769164E+02  0.62824761367E+02  0.74470750000E+01 0. -1.
        -31    1    1    2    0    0  0.63699770416E-01 -0.50329631304E-01  0.55758833814E+02  0.56254004880E+02  0.74470750000E+01 0.  1.
<mgrwt>
<rscale>  0 0.14918127E+02</rscale>
<asrwt>0</asrwt>
<pdfrwt beam="1">  1        2 0.98462655E+00 0.14918127E+02</pdfrwt>
<pdfrwt beam="2">  1       -2 0.99623412E+00 0.14918127E+02</pdfrwt>
<totfact>-0.33676889E-13</totfact>
</mgrwt>
</event>
<event>
 4    1 -0.5109406E-019  0.1498580E+02  0.7818608E-02  0.1868502E+00
          2   -1    0    0  501    0  0.00000000000E+00  0.00000000000E+00  0.11998093939E+03  0.11998093942E+03  0.25500000000E-02 0.  1.
         -2   -1    0    0    0  501 -0.00000000000E+00 -0.00000000000E+00 -0.46793385225E+00  0.46794080029E+00  0.25500000000E-02 0. -1.
         31    1    1    2    0    0  0.64045110404E+00 -0.26923466636E+00  0.56144328870E+02  0.56640332408E+02  0.74470750000E+01 0. -1.
        -31    1    1    2    0    0 -0.64045110404E+00  0.26923466636E+00  0.63368676670E+02  0.63808547812E+02  0.74470750000E+01 0.  1.
<mgrwt>
<rscale>  0 0.14985802E+02</rscale>
<asrwt>0</asrwt>
<pdfrwt beam="1">  1        2 0.99595562E+00 0.14985802E+02</pdfrwt>
<pdfrwt beam="2">  1       -2 0.99385806E+00 0.14985802E+02</pdfrwt>
<totfact>-0.10285610E-13</totfact>
</mgrwt>
</event>
<event>
 4    1  0.5109406E-019  0.1489938E+02  0.7818608E-02  0.1871155E+00
         -2   -1    0    0    0  501 -0.00000000000E+00  0.00000000000E+00  0.11862561077E+03  0.11862561080E+03  0.25500000000E-02 0. -1.
          2   -1    0    0  501    0  0.00000000000E+00 -0.00000000000E+00 -0.46783711513E+00  0.46784406462E+00  0.25500000000E-02 0.  1.
         31    1    1    2    0    0  0.18511194174E+00 -0.63629459382E-01  0.59280749264E+02  0.59747003895E+02  0.74470750000E+01 0. -1.
        -31    1    1    2    0    0 -0.18511194174E+00  0.63629459382E-01  0.58877024394E+02  0.59346450970E+02  0.74470750000E+01 0.  1.
<mgrwt>
<rscale>  0 0.14899380E+02</rscale>
<asrwt>0</asrwt>
<pdfrwt beam="2">  1        2 0.99360930E+00 0.14899380E+02</pdfrwt>
<pdfrwt beam="1">  1       -2 0.98474801E+00 0.14899380E+02</pdfrwt>
<totfact> 0.58698679E-13</totfact>
</mgrwt>
</event>
<event>
 4    1  0.5109406E-019  0.1494213E+02  0.7818608E-02  0.1869839E+00
          2   -1    0    0  501    0  0.00000000000E+00  0.00000000000E+00  0.12021737773E+03  0.12021737776E+03  0.25500000000E-02 0.  1.
         -2   -1    0    0    0  501 -0.00000000000E+00 -0.00000000000E+00 -0.46429567344E+00  0.46430267593E+00  0.25500000000E-02 0. -1.
         31    1    1    2    0    0 -0.36137934896E+00 -0.47594737865E+00  0.59650176409E+02  0.60116217385E+02  0.74470750000E+01 0.  1.
        -31    1    1    2    0    0  0.36137934896E+00  0.47594737865E+00  0.60102905649E+02  0.60565463050E+02  0.74470750000E+01 0.  1.
<mgrwt>
<rscale>  0 0.14942133E+02</rscale>
<asrwt>0</asrwt>
<pdfrwt beam="1">  1        2 0.99788057E+00 0.14942133E+02</pdfrwt>
<pdfrwt beam="2">  1       -2 0.98616820E+00 0.14942133E+02</pdfrwt>
<totfact> 0.19347055E-13</totfact>
</mgrwt>
</event>
<event>
 4    1 -0.5109406E-019  0.1489775E+02  0.7818608E-02  0.1871205E+00
         -2   -1    0    0    0  501 -0.00000000000E+00  0.00000000000E+00  0.11962114923E+03  0.11962114926E+03  0.25500000000E-02 0.  1.
          2   -1    0    0  501    0  0.00000000000E+00 -0.00000000000E+00 -0.46384192626E+00  0.46384893560E+00  0.25500000000E-02 0. -1.
         31    1    1    2    0    0 -0.15091807061E+00  0.61324722279E-01  0.59447751474E+02  0.59912608175E+02  0.74470750000E+01 0. -1.
        -31    1    1    2    0    0  0.15091807061E+00 -0.61324722279E-01  0.59709555829E+02  0.60172390017E+02  0.74470750000E+01 0. -1.
<mgrwt>
<rscale>  0 0.14897748E+02</rscale>
<asrwt>0</asrwt>
<pdfrwt beam="2">  1        2 0.98518929E+00 0.14897748E+02</pdfrwt>
<pdfrwt beam="1">  1       -2 0.99294678E+00 0.14897748E+02</pdfrwt>
<totfact>-0.28943183E-13</totfact>
</mgrwt>
</event>
<event>
 4    1 -0.5109406E-019  0.1500476E+02  0.7818608E-02  0.1867923E+00
         -2   -1    0    0    0  501 -0.00000000000E+00  0.00000000000E+00  0.12014499485E+03  0.12014499487E+03  0.25500000000E-02 0.  1.
          2   -1    0    0  501    0  0.00000000000E+00 -0.00000000000E+00 -0.46847796864E+00  0.46848490861E+00  0.25500000000E-02 0. -1.
         31    1    1    2    0    0 -0.66967410385E-01  0.34591454236E+00  0.53100244306E+02  0.53621068741E+02  0.74470750000E+01 0. -1.
        -31    1    1    2    0    0  0.66967410385E-01 -0.34591454236E+00  0.66576272573E+02  0.66992411042E+02  0.74470750000E+01 0.  1.
<mgrwt>
<rscale>  0 0.15004760E+02</rscale>
<asrwt>0</asrwt>
<pdfrwt beam="2">  1        2 0.99501449E+00 0.15004760E+02</pdfrwt>
<pdfrwt beam="1">  1       -2 0.99731664E+00 0.15004760E+02</pdfrwt>
<totfact>-0.88492968E-14</totfact>
</mgrwt>
</event>
<event>
 4    1  0.5109406E-019  0.1494167E+02  0.7818608E-02  0.1869854E+00
         -2   -1    0    0    0  501 -0.00000000000E+00  0.00000000000E+00  0.11869652268E+03  0.11869652271E+03  0.25500000000E-02 0.  1.
          2   -1    0    0  501    0  0.00000000000E+00 -0.00000000000E+00 -0.47021581974E+00  0.47022273406E+00  0.25500000000E-02 0. -1.
         31    1    1    2    0    0 -0.50662586496E+00 -0.12051653428E+00  0.56811624283E+02  0.57300006752E+02  0.74470750000E+01 0. -1.
        -31    1    1    2    0    0  0.50662586496E+00  0.12051653428E+00  0.61414682579E+02  0.61866738692E+02  0.74470750000E+01 0.  1.
<mgrwt>
<rscale>  0 0.14941673E+02</rscale>
<asrwt>0</asrwt>
<pdfrwt beam="2">  1        2 0.99864361E+00 0.14941673E+02</pdfrwt>
<pdfrwt beam="1">  1       -2 0.98535403E+00 0.14941673E+02</pdfrwt>
<totfact> 0.17497536E-13</totfact>
</mgrwt>
</event>
<event>
 4    1 -0.5109406E-019  0.1490325E+02  0.7818608E-02  0.1871035E+00
         -2   -1    0    0    0  501 -0.00000000000E+00  0.00000000000E+00  0.12030868201E+03  0.12030868203E+03  0.25500000000E-02 0. -1.
          2   -1    0    0  501    0  0.00000000000E+00 -0.00000000000E+00 -0.46153156946E+00  0.46153861388E+00  0.25500000000E-02 0.  1.
         31    1    1    2    0    0  0.13977998472E+00 -0.14411099539E+00  0.61266170429E+02  0.61717443819E+02  0.74470750000E+01 0. -1.
        -31    1    1    2    0    0 -0.13977998472E+00  0.14411099539E+00  0.58580980009E+02  0.59052776829E+02  0.74470750000E+01 0.  1.
<mgrwt>
<rscale>  0 0.14903246E+02</rscale>
<asrwt>0</asrwt>
<pdfrwt beam="2">  1        2 0.98032261E+00 0.14903246E+02</pdfrwt>
<pdfrwt beam="1">  1       -2 0.99861268E+00 0.14903246E+02</pdfrwt>
<totfact>-0.33118127E-13</totfact>
</mgrwt>
</event>
<event>
 4    1  0.5109406E-019  0.1494849E+02  0.7818608E-02  0.1869644E+00
         -2   -1    0    0    0  501 -0.00000000000E+00  0.00000000000E+00  0.11911055105E+03  0.11911055108E+03  0.25500000000E-02 0.  1.
          2   -1    0    0  501    0  0.00000000000E+00 -0.00000000000E+00 -0.46900897263E+00  0.46901590475E+00  0.25500000000E-02 0. -1.
         31    1    1    2    0    0 -0.40381278930E-01  0.18727898714E-01  0.64401681344E+02  0.64830837319E+02  0.74470750000E+01 0.  1.
        -31    1    1    2    0    0  0.40381278930E-01 -0.18727898714E-01  0.54239860734E+02  0.54748729665E+02  0.74470750000E+01 0. -1.
<mgrwt>
<rscale>  0 0.14948489E+02</rscale>
<asrwt>0</asrwt>
<pdfrwt beam="2">  1        2 0.99610427E+00 0.14948489E+02</pdfrwt>
<pdfrwt beam="1">  1       -2 0.98876753E+00 0.14948489E+02</pdfrwt>
<totfact> 0.77923483E-14</totfact>
</mgrwt>
</event>
<event>
 4    1  0.5109406E-019  0.1493493E+02  0.7818608E-02  0.1870061E+00
          2   -1    0    0  501    0  0.00000000000E+00  0.00000000000E+00  0.12043378690E+03  0.12043378692E+03  0.25500000000E-02 0.  1.
         -2   -1    0    0    0  501 -0.00000000000E+00 -0.00000000000E+00 -0.46301449482E+00  0.46302151668E+00  0.25500000000E-02 0. -1.
         31    1    1    2    0    0 -0.24946884243E+00  0.49063012503E+00  0.59712501230E+02  0.60177609473E+02  0.74470750000E+01 0.  1.
        -31    1    1    2    0    0  0.24946884243E+00 -0.49063012503E+00  0.60258271170E+02  0.60719198966E+02  0.74470750000E+01 0.  1.
<mgrwt>
<rscale>  0 0.14934928E+02</rscale>
<asrwt>0</asrwt>
<pdfrwt beam="1">  1        2 0.99965940E+00 0.14934928E+02</pdfrwt>
<pdfrwt beam="2">  1       -2 0.98346423E+00 0.14934928E+02</pdfrwt>
<totfact> 0.80617449E-14</totfact>
</mgrwt>
</event>
<event>
 4    1 -0.5109406E-019  0.1490835E+02  0.7818608E-02  0.1870878E+00
          2   -1    0    0  501    0  0.00000000000E+00  0.00000000000E+00  0.11845505640E+03  0.11845505643E+03  0.25500000000E-02 0.  1.
         -2   -1    0    0    0  501 -0.00000000000E+00 -0.00000000000E+00 -0.46907510666E+00  0.46908203780E+00  0.25500000000E-02 0. -1.
         31    1    1    2    0    0 -0.82404492762E-01  0.19934390251E-01  0.61498053434E+02  0.61947370324E+02  0.74470750000E+01 0.  1.
        -31    1    1    2    0    0  0.82404492762E-01 -0.19934390251E-01  0.56487927861E+02  0.56976768143E+02  0.74470750000E+01 0. -1.
<mgrwt>
<rscale>  0 0.14908351E+02</rscale>
<asrwt>0</asrwt>
<pdfrwt beam="1">  1        2 0.98334798E+00 0.14908351E+02</pdfrwt>
<pdfrwt beam="2">  1       -2 0.99622255E+00 0.14908351E+02</pdfrwt>
<totfact>-0.41742097E-13</totfact>
</mgrwt>
</event>
<event>
 4    1 -0.5109406E-019  0.1492209E+02  0.7818608E-02  0.1870455E+00
         -2   -1    0    0    0  501 -0.00000000000E+00  0.00000000000E+00  0.12003122861E+03  0.12003122863E+03  0.25500000000E-02 0. -1.
          2   -1    0    0  501    0  0.00000000000E+00 -0.00000000000E+00 -0.46376927253E+00  0.46377628297E+00  0.25500000000E-02 0.  1.
         31    1    1    2    0    0 -0.31457906000E+00  0.13862480024E+00  0.62207781461E+02  0.62652894404E+02  0.74470750000E+01 0.  1.
        -31    1    1    2    0    0  0.31457906000E+00 -0.13862480024E+00  0.57359677871E+02  0.57842110511E+02  0.74470750000E+01 0.  1.
<mgrwt>
<rscale>  0 0.14922094E+02</rscale>
<asrwt>0</asrwt>
<pdfrwt beam="2">  1        2 0.98504857E+00 0.14922094E+02</pdfrwt>
<pdfrwt beam="1">  1       -2 0.99633701E+00 0.14922094E+02</pdfrwt>
<totfact>-0.31006143E-13</totfact>
</mgrwt>
</event>
<event>
 4    1  0.5109406E-019  0.1492173E+02  0.7818608E-02  0.1870466E+00
          2   -1    0    0  501    0  0.00000000000E+00  0.00000000000E+00  0.11985767319E+03  0.11985767322E+03  0.25500000000E-02 0. -1.
         -2   -1    0    0    0  501 -0.00000000000E+00 -0.00000000000E+00 -0.46441813652E+00  0.46442513716E+00  0.25500000000E-02 0.  1.
         31    1    1    2    0    0 -0.65391552247E-01  0.34902464042E+00  0.61969915260E+02  0.62416787948E+02  0.74470750000E+01 0. -1.
        -31    1    1    2    0    0  0.65391552247E-01 -0.34902464042E+00  0.57423339797E+02  0.57905310410E+02  0.74470750000E+01 0.  1.
<mgrwt>
<rscale>  0 0.14921729E+02</rscale>
<asrwt>0</asrwt>
<pdfrwt beam="1">  1        2 0.99490729E+00 0.14921729E+02</pdfrwt>
<pdfrwt beam="2">  1       -2 0.98641592E+00 0.14921729E+02</pdfrwt>
<totfact> 0.31139374E-13</totfact>
</mgrwt>
</event>
<event>
 4    1 -0.5109406E-019  0.1492232E+02  0.7818608E-02  0.1870448E+00
          2   -1    0    0  501    0  0.00000000000E+00  0.00000000000E+00  0.11899434183E+03  0.11899434186E+03  0.25500000000E-02 0.  1.
         -2   -1    0    0    0  501 -0.00000000000E+00 -0.00000000000E+00 -0.46782449652E+00  0.46783144619E+00  0.25500000000E-02 0. -1.
         31    1    1    2    0    0 -0.30797805201E+00 -0.44545077131E-01  0.56570660610E+02  0.57059577659E+02  0.74470750000E+01 0. -1.
        -31    1    1    2    0    0  0.30797805201E+00  0.44545077131E-01  0.61955856723E+02  0.62402595644E+02  0.74470750000E+01 0.  1.
<mgrwt>
<rscale>  0 0.14922317E+02</rscale>
<asrwt>0</asrwt>
<pdfrwt beam="1">  1        2 0.98779683E+00 0.14922317E+02</pdfrwt>
<pdfrwt beam="2">  1       -2 0.99359470E+00 0.14922317E+02</pdfrwt>
<totfact>-0.21654143E-13</totfact>
</mgrwt>
</event>
<event>
 4    1 -0.5109406E-019  0.1492291E+02  0.7818608E-02  0.1870430E+00
          2   -1    0    0  501    0  0.00000000000E+00  0.00000000000E+00  0.11867159815E+03  0.11867159818E+03  0.25500000000E-02 0.  1.
         -2   -1    0    0    0  501 -0.00000000000E+00 -0.00000000000E+00 -0.46913433292E+00  0.46914126319E+00  0.25500000000E-02 0. -1.
         31    1    1    2    0    0 -0.28688483827E-01 -0.36302994293E+00  0.61384578617E+02  0.61835734263E+02  0.74470750000E+01 0.  1.
        -31    1    1    2    0    0  0.28688483827E-01  0.36302994293E+00  0.56817885200E+02  0.57305005178E+02  0.74470750000E+01 0. -1.
<mgrwt>
<rscale>  0 0.14922913E+02</rscale>
<asrwt>0</asrwt>
<pdfrwt beam="1">  1        2 0.98513899E+00 0.14922913E+02</pdfrwt>
<pdfrwt beam="2">  1       -2 0.99635501E+00 0.14922913E+02</pdfrwt>
<totfact>-0.30479745E-13</totfact>
</mgrwt>
</event>
<event>
 4    1 -0.5109406E-019  0.1495622E+02  0.7818608E-02  0.1869408E+00
         -2   -1    0    0    0  501 -0.00000000000E+00  0.00000000000E+00  0.11962991935E+03  0.11962991938E+03  0.25500000000E-02 0.  1.
          2   -1    0    0  501    0  0.00000000000E+00 -0.00000000000E+00 -0.46745568254E+00  0.46746263769E+00  0.25500000000E-02 0. -1.
         31    1    1    2    0    0  0.14702482761E+00  0.46422977621E+00  0.63399066884E+02  0.63836805476E+02  0.74470750000E+01 0.  1.
        -31    1    1    2    0    0 -0.14702482761E+00 -0.46422977621E+00  0.55763396787E+02  0.56260576543E+02  0.74470750000E+01 0. -1.
<mgrwt>
<rscale>  0 0.14956217E+02</rscale>
<asrwt>0</asrwt>
<pdfrwt beam="2">  1        2 0.99283511E+00 0.14956217E+02</pdfrwt>
<pdfrwt beam="1">  1       -2 0.99304918E+00 0.14956217E+02</pdfrwt>
<totfact>-0.12475574E-13</totfact>
</mgrwt>
</event>
<event>
 4    1  0.5109406E-019  0.1490581E+02  0.7818608E-02  0.1870956E+00
         -2   -1    0    0    0  501 -0.00000000000E+00  0.00000000000E+00  0.11915157024E+03  0.11915157027E+03  0.25500000000E-02 0. -1.
          2   -1    0    0  501    0  0.00000000000E+00 -0.00000000000E+00 -0.46617412350E+00  0.46618109777E+00  0.25500000000E-02 0.  1.
         31    1    1    2    0    0 -0.28145615715E+00 -0.55887936291E-01  0.58802550267E+02  0.59272938049E+02  0.74470750000E+01 0.  1.
        -31    1    1    2    0    0  0.28145615715E+00  0.55887936291E-01  0.59882845848E+02  0.60344813314E+02  0.74470750000E+01 0. -1.
<mgrwt>
<rscale>  0 0.14905811E+02</rscale>
<asrwt>0</asrwt>
<pdfrwt beam="2">  1        2 0.99010837E+00 0.14905811E+02</pdfrwt>
<pdfrwt beam="1">  1       -2 0.98908326E+00 0.14905811E+02</pdfrwt>
<totfact> 0.98608199E-14</totfact>
</mgrwt>
</event>
<event>
 4    1 -0.5109406E-019  0.1491508E+02  0.7818608E-02  0.1870671E+00
          2   -1    0    0  501    0  0.00000000000E+00  0.00000000000E+00  0.11866952505E+03  0.11866952508E+03  0.25500000000E-02 0. -1.
         -2   -1    0    0    0  501 -0.00000000000E+00 -0.00000000000E+00 -0.46864998784E+00  0.46865692526E+00  0.25500000000E-02 0.  1.
         31    1    1    2    0    0  0.17955360659E-01 -0.89124991999E-01  0.62170221564E+02  0.62614723835E+02  0.74470750000E+01 0. -1.
        -31    1    1    2    0    0 -0.17955360659E-01  0.89124991999E-01  0.56030653502E+02  0.56523458171E+02  0.74470750000E+01 0.  1.
<mgrwt>
<rscale>  0 0.14915078E+02</rscale>
<asrwt>0</asrwt>
<pdfrwt beam="1">  1        2 0.98511785E+00 0.14915078E+02</pdfrwt>
<pdfrwt beam="2">  1       -2 0.99533034E+00 0.14915078E+02</pdfrwt>
<totfact>-0.33665862E-13</totfact>
</mgrwt>
</event>
<event>
 4    1 -0.5109406E-019  0.1498772E+02  0.7818608E-02  0.1868443E+00
         -2   -1    0    0    0  501 -0.00000000000E+00  0.00000000000E+00  0.11964729834E+03  0.11964729837E+03  0.25500000000E-02 0. -1.
          2   -1    0    0  501    0  0.00000000000E+00 -0.00000000000E+00 -0.46935899733E+00  0.46936592428E+00  0.25500000000E-02 0.  1.
         31    1    1    2    0    0 -0.71095676061E+00 -0.43197857207E+00  0.60257702539E+02  0.60721838793E+02  0.74470750000E+01 0.  1.
        -31    1    1    2    0    0  0.71095676061E+00  0.43197857207E+00  0.58920236806E+02  0.59394825501E+02  0.74470750000E+01 0. -1.
<mgrwt>
<rscale>  0 0.14987722E+02</rscale>
<asrwt>0</asrwt>
<pdfrwt beam="2">  1        2 0.99686229E+00 0.14987722E+02</pdfrwt>
<pdfrwt beam="1">  1       -2 0.99320862E+00 0.14987722E+02</pdfrwt>
<totfact>-0.81513261E-14</totfact>
</mgrwt>
</event>
<event>
 4    1  0.5109406E-019  0.1491123E+02  0.7818608E-02  0.1870789E+00
         -2   -1    0    0    0  501 -0.00000000000E+00  0.00000000000E+00  0.11845923547E+03  0.11845923549E+03  0.25500000000E-02 0.  1.
          2   -1    0    0  501    0  0.00000000000E+00 -0.00000000000E+00 -0.46923990286E+00  0.46924683157E+00  0.25500000000E-02 0. -1.
         31    1    1    2    0    0  0.77145297936E-02 -0.34084617241E+00  0.58156513727E+02  0.58632373742E+02  0.74470750000E+01 0. -1.
        -31    1    1    2    0    0 -0.77145297936E-02  0.34084617241E+00  0.59833481837E+02  0.60296108584E+02  0.74470750000E+01 0.  1.
<mgrwt>
<rscale>  0 0.14911233E+02</rscale>
<asrwt>0</asrwt>
<pdfrwt beam="2">  1        2 0.99657130E+00 0.14911233E+02</pdfrwt>
<pdfrwt beam="1">  1       -2 0.98338390E+00 0.14911233E+02</pdfrwt>
<totfact> 0.58859869E-13</totfact>
</mgrwt>
</event>
<event>
 4    1 -0.5109406E-019  0.1496028E+02  0.7818608E-02  0.1869283E+00
          2   -1    0    0  501    0  0.00000000000E+00  0.00000000000E+00  0.11934209691E+03  0.11934209693E+03  0.25500000000E-02 0. -1.
         -2   -1    0    0    0  501 -0.00000000000E+00 -0.00000000000E+00 -0.46883792820E+00  0.46884486285E+00  0.25500000000E-02 0.  1.
         31    1    1    2    0    0  0.24465238180E+00 -0.16196021535E+00  0.64549019398E+02  0.64977849435E+02  0.74470750000E+01 0. -1.
        -31    1    1    2    0    0 -0.24465238180E+00  0.16196021535E+00  0.54324239579E+02  0.54833092360E+02  0.74470750000E+01 0.  1.
<mgrwt>
<rscale>  0 0.14960283E+02</rscale>
<asrwt>0</asrwt>
<pdfrwt beam="1">  1        2 0.99068069E+00 0.14960283E+02</pdfrwt>
<pdfrwt beam="2">  1       -2 0.99575000E+00 0.14960283E+02</pdfrwt>
<totfact>-0.16139452E-13</totfact>
</mgrwt>
</event>
<event>
 4    1 -0.5109406E-019  0.1493788E+02  0.7818608E-02  0.1869970E+00
          2   -1    0    0  501    0  0.00000000000E+00  0.00000000000E+00  0.11941763701E+03  0.11941763703E+03  0.25500000000E-02 0.  1.
         -2   -1    0    0    0  501 -0.00000000000E+00 -0.00000000000E+00 -0.46713878493E+00  0.46714574480E+00  0.25500000000E-02 0. -1.
         31    1    1    2    0    0 -0.40496993077E+00  0.14599016901E+00  0.62486586073E+02  0.62930260438E+02  0.74470750000E+01 0.  1.
        -31    1    1    2    0    0  0.40496993077E+00 -0.14599016901E+00  0.56463912148E+02  0.56954522340E+02  0.74470750000E+01 0. -1.
<mgrwt>
<rscale>  0 0.14937875E+02</rscale>
<asrwt>0</asrwt>
<pdfrwt beam="1">  1        2 0.99129126E+00 0.14937875E+02</pdfrwt>
<pdfrwt beam="2">  1       -2 0.99215781E+00 0.14937875E+02</pdfrwt>
<totfact>-0.11178218E-13</totfact>
</mgrwt>
</event>
<event>
 4    1  0.5109406E-019  0.1492971E+02  0.7818608E-02  0.1870221E+00
         -2   -1    0    0    0  501 -0.00000000000E+00  0.00000000000E+00  0.11891556273E+03  0.11891556276E+03  0.25500000000E-02 0.  1.
          2   -1    0    0  501    0  0.00000000000E+00 -0.00000000000E+00 -0.46859866056E+00  0.46860559875E+00  0.25500000000E-02 0. -1.
         31    1    1    2    0    0  0.30612163333E+00 -0.38842538719E+00  0.60370581792E+02  0.60830178831E+02  0.74470750000E+01 0.  1.
        -31    1    1    2    0    0 -0.30612163333E+00  0.38842538719E+00  0.58076382282E+02  0.58553989529E+02  0.74470750000E+01 0. -1.
<mgrwt>
<rscale>  0 0.14929714E+02</rscale>
<asrwt>0</asrwt>
<pdfrwt beam="2">  1        2 0.99522986E+00 0.14929714E+02</pdfrwt>
<pdfrwt beam="1">  1       -2 0.98715183E+00 0.14929714E+02</pdfrwt>
<totfact> 0.22478251E-13</totfact>
</mgrwt>
</event>
<event>
 4    1 -0.5109406E-019  0.1502373E+02  0.7818608E-02  0.1867345E+00
          2   -1    0    0  501    0  0.00000000000E+00  0.00000000000E+00  0.12033914955E+03  0.12033914957E+03  0.25500000000E-02 0.  1.
         -2   -1    0    0    0  501 -0.00000000000E+00 -0.00000000000E+00 -0.46890549422E+00  0.46891242787E+00  0.25500000000E-02 0. -1.
         31    1    1    2    0    0 -0.36786446675E+00 -0.82555378341E+00  0.56796811675E+02  0.57290082963E+02  0.74470750000E+01 0. -1.
        -31    1    1    2    0    0  0.36786446675E+00  0.82555378341E+00  0.63073432376E+02  0.63517979038E+02  0.74470750000E+01 0.  1.
<mgrwt>
<rscale>  0 0.15023729E+02</rscale>
<asrwt>0</asrwt>
<pdfrwt beam="1">  1        2 0.99892558E+00 0.15023729E+02</pdfrwt>
<pdfrwt beam="2">  1       -2 0.99592523E+00 0.15023729E+02</pdfrwt>
<totfact>-0.36872304E-14</totfact>
</mgrwt>
</event>
<event>
 4    1 -0.5109406E-019  0.1493719E+02  0.7818608E-02  0.1869991E+00
         -2   -1    0    0    0  501 -0.00000000000E+00  0.00000000000E+00  0.11964589891E+03  0.11964589893E+03  0.25500000000E-02 0.  1.
          2   -1    0    0  501    0  0.00000000000E+00 -0.00000000000E+00 -0.46620450257E+00  0.46621147638E+00  0.25500000000E-02 0. -1.
         31    1    1    2    0    0  0.13210121246E-01  0.20096971038E+00  0.63847768388E+02  0.64280922656E+02  0.74470750000E+01 0.  1.
        -31    1    1    2    0    0 -0.13210121246E-01 -0.20096971038E+00  0.55331926015E+02  0.55831187753E+02  0.74470750000E+01 0. -1.
<mgrwt>
<rscale>  0 0.14937185E+02</rscale>
<asrwt>0</asrwt>
<pdfrwt beam="2">  1        2 0.99018858E+00 0.14937185E+02</pdfrwt>
<pdfrwt beam="1">  1       -2 0.99317097E+00 0.14937185E+02</pdfrwt>
<totfact>-0.15672735E-13</totfact>
</mgrwt>
</event>
<event>
 4    1  0.5109406E-019  0.1491650E+02  0.7818608E-02  0.1870627E+00
         -2   -1    0    0    0  501 -0.00000000000E+00  0.00000000000E+00  0.11850802915E+03  0.11850802918E+03  0.25500000000E-02 0. -1.
          2   -1    0    0  501    0  0.00000000000E+00 -0.00000000000E+00 -0.46937789242E+00  0.46938481909E+00  0.25500000000E-02 0.  1.
         31    1    1    2    0    0  0.32211350058E+00 -0.10771697114E+00  0.57214924168E+02  0.57698542735E+02  0.74470750000E+01 0.  1.
        -31    1    1    2    0    0 -0.32211350058E+00  0.10771697114E+00  0.60823727089E+02  0.61278871261E+02  0.74470750000E+01 0. -1.
<mgrwt>
<rscale>  0 0.14916496E+02</rscale>
<asrwt>0</asrwt>
<pdfrwt beam="2">  1        2 0.99686482E+00 0.14916496E+02</pdfrwt>
<pdfrwt beam="1">  1       -2 0.98378850E+00 0.14916496E+02</pdfrwt>
<totfact> 0.50516573E-13</totfact>
</mgrwt>
</event>
<event>
 4    1  0.5109406E-019  0.1494276E+02  0.7818608E-02  0.1869820E+00
          2   -1    0    0  501    0  0.00000000000E+00  0.00000000000E+00  0.12006666809E+03  0.12006666812E+03  0.25500000000E-02 0.  1.
         -2   -1    0    0    0  501 -0.00000000000E+00 -0.00000000000E+00 -0.46491765063E+00  0.46492464376E+00  0.25500000000E-02 0. -1.
         31    1    1    2    0    0 -0.34040842138E+00  0.19509759750E+00  0.63485551092E+02  0.63922046779E+02  0.74470750000E+01 0.  1.
        -31    1    1    2    0    0  0.34040842138E+00 -0.19509759750E+00  0.56116199346E+02  0.56609545980E+02  0.74470750000E+01 0. -1.
<mgrwt>
<rscale>  0 0.14942762E+02</rscale>
<asrwt>0</asrwt>
<pdfrwt beam="1">  1        2 0.99663954E+00 0.14942762E+02</pdfrwt>
<pdfrwt beam="2">  1       -2 0.98747941E+00 0.14942762E+02</pdfrwt>
<totfact> 0.15787300E-13</totfact>
</mgrwt>
</event>
<event>
 4    1 -0.5109406E-019  0.1501333E+02  0.7818608E-02  0.1867662E+00
         -2   -1    0    0    0  501 -0.00000000000E+00  0.00000000000E+00  0.11988475288E+03  0.11988475290E+03  0.25500000000E-02 0.  1.
          2   -1    0    0  501    0  0.00000000000E+00 -0.00000000000E+00 -0.47003167107E+00  0.47003858810E+00  0.25500000000E-02 0. -1.
         31    1    1    2    0    0  0.44874206180E+00  0.17899872875E+00  0.66208722079E+02  0.66627976221E+02  0.74470750000E+01 0.  1.
        -31    1    1    2    0    0 -0.44874206180E+00 -0.17899872875E+00  0.53205999127E+02  0.53726815271E+02  0.74470750000E+01 0. -1.
<mgrwt>
<rscale>  0 0.15013334E+02</rscale>
<asrwt>0</asrwt>
<pdfrwt beam="2">  1        2 0.99829310E+00 0.15013334E+02</pdfrwt>
<pdfrwt beam="1">  1       -2 0.99517762E+00 0.15013334E+02</pdfrwt>
<totfact>-0.57445041E-14</totfact>
</mgrwt>
</event>
<event>
 4    1  0.5109406E-019  0.1491991E+02  0.7818608E-02  0.1870522E+00
         -2   -1    0    0    0  501 -0.00000000000E+00  0.00000000000E+00  0.11838522621E+03  0.11838522624E+03  0.25500000000E-02 0.  1.
          2   -1    0    0  501    0  0.00000000000E+00 -0.00000000000E+00 -0.47007992936E+00  0.47008684568E+00  0.25500000000E-02 0. -1.
         31    1    1    2    0    0  0.19073280101E+00  0.27303603392E+00  0.61225886651E+02  0.61678027286E+02  0.74470750000E+01 0. -1.
        -31    1    1    2    0    0 -0.19073280101E+00 -0.27303603392E+00  0.56689259629E+02  0.57177285797E+02  0.74470750000E+01 0. -1.
<mgrwt>
<rscale>  0 0.14919910E+02</rscale>
<asrwt>0</asrwt>
<pdfrwt beam="2">  1        2 0.99834580E+00 0.14919910E+02</pdfrwt>
<pdfrwt beam="1">  1       -2 0.98277889E+00 0.14919910E+02</pdfrwt>
<totfact> 0.39438183E-13</totfact>
</mgrwt>
</event>
<event>
 4    1 -0.5109406E-019  0.1495102E+02  0.7818608E-02  0.1869567E+00
          2   -1    0    0  501    0  0.00000000000E+00  0.00000000000E+00  0.11889771792E+03  0.11889771795E+03  0.25500000000E-02 0. -1.
         -2   -1    0    0    0  501 -0.00000000000E+00 -0.00000000000E+00 -0.47000739625E+00  0.47001431364E+00  0.25500000000E-02 0.  1.
         31    1    1    2    0    0  0.37370057151E+00 -0.30385193400E+00  0.55712588306E+02  0.56210171677E+02  0.74470750000E+01 0.  1.
        -31    1    1    2    0    0 -0.37370057151E+00  0.30385193400E+00  0.62715122219E+02  0.63157560585E+02  0.74470750000E+01 0. -1.
<mgrwt>
<rscale>  0 0.14951016E+02</rscale>
<asrwt>0</asrwt>
<pdfrwt beam="1">  1        2 0.98701593E+00 0.14951016E+02</pdfrwt>
<pdfrwt beam="2">  1       -2 0.99820938E+00 0.14951016E+02</pdfrwt>
<totfact>-0.13840252E-13</totfact>
</mgrwt>
</event>
<event>
 4    1 -0.5109406E-019  0.1503217E+02  0.7818608E-02  0.1867088E+00
         -2   -1    0    0    0  501 -0.00000000000E+00  0.00000000000E+00  0.12011964043E+03  0.12011964046E+03  0.25500000000E-02 0. -1.
          2   -1    0    0  501    0  0.00000000000E+00 -0.00000000000E+00 -0.47029058160E+00  0.47029749483E+00  0.25500000000E-02 0.  1.
         31    1    1    2    0    0  0.78910444312E+00 -0.63891346460E+00  0.60158508265E+02  0.60626198454E+02  0.74470750000E+01 0. -1.
        -31    1    1    2    0    0 -0.78910444312E+00  0.63891346460E+00  0.59490841585E+02  0.59963739500E+02  0.74470750000E+01 0. -1.
<mgrwt>
<rscale>  0 0.15032173E+02</rscale>
<asrwt>0</asrwt>
<pdfrwt beam="2">  1        2 0.99884847E+00 0.15032173E+02</pdfrwt>
<pdfrwt beam="1">  1       -2 0.99712198E+00 0.15032173E+02</pdfrwt>
<totfact>-0.32295103E-14</totfact>
</mgrwt>
</event>
<event>
 4    1 -0.5109406E-019  0.1501254E+02  0.7818608E-02  0.1867686E+00
         -2   -1    0    0    0  501 -0.00000000000E+00  0.00000000000E+00  0.11988550703E+03  0.11988550706E+03  0.25500000000E-02 0.  1.
          2   -1    0    0  501    0  0.00000000000E+00 -0.00000000000E+00 -0.46997880587E+00  0.46998572368E+00  0.25500000000E-02 0. -1.
         31    1    1    2    0    0  0.82273338631E+00 -0.45565669113E+00  0.59507168597E+02  0.59978717507E+02  0.74470750000E+01 0. -1.
        -31    1    1    2    0    0 -0.82273338631E+00  0.45565669113E+00  0.59908359626E+02  0.60376775273E+02  0.74470750000E+01 0.  1.
<mgrwt>
<rscale>  0 0.15012537E+02</rscale>
<asrwt>0</asrwt>
<pdfrwt beam="2">  1        2 0.99818128E+00 0.15012537E+02</pdfrwt>
<pdfrwt beam="1">  1       -2 0.99518342E+00 0.15012537E+02</pdfrwt>
<totfact>-0.60442995E-14</totfact>
</mgrwt>
</event>
<event>
 4    1 -0.5109406E-019  0.1498090E+02  0.7818608E-02  0.1868652E+00
         -2   -1    0    0    0  501 -0.00000000000E+00  0.00000000000E+00  0.12013805957E+03  0.12013805960E+03  0.25500000000E-02 0. -1.
          2   -1    0    0  501    0  0.00000000000E+00 -0.00000000000E+00 -0.46701621363E+00  0.46702317533E+00  0.25500000000E-02 0.  1.
         31    1    1    2    0    0 -0.31497583502E+00  0.41530585809E+00  0.64773548619E+02  0.65202325231E+02  0.74470750000E+01 0. -1.
        -31    1    1    2    0    0  0.31497583502E+00 -0.41530585809E+00  0.54897494738E+02  0.55402757542E+02  0.74470750000E+01 0.  1.
<mgrwt>
<rscale>  0 0.14980900E+02</rscale>
<asrwt>0</asrwt>
<pdfrwt beam="2">  1        2 0.99192167E+00 0.14980900E+02</pdfrwt>
<pdfrwt beam="1">  1       -2 0.99724721E+00 0.14980900E+02</pdfrwt>
<totfact>-0.11512538E-13</totfact>
</mgrwt>
</event>
<event>
 4    1  0.5109406E-019  0.1491425E+02  0.7818608E-02  0.1870696E+00
         -2   -1    0    0    0  501 -0.00000000000E+00  0.00000000000E+00  0.11867456355E+03  0.11867456358E+03  0.25500000000E-02 0. -1.
          2   -1    0    0  501    0  0.00000000000E+00 -0.00000000000E+00 -0.46857825695E+00  0.46858519544E+00  0.25500000000E-02 0.  1.
         31    1    1    2    0    0  0.11865711067E+00 -0.35953747849E+00  0.59745181071E+02  0.60208711446E+02  0.74470750000E+01 0. -1.
        -31    1    1    2    0    0 -0.11865711067E+00  0.35953747849E+00  0.58460804226E+02  0.58934437331E+02  0.74470750000E+01 0.  1.
<mgrwt>
<rscale>  0 0.14914253E+02</rscale>
<asrwt>0</asrwt>
<pdfrwt beam="2">  1        2 0.99517876E+00 0.14914253E+02</pdfrwt>
<pdfrwt beam="1">  1       -2 0.98515891E+00 0.14914253E+02</pdfrwt>
<totfact> 0.45454612E-13</totfact>
</mgrwt>
</event>
<event>
 4    1 -0.5109406E-019  0.1491950E+02  0.7818608E-02  0.1870535E+00
         -2   -1    0    0    0  501 -0.00000000000E+00  0.00000000000E+00  0.11950312074E+03  0.11950312076E+03  0.25500000000E-02 0.  1.
          2   -1    0    0  501    0  0.00000000000E+00 -0.00000000000E+00 -0.46565694650E+00  0.46566392852E+00  0.25500000000E-02 0. -1.
         31    1    1    2    0    0 -0.12841743198E+00  0.38306353891E+00  0.58229048813E+02  0.58704721108E+02  0.74470750000E+01 0. -1.
        -31    1    1    2    0    0  0.12841743198E+00 -0.38306353891E+00  0.60808414976E+02  0.61264063583E+02  0.74470750000E+01 0.  1.
<mgrwt>
<rscale>  0 0.14919501E+02</rscale>
<asrwt>0</asrwt>
<pdfrwt beam="2">  1        2 0.98902555E+00 0.14919501E+02</pdfrwt>
<pdfrwt beam="1">  1       -2 0.99198585E+00 0.14919501E+02</pdfrwt>
<totfact>-0.12975697E-13</totfact>
</mgrwt>
</event>
<event>
 4    1  0.5109406E-019  0.1490909E+02  0.7818608E-02  0.1870855E+00
         -2   -1    0    0    0  501 -0.00000000000E+00  0.00000000000E+00  0.11888230457E+03  0.11888230459E+03  0.25500000000E-02 0.  1.
          2   -1    0    0  501    0  0.00000000000E+00 -0.00000000000E+00 -0.46743593530E+00  0.46744289075E+00  0.25500000000E-02 0. -1.
         31    1    1    2    0    0  0.32556096174E+00  0.72027906401E-01  0.59313001774E+02  0.59779614280E+02  0.74470750000E+01 0. -1.
        -31    1    1    2    0    0 -0.32556096174E+00 -0.72027906401E-01  0.59101866856E+02  0.59570133204E+02  0.74470750000E+01 0.  1.
<mgrwt>
<rscale>  0 0.14909095E+02</rscale>
<asrwt>0</asrwt>
<pdfrwt beam="2">  1        2 0.99276903E+00 0.14909095E+02</pdfrwt>
<pdfrwt beam="1">  1       -2 0.98686722E+00 0.14909095E+02</pdfrwt>
<totfact> 0.31155867E-13</totfact>
</mgrwt>
</event>
<event>
 4    1 -0.5109406E-019  0.1490484E+02  0.7818608E-02  0.1870986E+00
          2   -1    0    0  501    0  0.00000000000E+00  0.00000000000E+00  0.11856248472E+03  0.11856248475E+03  0.25500000000E-02 0. -1.
         -2   -1    0    0    0  501 -0.00000000000E+00 -0.00000000000E+00 -0.46842913661E+00  0.46843607731E+00  0.25500000000E-02 0.  1.
         31    1    1    2    0    0  0.17795029857E+00 -0.12688884870E-01  0.60792739104E+02  0.61247431629E+02  0.74470750000E+01 0. -1.
        -31    1    1    2    0    0 -0.17795029857E+00  0.12688884870E-01  0.57301316481E+02  0.57783489197E+02  0.74470750000E+01 0.  1.
<mgrwt>
<rscale>  0 0.14904836E+02</rscale>
<asrwt>0</asrwt>
<pdfrwt beam="1">  1        2 0.98423094E+00 0.14904836E+02</pdfrwt>
<pdfrwt beam="2">  1       -2 0.99485961E+00 0.14904836E+02</pdfrwt>
<totfact>-0.39470482E-13</totfact>
</mgrwt>
</event>
<event>
 4    1 -0.5109406E-019  0.1490950E+02  0.7818608E-02  0.1870843E+00
         -2   -1    0    0    0  501 -0.00000000000E+00  0.00000000000E+00  0.11976139341E+03  0.11976139344E+03  0.25500000000E-02 0. -1.
          2   -1    0    0  501    0  0.00000000000E+00 -0.00000000000E+00 -0.46403007409E+00  0.46403708058E+00  0.25500000000E-02 0.  1.
         31    1    1    2    0    0 -0.37332097392E-01  0.30799501816E+00  0.60734449217E+02  0.61190101343E+02  0.74470750000E+01 0.  1.
        -31    1    1    2    0    0  0.37332097392E-01 -0.30799501816E+00  0.58562914120E+02  0.59035329176E+02  0.74470750000E+01 0. -1.
<mgrwt>
<rscale>  0 0.14909502E+02</rscale>
<asrwt>0</asrwt>
<pdfrwt beam="2">  1        2 0.98559182E+00 0.14909502E+02</pdfrwt>
<pdfrwt beam="1">  1       -2 0.99410798E+00 0.14909502E+02</pdfrwt>
<totfact>-0.31115219E-13</totfact>
</mgrwt>
</event>
<event>
 4    1 -0.5109406E-019  0.1491503E+02  0.7818608E-02  0.1870672E+00
          2   -1    0    0  501    0  0.00000000000E+00  0.00000000000E+00  0.11862181830E+03  0.11862181833E+03  0.25500000000E-02 0. -1.
         -2   -1    0    0    0  501 -0.00000000000E+00 -0.00000000000E+00 -0.46883566882E+00  0.46884260351E+00  0.25500000000E-02 0.  1.
         31    1    1    2    0    0  0.34055602009E+00 -0.94647718681E-01  0.60475312003E+02  0.60933137327E+02  0.74470750000E+01 0. -1.
        -31    1    1    2    0    0 -0.34055602009E+00  0.94647718681E-01  0.57677670628E+02  0.58157523603E+02  0.74470750000E+01 0.  1.
<mgrwt>
<rscale>  0 0.14915033E+02</rscale>
<asrwt>0</asrwt>
<pdfrwt beam="1">  1        2 0.98472491E+00 0.14915033E+02</pdfrwt>
<pdfrwt beam="2">  1       -2 0.99572156E+00 0.14915033E+02</pdfrwt>
<totfact>-0.34978385E-13</totfact>
</mgrwt>
</event>
<event>
 4    1 -0.5109406E-019  0.1498731E+02  0.7818608E-02  0.1868456E+00
         -2   -1    0    0    0  501 -0.00000000000E+00  0.00000000000E+00  0.11978046017E+03  0.11978046020E+03  0.25500000000E-02 0. -1.
          2   -1    0    0  501    0  0.00000000000E+00 -0.00000000000E+00 -0.46881171301E+00  0.46881864805E+00  0.25500000000E-02 0.  1.
         31    1    1    2    0    0 -0.18239489575E+00  0.81175892622E+00  0.59164178160E+02  0.59636826910E+02  0.74470750000E+01 0.  1.
        -31    1    1    2    0    0  0.18239489575E+00 -0.81175892622E+00  0.60147470297E+02  0.60612451936E+02  0.74470750000E+01 0.  1.
<mgrwt>
<rscale>  0 0.14987315E+02</rscale>
<asrwt>0</asrwt>
<pdfrwt beam="2">  1        2 0.99570880E+00 0.14987315E+02</pdfrwt>
<pdfrwt beam="1">  1       -2 0.99430517E+00 0.14987315E+02</pdfrwt>
<totfact>-0.10923071E-13</totfact>
</mgrwt>
</event>
<event>
 4    1  0.5109406E-019  0.1495083E+02  0.7818608E-02  0.1869573E+00
         -2   -1    0    0    0  501 -0.00000000000E+00  0.00000000000E+00  0.11874609689E+03  0.11874609692E+03  0.25500000000E-02 0. -1.
          2   -1    0    0  501    0  0.00000000000E+00 -0.00000000000E+00 -0.47059563146E+00  0.47060254021E+00  0.25500000000E-02 0.  1.
         31    1    1    2    0    0 -0.90739976160E-01  0.28156372518E+00  0.63755538302E+02  0.64189680652E+02  0.74470750000E+01 0. -1.
        -31    1    1    2    0    0  0.90739976160E-01 -0.28156372518E+00  0.54519962954E+02  0.55027018804E+02  0.74470750000E+01 0.  1.
<mgrwt>
<rscale>  0 0.14950827E+02</rscale>
<asrwt>0</asrwt>
<pdfrwt beam="2">  1        2 0.99944871E+00 0.14950827E+02</pdfrwt>
<pdfrwt beam="1">  1       -2 0.98576708E+00 0.14950827E+02</pdfrwt>
<totfact> 0.68420841E-14</totfact>
</mgrwt>
</event>
<event>
 4    1 -0.5109406E-019  0.1500073E+02  0.7818608E-02  0.1868046E+00
          2   -1    0    0  501    0  0.00000000000E+00  0.00000000000E+00  0.11982951965E+03  0.11982951968E+03  0.25500000000E-02 0.  1.
         -2   -1    0    0    0  501 -0.00000000000E+00 -0.00000000000E+00 -0.46945886877E+00  0.46946579425E+00  0.25500000000E-02 0. -1.
         31    1    1    2    0    0 -0.74599845466E+00 -0.48930185676E+00  0.59484761599E+02  0.59955748002E+02  0.74470750000E+01 0.  1.
        -31    1    1    2    0    0  0.74599845466E+00  0.48930185676E+00  0.59875299182E+02  0.60343237469E+02  0.74470750000E+01 0. -1.
<mgrwt>
<rscale>  0 0.15000727E+02</rscale>
<asrwt>0</asrwt>
<pdfrwt beam="1">  1        2 0.99471618E+00 0.15000727E+02</pdfrwt>
<pdfrwt beam="2">  1       -2 0.99707950E+00 0.15000727E+02</pdfrwt>
<totfact>-0.96584514E-14</totfact>
</mgrwt>
</event>
<event>
 4    1 -0.5109406E-019  0.1496264E+02  0.7818608E-02  0.1869211E+00
         -2   -1    0    0    0  501 -0.00000000000E+00  0.00000000000E+00  0.11988543324E+03  0.11988543327E+03  0.25500000000E-02 0. -1.
          2   -1    0    0  501    0  0.00000000000E+00 -0.00000000000E+00 -0.46685985564E+00  0.46686681967E+00  0.25500000000E-02 0.  1.
         31    1    1    2    0    0  0.42131102050E+00 -0.55500439627E+00  0.58420869855E+02  0.58897729103E+02  0.74470750000E+01 0. -1.
        -31    1    1    2    0    0 -0.42131102050E+00  0.55500439627E+00  0.60997703534E+02  0.61454570988E+02  0.74470750000E+01 0.  1.
<mgrwt>
<rscale>  0 0.14962636E+02</rscale>
<asrwt>0</asrwt>
<pdfrwt beam="2">  1        2 0.99158278E+00 0.14962636E+02</pdfrwt>
<pdfrwt beam="1">  1       -2 0.99515702E+00 0.14962636E+02</pdfrwt>
<totfact>-0.15544239E-13</totfact>
</mgrwt>
</event>
<event>
 4    1 -0.5109406E-019  0.1491698E+02  0.7818608E-02  0.1870612E+00
          2   -1    0    0  501    0  0.00000000000E+00  0.00000000000E+00  0.11876709496E+03  0.11876709498E+03  0.25500000000E-02 0.  1.
         -2   -1    0    0    0  501 -0.00000000000E+00 -0.00000000000E+00 -0.46838469852E+00  0.46839163988E+00  0.25500000000E-02 0. -1.
         31    1    1    2    0    0  0.59533339047E-01 -0.25585666777E+00  0.61691824749E+02  0.62140237961E+02  0.74470750000E+01 0.  1.
        -31    1    1    2    0    0 -0.59533339047E-01  0.25585666777E+00  0.56606885509E+02  0.57095248663E+02  0.74470750000E+01 0. -1.
<mgrwt>
<rscale>  0 0.14916984E+02</rscale>
<asrwt>0</asrwt>
<pdfrwt beam="1">  1        2 0.98592243E+00 0.14916984E+02</pdfrwt>
<pdfrwt beam="2">  1       -2 0.99477235E+00 0.14916984E+02</pdfrwt>
<totfact>-0.30071557E-13</totfact>
</mgrwt>
</event>
<event>
 4    1  0.5109406E-019  0.1490836E+02  0.7818608E-02  0.1870878E+00
          2   -1    0    0  501    0  0.00000000000E+00  0.00000000000E+00  0.11970001648E+03  0.11970001650E+03  0.25500000000E-02 0. -1.
         -2   -1    0    0    0  501 -0.00000000000E+00 -0.00000000000E+00 -0.46419679042E+00  0.46420379440E+00  0.25500000000E-02 0.  1.
         31    1    1    2    0    0  0.13053877439E+00  0.16614274202E+00  0.61612152836E+02  0.62060945424E+02  0.74470750000E+01 0.  1.
        -31    1    1    2    0    0 -0.13053877439E+00 -0.16614274202E+00  0.57623666850E+02  0.58103274874E+02  0.74470750000E+01 0.  1.
<mgrwt>
<rscale>  0 0.14908358E+02</rscale>
<asrwt>0</asrwt>
<pdfrwt beam="1">  1        2 0.99360185E+00 0.14908358E+02</pdfrwt>
<pdfrwt beam="2">  1       -2 0.98594260E+00 0.14908358E+02</pdfrwt>
<totfact> 0.41063279E-13</totfact>
</mgrwt>
</event>
<event>
 4    1  0.5109406E-019  0.1492169E+02  0.7818608E-02  0.1870468E+00
         -2   -1    0    0    0  501 -0.00000000000E+00  0.00000000000E+00  0.11871492664E+03  0.11871492666E+03  0.25500000000E-02 0.  1.
          2   -1    0    0  501    0  0.00000000000E+00 -0.00000000000E+00 -0.46888598186E+00  0.46889291580E+00  0.25500000000E-02 0. -1.
         31    1    1    2    0    0 -0.25431532274E+00  0.44209140908E-01  0.56149184253E+02  0.56641472872E+02  0.74470750000E+01 0. -1.
        -31    1    1    2    0    0  0.25431532274E+00 -0.44209140908E-01  0.62096856401E+02  0.62542346707E+02  0.74470750000E+01 0.  1.
<mgrwt>
<rscale>  0 0.14921686E+02</rscale>
<asrwt>0</asrwt>
<pdfrwt beam="2">  1        2 0.99583107E+00 0.14921686E+02</pdfrwt>
<pdfrwt beam="1">  1       -2 0.98549521E+00 0.14921686E+02</pdfrwt>
<totfact> 0.37979976E-13</totfact>
</mgrwt>
</event>
<event>
 4    1 -0.5109406E-019  0.1494196E+02  0.7818608E-02  0.1869845E+00
         -2   -1    0    0    0  501 -0.00000000000E+00  0.00000000000E+00  0.11994088668E+03  0.11994088671E+03  0.25500000000E-02 0. -1.
          2   -1    0    0  501    0  0.00000000000E+00 -0.00000000000E+00 -0.46535523231E+00  0.46536221886E+00  0.25500000000E-02 0.  1.
         31    1    1    2    0    0  0.22790792207E+00 -0.48839014652E+00  0.57665233975E+02  0.58146612992E+02  0.74470750000E+01 0.  1.
        -31    1    1    2    0    0 -0.22790792207E+00  0.48839014652E+00  0.61810297476E+02  0.62259635938E+02  0.74470750000E+01 0.  1.
<mgrwt>
<rscale>  0 0.14941960E+02</rscale>
<asrwt>0</asrwt>
<pdfrwt beam="2">  1        2 0.98840122E+00 0.14941960E+02</pdfrwt>
<pdfrwt beam="1">  1       -2 0.99560311E+00 0.14941960E+02</pdfrwt>
<totfact>-0.20644070E-13</totfact>
</mgrwt>
</event>
<event>
 4    1  0.5109406E-019  0.1491206E+02  0.7818608E-02  0.1870764E+00
          2   -1    0    0  501    0  0.00000000000E+00  0.00000000000E+00  0.12006847374E+03  0.12006847377E+03  0.25500000000E-02 0. -1.
         -2   -1    0    0    0  501 -0.00000000000E+00 -0.00000000000E+00 -0.46300220642E+00  0.46300922847E+00  0.25500000000E-02 0.  1.
         31    1    1    2    0    0 -0.69421720037E-01 -0.41485433173E-01  0.56923089356E+02  0.57408218648E+02  0.74470750000E+01 0.  1.
        -31    1    1    2    0    0  0.69421720037E-01  0.41485433173E-01  0.62682382180E+02  0.63123264350E+02  0.74470750000E+01 0. -1.
<mgrwt>
<rscale>  0 0.14912061E+02</rscale>
<asrwt>0</asrwt>
<pdfrwt beam="1">  1        2 0.99663863E+00 0.14912061E+02</pdfrwt>
<pdfrwt beam="2">  1       -2 0.98342677E+00 0.14912061E+02</pdfrwt>
<totfact> 0.57552015E-13</totfact>
</mgrwt>
</event>
<event>
 4    1  0.5109406E-019  0.1489773E+02  0.7818608E-02  0.1871205E+00
          2   -1    0    0  501    0  0.00000000000E+00  0.00000000000E+00  0.11929694255E+03  0.11929694258E+03  0.25500000000E-02 0.  1.
         -2   -1    0    0    0  501 -0.00000000000E+00 -0.00000000000E+00 -0.46510154996E+00  0.46510854032E+00  0.25500000000E-02 0. -1.
         31    1    1    2    0    0  0.11942673888E+00 -0.70587312686E-01  0.60109404073E+02  0.60569122739E+02  0.74470750000E+01 0.  1.
        -31    1    1    2    0    0 -0.11942673888E+00  0.70587312686E-01  0.58722436926E+02  0.59192928378E+02  0.74470750000E+01 0. -1.
<mgrwt>
<rscale>  0 0.14897733E+02</rscale>
<asrwt>0</asrwt>
<pdfrwt beam="1">  1        2 0.99027643E+00 0.14897733E+02</pdfrwt>
<pdfrwt beam="2">  1       -2 0.98784390E+00 0.14897733E+02</pdfrwt>
<totfact> 0.24074557E-13</totfact>
</mgrwt>
</event>
<event>
 4    1  0.5109406E-019  0.1492315E+02  0.7818608E-02  0.1870423E+00
          2   -1    0    0  501    0  0.00000000000E+00  0.00000000000E+00  0.12043861440E+03  0.12043861442E+03  0.25500000000E-02 0. -1.
         -2   -1    0    0    0  501 -0.00000000000E+00 -0.00000000000E+00 -0.46226597092E+00  0.46227300415E+00  0.25500000000E-02 0.  1.
         31    1    1    2    0    0  0.23103928209E+00 -0.98473301446E-01  0.63158130012E+02  0.63596158602E+02  0.74470750000E+01 0. -1.
        -31    1    1    2    0    0 -0.23103928209E+00  0.98473301446E-01  0.56818218412E+02  0.57304728825E+02  0.74470750000E+01 0.  1.
<mgrwt>
<rscale>  0 0.14923150E+02</rscale>
<asrwt>0</asrwt>
<pdfrwt beam="1">  1        2 0.99969313E+00 0.14923150E+02</pdfrwt>
<pdfrwt beam="2">  1       -2 0.98188059E+00 0.14923150E+02</pdfrwt>
<totfact> 0.10214762E-13</totfact>
</mgrwt>
</event>
<event>
 4    1  0.5109406E-019  0.1490404E+02  0.7818608E-02  0.1871011E+00
         -2   -1    0    0    0  501 -0.00000000000E+00  0.00000000000E+00  0.11869214504E+03  0.11869214507E+03  0.25500000000E-02 0. -1.
          2   -1    0    0  501    0  0.00000000000E+00 -0.00000000000E+00 -0.46786765637E+00  0.46787460540E+00  0.25500000000E-02 0.  1.
         31    1    1    2    0    0  0.79609889369E-01  0.13469404267E+00  0.60886000552E+02  0.61339941877E+02  0.74470750000E+01 0. -1.
        -31    1    1    2    0    0 -0.79609889369E-01 -0.13469404267E+00  0.57338276834E+02  0.57820077798E+02  0.74470750000E+01 0.  1.
<mgrwt>
<rscale>  0 0.14904044E+02</rscale>
<asrwt>0</asrwt>
<pdfrwt beam="2">  1        2 0.99367610E+00 0.14904044E+02</pdfrwt>
<pdfrwt beam="1">  1       -2 0.98529841E+00 0.14904044E+02</pdfrwt>
<totfact> 0.49949643E-13</totfact>
</mgrwt>
</event>
<event>
 4    1 -0.5109406E-019  0.1501765E+02  0.7818608E-02  0.1867531E+00
         -2   -1    0    0    0  501 -0.00000000000E+00  0.00000000000E+00  0.12017898093E+03  0.12017898096E+03  0.25500000000E-02 0. -1.
          2   -1    0    0  501    0  0.00000000000E+00 -0.00000000000E+00 -0.46915022599E+00  0.46915715602E+00  0.25500000000E-02 0.  1.
         31    1    1    2    0    0 -0.89028343852E+00 -0.67786409744E-01  0.62709897651E+02  0.63156847523E+02  0.74470750000E+01 0. -1.
        -31    1    1    2    0    0  0.89028343852E+00  0.67786409744E-01  0.56999933051E+02  0.57491290588E+02  0.74470750000E+01 0. -1.
<mgrwt>
<rscale>  0 0.15017645E+02</rscale>
<asrwt>0</asrwt>
<pdfrwt beam="2">  1        2 0.99643784E+00 0.15017645E+02</pdfrwt>
<pdfrwt beam="1">  1       -2 0.99760322E+00 0.15017645E+02</pdfrwt>
<totfact>-0.67364255E-14</totfact>
</mgrwt>
</event>
<event>
 4    1 -0.5109406E-019  0.1492629E+02  0.7818608E-02  0.1870326E+00
         -2   -1    0    0    0  501 -0.00000000000E+00  0.00000000000E+00  0.12013683285E+03  0.12013683288E+03  0.25500000000E-02 0. -1.
          2   -1    0    0  501    0  0.00000000000E+00 -0.00000000000E+00 -0.46362198987E+00  0.46362900254E+00  0.25500000000E-02 0.  1.
         31    1    1    2    0    0  0.10434993736E+00 -0.47231598779E+00  0.59231722754E+02  0.59699998977E+02  0.74470750000E+01 0.  1.
        -31    1    1    2    0    0 -0.10434993736E+00  0.47231598779E+00  0.60441488104E+02  0.60900462901E+02  0.74470750000E+01 0. -1.
<mgrwt>
<rscale>  0 0.14926286E+02</rscale>
<asrwt>0</asrwt>
<pdfrwt beam="2">  1        2 0.98474028E+00 0.14926286E+02</pdfrwt>
<pdfrwt beam="1">  1       -2 0.99720900E+00 0.14926286E+02</pdfrwt>
<totfact>-0.27639267E-13</totfact>
</mgrwt>
</event>
<event>
 4    1 -0.5109406E-019  0.1494220E+02  0.7818608E-02  0.1869837E+00
          2   -1    0    0  501    0  0.00000000000E+00  0.00000000000E+00  0.11895615379E+03  0.11895615382E+03  0.25500000000E-02 0. -1.
         -2   -1    0    0    0  501 -0.00000000000E+00 -0.00000000000E+00 -0.46922290242E+00  0.46922983138E+00  0.25500000000E-02 0.  1.
         31    1    1    2    0    0  0.51923014348E+00  0.29789153041E+00  0.59162840487E+02  0.59632700424E+02  0.74470750000E+01 0.  1.
        -31    1    1    2    0    0 -0.51923014348E+00 -0.29789153041E+00  0.59324090399E+02  0.59792683224E+02  0.74470750000E+01 0. -1.
<mgrwt>
<rscale>  0 0.14942204E+02</rscale>
<asrwt>0</asrwt>
<pdfrwt beam="1">  1        2 0.98749263E+00 0.14942204E+02</pdfrwt>
<pdfrwt beam="2">  1       -2 0.99655176E+00 0.14942204E+02</pdfrwt>
<totfact>-0.20796883E-13</totfact>
</mgrwt>
</event>
<event>
 4    1  0.5109406E-019  0.1494883E+02  0.7818608E-02  0.1869634E+00
         -2   -1    0    0    0  501 -0.00000000000E+00  0.00000000000E+00  0.11919482846E+03  0.11919482849E+03  0.25500000000E-02 0. -1.
          2   -1    0    0  501    0  0.00000000000E+00 -0.00000000000E+00 -0.46869889135E+00  0.46870582805E+00  0.25500000000E-02 0.  1.
         31    1    1    2    0    0 -0.34126685030E+00  0.17801247380E+00  0.55282752626E+02  0.55783418822E+02  0.74470750000E+01 0.  1.
        -31    1    1    2    0    0  0.34126685030E+00 -0.17801247380E+00  0.63443376945E+02  0.63880115495E+02  0.74470750000E+01 0. -1.
<mgrwt>
<rscale>  0 0.14948833E+02</rscale>
<asrwt>0</asrwt>
<pdfrwt beam="2">  1        2 0.99545105E+00 0.14948833E+02</pdfrwt>
<pdfrwt beam="1">  1       -2 0.98946183E+00 0.14948833E+02</pdfrwt>
<totfact> 0.39076259E-14</totfact>
</mgrwt>
</event>
<event>
 4    1  0.5109406E-019  0.1495289E+02  0.7818608E-02  0.1869509E+00
         -2   -1    0    0    0  501 -0.00000000000E+00  0.00000000000E+00  0.11881307731E+03  0.11881307734E+03  0.25500000000E-02 0.  1.
          2   -1    0    0  501    0  0.00000000000E+00 -0.00000000000E+00 -0.47046019542E+00  0.47046710615E+00  0.25500000000E-02 0. -1.
         31    1    1    2    0    0  0.41843694442E-02  0.63782868426E+00  0.57756190969E+02  0.58237817303E+02  0.74470750000E+01 0. -1.
        -31    1    1    2    0    0 -0.41843694442E-02 -0.63782868426E+00  0.60586426147E+02  0.61045727142E+02  0.74470750000E+01 0. -1.
<mgrwt>
<rscale>  0 0.14952891E+02</rscale>
<asrwt>0</asrwt>
<pdfrwt beam="2">  1        2 0.99916443E+00 0.14952891E+02</pdfrwt>
<pdfrwt beam="1">  1       -2 0.98631980E+00 0.14952891E+02</pdfrwt>
<totfact> 0.83372532E-14</totfact>
</mgrwt>
</event>
<event>
 4    1 -0.5109406E-019  0.1499827E+02  0.7818608E-02  0.1868121E+00
          2   -1    0    0  501    0  0.00000000000E+00  0.00000000000E+00  0.11967681986E+03  0.11967681989E+03  0.25500000000E-02 0. -1.
         -2   -1    0    0    0  501 -0.00000000000E+00 -0.00000000000E+00 -0.46990423002E+00  0.46991114894E+00  0.25500000000E-02 0.  1.
         31    1    1    2    0    0 -0.18135585193E+00  0.75969116225E+00  0.56318927761E+02  0.56814527814E+02  0.74470750000E+01 0.  1.
        -31    1    1    2    0    0  0.18135585193E+00 -0.75969116225E+00  0.62887987868E+02  0.63332203220E+02  0.74470750000E+01 0. -1.
<mgrwt>
<rscale>  0 0.14998275E+02</rscale>
<asrwt>0</asrwt>
<pdfrwt beam="1">  1        2 0.99345723E+00 0.14998275E+02</pdfrwt>
<pdfrwt beam="2">  1       -2 0.99801672E+00 0.14998275E+02</pdfrwt>
<totfact>-0.80445131E-14</totfact>
</mgrwt>
</event>
<event>
 4    1  0.5109406E-019  0.1490924E+02  0.7818608E-02  0.1870851E+00
         -2   -1    0    0    0  501 -0.00000000000E+00  0.00000000000E+00  0.11895080253E+03  0.11895080256E+03  0.25500000000E-02 0. -1.
          2   -1    0    0  501    0  0.00000000000E+00 -0.00000000000E+00 -0.46717559043E+00  0.46718254975E+00  0.25500000000E-02 0.  1.
         31    1    1    2    0    0 -0.33488402690E+00 -0.42123362469E-02  0.59365239739E+02  0.59831453102E+02  0.74470750000E+01 0. -1.
        -31    1    1    2    0    0  0.33488402690E+00  0.42123362469E-02  0.59118387199E+02  0.59586532002E+02  0.74470750000E+01 0. -1.
<mgrwt>
<rscale>  0 0.14909236E+02</rscale>
<asrwt>0</asrwt>
<pdfrwt beam="2">  1        2 0.99222051E+00 0.14909236E+02</pdfrwt>
<pdfrwt beam="1">  1       -2 0.98743145E+00 0.14909236E+02</pdfrwt>
<totfact> 0.25352866E-13</totfact>
</mgrwt>
</event>
<event>
 4    1 -0.5109406E-019  0.1497914E+02  0.7818608E-02  0.1868706E+00
          2   -1    0    0  501    0  0.00000000000E+00  0.00000000000E+00  0.11987406305E+03  0.11987406307E+03  0.25500000000E-02 0. -1.
         -2   -1    0    0    0  501 -0.00000000000E+00 -0.00000000000E+00 -0.46793481081E+00  0.46794175884E+00  0.25500000000E-02 0.  1.
         31    1    1    2    0    0 -0.23565440212E-01 -0.71884476701E+00  0.62456356131E+02  0.62902882607E+02  0.74470750000E+01 0. -1.
        -31    1    1    2    0    0  0.23565440212E-01  0.71884476701E+00  0.56949772105E+02  0.57439122225E+02  0.74470750000E+01 0.  1.
<mgrwt>
<rscale>  0 0.14979141E+02</rscale>
<asrwt>0</asrwt>
<pdfrwt beam="1">  1        2 0.99507189E+00 0.14979141E+02</pdfrwt>
<pdfrwt beam="2">  1       -2 0.99385664E+00 0.14979141E+02</pdfrwt>
<totfact>-0.11463164E-13</totfact>
</mgrwt>
</event>
<event>
 4    1  0.5109406E-019  0.1489736E+02  0.7818608E-02  0.1871217E+00
         -2   -1    0    0    0  501 -0.00000000000E+00  0.00000000000E+00  0.11884444003E+03  0.11884444006E+03  0.25500000000E-02 0. -1.
          2   -1    0    0  501    0  0.00000000000E+00 -0.00000000000E+00 -0.46684895703E+00  0.46685592122E+00  0.25500000000E-02 0.  1.
         31    1    1    2    0    0 -0.45213837591E-01 -0.86411262621E-01  0.60149285090E+02  0.60608620956E+02  0.74470750000E+01 0. -1.
        -31    1    1    2    0    0  0.45213837591E-01  0.86411262621E-01  0.58228305982E+02  0.58702675023E+02  0.74470750000E+01 0.  1.
<mgrwt>
<rscale>  0 0.14897358E+02</rscale>
<asrwt>0</asrwt>
<pdfrwt beam="2">  1        2 0.99152603E+00 0.14897358E+02</pdfrwt>
<pdfrwt beam="1">  1       -2 0.98654927E+00 0.14897358E+02</pdfrwt>
<totfact> 0.38609674E-13</totfact>
</mgrwt>
</event>
<event>
 4    1 -0.5109406E-019  0.1496914E+02  0.7818608E-02  0.1869012E+00
         -2   -1    0    0    0  501 -0.00000000000E+00  0.00000000000E+00  0.11941708509E+03  0.11941708512E+03  0.25500000000E-02 0.  1.
          2   -1    0    0  501    0  0.00000000000E+00 -0.00000000000E+00 -0.46909857156E+00  0.46910550235E+00  0.25500000000E-02 0. -1.
         31    1    1    2    0    0 -0.24985481334E+00 -0.70487829843E-01  0.65094379524E+02  0.65519497615E+02  0.74470750000E+01 0.  1.
        -31    1    1    2    0    0  0.24985481334E+00  0.70487829843E-01  0.53853606995E+02  0.54366693006E+02  0.74470750000E+01 0. -1.
<mgrwt>
<rscale>  0 0.14969142E+02</rscale>
<asrwt>0</asrwt>
<pdfrwt beam="2">  1        2 0.99630385E+00 0.14969142E+02</pdfrwt>
<pdfrwt beam="1">  1       -2 0.99130290E+00 0.14969142E+02</pdfrwt>
<totfact>-0.45842135E-14</totfact>
</mgrwt>
</event>
<event>
 4    1 -0.5109406E-019  0.1491545E+02  0.7818608E-02  0.1870660E+00
          2   -1    0    0  501    0  0.00000000000E+00  0.00000000000E+00  0.11883713739E+03  0.11883713742E+03  0.25500000000E-02 0.  1.
         -2   -1    0    0    0  501 -0.00000000000E+00 -0.00000000000E+00 -0.46801243405E+00  0.46801938093E+00  0.25500000000E-02 0. -1.
         31    1    1    2    0    0 -0.27708027712E-02 -0.29913949656E+00  0.57079568594E+02  0.57564099655E+02  0.74470750000E+01 0. -1.
        -31    1    1    2    0    0  0.27708027712E-02  0.29913949656E+00  0.61289556361E+02  0.61741057142E+02  0.74470750000E+01 0.  1.
<mgrwt>
<rscale>  0 0.14915452E+02</rscale>
<asrwt>0</asrwt>
<pdfrwt beam="1">  1        2 0.98649851E+00 0.14915452E+02</pdfrwt>
<pdfrwt beam="2">  1       -2 0.99398713E+00 0.14915452E+02</pdfrwt>
<totfact>-0.26877249E-13</totfact>
</mgrwt>
</event>
<event>
 4    1 -0.5109406E-019  0.1496318E+02  0.7818608E-02  0.1869194E+00
         -2   -1    0    0    0  501 -0.00000000000E+00  0.00000000000E+00  0.11966785866E+03  0.11966785869E+03  0.25500000000E-02 0. -1.
          2   -1    0    0  501    0  0.00000000000E+00 -0.00000000000E+00 -0.46774285182E+00  0.46774980270E+00  0.25500000000E-02 0.  1.
         31    1    1    2    0    0  0.63559583260E+00  0.87765718811E-01  0.57015927300E+02  0.57503796195E+02  0.74470750000E+01 0. -1.
        -31    1    1    2    0    0 -0.63559583260E+00 -0.87765718811E-01  0.62184188509E+02  0.62631812295E+02  0.74470750000E+01 0. -1.
<mgrwt>
<rscale>  0 0.14963182E+02</rscale>
<asrwt>0</asrwt>
<pdfrwt beam="2">  1        2 0.99344387E+00 0.14963182E+02</pdfrwt>
<pdfrwt beam="1">  1       -2 0.99336527E+00 0.14963182E+02</pdfrwt>
<totfact>-0.12529887E-13</totfact>
</mgrwt>
</event>
<event>
 4    1  0.5109406E-019  0.1490743E+02  0.7818608E-02  0.1870907E+00
          2   -1    0    0  501    0  0.00000000000E+00  0.00000000000E+00  0.11991133804E+03  0.11991133807E+03  0.25500000000E-02 0.  1.
         -2   -1    0    0    0  501 -0.00000000000E+00 -0.00000000000E+00 -0.46332089161E+00  0.46332790883E+00  0.25500000000E-02 0. -1.
         31    1    1    2    0    0  0.44726095186E-01  0.19107977249E+00  0.57739278488E+02  0.58217881430E+02  0.74470750000E+01 0. -1.
        -31    1    1    2    0    0 -0.44726095186E-01 -0.19107977249E+00  0.61708738665E+02  0.62156784550E+02  0.74470750000E+01 0.  1.
<mgrwt>
<rscale>  0 0.14907428E+02</rscale>
<asrwt>0</asrwt>
<pdfrwt beam="1">  1        2 0.99534196E+00 0.14907428E+02</pdfrwt>
<pdfrwt beam="2">  1       -2 0.98409610E+00 0.14907428E+02</pdfrwt>
<totfact> 0.59369682E-13</totfact>
</mgrwt>
</event>
<event>
 4    1 -0.5109406E-019  0.1492966E+02  0.7818608E-02  0.1870222E+00
          2   -1    0    0  501    0  0.00000000000E+00  0.00000000000E+00  0.11918340324E+03  0.11918340327E+03  0.25500000000E-02 0. -1.
         -2   -1    0    0    0  501 -0.00000000000E+00 -0.00000000000E+00 -0.46754246087E+00  0.46754941473E+00  0.25500000000E-02 0.  1.
         31    1    1    2    0    0  0.39857791438E+00 -0.10272152103E-01  0.56750835079E+02  0.57238755910E+02  0.74470750000E+01 0.  1.
        -31    1    1    2    0    0 -0.39857791438E+00  0.10272152103E-01  0.61965025700E+02  0.62412196772E+02  0.74470750000E+01 0. -1.
<mgrwt>
<rscale>  0 0.14929664E+02</rscale>
<asrwt>0</asrwt>
<pdfrwt beam="1">  1        2 0.98935779E+00 0.14929664E+02</pdfrwt>
<pdfrwt beam="2">  1       -2 0.99300422E+00 0.14929664E+02</pdfrwt>
<totfact>-0.16543108E-13</totfact>
</mgrwt>
</event>
<event>
 4    1 -0.5109406E-019  0.1500031E+02  0.7818608E-02  0.1868059E+00
          2   -1    0    0  501    0  0.00000000000E+00  0.00000000000E+00  0.12008773151E+03  0.12008773154E+03  0.25500000000E-02 0. -1.
         -2   -1    0    0    0  501 -0.00000000000E+00 -0.00000000000E+00 -0.46842358492E+00  0.46843052570E+00  0.25500000000E-02 0.  1.
         31    1    1    2    0    0  0.62444251440E+00 -0.60913521952E+00  0.61257312783E+02  0.61714489948E+02  0.74470750000E+01 0. -1.
        -31    1    1    2    0    0 -0.62444251440E+00  0.60913521952E+00  0.58361995142E+02  0.58841672115E+02  0.74470750000E+01 0. -1.
<mgrwt>
<rscale>  0 0.15000313E+02</rscale>
<asrwt>0</asrwt>
<pdfrwt beam="1">  1        2 0.99684270E+00 0.15000313E+02</pdfrwt>
<pdfrwt beam="2">  1       -2 0.99489759E+00 0.15000313E+02</pdfrwt>
<totfact>-0.91250038E-14</totfact>
</mgrwt>
</event>
<event>
 4    1 -0.5109406E-019  0.1499216E+02  0.7818608E-02  0.1868308E+00
         -2   -1    0    0    0  501 -0.00000000000E+00  0.00000000000E+00  0.11960870374E+03  0.11960870377E+03  0.25500000000E-02 0.  1.
          2   -1    0    0  501    0  0.00000000000E+00 -0.00000000000E+00 -0.46978826604E+00  0.46979518666E+00  0.25500000000E-02 0. -1.
         31    1    1    2    0    0  0.87037160986E-01  0.76275312282E+00  0.56541845171E+02  0.57035327203E+02  0.74470750000E+01 0. -1.
        -31    1    1    2    0    0 -0.87037160986E-01 -0.76275312282E+00  0.62597070302E+02  0.63043171750E+02  0.74470750000E+01 0.  1.
<mgrwt>
<rscale>  0 0.14992156E+02</rscale>
<asrwt>0</asrwt>
<pdfrwt beam="2">  1        2 0.99776917E+00 0.14992156E+02</pdfrwt>
<pdfrwt beam="1">  1       -2 0.99289304E+00 0.14992156E+02</pdfrwt>
<totfact>-0.60547790E-14</totfact>
</mgrwt>
</event>
<event>
 4    1  0.5109406E-019  0.1490481E+02  0.7818608E-02  0.1870987E+00
         -2   -1    0    0    0  501 -0.00000000000E+00  0.00000000000E+00  0.11827293289E+03  0.11827293292E+03  0.25500000000E-02 0. -1.
          2   -1    0    0  501    0  0.00000000000E+00 -0.00000000000E+00 -0.46957454072E+00  0.46958146449E+00  0.25500000000E-02 0.  1.
         31    1    1    2    0    0 -0.14524425870E+00  0.53457543391E-01  0.57024992871E+02  0.57509413939E+02  0.74470750000E+01 0.  1.
        -31    1    1    2    0    0  0.14524425870E+00 -0.53457543391E-01  0.60778365477E+02  0.61233100442E+02  0.74470750000E+01 0. -1.
<mgrwt>
<rscale>  0 0.14904814E+02</rscale>
<asrwt>0</asrwt>
<pdfrwt beam="2">  1        2 0.99727298E+00 0.14904814E+02</pdfrwt>
<pdfrwt beam="1">  1       -2 0.98184619E+00 0.14904814E+02</pdfrwt>
<totfact> 0.69941530E-13</totfact>
</mgrwt>
</event>
<event>
 4    1 -0.5109406E-019  0.1492944E+02  0.7818608E-02  0.1870229E+00
         -2   -1    0    0    0  501 -0.00000000000E+00  0.00000000000E+00  0.11996117971E+03  0.11996117973E+03  0.25500000000E-02 0. -1.
          2   -1    0    0  501    0  0.00000000000E+00 -0.00000000000E+00 -0.46449742121E+00  0.46450442065E+00  0.25500000000E-02 0.  1.
         31    1    1    2    0    0 -0.14400852191E+00  0.49232128671E+00  0.59699310455E+02  0.60164189627E+02  0.74470750000E+01 0.  1.
        -31    1    1    2    0    0  0.14400852191E+00 -0.49232128671E+00  0.59797371830E+02  0.60261494526E+02  0.74470750000E+01 0.  1.
<mgrwt>
<rscale>  0 0.14929445E+02</rscale>
<asrwt>0</asrwt>
<pdfrwt beam="2">  1        2 0.98658695E+00 0.14929445E+02</pdfrwt>
<pdfrwt beam="1">  1       -2 0.99576381E+00 0.14929445E+02</pdfrwt>
<totfact>-0.26043261E-13</totfact>
</mgrwt>
</event>
<event>
 4    1  0.5109406E-019  0.1493070E+02  0.7818608E-02  0.1870191E+00
         -2   -1    0    0    0  501 -0.00000000000E+00  0.00000000000E+00  0.11914755391E+03  0.11914755394E+03  0.25500000000E-02 0. -1.
          2   -1    0    0  501    0  0.00000000000E+00 -0.00000000000E+00 -0.46774810506E+00  0.46775505587E+00  0.25500000000E-02 0.  1.
         31    1    1    2    0    0  0.32945501842E+00 -0.37779288259E+00  0.60508183707E+02  0.60966798256E+02  0.74470750000E+01 0.  1.
        -31    1    1    2    0    0 -0.32945501842E+00  0.37779288259E+00  0.58171622101E+02  0.58648510740E+02  0.74470750000E+01 0.  1.
<mgrwt>
<rscale>  0 0.14930701E+02</rscale>
<asrwt>0</asrwt>
<pdfrwt beam="2">  1        2 0.99343810E+00 0.14930701E+02</pdfrwt>
<pdfrwt beam="1">  1       -2 0.98906307E+00 0.14930701E+02</pdfrwt>
<totfact> 0.77734665E-14</totfact>
</mgrwt>
</event>
<event>
 4    1 -0.5109406E-019  0.1489787E+02  0.7818608E-02  0.1871201E+00
         -2   -1    0    0    0  501 -0.00000000000E+00  0.00000000000E+00  0.11960861839E+03  0.11960861842E+03  0.25500000000E-02 0. -1.
          2   -1    0    0  501    0  0.00000000000E+00 -0.00000000000E+00 -0.46389814365E+00  0.46390515213E+00  0.25500000000E-02 0.  1.
         31    1    1    2    0    0 -0.44746796728E-01  0.15496337929E+00  0.59240396932E+02  0.59706863681E+02  0.74470750000E+01 0.  1.
        -31    1    1    2    0    0  0.44746796728E-01 -0.15496337929E+00  0.59904323313E+02  0.60365659887E+02  0.74470750000E+01 0.  1.
<mgrwt>
<rscale>  0 0.14897871E+02</rscale>
<asrwt>0</asrwt>
<pdfrwt beam="2">  1        2 0.98530783E+00 0.14897871E+02</pdfrwt>
<pdfrwt beam="1">  1       -2 0.99284364E+00 0.14897871E+02</pdfrwt>
<totfact>-0.27826362E-13</totfact>
</mgrwt>
</event>
<event>
 4    1 -0.5109406E-019  0.1489741E+02  0.7818608E-02  0.1871215E+00
         -2   -1    0    0    0  501 -0.00000000000E+00  0.00000000000E+00  0.12028410951E+03  0.12028410954E+03  0.25500000000E-02 0.  1.
          2   -1    0    0  501    0  0.00000000000E+00 -0.00000000000E+00 -0.46126427428E+00  0.46127132278E+00  0.25500000000E-02 0. -1.
         31    1    1    2    0    0  0.12350322542E+00  0.94708952585E-01  0.59963170041E+02  0.60424042485E+02  0.74470750000E+01 0.  1.
        -31    1    1    2    0    0 -0.12350322542E+00 -0.94708952585E-01  0.59859675197E+02  0.60321338377E+02  0.74470750000E+01 0. -1.
<mgrwt>
<rscale>  0 0.14897408E+02</rscale>
<asrwt>0</asrwt>
<pdfrwt beam="2">  1        2 0.97975627E+00 0.14897408E+02</pdfrwt>
<pdfrwt beam="1">  1       -2 0.99840729E+00 0.14897408E+02</pdfrwt>
<totfact>-0.40960780E-13</totfact>
</mgrwt>
</event>
<event>
 4    1  0.5109406E-019  0.1494348E+02  0.7818608E-02  0.1869798E+00
          2   -1    0    0  501    0  0.00000000000E+00  0.00000000000E+00  0.12023194503E+03  0.12023194505E+03  0.25500000000E-02 0. -1.
         -2   -1    0    0    0  501 -0.00000000000E+00 -0.00000000000E+00 -0.46432324517E+00  0.46433024724E+00  0.25500000000E-02 0.  1.
         31    1    1    2    0    0  0.10295175248E-01  0.59140698185E+00  0.60970944762E+02  0.61426906966E+02  0.74470750000E+01 0. -1.
        -31    1    1    2    0    0 -0.10295175248E-01 -0.59140698185E+00  0.58796677020E+02  0.59269368335E+02  0.74470750000E+01 0.  1.
<mgrwt>
<rscale>  0 0.14943482E+02</rscale>
<asrwt>0</asrwt>
<pdfrwt beam="1">  1        2 0.99800125E+00 0.14943482E+02</pdfrwt>
<pdfrwt beam="2">  1       -2 0.98622700E+00 0.14943482E+02</pdfrwt>
<totfact> 0.18116004E-13</totfact>
</mgrwt>
</event>
<event>
 4    1 -0.5109406E-019  0.1492049E+02  0.7818608E-02  0.1870505E+00
          2   -1    0    0  501    0  0.00000000000E+00  0.00000000000E+00  0.11859105493E+03  0.11859105495E+03  0.25500000000E-02 0. -1.
         -2   -1    0    0    0  501 -0.00000000000E+00 -0.00000000000E+00 -0.46930025778E+00  0.46930718559E+00  0.25500000000E-02 0.  1.
         31    1    1    2    0    0 -0.19063777099E+00 -0.39506481937E+00  0.59558034079E+02  0.60023418500E+02  0.74470750000E+01 0. -1.
        -31    1    1    2    0    0  0.19063777099E+00  0.39506481937E+00  0.58563720590E+02  0.59036943640E+02  0.74470750000E+01 0. -1.
<mgrwt>
<rscale>  0 0.14920486E+02</rscale>
<asrwt>0</asrwt>
<pdfrwt beam="1">  1        2 0.98447438E+00 0.14920486E+02</pdfrwt>
<pdfrwt beam="2">  1       -2 0.99670334E+00 0.14920486E+02</pdfrwt>
<totfact>-0.32126949E-13</totfact>
</mgrwt>
</event>
<event>
 4    1 -0.5109406E-019  0.1498818E+02  0.7818608E-02  0.1868429E+00
          2   -1    0    0  501    0  0.00000000000E+00  0.00000000000E+00  0.11998703162E+03  0.11998703165E+03  0.25500000000E-02 0. -1.
         -2   -1    0    0    0  501 -0.00000000000E+00 -0.00000000000E+00 -0.46805866888E+00  0.46806561507E+00  0.25500000000E-02 0.  1.
         31    1    1    2    0    0  0.82697379254E+00 -0.29081782023E-01  0.60829687240E+02  0.61289432264E+02  0.74470750000E+01 0.  1.
        -31    1    1    2    0    0 -0.82697379254E+00  0.29081782023E-01  0.58689285710E+02  0.59165664997E+02  0.74470750000E+01 0. -1.
<mgrwt>
<rscale>  0 0.14988181E+02</rscale>
<asrwt>0</asrwt>
<pdfrwt beam="1">  1        2 0.99600702E+00 0.14988181E+02</pdfrwt>
<pdfrwt beam="2">  1       -2 0.99412232E+00 0.14988181E+02</pdfrwt>
<totfact>-0.10393000E-13</totfact>
</mgrwt>
</event>
<event>
 4    1  0.5109406E-019  0.1493831E+02  0.7818608E-02  0.1869957E+00
         -2   -1    0    0    0  501 -0.00000000000E+00  0.00000000000E+00  0.11871970777E+03  0.11871970780E+03  0.25500000000E-02 0.  1.
          2   -1    0    0  501    0  0.00000000000E+00 -0.00000000000E+00 -0.46991260458E+00  0.46991952337E+00  0.25500000000E-02 0. -1.
         31    1    1    2    0    0 -0.76285915168E-01  0.56878231764E+00  0.59073109140E+02  0.59543433579E+02  0.74470750000E+01 0. -1.
        -31    1    1    2    0    0  0.76285915168E-01 -0.56878231764E+00  0.59176686030E+02  0.59646193746E+02  0.74470750000E+01 0.  1.
<mgrwt>
<rscale>  0 0.14938313E+02</rscale>
<asrwt>0</asrwt>
<pdfrwt beam="2">  1        2 0.99800296E+00 0.14938313E+02</pdfrwt>
<pdfrwt beam="1">  1       -2 0.98554323E+00 0.14938313E+02</pdfrwt>
<totfact> 0.22657503E-13</totfact>
</mgrwt>
</event>
<event>
 4    1 -0.5109406E-019  0.1490779E+02  0.7818608E-02  0.1870896E+00
          2   -1    0    0  501    0  0.00000000000E+00  0.00000000000E+00  0.11889829861E+03  0.11889829864E+03  0.25500000000E-02 0.  1.
         -2   -1    0    0    0  501 -0.00000000000E+00 -0.00000000000E+00 -0.46729094750E+00  0.46729790511E+00  0.25500000000E-02 0. -1.
         31    1    1    2    0    0  0.29601865258E+00 -0.81606622601E-01  0.58531262209E+02  0.59003914010E+02  0.74470750000E+01 0. -1.
        -31    1    1    2    0    0 -0.29601865258E+00  0.81606622601E-01  0.59899745457E+02  0.60361682535E+02  0.74470750000E+01 0.  1.
<mgrwt>
<rscale>  0 0.14907785E+02</rscale>
<asrwt>0</asrwt>
<pdfrwt beam="1">  1        2 0.98699827E+00 0.14907785E+02</pdfrwt>
<pdfrwt beam="2">  1       -2 0.99246283E+00 0.14907785E+02</pdfrwt>
<totfact>-0.19659636E-13</totfact>
</mgrwt>
</event>
<event>
 4    1  0.5109406E-019  0.1492113E+02  0.7818608E-02  0.1870485E+00
         -2   -1    0    0    0  501 -0.00000000000E+00  0.00000000000E+00  0.11832382032E+03  0.11832382035E+03  0.25500000000E-02 0. -1.
          2   -1    0    0  501    0  0.00000000000E+00 -0.00000000000E+00 -0.47040097785E+00  0.47040788946E+00  0.25500000000E-02 0.  1.
         31    1    1    2    0    0 -0.16704663270E+00  0.33186353266E+00  0.56926985773E+02  0.57413227337E+02  0.74470750000E+01 0. -1.
        -31    1    1    2    0    0  0.16704663270E+00 -0.33186353266E+00  0.60926433570E+02  0.61381000900E+02  0.74470750000E+01 0. -1.
<mgrwt>
<rscale>  0 0.14921133E+02</rscale>
<asrwt>0</asrwt>
<pdfrwt beam="2">  1        2 0.99902287E+00 0.14921133E+02</pdfrwt>
<pdfrwt beam="1">  1       -2 0.98227380E+00 0.14921133E+02</pdfrwt>
<totfact> 0.27913153E-13</totfact>
</mgrwt>
</event>
<event>
 4    1  0.5109406E-019  0.1492030E+02  0.7818608E-02  0.1870510E+00
          2   -1    0    0  501    0  0.00000000000E+00  0.00000000000E+00  0.11998824044E+03  0.11998824046E+03  0.25500000000E-02 0. -1.
         -2   -1    0    0    0  501 -0.00000000000E+00 -0.00000000000E+00 -0.46382362638E+00  0.46383063600E+00  0.25500000000E-02 0.  1.
         31    1    1    2    0    0  0.19404925456E+00 -0.19326675134E+00  0.56967126000E+02  0.57452479302E+02  0.74470750000E+01 0.  1.
        -31    1    1    2    0    0 -0.19404925456E+00  0.19326675134E+00  0.62557290810E+02  0.62999591798E+02  0.74470750000E+01 0.  1.
<mgrwt>
<rscale>  0 0.14920296E+02</rscale>
<asrwt>0</asrwt>
<pdfrwt beam="1">  1        2 0.99598200E+00 0.14920296E+02</pdfrwt>
<pdfrwt beam="2">  1       -2 0.98516221E+00 0.14920296E+02</pdfrwt>
<totfact> 0.41057070E-13</totfact>
</mgrwt>
</event>
<event>
 4    1  0.5109406E-019  0.1489853E+02  0.7818608E-02  0.1871181E+00
          2   -1    0    0  501    0  0.00000000000E+00  0.00000000000E+00  0.12023863747E+03  0.12023863750E+03  0.25500000000E-02 0.  1.
         -2   -1    0    0    0  501 -0.00000000000E+00 -0.00000000000E+00 -0.46150852994E+00  0.46151557472E+00  0.25500000000E-02 0. -1.
         31    1    1    2    0    0  0.15337682472E+00  0.76520950359E-01  0.59424749044E+02  0.59889808022E+02  0.74470750000E+01 0. -1.
        -31    1    1    2    0    0 -0.15337682472E+00 -0.76520950359E-01  0.60352379899E+02  0.60810345053E+02  0.74470750000E+01 0. -1.
<mgrwt>
<rscale>  0 0.14898535E+02</rscale>
<asrwt>0</asrwt>
<pdfrwt beam="1">  1        2 0.99803332E+00 0.14898535E+02</pdfrwt>
<pdfrwt beam="2">  1       -2 0.98027168E+00 0.14898535E+02</pdfrwt>
<totfact> 0.73211474E-13</totfact>
</mgrwt>
</event>
<event>
 4    1  0.5109406E-019  0.1492386E+02  0.7818608E-02  0.1870401E+00
         -2   -1    0    0    0  501 -0.00000000000E+00  0.00000000000E+00  0.11882170573E+03  0.11882170575E+03  0.25500000000E-02 0.  1.
          2   -1    0    0  501    0  0.00000000000E+00 -0.00000000000E+00 -0.46860117715E+00  0.46860811530E+00  0.25500000000E-02 0. -1.
         31    1    1    2    0    0 -0.18231178450E+00  0.29669499161E+00  0.61706960031E+02  0.62155684437E+02  0.74470750000E+01 0.  1.
        -31    1    1    2    0    0  0.18231178450E+00 -0.29669499161E+00  0.56646144519E+02  0.57134629433E+02  0.74470750000E+01 0. -1.
<mgrwt>
<rscale>  0 0.14923861E+02</rscale>
<asrwt>0</asrwt>
<pdfrwt beam="2">  1        2 0.99523210E+00 0.14923861E+02</pdfrwt>
<pdfrwt beam="1">  1       -2 0.98637578E+00 0.14923861E+02</pdfrwt>
<totfact> 0.30531569E-13</totfact>
</mgrwt>
</event>
<event>
 4    1 -0.5109406E-019  0.1500812E+02  0.7818608E-02  0.1867821E+00
          2   -1    0    0  501    0  0.00000000000E+00  0.00000000000E+00  0.11995008393E+03  0.11995008396E+03  0.25500000000E-02 0. -1.
         -2   -1    0    0    0  501 -0.00000000000E+00 -0.00000000000E+00 -0.46944931252E+00  0.46945623814E+00  0.25500000000E-02 0.  1.
         31    1    1    2    0    0  0.58665548237E+00 -0.20551588831E+00  0.54265548119E+02  0.54777687430E+02  0.74470750000E+01 0.  1.
        -31    1    1    2    0    0 -0.58665548237E+00  0.20551588831E+00  0.65215086501E+02  0.65641852768E+02  0.74470750000E+01 0. -1.
<mgrwt>
<rscale>  0 0.15008118E+02</rscale>
<asrwt>0</asrwt>
<pdfrwt beam="1">  1        2 0.99571301E+00 0.15008118E+02</pdfrwt>
<pdfrwt beam="2">  1       -2 0.99706319E+00 0.15008118E+02</pdfrwt>
<totfact>-0.86766345E-14</totfact>
</mgrwt>
</event>
<event>
 4    1 -0.5109406E-019  0.1495132E+02  0.7818608E-02  0.1869558E+00
          2   -1    0    0  501    0  0.00000000000E+00  0.00000000000E+00  0.11936939580E+03  0.11936939583E+03  0.25500000000E-02 0. -1.
         -2   -1    0    0    0  501 -0.00000000000E+00 -0.00000000000E+00 -0.46816940177E+00  0.46817634632E+00  0.25500000000E-02 0.  1.
         31    1    1    2    0    0 -0.36456719889E+00  0.47593551344E+00  0.61527867044E+02  0.61979809397E+02  0.74470750000E+01 0.  1.
        -31    1    1    2    0    0  0.36456719889E+00 -0.47593551344E+00  0.57373359352E+02  0.57857762774E+02  0.74470750000E+01 0. -1.
<mgrwt>
<rscale>  0 0.14951323E+02</rscale>
<asrwt>0</asrwt>
<pdfrwt beam="1">  1        2 0.99090089E+00 0.14951323E+02</pdfrwt>
<pdfrwt beam="2">  1       -2 0.99433660E+00 0.14951323E+02</pdfrwt>
<totfact>-0.16405605E-13</totfact>
</mgrwt>
</event>
<event>
 4    1  0.5109406E-019  0.1490411E+02  0.7818608E-02  0.1871009E+00
          2   -1    0    0  501    0  0.00000000000E+00  0.00000000000E+00  0.12004387076E+03  0.12004387079E+03  0.25500000000E-02 0. -1.
         -2   -1    0    0    0  501 -0.00000000000E+00 -0.00000000000E+00 -0.46260326055E+00  0.46261028866E+00  0.25500000000E-02 0.  1.
         31    1    1    2    0    0  0.11855273685E+00  0.62837485509E-01  0.57874163457E+02  0.58351484345E+02  0.74470750000E+01 0.  1.
        -31    1    1    2    0    0 -0.11855273685E+00 -0.62837485509E-01  0.61707104041E+02  0.62154996729E+02  0.74470750000E+01 0. -1.
<mgrwt>
<rscale>  0 0.14904108E+02</rscale>
<asrwt>0</asrwt>
<pdfrwt beam="1">  1        2 0.99643190E+00 0.14904108E+02</pdfrwt>
<pdfrwt beam="2">  1       -2 0.98258189E+00 0.14904108E+02</pdfrwt>
<totfact> 0.71966779E-13</totfact>
</mgrwt>
</event>
<event>
 4    1 -0.5109406E-019  0.1495062E+02  0.7818608E-02  0.1869579E+00
          2   -1    0    0  501    0  0.00000000000E+00  0.00000000000E+00  0.11963556532E+03  0.11963556535E+03  0.25500000000E-02 0.  1.
         -2   -1    0    0    0  501 -0.00000000000E+00 -0.00000000000E+00 -0.46708408021E+00  0.46709104090E+00  0.25500000000E-02 0. -1.
         31    1    1    2    0    0  0.47667566908E+00 -0.43466108628E+00  0.59004305638E+02  0.59475904027E+02  0.74470750000E+01 0. -1.
        -31    1    1    2    0    0 -0.47667566908E+00  0.43466108628E+00  0.60164175606E+02  0.60626752366E+02  0.74470750000E+01 0.  1.
<mgrwt>
<rscale>  0 0.14950624E+02</rscale>
<asrwt>0</asrwt>
<pdfrwt beam="1">  1        2 0.99309279E+00 0.14950624E+02</pdfrwt>
<pdfrwt beam="2">  1       -2 0.99204912E+00 0.14950624E+02</pdfrwt>
<totfact>-0.94160692E-14</totfact>
</mgrwt>
</event>
<event>
 4    1  0.5109406E-019  0.1496649E+02  0.7818608E-02  0.1869093E+00
          2   -1    0    0  501    0  0.00000000000E+00  0.00000000000E+00  0.12024715336E+03  0.12024715339E+03  0.25500000000E-02 0. -1.
         -2   -1    0    0    0  501 -0.00000000000E+00 -0.00000000000E+00 -0.46569559103E+00  0.46570257247E+00  0.25500000000E-02 0.  1.
         31    1    1    2    0    0  0.25584994131E+00  0.26137863971E+00  0.54749694775E+02  0.55255061144E+02  0.74470750000E+01 0.  1.
        -31    1    1    2    0    0 -0.25584994131E+00 -0.26137863971E+00  0.65031762995E+02  0.65457794817E+02  0.74470750000E+01 0. -1.
<mgrwt>
<rscale>  0 0.14966495E+02</rscale>
<asrwt>0</asrwt>
<pdfrwt beam="1">  1        2 0.99813835E+00 0.14966495E+02</pdfrwt>
<pdfrwt beam="2">  1       -2 0.98913107E+00 0.14966495E+02</pdfrwt>
<totfact> 0.32837345E-14</totfact>
</mgrwt>
</event>
<event>
 4    1 -0.5109406E-019  0.1501272E+02  0.7818608E-02  0.1867681E+00
          2   -1    0    0  501    0  0.00000000000E+00  0.00000000000E+00  0.11975577291E+03  0.11975577294E+03  0.25500000000E-02 0.  1.
         -2   -1    0    0    0  501 -0.00000000000E+00 -0.00000000000E+00 -0.47049950395E+00  0.47050641411E+00  0.25500000000E-02 0. -1.
         31    1    1    2    0    0  0.26422849448E+00 -0.78046305397E+00  0.55993951943E+02  0.56493013015E+02  0.74470750000E+01 0. -1.
        -31    1    1    2    0    0 -0.26422849448E+00  0.78046305397E+00  0.63291321462E+02  0.63733266335E+02  0.74470750000E+01 0.  1.
<mgrwt>
<rscale>  0 0.15012721E+02</rscale>
<asrwt>0</asrwt>
<pdfrwt beam="1">  1        2 0.99411500E+00 0.15012721E+02</pdfrwt>
<pdfrwt beam="2">  1       -2 0.99927861E+00 0.15012721E+02</pdfrwt>
<totfact>-0.31054685E-14</totfact>
</mgrwt>
</event>
<event>
 4    1 -0.5109406E-019  0.1497073E+02  0.7818608E-02  0.1868963E+00
         -2   -1    0    0    0  501 -0.00000000000E+00  0.00000000000E+00  0.11955171865E+03  0.11955171867E+03  0.25500000000E-02 0.  1.
          2   -1    0    0  501    0  0.00000000000E+00 -0.00000000000E+00 -0.46866960956E+00  0.46867654670E+00  0.25500000000E-02 0. -1.
         31    1    1    2    0    0 -0.41360227537E+00  0.63049647516E+00  0.59991943823E+02  0.60457099189E+02  0.74470750000E+01 0.  1.
        -31    1    1    2    0    0  0.41360227537E+00 -0.63049647516E+00  0.59091105214E+02  0.59563296032E+02  0.74470750000E+01 0. -1.
<mgrwt>
<rscale>  0 0.14970728E+02</rscale>
<asrwt>0</asrwt>
<pdfrwt beam="2">  1        2 0.99540074E+00 0.14970728E+02</pdfrwt>
<pdfrwt beam="1">  1       -2 0.99241260E+00 0.14970728E+02</pdfrwt>
<totfact>-0.86515550E-14</totfact>
</mgrwt>
</event>
<event>
 4    1 -0.5109406E-019  0.1497771E+02  0.7818608E-02  0.1868750E+00
         -2   -1    0    0    0  501 -0.00000000000E+00  0.00000000000E+00  0.12000763940E+03  0.12000763943E+03  0.25500000000E-02 0. -1.
          2   -1    0    0  501    0  0.00000000000E+00 -0.00000000000E+00 -0.46732452508E+00  0.46733148218E+00  0.25500000000E-02 0.  1.
         31    1    1    2    0    0 -0.42613433946E+00  0.15403275655E+00  0.54565425368E+02  0.55073132181E+02  0.74470750000E+01 0.  1.
        -31    1    1    2    0    0  0.42613433946E+00 -0.15403275655E+00  0.64974889508E+02  0.65401838729E+02  0.74470750000E+01 0. -1.
<mgrwt>
<rscale>  0 0.14977708E+02</rscale>
<asrwt>0</asrwt>
<pdfrwt beam="2">  1        2 0.99256979E+00 0.14977708E+02</pdfrwt>
<pdfrwt beam="1">  1       -2 0.99617135E+00 0.14977708E+02</pdfrwt>
<totfact>-0.13366870E-13</totfact>
</mgrwt>
</event>
<event>
 4    1  0.5109406E-019  0.1489820E+02  0.7818608E-02  0.1871191E+00
         -2   -1    0    0    0  501 -0.00000000000E+00  0.00000000000E+00  0.11844003088E+03  0.11844003091E+03  0.25500000000E-02 0.  1.
          2   -1    0    0  501    0  0.00000000000E+00 -0.00000000000E+00 -0.46849573702E+00  0.46850267673E+00  0.25500000000E-02 0. -1.
         31    1    1    2    0    0  0.69004264197E-01  0.44503345872E-01  0.57764962356E+02  0.58243081514E+02  0.74470750000E+01 0. -1.
        -31    1    1    2    0    0 -0.69004264197E-01 -0.44503345872E-01  0.60206572786E+02  0.60665452069E+02  0.74470750000E+01 0.  1.
<mgrwt>
<rscale>  0 0.14898196E+02</rscale>
<asrwt>0</asrwt>
<pdfrwt beam="2">  1        2 0.99499645E+00 0.14898196E+02</pdfrwt>
<pdfrwt beam="1">  1       -2 0.98321895E+00 0.14898196E+02</pdfrwt>
<totfact> 0.75877305E-13</totfact>
</mgrwt>
</event>
<event>
 4    1 -0.5109406E-019  0.1500259E+02  0.7818608E-02  0.1867989E+00
         -2   -1    0    0    0  501 -0.00000000000E+00  0.00000000000E+00  0.12005041125E+03  0.12005041128E+03  0.25500000000E-02 0.  1.
          2   -1    0    0  501    0  0.00000000000E+00 -0.00000000000E+00 -0.46871173359E+00  0.46871867011E+00  0.25500000000E-02 0. -1.
         31    1    1    2    0    0 -0.68170606682E+00  0.58797292665E+00  0.59712707869E+02  0.60182030893E+02  0.74470750000E+01 0. -1.
        -31    1    1    2    0    0  0.68170606682E+00 -0.58797292665E+00  0.59868991652E+02  0.60337099059E+02  0.74470750000E+01 0. -1.
<mgrwt>
<rscale>  0 0.15002594E+02</rscale>
<asrwt>0</asrwt>
<pdfrwt beam="2">  1        2 0.99550601E+00 0.15002594E+02</pdfrwt>
<pdfrwt beam="1">  1       -2 0.99653649E+00 0.15002594E+02</pdfrwt>
<totfact>-0.98502487E-14</totfact>
</mgrwt>
</event>
<event>
 4    1  0.5109406E-019  0.1489962E+02  0.7818608E-02  0.1871147E+00
          2   -1    0    0  501    0  0.00000000000E+00  0.00000000000E+00  0.12011848829E+03  0.12011848832E+03  0.25500000000E-02 0. -1.
         -2   -1    0    0    0  501 -0.00000000000E+00 -0.00000000000E+00 -0.46203746172E+00  0.46204449844E+00  0.25500000000E-02 0.  1.
         31    1    1    2    0    0  0.60178610668E-01 -0.66205801532E-01  0.58363963731E+02  0.58837226253E+02  0.74470750000E+01 0.  1.
        -31    1    1    2    0    0 -0.60178610668E-01  0.66205801532E-01  0.61292487099E+02  0.61743306564E+02  0.74470750000E+01 0. -1.
<mgrwt>
<rscale>  0 0.14899620E+02</rscale>
<asrwt>0</asrwt>
<pdfrwt beam="1">  1        2 0.99704421E+00 0.14899620E+02</pdfrwt>
<pdfrwt beam="2">  1       -2 0.98138709E+00 0.14899620E+02</pdfrwt>
<totfact> 0.80762080E-13</totfact>
</mgrwt>
</event>
<event>
 4    1  0.5109406E-019  0.1492775E+02  0.7818608E-02  0.1870281E+00
         -2   -1    0    0    0  501 -0.00000000000E+00  0.00000000000E+00  0.11852799465E+03  0.11852799467E+03  0.25500000000E-02 0.  1.
          2   -1    0    0  501    0  0.00000000000E+00 -0.00000000000E+00 -0.47000729165E+00  0.47001420905E+00  0.25500000000E-02 0. -1.
         31    1    1    2    0    0  0.33926528843E+00  0.20490767857E+00  0.61465497727E+02  0.61916261394E+02  0.74470750000E+01 0.  1.
        -31    1    1    2    0    0 -0.33926528843E+00 -0.20490767857E+00  0.56592489627E+02  0.57081747489E+02  0.74470750000E+01 0. -1.
<mgrwt>
<rscale>  0 0.14927751E+02</rscale>
<asrwt>0</asrwt>
<pdfrwt beam="2">  1        2 0.99819690E+00 0.14927751E+02</pdfrwt>
<pdfrwt beam="1">  1       -2 0.98395880E+00 0.14927751E+02</pdfrwt>
<totfact> 0.32263867E-13</totfact>
</mgrwt>
</event>
<event>
 4    1 -0.5109406E-019  0.1498256E+02  0.7818608E-02  0.1868601E+00
          2   -1    0    0  501    0  0.00000000000E+00  0.00000000000E+00  0.12018243051E+03  0.12018243053E+03  0.25500000000E-02 0.  1.
         -2   -1    0    0    0  501 -0.00000000000E+00 -0.00000000000E+00 -0.46694717381E+00  0.46695413654E+00  0.25500000000E-02 0. -1.
         31    1    1    2    0    0 -0.83147148214E-01  0.26916693962E+00  0.65995627455E+02  0.66415067067E+02  0.74470750000E+01 0.  1.
        -31    1    1    2    0    0  0.83147148214E-01 -0.26916693962E+00  0.53719855878E+02  0.54234317603E+02  0.74470750000E+01 0. -1.
<mgrwt>
<rscale>  0 0.14982559E+02</rscale>
<asrwt>0</asrwt>
<pdfrwt beam="1">  1        2 0.99761353E+00 0.14982559E+02</pdfrwt>
<pdfrwt beam="2">  1       -2 0.99177702E+00 0.14982559E+02</pdfrwt>
<totfact>-0.44962028E-14</totfact>
</mgrwt>
</event>
<event>
 4    1 -0.5109406E-019  0.1489713E+02  0.7818608E-02  0.1871224E+00
         -2   -1    0    0    0  501 -0.00000000000E+00  0.00000000000E+00  0.11970850293E+03  0.11970850296E+03  0.25500000000E-02 0.  1.
          2   -1    0    0  501    0  0.00000000000E+00 -0.00000000000E+00 -0.46346501748E+00  0.46347203252E+00  0.25500000000E-02 0. -1.
         31    1    1    2    0    0  0.19658904717E-01  0.32165786374E-01  0.60785350533E+02  0.61239849662E+02  0.74470750000E+01 0.  1.
        -31    1    1    2    0    0 -0.19658904717E-01 -0.32165786374E-01  0.58459687381E+02  0.58932125330E+02  0.74470750000E+01 0.  1.
<mgrwt>
<rscale>  0 0.14897131E+02</rscale>
<asrwt>0</asrwt>
<pdfrwt beam="2">  1        2 0.98439462E+00 0.14897131E+02</pdfrwt>
<pdfrwt beam="1">  1       -2 0.99366597E+00 0.14897131E+02</pdfrwt>
<totfact>-0.36498243E-13</totfact>
</mgrwt>
</event>
<event>
 4    1 -0.5109406E-019  0.1492206E+02  0.7818608E-02  0.1870456E+00
         -2   -1    0    0    0  501 -0.00000000000E+00  0.00000000000E+00  0.12019749839E+03  0.12019749841E+03  0.25500000000E-02 0.  1.
          2   -1    0    0  501    0  0.00000000000E+00 -0.00000000000E+00 -0.46312557019E+00  0.46313259037E+00  0.25500000000E-02 0. -1.
         31    1    1    2    0    0 -0.37054242614E-01  0.37658958151E+00  0.57808155464E+02  0.58287090826E+02  0.74470750000E+01 0. -1.
        -31    1    1    2    0    0  0.37054242614E-01 -0.37658958151E+00  0.61926217351E+02  0.62373540177E+02  0.74470750000E+01 0. -1.
<mgrwt>
<rscale>  0 0.14922059E+02</rscale>
<asrwt>0</asrwt>
<pdfrwt beam="2">  1        2 0.98369185E+00 0.14922059E+02</pdfrwt>
<pdfrwt beam="1">  1       -2 0.99770652E+00 0.14922059E+02</pdfrwt>
<totfact>-0.28515662E-13</totfact>
</mgrwt>
</event>
<event>
 4    1  0.5109406E-019  0.1490185E+02  0.7818608E-02  0.1871079E+00
          2   -1    0    0  501    0  0.00000000000E+00  0.00000000000E+00  0.12013230258E+03  0.12013230261E+03  0.25500000000E-02 0. -1.
         -2   -1    0    0    0  501 -0.00000000000E+00 -0.00000000000E+00 -0.46212242524E+00  0.46212946066E+00  0.25500000000E-02 0.  1.
         31    1    1    2    0    0  0.17389545456E+00 -0.98929102694E-01  0.60899632878E+02  0.61353600035E+02  0.74470750000E+01 0. -1.
        -31    1    1    2    0    0 -0.17389545456E+00  0.98929102694E-01  0.58770547280E+02  0.59240832035E+02  0.74470750000E+01 0.  1.
<mgrwt>
<rscale>  0 0.14901846E+02</rscale>
<asrwt>0</asrwt>
<pdfrwt beam="1">  1        2 0.99715914E+00 0.14901846E+02</pdfrwt>
<pdfrwt beam="2">  1       -2 0.98156729E+00 0.14901846E+02</pdfrwt>
<totfact> 0.75956104E-13</totfact>
</mgrwt>
</event>
<event>
 4    1 -0.5109406E-019  0.1503354E+02  0.7818608E-02  0.1867047E+00
          2   -1    0    0  501    0  0.00000000000E+00  0.00000000000E+00  0.12027455514E+03  0.12027455517E+03  0.25500000000E-02 0. -1.
         -2   -1    0    0    0  501 -0.00000000000E+00 -0.00000000000E+00 -0.46977044399E+00  0.46977736487E+00  0.25500000000E-02 0.  1.
         31    1    1    2    0    0  0.61373257635E+00  0.28507521293E+00  0.66045374884E+02  0.66467348414E+02  0.74470750000E+01 0. -1.
        -31    1    1    2    0    0 -0.61373257635E+00 -0.28507521293E+00  0.53759409811E+02  0.54276984117E+02  0.74470750000E+01 0.  1.
<mgrwt>
<rscale>  0 0.15033543E+02</rscale>
<asrwt>0</asrwt>
<pdfrwt beam="1">  1        2 0.99839862E+00 0.15033543E+02</pdfrwt>
<pdfrwt beam="2">  1       -2 0.99775307E+00 0.15033543E+02</pdfrwt>
<totfact>-0.35718416E-14</totfact>
</mgrwt>
</event>
<event>
 4    1  0.5109406E-019  0.1492873E+02  0.7818608E-02  0.1870251E+00
          2   -1    0    0  501    0  0.00000000000E+00  0.00000000000E+00  0.12012940964E+03  0.12012940966E+03  0.25500000000E-02 0. -1.
         -2   -1    0    0    0  501 -0.00000000000E+00 -0.00000000000E+00 -0.46380255451E+00  0.46380956444E+00  0.25500000000E-02 0.  1.
         31    1    1    2    0    0  0.33111171315E+00 -0.32861287287E+00  0.58213104850E+02  0.58689369768E+02  0.74470750000E+01 0.  1.
        -31    1    1    2    0    0 -0.33111171315E+00  0.32861287287E+00  0.61452502231E+02  0.61903849460E+02  0.74470750000E+01 0.  1.
<mgrwt>
<rscale>  0 0.14928731E+02</rscale>
<asrwt>0</asrwt>
<pdfrwt beam="1">  1        2 0.99714911E+00 0.14928731E+02</pdfrwt>
<pdfrwt beam="2">  1       -2 0.98512208E+00 0.14928731E+02</pdfrwt>
<totfact> 0.33384641E-13</totfact>
</mgrwt>
</event>
<event>
 4    1 -0.5109406E-019  0.1497147E+02  0.7818608E-02  0.1868940E+00
          2   -1    0    0  501    0  0.00000000000E+00  0.00000000000E+00  0.11953750264E+03  0.11953750267E+03  0.25500000000E-02 0.  1.
         -2   -1    0    0    0  501 -0.00000000000E+00 -0.00000000000E+00 -0.46877204698E+00  0.46877898260E+00  0.25500000000E-02 0. -1.
         31    1    1    2    0    0 -0.34939631274E+00 -0.40317559496E+00  0.63871003123E+02  0.64305898597E+02  0.74470750000E+01 0.  1.
        -31    1    1    2    0    0  0.34939631274E+00  0.40317559496E+00  0.55197727469E+02  0.55700383052E+02  0.74470750000E+01 0. -1.
<mgrwt>
<rscale>  0 0.14971474E+02</rscale>
<asrwt>0</asrwt>
<pdfrwt beam="1">  1        2 0.99229590E+00 0.14971474E+02</pdfrwt>
<pdfrwt beam="2">  1       -2 0.99561699E+00 0.14971474E+02</pdfrwt>
<totfact>-0.14389918E-13</totfact>
</mgrwt>
</event>
<event>
 4    1  0.5109406E-019  0.1493076E+02  0.7818608E-02  0.1870189E+00
         -2   -1    0    0    0  501 -0.00000000000E+00  0.00000000000E+00  0.11885639667E+03  0.11885639670E+03  0.25500000000E-02 0.  1.
          2   -1    0    0  501    0  0.00000000000E+00 -0.00000000000E+00 -0.46889789271E+00  0.46890482647E+00  0.25500000000E-02 0. -1.
         31    1    1    2    0    0  0.34082320172E+00 -0.23514120022E+00  0.56646958014E+02  0.57135875158E+02  0.74470750000E+01 0. -1.
        -31    1    1    2    0    0 -0.34082320172E+00  0.23514120022E+00  0.61740540761E+02  0.62189426363E+02  0.74470750000E+01 0. -1.
<mgrwt>
<rscale>  0 0.14930764E+02</rscale>
<asrwt>0</asrwt>
<pdfrwt beam="2">  1        2 0.99586093E+00 0.14930764E+02</pdfrwt>
<pdfrwt beam="1">  1       -2 0.98666508E+00 0.14930764E+02</pdfrwt>
<totfact> 0.25361211E-13</totfact>
</mgrwt>
</event>
<event>
 4    1  0.5109406E-019  0.1493073E+02  0.7818608E-02  0.1870190E+00
         -2   -1    0    0    0  501 -0.00000000000E+00  0.00000000000E+00  0.11869252630E+03  0.11869252633E+03  0.25500000000E-02 0.  1.
          2   -1    0    0  501    0  0.00000000000E+00 -0.00000000000E+00 -0.46954342482E+00  0.46955034905E+00  0.25500000000E-02 0. -1.
         31    1    1    2    0    0 -0.51723003348E+00 -0.26130902127E-01  0.59651238870E+02  0.60116532123E+02  0.74470750000E+01 0.  1.
        -31    1    1    2    0    0  0.51723003348E+00  0.26130902127E-01  0.58571744005E+02  0.59045544553E+02  0.74470750000E+01 0. -1.
<mgrwt>
<rscale>  0 0.14930735E+02</rscale>
<asrwt>0</asrwt>
<pdfrwt beam="2">  1        2 0.99722110E+00 0.14930735E+02</pdfrwt>
<pdfrwt beam="1">  1       -2 0.98531542E+00 0.14930735E+02</pdfrwt>
<totfact> 0.30995057E-13</totfact>
</mgrwt>
</event>
<event>
 4    1 -0.5109406E-019  0.1494105E+02  0.7818608E-02  0.1869873E+00
          2   -1    0    0  501    0  0.00000000000E+00  0.00000000000E+00  0.11852540185E+03  0.11852540187E+03  0.25500000000E-02 0.  1.
         -2   -1    0    0    0  501 -0.00000000000E+00 -0.00000000000E+00 -0.47085571990E+00  0.47086262483E+00  0.25500000000E-02 0. -1.
         31    1    1    2    0    0 -0.31235310417E+00  0.41038384869E+00  0.61333789655E+02  0.61786395419E+02  0.74470750000E+01 0.  1.
        -31    1    1    2    0    0  0.31235310417E+00 -0.41038384869E+00  0.56720756470E+02  0.57209869079E+02  0.74470750000E+01 0. -1.
<mgrwt>
<rscale>  0 0.14941054E+02</rscale>
<asrwt>0</asrwt>
<pdfrwt beam="1">  1        2 0.98394437E+00 0.14941054E+02</pdfrwt>
<pdfrwt beam="2">  1       -2 0.99999154E+00 0.14941054E+02</pdfrwt>
<totfact>-0.12252811E-15</totfact>
</mgrwt>
</event>
<event>
 4    1  0.5109406E-019  0.1489832E+02  0.7818608E-02  0.1871187E+00
         -2   -1    0    0    0  501 -0.00000000000E+00  0.00000000000E+00  0.11801540743E+03  0.11801540746E+03  0.25500000000E-02 0.  1.
          2   -1    0    0  501    0  0.00000000000E+00 -0.00000000000E+00 -0.47018933850E+00  0.47019625321E+00  0.25500000000E-02 0. -1.
         31    1    1    2    0    0 -0.40823961488E-01  0.74905539816E-01  0.59999379325E+02  0.60459835618E+02  0.74470750000E+01 0.  1.
        -31    1    1    2    0    0  0.40823961488E-01 -0.74905539816E-01  0.57545838767E+02  0.58025768094E+02  0.74470750000E+01 0. -1.
<mgrwt>
<rscale>  0 0.14898322E+02</rscale>
<asrwt>0</asrwt>
<pdfrwt beam="2">  1        2 0.99856486E+00 0.14898322E+02</pdfrwt>
<pdfrwt beam="1">  1       -2 0.97972187E+00 0.14898322E+02</pdfrwt>
<totfact> 0.62165820E-13</totfact>
</mgrwt>
</event>
<event>
 4    1 -0.5109406E-019  0.1494287E+02  0.7818608E-02  0.1869817E+00
          2   -1    0    0  501    0  0.00000000000E+00  0.00000000000E+00  0.11908716965E+03  0.11908716968E+03  0.25500000000E-02 0. -1.
         -2   -1    0    0    0  501 -0.00000000000E+00 -0.00000000000E+00 -0.46874849969E+00  0.46875543566E+00  0.25500000000E-02 0.  1.
         31    1    1    2    0    0  0.53565919562E+00 -0.24227933883E+00  0.58241994238E+02  0.58719114851E+02  0.74470750000E+01 0. -1.
        -31    1    1    2    0    0 -0.53565919562E+00  0.24227933883E+00  0.60376426911E+02  0.60836810261E+02  0.74470750000E+01 0.  1.
<mgrwt>
<rscale>  0 0.14942871E+02</rscale>
<asrwt>0</asrwt>
<pdfrwt beam="1">  1        2 0.98857204E+00 0.14942871E+02</pdfrwt>
<pdfrwt beam="2">  1       -2 0.99555247E+00 0.14942871E+02</pdfrwt>
<totfact>-0.20296843E-13</totfact>
</mgrwt>
</event>
<event>
 4    1 -0.5109406E-019  0.1496924E+02  0.7818608E-02  0.1869009E+00
         -2   -1    0    0    0  501 -0.00000000000E+00  0.00000000000E+00  0.11962451074E+03  0.11962451077E+03  0.25500000000E-02 0.  1.
          2   -1    0    0  501    0  0.00000000000E+00 -0.00000000000E+00 -0.46829123643E+00  0.46829817918E+00  0.25500000000E-02 0. -1.
         31    1    1    2    0    0  0.17132843831E+00 -0.53989953348E+00  0.55649820644E+02  0.56148751622E+02  0.74470750000E+01 0. -1.
        -31    1    1    2    0    0 -0.17132843831E+00  0.53989953348E+00  0.63506398860E+02  0.63944057325E+02  0.74470750000E+01 0.  1.
<mgrwt>
<rscale>  0 0.14969239E+02</rscale>
<asrwt>0</asrwt>
<pdfrwt beam="2">  1        2 0.99460263E+00 0.14969239E+02</pdfrwt>
<pdfrwt beam="1">  1       -2 0.99301137E+00 0.14969239E+02</pdfrwt>
<totfact>-0.10780272E-13</totfact>
</mgrwt>
</event>
<event>
 4    1 -0.5109406E-019  0.1498392E+02  0.7818608E-02  0.1868559E+00
          2   -1    0    0  501    0  0.00000000000E+00  0.00000000000E+00  0.12000305725E+03  0.12000305728E+03  0.25500000000E-02 0.  1.
         -2   -1    0    0    0  501 -0.00000000000E+00 -0.00000000000E+00 -0.46773029149E+00  0.46773724256E+00  0.25500000000E-02 0. -1.
         31    1    1    2    0    0 -0.37182978107E+00  0.56912317574E+00  0.63437999152E+02  0.63877232415E+02  0.74470750000E+01 0.  1.
        -31    1    1    2    0    0  0.37182978107E+00 -0.56912317574E+00  0.56097327812E+02  0.56593562109E+02  0.74470750000E+01 0. -1.
<mgrwt>
<rscale>  0 0.14983923E+02</rscale>
<asrwt>0</asrwt>
<pdfrwt beam="1">  1        2 0.99613682E+00 0.14983923E+02</pdfrwt>
<pdfrwt beam="2">  1       -2 0.99342810E+00 0.14983923E+02</pdfrwt>
<totfact>-0.95790870E-14</totfact>
</mgrwt>
</event>
<event>
 4    1 -0.5109406E-019  0.1498503E+02  0.7818608E-02  0.1868526E+00
          2   -1    0    0  501    0  0.00000000000E+00  0.00000000000E+00  0.11988332454E+03  0.11988332457E+03  0.25500000000E-02 0.  1.
         -2   -1    0    0    0  501 -0.00000000000E+00 -0.00000000000E+00 -0.46826675515E+00  0.46827369826E+00  0.25500000000E-02 0. -1.
         31    1    1    2    0    0 -0.66102047343E+00  0.11865457522E+00  0.63541164967E+02  0.63979602987E+02  0.74470750000E+01 0.  1.
        -31    1    1    2    0    0  0.66102047343E+00 -0.11865457522E+00  0.55873892820E+02  0.56371995281E+02  0.74470750000E+01 0. -1.
<mgrwt>
<rscale>  0 0.14985032E+02</rscale>
<asrwt>0</asrwt>
<pdfrwt beam="1">  1        2 0.99515122E+00 0.14985032E+02</pdfrwt>
<pdfrwt beam="2">  1       -2 0.99455921E+00 0.14985032E+02</pdfrwt>
<totfact>-0.11751630E-13</totfact>
</mgrwt>
</event>
<event>
 4    1  0.5109406E-019  0.1493544E+02  0.7818608E-02  0.1870045E+00
          2   -1    0    0  501    0  0.00000000000E+00  0.00000000000E+00  0.12008386657E+03  0.12008386659E+03  0.25500000000E-02 0.  1.
         -2   -1    0    0    0  501 -0.00000000000E+00 -0.00000000000E+00 -0.46439562305E+00  0.46440262403E+00  0.25500000000E-02 0. -1.
         31    1    1    2    0    0 -0.64746587873E-01 -0.54354894248E+00  0.60544267745E+02  0.61003007470E+02  0.74470750000E+01 0. -1.
        -31    1    1    2    0    0  0.64746587873E-01  0.54354894248E+00  0.59075203197E+02  0.59545261746E+02  0.74470750000E+01 0. -1.
<mgrwt>
<rscale>  0 0.14935440E+02</rscale>
<asrwt>0</asrwt>
<pdfrwt beam="1">  1        2 0.99677743E+00 0.14935440E+02</pdfrwt>
<pdfrwt beam="2">  1       -2 0.98637546E+00 0.14935440E+02</pdfrwt>
<totfact> 0.24233680E-13</totfact>
</mgrwt>
</event>
<event>
 4    1 -0.5109406E-019  0.1496123E+02  0.7818608E-02  0.1869254E+00
          2   -1    0    0  501    0  0.00000000000E+00  0.00000000000E+00  0.11974090277E+03  0.11974090280E+03  0.25500000000E-02 0. -1.
         -2   -1    0    0    0  501 -0.00000000000E+00 -0.00000000000E+00 -0.46733574742E+00  0.46734270436E+00  0.25500000000E-02 0.  1.
         31    1    1    2    0    0 -0.48229747674E+00 -0.61044988026E-02  0.63796604916E+02  0.64231599490E+02  0.74470750000E+01 0. -1.
        -31    1    1    2    0    0  0.48229747674E+00  0.61044988026E-02  0.55476962108E+02  0.55976646014E+02  0.74470750000E+01 0.  1.
<mgrwt>
<rscale>  0 0.14961233E+02</rscale>
<asrwt>0</asrwt>
<pdfrwt beam="1">  1        2 0.99396588E+00 0.14961233E+02</pdfrwt>
<pdfrwt beam="2">  1       -2 0.99258495E+00 0.14961233E+02</pdfrwt>
<totfact>-0.10395014E-13</totfact>
</mgrwt>
</event>
<event>
 4    1 -0.5109406E-019  0.1494479E+02  0.7818608E-02  0.1869758E+00
         -2   -1    0    0    0  501 -0.00000000000E+00  0.00000000000E+00  0.12037362088E+03  0.12037362090E+03  0.25500000000E-02 0.  1.
          2   -1    0    0  501    0  0.00000000000E+00 -0.00000000000E+00 -0.46385797911E+00  0.46386498821E+00  0.25500000000E-02 0. -1.
         31    1    1    2    0    0 -0.32195164036E+00 -0.37987805731E-01  0.64176982817E+02  0.64608429369E+02  0.74470750000E+01 0.  1.
        -31    1    1    2    0    0  0.32195164036E+00  0.37987805731E-01  0.55732780080E+02  0.56229056523E+02  0.74470750000E+01 0. -1.
<mgrwt>
<rscale>  0 0.14944790E+02</rscale>
<asrwt>0</asrwt>
<pdfrwt beam="2">  1        2 0.98524704E+00 0.14944790E+02</pdfrwt>
<pdfrwt beam="1">  1       -2 0.99916888E+00 0.14944790E+02</pdfrwt>
<totfact>-0.91373393E-14</totfact>
</mgrwt>
</event>
<event>
 4    1  0.5109406E-019  0.1492612E+02  0.7818608E-02  0.1870331E+00
          2   -1    0    0  501    0  0.00000000000E+00  0.00000000000E+00  0.11993484785E+03  0.11993484788E+03  0.25500000000E-02 0.  1.
         -2   -1    0    0    0  501 -0.00000000000E+00 -0.00000000000E+00 -0.46439230585E+00  0.46439930689E+00  0.25500000000E-02 0. -1.
         31    1    1    2    0    0 -0.26738139105E+00  0.40109147599E+00  0.60357456454E+02  0.60817052237E+02  0.74470750000E+01 0. -1.
        -31    1    1    2    0    0  0.26738139105E+00 -0.40109147599E+00  0.59112999090E+02  0.59582194947E+02  0.74470750000E+01 0. -1.
<mgrwt>
<rscale>  0 0.14926117E+02</rscale>
<asrwt>0</asrwt>
<pdfrwt beam="1">  1        2 0.99554521E+00 0.14926117E+02</pdfrwt>
<pdfrwt beam="2">  1       -2 0.98636372E+00 0.14926117E+02</pdfrwt>
<totfact> 0.29562684E-13</totfact>
</mgrwt>
</event>
<event>
 4    1 -0.5109406E-019  0.1495798E+02  0.7818608E-02  0.1869354E+00
          2   -1    0    0  501    0  0.00000000000E+00  0.00000000000E+00  0.11921411311E+03  0.11921411314E+03  0.25500000000E-02 0. -1.
         -2   -1    0    0    0  501 -0.00000000000E+00 -0.00000000000E+00 -0.46919662208E+00  0.46920355143E+00  0.25500000000E-02 0.  1.
         31    1    1    2    0    0 -0.18497996781E+00  0.56898847586E+00  0.56619452412E+02  0.57110237987E+02  0.74470750000E+01 0.  1.
        -31    1    1    2    0    0  0.18497996781E+00 -0.56898847586E+00  0.62125464081E+02  0.62573078706E+02  0.74470750000E+01 0. -1.
<mgrwt>
<rscale>  0 0.14957978E+02</rscale>
<asrwt>0</asrwt>
<pdfrwt beam="1">  1        2 0.98962540E+00 0.14957978E+02</pdfrwt>
<pdfrwt beam="2">  1       -2 0.99650463E+00 0.14957978E+02</pdfrwt>
<totfact>-0.16270666E-13</totfact>
</mgrwt>
</event>
<event>
 4    1 -0.5109406E-019  0.1490353E+02  0.7818608E-02  0.1871027E+00
         -2   -1    0    0    0  501 -0.00000000000E+00  0.00000000000E+00  0.12032848657E+03  0.12032848660E+03  0.25500000000E-02 0. -1.
          2   -1    0    0  501    0  0.00000000000E+00 -0.00000000000E+00 -0.46147306483E+00  0.46148011015E+00  0.25500000000E-02 0.  1.
         31    1    1    2    0    0  0.23726346134E+00  0.10916489209E+00  0.60262289741E+02  0.60721254119E+02  0.74470750000E+01 0.  1.
        -31    1    1    2    0    0 -0.23726346134E+00 -0.10916489209E+00  0.59604723769E+02  0.60068712593E+02  0.74470750000E+01 0.  1.
<mgrwt>
<rscale>  0 0.14903527E+02</rscale>
<asrwt>0</asrwt>
<pdfrwt beam="2">  1        2 0.98019944E+00 0.14903527E+02</pdfrwt>
<pdfrwt beam="1">  1       -2 0.99877596E+00 0.14903527E+02</pdfrwt>
<totfact>-0.30245199E-13</totfact>
</mgrwt>
</event>
<event>
 4    1 -0.5109406E-019  0.1499331E+02  0.7818608E-02  0.1868273E+00
          2   -1    0    0  501    0  0.00000000000E+00  0.00000000000E+00  0.11991384837E+03  0.11991384840E+03  0.25500000000E-02 0.  1.
         -2   -1    0    0    0  501 -0.00000000000E+00 -0.00000000000E+00 -0.46866510998E+00  0.46867204718E+00  0.25500000000E-02 0. -1.
         31    1    1    2    0    0 -0.45043287318E+00  0.71754547423E+00  0.60944721943E+02  0.61403874634E+02  0.74470750000E+01 0. -1.
        -31    1    1    2    0    0  0.45043287318E+00 -0.71754547423E+00  0.58500461320E+02  0.58978645814E+02  0.74470750000E+01 0. -1.
<mgrwt>
<rscale>  0 0.14993313E+02</rscale>
<asrwt>0</asrwt>
<pdfrwt beam="1">  1        2 0.99540691E+00 0.14993313E+02</pdfrwt>
<pdfrwt beam="2">  1       -2 0.99540296E+00 0.14993313E+02</pdfrwt>
<totfact>-0.11231863E-13</totfact>
</mgrwt>
</event>
<event>
 4    1 -0.5109406E-019  0.1494644E+02  0.7818608E-02  0.1869707E+00
          2   -1    0    0  501    0  0.00000000000E+00  0.00000000000E+00  0.11940239769E+03  0.11940239772E+03  0.25500000000E-02 0.  1.
         -2   -1    0    0    0  501 -0.00000000000E+00 -0.00000000000E+00 -0.46773407540E+00  0.46774102641E+00  0.25500000000E-02 0. -1.
         31    1    1    2    0    0  0.30044336717E+00 -0.11969825642E-01  0.55077149962E+02  0.55579148819E+02  0.74470750000E+01 0. -1.
        -31    1    1    2    0    0 -0.30044336717E+00  0.11969825642E-01  0.63857513653E+02  0.64290989924E+02  0.74470750000E+01 0.  1.
<mgrwt>
<rscale>  0 0.14946436E+02</rscale>
<asrwt>0</asrwt>
<pdfrwt beam="1">  1        2 0.99117018E+00 0.14946436E+02</pdfrwt>
<pdfrwt beam="2">  1       -2 0.99341671E+00 0.14946436E+02</pdfrwt>
<totfact>-0.14918248E-13</totfact>
</mgrwt>
</event>
<event>
 4    1  0.5109406E-019  0.1492012E+02  0.7818608E-02  0.1870516E+00
          2   -1    0    0  501    0  0.00000000000E+00  0.00000000000E+00  0.12010945936E+03  0.12010945939E+03  0.25500000000E-02 0. -1.
         -2   -1    0    0    0  501 -0.00000000000E+00 -0.00000000000E+00 -0.46334448688E+00  0.46335150375E+00  0.25500000000E-02 0.  1.
         31    1    1    2    0    0 -0.11422631995E+00 -0.30693986984E+00  0.57449120735E+02  0.57930714297E+02  0.74470750000E+01 0.  1.
        -31    1    1    2    0    0  0.11422631995E+00  0.30693986984E+00  0.62196994138E+02  0.62642096593E+02  0.74470750000E+01 0. -1.
<mgrwt>
<rscale>  0 0.14920118E+02</rscale>
<asrwt>0</asrwt>
<pdfrwt beam="1">  1        2 0.99698036E+00 0.14920118E+02</pdfrwt>
<pdfrwt beam="2">  1       -2 0.98415227E+00 0.14920118E+02</pdfrwt>
<totfact> 0.45054602E-13</totfact>
</mgrwt>
</event>
<event>
 4    1 -0.5109406E-019  0.1499231E+02  0.7818608E-02  0.1868303E+00
          2   -1    0    0  501    0  0.00000000000E+00  0.00000000000E+00  0.12018840665E+03  0.12018840667E+03  0.25500000000E-02 0.  1.
         -2   -1    0    0    0  501 -0.00000000000E+00 -0.00000000000E+00 -0.46753193969E+00  0.46753889371E+00  0.25500000000E-02 0. -1.
         31    1    1    2    0    0 -0.27997717896E+00 -0.10506169415E+00  0.53402120744E+02  0.53919707447E+02  0.74470750000E+01 0. -1.
        -31    1    1    2    0    0  0.27997717896E+00  0.10506169415E+00  0.66318753963E+02  0.66736238120E+02  0.74470750000E+01 0.  1.
<mgrwt>
<rscale>  0 0.14992310E+02</rscale>
<asrwt>0</asrwt>
<pdfrwt beam="1">  1        2 0.99766778E+00 0.14992310E+02</pdfrwt>
<pdfrwt beam="2">  1       -2 0.99301440E+00 0.14992310E+02</pdfrwt>
<totfact>-0.64048429E-14</totfact>
</mgrwt>
</event>
<event>
 4    1 -0.5109406E-019  0.1498465E+02  0.7818608E-02  0.1868537E+00
         -2   -1    0    0    0  501 -0.00000000000E+00  0.00000000000E+00  0.11989040647E+03  0.11989040650E+03  0.25500000000E-02 0.  1.
          2   -1    0    0  501    0  0.00000000000E+00 -0.00000000000E+00 -0.46821544920E+00  0.46822239307E+00  0.25500000000E-02 0. -1.
         31    1    1    2    0    0 -0.64863989067E+00 -0.38916331113E+00  0.57122654066E+02  0.57611012102E+02  0.74470750000E+01 0.  1.
        -31    1    1    2    0    0  0.64863989067E+00  0.38916331113E+00  0.62299536956E+02  0.62747616789E+02  0.74470750000E+01 0.  1.
<mgrwt>
<rscale>  0 0.14984653E+02</rscale>
<asrwt>0</asrwt>
<pdfrwt beam="2">  1        2 0.99445090E+00 0.14984653E+02</pdfrwt>
<pdfrwt beam="1">  1       -2 0.99520935E+00 0.14984653E+02</pdfrwt>
<totfact>-0.12492129E-13</totfact>
</mgrwt>
</event>
<event>
 4    1 -0.5109406E-019  0.1499539E+02  0.7818608E-02  0.1868209E+00
         -2   -1    0    0    0  501 -0.00000000000E+00  0.00000000000E+00  0.12038980496E+03  0.12038980499E+03  0.25500000000E-02 0.  1.
          2   -1    0    0  501    0  0.00000000000E+00 -0.00000000000E+00 -0.46694132764E+00  0.46694829046E+00  0.25500000000E-02 0. -1.
         31    1    1    2    0    0 -0.33082886686E+00 -0.15481330986E-02  0.53478482024E+02  0.53995522183E+02  0.74470750000E+01 0. -1.
        -31    1    1    2    0    0  0.33082886686E+00  0.15481330986E-02  0.66444381611E+02  0.66861231098E+02  0.74470750000E+01 0.  1.
<mgrwt>
<rscale>  0 0.14995386E+02</rscale>
<asrwt>0</asrwt>
<pdfrwt beam="2">  1        2 0.99177127E+00 0.14995386E+02</pdfrwt>
<pdfrwt beam="1">  1       -2 0.99932820E+00 0.14995386E+02</pdfrwt>
<totfact>-0.34536231E-14</totfact>
</mgrwt>
</event>
<event>
 4    1  0.5109406E-019  0.1490825E+02  0.7818608E-02  0.1870881E+00
         -2   -1    0    0    0  501 -0.00000000000E+00  0.00000000000E+00  0.11836427743E+03  0.11836427746E+03  0.25500000000E-02 0. -1.
          2   -1    0    0  501    0  0.00000000000E+00 -0.00000000000E+00 -0.46942861213E+00  0.46943553805E+00  0.25500000000E-02 0.  1.
         31    1    1    2    0    0 -0.28393555111E+00 -0.85668717225E-01  0.59989982989E+02  0.60451178182E+02  0.74470750000E+01 0. -1.
        -31    1    1    2    0    0  0.28393555111E+00  0.85668717225E-01  0.57904865829E+02  0.58382534813E+02  0.74470750000E+01 0.  1.
<mgrwt>
<rscale>  0 0.14908252E+02</rscale>
<asrwt>0</asrwt>
<pdfrwt beam="2">  1        2 0.99696733E+00 0.14908252E+02</pdfrwt>
<pdfrwt beam="1">  1       -2 0.98260028E+00 0.14908252E+02</pdfrwt>
<totfact> 0.64540561E-13</totfact>
</mgrwt>
</event>
<event>
 4    1 -0.5109406E-019  0.1498236E+02  0.7818608E-02  0.1868607E+00
          2   -1    0    0  501    0  0.00000000000E+00  0.00000000000E+00  0.11994122954E+03  0.11994122957E+03  0.25500000000E-02 0.  1.
         -2   -1    0    0    0  501 -0.00000000000E+00 -0.00000000000E+00 -0.46787392962E+00  0.46788087856E+00  0.25500000000E-02 0. -1.
         31    1    1    2    0    0 -0.17257946243E+00  0.40923044061E+00  0.54276345693E+02  0.54786657875E+02  0.74470750000E+01 0.  1.
        -31    1    1    2    0    0  0.17257946243E+00 -0.40923044061E+00  0.65197009920E+02  0.65622452574E+02  0.74470750000E+01 0.  1.
<mgrwt>
<rscale>  0 0.14982362E+02</rscale>
<asrwt>0</asrwt>
<pdfrwt beam="1">  1        2 0.99562677E+00 0.14982362E+02</pdfrwt>
<pdfrwt beam="2">  1       -2 0.99373000E+00 0.14982362E+02</pdfrwt>
<totfact>-0.10633233E-13</totfact>
</mgrwt>
</event>
<event>
 4    1  0.5109406E-019  0.1496022E+02  0.7818608E-02  0.1869285E+00
         -2   -1    0    0    0  501 -0.00000000000E+00  0.00000000000E+00  0.11898553263E+03  0.11898553266E+03  0.25500000000E-02 0. -1.
          2   -1    0    0  501    0  0.00000000000E+00 -0.00000000000E+00 -0.47023891446E+00  0.47024582844E+00  0.25500000000E-02 0.  1.
         31    1    1    2    0    0 -0.14070688391E+00  0.60280224620E+00  0.61905301879E+02  0.62354699067E+02  0.74470750000E+01 0. -1.
        -31    1    1    2    0    0  0.14070688391E+00 -0.60280224620E+00  0.56609991836E+02  0.57101079418E+02  0.74470750000E+01 0.  1.
<mgrwt>
<rscale>  0 0.14960220E+02</rscale>
<asrwt>0</asrwt>
<pdfrwt beam="2">  1        2 0.99870204E+00 0.14960220E+02</pdfrwt>
<pdfrwt beam="1">  1       -2 0.98774396E+00 0.14960220E+02</pdfrwt>
<totfact> 0.67033134E-14</totfact>
</mgrwt>
</event>
<event>
 4    1 -0.5109406E-019  0.1501985E+02  0.7818608E-02  0.1867463E+00
         -2   -1    0    0    0  501 -0.00000000000E+00  0.00000000000E+00  0.12012920891E+03  0.12012920894E+03  0.25500000000E-02 0.  1.
          2   -1    0    0  501    0  0.00000000000E+00 -0.00000000000E+00 -0.46948247438E+00  0.46948939951E+00  0.25500000000E-02 0. -1.
         31    1    1    2    0    0 -0.21750275035E+00 -0.63130984197E+00  0.54185372102E+02  0.54698805613E+02  0.74470750000E+01 0. -1.
        -31    1    1    2    0    0  0.21750275035E+00  0.63130984197E+00  0.65474354332E+02  0.65899892722E+02  0.74470750000E+01 0.  1.
<mgrwt>
<rscale>  0 0.15019851E+02</rscale>
<asrwt>0</asrwt>
<pdfrwt beam="2">  1        2 0.99713915E+00 0.15019851E+02</pdfrwt>
<pdfrwt beam="1">  1       -2 0.99719442E+00 0.15019851E+02</pdfrwt>
<totfact>-0.65321665E-14</totfact>
</mgrwt>
</event>
<event>
 4    1 -0.5109406E-019  0.1494637E+02  0.7818608E-02  0.1869709E+00
          2   -1    0    0  501    0  0.00000000000E+00  0.00000000000E+00  0.11872526809E+03  0.11872526812E+03  0.25500000000E-02 0.  1.
         -2   -1    0    0    0  501 -0.00000000000E+00 -0.00000000000E+00 -0.47039756614E+00  0.47040447780E+00  0.25500000000E-02 0. -1.
         31    1    1    2    0    0 -0.25875412072E+00  0.55761498514E+00  0.59989184108E+02  0.60452783428E+02  0.74470750000E+01 0.  1.
        -31    1    1    2    0    0  0.25875412072E+00 -0.55761498514E+00  0.58265686415E+02  0.58742889166E+02  0.74470750000E+01 0. -1.
<mgrwt>
<rscale>  0 0.14946370E+02</rscale>
<asrwt>0</asrwt>
<pdfrwt beam="1">  1        2 0.98559322E+00 0.14946370E+02</pdfrwt>
<pdfrwt beam="2">  1       -2 0.99902903E+00 0.14946370E+02</pdfrwt>
<totfact>-0.99893981E-14</totfact>
</mgrwt>
</event>
<event>
 4    1 -0.5109406E-019  0.1494004E+02  0.7818608E-02  0.1869904E+00
          2   -1    0    0  501    0  0.00000000000E+00  0.00000000000E+00  0.11913128908E+03  0.11913128910E+03  0.25500000000E-02 0. -1.
         -2   -1    0    0    0  501 -0.00000000000E+00 -0.00000000000E+00 -0.46839752889E+00  0.46840447006E+00  0.25500000000E-02 0.  1.
         31    1    1    2    0    0 -0.32631795847E+00  0.25344407618E+00  0.56015518961E+02  0.56509893009E+02  0.74470750000E+01 0.  1.
        -31    1    1    2    0    0  0.32631795847E+00 -0.25344407618E+00  0.62647372585E+02  0.63089800564E+02  0.74470750000E+01 0. -1.
<mgrwt>
<rscale>  0 0.14940043E+02</rscale>
<asrwt>0</asrwt>
<pdfrwt beam="1">  1        2 0.98893395E+00 0.14940043E+02</pdfrwt>
<pdfrwt beam="2">  1       -2 0.99481144E+00 0.14940043E+02</pdfrwt>
<totfact>-0.19997545E-13</totfact>
</mgrwt>
</event>
<event>
 4    1 -0.5109406E-019  0.1497136E+02  0.7818608E-02  0.1868944E+00
         -2   -1    0    0    0  501 -0.00000000000E+00  0.00000000000E+00  0.12005288164E+03  0.12005288167E+03  0.25500000000E-02 0. -1.
          2   -1    0    0  501    0  0.00000000000E+00 -0.00000000000E+00 -0.46675267362E+00  0.46675963925E+00  0.25500000000E-02 0.  1.
         31    1    1    2    0    0  0.52350600851E+00  0.24510145639E+00  0.55829992725E+02  0.56327445770E+02  0.74470750000E+01 0.  1.
        -31    1    1    2    0    0 -0.52350600851E+00 -0.24510145639E+00  0.63756136241E+02  0.64192195536E+02  0.74470750000E+01 0. -1.
<mgrwt>
<rscale>  0 0.14971363E+02</rscale>
<asrwt>0</asrwt>
<pdfrwt beam="2">  1        2 0.99136138E+00 0.14971363E+02</pdfrwt>
<pdfrwt beam="1">  1       -2 0.99654072E+00 0.14971363E+02</pdfrwt>
<totfact>-0.13868928E-13</totfact>
</mgrwt>
</event>
<event>
 4    1 -0.5109406E-019  0.1492575E+02  0.7818608E-02  0.1870343E+00
          2   -1    0    0  501    0  0.00000000000E+00  0.00000000000E+00  0.11844520435E+03  0.11844520438E+03  0.25500000000E-02 0. -1.
         -2   -1    0    0    0  501 -0.00000000000E+00 -0.00000000000E+00 -0.47020950388E+00  0.47021641830E+00  0.25500000000E-02 0.  1.
         31    1    1    2    0    0 -0.14515235466E+00 -0.46307497452E+00  0.59037778078E+02  0.59507593415E+02  0.74470750000E+01 0.  1.
        -31    1    1    2    0    0  0.14515235466E+00  0.46307497452E+00  0.58937216770E+02  0.59407827383E+02  0.74470750000E+01 0. -1.
<mgrwt>
<rscale>  0 0.14925746E+02</rscale>
<asrwt>0</asrwt>
<pdfrwt beam="1">  1        2 0.98327590E+00 0.14925746E+02</pdfrwt>
<pdfrwt beam="2">  1       -2 0.99862189E+00 0.14925746E+02</pdfrwt>
<totfact>-0.20048481E-13</totfact>
</mgrwt>
</event>
<event>
 4    1 -0.5109406E-019  0.1498414E+02  0.7818608E-02  0.1868553E+00
          2   -1    0    0  501    0  0.00000000000E+00  0.00000000000E+00  0.11980980639E+03  0.11980980642E+03  0.25500000000E-02 0. -1.
         -2   -1    0    0    0  501 -0.00000000000E+00 -0.00000000000E+00 -0.46849825470E+00  0.46850519437E+00  0.25500000000E-02 0.  1.
         31    1    1    2    0    0  0.79040587346E+00 -0.16756535258E+00  0.58553812400E+02  0.59031014664E+02  0.74470750000E+01 0.  1.
        -31    1    1    2    0    0 -0.79040587346E+00  0.16756535258E+00  0.60787495735E+02  0.61247296948E+02  0.74470750000E+01 0.  1.
<mgrwt>
<rscale>  0 0.14984139E+02</rscale>
<asrwt>0</asrwt>
<pdfrwt beam="1">  1        2 0.99454523E+00 0.14984139E+02</pdfrwt>
<pdfrwt beam="2">  1       -2 0.99504660E+00 0.14984139E+02</pdfrwt>
<totfact>-0.12450647E-13</totfact>
</mgrwt>
</event>
<event>
 4    1 -0.5109406E-019  0.1499269E+02  0.7818608E-02  0.1868292E+00
          2   -1    0    0  501    0  0.00000000000E+00  0.00000000000E+00  0.12010994006E+03  0.12010994008E+03  0.25500000000E-02 0. -1.
         -2   -1    0    0    0  501 -0.00000000000E+00 -0.00000000000E+00 -0.46786134867E+00  0.46786829779E+00  0.25500000000E-02 0.  1.
         31    1    1    2    0    0 -0.71519336617E+00  0.47345093074E+00  0.60023820420E+02  0.60490111599E+02  0.74470750000E+01 0.  1.
        -31    1    1    2    0    0  0.71519336617E+00 -0.47345093074E+00  0.59618258287E+02  0.60087696782E+02  0.74470750000E+01 0. -1.
<mgrwt>
<rscale>  0 0.14992694E+02</rscale>
<asrwt>0</asrwt>
<pdfrwt beam="1">  1        2 0.99702168E+00 0.14992694E+02</pdfrwt>
<pdfrwt beam="2">  1       -2 0.99370881E+00 0.14992694E+02</pdfrwt>
<totfact>-0.83739357E-14</totfact>
</mgrwt>
</event>
<event>
 4    1 -0.5109406E-019  0.1492516E+02  0.7818608E-02  0.1870361E+00
         -2   -1    0    0    0  501 -0.00000000000E+00  0.00000000000E+00  0.11999714842E+03  0.11999714845E+03  0.25500000000E-02 0. -1.
          2   -1    0    0  501    0  0.00000000000E+00 -0.00000000000E+00 -0.46409156731E+00  0.46409857288E+00  0.25500000000E-02 0.  1.
         31    1    1    2    0    0 -0.60394781150E-01  0.40541636696E+00  0.57738272211E+02  0.58217995619E+02  0.74470750000E+01 0.  1.
        -31    1    1    2    0    0  0.60394781150E-01 -0.40541636696E+00  0.61794784642E+02  0.62243251401E+02  0.74470750000E+01 0. -1.
<mgrwt>
<rscale>  0 0.14925158E+02</rscale>
<asrwt>0</asrwt>
<pdfrwt beam="2">  1        2 0.98572940E+00 0.14925158E+02</pdfrwt>
<pdfrwt beam="1">  1       -2 0.99605787E+00 0.14925158E+02</pdfrwt>
<totfact>-0.28818648E-13</totfact>
</mgrwt>
</event>
<event>
 4    1  0.5109406E-019  0.1492817E+02  0.7818608E-02  0.1870268E+00
         -2   -1    0    0    0  501 -0.00000000000E+00  0.00000000000E+00  0.11834319432E+03  0.11834319434E+03  0.25500000000E-02 0.  1.
          2   -1    0    0  501    0  0.00000000000E+00 -0.00000000000E+00 -0.47076775106E+00  0.47077465728E+00  0.25500000000E-02 0. -1.
         31    1    1    2    0    0 -0.45793296024E+00 -0.33275673550E-03  0.60604626891E+02  0.61062176749E+02  0.74470750000E+01 0.  1.
        -31    1    1    2    0    0  0.45793296024E+00  0.33275673550E-03  0.57267799675E+02  0.57751792252E+02  0.74470750000E+01 0.  1.
<mgrwt>
<rscale>  0 0.14928171E+02</rscale>
<asrwt>0</asrwt>
<pdfrwt beam="2">  1        2 0.99979937E+00 0.14928171E+02</pdfrwt>
<pdfrwt beam="1">  1       -2 0.98243703E+00 0.14928171E+02</pdfrwt>
<totfact> 0.60386103E-14</totfact>
</mgrwt>
</event>
<event>
 4    1 -0.5109406E-019  0.1493759E+02  0.7818608E-02  0.1869979E+00
          2   -1    0    0  501    0  0.00000000000E+00  0.00000000000E+00  0.11896721252E+03  0.11896721254E+03  0.25500000000E-02 0. -1.
         -2   -1    0    0    0  501 -0.00000000000E+00 -0.00000000000E+00 -0.46888956399E+00  0.46889649787E+00  0.25500000000E-02 0.  1.
         31    1    1    2    0    0 -0.23603397242E+00  0.48617777133E+00  0.60677082350E+02  0.61134763674E+02  0.74470750000E+01 0. -1.
        -31    1    1    2    0    0  0.23603397242E+00 -0.48617777133E+00  0.57821240602E+02  0.58301345367E+02  0.74470750000E+01 0. -1.
<mgrwt>
<rscale>  0 0.14937590E+02</rscale>
<asrwt>0</asrwt>
<pdfrwt beam="1">  1        2 0.98758131E+00 0.14937590E+02</pdfrwt>
<pdfrwt beam="2">  1       -2 0.99584696E+00 0.14937590E+02</pdfrwt>
<totfact>-0.22468538E-13</totfact>
</mgrwt>
</event>
<event>
 4    1 -0.5109406E-019  0.1499796E+02  0.7818608E-02  0.1868131E+00
          2   -1    0    0  501    0  0.00000000000E+00  0.00000000000E+00  0.11966928067E+03  0.11966928070E+03  0.25500000000E-02 0. -1.
         -2   -1    0    0    0  501 -0.00000000000E+00 -0.00000000000E+00 -0.46991410287E+00  0.46992102163E+00  0.25500000000E-02 0.  1.
         31    1    1    2    0    0 -0.86241285601E+00 -0.13439153672E+00  0.58653345919E+02  0.59130666584E+02  0.74470750000E+01 0. -1.
        -31    1    1    2    0    0  0.86241285601E+00  0.13439153672E+00  0.60546020650E+02  0.61008535138E+02  0.74470750000E+01 0. -1.
<mgrwt>
<rscale>  0 0.14997960E+02</rscale>
<asrwt>0</asrwt>
<pdfrwt beam="1">  1        2 0.99339498E+00 0.14997960E+02</pdfrwt>
<pdfrwt beam="2">  1       -2 0.99803736E+00 0.14997960E+02</pdfrwt>
<totfact>-0.80138414E-14</totfact>
</mgrwt>
</event>
<event>
 4    1  0.5109406E-019  0.1489465E+02  0.7818608E-02  0.1871300E+00
          2   -1    0    0  501    0  0.00000000000E+00  0.00000000000E+00  0.12019405756E+03  0.12019405759E+03  0.25500000000E-02 0. -1.
         -2   -1    0    0    0  501 -0.00000000000E+00 -0.00000000000E+00 -0.46143914326E+00  0.46144618910E+00  0.25500000000E-02 0.  1.
         31    1    1    2    0    0 -0.47775866870E-01 -0.15041402868E-01  0.60150962093E+02  0.60610227483E+02  0.74470750000E+01 0. -1.
        -31    1    1    2    0    0  0.47775866870E-01  0.15041402868E-01  0.59581656322E+02  0.60045276291E+02  0.74470750000E+01 0.  1.
<mgrwt>
<rscale>  0 0.14894653E+02</rscale>
<asrwt>0</asrwt>
<pdfrwt beam="1">  1        2 0.99766412E+00 0.14894653E+02</pdfrwt>
<pdfrwt beam="2">  1       -2 0.98012347E+00 0.14894653E+02</pdfrwt>
<totfact> 0.85625327E-13</totfact>
</mgrwt>
</event>
<event>
 4    1 -0.5109406E-019  0.1497313E+02  0.7818608E-02  0.1868890E+00
          2   -1    0    0  501    0  0.00000000000E+00  0.00000000000E+00  0.11905878251E+03  0.11905878253E+03  0.25500000000E-02 0. -1.
         -2   -1    0    0    0  501 -0.00000000000E+00 -0.00000000000E+00 -0.47076102438E+00  0.47076793070E+00  0.25500000000E-02 0.  1.
         31    1    1    2    0    0 -0.24965206459E+00  0.59128529779E+00  0.62659917473E+02  0.63104168866E+02  0.74470750000E+01 0. -1.
        -31    1    1    2    0    0  0.24965206459E+00 -0.59128529779E+00  0.55928104010E+02  0.56425381600E+02  0.74470750000E+01 0. -1.
<mgrwt>
<rscale>  0 0.14973129E+02</rscale>
<asrwt>0</asrwt>
<pdfrwt beam="1">  1        2 0.98835395E+00 0.14973129E+02</pdfrwt>
<pdfrwt beam="2">  1       -2 0.99980895E+00 0.14973129E+02</pdfrwt>
<totfact>-0.14122096E-14</totfact>
</mgrwt>
</event>
<event>
 4    1 -0.5109406E-019  0.1495768E+02  0.7818608E-02  0.1869363E+00
          2   -1    0    0  501    0  0.00000000000E+00  0.00000000000E+00  0.11919480101E+03  0.11919480104E+03  0.25500000000E-02 0. -1.
         -2   -1    0    0    0  501 -0.00000000000E+00 -0.00000000000E+00 -0.46925367036E+00  0.46926059887E+00  0.25500000000E-02 0.  1.
         31    1    1    2    0    0  0.60314911862E+00 -0.13809788197E+00  0.56946400789E+02  0.57434609329E+02  0.74470750000E+01 0.  1.
        -31    1    1    2    0    0 -0.60314911862E+00  0.13809788197E+00  0.61779146554E+02  0.62229452310E+02  0.74470750000E+01 0.  1.
<mgrwt>
<rscale>  0 0.14957675E+02</rscale>
<asrwt>0</asrwt>
<pdfrwt beam="1">  1        2 0.98946619E+00 0.14957675E+02</pdfrwt>
<pdfrwt beam="2">  1       -2 0.99662469E+00 0.14957675E+02</pdfrwt>
<totfact>-0.16216660E-13</totfact>
</mgrwt>
</event>
<event>
 4    1  0.5109406E-019  0.1494840E+02  0.7818608E-02  0.1869647E+00
          2   -1    0    0  501    0  0.00000000000E+00  0.00000000000E+00  0.12011219460E+03  0.12011219463E+03  0.25500000000E-02 0.  1.
         -2   -1    0    0    0  501 -0.00000000000E+00 -0.00000000000E+00 -0.46509218336E+00  0.46509917386E+00  0.25500000000E-02 0. -1.
         31    1    1    2    0    0 -0.37527839576E+00  0.38568715876E+00  0.57086358135E+02  0.57572569854E+02  0.74470750000E+01 0. -1.
        -31    1    1    2    0    0  0.37527839576E+00 -0.38568715876E+00  0.62560744281E+02  0.63004723946E+02  0.74470750000E+01 0.  1.
<mgrwt>
<rscale>  0 0.14948400E+02</rscale>
<asrwt>0</asrwt>
<pdfrwt beam="1">  1        2 0.99701743E+00 0.14948400E+02</pdfrwt>
<pdfrwt beam="2">  1       -2 0.98785012E+00 0.14948400E+02</pdfrwt>
<totfact> 0.12093415E-13</totfact>
</mgrwt>
</event>
<event>
 4    1 -0.5109406E-019  0.1497314E+02  0.7818608E-02  0.1868889E+00
         -2   -1    0    0    0  501 -0.00000000000E+00  0.00000000000E+00  0.11995285918E+03  0.11995285921E+03  0.25500000000E-02 0.  1.
          2   -1    0    0  501    0  0.00000000000E+00 -0.00000000000E+00 -0.46725302356E+00  0.46725998173E+00  0.25500000000E-02 0. -1.
         31    1    1    2    0    0  0.48637781187E+00 -0.19743709425E+00  0.55234132530E+02  0.55736378310E+02  0.74470750000E+01 0. -1.
        -31    1    1    2    0    0 -0.48637781187E+00  0.19743709425E+00  0.64251473628E+02  0.64683740880E+02  0.74470750000E+01 0. -1.
<mgrwt>
<rscale>  0 0.14973144E+02</rscale>
<asrwt>0</asrwt>
<pdfrwt beam="2">  1        2 0.99241676E+00 0.14973144E+02</pdfrwt>
<pdfrwt beam="1">  1       -2 0.99571780E+00 0.14973144E+02</pdfrwt>
<totfact>-0.14154775E-13</totfact>
</mgrwt>
</event>
<event>
 4    1 -0.5109406E-019  0.1492328E+02  0.7818608E-02  0.1870419E+00
         -2   -1    0    0    0  501 -0.00000000000E+00  0.00000000000E+00  0.12001022733E+03  0.12001022736E+03  0.25500000000E-02 0.  1.
          2   -1    0    0  501    0  0.00000000000E+00 -0.00000000000E+00 -0.46392426736E+00  0.46393127545E+00  0.25500000000E-02 0. -1.
         31    1    1    2    0    0 -0.39801504893E+00 -0.23402429510E+00  0.59264420154E+02  0.59732266035E+02  0.74470750000E+01 0. -1.
        -31    1    1    2    0    0  0.39801504893E+00  0.23402429510E+00  0.60281882912E+02  0.60741892602E+02  0.74470750000E+01 0.  1.
<mgrwt>
<rscale>  0 0.14923281E+02</rscale>
<asrwt>0</asrwt>
<pdfrwt beam="2">  1        2 0.98537584E+00 0.14923281E+02</pdfrwt>
<pdfrwt beam="1">  1       -2 0.99616464E+00 0.14923281E+02</pdfrwt>
<totfact>-0.30092359E-13</totfact>
</mgrwt>
</event>
<event>
 4    1 -0.5109406E-019  0.1492404E+02  0.7818608E-02  0.1870395E+00
          2   -1    0    0  501    0  0.00000000000E+00  0.00000000000E+00  0.11849550698E+03  0.11849550701E+03  0.25500000000E-02 0.  1.
         -2   -1    0    0    0  501 -0.00000000000E+00 -0.00000000000E+00 -0.46990218881E+00  0.46990910775E+00  0.25500000000E-02 0. -1.
         31    1    1    2    0    0  0.11555808865E+00  0.18485347016E+00  0.55675644318E+02  0.56171913095E+02  0.74470750000E+01 0. -1.
        -31    1    1    2    0    0 -0.11555808865E+00 -0.18485347016E+00  0.62349960475E+02  0.62793503022E+02  0.74470750000E+01 0.  1.
<mgrwt>
<rscale>  0 0.14924036E+02</rscale>
<asrwt>0</asrwt>
<pdfrwt beam="1">  1        2 0.98368930E+00 0.14924036E+02</pdfrwt>
<pdfrwt beam="2">  1       -2 0.99797349E+00 0.14924036E+02</pdfrwt>
<totfact>-0.25892678E-13</totfact>
</mgrwt>
</event>
<event>
 4    1 -0.5109406E-019  0.1490759E+02  0.7818608E-02  0.1870902E+00
          2   -1    0    0  501    0  0.00000000000E+00  0.00000000000E+00  0.11822353388E+03  0.11822353390E+03  0.25500000000E-02 0. -1.
         -2   -1    0    0    0  501 -0.00000000000E+00 -0.00000000000E+00 -0.46994568459E+00  0.46995260290E+00  0.25500000000E-02 0.  1.
         31    1    1    2    0    0  0.26282656787E+00 -0.17618562957E+00  0.58856436794E+02  0.59326547155E+02  0.74470750000E+01 0.  1.
        -31    1    1    2    0    0 -0.26282656787E+00  0.17618562957E+00  0.58897151398E+02  0.59366939352E+02  0.74470750000E+01 0. -1.
<mgrwt>
<rscale>  0 0.14907589E+02</rscale>
<asrwt>0</asrwt>
<pdfrwt beam="1">  1        2 0.98144079E+00 0.14907589E+02</pdfrwt>
<pdfrwt beam="2">  1       -2 0.99805643E+00 0.14907589E+02</pdfrwt>
<totfact>-0.36585322E-13</totfact>
</mgrwt>
</event>
<event>
 4    1 -0.5109406E-019  0.1493829E+02  0.7818608E-02  0.1869958E+00
         -2   -1    0    0    0  501 -0.00000000000E+00  0.00000000000E+00  0.11984853972E+03  0.11984853975E+03  0.25500000000E-02 0. -1.
          2   -1    0    0  501    0  0.00000000000E+00 -0.00000000000E+00 -0.46548491002E+00  0.46549189462E+00  0.25500000000E-02 0.  1.
         31    1    1    2    0    0  0.27051368785E+00 -0.50594069785E+00  0.59648280580E+02  0.60114103635E+02  0.74470750000E+01 0. -1.
        -31    1    1    2    0    0 -0.27051368785E+00  0.50594069785E+00  0.59734774231E+02  0.60199928008E+02  0.74470750000E+01 0. -1.
<mgrwt>
<rscale>  0 0.14938288E+02</rscale>
<asrwt>0</asrwt>
<pdfrwt beam="2">  1        2 0.98867264E+00 0.14938288E+02</pdfrwt>
<pdfrwt beam="1">  1       -2 0.99484059E+00 0.14938288E+02</pdfrwt>
<totfact>-0.20602456E-13</totfact>
</mgrwt>
</event>
<event>
 4    1 -0.5109406E-019  0.1498285E+02  0.7818608E-02  0.1868592E+00
          2   -1    0    0  501    0  0.00000000000E+00  0.00000000000E+00  0.12000676991E+03  0.12000676994E+03  0.25500000000E-02 0. -1.
         -2   -1    0    0    0  501 -0.00000000000E+00 -0.00000000000E+00 -0.46764905096E+00  0.46765600324E+00  0.25500000000E-02 0.  1.
         31    1    1    2    0    0  0.23702546487E+00 -0.36838325094E+00  0.65285932923E+02  0.65710759020E+02  0.74470750000E+01 0. -1.
        -31    1    1    2    0    0 -0.23702546487E+00  0.36838325094E+00  0.54253187935E+02  0.54763666919E+02  0.74470750000E+01 0.  1.
<mgrwt>
<rscale>  0 0.14982853E+02</rscale>
<asrwt>0</asrwt>
<pdfrwt beam="1">  1        2 0.99616685E+00 0.14982853E+02</pdfrwt>
<pdfrwt beam="2">  1       -2 0.99325635E+00 0.14982853E+02</pdfrwt>
<totfact>-0.93130030E-14</totfact>
</mgrwt>
</event>
<event>
 4    1 -0.5109406E-019  0.1500109E+02  0.7818608E-02  0.1868035E+00
          2   -1    0    0  501    0  0.00000000000E+00  0.00000000000E+00  0.12023538569E+03  0.12023538572E+03  0.25500000000E-02 0. -1.
         -2   -1    0    0    0  501 -0.00000000000E+00 -0.00000000000E+00 -0.46789709009E+00  0.46790403868E+00  0.25500000000E-02 0.  1.
         31    1    1    2    0    0  0.30689486914E+00 -0.34528347659E+00  0.53724898282E+02  0.54240547809E+02  0.74470750000E+01 0.  1.
        -31    1    1    2    0    0 -0.30689486914E+00  0.34528347659E+00  0.66042590319E+02  0.66462741948E+02  0.74470750000E+01 0. -1.
<mgrwt>
<rscale>  0 0.15001094E+02</rscale>
<asrwt>0</asrwt>
<pdfrwt beam="1">  1        2 0.99805925E+00 0.15001094E+02</pdfrwt>
<pdfrwt beam="2">  1       -2 0.99378845E+00 0.15001094E+02</pdfrwt>
<totfact>-0.61591211E-14</totfact>
</mgrwt>
</event>
<event>
 4    1 -0.5109406E-019  0.1493422E+02  0.7818608E-02  0.1870082E+00
          2   -1    0    0  501    0  0.00000000000E+00  0.00000000000E+00  0.11898473054E+03  0.11898473057E+03  0.25500000000E-02 0. -1.
         -2   -1    0    0    0  501 -0.00000000000E+00 -0.00000000000E+00 -0.46860913757E+00  0.46861607561E+00  0.25500000000E-02 0.  1.
         31    1    1    2    0    0 -0.27455302235E+00 -0.30714696655E+00  0.62132045018E+02  0.62578108494E+02  0.74470750000E+01 0. -1.
        -31    1    1    2    0    0  0.27455302235E+00  0.30714696655E+00  0.56384076388E+02  0.56875238151E+02  0.74470750000E+01 0.  1.
<mgrwt>
<rscale>  0 0.14934222E+02</rscale>
<asrwt>0</asrwt>
<pdfrwt beam="1">  1        2 0.98772385E+00 0.14934222E+02</pdfrwt>
<pdfrwt beam="2">  1       -2 0.99525429E+00 0.14934222E+02</pdfrwt>
<totfact>-0.22947038E-13</totfact>
</mgrwt>
</event>
<event>
 4    1  0.5109406E-019  0.1490622E+02  0.7818608E-02  0.1870944E+00
          2   -1    0    0  501    0  0.00000000000E+00  0.00000000000E+00  0.11986392038E+03  0.11986392041E+03  0.25500000000E-02 0. -1.
         -2   -1    0    0    0  501 -0.00000000000E+00 -0.00000000000E+00 -0.46342900211E+00  0.46343601769E+00  0.25500000000E-02 0.  1.
         31    1    1    2    0    0  0.23845235922E+00  0.48115411728E-01  0.58284943534E+02  0.58759277935E+02  0.74470750000E+01 0. -1.
        -31    1    1    2    0    0 -0.23845235922E+00 -0.48115411728E-01  0.61115547845E+02  0.61568078491E+02  0.74470750000E+01 0.  1.
<mgrwt>
<rscale>  0 0.14906219E+02</rscale>
<asrwt>0</asrwt>
<pdfrwt beam="1">  1        2 0.99495077E+00 0.14906219E+02</pdfrwt>
<pdfrwt beam="2">  1       -2 0.98432334E+00 0.14906219E+02</pdfrwt>
<totfact> 0.58469677E-13</totfact>
</mgrwt>
</event>
<event>
 4    1 -0.5109406E-019  0.1495961E+02  0.7818608E-02  0.1869303E+00
         -2   -1    0    0    0  501 -0.00000000000E+00  0.00000000000E+00  0.11971628248E+03  0.11971628251E+03  0.25500000000E-02 0.  1.
          2   -1    0    0  501    0  0.00000000000E+00 -0.00000000000E+00 -0.46733071043E+00  0.46733766745E+00  0.25500000000E-02 0. -1.
         31    1    1    2    0    0 -0.28145438121E+00 -0.46062331915E+00  0.63192080871E+02  0.63631669798E+02  0.74470750000E+01 0.  1.
        -31    1    1    2    0    0  0.28145438121E+00  0.46062331915E+00  0.56056870898E+02  0.56551950376E+02  0.74470750000E+01 0. -1.
<mgrwt>
<rscale>  0 0.14959614E+02</rscale>
<asrwt>0</asrwt>
<pdfrwt beam="2">  1        2 0.99257350E+00 0.14959614E+02</pdfrwt>
<pdfrwt beam="1">  1       -2 0.99376226E+00 0.14959614E+02</pdfrwt>
<totfact>-0.13948857E-13</totfact>
</mgrwt>
</event>
<event>
 4    1 -0.5109406E-019  0.1496663E+02  0.7818608E-02  0.1869089E+00
          2   -1    0    0  501    0  0.00000000000E+00  0.00000000000E+00  0.11979085200E+03  0.11979085202E+03  0.25500000000E-02 0. -1.
         -2   -1    0    0    0  501 -0.00000000000E+00 -0.00000000000E+00 -0.46747792724E+00  0.46748488206E+00  0.25500000000E-02 0.  1.
         31    1    1    2    0    0 -0.72416462550E+00 -0.12021024063E+00  0.59284118573E+02  0.59754535443E+02  0.74470750000E+01 0. -1.
        -31    1    1    2    0    0  0.72416462550E+00  0.12021024063E+00  0.60039255496E+02  0.60503801463E+02  0.74470750000E+01 0. -1.
<mgrwt>
<rscale>  0 0.14966629E+02</rscale>
<asrwt>0</asrwt>
<pdfrwt beam="1">  1        2 0.99438007E+00 0.14966629E+02</pdfrwt>
<pdfrwt beam="2">  1       -2 0.99288736E+00 0.14966629E+02</pdfrwt>
<totfact>-0.10742793E-13</totfact>
</mgrwt>
</event>
<event>
 4    1 -0.5109406E-019  0.1497133E+02  0.7818608E-02  0.1868945E+00
         -2   -1    0    0    0  501 -0.00000000000E+00  0.00000000000E+00  0.11958386212E+03  0.11958386214E+03  0.25500000000E-02 0. -1.
          2   -1    0    0  501    0  0.00000000000E+00 -0.00000000000E+00 -0.46858123848E+00  0.46858817693E+00  0.25500000000E-02 0.  1.
         31    1    1    2    0    0 -0.18560374761E+00  0.70037647794E+00  0.57741942197E+02  0.58224700864E+02  0.74470750000E+01 0.  1.
        -31    1    1    2    0    0  0.18560374761E+00 -0.70037647794E+00  0.61373338679E+02  0.61827749455E+02  0.74470750000E+01 0. -1.
<mgrwt>
<rscale>  0 0.14971329E+02</rscale>
<asrwt>0</asrwt>
<pdfrwt beam="2">  1        2 0.99521483E+00 0.14971329E+02</pdfrwt>
<pdfrwt beam="1">  1       -2 0.99267766E+00 0.14971329E+02</pdfrwt>
<totfact>-0.94620667E-14</totfact>
</mgrwt>
</event>
<event>
 4    1 -0.5109406E-019  0.1492552E+02  0.7818608E-02  0.1870350E+00
         -2   -1    0    0    0  501 -0.00000000000E+00  0.00000000000E+00  0.11982323893E+03  0.11982323895E+03  0.25500000000E-02 0.  1.
          2   -1    0    0  501    0  0.00000000000E+00 -0.00000000000E+00 -0.46478760722E+00  0.46479460230E+00  0.25500000000E-02 0. -1.
         31    1    1    2    0    0 -0.17419295719E+00  0.12314996783E+00  0.63176812707E+02  0.63614574580E+02  0.74470750000E+01 0.  1.
        -31    1    1    2    0    0  0.17419295719E+00 -0.12314996783E+00  0.56181638613E+02  0.56673458977E+02  0.74470750000E+01 0. -1.
<mgrwt>
<rscale>  0 0.14925519E+02</rscale>
<asrwt>0</asrwt>
<pdfrwt beam="2">  1        2 0.98719653E+00 0.14925519E+02</pdfrwt>
<pdfrwt beam="1">  1       -2 0.99462562E+00 0.14925519E+02</pdfrwt>
<totfact>-0.24904254E-13</totfact>
</mgrwt>
</event>
<event>
 4    1 -0.5109406E-019  0.1500557E+02  0.7818608E-02  0.1867898E+00
          2   -1    0    0  501    0  0.00000000000E+00  0.00000000000E+00  0.11974246280E+03  0.11974246283E+03  0.25500000000E-02 0.  1.
         -2   -1    0    0    0  501 -0.00000000000E+00 -0.00000000000E+00 -0.47010391738E+00  0.47011083335E+00  0.25500000000E-02 0. -1.
         31    1    1    2    0    0 -0.90288211398E+00 -0.42941868596E-01  0.60644826491E+02  0.61107044981E+02  0.74470750000E+01 0.  1.
        -31    1    1    2    0    0  0.90288211398E+00  0.42941868596E-01  0.58627532397E+02  0.59105528685E+02  0.74470750000E+01 0. -1.
<mgrwt>
<rscale>  0 0.15005575E+02</rscale>
<asrwt>0</asrwt>
<pdfrwt beam="1">  1        2 0.99400167E+00 0.15005575E+02</pdfrwt>
<pdfrwt beam="2">  1       -2 0.99844130E+00 0.15005575E+02</pdfrwt>
<totfact>-0.63085574E-14</totfact>
</mgrwt>
</event>
<event>
 4    1 -0.5109406E-019  0.1495116E+02  0.7818608E-02  0.1869563E+00
          2   -1    0    0  501    0  0.00000000000E+00  0.00000000000E+00  0.11893937690E+03  0.11893937693E+03  0.25500000000E-02 0. -1.
         -2   -1    0    0    0  501 -0.00000000000E+00 -0.00000000000E+00 -0.46985162427E+00  0.46985854396E+00  0.25500000000E-02 0.  1.
         31    1    1    2    0    0 -0.46136230181E+00  0.10591495418E+00  0.62817855138E+02  0.63259512513E+02  0.74470750000E+01 0. -1.
        -31    1    1    2    0    0  0.46136230181E+00 -0.10591495418E+00  0.55651670137E+02  0.56149722958E+02  0.74470750000E+01 0.  1.
<mgrwt>
<rscale>  0 0.14951157E+02</rscale>
<asrwt>0</asrwt>
<pdfrwt beam="1">  1        2 0.98735911E+00 0.14951157E+02</pdfrwt>
<pdfrwt beam="2">  1       -2 0.99788123E+00 0.14951157E+02</pdfrwt>
<totfact>-0.15121168E-13</totfact>
</mgrwt>
</event>
<event>
 4    1 -0.5109406E-019  0.1495038E+02  0.7818608E-02  0.1869586E+00
          2   -1    0    0  501    0  0.00000000000E+00  0.00000000000E+00  0.11909590891E+03  0.11909590894E+03  0.25500000000E-02 0. -1.
         -2   -1    0    0    0  501 -0.00000000000E+00 -0.00000000000E+00 -0.46918545409E+00  0.46919238361E+00  0.25500000000E-02 0.  1.
         31    1    1    2    0    0 -0.41712452834E+00 -0.23152968593E+00  0.55809423357E+02  0.56306112105E+02  0.74470750000E+01 0.  1.
        -31    1    1    2    0    0  0.41712452834E+00  0.23152968593E+00  0.62817300101E+02  0.63258989218E+02  0.74470750000E+01 0.  1.
<mgrwt>
<rscale>  0 0.14950382E+02</rscale>
<asrwt>0</asrwt>
<pdfrwt beam="1">  1        2 0.98864791E+00 0.14950382E+02</pdfrwt>
<pdfrwt beam="2">  1       -2 0.99647713E+00 0.14950382E+02</pdfrwt>
<totfact>-0.18182142E-13</totfact>
</mgrwt>
</event>
<event>
 4    1  0.5109406E-019  0.1492864E+02  0.7818608E-02  0.1870254E+00
          2   -1    0    0  501    0  0.00000000000E+00  0.00000000000E+00  0.12000520000E+03  0.12000520002E+03  0.25500000000E-02 0.  1.
         -2   -1    0    0    0  501 -0.00000000000E+00 -0.00000000000E+00 -0.46427726992E+00  0.46428427268E+00  0.25500000000E-02 0. -1.
         31    1    1    2    0    0  0.16369193575E+00 -0.22335920614E+00  0.63198887686E+02  0.63636742651E+02  0.74470750000E+01 0.  1.
        -31    1    1    2    0    0 -0.16369193575E+00  0.22335920614E+00  0.56342035040E+02  0.56832741645E+02  0.74470750000E+01 0. -1.
<mgrwt>
<rscale>  0 0.14928645E+02</rscale>
<asrwt>0</asrwt>
<pdfrwt beam="1">  1        2 0.99612598E+00 0.14928645E+02</pdfrwt>
<pdfrwt beam="2">  1       -2 0.98612256E+00 0.14928645E+02</pdfrwt>
<totfact> 0.29708446E-13</totfact>
</mgrwt>
</event>
<event>
 4    1 -0.5109406E-019  0.1494123E+02  0.7818608E-02  0.1869867E+00
         -2   -1    0    0    0  501 -0.00000000000E+00  0.00000000000E+00  0.12036076873E+03  0.12036076876E+03  0.25500000000E-02 0.  1.
          2   -1    0    0  501    0  0.00000000000E+00 -0.00000000000E+00 -0.46368647655E+00  0.46369348823E+00  0.25500000000E-02 0. -1.
         31    1    1    2    0    0  0.26926131500E+00 -0.26910705767E+00  0.63620980501E+02  0.64056482937E+02  0.74470750000E+01 0.  1.
        -31    1    1    2    0    0 -0.26926131500E+00  0.26910705767E+00  0.56276101757E+02  0.56767979313E+02  0.74470750000E+01 0. -1.
<mgrwt>
<rscale>  0 0.14941230E+02</rscale>
<asrwt>0</asrwt>
<pdfrwt beam="2">  1        2 0.98488376E+00 0.14941230E+02</pdfrwt>
<pdfrwt beam="1">  1       -2 0.99906119E+00 0.14941230E+02</pdfrwt>
<totfact>-0.10849856E-13</totfact>
</mgrwt>
</event>
<event>
 4    1  0.5109406E-019  0.1493695E+02  0.7818608E-02  0.1869999E+00
          2   -1    0    0  501    0  0.00000000000E+00  0.00000000000E+00  0.12002149181E+03  0.12002149183E+03  0.25500000000E-02 0. -1.
         -2   -1    0    0    0  501 -0.00000000000E+00 -0.00000000000E+00 -0.46473107190E+00  0.46473806783E+00  0.25500000000E-02 0.  1.
         31    1    1    2    0    0 -0.29184753854E+00  0.21677661846E+00  0.63266972360E+02  0.63704794833E+02  0.74470750000E+01 0. -1.
        -31    1    1    2    0    0  0.29184753854E+00 -0.21677661846E+00  0.56289788374E+02  0.56781435068E+02  0.74470750000E+01 0.  1.
<mgrwt>
<rscale>  0 0.14936953E+02</rscale>
<asrwt>0</asrwt>
<pdfrwt beam="1">  1        2 0.99626445E+00 0.14936953E+02</pdfrwt>
<pdfrwt beam="2">  1       -2 0.98708322E+00 0.14936953E+02</pdfrwt>
<totfact> 0.20158841E-13</totfact>
</mgrwt>
</event>
<event>
 4    1 -0.5109406E-019  0.1491916E+02  0.7818608E-02  0.1870545E+00
          2   -1    0    0  501    0  0.00000000000E+00  0.00000000000E+00  0.11841874832E+03  0.11841874835E+03  0.25500000000E-02 0.  1.
         -2   -1    0    0    0  501 -0.00000000000E+00 -0.00000000000E+00 -0.46989948822E+00  0.46990640720E+00  0.25500000000E-02 0. -1.
         31    1    1    2    0    0  0.14406658739E+00 -0.39455731747E-01  0.62202393925E+02  0.62646780029E+02  0.74470750000E+01 0.  1.
        -31    1    1    2    0    0 -0.14406658739E+00  0.39455731747E-01  0.55746454908E+02  0.56241874727E+02  0.74470750000E+01 0. -1.
<mgrwt>
<rscale>  0 0.14919158E+02</rscale>
<asrwt>0</asrwt>
<pdfrwt beam="1">  1        2 0.98305458E+00 0.14919158E+02</pdfrwt>
<pdfrwt beam="2">  1       -2 0.99796522E+00 0.14919158E+02</pdfrwt>
<totfact>-0.28908776E-13</totfact>
</mgrwt>
</event>
<event>
 4    1 -0.5109406E-019  0.1501165E+02  0.7818608E-02  0.1867713E+00
          2   -1    0    0  501    0  0.00000000000E+00  0.00000000000E+00  0.12024179808E+03  0.12024179811E+03  0.25500000000E-02 0.  1.
         -2   -1    0    0    0  501 -0.00000000000E+00 -0.00000000000E+00 -0.46853087300E+00  0.46853781219E+00  0.25500000000E-02 0. -1.
         31    1    1    2    0    0 -0.62845986387E+00  0.57914177754E+00  0.62981385338E+02  0.63425895281E+02  0.74470750000E+01 0. -1.
        -31    1    1    2    0    0  0.62845986387E+00 -0.57914177754E+00  0.56791881867E+02  0.57284440636E+02  0.74470750000E+01 0. -1.
<mgrwt>
<rscale>  0 0.15011651E+02</rscale>
<asrwt>0</asrwt>
<pdfrwt beam="1">  1        2 0.99811751E+00 0.15011651E+02</pdfrwt>
<pdfrwt beam="2">  1       -2 0.99512953E+00 0.15011651E+02</pdfrwt>
<totfact>-0.62236910E-14</totfact>
</mgrwt>
</event>
<event>
 4    1  0.5109406E-019  0.1491506E+02  0.7818608E-02  0.1870672E+00
          2   -1    0    0  501    0  0.00000000000E+00  0.00000000000E+00  0.11987682420E+03  0.11987682423E+03  0.25500000000E-02 0. -1.
         -2   -1    0    0    0  501 -0.00000000000E+00 -0.00000000000E+00 -0.46392908158E+00  0.46393608960E+00  0.25500000000E-02 0.  1.
         31    1    1    2    0    0  0.46565246999E-01 -0.32041530520E+00  0.57884203779E+02  0.58362186452E+02  0.74470750000E+01 0.  1.
        -31    1    1    2    0    0 -0.46565246999E-01  0.32041530520E+00  0.61528691340E+02  0.61978573865E+02  0.74470750000E+01 0. -1.
<mgrwt>
<rscale>  0 0.14915062E+02</rscale>
<asrwt>0</asrwt>
<pdfrwt beam="1">  1        2 0.99506160E+00 0.14915062E+02</pdfrwt>
<pdfrwt beam="2">  1       -2 0.98538180E+00 0.14915062E+02</pdfrwt>
<totfact> 0.43100289E-13</totfact>
</mgrwt>
</event>
<event>
 4    1 -0.5109406E-019  0.1501482E+02  0.7818608E-02  0.1867617E+00
          2   -1    0    0  501    0  0.00000000000E+00  0.00000000000E+00  0.11991192973E+03  0.11991192976E+03  0.25500000000E-02 0. -1.
         -2   -1    0    0    0  501 -0.00000000000E+00 -0.00000000000E+00 -0.47001814385E+00  0.47002506109E+00  0.25500000000E-02 0.  1.
         31    1    1    2    0    0  0.55605437647E+00  0.26729146358E+00  0.53930350508E+02  0.54445590025E+02  0.74470750000E+01 0.  1.
        -31    1    1    2    0    0 -0.55605437647E+00 -0.26729146358E+00  0.65511561079E+02  0.65936364794E+02  0.74470750000E+01 0. -1.
<mgrwt>
<rscale>  0 0.15014819E+02</rscale>
<asrwt>0</asrwt>
<pdfrwt beam="1">  1        2 0.99540223E+00 0.15014819E+02</pdfrwt>
<pdfrwt beam="2">  1       -2 0.99826536E+00 0.15014819E+02</pdfrwt>
<totfact>-0.60366407E-14</totfact>
</mgrwt>
</event>
<event>
 4    1  0.5109406E-019  0.1493420E+02  0.7818608E-02  0.1870083E+00
          2   -1    0    0  501    0  0.00000000000E+00  0.00000000000E+00  0.12002499349E+03  0.12002499351E+03  0.25500000000E-02 0.  1.
         -2   -1    0    0    0  501 -0.00000000000E+00 -0.00000000000E+00 -0.46454615832E+00  0.46455315703E+00  0.25500000000E-02 0. -1.
         31    1    1    2    0    0  0.19435104964E+00 -0.15403516349E+00  0.63709177089E+02  0.64143430455E+02  0.74470750000E+01 0.  1.
        -31    1    1    2    0    0 -0.19435104964E+00  0.15403516349E+00  0.55851270238E+02  0.56346116214E+02  0.74470750000E+01 0. -1.
<mgrwt>
<rscale>  0 0.14934199E+02</rscale>
<asrwt>0</asrwt>
<pdfrwt beam="1">  1        2 0.99629187E+00 0.14934199E+02</pdfrwt>
<pdfrwt beam="2">  1       -2 0.98669209E+00 0.14934199E+02</pdfrwt>
<totfact> 0.23521969E-13</totfact>
</mgrwt>
</event>
<event>
 4    1 -0.5109406E-019  0.1500062E+02  0.7818608E-02  0.1868050E+00
          2   -1    0    0  501    0  0.00000000000E+00  0.00000000000E+00  0.11987606473E+03  0.11987606475E+03  0.25500000000E-02 0.  1.
         -2   -1    0    0    0  501 -0.00000000000E+00 -0.00000000000E+00 -0.46927000124E+00  0.46927692950E+00  0.25500000000E-02 0. -1.
         31    1    1    2    0    0 -0.86846736948E+00 -0.12446262947E-01  0.58072144872E+02  0.58554140132E+02  0.74470750000E+01 0. -1.
        -31    1    1    2    0    0  0.86846736948E+00  0.12446262947E-01  0.61334649853E+02  0.61791201551E+02  0.74470750000E+01 0. -1.
<mgrwt>
<rscale>  0 0.15000621E+02</rscale>
<asrwt>0</asrwt>
<pdfrwt beam="1">  1        2 0.99509949E+00 0.15000621E+02</pdfrwt>
<pdfrwt beam="2">  1       -2 0.99668145E+00 0.15000621E+02</pdfrwt>
<totfact>-0.10067248E-13</totfact>
</mgrwt>
</event>
<event>
 4    1 -0.5109406E-019  0.1492551E+02  0.7818608E-02  0.1870350E+00
         -2   -1    0    0    0  501 -0.00000000000E+00  0.00000000000E+00  0.11980648763E+03  0.11980648766E+03  0.25500000000E-02 0. -1.
          2   -1    0    0  501    0  0.00000000000E+00 -0.00000000000E+00 -0.46485200340E+00  0.46485899751E+00  0.25500000000E-02 0.  1.
         31    1    1    2    0    0  0.33753864683E+00  0.29270383123E+00  0.58181177137E+02  0.58657547741E+02  0.74470750000E+01 0. -1.
        -31    1    1    2    0    0 -0.33753864683E+00 -0.29270383123E+00  0.61160458488E+02  0.61613798913E+02  0.74470750000E+01 0.  1.
<mgrwt>
<rscale>  0 0.14925509E+02</rscale>
<asrwt>0</asrwt>
<pdfrwt beam="2">  1        2 0.98733224E+00 0.14925509E+02</pdfrwt>
<pdfrwt beam="1">  1       -2 0.99448764E+00 0.14925509E+02</pdfrwt>
<totfact>-0.24385883E-13</totfact>
</mgrwt>
</event>
<event>
 4    1 -0.5109406E-019  0.1498182E+02  0.7818608E-02  0.1868624E+00
         -2   -1    0    0    0  501 -0.00000000000E+00  0.00000000000E+00  0.12030428671E+03  0.12030428674E+03  0.25500000000E-02 0.  1.
          2   -1    0    0  501    0  0.00000000000E+00 -0.00000000000E+00 -0.46642803216E+00  0.46643500264E+00  0.25500000000E-02 0. -1.
         31    1    1    2    0    0  0.27918703041E+00  0.67216843411E+00  0.57068512070E+02  0.57556960933E+02  0.74470750000E+01 0. -1.
        -31    1    1    2    0    0 -0.27918703041E+00 -0.67216843411E+00  0.62769346606E+02  0.63213760805E+02  0.74470750000E+01 0.  1.
<mgrwt>
<rscale>  0 0.14981818E+02</rscale>
<asrwt>0</asrwt>
<pdfrwt beam="2">  1        2 0.99068255E+00 0.14981818E+02</pdfrwt>
<pdfrwt beam="1">  1       -2 0.99861683E+00 0.14981818E+02</pdfrwt>
<totfact>-0.73087612E-14</totfact>
</mgrwt>
</event>
<event>
 4    1 -0.5109406E-019  0.1499681E+02  0.7818608E-02  0.1868166E+00
          2   -1    0    0  501    0  0.00000000000E+00  0.00000000000E+00  0.12007097221E+03  0.12007097224E+03  0.25500000000E-02 0. -1.
         -2   -1    0    0    0  501 -0.00000000000E+00 -0.00000000000E+00 -0.46827044872E+00  0.46827739177E+00  0.25500000000E-02 0.  1.
         31    1    1    2    0    0 -0.38064794216E+00 -0.26318623537E+00  0.65778591861E+02  0.66200424720E+02  0.74470750000E+01 0. -1.
        -31    1    1    2    0    0  0.38064794216E+00  0.26318623537E+00  0.53824109901E+02  0.54338824910E+02  0.74470750000E+01 0.  1.
<mgrwt>
<rscale>  0 0.14996814E+02</rscale>
<asrwt>0</asrwt>
<pdfrwt beam="1">  1        2 0.99670285E+00 0.14996814E+02</pdfrwt>
<pdfrwt beam="2">  1       -2 0.99457307E+00 0.14996814E+02</pdfrwt>
<totfact>-0.93834340E-14</totfact>
</mgrwt>
</event>
<event>
 4    1 -0.5109406E-019  0.1497175E+02  0.7818608E-02  0.1868932E+00
         -2   -1    0    0    0  501 -0.00000000000E+00  0.00000000000E+00  0.11992819075E+03  0.11992819077E+03  0.25500000000E-02 0. -1.
          2   -1    0    0  501    0  0.00000000000E+00 -0.00000000000E+00 -0.46726222642E+00  0.46726918446E+00  0.25500000000E-02 0.  1.
         31    1    1    2    0    0  0.59519661378E+00 -0.43624798192E-01  0.63529987266E+02  0.63967760397E+02  0.74470750000E+01 0. -1.
        -31    1    1    2    0    0 -0.59519661378E+00  0.43624798192E-01  0.55930941252E+02  0.56427699559E+02  0.74470750000E+01 0.  1.
<mgrwt>
<rscale>  0 0.14971751E+02</rscale>
<asrwt>0</asrwt>
<pdfrwt beam="2">  1        2 0.99243543E+00 0.14971751E+02</pdfrwt>
<pdfrwt beam="1">  1       -2 0.99551390E+00 0.14971751E+02</pdfrwt>
<totfact>-0.14347489E-13</totfact>
</mgrwt>
</event>
<event>
 4    1  0.5109406E-019  0.1492417E+02  0.7818608E-02  0.1870391E+00
         -2   -1    0    0    0  501 -0.00000000000E+00  0.00000000000E+00  0.11839168435E+03  0.11839168438E+03  0.25500000000E-02 0.  1.
          2   -1    0    0  501    0  0.00000000000E+00 -0.00000000000E+00 -0.47032246953E+00  0.47032938229E+00  0.25500000000E-02 0. -1.
         31    1    1    2    0    0  0.46668761351E+00 -0.67033362532E-01  0.59265517250E+02  0.59733430772E+02  0.74470750000E+01 0. -1.
        -31    1    1    2    0    0 -0.46668761351E+00  0.67033362532E-01  0.58655844634E+02  0.59128582992E+02  0.74470750000E+01 0. -1.
<mgrwt>
<rscale>  0 0.14924166E+02</rscale>
<asrwt>0</asrwt>
<pdfrwt beam="2">  1        2 0.99885907E+00 0.14924166E+02</pdfrwt>
<pdfrwt beam="1">  1       -2 0.98283429E+00 0.14924166E+02</pdfrwt>
<totfact> 0.28452659E-13</totfact>
</mgrwt>
</event>
<event>
 4    1 -0.5109406E-019  0.1490775E+02  0.7818608E-02  0.1870897E+00
         -2   -1    0    0    0  501 -0.00000000000E+00  0.00000000000E+00  0.12018493255E+03  0.12018493258E+03  0.25500000000E-02 0.  1.
          2   -1    0    0  501    0  0.00000000000E+00 -0.00000000000E+00 -0.46228606041E+00  0.46229309334E+00  0.25500000000E-02 0. -1.
         31    1    1    2    0    0  0.21464606252E+00  0.12962119004E+00  0.58274528101E+02  0.58748978085E+02  0.74470750000E+01 0. -1.
        -31    1    1    2    0    0 -0.21464606252E+00 -0.12962119004E+00  0.61448118388E+02  0.61898247585E+02  0.74470750000E+01 0.  1.
<mgrwt>
<rscale>  0 0.14907749E+02</rscale>
<asrwt>0</asrwt>
<pdfrwt beam="2">  1        2 0.98191517E+00 0.14907749E+02</pdfrwt>
<pdfrwt beam="1">  1       -2 0.99759567E+00 0.14907749E+02</pdfrwt>
<totfact>-0.39888597E-13</totfact>
</mgrwt>
</event>
<event>
 4    1 -0.5109406E-019  0.1499446E+02  0.7818608E-02  0.1868237E+00
         -2   -1    0    0    0  501 -0.00000000000E+00  0.00000000000E+00  0.11988070111E+03  0.11988070113E+03  0.25500000000E-02 0. -1.
          2   -1    0    0  501    0  0.00000000000E+00 -0.00000000000E+00 -0.46886669457E+00  0.46887362879E+00  0.25500000000E-02 0.  1.
         31    1    1    2    0    0  0.45695862881E-01  0.54284055606E+00  0.65106807479E+02  0.65533594973E+02  0.74470750000E+01 0. -1.
        -31    1    1    2    0    0 -0.45695862881E-01 -0.54284055606E+00  0.54305026932E+02  0.54815979788E+02  0.74470750000E+01 0.  1.
<mgrwt>
<rscale>  0 0.14994464E+02</rscale>
<asrwt>0</asrwt>
<pdfrwt beam="2">  1        2 0.99582836E+00 0.14994464E+02</pdfrwt>
<pdfrwt beam="1">  1       -2 0.99513449E+00 0.14994464E+02</pdfrwt>
<totfact>-0.10772850E-13</totfact>
</mgrwt>
</event>
<event>
 4    1 -0.5109406E-019  0.1498035E+02  0.7818608E-02  0.1868669E+00
         -2   -1    0    0    0  501 -0.00000000000E+00  0.00000000000E+00  0.11954560742E+03  0.11954560744E+03  0.25500000000E-02 0. -1.
          2   -1    0    0  501    0  0.00000000000E+00 -0.00000000000E+00 -0.46929618278E+00  0.46930311065E+00  0.25500000000E-02 0.  1.
         31    1    1    2    0    0  0.52222481876E+00 -0.23721880768E+00  0.64033143946E+02  0.64467289699E+02  0.74470750000E+01 0. -1.
        -31    1    1    2    0    0 -0.52222481876E+00  0.23721880768E+00  0.55043167289E+02  0.55547620856E+02  0.74470750000E+01 0. -1.
<mgrwt>
<rscale>  0 0.14980349E+02</rscale>
<asrwt>0</asrwt>
<pdfrwt beam="2">  1        2 0.99672609E+00 0.14980349E+02</pdfrwt>
<pdfrwt beam="1">  1       -2 0.99236725E+00 0.14980349E+02</pdfrwt>
<totfact>-0.69785754E-14</totfact>
</mgrwt>
</event>
<event>
 4    1  0.5109406E-019  0.1493325E+02  0.7818608E-02  0.1870112E+00
         -2   -1    0    0    0  501 -0.00000000000E+00  0.00000000000E+00  0.11857301516E+03  0.11857301519E+03  0.25500000000E-02 0. -1.
          2   -1    0    0  501    0  0.00000000000E+00 -0.00000000000E+00 -0.47017526179E+00  0.47018217671E+00  0.25500000000E-02 0.  1.
         31    1    1    2    0    0  0.13948902581E+00  0.13597621924E+00  0.55036673894E+02  0.55538566295E+02  0.74470750000E+01 0.  1.
        -31    1    1    2    0    0 -0.13948902581E+00 -0.13597621924E+00  0.63066166009E+02  0.63504631074E+02  0.74470750000E+01 0. -1.
<mgrwt>
<rscale>  0 0.14933253E+02</rscale>
<asrwt>0</asrwt>
<pdfrwt beam="2">  1        2 0.99855372E+00 0.14933253E+02</pdfrwt>
<pdfrwt beam="1">  1       -2 0.98433245E+00 0.14933253E+02</pdfrwt>
<totfact> 0.24510759E-13</totfact>
</mgrwt>
</event>
<event>
 4    1 -0.5109406E-019  0.1503037E+02  0.7818608E-02  0.1867143E+00
          2   -1    0    0  501    0  0.00000000000E+00  0.00000000000E+00  0.12014642558E+03  0.12014642560E+03  0.25500000000E-02 0. -1.
         -2   -1    0    0    0  501 -0.00000000000E+00 -0.00000000000E+00 -0.47007325081E+00  0.47008016723E+00  0.25500000000E-02 0.  1.
         31    1    1    2    0    0 -0.85536609133E+00 -0.10243138547E+00  0.55614861293E+02  0.56117856926E+02  0.74470750000E+01 0. -1.
        -31    1    1    2    0    0  0.85536609133E+00  0.10243138547E+00  0.64061491032E+02  0.64498648844E+02  0.74470750000E+01 0. -1.
<mgrwt>
<rscale>  0 0.15030375E+02</rscale>
<asrwt>0</asrwt>
<pdfrwt beam="1">  1        2 0.99734166E+00 0.15030375E+02</pdfrwt>
<pdfrwt beam="2">  1       -2 0.99838955E+00 0.15030375E+02</pdfrwt>
<totfact>-0.40228939E-14</totfact>
</mgrwt>
</event>
<event>
 4    1 -0.5109406E-019  0.1498115E+02  0.7818608E-02  0.1868644E+00
          2   -1    0    0  501    0  0.00000000000E+00  0.00000000000E+00  0.11968811196E+03  0.11968811199E+03  0.25500000000E-02 0. -1.
         -2   -1    0    0    0  501 -0.00000000000E+00 -0.00000000000E+00 -0.46878783699E+00  0.46879477238E+00  0.25500000000E-02 0.  1.
         31    1    1    2    0    0  0.34567360723E+00  0.64618316331E+00  0.56916141222E+02  0.57405950045E+02  0.74470750000E+01 0.  1.
        -31    1    1    2    0    0 -0.34567360723E+00 -0.64618316331E+00  0.62303182901E+02  0.62750956714E+02  0.74470750000E+01 0. -1.
<mgrwt>
<rscale>  0 0.14981155E+02</rscale>
<asrwt>0</asrwt>
<pdfrwt beam="1">  1        2 0.99354137E+00 0.14981155E+02</pdfrwt>
<pdfrwt beam="2">  1       -2 0.99565529E+00 0.14981155E+02</pdfrwt>
<totfact>-0.13111221E-13</totfact>
</mgrwt>
</event>
<event>
 4    1 -0.5109406E-019  0.1495854E+02  0.7818608E-02  0.1869336E+00
          2   -1    0    0  501    0  0.00000000000E+00  0.00000000000E+00  0.11932335242E+03  0.11932335245E+03  0.25500000000E-02 0. -1.
         -2   -1    0    0    0  501 -0.00000000000E+00 -0.00000000000E+00 -0.46880226268E+00  0.46880919786E+00  0.25500000000E-02 0.  1.
         31    1    1    2    0    0  0.66006294243E+00 -0.17114997029E+00  0.60426648389E+02  0.60887632053E+02  0.74470750000E+01 0. -1.
        -31    1    1    2    0    0 -0.66006294243E+00  0.17114997029E+00  0.58427901768E+02  0.58904529592E+02  0.74470750000E+01 0.  1.
<mgrwt>
<rscale>  0 0.14958539E+02</rscale>
<asrwt>0</asrwt>
<pdfrwt beam="1">  1        2 0.99052541E+00 0.14958539E+02</pdfrwt>
<pdfrwt beam="2">  1       -2 0.99567394E+00 0.14958539E+02</pdfrwt>
<totfact>-0.16459817E-13</totfact>
</mgrwt>
</event>
<event>
 4    1 -0.5109406E-019  0.1495773E+02  0.7818608E-02  0.1869361E+00
          2   -1    0    0  501    0  0.00000000000E+00  0.00000000000E+00  0.11906013885E+03  0.11906013888E+03  0.25500000000E-02 0.  1.
         -2   -1    0    0    0  501 -0.00000000000E+00 -0.00000000000E+00 -0.46978794307E+00  0.46979486369E+00  0.25500000000E-02 0. -1.
         31    1    1    2    0    0 -0.33841522224E+00 -0.59589152399E+00  0.59854292475E+02  0.60319688870E+02  0.74470750000E+01 0.  1.
        -31    1    1    2    0    0  0.33841522224E+00  0.59589152399E+00  0.58736058431E+02  0.59210244871E+02  0.74470750000E+01 0. -1.
<mgrwt>
<rscale>  0 0.14957732E+02</rscale>
<asrwt>0</asrwt>
<pdfrwt beam="1">  1        2 0.98835712E+00 0.14957732E+02</pdfrwt>
<pdfrwt beam="2">  1       -2 0.99775050E+00 0.14957732E+02</pdfrwt>
<totfact>-0.13918546E-13</totfact>
</mgrwt>
</event>
<event>
 4    1 -0.5109406E-019  0.1499463E+02  0.7818608E-02  0.1868233E+00
          2   -1    0    0  501    0  0.00000000000E+00  0.00000000000E+00  0.12019563628E+03  0.12019563631E+03  0.25500000000E-02 0.  1.
         -2   -1    0    0    0  501 -0.00000000000E+00 -0.00000000000E+00 -0.46764828814E+00  0.46765524043E+00  0.25500000000E-02 0. -1.
         31    1    1    2    0    0  0.17153699949E+00 -0.84789171450E+00  0.59467045408E+02  0.59937774074E+02  0.74470750000E+01 0. -1.
        -31    1    1    2    0    0 -0.17153699949E+00  0.84789171450E+00  0.60260942582E+02  0.60725517472E+02  0.74470750000E+01 0. -1.
<mgrwt>
<rscale>  0 0.14994626E+02</rscale>
<asrwt>0</asrwt>
<pdfrwt beam="1">  1        2 0.99772852E+00 0.14994626E+02</pdfrwt>
<pdfrwt beam="2">  1       -2 0.99326079E+00 0.14994626E+02</pdfrwt>
<totfact>-0.65373906E-14</totfact>
</mgrwt>
</event>
<event>
 4    1 -0.5109406E-019  0.1494780E+02  0.7818608E-02  0.1869666E+00
          2   -1    0    0  501    0  0.00000000000E+00  0.00000000000E+00  0.11900250435E+03  0.11900250438E+03  0.25500000000E-02 0.  1.
         -2   -1    0    0    0  501 -0.00000000000E+00 -0.00000000000E+00 -0.46939149072E+00  0.46939841719E+00  0.25500000000E-02 0. -1.
         31    1    1    2    0    0 -0.13369515386E+00  0.48425237498E-01  0.54339368969E+02  0.54847480940E+02  0.74470750000E+01 0. -1.
        -31    1    1    2    0    0  0.13369515386E+00 -0.48425237498E-01  0.64193743893E+02  0.64624421858E+02  0.74470750000E+01 0.  1.
<mgrwt>
<rscale>  0 0.14947800E+02</rscale>
<asrwt>0</asrwt>
<pdfrwt beam="1">  1        2 0.98787728E+00 0.14947800E+02</pdfrwt>
<pdfrwt beam="2">  1       -2 0.99690992E+00 0.14947800E+02</pdfrwt>
<totfact>-0.18510466E-13</totfact>
</mgrwt>
</event>
<event>
 4    1 -0.5109406E-019  0.1499363E+02  0.7818608E-02  0.1868263E+00
          2   -1    0    0  501    0  0.00000000000E+00  0.00000000000E+00  0.11963535656E+03  0.11963535659E+03  0.25500000000E-02 0.  1.
         -2   -1    0    0    0  501 -0.00000000000E+00 -0.00000000000E+00 -0.46977615994E+00  0.46978308074E+00  0.25500000000E-02 0. -1.
         31    1    1    2    0    0  0.46496524528E+00 -0.61718668928E-01  0.65377632100E+02  0.65802079807E+02  0.74470750000E+01 0.  1.
        -31    1    1    2    0    0 -0.46496524528E+00  0.61718668928E-01  0.53787948304E+02  0.54303059865E+02  0.74470750000E+01 0. -1.
<mgrwt>
<rscale>  0 0.14993633E+02</rscale>
<asrwt>0</asrwt>
<pdfrwt beam="1">  1        2 0.99311333E+00 0.14993633E+02</pdfrwt>
<pdfrwt beam="2">  1       -2 0.99774443E+00 0.14993633E+02</pdfrwt>
<totfact>-0.91309183E-14</totfact>
</mgrwt>
</event>
<event>
 4    1 -0.5109406E-019  0.1495390E+02  0.7818608E-02  0.1869479E+00
          2   -1    0    0  501    0  0.00000000000E+00  0.00000000000E+00  0.11912697120E+03  0.11912697123E+03  0.25500000000E-02 0. -1.
         -2   -1    0    0    0  501 -0.00000000000E+00 -0.00000000000E+00 -0.46928364306E+00  0.46929057112E+00  0.25500000000E-02 0.  1.
         31    1    1    2    0    0 -0.75964688964E-01  0.41384204860E+00  0.63475253630E+02  0.63912000323E+02  0.74470750000E+01 0. -1.
        -31    1    1    2    0    0  0.75964688964E-01 -0.41384204860E+00  0.55182433929E+02  0.55684261477E+02  0.74470750000E+01 0.  1.
<mgrwt>
<rscale>  0 0.14953896E+02</rscale>
<asrwt>0</asrwt>
<pdfrwt beam="1">  1        2 0.98890557E+00 0.14953896E+02</pdfrwt>
<pdfrwt beam="2">  1       -2 0.99668587E+00 0.14953896E+02</pdfrwt>
<totfact>-0.17050702E-13</totfact>
</mgrwt>
</event>
<event>
 4    1  0.5109406E-019  0.1495130E+02  0.7818608E-02  0.1869558E+00
          2   -1    0    0  501    0  0.00000000000E+00  0.00000000000E+00  0.12040621462E+03  0.12040621465E+03  0.25500000000E-02 0.  1.
         -2   -1    0    0    0  501 -0.00000000000E+00 -0.00000000000E+00 -0.46413667080E+00  0.46414367569E+00  0.25500000000E-02 0. -1.
         31    1    1    2    0    0 -0.40492656292E+00 -0.12030132108E+00  0.55945100586E+02  0.56440159847E+02  0.74470750000E+01 0. -1.
        -31    1    1    2    0    0  0.40492656292E+00  0.12030132108E+00  0.63996977366E+02  0.64430198479E+02  0.74470750000E+01 0.  1.
<mgrwt>
<rscale>  0 0.14951303E+02</rscale>
<asrwt>0</asrwt>
<pdfrwt beam="1">  1        2 0.99944069E+00 0.14951303E+02</pdfrwt>
<pdfrwt beam="2">  1       -2 0.98583773E+00 0.14951303E+02</pdfrwt>
<totfact> 0.67791120E-14</totfact>
</mgrwt>
</event>
<event>
 4    1  0.5109406E-019  0.1491542E+02  0.7818608E-02  0.1870660E+00
         -2   -1    0    0    0  501 -0.00000000000E+00  0.00000000000E+00  0.11848373243E+03  0.11848373246E+03  0.25500000000E-02 0. -1.
          2   -1    0    0  501    0  0.00000000000E+00 -0.00000000000E+00 -0.46940652982E+00  0.46941345607E+00  0.25500000000E-02 0.  1.
         31    1    1    2    0    0  0.25314722984E+00 -0.86802808392E-01  0.56656081501E+02  0.57144047068E+02  0.74470750000E+01 0. -1.
        -31    1    1    2    0    0 -0.25314722984E+00  0.86802808392E-01  0.61358244402E+02  0.61809098848E+02  0.74470750000E+01 0.  1.
<mgrwt>
<rscale>  0 0.14915422E+02</rscale>
<asrwt>0</asrwt>
<pdfrwt beam="2">  1        2 0.99692459E+00 0.14915422E+02</pdfrwt>
<pdfrwt beam="1">  1       -2 0.98358784E+00 0.14915422E+02</pdfrwt>
<totfact> 0.52308921E-13</totfact>
</mgrwt>
</event>
<event>
 4    1 -0.5109406E-019  0.1494328E+02  0.7818608E-02  0.1869804E+00
         -2   -1    0    0    0  501 -0.00000000000E+00  0.00000000000E+00  0.12039910606E+03  0.12039910608E+03  0.25500000000E-02 0. -1.
          2   -1    0    0  501    0  0.00000000000E+00 -0.00000000000E+00 -0.46366582362E+00  0.46367283562E+00  0.25500000000E-02 0.  1.
         31    1    1    2    0    0 -0.36970650505E+00  0.34562644669E+00  0.57281428749E+02  0.57765709085E+02  0.74470750000E+01 0. -1.
        -31    1    1    2    0    0  0.36970650505E+00 -0.34562644669E+00  0.62654011483E+02  0.63097069833E+02  0.74470750000E+01 0. -1.
<mgrwt>
<rscale>  0 0.14943276E+02</rscale>
<asrwt>0</asrwt>
<pdfrwt beam="2">  1        2 0.98484127E+00 0.14943276E+02</pdfrwt>
<pdfrwt beam="1">  1       -2 0.99937802E+00 0.14943276E+02</pdfrwt>
<totfact>-0.74230748E-14</totfact>
</mgrwt>
</event>
<event>
 4    1 -0.5109406E-019  0.1493051E+02  0.7818608E-02  0.1870197E+00
         -2   -1    0    0    0  501 -0.00000000000E+00  0.00000000000E+00  0.11960309647E+03  0.11960309650E+03  0.25500000000E-02 0.  1.
          2   -1    0    0  501    0  0.00000000000E+00 -0.00000000000E+00 -0.46595438622E+00  0.46596136378E+00  0.25500000000E-02 0. -1.
         31    1    1    2    0    0  0.37951343017E+00 -0.23629177845E+00  0.57422469283E+02  0.57905084137E+02  0.74470750000E+01 0. -1.
        -31    1    1    2    0    0 -0.37951343017E+00  0.23629177845E+00  0.61714672802E+02  0.62163973726E+02  0.74470750000E+01 0.  1.
<mgrwt>
<rscale>  0 0.14930507E+02</rscale>
<asrwt>0</asrwt>
<pdfrwt beam="2">  1        2 0.98965804E+00 0.14930507E+02</pdfrwt>
<pdfrwt beam="1">  1       -2 0.99281498E+00 0.14930507E+02</pdfrwt>
<totfact>-0.15455937E-13</totfact>
</mgrwt>
</event>
<event>
 4    1 -0.5109406E-019  0.1494018E+02  0.7818608E-02  0.1869899E+00
         -2   -1    0    0    0  501 -0.00000000000E+00  0.00000000000E+00  0.11967206908E+03  0.11967206911E+03  0.25500000000E-02 0.  1.
          2   -1    0    0  501    0  0.00000000000E+00 -0.00000000000E+00 -0.46628962673E+00  0.46629659928E+00  0.25500000000E-02 0. -1.
         31    1    1    2    0    0 -0.45543054414E+00  0.24765464618E+00  0.61799046250E+02  0.62248291489E+02  0.74470750000E+01 0.  1.
        -31    1    1    2    0    0  0.45543054414E+00 -0.24765464618E+00  0.57406733205E+02  0.57890074220E+02  0.74470750000E+01 0. -1.
<mgrwt>
<rscale>  0 0.14940183E+02</rscale>
<asrwt>0</asrwt>
<pdfrwt beam="2">  1        2 0.99036952E+00 0.14940183E+02</pdfrwt>
<pdfrwt beam="1">  1       -2 0.99338806E+00 0.14940183E+02</pdfrwt>
<totfact>-0.15907189E-13</totfact>
</mgrwt>
</event>
<event>
 4    1 -0.5109406E-019  0.1497480E+02  0.7818608E-02  0.1868838E+00
          2   -1    0    0  501    0  0.00000000000E+00  0.00000000000E+00  0.11935517722E+03  0.11935517725E+03  0.25500000000E-02 0. -1.
         -2   -1    0    0    0  501 -0.00000000000E+00 -0.00000000000E+00 -0.46969706678E+00  0.46970398874E+00  0.25500000000E-02 0.  1.
         31    1    1    2    0    0 -0.25742334514E+00  0.72566189569E+00  0.58666322662E+02  0.59142110148E+02  0.74470750000E+01 0.  1.
        -31    1    1    2    0    0  0.25742334514E+00 -0.72566189569E+00  0.60219157492E+02  0.60682771089E+02  0.74470750000E+01 0. -1.
<mgrwt>
<rscale>  0 0.14974805E+02</rscale>
<asrwt>0</asrwt>
<pdfrwt beam="1">  1        2 0.99079596E+00 0.14974805E+02</pdfrwt>
<pdfrwt beam="2">  1       -2 0.99756794E+00 0.14974805E+02</pdfrwt>
<totfact>-0.11502792E-13</totfact>
</mgrwt>
</event>
<event>
 4    1 -0.5109406E-019  0.1500616E+02  0.7818608E-02  0.1867880E+00
          2   -1    0    0  501    0  0.00000000000E+00  0.00000000000E+00  0.11967817157E+03  0.11967817160E+03  0.25500000000E-02 0.  1.
         -2   -1    0    0    0  501 -0.00000000000E+00 -0.00000000000E+00 -0.47039332675E+00  0.47040023847E+00  0.25500000000E-02 0. -1.
         31    1    1    2    0    0 -0.57920332925E+00 -0.52961311760E+00  0.55837055257E+02  0.56336947312E+02  0.74470750000E+01 0. -1.
        -31    1    1    2    0    0  0.57920332925E+00  0.52961311760E+00  0.63370722985E+02  0.63811624523E+02  0.74470750000E+01 0.  1.
<mgrwt>
<rscale>  0 0.15006163E+02</rscale>
<asrwt>0</asrwt>
<pdfrwt beam="1">  1        2 0.99347246E+00 0.15006163E+02</pdfrwt>
<pdfrwt beam="2">  1       -2 0.99905146E+00 0.15006163E+02</pdfrwt>
<totfact>-0.42160684E-14</totfact>
</mgrwt>
</event>
<event>
 4    1 -0.5109406E-019  0.1497140E+02  0.7818608E-02  0.1868943E+00
         -2   -1    0    0    0  501 -0.00000000000E+00  0.00000000000E+00  0.12013237503E+03  0.12013237506E+03  0.25500000000E-02 0.  1.
          2   -1    0    0  501    0  0.00000000000E+00 -0.00000000000E+00 -0.46644608845E+00  0.46645305866E+00  0.25500000000E-02 0. -1.
         31    1    1    2    0    0  0.80966615672E-01 -0.27753174435E+00  0.65490002268E+02  0.65912691513E+02  0.74470750000E+01 0.  1.
        -31    1    1    2    0    0 -0.80966615672E-01  0.27753174435E+00  0.54175926674E+02  0.54686136602E+02  0.74470750000E+01 0. -1.
<mgrwt>
<rscale>  0 0.14971399E+02</rscale>
<asrwt>0</asrwt>
<pdfrwt beam="2">  1        2 0.99071527E+00 0.14971399E+02</pdfrwt>
<pdfrwt beam="1">  1       -2 0.99719549E+00 0.14971399E+02</pdfrwt>
<totfact>-0.12822774E-13</totfact>
</mgrwt>
</event>
<event>
 4    1 -0.5109406E-019  0.1493853E+02  0.7818608E-02  0.1869950E+00
          2   -1    0    0  501    0  0.00000000000E+00  0.00000000000E+00  0.11882373192E+03  0.11882373195E+03  0.25500000000E-02 0.  1.
         -2   -1    0    0    0  501 -0.00000000000E+00 -0.00000000000E+00 -0.46951455444E+00  0.46952147909E+00  0.25500000000E-02 0. -1.
         31    1    1    2    0    0  0.13518780605E+00  0.47944143022E+00  0.61475249458E+02  0.61926677303E+02  0.74470750000E+01 0.  1.
        -31    1    1    2    0    0 -0.13518780605E+00 -0.47944143022E+00  0.56878967909E+02  0.57366576124E+02  0.74470750000E+01 0.  1.
<mgrwt>
<rscale>  0 0.14938526E+02</rscale>
<asrwt>0</asrwt>
<pdfrwt beam="1">  1        2 0.98640008E+00 0.14938526E+02</pdfrwt>
<pdfrwt beam="2">  1       -2 0.99716436E+00 0.14938526E+02</pdfrwt>
<totfact>-0.21519044E-13</totfact>
</mgrwt>
</event>
<event>
 4    1 -0.5109406E-019  0.1496377E+02  0.7818608E-02  0.1869176E+00
          2   -1    0    0  501    0  0.00000000000E+00  0.00000000000E+00  0.11902615113E+03  0.11902615115E+03  0.25500000000E-02 0.  1.
         -2   -1    0    0    0  501 -0.00000000000E+00 -0.00000000000E+00 -0.47030145425E+00  0.47030836731E+00  0.25500000000E-02 0. -1.
         31    1    1    2    0    0  0.20796619514E+00 -0.60776625174E+00  0.61890498419E+02  0.62340238613E+02  0.74470750000E+01 0.  1.
        -31    1    1    2    0    0 -0.20796619514E+00  0.60776625174E+00  0.56665351254E+02  0.57156220908E+02  0.74470750000E+01 0. -1.
<mgrwt>
<rscale>  0 0.14963768E+02</rscale>
<asrwt>0</asrwt>
<pdfrwt beam="1">  1        2 0.98808033E+00 0.14963768E+02</pdfrwt>
<pdfrwt beam="2">  1       -2 0.99883568E+00 0.14963768E+02</pdfrwt>
<totfact>-0.82492611E-14</totfact>
</mgrwt>
</event>
<event>
 4    1  0.5109406E-019  0.1490500E+02  0.7818608E-02  0.1870981E+00
          2   -1    0    0  501    0  0.00000000000E+00  0.00000000000E+00  0.11949582066E+03  0.11949582069E+03  0.25500000000E-02 0. -1.
         -2   -1    0    0    0  501 -0.00000000000E+00 -0.00000000000E+00 -0.46478047319E+00  0.46478746837E+00  0.25500000000E-02 0.  1.
         31    1    1    2    0    0  0.80019459901E-02  0.19296531753E+00  0.57836526441E+02  0.58314320853E+02  0.74470750000E+01 0.  1.
        -31    1    1    2    0    0 -0.80019459901E-02 -0.19296531753E+00  0.61194513750E+02  0.61646287308E+02  0.74470750000E+01 0. -1.
<mgrwt>
<rscale>  0 0.14904999E+02</rscale>
<asrwt>0</asrwt>
<pdfrwt beam="1">  1        2 0.99191824E+00 0.14904999E+02</pdfrwt>
<pdfrwt beam="2">  1       -2 0.98717099E+00 0.14904999E+02</pdfrwt>
<totfact> 0.29164898E-13</totfact>
</mgrwt>
</event>
<event>
 4    1  0.5109406E-019  0.1489972E+02  0.7818608E-02  0.1871144E+00
          2   -1    0    0  501    0  0.00000000000E+00  0.00000000000E+00  0.11951281923E+03  0.11951281926E+03  0.25500000000E-02 0.  1.
         -2   -1    0    0    0  501 -0.00000000000E+00 -0.00000000000E+00 -0.46438519328E+00  0.46439219442E+00  0.25500000000E-02 0. -1.
         31    1    1    2    0    0 -0.88959612221E-01 -0.12387342390E-01  0.58052339423E+02  0.58528122350E+02  0.74470750000E+01 0.  1.
        -31    1    1    2    0    0  0.88959612221E-01  0.12387342390E-01  0.60996094615E+02  0.61449089104E+02  0.74470750000E+01 0.  1.
<mgrwt>
<rscale>  0 0.14899719E+02</rscale>
<asrwt>0</asrwt>
<pdfrwt beam="1">  1        2 0.99205553E+00 0.14899719E+02</pdfrwt>
<pdfrwt beam="2">  1       -2 0.98633524E+00 0.14899719E+02</pdfrwt>
<totfact> 0.40137921E-13</totfact>
</mgrwt>
</event>
<event>
 4    1  0.5109406E-019  0.1491192E+02  0.7818608E-02  0.1870768E+00
          2   -1    0    0  501    0  0.00000000000E+00  0.00000000000E+00  0.12012935019E+03  0.12012935021E+03  0.25500000000E-02 0. -1.
         -2   -1    0    0    0  501 -0.00000000000E+00 -0.00000000000E+00 -0.46275852450E+00  0.46276555025E+00  0.25500000000E-02 0.  1.
         31    1    1    2    0    0  0.72590951393E-01 -0.27806189118E+00  0.58028757736E+02  0.58505369312E+02  0.74470750000E+01 0.  1.
        -31    1    1    2    0    0 -0.72590951393E-01  0.27806189118E+00  0.61637833925E+02  0.62086746451E+02  0.74470750000E+01 0. -1.
<mgrwt>
<rscale>  0 0.14911916E+02</rscale>
<asrwt>0</asrwt>
<pdfrwt beam="1">  1        2 0.99713999E+00 0.14911916E+02</pdfrwt>
<pdfrwt beam="2">  1       -2 0.98291309E+00 0.14911916E+02</pdfrwt>
<totfact> 0.57998751E-13</totfact>
</mgrwt>
</event>
<event>
 4    1 -0.5109406E-019  0.1492409E+02  0.7818608E-02  0.1870394E+00
         -2   -1    0    0    0  501 -0.00000000000E+00  0.00000000000E+00  0.12026930025E+03  0.12026930027E+03  0.25500000000E-02 0. -1.
          2   -1    0    0  501    0  0.00000000000E+00 -0.00000000000E+00 -0.46297484172E+00  0.46298186419E+00  0.25500000000E-02 0.  1.
         31    1    1    2    0    0 -0.16214306877E+00  0.39022714417E+00  0.58194859963E+02  0.58670940165E+02  0.74470750000E+01 0.  1.
        -31    1    1    2    0    0  0.16214306877E+00 -0.39022714417E+00  0.61611465442E+02  0.62061341973E+02  0.74470750000E+01 0. -1.
<mgrwt>
<rscale>  0 0.14924086E+02</rscale>
<asrwt>0</asrwt>
<pdfrwt beam="2">  1        2 0.98337518E+00 0.14924086E+02</pdfrwt>
<pdfrwt beam="1">  1       -2 0.99829898E+00 0.14924086E+02</pdfrwt>
<totfact>-0.23635990E-13</totfact>
</mgrwt>
</event>
<event>
 4    1  0.5109406E-019  0.1492216E+02  0.7818608E-02  0.1870453E+00
         -2   -1    0    0    0  501 -0.00000000000E+00  0.00000000000E+00  0.11872995693E+03  0.11872995696E+03  0.25500000000E-02 0. -1.
          2   -1    0    0  501    0  0.00000000000E+00 -0.00000000000E+00 -0.46885666339E+00  0.46886359776E+00  0.25500000000E-02 0.  1.
         31    1    1    2    0    0 -0.16504694436E+00  0.35800689125E+00  0.60976649281E+02  0.61430986424E+02  0.74470750000E+01 0. -1.
        -31    1    1    2    0    0  0.16504694436E+00 -0.35800689125E+00  0.57284450985E+02  0.57767834131E+02  0.74470750000E+01 0.  1.
<mgrwt>
<rscale>  0 0.14922164E+02</rscale>
<asrwt>0</asrwt>
<pdfrwt beam="2">  1        2 0.99576954E+00 0.14922164E+02</pdfrwt>
<pdfrwt beam="1">  1       -2 0.98561925E+00 0.14922164E+02</pdfrwt>
<totfact> 0.36856372E-13</totfact>
</mgrwt>
</event>
<event>
 4    1 -0.5109406E-019  0.1495186E+02  0.7818608E-02  0.1869541E+00
          2   -1    0    0  501    0  0.00000000000E+00  0.00000000000E+00  0.11889649686E+03  0.11889649688E+03  0.25500000000E-02 0. -1.
         -2   -1    0    0    0  501 -0.00000000000E+00 -0.00000000000E+00 -0.47006539920E+00  0.47007231574E+00  0.25500000000E-02 0.  1.
         31    1    1    2    0    0  0.46314283513E+00  0.12584330841E+00  0.62785993660E+02  0.63227923133E+02  0.74470750000E+01 0. -1.
        -31    1    1    2    0    0 -0.46314283513E+00 -0.12584330841E+00  0.55640437798E+02  0.56138646067E+02  0.74470750000E+01 0.  1.
<mgrwt>
<rscale>  0 0.14951862E+02</rscale>
<asrwt>0</asrwt>
<pdfrwt beam="1">  1        2 0.98700631E+00 0.14951862E+02</pdfrwt>
<pdfrwt beam="2">  1       -2 0.99833204E+00 0.14951862E+02</pdfrwt>
<totfact>-0.13058396E-13</totfact>
</mgrwt>
</event>
<event>
 4    1 -0.5109406E-019  0.1494021E+02  0.7818608E-02  0.1869898E+00
         -2   -1    0    0    0  501 -0.00000000000E+00  0.00000000000E+00  0.12041956097E+03  0.12041956100E+03  0.25500000000E-02 0.  1.
          2   -1    0    0  501    0  0.00000000000E+00 -0.00000000000E+00 -0.46339710051E+00  0.46340411658E+00  0.25500000000E-02 0. -1.
         31    1    1    2    0    0  0.37434300646E+00  0.74432164623E-01  0.56378653104E+02  0.56869650295E+02  0.74470750000E+01 0. -1.
        -31    1    1    2    0    0 -0.37434300646E+00 -0.74432164623E-01  0.63577510768E+02  0.64013314821E+02  0.74470750000E+01 0.  1.
<mgrwt>
<rscale>  0 0.14940214E+02</rscale>
<asrwt>0</asrwt>
<pdfrwt beam="2">  1        2 0.98427333E+00 0.14940214E+02</pdfrwt>
<pdfrwt beam="1">  1       -2 0.99954493E+00 0.14940214E+02</pdfrwt>
<totfact>-0.60394590E-14</totfact>
</mgrwt>
</event>
<event>
 4    1 -0.5109406E-019  0.1497021E+02  0.7818608E-02  0.1868979E+00
         -2   -1    0    0    0  501 -0.00000000000E+00  0.00000000000E+00  0.11971778217E+03  0.11971778220E+03  0.25500000000E-02 0.  1.
          2   -1    0    0  501    0  0.00000000000E+00 -0.00000000000E+00 -0.46798732386E+00  0.46799427112E+00  0.25500000000E-02 0. -1.
         31    1    1    2    0    0 -0.47724391309E+00 -0.20765773093E+00  0.64000255369E+02  0.64434171810E+02  0.74470750000E+01 0.  1.
        -31    1    1    2    0    0  0.47724391309E+00  0.20765773093E+00  0.55249539480E+02  0.55751604661E+02  0.74470750000E+01 0. -1.
<mgrwt>
<rscale>  0 0.14970214E+02</rscale>
<asrwt>0</asrwt>
<pdfrwt beam="2">  1        2 0.99396269E+00 0.14970214E+02</pdfrwt>
<pdfrwt beam="1">  1       -2 0.99378009E+00 0.14970214E+02</pdfrwt>
<totfact>-0.12602751E-13</totfact>
</mgrwt>
</event>
<event>
 4    1 -0.5109406E-019  0.1491682E+02  0.7818608E-02  0.1870617E+00
          2   -1    0    0  501    0  0.00000000000E+00  0.00000000000E+00  0.11841633791E+03  0.11841633794E+03  0.25500000000E-02 0. -1.
         -2   -1    0    0    0  501 -0.00000000000E+00 -0.00000000000E+00 -0.46976166592E+00  0.46976858693E+00  0.25500000000E-02 0.  1.
         31    1    1    2    0    0 -0.14726099947E+00 -0.17808746338E+00  0.56264186968E+02  0.56755361528E+02  0.74470750000E+01 0.  1.
        -31    1    1    2    0    0  0.14726099947E+00  0.17808746338E+00  0.61682389276E+02  0.62130744996E+02  0.74470750000E+01 0. -1.
<mgrwt>
<rscale>  0 0.14916819E+02</rscale>
<asrwt>0</asrwt>
<pdfrwt beam="1">  1        2 0.98303351E+00 0.14916819E+02</pdfrwt>
<pdfrwt beam="2">  1       -2 0.99767359E+00 0.14916819E+02</pdfrwt>
<totfact>-0.32208272E-13</totfact>
</mgrwt>
</event>
<event>
 4    1  0.5109406E-019  0.1490951E+02  0.7818608E-02  0.1870843E+00
         -2   -1    0    0    0  501 -0.00000000000E+00  0.00000000000E+00  0.11890402511E+03  0.11890402513E+03  0.25500000000E-02 0. -1.
          2   -1    0    0  501    0  0.00000000000E+00 -0.00000000000E+00 -0.46737630335E+00  0.46738325968E+00  0.25500000000E-02 0.  1.
         31    1    1    2    0    0  0.19517301747E+00  0.19129707622E+00  0.60814137899E+02  0.61269021386E+02  0.74470750000E+01 0.  1.
        -31    1    1    2    0    0 -0.19517301747E+00 -0.19129707622E+00  0.57622510903E+02  0.58102387007E+02  0.74470750000E+01 0.  1.
<mgrwt>
<rscale>  0 0.14909506E+02</rscale>
<asrwt>0</asrwt>
<pdfrwt beam="2">  1        2 0.99264359E+00 0.14909506E+02</pdfrwt>
<pdfrwt beam="1">  1       -2 0.98704632E+00 0.14909506E+02</pdfrwt>
<totfact> 0.29196472E-13</totfact>
</mgrwt>
</event>
<event>
 4    1  0.5109406E-019  0.1492398E+02  0.7818608E-02  0.1870397E+00
         -2   -1    0    0    0  501 -0.00000000000E+00  0.00000000000E+00  0.11852636263E+03  0.11852636266E+03  0.25500000000E-02 0.  1.
          2   -1    0    0  501    0  0.00000000000E+00 -0.00000000000E+00 -0.46977633200E+00  0.46978325280E+00  0.25500000000E-02 0. -1.
         31    1    1    2    0    0  0.65292564229E-01 -0.28068639907E+00  0.56052149984E+02  0.56545428567E+02  0.74470750000E+01 0.  1.
        -31    1    1    2    0    0 -0.65292564229E-01  0.28068639907E+00  0.62004436313E+02  0.62450717342E+02  0.74470750000E+01 0.  1.
<mgrwt>
<rscale>  0 0.14923980E+02</rscale>
<asrwt>0</asrwt>
<pdfrwt beam="2">  1        2 0.99770828E+00 0.14923980E+02</pdfrwt>
<pdfrwt beam="1">  1       -2 0.98394339E+00 0.14923980E+02</pdfrwt>
<totfact> 0.38998567E-13</totfact>
</mgrwt>
</event>
<event>
 4    1  0.5109406E-019  0.1490931E+02  0.7818608E-02  0.1870849E+00
         -2   -1    0    0    0  501 -0.00000000000E+00  0.00000000000E+00  0.11811497779E+03  0.11811497782E+03  0.25500000000E-02 0. -1.
          2   -1    0    0  501    0  0.00000000000E+00 -0.00000000000E+00 -0.47048622134E+00  0.47049313169E+00  0.25500000000E-02 0.  1.
         31    1    1    2    0    0 -0.16105701148E+00  0.21922111739E+00  0.60392139443E+02  0.60850171978E+02  0.74470750000E+01 0. -1.
        -31    1    1    2    0    0  0.16105701148E+00 -0.21922111739E+00  0.57252352129E+02  0.57735298974E+02  0.74470750000E+01 0. -1.
<mgrwt>
<rscale>  0 0.14909310E+02</rscale>
<asrwt>0</asrwt>
<pdfrwt beam="2">  1        2 0.99919619E+00 0.14909310E+02</pdfrwt>
<pdfrwt beam="1">  1       -2 0.98054764E+00 0.14909310E+02</pdfrwt>
<totfact> 0.32443874E-13</totfact>
</mgrwt>
</event>
<event>
 4    1  0.5109406E-019  0.1495603E+02  0.7818608E-02  0.1869413E+00
         -2   -1    0    0    0  501 -0.00000000000E+00  0.00000000000E+00  0.11905117928E+03  0.11905117931E+03  0.25500000000E-02 0.  1.
          2   -1    0    0  501    0  0.00000000000E+00 -0.00000000000E+00 -0.46971614752E+00  0.46972306920E+00  0.25500000000E-02 0. -1.
         31    1    1    2    0    0  0.27412423899E+00 -0.62176015587E+00  0.59327106150E+02  0.59796539866E+02  0.74470750000E+01 0. -1.
        -31    1    1    2    0    0 -0.27412423899E+00  0.62176015587E+00  0.59254356981E+02  0.59724362509E+02  0.74470750000E+01 0. -1.
<mgrwt>
<rscale>  0 0.14956026E+02</rscale>
<asrwt>0</asrwt>
<pdfrwt beam="2">  1        2 0.99759832E+00 0.14956026E+02</pdfrwt>
<pdfrwt beam="1">  1       -2 0.98828245E+00 0.14956026E+02</pdfrwt>
<totfact> 0.80451149E-14</totfact>
</mgrwt>
</event>
<event>
 4    1 -0.5109406E-019  0.1492669E+02  0.7818608E-02  0.1870314E+00
         -2   -1    0    0    0  501 -0.00000000000E+00  0.00000000000E+00  0.12015257525E+03  0.12015257527E+03  0.25500000000E-02 0. -1.
          2   -1    0    0  501    0  0.00000000000E+00 -0.00000000000E+00 -0.46358662451E+00  0.46359363771E+00  0.25500000000E-02 0.  1.
         31    1    1    2    0    0 -0.43395124754E+00 -0.23374536686E-01  0.57970825774E+02  0.58448818867E+02  0.74470750000E+01 0.  1.
        -31    1    1    2    0    0  0.43395124754E+00  0.23374536686E-01  0.61718162849E+02  0.62167350044E+02  0.74470750000E+01 0. -1.
<mgrwt>
<rscale>  0 0.14926694E+02</rscale>
<asrwt>0</asrwt>
<pdfrwt beam="2">  1        2 0.98466595E+00 0.14926694E+02</pdfrwt>
<pdfrwt beam="1">  1       -2 0.99733888E+00 0.14926694E+02</pdfrwt>
<totfact>-0.27064137E-13</totfact>
</mgrwt>
</event>
<event>
 4    1  0.5109406E-019  0.1490067E+02  0.7818608E-02  0.1871115E+00
          2   -1    0    0  501    0  0.00000000000E+00  0.00000000000E+00  0.11995824075E+03  0.11995824077E+03  0.25500000000E-02 0.  1.
         -2   -1    0    0    0  501 -0.00000000000E+00 -0.00000000000E+00 -0.46272008214E+00  0.46272710847E+00  0.25500000000E-02 0. -1.
         31    1    1    2    0    0 -0.14096861405E+00 -0.58623491254E-01  0.61032624259E+02  0.61485473559E+02  0.74470750000E+01 0.  1.
        -31    1    1    2    0    0  0.14096861405E+00  0.58623491254E-01  0.58462896407E+02  0.58935494324E+02  0.74470750000E+01 0. -1.
<mgrwt>
<rscale>  0 0.14900673E+02</rscale>
<asrwt>0</asrwt>
<pdfrwt beam="1">  1        2 0.99572482E+00 0.14900673E+02</pdfrwt>
<pdfrwt beam="2">  1       -2 0.98282638E+00 0.14900673E+02</pdfrwt>
<totfact> 0.76017549E-13</totfact>
</mgrwt>
</event>
<event>
 4    1 -0.5109406E-019  0.1493012E+02  0.7818608E-02  0.1870208E+00
         -2   -1    0    0    0  501 -0.00000000000E+00  0.00000000000E+00  0.12029819059E+03  0.12029819062E+03  0.25500000000E-02 0.  1.
          2   -1    0    0  501    0  0.00000000000E+00 -0.00000000000E+00 -0.46323826072E+00  0.46324527920E+00  0.25500000000E-02 0. -1.
         31    1    1    2    0    0  0.23094018103E+00  0.27487921755E+00  0.62936664917E+02  0.63376743439E+02  0.74470750000E+01 0. -1.
        -31    1    1    2    0    0 -0.23094018103E+00 -0.27487921755E+00  0.56898287413E+02  0.57384692458E+02  0.74470750000E+01 0. -1.
<mgrwt>
<rscale>  0 0.14930124E+02</rscale>
<asrwt>0</asrwt>
<pdfrwt beam="2">  1        2 0.98393344E+00 0.14930124E+02</pdfrwt>
<pdfrwt beam="1">  1       -2 0.99854004E+00 0.14930124E+02</pdfrwt>
<totfact>-0.18880950E-13</totfact>
</mgrwt>
</event>
<event>
 4    1 -0.5109406E-019  0.1498511E+02  0.7818608E-02  0.1868523E+00
         -2   -1    0    0    0  501 -0.00000000000E+00  0.00000000000E+00  0.11979424952E+03  0.11979424955E+03  0.25500000000E-02 0.  1.
          2   -1    0    0  501    0  0.00000000000E+00 -0.00000000000E+00 -0.46861955727E+00  0.46862649515E+00  0.25500000000E-02 0. -1.
         31    1    1    2    0    0 -0.41752725223E-01 -0.62070833623E+00  0.64002513676E+02  0.64437316091E+02  0.74470750000E+01 0.  1.
        -31    1    1    2    0    0  0.41752725223E-01  0.62070833623E+00  0.55323116288E+02  0.55825559952E+02  0.74470750000E+01 0. -1.
<mgrwt>
<rscale>  0 0.14985106E+02</rscale>
<asrwt>0</asrwt>
<pdfrwt beam="2">  1        2 0.99530272E+00 0.14985106E+02</pdfrwt>
<pdfrwt beam="1">  1       -2 0.99441760E+00 0.14985106E+02</pdfrwt>
<totfact>-0.11519833E-13</totfact>
</mgrwt>
</event>
<event>
 4    1  0.5109406E-019  0.1491685E+02  0.7818608E-02  0.1870616E+00
          2   -1    0    0  501    0  0.00000000000E+00  0.00000000000E+00  0.11948303062E+03  0.11948303065E+03  0.25500000000E-02 0. -1.
         -2   -1    0    0    0  501 -0.00000000000E+00 -0.00000000000E+00 -0.46557003673E+00  0.46557702005E+00  0.25500000000E-02 0.  1.
         31    1    1    2    0    0 -0.23617216909E-01 -0.13309360601E+00  0.56384647566E+02  0.56874472998E+02  0.74470750000E+01 0.  1.
        -31    1    1    2    0    0  0.23617216909E-01  0.13309360601E+00  0.62632813022E+02  0.63074134674E+02  0.74470750000E+01 0. -1.
<mgrwt>
<rscale>  0 0.14916855E+02</rscale>
<asrwt>0</asrwt>
<pdfrwt beam="1">  1        2 0.99181901E+00 0.14916855E+02</pdfrwt>
<pdfrwt beam="2">  1       -2 0.98884103E+00 0.14916855E+02</pdfrwt>
<totfact> 0.10797085E-13</totfact>
</mgrwt>
</event>
<event>
 4    1 -0.5109406E-019  0.1492404E+02  0.7818608E-02  0.1870395E+00
         -2   -1    0    0    0  501 -0.00000000000E+00  0.00000000000E+00  0.11984400231E+03  0.11984400234E+03  0.25500000000E-02 0. -1.
          2   -1    0    0  501    0  0.00000000000E+00 -0.00000000000E+00 -0.46461526425E+00  0.46462226192E+00  0.25500000000E-02 0.  1.
         31    1    1    2    0    0 -0.29440292627E+00  0.12252438123E+00  0.56883632865E+02  0.57369925042E+02  0.74470750000E+01 0.  1.
        -31    1    1    2    0    0  0.29440292627E+00 -0.12252438123E+00  0.62495754186E+02  0.62938699562E+02  0.74470750000E+01 0.  1.
<mgrwt>
<rscale>  0 0.14924044E+02</rscale>
<asrwt>0</asrwt>
<pdfrwt beam="2">  1        2 0.98683256E+00 0.14924044E+02</pdfrwt>
<pdfrwt beam="1">  1       -2 0.99479588E+00 0.14924044E+02</pdfrwt>
<totfact>-0.26238741E-13</totfact>
</mgrwt>
</event>
<event>
 4    1 -0.5109406E-019  0.1502076E+02  0.7818608E-02  0.1867436E+00
          2   -1    0    0  501    0  0.00000000000E+00  0.00000000000E+00  0.12031645005E+03  0.12031645008E+03  0.25500000000E-02 0. -1.
         -2   -1    0    0    0  501 -0.00000000000E+00 -0.00000000000E+00 -0.46880830119E+00  0.46881523628E+00  0.25500000000E-02 0.  1.
         31    1    1    2    0    0 -0.32434395194E+00  0.28157992675E+00  0.66944867759E+02  0.67359177040E+02  0.74470750000E+01 0. -1.
        -31    1    1    2    0    0  0.32434395194E+00 -0.28157992675E+00  0.52902773988E+02  0.53426088271E+02  0.74470750000E+01 0.  1.
<mgrwt>
<rscale>  0 0.15020755E+02</rscale>
<asrwt>0</asrwt>
<pdfrwt beam="1">  1        2 0.99873708E+00 0.15020755E+02</pdfrwt>
<pdfrwt beam="2">  1       -2 0.99571887E+00 0.15020755E+02</pdfrwt>
<totfact>-0.43250045E-14</totfact>
</mgrwt>
</event>
<event>
 4    1 -0.5109406E-019  0.1498435E+02  0.7818608E-02  0.1868546E+00
          2   -1    0    0  501    0  0.00000000000E+00  0.00000000000E+00  0.11956691734E+03  0.11956691737E+03  0.25500000000E-02 0. -1.
         -2   -1    0    0    0  501 -0.00000000000E+00 -0.00000000000E+00 -0.46946322623E+00  0.46947015164E+00  0.25500000000E-02 0.  1.
         31    1    1    2    0    0 -0.70531589662E+00  0.13679527746E+00  0.62728700735E+02  0.63173293451E+02  0.74470750000E+01 0.  1.
        -31    1    1    2    0    0  0.70531589662E+00 -0.13679527746E+00  0.56368753380E+02  0.56863094070E+02  0.74470750000E+01 0. -1.
<mgrwt>
<rscale>  0 0.14984350E+02</rscale>
<asrwt>0</asrwt>
<pdfrwt beam="1">  1        2 0.99254484E+00 0.14984350E+02</pdfrwt>
<pdfrwt beam="2">  1       -2 0.99708017E+00 0.14984350E+02</pdfrwt>
<totfact>-0.11453546E-13</totfact>
</mgrwt>
</event>
<event>
 4    1 -0.5109406E-019  0.1493307E+02  0.7818608E-02  0.1870118E+00
         -2   -1    0    0    0  501 -0.00000000000E+00  0.00000000000E+00  0.11973918709E+03  0.11973918712E+03  0.25500000000E-02 0.  1.
          2   -1    0    0  501    0  0.00000000000E+00 -0.00000000000E+00 -0.46558446020E+00  0.46559144331E+00  0.25500000000E-02 0. -1.
         31    1    1    2    0    0  0.13224661245E+00 -0.29968334955E+00  0.56194249441E+02  0.56686505410E+02  0.74470750000E+01 0.  1.
        -31    1    1    2    0    0 -0.13224661245E+00  0.29968334955E+00  0.63079353189E+02  0.63518273151E+02  0.74470750000E+01 0.  1.
<mgrwt>
<rscale>  0 0.14933067E+02</rscale>
<asrwt>0</asrwt>
<pdfrwt beam="2">  1        2 0.98887976E+00 0.14933067E+02</pdfrwt>
<pdfrwt beam="1">  1       -2 0.99393721E+00 0.14933067E+02</pdfrwt>
<totfact>-0.19557853E-13</totfact>
</mgrwt>
</event>
<event>
 4    1 -0.5109406E-019  0.1492575E+02  0.7818608E-02  0.1870343E+00
          2   -1    0    0  501    0  0.00000000000E+00  0.00000000000E+00  0.11849788449E+03  0.11849788452E+03  0.25500000000E-02 0. -1.
         -2   -1    0    0    0  501 -0.00000000000E+00 -0.00000000000E+00 -0.47000053079E+00  0.47000744828E+00  0.25500000000E-02 0.  1.
         31    1    1    2    0    0  0.28882501206E+00  0.31209804445E+00  0.60878641006E+02  0.61333911353E+02  0.74470750000E+01 0.  1.
        -31    1    1    2    0    0 -0.28882501206E+00 -0.31209804445E+00  0.57149242956E+02  0.57633980615E+02  0.74470750000E+01 0.  1.
<mgrwt>
<rscale>  0 0.14925747E+02</rscale>
<asrwt>0</asrwt>
<pdfrwt beam="1">  1        2 0.98370977E+00 0.14925747E+02</pdfrwt>
<pdfrwt beam="2">  1       -2 0.99818160E+00 0.14925747E+02</pdfrwt>
<totfact>-0.23623321E-13</totfact>
</mgrwt>
</event>
<event>
 4    1 -0.5109406E-019  0.1496210E+02  0.7818608E-02  0.1869227E+00
          2   -1    0    0  501    0  0.00000000000E+00  0.00000000000E+00  0.11913556432E+03  0.11913556434E+03  0.25500000000E-02 0.  1.
         -2   -1    0    0    0  501 -0.00000000000E+00 -0.00000000000E+00 -0.46976497213E+00  0.46977189310E+00  0.25500000000E-02 0. -1.
         31    1    1    2    0    0 -0.54563528921E+00 -0.95778037905E-01  0.62910672200E+02  0.63352336137E+02  0.74470750000E+01 0.  1.
        -31    1    1    2    0    0  0.54563528921E+00  0.95778037905E-01  0.55755127145E+02  0.56253000101E+02  0.74470750000E+01 0. -1.
<mgrwt>
<rscale>  0 0.14962103E+02</rscale>
<asrwt>0</asrwt>
<pdfrwt beam="1">  1        2 0.98898060E+00 0.14962103E+02</pdfrwt>
<pdfrwt beam="2">  1       -2 0.99770439E+00 0.14962103E+02</pdfrwt>
<totfact>-0.13143009E-13</totfact>
</mgrwt>
</event>
<event>
 4    1 -0.5109406E-019  0.1494335E+02  0.7818608E-02  0.1869802E+00
          2   -1    0    0  501    0  0.00000000000E+00  0.00000000000E+00  0.11936648197E+03  0.11936648199E+03  0.25500000000E-02 0.  1.
         -2   -1    0    0    0  501 -0.00000000000E+00 -0.00000000000E+00 -0.46768141119E+00  0.46768836298E+00  0.25500000000E-02 0. -1.
         31    1    1    2    0    0 -0.85029023150E-01  0.16072815193E+00  0.64083332772E+02  0.64514847350E+02  0.74470750000E+01 0.  1.
        -31    1    1    2    0    0  0.85029023150E-01 -0.16072815193E+00  0.54815467782E+02  0.55319323005E+02  0.74470750000E+01 0. -1.
<mgrwt>
<rscale>  0 0.14943347E+02</rscale>
<asrwt>0</asrwt>
<pdfrwt beam="1">  1        2 0.99087276E+00 0.14943347E+02</pdfrwt>
<pdfrwt beam="2">  1       -2 0.99330413E+00 0.14943347E+02</pdfrwt>
<totfact>-0.15055243E-13</totfact>
</mgrwt>
</event>
<event>
 4    1 -0.5109406E-019  0.1501225E+02  0.7818608E-02  0.1867695E+00
          2   -1    0    0  501    0  0.00000000000E+00  0.00000000000E+00  0.12038648846E+03  0.12038648849E+03  0.25500000000E-02 0.  1.
         -2   -1    0    0    0  501 -0.00000000000E+00 -0.00000000000E+00 -0.46800532008E+00  0.46801226707E+00  0.25500000000E-02 0. -1.
         31    1    1    2    0    0 -0.54550688130E+00  0.60024212687E+00  0.63779099297E+02  0.64217523322E+02  0.74470750000E+01 0. -1.
        -31    1    1    2    0    0  0.54550688130E+00 -0.60024212687E+00  0.56139383843E+02  0.56636977432E+02  0.74470750000E+01 0. -1.
<mgrwt>
<rscale>  0 0.15012253E+02</rscale>
<asrwt>0</asrwt>
<pdfrwt beam="1">  1        2 0.99930957E+00 0.15012253E+02</pdfrwt>
<pdfrwt beam="2">  1       -2 0.99402227E+00 0.15012253E+02</pdfrwt>
<totfact>-0.25612270E-14</totfact>
</mgrwt>
</event>
<event>
 4    1 -0.5109406E-019  0.1496012E+02  0.7818608E-02  0.1869288E+00
          2   -1    0    0  501    0  0.00000000000E+00  0.00000000000E+00  0.11912586882E+03  0.11912586885E+03  0.25500000000E-02 0. -1.
         -2   -1    0    0    0  501 -0.00000000000E+00 -0.00000000000E+00 -0.46967883357E+00  0.46968575580E+00  0.25500000000E-02 0.  1.
         31    1    1    2    0    0  0.33333916238E-01  0.20933727244E-01  0.64928888201E+02  0.65354579017E+02  0.74470750000E+01 0. -1.
        -31    1    1    2    0    0 -0.33333916238E-01 -0.20933727244E-01  0.53727301786E+02  0.54240975587E+02  0.74470750000E+01 0.  1.
<mgrwt>
<rscale>  0 0.14960122E+02</rscale>
<asrwt>0</asrwt>
<pdfrwt beam="1">  1        2 0.98889972E+00 0.14960122E+02</pdfrwt>
<pdfrwt beam="2">  1       -2 0.99752185E+00 0.14960122E+02</pdfrwt>
<totfact>-0.14046632E-13</totfact>
</mgrwt>
</event>
<event>
 4    1  0.5109406E-019  0.1489514E+02  0.7818608E-02  0.1871285E+00
         -2   -1    0    0    0  501 -0.00000000000E+00  0.00000000000E+00  0.11801575613E+03  0.11801575616E+03  0.25500000000E-02 0. -1.
          2   -1    0    0  501    0  0.00000000000E+00 -0.00000000000E+00 -0.46998719656E+00  0.46999411425E+00  0.25500000000E-02 0.  1.
         31    1    1    2    0    0 -0.25635031631E-01  0.57151299368E-01  0.59240544513E+02  0.59706825101E+02  0.74470750000E+01 0. -1.
        -31    1    1    2    0    0  0.25635031631E-01 -0.57151299368E-01  0.58305224422E+02  0.58778925172E+02  0.74470750000E+01 0.  1.
<mgrwt>
<rscale>  0 0.14895141E+02</rscale>
<asrwt>0</asrwt>
<pdfrwt beam="2">  1        2 0.99813728E+00 0.14895141E+02</pdfrwt>
<pdfrwt beam="1">  1       -2 0.97972308E+00 0.14895141E+02</pdfrwt>
<totfact> 0.76937046E-13</totfact>
</mgrwt>
</event>
<event>
 4    1 -0.5109406E-019  0.1494270E+02  0.7818608E-02  0.1869822E+00
          2   -1    0    0  501    0  0.00000000000E+00  0.00000000000E+00  0.11955740517E+03  0.11955740520E+03  0.25500000000E-02 0. -1.
         -2   -1    0    0    0  501 -0.00000000000E+00 -0.00000000000E+00 -0.46689383282E+00  0.46690079634E+00  0.25500000000E-02 0.  1.
         31    1    1    2    0    0  0.45452783939E+00  0.55113189406E-01  0.62681720568E+02  0.63124216054E+02  0.74470750000E+01 0.  1.
        -31    1    1    2    0    0 -0.45452783939E+00 -0.55113189406E-01  0.56408790767E+02  0.56900089938E+02  0.74470750000E+01 0.  1.
<mgrwt>
<rscale>  0 0.14942695E+02</rscale>
<asrwt>0</asrwt>
<pdfrwt beam="1">  1        2 0.99244494E+00 0.14942695E+02</pdfrwt>
<pdfrwt beam="2">  1       -2 0.99164411E+00 0.14942695E+02</pdfrwt>
<totfact>-0.82406887E-14</totfact>
</mgrwt>
</event>
<event>
 4    1 -0.5109406E-019  0.1496291E+02  0.7818608E-02  0.1869202E+00
          2   -1    0    0  501    0  0.00000000000E+00  0.00000000000E+00  0.11919425129E+03  0.11919425132E+03  0.25500000000E-02 0.  1.
         -2   -1    0    0    0  501 -0.00000000000E+00 -0.00000000000E+00 -0.46958424724E+00  0.46959117087E+00  0.25500000000E-02 0. -1.
         31    1    1    2    0    0 -0.20218822400E+00 -0.65861238527E+00  0.60933205048E+02  0.61390463867E+02  0.74470750000E+01 0. -1.
        -31    1    1    2    0    0  0.20218822400E+00  0.65861238527E+00  0.57791461993E+02  0.58273378619E+02  0.74470750000E+01 0.  1.
<mgrwt>
<rscale>  0 0.14962909E+02</rscale>
<asrwt>0</asrwt>
<pdfrwt beam="1">  1        2 0.98946437E+00 0.14962909E+02</pdfrwt>
<pdfrwt beam="2">  1       -2 0.99732400E+00 0.14962909E+02</pdfrwt>
<totfact>-0.13964271E-13</totfact>
</mgrwt>
</event>
<event>
 4    1 -0.5109406E-019  0.1492567E+02  0.7818608E-02  0.1870345E+00
         -2   -1    0    0    0  501 -0.00000000000E+00  0.00000000000E+00  0.12012809305E+03  0.12012809307E+03  0.25500000000E-02 0.  1.
          2   -1    0    0  501    0  0.00000000000E+00 -0.00000000000E+00 -0.46361725677E+00  0.46362426951E+00  0.25500000000E-02 0. -1.
         31    1    1    2    0    0 -0.34696134604E+00  0.33573615519E+00  0.60180165876E+02  0.60641111401E+02  0.74470750000E+01 0.  1.
        -31    1    1    2    0    0  0.34696134604E+00 -0.33573615519E+00  0.59484309914E+02  0.59950605943E+02  0.74470750000E+01 0.  1.
<mgrwt>
<rscale>  0 0.14925667E+02</rscale>
<asrwt>0</asrwt>
<pdfrwt beam="2">  1        2 0.98472999E+00 0.14925667E+02</pdfrwt>
<pdfrwt beam="1">  1       -2 0.99713669E+00 0.14925667E+02</pdfrwt>
<totfact>-0.28171212E-13</totfact>
</mgrwt>
</event>
<event>
 4    1 -0.5109406E-019  0.1500436E+02  0.7818608E-02  0.1867935E+00
         -2   -1    0    0    0  501 -0.00000000000E+00  0.00000000000E+00  0.12031152777E+03  0.12031152780E+03  0.25500000000E-02 0.  1.
          2   -1    0    0  501    0  0.00000000000E+00 -0.00000000000E+00 -0.46780474819E+00  0.46781169815E+00  0.25500000000E-02 0. -1.
         31    1    1    2    0    0 -0.29384159779E+00 -0.30038621597E+00  0.53445925336E+02  0.53963899376E+02  0.74470750000E+01 0. -1.
        -31    1    1    2    0    0  0.29384159779E+00  0.30038621597E+00  0.66397797684E+02  0.66815440118E+02  0.74470750000E+01 0.  1.
<mgrwt>
<rscale>  0 0.15004363E+02</rscale>
<asrwt>0</asrwt>
<pdfrwt beam="2">  1        2 0.99359552E+00 0.15004363E+02</pdfrwt>
<pdfrwt beam="1">  1       -2 0.99868808E+00 0.15004363E+02</pdfrwt>
<totfact>-0.56026689E-14</totfact>
</mgrwt>
</event>
<event>
 4    1  0.5109406E-019  0.1490418E+02  0.7818608E-02  0.1871007E+00
         -2   -1    0    0    0  501 -0.00000000000E+00  0.00000000000E+00  0.11861216881E+03  0.11861216884E+03  0.25500000000E-02 0. -1.
          2   -1    0    0  501    0  0.00000000000E+00 -0.00000000000E+00 -0.46819165675E+00  0.46819860097E+00  0.25500000000E-02 0.  1.
         31    1    1    2    0    0  0.32359545356E-02  0.18164096172E+00  0.57440186250E+02  0.57921213095E+02  0.74470750000E+01 0.  1.
        -31    1    1    2    0    0 -0.32359545356E-02 -0.18164096172E+00  0.60703790901E+02  0.61159154341E+02  0.74470750000E+01 0. -1.
<mgrwt>
<rscale>  0 0.14904180E+02</rscale>
<asrwt>0</asrwt>
<pdfrwt beam="2">  1        2 0.99435888E+00 0.14904180E+02</pdfrwt>
<pdfrwt beam="1">  1       -2 0.98463979E+00 0.14904180E+02</pdfrwt>
<totfact> 0.56882505E-13</totfact>
</mgrwt>
</event>
<event>
 4    1  0.5109406E-019  0.1490951E+02  0.7818608E-02  0.1870842E+00
         -2   -1    0    0    0  501 -0.00000000000E+00  0.00000000000E+00  0.11865127942E+03  0.11865127945E+03  0.25500000000E-02 0.  1.
          2   -1    0    0  501    0  0.00000000000E+00 -0.00000000000E+00 -0.46837224628E+00  0.46837918782E+00  0.25500000000E-02 0. -1.
         31    1    1    2    0    0 -0.30518882893E+00 -0.67505023195E-01  0.60125720981E+02  0.60585963281E+02  0.74470750000E+01 0.  1.
        -31    1    1    2    0    0  0.30518882893E+00  0.67505023195E-01  0.58057186197E+02  0.58533695359E+02  0.74470750000E+01 0.  1.
<mgrwt>
<rscale>  0 0.14909511E+02</rscale>
<asrwt>0</asrwt>
<pdfrwt beam="2">  1        2 0.99474219E+00 0.14909511E+02</pdfrwt>
<pdfrwt beam="1">  1       -2 0.98496468E+00 0.14909511E+02</pdfrwt>
<totfact> 0.50237097E-13</totfact>
</mgrwt>
</event>
<event>
 4    1 -0.5109406E-019  0.1500052E+02  0.7818608E-02  0.1868053E+00
         -2   -1    0    0    0  501 -0.00000000000E+00  0.00000000000E+00  0.11958878430E+03  0.11958878433E+03  0.25500000000E-02 0. -1.
          2   -1    0    0  501    0  0.00000000000E+00 -0.00000000000E+00 -0.47039091141E+00  0.47039782316E+00  0.25500000000E-02 0.  1.
         31    1    1    2    0    0  0.19210971829E+00 -0.31591683215E+00  0.53065571630E+02  0.53586850328E+02  0.74470750000E+01 0.  1.
        -31    1    1    2    0    0 -0.19210971829E+00  0.31591683215E+00  0.66052821759E+02  0.66472331822E+02  0.74470750000E+01 0. -1.
<mgrwt>
<rscale>  0 0.15000519E+02</rscale>
<asrwt>0</asrwt>
<pdfrwt beam="2">  1        2 0.99904342E+00 0.15000519E+02</pdfrwt>
<pdfrwt beam="1">  1       -2 0.99273332E+00 0.15000519E+02</pdfrwt>
<totfact>-0.28903481E-14</totfact>
</mgrwt>
</event>
<event>
 4    1  0.5109406E-019  0.1490311E+02  0.7818608E-02  0.1871040E+00
          2   -1    0    0  501    0  0.00000000000E+00  0.00000000000E+00  0.12010827433E+03  0.12010827435E+03  0.25500000000E-02 0.  1.
         -2   -1    0    0    0  501 -0.00000000000E+00 -0.00000000000E+00 -0.46229308024E+00  0.46230011306E+00  0.25500000000E-02 0. -1.
         31    1    1    2    0    0  0.20129817468E+00  0.10325575402E+00  0.58814427122E+02  0.59284457883E+02  0.74470750000E+01 0.  1.
        -31    1    1    2    0    0 -0.20129817468E+00 -0.10325575402E+00  0.60831554124E+02  0.61286116584E+02  0.74470750000E+01 0.  1.
<mgrwt>
<rscale>  0 0.14903107E+02</rscale>
<asrwt>0</asrwt>
<pdfrwt beam="1">  1        2 0.99696187E+00 0.14903107E+02</pdfrwt>
<pdfrwt beam="2">  1       -2 0.98192762E+00 0.14903107E+02</pdfrwt>
<totfact> 0.74126995E-13</totfact>
</mgrwt>
</event>
<event>
 4    1 -0.5109406E-019  0.1495641E+02  0.7818608E-02  0.1869402E+00
          2   -1    0    0  501    0  0.00000000000E+00  0.00000000000E+00  0.11887612590E+03  0.11887612593E+03  0.25500000000E-02 0.  1.
         -2   -1    0    0    0  501 -0.00000000000E+00 -0.00000000000E+00 -0.47043175251E+00  0.47043866367E+00  0.25500000000E-02 0. -1.
         31    1    1    2    0    0 -0.65412149853E+00 -0.23882263805E-01  0.60719961717E+02  0.61178436742E+02  0.74470750000E+01 0.  1.
        -31    1    1    2    0    0  0.65412149853E+00  0.23882263805E-01  0.57685732435E+02  0.58168127853E+02  0.74470750000E+01 0. -1.
<mgrwt>
<rscale>  0 0.14956406E+02</rscale>
<asrwt>0</asrwt>
<pdfrwt beam="1">  1        2 0.98684090E+00 0.14956406E+02</pdfrwt>
<pdfrwt beam="2">  1       -2 0.99910635E+00 0.14956406E+02</pdfrwt>
<totfact>-0.76606700E-14</totfact>
</mgrwt>
</event>
<event>
 4    1 -0.5109406E-019  0.1493711E+02  0.7818608E-02  0.1869994E+00
          2   -1    0    0  501    0  0.00000000000E+00  0.00000000000E+00  0.11893890057E+03  0.11893890060E+03  0.25500000000E-02 0. -1.
         -2   -1    0    0    0  501 -0.00000000000E+00 -0.00000000000E+00 -0.46897117516E+00  0.46897810784E+00  0.25500000000E-02 0.  1.
         31    1    1    2    0    0  0.28160022032E+00  0.48957107178E+00  0.58932990804E+02  0.59404337465E+02  0.74470750000E+01 0.  1.
        -31    1    1    2    0    0 -0.28160022032E+00 -0.48957107178E+00  0.59536938596E+02  0.60003541245E+02  0.74470750000E+01 0. -1.
<mgrwt>
<rscale>  0 0.14937112E+02</rscale>
<asrwt>0</asrwt>
<pdfrwt beam="1">  1        2 0.98734789E+00 0.14937112E+02</pdfrwt>
<pdfrwt beam="2">  1       -2 0.99601867E+00 0.14937112E+02</pdfrwt>
<totfact>-0.22793199E-13</totfact>
</mgrwt>
</event>
<event>
 4    1 -0.5109406E-019  0.1494775E+02  0.7818608E-02  0.1869667E+00
          2   -1    0    0  501    0  0.00000000000E+00  0.00000000000E+00  0.11923578414E+03  0.11923578416E+03  0.25500000000E-02 0. -1.
         -2   -1    0    0    0  501 -0.00000000000E+00 -0.00000000000E+00 -0.46846991652E+00  0.46847685662E+00  0.25500000000E-02 0.  1.
         31    1    1    2    0    0  0.98441628510E-01  0.18729177256E+00  0.54611562247E+02  0.55117387693E+02  0.74470750000E+01 0.  1.
        -31    1    1    2    0    0 -0.98441628510E-01 -0.18729177256E+00  0.64155751973E+02  0.64586873327E+02  0.74470750000E+01 0. -1.
<mgrwt>
<rscale>  0 0.14947748E+02</rscale>
<asrwt>0</asrwt>
<pdfrwt beam="1">  1        2 0.98979858E+00 0.14947748E+02</pdfrwt>
<pdfrwt beam="2">  1       -2 0.99496799E+00 0.14947748E+02</pdfrwt>
<totfact>-0.18219047E-13</totfact>
</mgrwt>
</event>
<event>
 4    1  0.5109406E-019  0.1490333E+02  0.7818608E-02  0.1871033E+00
          2   -1    0    0  501    0  0.00000000000E+00  0.00000000000E+00  0.11978652136E+03  0.11978652138E+03  0.25500000000E-02 0.  1.
         -2   -1    0    0    0  501 -0.00000000000E+00 -0.00000000000E+00 -0.46354844395E+00  0.46355545773E+00  0.25500000000E-02 0. -1.
         31    1    1    2    0    0 -0.10495896235E+00  0.21716785939E+00  0.58847605660E+02  0.59317432482E+02  0.74470750000E+01 0. -1.
        -31    1    1    2    0    0  0.10495896235E+00 -0.21716785939E+00  0.60475367252E+02  0.60932644359E+02  0.74470750000E+01 0.  1.
<mgrwt>
<rscale>  0 0.14903326E+02</rscale>
<asrwt>0</asrwt>
<pdfrwt beam="1">  1        2 0.99431177E+00 0.14903326E+02</pdfrwt>
<pdfrwt beam="2">  1       -2 0.98457360E+00 0.14903326E+02</pdfrwt>
<totfact> 0.58134004E-13</totfact>
</mgrwt>
</event>
<event>
 4    1 -0.5109406E-019  0.1496522E+02  0.7818608E-02  0.1869132E+00
          2   -1    0    0  501    0  0.00000000000E+00  0.00000000000E+00  0.11933330378E+03  0.11933330381E+03  0.25500000000E-02 0. -1.
         -2   -1    0    0    0  501 -0.00000000000E+00 -0.00000000000E+00 -0.46918206229E+00  0.46918899186E+00  0.25500000000E-02 0.  1.
         31    1    1    2    0    0  0.70958842544E+00 -0.14169557151E+00  0.58765020454E+02  0.59239430689E+02  0.74470750000E+01 0.  1.
        -31    1    1    2    0    0 -0.70958842544E+00  0.14169557151E+00  0.60099101268E+02  0.60563062114E+02  0.74470750000E+01 0. -1.
<mgrwt>
<rscale>  0 0.14965221E+02</rscale>
<asrwt>0</asrwt>
<pdfrwt beam="1">  1        2 0.99061083E+00 0.14965221E+02</pdfrwt>
<pdfrwt beam="2">  1       -2 0.99647773E+00 0.14965221E+02</pdfrwt>
<totfact>-0.14897388E-13</totfact>
</mgrwt>
</event>
<event>
 4    1  0.5109406E-019  0.1496266E+02  0.7818608E-02  0.1869210E+00
          2   -1    0    0  501    0  0.00000000000E+00  0.00000000000E+00  0.12015729367E+03  0.12015729369E+03  0.25500000000E-02 0.  1.
         -2   -1    0    0    0  501 -0.00000000000E+00 -0.00000000000E+00 -0.46580521453E+00  0.46581219433E+00  0.25500000000E-02 0. -1.
         31    1    1    2    0    0 -0.38727470629E+00  0.37771783619E+00  0.63616112552E+02  0.64052801303E+02  0.74470750000E+01 0.  1.
        -31    1    1    2    0    0  0.38727470629E+00 -0.37771783619E+00  0.56075375899E+02  0.56570304584E+02  0.74470750000E+01 0. -1.
<mgrwt>
<rscale>  0 0.14962662E+02</rscale>
<asrwt>0</asrwt>
<pdfrwt beam="1">  1        2 0.99739624E+00 0.14962662E+02</pdfrwt>
<pdfrwt beam="2">  1       -2 0.98936015E+00 0.14962662E+02</pdfrwt>
<totfact> 0.31937534E-14</totfact>
</mgrwt>
</event>
<event>
 4    1 -0.5109406E-019  0.1497903E+02  0.7818608E-02  0.1868709E+00
          2   -1    0    0  501    0  0.00000000000E+00  0.00000000000E+00  0.12006443188E+03  0.12006443191E+03  0.25500000000E-02 0. -1.
         -2   -1    0    0    0  501 -0.00000000000E+00 -0.00000000000E+00 -0.46718566908E+00  0.46719262825E+00  0.25500000000E-02 0.  1.
         31    1    1    2    0    0  0.29861540346E+00 -0.37618565681E-01  0.65729699797E+02  0.66150910408E+02  0.74470750000E+01 0. -1.
        -31    1    1    2    0    0 -0.29861540346E+00  0.37618565681E-01  0.53867546416E+02  0.54380714129E+02  0.74470750000E+01 0.  1.
<mgrwt>
<rscale>  0 0.14979026E+02</rscale>
<asrwt>0</asrwt>
<pdfrwt beam="1">  1        2 0.99663980E+00 0.14979026E+02</pdfrwt>
<pdfrwt beam="2">  1       -2 0.99227783E+00 0.14979026E+02</pdfrwt>
<totfact>-0.69058395E-14</totfact>
</mgrwt>
</event>
<event>
 4    1 -0.5109406E-019  0.1490342E+02  0.7818608E-02  0.1871030E+00
         -2   -1    0    0    0  501 -0.00000000000E+00  0.00000000000E+00  0.12003184404E+03  0.12003184407E+03  0.25500000000E-02 0.  1.
          2   -1    0    0  501    0  0.00000000000E+00 -0.00000000000E+00 -0.46260703565E+00  0.46261406370E+00  0.25500000000E-02 0. -1.
         31    1    1    2    0    0 -0.11446771883E+00 -0.23601907419E+00  0.59652584375E+02  0.60116208767E+02  0.74470750000E+01 0. -1.
        -31    1    1    2    0    0  0.11446771883E+00  0.23601907419E+00  0.59916652634E+02  0.60378249368E+02  0.74470750000E+01 0. -1.
<mgrwt>
<rscale>  0 0.14903423E+02</rscale>
<asrwt>0</asrwt>
<pdfrwt beam="2">  1        2 0.98258950E+00 0.14903423E+02</pdfrwt>
<pdfrwt beam="1">  1       -2 0.99633249E+00 0.14903423E+02</pdfrwt>
<totfact>-0.46756368E-13</totfact>
</mgrwt>
</event>
<event>
 4    1 -0.5109406E-019  0.1492723E+02  0.7818608E-02  0.1870297E+00
          2   -1    0    0  501    0  0.00000000000E+00  0.00000000000E+00  0.11852905222E+03  0.11852905225E+03  0.25500000000E-02 0.  1.
         -2   -1    0    0    0  501 -0.00000000000E+00 -0.00000000000E+00 -0.46997032166E+00  0.46997723960E+00  0.25500000000E-02 0. -1.
         31    1    1    2    0    0 -0.18624398175E+00  0.33376999102E+00  0.56501859648E+02  0.56991799050E+02  0.74470750000E+01 0. -1.
        -31    1    1    2    0    0  0.18624398175E+00 -0.33376999102E+00  0.61557222250E+02  0.62007230437E+02  0.74470750000E+01 0.  1.
<mgrwt>
<rscale>  0 0.14927230E+02</rscale>
<asrwt>0</asrwt>
<pdfrwt beam="1">  1        2 0.98396724E+00 0.14927230E+02</pdfrwt>
<pdfrwt beam="2">  1       -2 0.99811873E+00 0.14927230E+02</pdfrwt>
<totfact>-0.23269351E-13</totfact>
</mgrwt>
</event>
<event>
 4    1 -0.5109406E-019  0.1494708E+02  0.7818608E-02  0.1869688E+00
         -2   -1    0    0    0  501 -0.00000000000E+00  0.00000000000E+00  0.12029504670E+03  0.12029504673E+03  0.25500000000E-02 0. -1.
          2   -1    0    0  501    0  0.00000000000E+00 -0.00000000000E+00 -0.46430324437E+00  0.46431024675E+00  0.25500000000E-02 0.  1.
         31    1    1    2    0    0  0.44812076266E+00 -0.40024371572E+00  0.58428470157E+02  0.58904210870E+02  0.74470750000E+01 0.  1.
        -31    1    1    2    0    0 -0.44812076266E+00  0.40024371572E+00  0.61402273298E+02  0.61855146104E+02  0.74470750000E+01 0. -1.
<mgrwt>
<rscale>  0 0.14947081E+02</rscale>
<asrwt>0</asrwt>
<pdfrwt beam="2">  1        2 0.98618667E+00 0.14947081E+02</pdfrwt>
<pdfrwt beam="1">  1       -2 0.99852285E+00 0.14947081E+02</pdfrwt>
<totfact>-0.13274932E-13</totfact>
</mgrwt>
</event>
<event>
 4    1 -0.5109406E-019  0.1498915E+02  0.7818608E-02  0.1868400E+00
         -2   -1    0    0    0  501 -0.00000000000E+00  0.00000000000E+00  0.12016480276E+03  0.12016480278E+03  0.25500000000E-02 0.  1.
          2   -1    0    0  501    0  0.00000000000E+00 -0.00000000000E+00 -0.46742641403E+00  0.46743336962E+00  0.25500000000E-02 0. -1.
         31    1    1    2    0    0  0.68929249201E-01  0.43170217031E+00  0.65644234090E+02  0.66066750438E+02  0.74470750000E+01 0. -1.
        -31    1    1    2    0    0 -0.68929249201E-01 -0.43170217031E+00  0.54053142251E+02  0.54565485715E+02  0.74470750000E+01 0. -1.
<mgrwt>
<rscale>  0 0.14989146E+02</rscale>
<asrwt>0</asrwt>
<pdfrwt beam="2">  1        2 0.99279039E+00 0.14989146E+02</pdfrwt>
<pdfrwt beam="1">  1       -2 0.99747173E+00 0.14989146E+02</pdfrwt>
<totfact>-0.10179775E-13</totfact>
</mgrwt>
</event>
<event>
 4    1  0.5109406E-019  0.1492628E+02  0.7818608E-02  0.1870326E+00
         -2   -1    0    0    0  501 -0.00000000000E+00  0.00000000000E+00  0.11877530459E+03  0.11877530462E+03  0.25500000000E-02 0.  1.
          2   -1    0    0  501    0  0.00000000000E+00 -0.00000000000E+00 -0.46893614513E+00  0.46894307832E+00  0.25500000000E-02 0. -1.
         31    1    1    2    0    0  0.16387750148E+00 -0.31755667669E+00  0.56481691071E+02  0.56971642511E+02  0.74470750000E+01 0. -1.
        -31    1    1    2    0    0 -0.16387750148E+00  0.31755667669E+00  0.61824677373E+02  0.62272605184E+02  0.74470750000E+01 0.  1.
<mgrwt>
<rscale>  0 0.14926279E+02</rscale>
<asrwt>0</asrwt>
<pdfrwt beam="2">  1        2 0.99593918E+00 0.14926279E+02</pdfrwt>
<pdfrwt beam="1">  1       -2 0.98599487E+00 0.14926279E+02</pdfrwt>
<totfact> 0.31888819E-13</totfact>
</mgrwt>
</event>
<event>
 4    1 -0.5109406E-019  0.1500243E+02  0.7818608E-02  0.1867994E+00
         -2   -1    0    0    0  501 -0.00000000000E+00  0.00000000000E+00  0.12032565823E+03  0.12032565825E+03  0.25500000000E-02 0. -1.
          2   -1    0    0  501    0  0.00000000000E+00 -0.00000000000E+00 -0.46762925810E+00  0.46763621067E+00  0.25500000000E-02 0.  1.
         31    1    1    2    0    0  0.72449901492E+00  0.33154073884E+00  0.63292183603E+02  0.63733776362E+02  0.74470750000E+01 0.  1.
        -31    1    1    2    0    0 -0.72449901492E+00 -0.33154073884E+00  0.56565845367E+02  0.57059518103E+02  0.74470750000E+01 0. -1.
<mgrwt>
<rscale>  0 0.15002429E+02</rscale>
<asrwt>0</asrwt>
<pdfrwt beam="2">  1        2 0.99322469E+00 0.15002429E+02</pdfrwt>
<pdfrwt beam="1">  1       -2 0.99880347E+00 0.15002429E+02</pdfrwt>
<totfact>-0.53051818E-14</totfact>
</mgrwt>
</event>
<event>
 4    1  0.5109406E-019  0.1495319E+02  0.7818608E-02  0.1869500E+00
          2   -1    0    0  501    0  0.00000000000E+00  0.00000000000E+00  0.12024470530E+03  0.12024470532E+03  0.25500000000E-02 0.  1.
         -2   -1    0    0    0  501 -0.00000000000E+00 -0.00000000000E+00 -0.46487748641E+00  0.46488448013E+00  0.25500000000E-02 0. -1.
         31    1    1    2    0    0  0.28100042292E-01  0.58816322494E+00  0.57417192748E+02  0.57901119806E+02  0.74470750000E+01 0. -1.
        -31    1    1    2    0    0 -0.28100042292E-01 -0.58816322494E+00  0.62362635061E+02  0.62808469998E+02  0.74470750000E+01 0. -1.
<mgrwt>
<rscale>  0 0.14953191E+02</rscale>
<asrwt>0</asrwt>
<pdfrwt beam="1">  1        2 0.99811134E+00 0.14953191E+02</pdfrwt>
<pdfrwt beam="2">  1       -2 0.98740007E+00 0.14953191E+02</pdfrwt>
<totfact> 0.10819949E-13</totfact>
</mgrwt>
</event>
<event>
 4    1 -0.5109406E-019  0.1493312E+02  0.7818608E-02  0.1870116E+00
         -2   -1    0    0    0  501 -0.00000000000E+00  0.00000000000E+00  0.12003845173E+03  0.12003845176E+03  0.25500000000E-02 0. -1.
          2   -1    0    0  501    0  0.00000000000E+00 -0.00000000000E+00 -0.46442667515E+00  0.46443367566E+00  0.25500000000E-02 0.  1.
         31    1    1    2    0    0  0.25929988744E+00 -0.38880497214E+00  0.61954552802E+02  0.62402275156E+02  0.74470750000E+01 0. -1.
        -31    1    1    2    0    0 -0.25929988744E+00  0.38880497214E+00  0.57619472254E+02  0.58100610278E+02  0.74470750000E+01 0. -1.
<mgrwt>
<rscale>  0 0.14933115E+02</rscale>
<asrwt>0</asrwt>
<pdfrwt beam="2">  1        2 0.98643972E+00 0.14933115E+02</pdfrwt>
<pdfrwt beam="1">  1       -2 0.99640217E+00 0.14933115E+02</pdfrwt>
<totfact>-0.24728133E-13</totfact>
</mgrwt>
</event>
<event>
 4    1 -0.5109406E-019  0.1493502E+02  0.7818608E-02  0.1870058E+00
          2   -1    0    0  501    0  0.00000000000E+00  0.00000000000E+00  0.11957151735E+03  0.11957151738E+03  0.25500000000E-02 0. -1.
         -2   -1    0    0    0  501 -0.00000000000E+00 -0.00000000000E+00 -0.46635899957E+00  0.46636597108E+00  0.25500000000E-02 0.  1.
         31    1    1    2    0    0  0.68752359819E-01  0.34117545797E+00  0.56108507363E+02  0.56601631180E+02  0.74470750000E+01 0. -1.
        -31    1    1    2    0    0 -0.68752359819E-01 -0.34117545797E+00  0.62996650991E+02  0.63436252172E+02  0.74470750000E+01 0. -1.
<mgrwt>
<rscale>  0 0.14935016E+02</rscale>
<asrwt>0</asrwt>
<pdfrwt beam="1">  1        2 0.99255721E+00 0.14935016E+02</pdfrwt>
<pdfrwt beam="2">  1       -2 0.99051305E+00 0.14935016E+02</pdfrwt>
<totfact>-0.23222872E-14</totfact>
</mgrwt>
</event>
<event>
 4    1  0.5109406E-019  0.1492579E+02  0.7818608E-02  0.1870341E+00
          2   -1    0    0  501    0  0.00000000000E+00  0.00000000000E+00  0.12022946200E+03  0.12022946202E+03  0.25500000000E-02 0.  1.
         -2   -1    0    0    0  501 -0.00000000000E+00 -0.00000000000E+00 -0.46323417090E+00  0.46324118943E+00  0.25500000000E-02 0. -1.
         31    1    1    2    0    0 -0.26937685537E+00 -0.11779136993E+00  0.63009190863E+02  0.63448431801E+02  0.74470750000E+01 0.  1.
        -31    1    1    2    0    0  0.26937685537E+00  0.11779136993E+00  0.56757036962E+02  0.57244271412E+02  0.74470750000E+01 0. -1.
<mgrwt>
<rscale>  0 0.14925792E+02</rscale>
<asrwt>0</asrwt>
<pdfrwt beam="1">  1        2 0.99797171E+00 0.14925792E+02</pdfrwt>
<pdfrwt beam="2">  1       -2 0.98392263E+00 0.14925792E+02</pdfrwt>
<totfact> 0.35714861E-13</totfact>
</mgrwt>
</event>
<event>
 4    1 -0.5109406E-019  0.1499578E+02  0.7818608E-02  0.1868197E+00
         -2   -1    0    0    0  501 -0.00000000000E+00  0.00000000000E+00  0.12033820829E+03  0.12033820832E+03  0.25500000000E-02 0. -1.
          2   -1    0    0  501    0  0.00000000000E+00 -0.00000000000E+00 -0.46716636570E+00  0.46717332516E+00  0.25500000000E-02 0.  1.
         31    1    1    2    0    0 -0.35679983311E+00  0.18644181860E-01  0.66338894711E+02  0.66756539239E+02  0.74470750000E+01 0. -1.
        -31    1    1    2    0    0  0.35679983311E+00 -0.18644181860E-01  0.53532147212E+02  0.54048842401E+02  0.74470750000E+01 0.  1.
<mgrwt>
<rscale>  0 0.14995784E+02</rscale>
<asrwt>0</asrwt>
<pdfrwt beam="2">  1        2 0.99224574E+00 0.14995784E+02</pdfrwt>
<pdfrwt beam="1">  1       -2 0.99890342E+00 0.14995784E+02</pdfrwt>
<totfact>-0.52604641E-14</totfact>
</mgrwt>
</event>
<event>
 4    1  0.5109406E-019  0.1489644E+02  0.7818608E-02  0.1871245E+00
          2   -1    0    0  501    0  0.00000000000E+00  0.00000000000E+00  0.12019927584E+03  0.12019927587E+03  0.25500000000E-02 0.  1.
         -2   -1    0    0    0  501 -0.00000000000E+00 -0.00000000000E+00 -0.46152994299E+00  0.46153698745E+00  0.25500000000E-02 0. -1.
         31    1    1    2    0    0  0.26084768431E-01  0.12714433007E+00  0.59748894200E+02  0.60211345528E+02  0.74470750000E+01 0.  1.
        -31    1    1    2    0    0 -0.26084768431E-01 -0.12714433007E+00  0.59988851698E+02  0.60449467328E+02  0.74470750000E+01 0.  1.
<mgrwt>
<rscale>  0 0.14896441E+02</rscale>
<asrwt>0</asrwt>
<pdfrwt beam="1">  1        2 0.99770802E+00 0.14896441E+02</pdfrwt>
<pdfrwt beam="2">  1       -2 0.98031576E+00 0.14896441E+02</pdfrwt>
<totfact> 0.81687578E-13</totfact>
</mgrwt>
</event>
<event>
 4    1 -0.5109406E-019  0.1494129E+02  0.7818608E-02  0.1869865E+00
          2   -1    0    0  501    0  0.00000000000E+00  0.00000000000E+00  0.11950002743E+03  0.11950002745E+03  0.25500000000E-02 0.  1.
         -2   -1    0    0    0  501 -0.00000000000E+00 -0.00000000000E+00 -0.46703020675E+00  0.46703716824E+00  0.25500000000E-02 0. -1.
         31    1    1    2    0    0 -0.10095782850E+00  0.38049157635E+00  0.63077073865E+02  0.63516384814E+02  0.74470750000E+01 0.  1.
        -31    1    1    2    0    0  0.10095782850E+00 -0.38049157635E+00  0.55955923356E+02  0.56450679809E+02  0.74470750000E+01 0. -1.
<mgrwt>
<rscale>  0 0.14941291E+02</rscale>
<asrwt>0</asrwt>
<pdfrwt beam="1">  1        2 0.99197163E+00 0.14941291E+02</pdfrwt>
<pdfrwt beam="2">  1       -2 0.99193077E+00 0.14941291E+02</pdfrwt>
<totfact>-0.97443139E-14</totfact>
</mgrwt>
</event>
<event>
 4    1  0.5109406E-019  0.1494644E+02  0.7818608E-02  0.1869707E+00
          2   -1    0    0  501    0  0.00000000000E+00  0.00000000000E+00  0.12040587238E+03  0.12040587241E+03  0.25500000000E-02 0.  1.
         -2   -1    0    0    0  501 -0.00000000000E+00 -0.00000000000E+00 -0.46383618663E+00  0.46384319606E+00  0.25500000000E-02 0. -1.
         31    1    1    2    0    0  0.17117878313E+00 -0.54165782015E+00  0.62070558275E+02  0.62518283933E+02  0.74470750000E+01 0. -1.
        -31    1    1    2    0    0 -0.17117878313E+00  0.54165782015E+00  0.57871477918E+02  0.58351431669E+02  0.74470750000E+01 0. -1.
<mgrwt>
<rscale>  0 0.14946441E+02</rscale>
<asrwt>0</asrwt>
<pdfrwt beam="1">  1        2 0.99943538E+00 0.14946441E+02</pdfrwt>
<pdfrwt beam="2">  1       -2 0.98520194E+00 0.14946441E+02</pdfrwt>
<totfact> 0.83164305E-14</totfact>
</mgrwt>
</event>
<event>
 4    1 -0.5109406E-019  0.1494912E+02  0.7818608E-02  0.1869625E+00
         -2   -1    0    0    0  501 -0.00000000000E+00  0.00000000000E+00  0.11991037818E+03  0.11991037820E+03  0.25500000000E-02 0.  1.
          2   -1    0    0  501    0  0.00000000000E+00 -0.00000000000E+00 -0.46592005418E+00  0.46592703226E+00  0.25500000000E-02 0. -1.
         31    1    1    2    0    0 -0.91271966429E-01  0.62406428943E+00  0.60617410355E+02  0.61076404209E+02  0.74470750000E+01 0.  1.
        -31    1    1    2    0    0  0.91271966429E-01 -0.62406428943E+00  0.58827047766E+02  0.59299901026E+02  0.74470750000E+01 0.  1.
<mgrwt>
<rscale>  0 0.14949123E+02</rscale>
<asrwt>0</asrwt>
<pdfrwt beam="2">  1        2 0.98959525E+00 0.14949123E+02</pdfrwt>
<pdfrwt beam="1">  1       -2 0.99535551E+00 0.14949123E+02</pdfrwt>
<totfact>-0.18345858E-13</totfact>
</mgrwt>
</event>
<event>
 4    1  0.5109406E-019  0.1492006E+02  0.7818608E-02  0.1870518E+00
         -2   -1    0    0    0  501 -0.00000000000E+00  0.00000000000E+00  0.11883738158E+03  0.11883738161E+03  0.25500000000E-02 0.  1.
          2   -1    0    0  501    0  0.00000000000E+00 -0.00000000000E+00 -0.46830061260E+00  0.46830755520E+00  0.25500000000E-02 0. -1.
         31    1    1    2    0    0 -0.18159265888E+00 -0.30181857059E+00  0.57083498866E+02  0.57568297171E+02  0.74470750000E+01 0.  1.
        -31    1    1    2    0    0  0.18159265888E+00  0.30181857059E+00  0.61285582105E+02  0.61737391995E+02  0.74470750000E+01 0.  1.
<mgrwt>
<rscale>  0 0.14920058E+02</rscale>
<asrwt>0</asrwt>
<pdfrwt beam="2">  1        2 0.99459678E+00 0.14920058E+02</pdfrwt>
<pdfrwt beam="1">  1       -2 0.98650291E+00 0.14920058E+02</pdfrwt>
<totfact> 0.31074194E-13</totfact>
</mgrwt>
</event>
<event>
 4    1  0.5109406E-019  0.1493159E+02  0.7818608E-02  0.1870163E+00
         -2   -1    0    0    0  501 -0.00000000000E+00  0.00000000000E+00  0.11874562672E+03  0.11874562675E+03  0.25500000000E-02 0. -1.
          2   -1    0    0  501    0  0.00000000000E+00 -0.00000000000E+00 -0.46938729107E+00  0.46939421761E+00  0.25500000000E-02 0.  1.
         31    1    1    2    0    0  0.31010855308E+00 -0.42601273553E+00  0.59449635657E+02  0.59916573333E+02  0.74470750000E+01 0. -1.
        -31    1    1    2    0    0 -0.31010855308E+00  0.42601273553E+00  0.58826603771E+02  0.59298447631E+02  0.74470750000E+01 0.  1.
<mgrwt>
<rscale>  0 0.14931591E+02</rscale>
<asrwt>0</asrwt>
<pdfrwt beam="2">  1        2 0.99689257E+00 0.14931591E+02</pdfrwt>
<pdfrwt beam="1">  1       -2 0.98575320E+00 0.14931591E+02</pdfrwt>
<totfact> 0.29223577E-13</totfact>
</mgrwt>
</event>
<event>
 4    1  0.5109406E-019  0.1489988E+02  0.7818608E-02  0.1871139E+00
          2   -1    0    0  501    0  0.00000000000E+00  0.00000000000E+00  0.11986699696E+03  0.11986699699E+03  0.25500000000E-02 0.  1.
         -2   -1    0    0    0  501 -0.00000000000E+00 -0.00000000000E+00 -0.46302301672E+00  0.46303003845E+00  0.25500000000E-02 0. -1.
         31    1    1    2    0    0  0.79417696346E-01 -0.18674050455E+00  0.59389480784E+02  0.59854912355E+02  0.74470750000E+01 0. -1.
        -31    1    1    2    0    0 -0.79417696346E-01  0.18674050455E+00  0.60014493158E+02  0.60475114669E+02  0.74470750000E+01 0. -1.
<mgrwt>
<rscale>  0 0.14899880E+02</rscale>
<asrwt>0</asrwt>
<pdfrwt beam="1">  1        2 0.99497285E+00 0.14899880E+02</pdfrwt>
<pdfrwt beam="2">  1       -2 0.98346445E+00 0.14899880E+02</pdfrwt>
<totfact> 0.71918113E-13</totfact>
</mgrwt>
</event>
<event>
 4    1  0.5109406E-019  0.1489815E+02  0.7818608E-02  0.1871192E+00
          2   -1    0    0  501    0  0.00000000000E+00  0.00000000000E+00  0.11960944224E+03  0.11960944227E+03  0.25500000000E-02 0.  1.
         -2   -1    0    0    0  501 -0.00000000000E+00 -0.00000000000E+00 -0.46391235833E+00  0.46391936660E+00  0.25500000000E-02 0. -1.
         31    1    1    2    0    0  0.72816898316E-01  0.92941233942E-01  0.60587584978E+02  0.61043659129E+02  0.74470750000E+01 0.  1.
        -31    1    1    2    0    0 -0.72816898316E-01 -0.92941233942E-01  0.58557944908E+02  0.59029702509E+02  0.74470750000E+01 0. -1.
<mgrwt>
<rscale>  0 0.14898150E+02</rscale>
<asrwt>0</asrwt>
<pdfrwt beam="1">  1        2 0.99285057E+00 0.14898150E+02</pdfrwt>
<pdfrwt beam="2">  1       -2 0.98533793E+00 0.14898150E+02</pdfrwt>
<totfact> 0.52461345E-13</totfact>
</mgrwt>
</event>
<event>
 4    1 -0.5109406E-019  0.1492457E+02  0.7818608E-02  0.1870379E+00
         -2   -1    0    0    0  501 -0.00000000000E+00  0.00000000000E+00  0.12003596125E+03  0.12003596128E+03  0.25500000000E-02 0. -1.
          2   -1    0    0  501    0  0.00000000000E+00 -0.00000000000E+00 -0.46390506130E+00  0.46391206968E+00  0.25500000000E-02 0.  1.
         31    1    1    2    0    0 -0.43339639001E+00  0.18840056396E+00  0.60260991070E+02  0.60721242560E+02  0.74470750000E+01 0. -1.
        -31    1    1    2    0    0  0.43339639001E+00 -0.18840056396E+00  0.59311065120E+02  0.59778630788E+02  0.74470750000E+01 0. -1.
<mgrwt>
<rscale>  0 0.14924572E+02</rscale>
<asrwt>0</asrwt>
<pdfrwt beam="2">  1        2 0.98533602E+00 0.14924572E+02</pdfrwt>
<pdfrwt beam="1">  1       -2 0.99637726E+00 0.14924572E+02</pdfrwt>
<totfact>-0.29438277E-13</totfact>
</mgrwt>
</event>
<event>
 4    1 -0.5109406E-019  0.1493791E+02  0.7818608E-02  0.1869969E+00
         -2   -1    0    0    0  501 -0.00000000000E+00  0.00000000000E+00  0.12005766334E+03  0.12005766337E+03  0.25500000000E-02 0. -1.
          2   -1    0    0  501    0  0.00000000000E+00 -0.00000000000E+00 -0.46465079696E+00  0.46465779410E+00  0.25500000000E-02 0.  1.
         31    1    1    2    0    0  0.27855450020E-01  0.53494506964E+00  0.58194116376E+02  0.58671126196E+02  0.74470750000E+01 0. -1.
        -31    1    1    2    0    0 -0.27855450020E-01 -0.53494506964E+00  0.61398896166E+02  0.61851194965E+02  0.74470750000E+01 0. -1.
<mgrwt>
<rscale>  0 0.14937913E+02</rscale>
<asrwt>0</asrwt>
<pdfrwt beam="2">  1        2 0.98691452E+00 0.14937913E+02</pdfrwt>
<pdfrwt beam="1">  1       -2 0.99656288E+00 0.14937913E+02</pdfrwt>
<totfact>-0.22501834E-13</totfact>
</mgrwt>
</event>
<event>
 4    1 -0.5109406E-019  0.1496449E+02  0.7818608E-02  0.1869154E+00
          2   -1    0    0  501    0  0.00000000000E+00  0.00000000000E+00  0.11918184746E+03  0.11918184749E+03  0.25500000000E-02 0.  1.
         -2   -1    0    0    0  501 -0.00000000000E+00 -0.00000000000E+00 -0.46973249811E+00  0.46973941955E+00  0.25500000000E-02 0. -1.
         31    1    1    2    0    0 -0.42049328425E-01  0.68064425052E+00  0.57396999154E+02  0.57882117123E+02  0.74470750000E+01 0. -1.
        -31    1    1    2    0    0  0.42049328425E-01 -0.68064425052E+00  0.61315115808E+02  0.61769469783E+02  0.74470750000E+01 0.  1.
<mgrwt>
<rscale>  0 0.14964492E+02</rscale>
<asrwt>0</asrwt>
<pdfrwt beam="1">  1        2 0.98936304E+00 0.14964492E+02</pdfrwt>
<pdfrwt beam="2">  1       -2 0.99763721E+00 0.14964492E+02</pdfrwt>
<totfact>-0.12887110E-13</totfact>
</mgrwt>
</event>
<event>
 4    1 -0.5109406E-019  0.1495129E+02  0.7818608E-02  0.1869558E+00
         -2   -1    0    0    0  501 -0.00000000000E+00  0.00000000000E+00  0.12000126885E+03  0.12000126887E+03  0.25500000000E-02 0.  1.
          2   -1    0    0  501    0  0.00000000000E+00 -0.00000000000E+00 -0.46570233357E+00  0.46570931491E+00  0.25500000000E-02 0. -1.
         31    1    1    2    0    0 -0.55859009216E+00  0.83218417070E-01  0.62408546406E+02  0.62853834718E+02  0.74470750000E+01 0. -1.
        -31    1    1    2    0    0  0.55859009216E+00 -0.83218417070E-01  0.57127020107E+02  0.57613143471E+02  0.74470750000E+01 0.  1.
<mgrwt>
<rscale>  0 0.14951293E+02</rscale>
<asrwt>0</asrwt>
<pdfrwt beam="2">  1        2 0.98913751E+00 0.14951293E+02</pdfrwt>
<pdfrwt beam="1">  1       -2 0.99610526E+00 0.14951293E+02</pdfrwt>
<totfact>-0.18088640E-13</totfact>
</mgrwt>
</event>
<event>
 4    1 -0.5109406E-019  0.1490569E+02  0.7818608E-02  0.1870960E+00
         -2   -1    0    0    0  501 -0.00000000000E+00  0.00000000000E+00  0.11954856277E+03  0.11954856280E+03  0.25500000000E-02 0. -1.
          2   -1    0    0  501    0  0.00000000000E+00 -0.00000000000E+00 -0.46461837604E+00  0.46462537367E+00  0.25500000000E-02 0.  1.
         31    1    1    2    0    0 -0.25249657859E+00  0.47104089317E-01  0.60680093013E+02  0.61135902606E+02  0.74470750000E+01 0.  1.
        -31    1    1    2    0    0  0.25249657859E+00 -0.47104089317E-01  0.58403851386E+02  0.58877285570E+02  0.74470750000E+01 0. -1.
<mgrwt>
<rscale>  0 0.14905688E+02</rscale>
<asrwt>0</asrwt>
<pdfrwt beam="2">  1        2 0.98682972E+00 0.14905688E+02</pdfrwt>
<pdfrwt beam="1">  1       -2 0.99235301E+00 0.14905688E+02</pdfrwt>
<totfact>-0.19519691E-13</totfact>
</mgrwt>
</event>
<event>
 4    1  0.5109406E-019  0.1489819E+02  0.7818608E-02  0.1871191E+00
         -2   -1    0    0    0  501 -0.00000000000E+00  0.00000000000E+00  0.11804474456E+03  0.11804474458E+03  0.25500000000E-02 0.  1.
          2   -1    0    0  501    0  0.00000000000E+00 -0.00000000000E+00 -0.47006404575E+00  0.47007096231E+00  0.25500000000E-02 0. -1.
         31    1    1    2    0    0 -0.14481236732E+00  0.63819924797E-01  0.58223038999E+02  0.58697582914E+02  0.74470750000E+01 0. -1.
        -31    1    1    2    0    0  0.14481236732E+00 -0.63819924797E-01  0.59351641513E+02  0.59817232633E+02  0.74470750000E+01 0. -1.
<mgrwt>
<rscale>  0 0.14898188E+02</rscale>
<asrwt>0</asrwt>
<pdfrwt beam="2">  1        2 0.99830081E+00 0.14898188E+02</pdfrwt>
<pdfrwt beam="1">  1       -2 0.97996342E+00 0.14898188E+02</pdfrwt>
<totfact> 0.68661055E-13</totfact>
</mgrwt>
</event>
<event>
 4    1  0.5109406E-019  0.1490893E+02  0.7818608E-02  0.1870860E+00
          2   -1    0    0  501    0  0.00000000000E+00  0.00000000000E+00  0.11982209182E+03  0.11982209184E+03  0.25500000000E-02 0. -1.
         -2   -1    0    0    0  501 -0.00000000000E+00 -0.00000000000E+00 -0.46375944169E+00  0.46376645228E+00  0.25500000000E-02 0.  1.
         31    1    1    2    0    0  0.12043799621E+00 -0.30399876067E+00  0.60135781579E+02  0.60596023572E+02  0.74470750000E+01 0. -1.
        -31    1    1    2    0    0 -0.12043799621E+00  0.30399876067E+00  0.59222550795E+02  0.59689834723E+02  0.74470750000E+01 0.  1.
<mgrwt>
<rscale>  0 0.14908930E+02</rscale>
<asrwt>0</asrwt>
<pdfrwt beam="1">  1        2 0.99460764E+00 0.14908930E+02</pdfrwt>
<pdfrwt beam="2">  1       -2 0.98502115E+00 0.14908930E+02</pdfrwt>
<totfact> 0.50072598E-13</totfact>
</mgrwt>
</event>
<event>
 4    1 -0.5109406E-019  0.1491559E+02  0.7818608E-02  0.1870655E+00
          2   -1    0    0  501    0  0.00000000000E+00  0.00000000000E+00  0.11914458798E+03  0.11914458801E+03  0.25500000000E-02 0. -1.
         -2   -1    0    0    0  501 -0.00000000000E+00 -0.00000000000E+00 -0.46681357383E+00  0.46682053855E+00  0.25500000000E-02 0.  1.
         31    1    1    2    0    0 -0.23986430895E+00  0.25880259731E+00  0.60845334468E+02  0.61300392872E+02  0.74470750000E+01 0. -1.
        -31    1    1    2    0    0  0.23986430895E+00 -0.25880259731E+00  0.57832439940E+02  0.58311015676E+02  0.74470750000E+01 0. -1.
<mgrwt>
<rscale>  0 0.14915593E+02</rscale>
<asrwt>0</asrwt>
<pdfrwt beam="1">  1        2 0.98903081E+00 0.14915593E+02</pdfrwt>
<pdfrwt beam="2">  1       -2 0.99146095E+00 0.14915593E+02</pdfrwt>
<totfact>-0.10001198E-13</totfact>
</mgrwt>
</event>
<event>
 4    1  0.5109406E-019  0.1490411E+02  0.7818608E-02  0.1871009E+00
          2   -1    0    0  501    0  0.00000000000E+00  0.00000000000E+00  0.11998334023E+03  0.11998334026E+03  0.25500000000E-02 0.  1.
         -2   -1    0    0    0  501 -0.00000000000E+00 -0.00000000000E+00 -0.46283704731E+00  0.46284407187E+00  0.25500000000E-02 0. -1.
         31    1    1    2    0    0  0.14272146968E+00  0.17622073244E+00  0.60980794490E+02  0.61434254661E+02  0.74470750000E+01 0.  1.
        -31    1    1    2    0    0 -0.14272146968E+00 -0.17622073244E+00  0.58539708697E+02  0.59011929671E+02  0.74470750000E+01 0. -1.
<mgrwt>
<rscale>  0 0.14904115E+02</rscale>
<asrwt>0</asrwt>
<pdfrwt beam="1">  1        2 0.99593332E+00 0.14904115E+02</pdfrwt>
<pdfrwt beam="2">  1       -2 0.98307464E+00 0.14904115E+02</pdfrwt>
<totfact> 0.69978394E-13</totfact>
</mgrwt>
</event>
<event>
 4    1  0.5109406E-019  0.1491592E+02  0.7818608E-02  0.1870645E+00
         -2   -1    0    0    0  501 -0.00000000000E+00  0.00000000000E+00  0.11888595718E+03  0.11888595720E+03  0.25500000000E-02 0. -1.
          2   -1    0    0  501    0  0.00000000000E+00 -0.00000000000E+00 -0.46784965169E+00  0.46785660099E+00  0.25500000000E-02 0.  1.
         31    1    1    2    0    0  0.18190794528E-01  0.33821145428E-01  0.56000660238E+02  0.56493666441E+02  0.74470750000E+01 0.  1.
        -31    1    1    2    0    0 -0.18190794528E-01 -0.33821145428E-01  0.62417447287E+02  0.62860147365E+02  0.74470750000E+01 0. -1.
<mgrwt>
<rscale>  0 0.14915920E+02</rscale>
<asrwt>0</asrwt>
<pdfrwt beam="2">  1        2 0.99364437E+00 0.14915920E+02</pdfrwt>
<pdfrwt beam="1">  1       -2 0.98690084E+00 0.14915920E+02</pdfrwt>
<totfact> 0.28823512E-13</totfact>
</mgrwt>
</event>
<event>
 4    1 -0.5109406E-019  0.1499616E+02  0.7818608E-02  0.1868186E+00
          2   -1    0    0  501    0  0.00000000000E+00  0.00000000000E+00  0.11993950599E+03  0.11993950602E+03  0.25500000000E-02 0. -1.
         -2   -1    0    0    0  501 -0.00000000000E+00 -0.00000000000E+00 -0.46874290412E+00  0.46874984018E+00  0.25500000000E-02 0.  1.
         31    1    1    2    0    0 -0.60906192311E+00  0.47162667089E+00  0.63035181503E+02  0.63478235808E+02  0.74470750000E+01 0. -1.
        -31    1    1    2    0    0  0.60906192311E+00 -0.47162667089E+00  0.56435581584E+02  0.56930020050E+02  0.74470750000E+01 0.  1.
<mgrwt>
<rscale>  0 0.14996161E+02</rscale>
<asrwt>0</asrwt>
<pdfrwt beam="1">  1        2 0.99561970E+00 0.14996161E+02</pdfrwt>
<pdfrwt beam="2">  1       -2 0.99556837E+00 0.14996161E+02</pdfrwt>
<totfact>-0.10832947E-13</totfact>
</mgrwt>
</event>
<event>
 4    1 -0.5109406E-019  0.1491278E+02  0.7818608E-02  0.1870742E+00
         -2   -1    0    0    0  501 -0.00000000000E+00  0.00000000000E+00  0.12003926182E+03  0.12003926185E+03  0.25500000000E-02 0.  1.
          2   -1    0    0  501    0  0.00000000000E+00 -0.00000000000E+00 -0.46315931595E+00  0.46316633562E+00  0.25500000000E-02 0. -1.
         31    1    1    2    0    0 -0.25416210811E+00 -0.20960356717E+00  0.58382212654E+02  0.58856182449E+02  0.74470750000E+01 0. -1.
        -31    1    1    2    0    0  0.25416210811E+00  0.20960356717E+00  0.61193889854E+02  0.61646245738E+02  0.74470750000E+01 0. -1.
<mgrwt>
<rscale>  0 0.14912777E+02</rscale>
<asrwt>0</asrwt>
<pdfrwt beam="2">  1        2 0.98375827E+00 0.14912777E+02</pdfrwt>
<pdfrwt beam="1">  1       -2 0.99639839E+00 0.14912777E+02</pdfrwt>
<totfact>-0.38031220E-13</totfact>
</mgrwt>
</event>
<event>
 4    1 -0.5109406E-019  0.1492450E+02  0.7818608E-02  0.1870381E+00
          2   -1    0    0  501    0  0.00000000000E+00  0.00000000000E+00  0.11868864011E+03  0.11868864014E+03  0.25500000000E-02 0. -1.
         -2   -1    0    0    0  501 -0.00000000000E+00 -0.00000000000E+00 -0.46916667155E+00  0.46917360134E+00  0.25500000000E-02 0.  1.
         31    1    1    2    0    0  0.28203946453E+00  0.33179782469E+00  0.57582161595E+02  0.58063361047E+02  0.74470750000E+01 0. -1.
        -31    1    1    2    0    0 -0.28203946453E+00 -0.33179782469E+00  0.60637311842E+02  0.61094452690E+02  0.74470750000E+01 0. -1.
<mgrwt>
<rscale>  0 0.14924499E+02</rscale>
<asrwt>0</asrwt>
<pdfrwt beam="1">  1        2 0.98528017E+00 0.14924499E+02</pdfrwt>
<pdfrwt beam="2">  1       -2 0.99642398E+00 0.14924499E+02</pdfrwt>
<totfact>-0.29499850E-13</totfact>
</mgrwt>
</event>
<event>
 4    1  0.5109406E-019  0.1494815E+02  0.7818608E-02  0.1869655E+00
          2   -1    0    0  501    0  0.00000000000E+00  0.00000000000E+00  0.12022777832E+03  0.12022777835E+03  0.25500000000E-02 0.  1.
         -2   -1    0    0    0  501 -0.00000000000E+00 -0.00000000000E+00 -0.46462979887E+00  0.46463679632E+00  0.25500000000E-02 0. -1.
         31    1    1    2    0    0 -0.61853089648E+00 -0.95659786061E-01  0.59028047871E+02  0.59499252876E+02  0.74470750000E+01 0.  1.
        -31    1    1    2    0    0  0.61853089648E+00  0.95659786061E-01  0.60735100651E+02  0.61193162269E+02  0.74470750000E+01 0.  1.
<mgrwt>
<rscale>  0 0.14948155E+02</rscale>
<asrwt>0</asrwt>
<pdfrwt beam="1">  1        2 0.99796933E+00 0.14948155E+02</pdfrwt>
<pdfrwt beam="2">  1       -2 0.98687548E+00 0.14948155E+02</pdfrwt>
<totfact> 0.14375912E-13</totfact>
</mgrwt>
</event>
<event>
 4    1  0.5109406E-019  0.1493599E+02  0.7818608E-02  0.1870028E+00
          2   -1    0    0  501    0  0.00000000000E+00  0.00000000000E+00  0.11999337024E+03  0.11999337027E+03  0.25500000000E-02 0.  1.
         -2   -1    0    0    0  501 -0.00000000000E+00 -0.00000000000E+00 -0.46478034968E+00  0.46478734487E+00  0.25500000000E-02 0. -1.
         31    1    1    2    0    0 -0.35347736562E+00  0.30741543286E+00  0.62218573842E+02  0.62664418193E+02  0.74470750000E+01 0.  1.
        -31    1    1    2    0    0  0.35347736562E+00 -0.30741543286E+00  0.57310016047E+02  0.57793739418E+02  0.74470750000E+01 0. -1.
<mgrwt>
<rscale>  0 0.14935995E+02</rscale>
<asrwt>0</asrwt>
<pdfrwt beam="1">  1        2 0.99603233E+00 0.14935995E+02</pdfrwt>
<pdfrwt beam="2">  1       -2 0.98718658E+00 0.14935995E+02</pdfrwt>
<totfact> 0.19982664E-13</totfact>
</mgrwt>
</event>
<event>
 4    1 -0.5109406E-019  0.1503152E+02  0.7818608E-02  0.1867108E+00
          2   -1    0    0  501    0  0.00000000000E+00  0.00000000000E+00  0.12036598927E+03  0.12036598929E+03  0.25500000000E-02 0. -1.
         -2   -1    0    0    0  501 -0.00000000000E+00 -0.00000000000E+00 -0.46928706867E+00  0.46929399668E+00  0.25500000000E-02 0.  1.
         31    1    1    2    0    0 -0.66696936561E+00 -0.71747245595E+00  0.62045869208E+02  0.62498867403E+02  0.74470750000E+01 0. -1.
        -31    1    1    2    0    0  0.66696936561E+00  0.71747245595E+00  0.57850832991E+02  0.58336415888E+02  0.74470750000E+01 0. -1.
<mgrwt>
<rscale>  0 0.15031517E+02</rscale>
<asrwt>0</asrwt>
<pdfrwt beam="1">  1        2 0.99915067E+00 0.15031517E+02</pdfrwt>
<pdfrwt beam="2">  1       -2 0.99673337E+00 0.15031517E+02</pdfrwt>
<totfact>-0.26692756E-14</totfact>
</mgrwt>
</event>
<event>
 4    1 -0.5109406E-019  0.1494108E+02  0.7818608E-02  0.1869872E+00
          2   -1    0    0  501    0  0.00000000000E+00  0.00000000000E+00  0.11910321102E+03  0.11910321104E+03  0.25500000000E-02 0.  1.
         -2   -1    0    0    0  501 -0.00000000000E+00 -0.00000000000E+00 -0.46857316699E+00  0.46858010555E+00  0.25500000000E-02 0. -1.
         31    1    1    2    0    0 -0.34164180205E+00  0.28038174013E+00  0.62465274058E+02  0.62909178362E+02  0.74470750000E+01 0.  1.
        -31    1    1    2    0    0  0.34164180205E+00 -0.28038174013E+00  0.56169363793E+02  0.56662612788E+02  0.74470750000E+01 0. -1.
<mgrwt>
<rscale>  0 0.14941082E+02</rscale>
<asrwt>0</asrwt>
<pdfrwt beam="1">  1        2 0.98870323E+00 0.14941082E+02</pdfrwt>
<pdfrwt beam="2">  1       -2 0.99518208E+00 0.14941082E+02</pdfrwt>
<totfact>-0.20374177E-13</totfact>
</mgrwt>
</event>
<event>
 4    1  0.5109406E-019  0.1495645E+02  0.7818608E-02  0.1869401E+00
         -2   -1    0    0    0  501 -0.00000000000E+00  0.00000000000E+00  0.11884002016E+03  0.11884002019E+03  0.25500000000E-02 0.  1.
          2   -1    0    0  501    0  0.00000000000E+00 -0.00000000000E+00 -0.47057716349E+00  0.47058407251E+00  0.25500000000E-02 0. -1.
         31    1    1    2    0    0  0.63271901390E+00 -0.23951548227E-01  0.61202501519E+02  0.61657165239E+02  0.74470750000E+01 0.  1.
        -31    1    1    2    0    0 -0.63271901390E+00  0.23951548227E-01  0.57166941481E+02  0.57653439024E+02  0.74470750000E+01 0. -1.
<mgrwt>
<rscale>  0 0.14956445E+02</rscale>
<asrwt>0</asrwt>
<pdfrwt beam="2">  1        2 0.99941276E+00 0.14956445E+02</pdfrwt>
<pdfrwt beam="1">  1       -2 0.98654355E+00 0.14956445E+02</pdfrwt>
<totfact> 0.55500226E-14</totfact>
</mgrwt>
</event>
<event>
 4    1 -0.5109406E-019  0.1496618E+02  0.7818608E-02  0.1869102E+00
          2   -1    0    0  501    0  0.00000000000E+00  0.00000000000E+00  0.11935449434E+03  0.11935449437E+03  0.25500000000E-02 0.  1.
         -2   -1    0    0    0  501 -0.00000000000E+00 -0.00000000000E+00 -0.46915880657E+00  0.46916573647E+00  0.25500000000E-02 0. -1.
         31    1    1    2    0    0 -0.11596849833E-01 -0.73234057763E+00  0.59725243068E+02  0.60192192540E+02  0.74470750000E+01 0. -1.
        -31    1    1    2    0    0  0.11596849833E-01  0.73234057763E+00  0.59160092470E+02  0.59631467568E+02  0.74470750000E+01 0. -1.
<mgrwt>
<rscale>  0 0.14966179E+02</rscale>
<asrwt>0</asrwt>
<pdfrwt beam="1">  1        2 0.99078586E+00 0.14966179E+02</pdfrwt>
<pdfrwt beam="2">  1       -2 0.99642923E+00 0.14966179E+02</pdfrwt>
<totfact>-0.14784483E-13</totfact>
</mgrwt>
</event>
<event>
 4    1 -0.5109406E-019  0.1489590E+02  0.7818608E-02  0.1871262E+00
          2   -1    0    0  501    0  0.00000000000E+00  0.00000000000E+00  0.11811162194E+03  0.11811162196E+03  0.25500000000E-02 0.  1.
         -2   -1    0    0    0  501 -0.00000000000E+00 -0.00000000000E+00 -0.46965372785E+00  0.46966065046E+00  0.25500000000E-02 0. -1.
         31    1    1    2    0    0 -0.23893665009E-01 -0.87452446192E-01  0.58267690418E+02  0.58741730410E+02  0.74470750000E+01 0. -1.
        -31    1    1    2    0    0  0.23893665009E-01  0.87452446192E-01  0.59374277791E+02  0.59839552205E+02  0.74470750000E+01 0. -1.
<mgrwt>
<rscale>  0 0.14895902E+02</rscale>
<asrwt>0</asrwt>
<pdfrwt beam="1">  1        2 0.98051301E+00 0.14895902E+02</pdfrwt>
<pdfrwt beam="2">  1       -2 0.99743510E+00 0.14895902E+02</pdfrwt>
<totfact>-0.52893651E-13</totfact>
</mgrwt>
</event>
<event>
 4    1  0.5109406E-019  0.1491759E+02  0.7818608E-02  0.1870594E+00
         -2   -1    0    0    0  501 -0.00000000000E+00  0.00000000000E+00  0.11856354898E+03  0.11856354901E+03  0.25500000000E-02 0. -1.
          2   -1    0    0  501    0  0.00000000000E+00 -0.00000000000E+00 -0.46922705278E+00  0.46923398167E+00  0.25500000000E-02 0.  1.
         31    1    1    2    0    0 -0.19608562476E+00  0.34487793933E+00  0.57996965805E+02  0.58474476132E+02  0.74470750000E+01 0. -1.
        -31    1    1    2    0    0  0.19608562476E+00 -0.34487793933E+00  0.60097356126E+02  0.60558306860E+02  0.74470750000E+01 0. -1.
<mgrwt>
<rscale>  0 0.14917592E+02</rscale>
<asrwt>0</asrwt>
<pdfrwt beam="2">  1        2 0.99654757E+00 0.14917592E+02</pdfrwt>
<pdfrwt beam="1">  1       -2 0.98424633E+00 0.14917592E+02</pdfrwt>
<totfact> 0.48009324E-13</totfact>
</mgrwt>
</event>
<event>
 4    1 -0.5109406E-019  0.1499048E+02  0.7818608E-02  0.1868359E+00
         -2   -1    0    0    0  501 -0.00000000000E+00  0.00000000000E+00  0.11984322261E+03  0.11984322263E+03  0.25500000000E-02 0. -1.
          2   -1    0    0  501    0  0.00000000000E+00 -0.00000000000E+00 -0.46876431996E+00  0.46877125570E+00  0.25500000000E-02 0.  1.
         31    1    1    2    0    0  0.50007743210E+00  0.56087888408E+00  0.56526851582E+02  0.57020246741E+02  0.74470750000E+01 0.  1.
        -31    1    1    2    0    0 -0.50007743210E+00 -0.56087888408E+00  0.62847606705E+02  0.63291747149E+02  0.74470750000E+01 0. -1.
<mgrwt>
<rscale>  0 0.14990483E+02</rscale>
<asrwt>0</asrwt>
<pdfrwt beam="2">  1        2 0.99561057E+00 0.14990483E+02</pdfrwt>
<pdfrwt beam="1">  1       -2 0.99482374E+00 0.14990483E+02</pdfrwt>
<totfact>-0.11152144E-13</totfact>
</mgrwt>
</event>
<event>
 4    1  0.5109406E-019  0.1493190E+02  0.7818608E-02  0.1870154E+00
         -2   -1    0    0    0  501 -0.00000000000E+00  0.00000000000E+00  0.11877202960E+03  0.11877202963E+03  0.25500000000E-02 0. -1.
          2   -1    0    0  501    0  0.00000000000E+00 -0.00000000000E+00 -0.46930231974E+00  0.46930924753E+00  0.25500000000E-02 0.  1.
         31    1    1    2    0    0  0.33774136468E+00 -0.11872770271E+00  0.62278163289E+02  0.62722856394E+02  0.74470750000E+01 0.  1.
        -31    1    1    2    0    0 -0.33774136468E+00  0.11872770271E+00  0.56024563993E+02  0.56518482483E+02  0.74470750000E+01 0.  1.
<mgrwt>
<rscale>  0 0.14931899E+02</rscale>
<asrwt>0</asrwt>
<pdfrwt beam="2">  1        2 0.99671369E+00 0.14931899E+02</pdfrwt>
<pdfrwt beam="1">  1       -2 0.98597082E+00 0.14931899E+02</pdfrwt>
<totfact> 0.28237211E-13</totfact>
</mgrwt>
</event>
<event>
 4    1 -0.5109406E-019  0.1491102E+02  0.7818608E-02  0.1870796E+00
         -2   -1    0    0    0  501 -0.00000000000E+00  0.00000000000E+00  0.11994565009E+03  0.11994565011E+03  0.25500000000E-02 0. -1.
          2   -1    0    0  501    0  0.00000000000E+00 -0.00000000000E+00 -0.46341153230E+00  0.46341854815E+00  0.25500000000E-02 0.  1.
         31    1    1    2    0    0 -0.15769633502E+00 -0.16264311946E+00  0.61943356155E+02  0.62389819833E+02  0.74470750000E+01 0. -1.
        -31    1    1    2    0    0  0.15769633502E+00  0.16264311946E+00  0.57538882398E+02  0.58019248828E+02  0.74470750000E+01 0.  1.
<mgrwt>
<rscale>  0 0.14911019E+02</rscale>
<asrwt>0</asrwt>
<pdfrwt beam="2">  1        2 0.98428896E+00 0.14911019E+02</pdfrwt>
<pdfrwt beam="1">  1       -2 0.99562643E+00 0.14911019E+02</pdfrwt>
<totfact>-0.37863771E-13</totfact>
</mgrwt>
</event>
<event>
 4    1 -0.5109406E-019  0.1495511E+02  0.7818608E-02  0.1869442E+00
          2   -1    0    0  501    0  0.00000000000E+00  0.00000000000E+00  0.11973284585E+03  0.11973284588E+03  0.25500000000E-02 0. -1.
         -2   -1    0    0    0  501 -0.00000000000E+00 -0.00000000000E+00 -0.46698446648E+00  0.46699142865E+00  0.25500000000E-02 0.  1.
         31    1    1    2    0    0  0.21027713002E-01  0.32086546169E+00  0.64397925431E+02  0.64827888464E+02  0.74470750000E+01 0. -1.
        -31    1    1    2    0    0 -0.21027713002E-01 -0.32086546169E+00  0.54867935952E+02  0.55371948842E+02  0.74470750000E+01 0.  1.
<mgrwt>
<rscale>  0 0.14955106E+02</rscale>
<asrwt>0</asrwt>
<pdfrwt beam="1">  1        2 0.99389635E+00 0.14955106E+02</pdfrwt>
<pdfrwt beam="2">  1       -2 0.99184151E+00 0.14955106E+02</pdfrwt>
<totfact>-0.81430242E-14</totfact>
</mgrwt>
</event>
<event>
 4    1  0.5109406E-019  0.1490154E+02  0.7818608E-02  0.1871088E+00
          2   -1    0    0  501    0  0.00000000000E+00  0.00000000000E+00  0.12024760114E+03  0.12024760117E+03  0.25500000000E-02 0.  1.
         -2   -1    0    0    0  501 -0.00000000000E+00 -0.00000000000E+00 -0.46166024357E+00  0.46166728604E+00  0.25500000000E-02 0. -1.
         31    1    1    2    0    0  0.25259066826E-01 -0.20959199716E+00  0.60721858444E+02  0.61177181904E+02  0.74470750000E+01 0.  1.
        -31    1    1    2    0    0 -0.25259066826E-01  0.20959199716E+00  0.59064082453E+02  0.59532086549E+02  0.74470750000E+01 0. -1.
<mgrwt>
<rscale>  0 0.14901539E+02</rscale>
<asrwt>0</asrwt>
<pdfrwt beam="1">  1        2 0.99810869E+00 0.14901539E+02</pdfrwt>
<pdfrwt beam="2">  1       -2 0.98059297E+00 0.14901539E+02</pdfrwt>
<totfact> 0.67131795E-13</totfact>
</mgrwt>
</event>
<event>
 4    1  0.5109406E-019  0.1492090E+02  0.7818608E-02  0.1870492E+00
         -2   -1    0    0    0  501 -0.00000000000E+00  0.00000000000E+00  0.11839924611E+03  0.11839924614E+03  0.25500000000E-02 0.  1.
          2   -1    0    0  501    0  0.00000000000E+00 -0.00000000000E+00 -0.47008644060E+00  0.47009335683E+00  0.25500000000E-02 0. -1.
         31    1    1    2    0    0 -0.40655171444E+00 -0.15635856216E+00  0.58182610127E+02  0.58658884916E+02  0.74470750000E+01 0. -1.
        -31    1    1    2    0    0  0.40655171444E+00  0.15635856216E+00  0.59746549546E+02  0.60210454582E+02  0.74470750000E+01 0.  1.
<mgrwt>
<rscale>  0 0.14920897E+02</rscale>
<asrwt>0</asrwt>
<pdfrwt beam="2">  1        2 0.99836004E+00 0.14920897E+02</pdfrwt>
<pdfrwt beam="1">  1       -2 0.98289487E+00 0.14920897E+02</pdfrwt>
<totfact> 0.38191386E-13</totfact>
</mgrwt>
</event>
<event>
 4    1 -0.5109406E-019  0.1491716E+02  0.7818608E-02  0.1870607E+00
         -2   -1    0    0    0  501 -0.00000000000E+00  0.00000000000E+00  0.11968893232E+03  0.11968893235E+03  0.25500000000E-02 0. -1.
          2   -1    0    0  501    0  0.00000000000E+00 -0.00000000000E+00 -0.46478788481E+00  0.46479487988E+00  0.25500000000E-02 0.  1.
         31    1    1    2    0    0  0.56327773053E-01  0.38784581431E+00  0.58535497032E+02  0.59008617473E+02  0.74470750000E+01 0.  1.
        -31    1    1    2    0    0 -0.56327773053E-01 -0.38784581431E+00  0.60688647403E+02  0.61145109755E+02  0.74470750000E+01 0.  1.
<mgrwt>
<rscale>  0 0.14917156E+02</rscale>
<asrwt>0</asrwt>
<pdfrwt beam="2">  1        2 0.98719284E+00 0.14917156E+02</pdfrwt>
<pdfrwt beam="1">  1       -2 0.99351508E+00 0.14917156E+02</pdfrwt>
<totfact>-0.23290892E-13</totfact>
</mgrwt>
</event>
<event>
 4    1 -0.5109406E-019  0.1490684E+02  0.7818608E-02  0.1870925E+00
         -2   -1    0    0    0  501 -0.00000000000E+00  0.00000000000E+00  0.12037398573E+03  0.12037398575E+03  0.25500000000E-02 0.  1.
          2   -1    0    0  501    0  0.00000000000E+00 -0.00000000000E+00 -0.46150342599E+00  0.46151047084E+00  0.25500000000E-02 0. -1.
         31    1    1    2    0    0  0.21352569073E+00 -0.11269484678E+00  0.58413648106E+02  0.58886938318E+02  0.74470750000E+01 0. -1.
        -31    1    1    2    0    0 -0.21352569073E+00  0.11269484678E+00  0.61498834195E+02  0.61948557907E+02  0.74470750000E+01 0.  1.
<mgrwt>
<rscale>  0 0.14906835E+02</rscale>
<asrwt>0</asrwt>
<pdfrwt beam="2">  1        2 0.98026509E+00 0.14906835E+02</pdfrwt>
<pdfrwt beam="1">  1       -2 0.99915243E+00 0.14906835E+02</pdfrwt>
<totfact>-0.21375619E-13</totfact>
</mgrwt>
</event>
<event>
 4    1 -0.5109406E-019  0.1490107E+02  0.7818608E-02  0.1871103E+00
          2   -1    0    0  501    0  0.00000000000E+00  0.00000000000E+00  0.11833821468E+03  0.11833821471E+03  0.25500000000E-02 0. -1.
         -2   -1    0    0    0  501 -0.00000000000E+00 -0.00000000000E+00 -0.46907949104E+00  0.46908642212E+00  0.25500000000E-02 0.  1.
         31    1    1    2    0    0  0.15926533577E+00 -0.18863045664E-01  0.57654012512E+02  0.58133207429E+02  0.74470750000E+01 0.  1.
        -31    1    1    2    0    0 -0.15926533577E+00  0.18863045664E-01  0.60215122678E+02  0.60674093701E+02  0.74470750000E+01 0. -1.
<mgrwt>
<rscale>  0 0.14901066E+02</rscale>
<asrwt>0</asrwt>
<pdfrwt beam="1">  1        2 0.98238189E+00 0.14901066E+02</pdfrwt>
<pdfrwt beam="2">  1       -2 0.99622794E+00 0.14901066E+02</pdfrwt>
<totfact>-0.49111211E-13</totfact>
</mgrwt>
</event>
<event>
 4    1 -0.5109406E-019  0.1495048E+02  0.7818608E-02  0.1869583E+00
         -2   -1    0    0    0  501 -0.00000000000E+00  0.00000000000E+00  0.11952123632E+03  0.11952123635E+03  0.25500000000E-02 0. -1.
          2   -1    0    0  501    0  0.00000000000E+00 -0.00000000000E+00 -0.46752201790E+00  0.46752897206E+00  0.25500000000E-02 0.  1.
         31    1    1    2    0    0  0.44331810087E-01 -0.51689792420E+00  0.62647144848E+02  0.63090354511E+02  0.74470750000E+01 0. -1.
        -31    1    1    2    0    0 -0.44331810087E-01  0.51689792420E+00  0.56406569459E+02  0.56898410812E+02  0.74470750000E+01 0.  1.
<mgrwt>
<rscale>  0 0.14950482E+02</rscale>
<asrwt>0</asrwt>
<pdfrwt beam="2">  1        2 0.99297193E+00 0.14950482E+02</pdfrwt>
<pdfrwt beam="1">  1       -2 0.99215106E+00 0.14950482E+02</pdfrwt>
<totfact>-0.98544570E-14</totfact>
</mgrwt>
</event>
<event>
 4    1  0.5109406E-019  0.1492225E+02  0.7818608E-02  0.1870450E+00
         -2   -1    0    0    0  501 -0.00000000000E+00  0.00000000000E+00  0.11860072607E+03  0.11860072609E+03  0.25500000000E-02 0.  1.
          2   -1    0    0  501    0  0.00000000000E+00 -0.00000000000E+00 -0.46937312559E+00  0.46938005233E+00  0.25500000000E-02 0. -1.
         31    1    1    2    0    0 -0.13559251025E+00  0.17375819717E+00  0.55864924271E+02  0.56359535724E+02  0.74470750000E+01 0. -1.
        -31    1    1    2    0    0  0.13559251025E+00 -0.17375819717E+00  0.62266428671E+02  0.62710570423E+02  0.74470750000E+01 0.  1.
<mgrwt>
<rscale>  0 0.14922253E+02</rscale>
<asrwt>0</asrwt>
<pdfrwt beam="2">  1        2 0.99685781E+00 0.14922253E+02</pdfrwt>
<pdfrwt beam="1">  1       -2 0.98455495E+00 0.14922253E+02</pdfrwt>
<totfact> 0.41697315E-13</totfact>
</mgrwt>
</event>
<event>
 4    1 -0.5109406E-019  0.1491843E+02  0.7818608E-02  0.1870568E+00
         -2   -1    0    0    0  501 -0.00000000000E+00  0.00000000000E+00  0.11935269701E+03  0.11935269703E+03  0.25500000000E-02 0.  1.
          2   -1    0    0  501    0  0.00000000000E+00 -0.00000000000E+00 -0.46617718372E+00  0.46618415794E+00  0.25500000000E-02 0. -1.
         31    1    1    2    0    0 -0.33379977057E-01  0.40819999075E+00  0.60367979249E+02  0.60826964301E+02  0.74470750000E+01 0.  1.
        -31    1    1    2    0    0  0.33379977057E-01 -0.40819999075E+00  0.58518540575E+02  0.58991916891E+02  0.74470750000E+01 0.  1.
<mgrwt>
<rscale>  0 0.14918435E+02</rscale>
<asrwt>0</asrwt>
<pdfrwt beam="2">  1        2 0.99012134E+00 0.14918435E+02</pdfrwt>
<pdfrwt beam="1">  1       -2 0.99074634E+00 0.14918435E+02</pdfrwt>
<totfact>-0.44924880E-14</totfact>
</mgrwt>
</event>
<event>
 4    1 -0.5109406E-019  0.1498970E+02  0.7818608E-02  0.1868383E+00
         -2   -1    0    0    0  501 -0.00000000000E+00  0.00000000000E+00  0.12009466257E+03  0.12009466260E+03  0.25500000000E-02 0. -1.
          2   -1    0    0  501    0  0.00000000000E+00 -0.00000000000E+00 -0.46773399442E+00  0.46774094544E+00  0.25500000000E-02 0.  1.
         31    1    1    2    0    0 -0.69434852343E+00  0.47267602676E-01  0.55960391592E+02  0.56458026066E+02  0.74470750000E+01 0.  1.
        -31    1    1    2    0    0  0.69434852343E+00 -0.47267602676E-01  0.63666536985E+02  0.64104377477E+02  0.74470750000E+01 0.  1.
<mgrwt>
<rscale>  0 0.14989700E+02</rscale>
<asrwt>0</asrwt>
<pdfrwt beam="2">  1        2 0.99343888E+00 0.14989700E+02</pdfrwt>
<pdfrwt beam="1">  1       -2 0.99689431E+00 0.14989700E+02</pdfrwt>
<totfact>-0.11173069E-13</totfact>
</mgrwt>
</event>
<event>
 4    1  0.5109406E-019  0.1490480E+02  0.7818608E-02  0.1870988E+00
         -2   -1    0    0    0  501 -0.00000000000E+00  0.00000000000E+00  0.11850245411E+03  0.11850245414E+03  0.25500000000E-02 0. -1.
          2   -1    0    0  501    0  0.00000000000E+00 -0.00000000000E+00 -0.46866384536E+00  0.46867078258E+00  0.25500000000E-02 0.  1.
         31    1    1    2    0    0 -0.23743629843E-01  0.22825161398E+00  0.57714043458E+02  0.58192975529E+02  0.74470750000E+01 0.  1.
        -31    1    1    2    0    0  0.23743629843E-01 -0.22825161398E+00  0.60319746809E+02  0.60778149394E+02  0.74470750000E+01 0.  1.
<mgrwt>
<rscale>  0 0.14904795E+02</rscale>
<asrwt>0</asrwt>
<pdfrwt beam="2">  1        2 0.99535413E+00 0.14904795E+02</pdfrwt>
<pdfrwt beam="1">  1       -2 0.98373650E+00 0.14904795E+02</pdfrwt>
<totfact> 0.64725796E-13</totfact>
</mgrwt>
</event>
<event>
 4    1 -0.5109406E-019  0.1491068E+02  0.7818608E-02  0.1870806E+00
         -2   -1    0    0    0  501 -0.00000000000E+00  0.00000000000E+00  0.11977746550E+03  0.11977746553E+03  0.25500000000E-02 0. -1.
          2   -1    0    0  501    0  0.00000000000E+00 -0.00000000000E+00 -0.46404123951E+00  0.46404824584E+00  0.25500000000E-02 0.  1.
         31    1    1    2    0    0  0.20524561507E+00  0.28459188021E+00  0.59593185053E+02  0.60057720145E+02  0.74470750000E+01 0. -1.
        -31    1    1    2    0    0 -0.20524561507E+00 -0.28459188021E+00  0.59720239212E+02  0.60183793632E+02  0.74470750000E+01 0. -1.
<mgrwt>
<rscale>  0 0.14910682E+02</rscale>
<asrwt>0</asrwt>
<pdfrwt beam="2">  1        2 0.98561595E+00 0.14910682E+02</pdfrwt>
<pdfrwt beam="1">  1       -2 0.99424096E+00 0.14910682E+02</pdfrwt>
<totfact>-0.31203339E-13</totfact>
</mgrwt>
</event>
<event>
 4    1  0.5109406E-019  0.1495390E+02  0.7818608E-02  0.1869479E+00
          2   -1    0    0  501    0  0.00000000000E+00  0.00000000000E+00  0.12007464369E+03  0.12007464371E+03  0.25500000000E-02 0.  1.
         -2   -1    0    0    0  501 -0.00000000000E+00 -0.00000000000E+00 -0.46557979365E+00  0.46558677683E+00  0.25500000000E-02 0. -1.
         31    1    1    2    0    0  0.50065761180E+00 -0.35422495186E-01  0.63354132095E+02  0.63792294930E+02  0.74470750000E+01 0.  1.
        -31    1    1    2    0    0 -0.50065761180E+00  0.35422495186E-01  0.56254931798E+02  0.56747935562E+02  0.74470750000E+01 0. -1.
<mgrwt>
<rscale>  0 0.14953896E+02</rscale>
<asrwt>0</asrwt>
<pdfrwt beam="1">  1        2 0.99671096E+00 0.14953896E+02</pdfrwt>
<pdfrwt beam="2">  1       -2 0.98888059E+00 0.14953896E+02</pdfrwt>
<totfact> 0.63613641E-14</totfact>
</mgrwt>
</event>
<event>
 4    1 -0.5109406E-019  0.1490133E+02  0.7818608E-02  0.1871094E+00
         -2   -1    0    0    0  501 -0.00000000000E+00  0.00000000000E+00  0.12023882258E+03  0.12023882260E+03  0.25500000000E-02 0. -1.
          2   -1    0    0  501    0  0.00000000000E+00 -0.00000000000E+00 -0.46168104768E+00  0.46168808983E+00  0.25500000000E-02 0.  1.
         31    1    1    2    0    0 -0.10635295656E+00  0.19794113547E+00  0.60331818621E+02  0.60790112319E+02  0.74470750000E+01 0.  1.
        -31    1    1    2    0    0  0.10635295656E+00 -0.19794113547E+00  0.59445322907E+02  0.59910398373E+02  0.74470750000E+01 0. -1.
<mgrwt>
<rscale>  0 0.14901330E+02</rscale>
<asrwt>0</asrwt>
<pdfrwt beam="2">  1        2 0.98063671E+00 0.14901330E+02</pdfrwt>
<pdfrwt beam="1">  1       -2 0.99803627E+00 0.14901330E+02</pdfrwt>
<totfact>-0.42194439E-13</totfact>
</mgrwt>
</event>
<event>
 4    1  0.5109406E-019  0.1494410E+02  0.7818608E-02  0.1869779E+00
         -2   -1    0    0    0  501 -0.00000000000E+00  0.00000000000E+00  0.11893965404E+03  0.11893965407E+03  0.25500000000E-02 0. -1.
          2   -1    0    0  501    0  0.00000000000E+00 -0.00000000000E+00 -0.46940720694E+00  0.46941413317E+00  0.25500000000E-02 0.  1.
         31    1    1    2    0    0  0.36530994738E+00  0.24578743565E+00  0.55856816400E+02  0.56352788105E+02  0.74470750000E+01 0.  1.
        -31    1    1    2    0    0 -0.36530994738E+00 -0.24578743565E+00  0.62613430438E+02  0.63056280100E+02  0.74470750000E+01 0. -1.
<mgrwt>
<rscale>  0 0.14944102E+02</rscale>
<asrwt>0</asrwt>
<pdfrwt beam="2">  1        2 0.99694110E+00 0.14944102E+02</pdfrwt>
<pdfrwt beam="1">  1       -2 0.98735772E+00 0.14944102E+02</pdfrwt>
<totfact> 0.15716898E-13</totfact>
</mgrwt>
</event>
<event>
 4    1  0.5109406E-019  0.1491549E+02  0.7818608E-02  0.1870658E+00
         -2   -1    0    0    0  501 -0.00000000000E+00  0.00000000000E+00  0.11866034789E+03  0.11866034792E+03  0.25500000000E-02 0. -1.
          2   -1    0    0  501    0  0.00000000000E+00 -0.00000000000E+00 -0.46871231916E+00  0.46871925566E+00  0.25500000000E-02 0.  1.
         31    1    1    2    0    0  0.26337865049E+00 -0.29894687225E+00  0.59238257200E+02  0.59705852140E+02  0.74470750000E+01 0.  1.
        -31    1    1    2    0    0 -0.26337865049E+00  0.29894687225E+00  0.58953378374E+02  0.59423215037E+02  0.74470750000E+01 0. -1.
<mgrwt>
<rscale>  0 0.14915493E+02</rscale>
<asrwt>0</asrwt>
<pdfrwt beam="2">  1        2 0.99546190E+00 0.14915493E+02</pdfrwt>
<pdfrwt beam="1">  1       -2 0.98504248E+00 0.14915493E+02</pdfrwt>
<totfact> 0.45504149E-13</totfact>
</mgrwt>
</event>
<event>
 4    1 -0.5109406E-019  0.1496031E+02  0.7818608E-02  0.1869282E+00
         -2   -1    0    0    0  501 -0.00000000000E+00  0.00000000000E+00  0.11991748258E+03  0.11991748260E+03  0.25500000000E-02 0.  1.
          2   -1    0    0  501    0  0.00000000000E+00 -0.00000000000E+00 -0.46658968974E+00  0.46659665780E+00  0.25500000000E-02 0. -1.
         31    1    1    2    0    0  0.19809424931E+00 -0.66803350654E-01  0.65123782767E+02  0.65548529441E+02  0.74470750000E+01 0.  1.
        -31    1    1    2    0    0 -0.19809424931E+00  0.66803350654E-01  0.54327110119E+02  0.54835549819E+02  0.74470750000E+01 0. -1.
<mgrwt>
<rscale>  0 0.14960305E+02</rscale>
<asrwt>0</asrwt>
<pdfrwt beam="2">  1        2 0.99101222E+00 0.14960305E+02</pdfrwt>
<pdfrwt beam="1">  1       -2 0.99541980E+00 0.14960305E+02</pdfrwt>
<totfact>-0.16066492E-13</totfact>
</mgrwt>
</event>
<event>
 4    1 -0.5109406E-019  0.1492444E+02  0.7818608E-02  0.1870383E+00
         -2   -1    0    0    0  501 -0.00000000000E+00  0.00000000000E+00  0.12021197539E+03  0.12021197542E+03  0.25500000000E-02 0.  1.
          2   -1    0    0  501    0  0.00000000000E+00 -0.00000000000E+00 -0.46321741474E+00  0.46322443353E+00  0.25500000000E-02 0. -1.
         31    1    1    2    0    0  0.32445777226E+00  0.26601061470E+00  0.58070966937E+02  0.58548032944E+02  0.74470750000E+01 0. -1.
        -31    1    1    2    0    0 -0.32445777226E+00 -0.26601061470E+00  0.61677791040E+02  0.62127166909E+02  0.74470750000E+01 0. -1.
<mgrwt>
<rscale>  0 0.14924437E+02</rscale>
<asrwt>0</asrwt>
<pdfrwt beam="2">  1        2 0.98388663E+00 0.14924437E+02</pdfrwt>
<pdfrwt beam="1">  1       -2 0.99782698E+00 0.14924437E+02</pdfrwt>
<totfact>-0.26473055E-13</totfact>
</mgrwt>
</event>
<event>
 4    1  0.5109406E-019  0.1490834E+02  0.7818608E-02  0.1870879E+00
         -2   -1    0    0    0  501 -0.00000000000E+00  0.00000000000E+00  0.11845059104E+03  0.11845059106E+03  0.25500000000E-02 0.  1.
          2   -1    0    0  501    0  0.00000000000E+00 -0.00000000000E+00 -0.46909198607E+00  0.46909891696E+00  0.25500000000E-02 0. -1.
         31    1    1    2    0    0  0.13227735554E+00  0.19465765258E+00  0.57201369606E+02  0.57684581994E+02  0.74470750000E+01 0. -1.
        -31    1    1    2    0    0 -0.13227735554E+00 -0.19465765258E+00  0.60780129445E+02  0.61235107988E+02  0.74470750000E+01 0.  1.
<mgrwt>
<rscale>  0 0.14908338E+02</rscale>
<asrwt>0</asrwt>
<pdfrwt beam="2">  1        2 0.99625811E+00 0.14908338E+02</pdfrwt>
<pdfrwt beam="1">  1       -2 0.98331120E+00 0.14908338E+02</pdfrwt>
<totfact> 0.63172546E-13</totfact>
</mgrwt>
</event>
<event>
 4    1  0.5109406E-019  0.1491206E+02  0.7818608E-02  0.1870764E+00
          2   -1    0    0  501    0  0.00000000000E+00  0.00000000000E+00  0.11939511542E+03  0.11939511545E+03  0.25500000000E-02 0.  1.
         -2   -1    0    0    0  501 -0.00000000000E+00 -0.00000000000E+00 -0.46561307349E+00  0.46562005617E+00  0.25500000000E-02 0. -1.
         31    1    1    2    0    0  0.18866488413E+00  0.16646805381E+00  0.57336397383E+02  0.57818549765E+02  0.74470750000E+01 0. -1.
        -31    1    1    2    0    0 -0.18866488413E+00 -0.16646805381E+00  0.61593104963E+02  0.62042185737E+02  0.74470750000E+01 0.  1.
<mgrwt>
<rscale>  0 0.14912055E+02</rscale>
<asrwt>0</asrwt>
<pdfrwt beam="1">  1        2 0.99109242E+00 0.14912055E+02</pdfrwt>
<pdfrwt beam="2">  1       -2 0.98892926E+00 0.14912055E+02</pdfrwt>
<totfact> 0.10544317E-13</totfact>
</mgrwt>
</event>
<event>
 4    1  0.5109406E-019  0.1490534E+02  0.7818608E-02  0.1870971E+00
         -2   -1    0    0    0  501 -0.00000000000E+00  0.00000000000E+00  0.11843422156E+03  0.11843422159E+03  0.25500000000E-02 0. -1.
          2   -1    0    0  501    0  0.00000000000E+00 -0.00000000000E+00 -0.46896813317E+00  0.46897506589E+00  0.25500000000E-02 0.  1.
         31    1    1    2    0    0 -0.24211247990E+00 -0.14636902765E-01  0.60232044852E+02  0.60691160689E+02  0.74470750000E+01 0.  1.
        -31    1    1    2    0    0  0.24211247990E+00  0.14636902765E-01  0.57733208576E+02  0.58212035965E+02  0.74470750000E+01 0. -1.
<mgrwt>
<rscale>  0 0.14905340E+02</rscale>
<asrwt>0</asrwt>
<pdfrwt beam="2">  1        2 0.99599557E+00 0.14905340E+02</pdfrwt>
<pdfrwt beam="1">  1       -2 0.98317482E+00 0.14905340E+02</pdfrwt>
<totfact> 0.67824230E-13</totfact>
</mgrwt>
</event>
<event>
 4    1  0.5109406E-019  0.1492693E+02  0.7818608E-02  0.1870306E+00
         -2   -1    0    0    0  501 -0.00000000000E+00  0.00000000000E+00  0.11898674003E+03  0.11898674005E+03  0.25500000000E-02 0.  1.
          2   -1    0    0  501    0  0.00000000000E+00 -0.00000000000E+00 -0.46814399855E+00  0.46815094347E+00  0.25500000000E-02 0. -1.
         31    1    1    2    0    0 -0.15819980115E+00 -0.42708474853E-01  0.62992059603E+02  0.63430949467E+02  0.74470750000E+01 0.  1.
        -31    1    1    2    0    0  0.15819980115E+00  0.42708474853E-01  0.55526536423E+02  0.56023941529E+02  0.74470750000E+01 0. -1.
<mgrwt>
<rscale>  0 0.14926935E+02</rscale>
<asrwt>0</asrwt>
<pdfrwt beam="2">  1        2 0.99427036E+00 0.14926935E+02</pdfrwt>
<pdfrwt beam="1">  1       -2 0.98773662E+00 0.14926935E+02</pdfrwt>
<totfact> 0.18696150E-13</totfact>
</mgrwt>
</event>
<event>
 4    1 -0.5109406E-019  0.1493329E+02  0.7818608E-02  0.1870111E+00
          2   -1    0    0  501    0  0.00000000000E+00  0.00000000000E+00  0.11906175607E+03  0.11906175610E+03  0.25500000000E-02 0.  1.
         -2   -1    0    0    0  501 -0.00000000000E+00 -0.00000000000E+00 -0.46824765088E+00  0.46825459427E+00  0.25500000000E-02 0. -1.
         31    1    1    2    0    0  0.45344653308E-01 -0.53405007751E+00  0.58753140668E+02  0.59225650947E+02  0.74470750000E+01 0. -1.
        -31    1    1    2    0    0 -0.45344653308E-01  0.53405007751E+00  0.59840367751E+02  0.60304359745E+02  0.74470750000E+01 0.  1.
<mgrwt>
<rscale>  0 0.14933292E+02</rscale>
<asrwt>0</asrwt>
<pdfrwt beam="1">  1        2 0.98835776E+00 0.14933292E+02</pdfrwt>
<pdfrwt beam="2">  1       -2 0.99449209E+00 0.14933292E+02</pdfrwt>
<totfact>-0.21342311E-13</totfact>
</mgrwt>
</event>
<event>
 4    1  0.5109406E-019  0.1494546E+02  0.7818608E-02  0.1869737E+00
         -2   -1    0    0    0  501 -0.00000000000E+00  0.00000000000E+00  0.11865222085E+03  0.11865222088E+03  0.25500000000E-02 0. -1.
          2   -1    0    0  501    0  0.00000000000E+00 -0.00000000000E+00 -0.47063001648E+00  0.47063692472E+00  0.25500000000E-02 0.  1.
         31    1    1    2    0    0  0.18854369538E-01 -0.26477604058E+00  0.63545172121E+02  0.63980608686E+02  0.74470750000E+01 0. -1.
        -31    1    1    2    0    0 -0.18854369538E-01  0.26477604058E+00  0.54636418710E+02  0.55142249114E+02  0.74470750000E+01 0.  1.
<mgrwt>
<rscale>  0 0.14945462E+02</rscale>
<asrwt>0</asrwt>
<pdfrwt beam="2">  1        2 0.99951832E+00 0.14945462E+02</pdfrwt>
<pdfrwt beam="1">  1       -2 0.98499113E+00 0.14945462E+02</pdfrwt>
<totfact> 0.76064948E-14</totfact>
</mgrwt>
</event>
<event>
 4    1  0.5109406E-019  0.1491821E+02  0.7818608E-02  0.1870575E+00
          2   -1    0    0  501    0  0.00000000000E+00  0.00000000000E+00  0.12010208176E+03  0.12010208179E+03  0.25500000000E-02 0.  1.
         -2   -1    0    0    0  501 -0.00000000000E+00 -0.00000000000E+00 -0.46325443031E+00  0.46326144853E+00  0.25500000000E-02 0. -1.
         31    1    1    2    0    0  0.40395548239E+00  0.12333093670E+00  0.59573010498E+02  0.60038162000E+02  0.74470750000E+01 0.  1.
        -31    1    1    2    0    0 -0.40395548239E+00 -0.12333093670E+00  0.60065816835E+02  0.60527181238E+02  0.74470750000E+01 0.  1.
<mgrwt>
<rscale>  0 0.14918210E+02</rscale>
<asrwt>0</asrwt>
<pdfrwt beam="1">  1        2 0.99691861E+00 0.14918210E+02</pdfrwt>
<pdfrwt beam="2">  1       -2 0.98396149E+00 0.14918210E+02</pdfrwt>
<totfact> 0.47885267E-13</totfact>
</mgrwt>
</event>
<event>
 4    1 -0.5109406E-019  0.1500568E+02  0.7818608E-02  0.1867895E+00
         -2   -1    0    0    0  501 -0.00000000000E+00  0.00000000000E+00  0.11979839101E+03  0.11979839104E+03  0.25500000000E-02 0. -1.
          2   -1    0    0  501    0  0.00000000000E+00 -0.00000000000E+00 -0.46989088737E+00  0.46989780648E+00  0.25500000000E-02 0.  1.
         31    1    1    2    0    0  0.55645342847E+00  0.38929703379E+00  0.54772751456E+02  0.55280868487E+02  0.74470750000E+01 0.  1.
        -31    1    1    2    0    0 -0.55645342847E+00 -0.38929703379E+00  0.64555748667E+02  0.64987420357E+02  0.74470750000E+01 0. -1.
<mgrwt>
<rscale>  0 0.15005678E+02</rscale>
<asrwt>0</asrwt>
<pdfrwt beam="2">  1        2 0.99799245E+00 0.15005678E+02</pdfrwt>
<pdfrwt beam="1">  1       -2 0.99446236E+00 0.15005678E+02</pdfrwt>
<totfact>-0.65633180E-14</totfact>
</mgrwt>
</event>
<event>
 4    1  0.5109406E-019  0.1490841E+02  0.7818608E-02  0.1870876E+00
          2   -1    0    0  501    0  0.00000000000E+00  0.00000000000E+00  0.12035416725E+03  0.12035416728E+03  0.25500000000E-02 0.  1.
         -2   -1    0    0    0  501 -0.00000000000E+00 -0.00000000000E+00 -0.46167719477E+00  0.46168423697E+00  0.25500000000E-02 0. -1.
         31    1    1    2    0    0 -0.31752120597E-01 -0.13212884469E+00  0.57544858003E+02  0.58024891855E+02  0.74470750000E+01 0. -1.
        -31    1    1    2    0    0  0.31752120597E-01  0.13212884469E+00  0.62347632054E+02  0.62790959660E+02  0.74470750000E+01 0.  1.
<mgrwt>
<rscale>  0 0.14908414E+02</rscale>
<asrwt>0</asrwt>
<pdfrwt beam="1">  1        2 0.99898999E+00 0.14908414E+02</pdfrwt>
<pdfrwt beam="2">  1       -2 0.98063216E+00 0.14908414E+02</pdfrwt>
<totfact> 0.39256752E-13</totfact>
</mgrwt>
</event>
<event>
 4    1 -0.5109406E-019  0.1496804E+02  0.7818608E-02  0.1869045E+00
          2   -1    0    0  501    0  0.00000000000E+00  0.00000000000E+00  0.11965484266E+03  0.11965484269E+03  0.25500000000E-02 0. -1.
         -2   -1    0    0    0  501 -0.00000000000E+00 -0.00000000000E+00 -0.46809732884E+00  0.46810427446E+00  0.25500000000E-02 0.  1.
         31    1    1    2    0    0 -0.28523385147E+00  0.68430943913E+00  0.59949321089E+02  0.60414647751E+02  0.74470750000E+01 0.  1.
        -31    1    1    2    0    0  0.28523385147E+00 -0.68430943913E+00  0.59237424244E+02  0.59708299212E+02  0.74470750000E+01 0. -1.
<mgrwt>
<rscale>  0 0.14968037E+02</rscale>
<asrwt>0</asrwt>
<pdfrwt beam="1">  1        2 0.99326057E+00 0.14968037E+02</pdfrwt>
<pdfrwt beam="2">  1       -2 0.99419339E+00 0.14968037E+02</pdfrwt>
<totfact>-0.13674871E-13</totfact>
</mgrwt>
</event>
<event>
 4    1 -0.5109406E-019  0.1490413E+02  0.7818608E-02  0.1871008E+00
          2   -1    0    0  501    0  0.00000000000E+00  0.00000000000E+00  0.11878058842E+03  0.11878058845E+03  0.25500000000E-02 0.  1.
         -2   -1    0    0    0  501 -0.00000000000E+00 -0.00000000000E+00 -0.46752468266E+00  0.46753163679E+00  0.25500000000E-02 0. -1.
         31    1    1    2    0    0  0.11598347403E-01 -0.16027956741E+00  0.60918990728E+02  0.61372698990E+02  0.74470750000E+01 0. -1.
        -31    1    1    2    0    0 -0.11598347403E-01  0.16027956741E+00  0.57394073014E+02  0.57875421098E+02  0.74470750000E+01 0. -1.
<mgrwt>
<rscale>  0 0.14904130E+02</rscale>
<asrwt>0</asrwt>
<pdfrwt beam="1">  1        2 0.98602689E+00 0.14904130E+02</pdfrwt>
<pdfrwt beam="2">  1       -2 0.99295345E+00 0.14904130E+02</pdfrwt>
<totfact>-0.25400706E-13</totfact>
</mgrwt>
</event>
<event>
 4    1 -0.5109406E-019  0.1492277E+02  0.7818608E-02  0.1870434E+00
          2   -1    0    0  501    0  0.00000000000E+00  0.00000000000E+00  0.11912448390E+03  0.11912448393E+03  0.25500000000E-02 0.  1.
         -2   -1    0    0    0  501 -0.00000000000E+00 -0.00000000000E+00 -0.46734180344E+00  0.46734876029E+00  0.25500000000E-02 0. -1.
         31    1    1    2    0    0 -0.27349297047E+00  0.51095353533E-01  0.56373857236E+02  0.56864295607E+02  0.74470750000E+01 0. -1.
        -31    1    1    2    0    0  0.27349297047E+00 -0.51095353533E-01  0.62283284859E+02  0.62727537079E+02  0.74470750000E+01 0. -1.
<mgrwt>
<rscale>  0 0.14922770E+02</rscale>
<asrwt>0</asrwt>
<pdfrwt beam="1">  1        2 0.98886895E+00 0.14922770E+02</pdfrwt>
<pdfrwt beam="2">  1       -2 0.99257780E+00 0.14922770E+02</pdfrwt>
<totfact>-0.15928548E-13</totfact>
</mgrwt>
</event>
<event>
 4    1 -0.5109406E-019  0.1491318E+02  0.7818608E-02  0.1870730E+00
         -2   -1    0    0    0  501 -0.00000000000E+00  0.00000000000E+00  0.12017680826E+03  0.12017680829E+03  0.25500000000E-02 0.  1.
          2   -1    0    0  501    0  0.00000000000E+00 -0.00000000000E+00 -0.46265392294E+00  0.46266095028E+00  0.25500000000E-02 0. -1.
         31    1    1    2    0    0  0.29332918900E+00  0.38858969728E-01  0.61740708642E+02  0.62188918480E+02  0.74470750000E+01 0. -1.
        -31    1    1    2    0    0 -0.29332918900E+00 -0.38858969728E-01  0.57973445699E+02  0.58450550761E+02  0.74470750000E+01 0.  1.
<mgrwt>
<rscale>  0 0.14913175E+02</rscale>
<asrwt>0</asrwt>
<pdfrwt beam="2">  1        2 0.98269326E+00 0.14913175E+02</pdfrwt>
<pdfrwt beam="1">  1       -2 0.99753154E+00 0.14913175E+02</pdfrwt>
<totfact>-0.35663587E-13</totfact>
</mgrwt>
</event>
<event>
 4    1 -0.5109406E-019  0.1493316E+02  0.7818608E-02  0.1870115E+00
          2   -1    0    0  501    0  0.00000000000E+00  0.00000000000E+00  0.11899927263E+03  0.11899927266E+03  0.25500000000E-02 0. -1.
         -2   -1    0    0    0  501 -0.00000000000E+00 -0.00000000000E+00 -0.46848512013E+00  0.46849206000E+00  0.25500000000E-02 0.  1.
         31    1    1    2    0    0  0.21401931715E+00 -0.40457238591E+00  0.61547834233E+02  0.61998421818E+02  0.74470750000E+01 0.  1.
        -31    1    1    2    0    0 -0.21401931715E+00  0.40457238591E+00  0.56982953281E+02  0.57469342903E+02  0.74470750000E+01 0. -1.
<mgrwt>
<rscale>  0 0.14933158E+02</rscale>
<asrwt>0</asrwt>
<pdfrwt beam="1">  1        2 0.98784307E+00 0.14933158E+02</pdfrwt>
<pdfrwt beam="2">  1       -2 0.99499241E+00 0.14933158E+02</pdfrwt>
<totfact>-0.22778447E-13</totfact>
</mgrwt>
</event>
<event>
 4    1  0.5109406E-019  0.1489734E+02  0.7818608E-02  0.1871217E+00
          2   -1    0    0  501    0  0.00000000000E+00  0.00000000000E+00  0.12034954388E+03  0.12034954391E+03  0.25500000000E-02 0. -1.
         -2   -1    0    0    0  501 -0.00000000000E+00 -0.00000000000E+00 -0.46100951595E+00  0.46101656835E+00  0.25500000000E-02 0.  1.
         31    1    1    2    0    0  0.61758046681E-01 -0.97888626281E-01  0.59117638896E+02  0.59584960778E+02  0.74470750000E+01 0.  1.
        -31    1    1    2    0    0 -0.61758046681E-01  0.97888626281E-01  0.60770895468E+02  0.61225599697E+02  0.74470750000E+01 0.  1.
<mgrwt>
<rscale>  0 0.14897344E+02</rscale>
<asrwt>0</asrwt>
<pdfrwt beam="1">  1        2 0.99894624E+00 0.14897344E+02</pdfrwt>
<pdfrwt beam="2">  1       -2 0.97921925E+00 0.14897344E+02</pdfrwt>
<totfact> 0.51661647E-13</totfact>
</mgrwt>
</event>
<event>
 4    1  0.5109406E-019  0.1495077E+02  0.7818608E-02  0.1869575E+00
         -2   -1    0    0    0  501 -0.00000000000E+00  0.00000000000E+00  0.11905043831E+03  0.11905043834E+03  0.25500000000E-02 0. -1.
          2   -1    0    0  501    0  0.00000000000E+00 -0.00000000000E+00 -0.46938883196E+00  0.46939575847E+00  0.25500000000E-02 0.  1.
         31    1    1    2    0    0  0.55558571211E-01  0.33951475521E+00  0.54882241716E+02  0.55386259477E+02  0.74470750000E+01 0.  1.
        -31    1    1    2    0    0 -0.55558571211E-01 -0.33951475521E+00  0.63698807764E+02  0.64133574621E+02  0.74470750000E+01 0. -1.
<mgrwt>
<rscale>  0 0.14950767E+02</rscale>
<asrwt>0</asrwt>
<pdfrwt beam="2">  1        2 0.99690588E+00 0.14950767E+02</pdfrwt>
<pdfrwt beam="1">  1       -2 0.98827361E+00 0.14950767E+02</pdfrwt>
<totfact> 0.96642282E-14</totfact>
</mgrwt>
</event>
<event>
 4    1  0.5109406E-019  0.1490968E+02  0.7818608E-02  0.1870837E+00
         -2   -1    0    0    0  501 -0.00000000000E+00  0.00000000000E+00  0.11847100411E+03  0.11847100413E+03  0.25500000000E-02 0. -1.
          2   -1    0    0  501    0  0.00000000000E+00 -0.00000000000E+00 -0.46909529605E+00  0.46910222689E+00  0.25500000000E-02 0.  1.
         31    1    1    2    0    0  0.31394917759E+00 -0.44991782760E-02  0.57957954827E+02  0.58435280765E+02  0.74470750000E+01 0.  1.
        -31    1    1    2    0    0 -0.31394917759E+00  0.44991782760E-02  0.60043953982E+02  0.60504825594E+02  0.74470750000E+01 0. -1.
<mgrwt>
<rscale>  0 0.14909675E+02</rscale>
<asrwt>0</asrwt>
<pdfrwt beam="2">  1        2 0.99626579E+00 0.14909675E+02</pdfrwt>
<pdfrwt beam="1">  1       -2 0.98348002E+00 0.14909675E+02</pdfrwt>
<totfact> 0.60695942E-13</totfact>
</mgrwt>
</event>
<event>
 4    1  0.5109406E-019  0.1490546E+02  0.7818608E-02  0.1870967E+00
         -2   -1    0    0    0  501 -0.00000000000E+00  0.00000000000E+00  0.11838561594E+03  0.11838561596E+03  0.25500000000E-02 0.  1.
          2   -1    0    0  501    0  0.00000000000E+00 -0.00000000000E+00 -0.46916813216E+00  0.46917506193E+00  0.25500000000E-02 0. -1.
         31    1    1    2    0    0 -0.72866771514E-01 -0.28461166558E-01  0.61187015259E+02  0.61638590850E+02  0.74470750000E+01 0.  1.
        -31    1    1    2    0    0  0.72866771514E-01  0.28461166558E-01  0.56729432546E+02  0.57216200177E+02  0.74470750000E+01 0. -1.
<mgrwt>
<rscale>  0 0.14905458E+02</rscale>
<asrwt>0</asrwt>
<pdfrwt beam="2">  1        2 0.99641703E+00 0.14905458E+02</pdfrwt>
<pdfrwt beam="1">  1       -2 0.98277457E+00 0.14905458E+02</pdfrwt>
<totfact> 0.69257371E-13</totfact>
</mgrwt>
</event>
<event>
 4    1  0.5109406E-019  0.1494688E+02  0.7818608E-02  0.1869694E+00
         -2   -1    0    0    0  501 -0.00000000000E+00  0.00000000000E+00  0.11899428213E+03  0.11899428216E+03  0.25500000000E-02 0. -1.
          2   -1    0    0  501    0  0.00000000000E+00 -0.00000000000E+00 -0.46936604935E+00  0.46937297620E+00  0.25500000000E-02 0.  1.
         31    1    1    2    0    0 -0.19274611046E+00  0.59565910533E+00  0.59562002445E+02  0.60029018168E+02  0.74470750000E+01 0. -1.
        -31    1    1    2    0    0  0.19274611046E+00 -0.59565910533E+00  0.58962913639E+02  0.59434636970E+02  0.74470750000E+01 0. -1.
<mgrwt>
<rscale>  0 0.14946878E+02</rscale>
<asrwt>0</asrwt>
<pdfrwt beam="2">  1        2 0.99685583E+00 0.14946878E+02</pdfrwt>
<pdfrwt beam="1">  1       -2 0.98780909E+00 0.14946878E+02</pdfrwt>
<totfact> 0.12806055E-13</totfact>
</mgrwt>
</event>
<event>
 4    1 -0.5109406E-019  0.1492225E+02  0.7818608E-02  0.1870450E+00
          2   -1    0    0  501    0  0.00000000000E+00  0.00000000000E+00  0.11852617939E+03  0.11852617942E+03  0.25500000000E-02 0. -1.
         -2   -1    0    0    0  501 -0.00000000000E+00 -0.00000000000E+00 -0.46966825594E+00  0.46967517833E+00  0.25500000000E-02 0.  1.
         31    1    1    2    0    0  0.17077660958E+00  0.28977799468E+00  0.56553167966E+02  0.57042377834E+02  0.74470750000E+01 0.  1.
        -31    1    1    2    0    0 -0.17077660958E+00 -0.28977799468E+00  0.61503343166E+02  0.61953476760E+02  0.74470750000E+01 0. -1.
<mgrwt>
<rscale>  0 0.14922251E+02</rscale>
<asrwt>0</asrwt>
<pdfrwt beam="1">  1        2 0.98394098E+00 0.14922251E+02</pdfrwt>
<pdfrwt beam="2">  1       -2 0.99747965E+00 0.14922251E+02</pdfrwt>
<totfact>-0.29348290E-13</totfact>
</mgrwt>
</event>
<event>
 4    1 -0.5109406E-019  0.1490396E+02  0.7818608E-02  0.1871013E+00
         -2   -1    0    0    0  501 -0.00000000000E+00  0.00000000000E+00  0.11959372916E+03  0.11959372919E+03  0.25500000000E-02 0.  1.
          2   -1    0    0  501    0  0.00000000000E+00 -0.00000000000E+00 -0.46433543071E+00  0.46434243260E+00  0.25500000000E-02 0. -1.
         31    1    1    2    0    0  0.95052913751E-01 -0.24377872205E+00  0.60113326064E+02  0.60573421231E+02  0.74470750000E+01 0. -1.
        -31    1    1    2    0    0 -0.95052913751E-01  0.24377872205E+00  0.59016067666E+02  0.59484650389E+02  0.74470750000E+01 0.  1.
<mgrwt>
<rscale>  0 0.14903963E+02</rscale>
<asrwt>0</asrwt>
<pdfrwt beam="2">  1        2 0.98623253E+00 0.14903963E+02</pdfrwt>
<pdfrwt beam="1">  1       -2 0.99272414E+00 0.14903963E+02</pdfrwt>
<totfact>-0.23479228E-13</totfact>
</mgrwt>
</event>
<event>
 4    1  0.5109406E-019  0.1493861E+02  0.7818608E-02  0.1869948E+00
         -2   -1    0    0    0  501 -0.00000000000E+00  0.00000000000E+00  0.11875091687E+03  0.11875091689E+03  0.25500000000E-02 0. -1.
          2   -1    0    0  501    0  0.00000000000E+00 -0.00000000000E+00 -0.46980772807E+00  0.46981464840E+00  0.25500000000E-02 0.  1.
         31    1    1    2    0    0  0.98516194044E-01 -0.25513905595E+00  0.55096410771E+02  0.55598095356E+02  0.74470750000E+01 0.  1.
        -31    1    1    2    0    0 -0.98516194044E-01  0.25513905595E+00  0.63184698369E+02  0.63622636187E+02  0.74470750000E+01 0. -1.
<mgrwt>
<rscale>  0 0.14938609E+02</rscale>
<asrwt>0</asrwt>
<pdfrwt beam="2">  1        2 0.99778214E+00 0.14938609E+02</pdfrwt>
<pdfrwt beam="1">  1       -2 0.98580042E+00 0.14938609E+02</pdfrwt>
<totfact> 0.22643508E-13</totfact>
</mgrwt>
</event>
<event>
 4    1  0.5109406E-019  0.1494130E+02  0.7818608E-02  0.1869865E+00
         -2   -1    0    0    0  501 -0.00000000000E+00  0.00000000000E+00  0.11859787538E+03  0.11859787541E+03  0.25500000000E-02 0. -1.
          2   -1    0    0  501    0  0.00000000000E+00 -0.00000000000E+00 -0.47058331984E+00  0.47059022877E+00  0.25500000000E-02 0.  1.
         31    1    1    2    0    0 -0.14507953210E+00  0.53175062291E+00  0.57320218254E+02  0.57804585921E+02  0.74470750000E+01 0. -1.
        -31    1    1    2    0    0  0.14507953210E+00 -0.53175062291E+00  0.60807073810E+02  0.61263879719E+02  0.74470750000E+01 0. -1.
<mgrwt>
<rscale>  0 0.14941298E+02</rscale>
<asrwt>0</asrwt>
<pdfrwt beam="2">  1        2 0.99941773E+00 0.14941298E+02</pdfrwt>
<pdfrwt beam="1">  1       -2 0.98454138E+00 0.14941298E+02</pdfrwt>
<totfact> 0.10282785E-13</totfact>
</mgrwt>
</event>
<event>
 4    1  0.5109406E-019  0.1495853E+02  0.7818608E-02  0.1869337E+00
          2   -1    0    0  501    0  0.00000000000E+00  0.00000000000E+00  0.12040247590E+03  0.12040247592E+03  0.25500000000E-02 0.  1.
         -2   -1    0    0    0  501 -0.00000000000E+00 -0.00000000000E+00 -0.46460003432E+00  0.46460703223E+00  0.25500000000E-02 0. -1.
         31    1    1    2    0    0 -0.22735191250E+00 -0.62966039380E+00  0.61421832529E+02  0.61875266451E+02  0.74470750000E+01 0. -1.
        -31    1    1    2    0    0  0.22735191250E+00  0.62966039380E+00  0.58516043332E+02  0.58991816504E+02  0.74470750000E+01 0. -1.
<mgrwt>
<rscale>  0 0.14958532E+02</rscale>
<asrwt>0</asrwt>
<pdfrwt beam="1">  1        2 0.99941361E+00 0.14958532E+02</pdfrwt>
<pdfrwt beam="2">  1       -2 0.98681801E+00 0.14958532E+02</pdfrwt>
<totfact> 0.49852155E-14</totfact>
</mgrwt>
</event>
<event>
 4    1  0.5109406E-019  0.1491626E+02  0.7818608E-02  0.1870635E+00
         -2   -1    0    0    0  501 -0.00000000000E+00  0.00000000000E+00  0.11857269409E+03  0.11857269412E+03  0.25500000000E-02 0.  1.
          2   -1    0    0  501    0  0.00000000000E+00 -0.00000000000E+00 -0.46910696756E+00  0.46911389823E+00  0.25500000000E-02 0. -1.
         31    1    1    2    0    0 -0.40426985610E+00  0.29261122197E-01  0.59225678130E+02  0.59693418116E+02  0.74470750000E+01 0. -1.
        -31    1    1    2    0    0  0.40426985610E+00 -0.29261122197E-01  0.58877908992E+02  0.59348389900E+02  0.74470750000E+01 0.  1.
<mgrwt>
<rscale>  0 0.14916258E+02</rscale>
<asrwt>0</asrwt>
<pdfrwt beam="2">  1        2 0.99629385E+00 0.14916258E+02</pdfrwt>
<pdfrwt beam="1">  1       -2 0.98432096E+00 0.14916258E+02</pdfrwt>
<totfact> 0.49217417E-13</totfact>
</mgrwt>
</event>
<event>
 4    1 -0.5109406E-019  0.1496845E+02  0.7818608E-02  0.1869033E+00
          2   -1    0    0  501    0  0.00000000000E+00  0.00000000000E+00  0.11913341485E+03  0.11913341488E+03  0.25500000000E-02 0.  1.
         -2   -1    0    0    0  501 -0.00000000000E+00 -0.00000000000E+00 -0.47017187353E+00  0.47017878851E+00  0.25500000000E-02 0. -1.
         31    1    1    2    0    0 -0.59675423719E+00  0.32112246549E+00  0.61800050699E+02  0.62250818691E+02  0.74470750000E+01 0.  1.
        -31    1    1    2    0    0  0.59675423719E+00 -0.32112246549E+00  0.56863192276E+02  0.57352774974E+02  0.74470750000E+01 0. -1.
<mgrwt>
<rscale>  0 0.14968446E+02</rscale>
<asrwt>0</asrwt>
<pdfrwt beam="1">  1        2 0.98896619E+00 0.14968446E+02</pdfrwt>
<pdfrwt beam="2">  1       -2 0.99856510E+00 0.14968446E+02</pdfrwt>
<totfact>-0.89347739E-14</totfact>
</mgrwt>
</event>
<event>
 4    1  0.5109406E-019  0.1491871E+02  0.7818608E-02  0.1870559E+00
         -2   -1    0    0    0  501 -0.00000000000E+00  0.00000000000E+00  0.11843221910E+03  0.11843221913E+03  0.25500000000E-02 0. -1.
          2   -1    0    0  501    0  0.00000000000E+00 -0.00000000000E+00 -0.46981764113E+00  0.46982456132E+00  0.25500000000E-02 0.  1.
         31    1    1    2    0    0 -0.73804802484E-01  0.16920000151E+00  0.55905184725E+02  0.56399314543E+02  0.74470750000E+01 0.  1.
        -31    1    1    2    0    0  0.73804802484E-01 -0.16920000151E+00  0.62057216732E+02  0.62502729143E+02  0.74470750000E+01 0. -1.
<mgrwt>
<rscale>  0 0.14918708E+02</rscale>
<asrwt>0</asrwt>
<pdfrwt beam="2">  1        2 0.99779253E+00 0.14918708E+02</pdfrwt>
<pdfrwt beam="1">  1       -2 0.98316529E+00 0.14918708E+02</pdfrwt>
<totfact> 0.45484615E-13</totfact>
</mgrwt>
</event>
<event>
 4    1 -0.5109406E-019  0.1500618E+02  0.7818608E-02  0.1867880E+00
          2   -1    0    0  501    0  0.00000000000E+00  0.00000000000E+00  0.12026832141E+03  0.12026832144E+03  0.25500000000E-02 0.  1.
         -2   -1    0    0    0  501 -0.00000000000E+00 -0.00000000000E+00 -0.46808625612E+00  0.46809320190E+00  0.25500000000E-02 0. -1.
         31    1    1    2    0    0 -0.43814041070E+00  0.85403941079E-01  0.66327593715E+02  0.66745845376E+02  0.74470750000E+01 0.  1.
        -31    1    1    2    0    0  0.43814041070E+00 -0.85403941079E-01  0.53472641440E+02  0.53990569265E+02  0.74470750000E+01 0. -1.
<mgrwt>
<rscale>  0 0.15006181E+02</rscale>
<asrwt>0</asrwt>
<pdfrwt beam="1">  1        2 0.99833315E+00 0.15006181E+02</pdfrwt>
<pdfrwt beam="2">  1       -2 0.99418972E+00 0.15006181E+02</pdfrwt>
<totfact>-0.56027139E-14</totfact>
</mgrwt>
</event>
<event>
 4    1 -0.5109406E-019  0.1501044E+02  0.7818608E-02  0.1867750E+00
          2   -1    0    0  501    0  0.00000000000E+00  0.00000000000E+00  0.12005490825E+03  0.12005490828E+03  0.25500000000E-02 0. -1.
         -2   -1    0    0    0  501 -0.00000000000E+00 -0.00000000000E+00 -0.46918459369E+00  0.46919152322E+00  0.25500000000E-02 0.  1.
         31    1    1    2    0    0  0.90519617257E+00  0.15813121378E+00  0.58522778811E+02  0.59001855491E+02  0.74470750000E+01 0.  1.
        -31    1    1    2    0    0 -0.90519617257E+00 -0.15813121378E+00  0.61062944850E+02  0.61522244314E+02  0.74470750000E+01 0. -1.
<mgrwt>
<rscale>  0 0.15010441E+02</rscale>
<asrwt>0</asrwt>
<pdfrwt beam="1">  1        2 0.99657758E+00 0.15010441E+02</pdfrwt>
<pdfrwt beam="2">  1       -2 0.99650655E+00 0.15010441E+02</pdfrwt>
<totfact>-0.84277440E-14</totfact>
</mgrwt>
</event>
<event>
 4    1  0.5109406E-019  0.1494042E+02  0.7818608E-02  0.1869892E+00
         -2   -1    0    0    0  501 -0.00000000000E+00  0.00000000000E+00  0.11879558448E+03  0.11879558450E+03  0.25500000000E-02 0.  1.
          2   -1    0    0  501    0  0.00000000000E+00 -0.00000000000E+00 -0.46974479114E+00  0.46975171240E+00  0.25500000000E-02 0. -1.
         31    1    1    2    0    0  0.17493616527E+00  0.22137146345E+00  0.63276058984E+02  0.63713406553E+02  0.74470750000E+01 0.  1.
        -31    1    1    2    0    0 -0.17493616527E+00 -0.22137146345E+00  0.55049780701E+02  0.55551929663E+02  0.74470750000E+01 0. -1.
<mgrwt>
<rscale>  0 0.14940418E+02</rscale>
<asrwt>0</asrwt>
<pdfrwt beam="2">  1        2 0.99765048E+00 0.14940418E+02</pdfrwt>
<pdfrwt beam="1">  1       -2 0.98616925E+00 0.14940418E+02</pdfrwt>
<totfact> 0.20902532E-13</totfact>
</mgrwt>
</event>
<event>
 4    1  0.5109406E-019  0.1491787E+02  0.7818608E-02  0.1870585E+00
          2   -1    0    0  501    0  0.00000000000E+00  0.00000000000E+00  0.12024593565E+03  0.12024593567E+03  0.25500000000E-02 0. -1.
         -2   -1    0    0    0  501 -0.00000000000E+00 -0.00000000000E+00 -0.46267887813E+00  0.46268590509E+00  0.25500000000E-02 0.  1.
         31    1    1    2    0    0  0.16332276347E+00  0.37488006429E+00  0.60682156417E+02  0.61138778552E+02  0.74470750000E+01 0. -1.
        -31    1    1    2    0    0 -0.16332276347E+00 -0.37488006429E+00  0.59101100350E+02  0.59569843025E+02  0.74470750000E+01 0.  1.
<mgrwt>
<rscale>  0 0.14917866E+02</rscale>
<asrwt>0</asrwt>
<pdfrwt beam="1">  1        2 0.99810334E+00 0.14917866E+02</pdfrwt>
<pdfrwt beam="2">  1       -2 0.98274823E+00 0.14917866E+02</pdfrwt>
<totfact> 0.44310829E-13</totfact>
</mgrwt>
</event>
<event>
 4    1  0.5109406E-019  0.1494638E+02  0.7818608E-02  0.1869709E+00
         -2   -1    0    0    0  501 -0.00000000000E+00  0.00000000000E+00  0.11883639150E+03  0.11883639153E+03  0.25500000000E-02 0.  1.
          2   -1    0    0  501    0  0.00000000000E+00 -0.00000000000E+00 -0.46995805756E+00  0.46996497567E+00  0.25500000000E-02 0. -1.
         31    1    1    2    0    0  0.44048691111E+00 -0.41854790702E+00  0.58043203442E+02  0.58522146260E+02  0.74470750000E+01 0.  1.
        -31    1    1    2    0    0 -0.44048691111E+00  0.41854790702E+00  0.60323230003E+02  0.60784210245E+02  0.74470750000E+01 0. -1.
<mgrwt>
<rscale>  0 0.14946375E+02</rscale>
<asrwt>0</asrwt>
<pdfrwt beam="2">  1        2 0.99810298E+00 0.14946375E+02</pdfrwt>
<pdfrwt beam="1">  1       -2 0.98650843E+00 0.14946375E+02</pdfrwt>
<totfact> 0.15711497E-13</totfact>
</mgrwt>
</event>
<event>
 4    1 -0.5109406E-019  0.1493058E+02  0.7818608E-02  0.1870194E+00
          2   -1    0    0  501    0  0.00000000000E+00  0.00000000000E+00  0.11899881731E+03  0.11899881734E+03  0.25500000000E-02 0. -1.
         -2   -1    0    0    0  501 -0.00000000000E+00 -0.00000000000E+00 -0.46832485047E+00  0.46833179272E+00  0.25500000000E-02 0.  1.
         31    1    1    2    0    0 -0.26159657579E+00 -0.44980250235E+00  0.59033544233E+02  0.59503689179E+02  0.74470750000E+01 0.  1.
        -31    1    1    2    0    0  0.26159657579E+00  0.44980250235E+00  0.59496948224E+02  0.59963459949E+02  0.74470750000E+01 0. -1.
<mgrwt>
<rscale>  0 0.14930575E+02</rscale>
<asrwt>0</asrwt>
<pdfrwt beam="1">  1        2 0.98783798E+00 0.14930575E+02</pdfrwt>
<pdfrwt beam="2">  1       -2 0.99465335E+00 0.14930575E+02</pdfrwt>
<totfact>-0.22843592E-13</totfact>
</mgrwt>
</event>
<event>
 4    1 -0.5109406E-019  0.1492294E+02  0.7818608E-02  0.1870429E+00
         -2   -1    0    0    0  501 -0.00000000000E+00  0.00000000000E+00  0.11997890699E+03  0.11997890702E+03  0.25500000000E-02 0.  1.
          2   -1    0    0  501    0  0.00000000000E+00 -0.00000000000E+00 -0.46402432322E+00  0.46403132980E+00  0.25500000000E-02 0. -1.
         31    1    1    2    0    0  0.19640323120E+00  0.21922542204E-01  0.56375572640E+02  0.56865658981E+02  0.74470750000E+01 0. -1.
        -31    1    1    2    0    0 -0.19640323120E+00 -0.21922542204E-01  0.63139310030E+02  0.63577279369E+02  0.74470750000E+01 0. -1.
<mgrwt>
<rscale>  0 0.14922943E+02</rscale>
<asrwt>0</asrwt>
<pdfrwt beam="2">  1        2 0.98558655E+00 0.14922943E+02</pdfrwt>
<pdfrwt beam="1">  1       -2 0.99590648E+00 0.14922943E+02</pdfrwt>
<totfact>-0.29947160E-13</totfact>
</mgrwt>
</event>
<event>
 4    1 -0.5109406E-019  0.1498210E+02  0.7818608E-02  0.1868615E+00
          2   -1    0    0  501    0  0.00000000000E+00  0.00000000000E+00  0.12008482064E+03  0.12008482067E+03  0.25500000000E-02 0.  1.
         -2   -1    0    0    0  501 -0.00000000000E+00 -0.00000000000E+00 -0.46729798257E+00  0.46730494007E+00  0.25500000000E-02 0. -1.
         31    1    1    2    0    0  0.40850544964E+00  0.49845100821E+00  0.63763466246E+02  0.64200108130E+02  0.74470750000E+01 0.  1.
        -31    1    1    2    0    0 -0.40850544964E+00 -0.49845100821E+00  0.55854056415E+02  0.56352017481E+02  0.74470750000E+01 0.  1.
<mgrwt>
<rscale>  0 0.14982098E+02</rscale>
<asrwt>0</asrwt>
<pdfrwt beam="1">  1        2 0.99680932E+00 0.14982098E+02</pdfrwt>
<pdfrwt beam="2">  1       -2 0.99251611E+00 0.14982098E+02</pdfrwt>
<totfact>-0.71529166E-14</totfact>
</mgrwt>
</event>
<event>
 4    1 -0.5109406E-019  0.1499134E+02  0.7818608E-02  0.1868333E+00
          2   -1    0    0  501    0  0.00000000000E+00  0.00000000000E+00  0.11966715242E+03  0.11966715245E+03  0.25500000000E-02 0. -1.
         -2   -1    0    0    0  501 -0.00000000000E+00 -0.00000000000E+00 -0.46950766825E+00  0.46951459301E+00  0.25500000000E-02 0.  1.
         31    1    1    2    0    0 -0.70369411456E+00 -0.47083616350E+00  0.60370189317E+02  0.60833671238E+02  0.74470750000E+01 0. -1.
        -31    1    1    2    0    0  0.70369411456E+00  0.47083616350E+00  0.58827455437E+02  0.59302995804E+02  0.74470750000E+01 0.  1.
<mgrwt>
<rscale>  0 0.14991339E+02</rscale>
<asrwt>0</asrwt>
<pdfrwt beam="1">  1        2 0.99337402E+00 0.14991339E+02</pdfrwt>
<pdfrwt beam="2">  1       -2 0.99717746E+00 0.14991339E+02</pdfrwt>
<totfact>-0.10545644E-13</totfact>
</mgrwt>
</event>
<event>
 4    1  0.5109406E-019  0.1490189E+02  0.7818608E-02  0.1871077E+00
          2   -1    0    0  501    0  0.00000000000E+00  0.00000000000E+00  0.11949070264E+03  0.11949070266E+03  0.25500000000E-02 0.  1.
         -2   -1    0    0    0  501 -0.00000000000E+00 -0.00000000000E+00 -0.46460670512E+00  0.46461370292E+00  0.25500000000E-02 0. -1.
         31    1    1    2    0    0  0.22972638041E+00  0.35390274090E-01  0.59026708571E+02  0.59495086162E+02  0.74470750000E+01 0. -1.
        -31    1    1    2    0    0 -0.22972638041E+00 -0.35390274090E-01  0.59999387361E+02  0.60460230205E+02  0.74470750000E+01 0. -1.
<mgrwt>
<rscale>  0 0.14901893E+02</rscale>
<asrwt>0</asrwt>
<pdfrwt beam="1">  1        2 0.99187448E+00 0.14901893E+02</pdfrwt>
<pdfrwt beam="2">  1       -2 0.98680318E+00 0.14901893E+02</pdfrwt>
<totfact> 0.34100280E-13</totfact>
</mgrwt>
</event>
<event>
 4    1 -0.5109406E-019  0.1491334E+02  0.7818608E-02  0.1870724E+00
         -2   -1    0    0    0  501 -0.00000000000E+00  0.00000000000E+00  0.11953689668E+03  0.11953689671E+03  0.25500000000E-02 0. -1.
          2   -1    0    0  501    0  0.00000000000E+00 -0.00000000000E+00 -0.46514126640E+00  0.46514825616E+00  0.25500000000E-02 0.  1.
         31    1    1    2    0    0 -0.32109066784E+00 -0.18468992118E+00  0.58921540886E+02  0.59391448173E+02  0.74470750000E+01 0.  1.
        -31    1    1    2    0    0  0.32109066784E+00  0.18468992118E+00  0.60150214532E+02  0.60610596795E+02  0.74470750000E+01 0. -1.
<mgrwt>
<rscale>  0 0.14913345E+02</rscale>
<asrwt>0</asrwt>
<pdfrwt beam="2">  1        2 0.98793563E+00 0.14913345E+02</pdfrwt>
<pdfrwt beam="1">  1       -2 0.99226087E+00 0.14913345E+02</pdfrwt>
<totfact>-0.16307055E-13</totfact>
</mgrwt>
</event>
<event>
 4    1 -0.5109406E-019  0.1491390E+02  0.7818608E-02  0.1870707E+00
          2   -1    0    0  501    0  0.00000000000E+00  0.00000000000E+00  0.11852685259E+03  0.11852685261E+03  0.25500000000E-02 0. -1.
         -2   -1    0    0    0  501 -0.00000000000E+00 -0.00000000000E+00 -0.46913970683E+00  0.46914663702E+00  0.25500000000E-02 0.  1.
         31    1    1    2    0    0  0.34776080774E-01 -0.15566284343E+00  0.56245380751E+02  0.56736471711E+02  0.74470750000E+01 0.  1.
        -31    1    1    2    0    0 -0.34776080774E-01  0.15566284343E+00  0.61812332129E+02  0.62259527540E+02  0.74470750000E+01 0. -1.
<mgrwt>
<rscale>  0 0.14913895E+02</rscale>
<asrwt>0</asrwt>
<pdfrwt beam="1">  1        2 0.98394218E+00 0.14913895E+02</pdfrwt>
<pdfrwt beam="2">  1       -2 0.99636158E+00 0.14913895E+02</pdfrwt>
<totfact>-0.37074576E-13</totfact>
</mgrwt>
</event>
<event>
 4    1 -0.5109406E-019  0.1491459E+02  0.7818608E-02  0.1870686E+00
         -2   -1    0    0    0  501 -0.00000000000E+00  0.00000000000E+00  0.12004446445E+03  0.12004446448E+03  0.25500000000E-02 0. -1.
          2   -1    0    0  501    0  0.00000000000E+00 -0.00000000000E+00 -0.46325214606E+00  0.46325916432E+00  0.25500000000E-02 0.  1.
         31    1    1    2    0    0  0.22709354530E+00  0.13471134363E+00  0.62113273716E+02  0.62558671792E+02  0.74470750000E+01 0.  1.
        -31    1    1    2    0    0 -0.22709354530E+00 -0.13471134363E+00  0.57467938588E+02  0.57949051849E+02  0.74470750000E+01 0.  1.
<mgrwt>
<rscale>  0 0.14914594E+02</rscale>
<asrwt>0</asrwt>
<pdfrwt beam="2">  1        2 0.98395484E+00 0.14914594E+02</pdfrwt>
<pdfrwt beam="1">  1       -2 0.99644217E+00 0.14914594E+02</pdfrwt>
<totfact>-0.36562113E-13</totfact>
</mgrwt>
</event>
<event>
 4    1  0.5109406E-019  0.1493141E+02  0.7818608E-02  0.1870169E+00
         -2   -1    0    0    0  501 -0.00000000000E+00  0.00000000000E+00  0.11869429797E+03  0.11869429800E+03  0.25500000000E-02 0.  1.
          2   -1    0    0  501    0  0.00000000000E+00 -0.00000000000E+00 -0.46957876630E+00  0.46958569000E+00  0.25500000000E-02 0. -1.
         31    1    1    2    0    0  0.35633758911E+00 -0.34684270423E-02  0.62211745570E+02  0.62656900669E+02  0.74470750000E+01 0.  1.
        -31    1    1    2    0    0 -0.35633758911E+00  0.34684270423E-02  0.56012973631E+02  0.56506983016E+02  0.74470750000E+01 0. -1.
<mgrwt>
<rscale>  0 0.14931408E+02</rscale>
<asrwt>0</asrwt>
<pdfrwt beam="2">  1        2 0.99729592E+00 0.14931408E+02</pdfrwt>
<pdfrwt beam="1">  1       -2 0.98533037E+00 0.14931408E+02</pdfrwt>
<totfact> 0.30273350E-13</totfact>
</mgrwt>
</event>
<event>
 4    1 -0.5109406E-019  0.1493923E+02  0.7818608E-02  0.1869929E+00
          2   -1    0    0  501    0  0.00000000000E+00  0.00000000000E+00  0.11853416193E+03  0.11853416196E+03  0.25500000000E-02 0.  1.
         -2   -1    0    0    0  501 -0.00000000000E+00 -0.00000000000E+00 -0.47070584025E+00  0.47071274738E+00  0.25500000000E-02 0. -1.
         31    1    1    2    0    0  0.55355931057E+00 -0.23325276622E-01  0.60393806385E+02  0.60853740622E+02  0.74470750000E+01 0.  1.
        -31    1    1    2    0    0 -0.55355931057E+00  0.23325276622E-01  0.57669649704E+02  0.58151134082E+02  0.74470750000E+01 0.  1.
<mgrwt>
<rscale>  0 0.14939228E+02</rscale>
<asrwt>0</asrwt>
<pdfrwt beam="1">  1        2 0.98401557E+00 0.14939228E+02</pdfrwt>
<pdfrwt beam="2">  1       -2 0.99967478E+00 0.14939228E+02</pdfrwt>
<totfact>-0.45491426E-14</totfact>
</mgrwt>
</event>
<event>
 4    1  0.5109406E-019  0.1491292E+02  0.7818608E-02  0.1870738E+00
         -2   -1    0    0    0  501 -0.00000000000E+00  0.00000000000E+00  0.11861102199E+03  0.11861102201E+03  0.25500000000E-02 0.  1.
          2   -1    0    0  501    0  0.00000000000E+00 -0.00000000000E+00 -0.46874520547E+00  0.46875214149E+00  0.25500000000E-02 0. -1.
         31    1    1    2    0    0 -0.33516876984E+00 -0.62805051533E-01  0.57845658179E+02  0.58324054890E+02  0.74470750000E+01 0.  1.
        -31    1    1    2    0    0  0.33516876984E+00  0.62805051533E-01  0.60296618602E+02  0.60755719266E+02  0.74470750000E+01 0.  1.
<mgrwt>
<rscale>  0 0.14912916E+02</rscale>
<asrwt>0</asrwt>
<pdfrwt beam="2">  1        2 0.99552984E+00 0.14912916E+02</pdfrwt>
<pdfrwt beam="1">  1       -2 0.98463489E+00 0.14912916E+02</pdfrwt>
<totfact> 0.50508413E-13</totfact>
</mgrwt>
</event>
<event>
 4    1  0.5109406E-019  0.1490207E+02  0.7818608E-02  0.1871072E+00
          2   -1    0    0  501    0  0.00000000000E+00  0.00000000000E+00  0.11946660694E+03  0.11946660697E+03  0.25500000000E-02 0. -1.
         -2   -1    0    0    0  501 -0.00000000000E+00 -0.00000000000E+00 -0.46471120849E+00  0.46471820472E+00  0.25500000000E-02 0.  1.
         31    1    1    2    0    0  0.16453041814E+00  0.17508865964E+00  0.59217538624E+02  0.59684449675E+02  0.74470750000E+01 0. -1.
        -31    1    1    2    0    0 -0.16453041814E+00 -0.17508865964E+00  0.59784357106E+02  0.60246875495E+02  0.74470750000E+01 0. -1.
<mgrwt>
<rscale>  0 0.14902066E+02</rscale>
<asrwt>0</asrwt>
<pdfrwt beam="1">  1        2 0.99167611E+00 0.14902066E+02</pdfrwt>
<pdfrwt beam="2">  1       -2 0.98702351E+00 0.14902066E+02</pdfrwt>
<totfact> 0.31631627E-13</totfact>
</mgrwt>
</event>
<event>
 4    1  0.5109406E-019  0.1489967E+02  0.7818608E-02  0.1871146E+00
          2   -1    0    0  501    0  0.00000000000E+00  0.00000000000E+00  0.11991784040E+03  0.11991784043E+03  0.25500000000E-02 0. -1.
         -2   -1    0    0    0  501 -0.00000000000E+00 -0.00000000000E+00 -0.46281361962E+00  0.46282064453E+00  0.25500000000E-02 0.  1.
         31    1    1    2    0    0 -0.13243336331E+00  0.28000571665E-01  0.58507934529E+02  0.58980129294E+02  0.74470750000E+01 0.  1.
        -31    1    1    2    0    0  0.13243336331E+00 -0.28000571665E-01  0.60947092251E+02  0.61400531778E+02  0.74470750000E+01 0. -1.
<mgrwt>
<rscale>  0 0.14899669E+02</rscale>
<asrwt>0</asrwt>
<pdfrwt beam="1">  1        2 0.99539153E+00 0.14899669E+02</pdfrwt>
<pdfrwt beam="2">  1       -2 0.98302301E+00 0.14899669E+02</pdfrwt>
<totfact> 0.75898320E-13</totfact>
</mgrwt>
</event>
<event>
 4    1 -0.5109406E-019  0.1494628E+02  0.7818608E-02  0.1869712E+00
         -2   -1    0    0    0  501 -0.00000000000E+00  0.00000000000E+00  0.12027977262E+03  0.12027977265E+03  0.25500000000E-02 0. -1.
          2   -1    0    0  501    0  0.00000000000E+00 -0.00000000000E+00 -0.46431238886E+00  0.46431939110E+00  0.25500000000E-02 0.  1.
         31    1    1    2    0    0 -0.29415126043E+00  0.39536872308E+00  0.62995016184E+02  0.63435588051E+02  0.74470750000E+01 0. -1.
        -31    1    1    2    0    0  0.29415126043E+00 -0.39536872308E+00  0.56820444049E+02  0.57308503988E+02  0.74470750000E+01 0.  1.
<mgrwt>
<rscale>  0 0.14946279E+02</rscale>
<asrwt>0</asrwt>
<pdfrwt beam="2">  1        2 0.98620554E+00 0.14946279E+02</pdfrwt>
<pdfrwt beam="1">  1       -2 0.99839663E+00 0.14946279E+02</pdfrwt>
<totfact>-0.14205172E-13</totfact>
</mgrwt>
</event>
<event>
 4    1 -0.5109406E-019  0.1496228E+02  0.7818608E-02  0.1869222E+00
          2   -1    0    0  501    0  0.00000000000E+00  0.00000000000E+00  0.11936903266E+03  0.11936903269E+03  0.25500000000E-02 0.  1.
         -2   -1    0    0    0  501 -0.00000000000E+00 -0.00000000000E+00 -0.46885702050E+00  0.46886395487E+00  0.25500000000E-02 0. -1.
         31    1    1    2    0    0  0.28138332008E+00 -0.31505427353E+00  0.64051549315E+02  0.64484403785E+02  0.74470750000E+01 0.  1.
        -31    1    1    2    0    0 -0.28138332008E+00  0.31505427353E+00  0.54848626325E+02  0.55353492857E+02  0.74470750000E+01 0. -1.
<mgrwt>
<rscale>  0 0.14962276E+02</rscale>
<asrwt>0</asrwt>
<pdfrwt beam="1">  1        2 0.99090358E+00 0.14962276E+02</pdfrwt>
<pdfrwt beam="2">  1       -2 0.99579127E+00 0.14962276E+02</pdfrwt>
<totfact>-0.15782541E-13</totfact>
</mgrwt>
</event>
<event>
 4    1  0.5109406E-019  0.1491723E+02  0.7818608E-02  0.1870605E+00
         -2   -1    0    0    0  501 -0.00000000000E+00  0.00000000000E+00  0.11923932871E+03  0.11923932874E+03  0.25500000000E-02 0.  1.
          2   -1    0    0  501    0  0.00000000000E+00 -0.00000000000E+00 -0.46654535173E+00  0.46655232045E+00  0.25500000000E-02 0. -1.
         31    1    1    2    0    0  0.36120910041E+00 -0.15040605335E+00  0.60491153932E+02  0.60949091249E+02  0.74470750000E+01 0. -1.
        -31    1    1    2    0    0 -0.36120910041E+00  0.15040605335E+00  0.58281629429E+02  0.58756789812E+02  0.74470750000E+01 0. -1.
<mgrwt>
<rscale>  0 0.14917235E+02</rscale>
<asrwt>0</asrwt>
<pdfrwt beam="2">  1        2 0.99089658E+00 0.14917235E+02</pdfrwt>
<pdfrwt beam="1">  1       -2 0.98981198E+00 0.14917235E+02</pdfrwt>
<totfact> 0.26686195E-14</totfact>
</mgrwt>
</event>
<event>
 4    1 -0.5109406E-019  0.1495437E+02  0.7818608E-02  0.1869464E+00
          2   -1    0    0  501    0  0.00000000000E+00  0.00000000000E+00  0.11908707871E+03  0.11908707873E+03  0.25500000000E-02 0. -1.
         -2   -1    0    0    0  501 -0.00000000000E+00 -0.00000000000E+00 -0.46947073924E+00  0.46947766454E+00  0.25500000000E-02 0.  1.
         31    1    1    2    0    0  0.55047518261E+00  0.23975069709E+00  0.61692328978E+02  0.62143083961E+02  0.74470750000E+01 0. -1.
        -31    1    1    2    0    0 -0.55047518261E+00 -0.23975069709E+00  0.56925278990E+02  0.57413472439E+02  0.74470750000E+01 0. -1.
<mgrwt>
<rscale>  0 0.14954373E+02</rscale>
<asrwt>0</asrwt>
<pdfrwt beam="1">  1        2 0.98857726E+00 0.14954373E+02</pdfrwt>
<pdfrwt beam="2">  1       -2 0.99708035E+00 0.14954373E+02</pdfrwt>
<totfact>-0.16358246E-13</totfact>
</mgrwt>
</event>
<event>
 4    1  0.5109406E-019  0.1492050E+02  0.7818608E-02  0.1870504E+00
          2   -1    0    0  501    0  0.00000000000E+00  0.00000000000E+00  0.12019250488E+03  0.12019250491E+03  0.25500000000E-02 0.  1.
         -2   -1    0    0    0  501 -0.00000000000E+00 -0.00000000000E+00 -0.46304803832E+00  0.46305505968E+00  0.25500000000E-02 0. -1.
         31    1    1    2    0    0  0.34663069757E-01 -0.15897335841E+00  0.56531252317E+02  0.57019890290E+02  0.74470750000E+01 0. -1.
        -31    1    1    2    0    0 -0.34663069757E-01  0.15897335841E+00  0.63198204527E+02  0.63635669680E+02  0.74470750000E+01 0.  1.
<mgrwt>
<rscale>  0 0.14920500E+02</rscale>
<asrwt>0</asrwt>
<pdfrwt beam="1">  1        2 0.99766459E+00 0.14920500E+02</pdfrwt>
<pdfrwt beam="2">  1       -2 0.98352764E+00 0.14920500E+02</pdfrwt>
<totfact> 0.43679920E-13</totfact>
</mgrwt>
</event>
<event>
 4    1 -0.5109406E-019  0.1500690E+02  0.7818608E-02  0.1867858E+00
         -2   -1    0    0    0  501 -0.00000000000E+00  0.00000000000E+00  0.12024826867E+03  0.12024826870E+03  0.25500000000E-02 0. -1.
          2   -1    0    0  501    0  0.00000000000E+00 -0.00000000000E+00 -0.46820895027E+00  0.46821589423E+00  0.25500000000E-02 0.  1.
         31    1    1    2    0    0  0.29472164297E+00 -0.13324372099E+00  0.66801356502E+02  0.67215956225E+02  0.74470750000E+01 0. -1.
        -31    1    1    2    0    0 -0.29472164297E+00  0.13324372099E+00  0.52978703218E+02  0.53500528366E+02  0.74470750000E+01 0.  1.
<mgrwt>
<rscale>  0 0.15006897E+02</rscale>
<asrwt>0</asrwt>
<pdfrwt beam="2">  1        2 0.99444866E+00 0.15006897E+02</pdfrwt>
<pdfrwt beam="1">  1       -2 0.99816836E+00 0.15006897E+02</pdfrwt>
<totfact>-0.69592654E-14</totfact>
</mgrwt>
</event>
<event>
 4    1 -0.5109406E-019  0.1495925E+02  0.7818608E-02  0.1869314E+00
         -2   -1    0    0    0  501 -0.00000000000E+00  0.00000000000E+00  0.12000882110E+03  0.12000882112E+03  0.25500000000E-02 0.  1.
          2   -1    0    0  501    0  0.00000000000E+00 -0.00000000000E+00 -0.46616903991E+00  0.46617601426E+00  0.25500000000E-02 0. -1.
         31    1    1    2    0    0  0.68120673093E+00 -0.92257091111E-01  0.58841198455E+02  0.59314569169E+02  0.74470750000E+01 0.  1.
        -31    1    1    2    0    0 -0.68120673093E+00  0.92257091111E-01  0.60701453602E+02  0.61160427970E+02  0.74470750000E+01 0.  1.
<mgrwt>
<rscale>  0 0.14959254E+02</rscale>
<asrwt>0</asrwt>
<pdfrwt beam="2">  1        2 0.99012518E+00 0.14959254E+02</pdfrwt>
<pdfrwt beam="1">  1       -2 0.99617157E+00 0.14959254E+02</pdfrwt>
<totfact>-0.16237386E-13</totfact>
</mgrwt>
</event>
<event>
 4    1 -0.5109406E-019  0.1496167E+02  0.7818608E-02  0.1869240E+00
         -2   -1    0    0    0  501 -0.00000000000E+00  0.00000000000E+00  0.11971519081E+03  0.11971519084E+03  0.25500000000E-02 0.  1.
          2   -1    0    0  501    0  0.00000000000E+00 -0.00000000000E+00 -0.46746328507E+00  0.46747024011E+00  0.25500000000E-02 0. -1.
         31    1    1    2    0    0  0.61884047621E+00 -0.21775545238E+00  0.61802621631E+02  0.62253139258E+02  0.74470750000E+01 0.  1.
        -31    1    1    2    0    0 -0.61884047621E+00  0.21775545238E+00  0.57445105893E+02  0.57929521818E+02  0.74470750000E+01 0. -1.
<mgrwt>
<rscale>  0 0.14961668E+02</rscale>
<asrwt>0</asrwt>
<pdfrwt beam="2">  1        2 0.99285395E+00 0.14961668E+02</pdfrwt>
<pdfrwt beam="1">  1       -2 0.99375433E+00 0.14961668E+02</pdfrwt>
<totfact>-0.13661974E-13</totfact>
</mgrwt>
</event>
<event>
 4    1 -0.5109406E-019  0.1494314E+02  0.7818608E-02  0.1869808E+00
         -2   -1    0    0    0  501 -0.00000000000E+00  0.00000000000E+00  0.11952600973E+03  0.11952600976E+03  0.25500000000E-02 0.  1.
          2   -1    0    0  501    0  0.00000000000E+00 -0.00000000000E+00 -0.46704443270E+00  0.46705139398E+00  0.25500000000E-02 0. -1.
         31    1    1    2    0    0  0.90359955371E-01  0.22154741518E-01  0.54732993082E+02  0.55237379677E+02  0.74470750000E+01 0. -1.
        -31    1    1    2    0    0 -0.90359955371E-01 -0.22154741518E-01  0.64325972216E+02  0.64755681475E+02  0.74470750000E+01 0.  1.
<mgrwt>
<rscale>  0 0.14943142E+02</rscale>
<asrwt>0</asrwt>
<pdfrwt beam="2">  1        2 0.99196171E+00 0.14943142E+02</pdfrwt>
<pdfrwt beam="1">  1       -2 0.99218658E+00 0.14943142E+02</pdfrwt>
<totfact>-0.10728127E-13</totfact>
</mgrwt>
</event>
<event>
 4    1 -0.5109406E-019  0.1494153E+02  0.7818608E-02  0.1869858E+00
          2   -1    0    0  501    0  0.00000000000E+00  0.00000000000E+00  0.11917320818E+03  0.11917320821E+03  0.25500000000E-02 0. -1.
         -2   -1    0    0    0  501 -0.00000000000E+00 -0.00000000000E+00 -0.46832616160E+00  0.46833310382E+00  0.25500000000E-02 0.  1.
         31    1    1    2    0    0 -0.44290746025E+00  0.11781338501E+00  0.56320480209E+02  0.56812546713E+02  0.74470750000E+01 0.  1.
        -31    1    1    2    0    0  0.44290746025E+00 -0.11781338501E+00  0.62384401812E+02  0.62828994600E+02  0.74470750000E+01 0.  1.
<mgrwt>
<rscale>  0 0.14941532E+02</rscale>
<asrwt>0</asrwt>
<pdfrwt beam="1">  1        2 0.98927997E+00 0.14941532E+02</pdfrwt>
<pdfrwt beam="2">  1       -2 0.99466183E+00 0.14941532E+02</pdfrwt>
<totfact>-0.19249812E-13</totfact>
</mgrwt>
</event>
<event>
 4    1 -0.5109406E-019  0.1497107E+02  0.7818608E-02  0.1868952E+00
         -2   -1    0    0    0  501 -0.00000000000E+00  0.00000000000E+00  0.11952238087E+03  0.11952238090E+03  0.25500000000E-02 0.  1.
          2   -1    0    0  501    0  0.00000000000E+00 -0.00000000000E+00 -0.46880633532E+00  0.46881327044E+00  0.25500000000E-02 0. -1.
         31    1    1    2    0    0 -0.40569346140E+00 -0.28045087431E+00  0.54914920564E+02  0.55419767831E+02  0.74470750000E+01 0. -1.
        -31    1    1    2    0    0  0.40569346140E+00  0.28045087431E+00  0.64138653974E+02  0.64571426340E+02  0.74470750000E+01 0.  1.
<mgrwt>
<rscale>  0 0.14971074E+02</rscale>
<asrwt>0</asrwt>
<pdfrwt beam="2">  1        2 0.99568904E+00 0.14971074E+02</pdfrwt>
<pdfrwt beam="1">  1       -2 0.99217115E+00 0.14971074E+02</pdfrwt>
<totfact>-0.77432279E-14</totfact>
</mgrwt>
</event>
<event>
 4    1  0.5109406E-019  0.1490144E+02  0.7818608E-02  0.1871091E+00
          2   -1    0    0  501    0  0.00000000000E+00  0.00000000000E+00  0.11982298978E+03  0.11982298981E+03  0.25500000000E-02 0. -1.
         -2   -1    0    0    0  501 -0.00000000000E+00 -0.00000000000E+00 -0.46329020721E+00  0.46329722489E+00  0.25500000000E-02 0.  1.
         31    1    1    2    0    0  0.19490305383E-02 -0.98086485739E-01  0.57973389617E+02  0.58449828524E+02  0.74470750000E+01 0.  1.
        -31    1    1    2    0    0 -0.19490305383E-02  0.98086485739E-01  0.61386309956E+02  0.61836458508E+02  0.74470750000E+01 0. -1.
<mgrwt>
<rscale>  0 0.14901442E+02</rscale>
<asrwt>0</asrwt>
<pdfrwt beam="1">  1        2 0.99461118E+00 0.14901442E+02</pdfrwt>
<pdfrwt beam="2">  1       -2 0.98402838E+00 0.14901442E+02</pdfrwt>
<totfact> 0.65093885E-13</totfact>
</mgrwt>
</event>
<event>
 4    1 -0.5109406E-019  0.1494243E+02  0.7818608E-02  0.1869830E+00
          2   -1    0    0  501    0  0.00000000000E+00  0.00000000000E+00  0.11864474965E+03  0.11864474968E+03  0.25500000000E-02 0. -1.
         -2   -1    0    0    0  501 -0.00000000000E+00 -0.00000000000E+00 -0.47046847879E+00  0.47047538941E+00  0.25500000000E-02 0.  1.
         31    1    1    2    0    0 -0.50121203785E+00 -0.31212883431E+00  0.58233614843E+02  0.58710829168E+02  0.74470750000E+01 0. -1.
        -31    1    1    2    0    0  0.50121203785E+00  0.31212883431E+00  0.59940666332E+02  0.60404395902E+02  0.74470750000E+01 0. -1.
<mgrwt>
<rscale>  0 0.14942427E+02</rscale>
<asrwt>0</asrwt>
<pdfrwt beam="1">  1        2 0.98492802E+00 0.14942427E+02</pdfrwt>
<pdfrwt beam="2">  1       -2 0.99917636E+00 0.14942427E+02</pdfrwt>
<totfact>-0.95390693E-14</totfact>
</mgrwt>
</event>
<event>
 4    1  0.5109406E-019  0.1491192E+02  0.7818608E-02  0.1870768E+00
         -2   -1    0    0    0  501 -0.00000000000E+00  0.00000000000E+00  0.11883182159E+03  0.11883182161E+03  0.25500000000E-02 0. -1.
          2   -1    0    0  501    0  0.00000000000E+00 -0.00000000000E+00 -0.46781199672E+00  0.46781894657E+00  0.25500000000E-02 0.  1.
         31    1    1    2    0    0  0.57532732508E-01  0.34413188049E+00  0.58354251769E+02  0.58828559071E+02  0.74470750000E+01 0.  1.
        -31    1    1    2    0    0 -0.57532732508E-01 -0.34413188049E+00  0.60009757820E+02  0.60471081489E+02  0.74470750000E+01 0.  1.
<mgrwt>
<rscale>  0 0.14911924E+02</rscale>
<asrwt>0</asrwt>
<pdfrwt beam="2">  1        2 0.99356294E+00 0.14911924E+02</pdfrwt>
<pdfrwt beam="1">  1       -2 0.98645290E+00 0.14911924E+02</pdfrwt>
<totfact> 0.34478081E-13</totfact>
</mgrwt>
</event>
<event>
 4    1 -0.5109406E-019  0.1503604E+02  0.7818608E-02  0.1866971E+00
          2   -1    0    0  501    0  0.00000000000E+00  0.00000000000E+00  0.12016724521E+03  0.12016724523E+03  0.25500000000E-02 0.  1.
         -2   -1    0    0    0  501 -0.00000000000E+00 -0.00000000000E+00 -0.47034610859E+00  0.47035302100E+00  0.25500000000E-02 0. -1.
         31    1    1    2    0    0 -0.40219494330E+00 -0.77993716063E+00  0.55515712587E+02  0.56019847669E+02  0.74470750000E+01 0.  1.
        -31    1    1    2    0    0  0.40219494330E+00  0.77993716063E+00  0.64181186510E+02  0.64617750585E+02  0.74470750000E+01 0. -1.
<mgrwt>
<rscale>  0 0.15036039E+02</rscale>
<asrwt>0</asrwt>
<pdfrwt beam="1">  1        2 0.99751607E+00 0.15036039E+02</pdfrwt>
<pdfrwt beam="2">  1       -2 0.99896748E+00 0.15036039E+02</pdfrwt>
<totfact>-0.25835758E-14</totfact>
</mgrwt>
</event>
<event>
 4    1 -0.5109406E-019  0.1494724E+02  0.7818608E-02  0.1869683E+00
         -2   -1    0    0    0  501 -0.00000000000E+00  0.00000000000E+00  0.11992189422E+03  0.11992189424E+03  0.25500000000E-02 0. -1.
          2   -1    0    0  501    0  0.00000000000E+00 -0.00000000000E+00 -0.46575810286E+00  0.46576508336E+00  0.25500000000E-02 0.  1.
         31    1    1    2    0    0 -0.27507537035E+00  0.32689202506E+00  0.63450148608E+02  0.63887109883E+02  0.74470750000E+01 0. -1.
        -31    1    1    2    0    0  0.27507537035E+00 -0.32689202506E+00  0.56005987505E+02  0.56500549443E+02  0.74470750000E+01 0.  1.
<mgrwt>
<rscale>  0 0.14947243E+02</rscale>
<asrwt>0</asrwt>
<pdfrwt beam="2">  1        2 0.98925298E+00 0.14947243E+02</pdfrwt>
<pdfrwt beam="1">  1       -2 0.99544940E+00 0.14947243E+02</pdfrwt>
<totfact>-0.18916775E-13</totfact>
</mgrwt>
</event>
<event>
 4    1 -0.5109406E-019  0.1494378E+02  0.7818608E-02  0.1869789E+00
          2   -1    0    0  501    0  0.00000000000E+00  0.00000000000E+00  0.11938910058E+03  0.11938910060E+03  0.25500000000E-02 0. -1.
         -2   -1    0    0    0  501 -0.00000000000E+00 -0.00000000000E+00 -0.46761979874E+00  0.46762675145E+00  0.25500000000E-02 0.  1.
         31    1    1    2    0    0 -0.33908741706E+00  0.49777324617E+00  0.60152596823E+02  0.60614821529E+02  0.74470750000E+01 0. -1.
        -31    1    1    2    0    0  0.33908741706E+00 -0.49777324617E+00  0.58768883954E+02  0.59241905825E+02  0.74470750000E+01 0. -1.
<mgrwt>
<rscale>  0 0.14943778E+02</rscale>
<asrwt>0</asrwt>
<pdfrwt beam="1">  1        2 0.99105928E+00 0.14943778E+02</pdfrwt>
<pdfrwt beam="2">  1       -2 0.99317452E+00 0.14943778E+02</pdfrwt>
<totfact>-0.14541249E-13</totfact>
</mgrwt>
</event>
<event>
 4    1 -0.5109406E-019  0.1500651E+02  0.7818608E-02  0.1867870E+00
         -2   -1    0    0    0  501 -0.00000000000E+00  0.00000000000E+00  0.12009305363E+03  0.12009305366E+03  0.25500000000E-02 0. -1.
          2   -1    0    0  501    0  0.00000000000E+00 -0.00000000000E+00 -0.46878967984E+00  0.46879661520E+00  0.25500000000E-02 0.  1.
         31    1    1    2    0    0 -0.24543673707E+00 -0.66305722251E+00  0.64496659370E+02  0.64929021862E+02  0.74470750000E+01 0. -1.
        -31    1    1    2    0    0  0.24543673707E+00  0.66305722251E+00  0.55127604581E+02  0.55632828411E+02  0.74470750000E+01 0.  1.
<mgrwt>
<rscale>  0 0.15006506E+02</rscale>
<asrwt>0</asrwt>
<pdfrwt beam="2">  1        2 0.99567229E+00 0.15006506E+02</pdfrwt>
<pdfrwt beam="1">  1       -2 0.99688973E+00 0.15006506E+02</pdfrwt>
<totfact>-0.90509901E-14</totfact>
</mgrwt>
</event>
<event>
 4    1 -0.5109406E-019  0.1490017E+02  0.7818608E-02  0.1871130E+00
          2   -1    0    0  501    0  0.00000000000E+00  0.00000000000E+00  0.11834041020E+03  0.11834041023E+03  0.25500000000E-02 0. -1.
         -2   -1    0    0    0  501 -0.00000000000E+00 -0.00000000000E+00 -0.46901464267E+00  0.46902157470E+00  0.25500000000E-02 0.  1.
         31    1    1    2    0    0 -0.21168305287E+00 -0.43507341095E-02  0.58988547890E+02  0.59457148745E+02  0.74470750000E+01 0. -1.
        -31    1    1    2    0    0  0.21168305287E+00  0.43507341095E-02  0.58882847667E+02  0.59352283057E+02  0.74470750000E+01 0.  1.
<mgrwt>
<rscale>  0 0.14900174E+02</rscale>
<asrwt>0</asrwt>
<pdfrwt beam="1">  1        2 0.98239951E+00 0.14900174E+02</pdfrwt>
<pdfrwt beam="2">  1       -2 0.99609084E+00 0.14900174E+02</pdfrwt>
<totfact>-0.49793099E-13</totfact>
</mgrwt>
</event>
<event>
 4    1 -0.5109406E-019  0.1492346E+02  0.7818608E-02  0.1870413E+00
         -2   -1    0    0    0  501 -0.00000000000E+00  0.00000000000E+00  0.12019092861E+03  0.12019092863E+03  0.25500000000E-02 0. -1.
          2   -1    0    0  501    0  0.00000000000E+00 -0.00000000000E+00 -0.46323781649E+00  0.46324483497E+00  0.25500000000E-02 0.  1.
         31    1    1    2    0    0  0.28350677077E+00 -0.65483862398E-01  0.56906307946E+02  0.57392259707E+02  0.74470750000E+01 0.  1.
        -31    1    1    2    0    0 -0.28350677077E+00  0.65483862398E-01  0.62821382844E+02  0.63261913761E+02  0.74470750000E+01 0. -1.
<mgrwt>
<rscale>  0 0.14923459E+02</rscale>
<asrwt>0</asrwt>
<pdfrwt beam="2">  1        2 0.98392913E+00 0.14923459E+02</pdfrwt>
<pdfrwt beam="1">  1       -2 0.99765312E+00 0.14923459E+02</pdfrwt>
<totfact>-0.27888246E-13</totfact>
</mgrwt>
</event>
<event>
 4    1 -0.5109406E-019  0.1492179E+02  0.7818608E-02  0.1870464E+00
          2   -1    0    0  501    0  0.00000000000E+00  0.00000000000E+00  0.11870285712E+03  0.11870285715E+03  0.25500000000E-02 0. -1.
         -2   -1    0    0    0  501 -0.00000000000E+00 -0.00000000000E+00 -0.46894025157E+00  0.46894718470E+00  0.25500000000E-02 0.  1.
         31    1    1    2    0    0 -0.14090835348E+00  0.71416389498E-01  0.55718445782E+02  0.56214135961E+02  0.74470750000E+01 0.  1.
        -31    1    1    2    0    0  0.14090835348E+00 -0.71416389498E-01  0.62515471087E+02  0.62957668371E+02  0.74470750000E+01 0. -1.
<mgrwt>
<rscale>  0 0.14921791E+02</rscale>
<asrwt>0</asrwt>
<pdfrwt beam="1">  1        2 0.98539586E+00 0.14921791E+02</pdfrwt>
<pdfrwt beam="2">  1       -2 0.99594547E+00 0.14921791E+02</pdfrwt>
<totfact>-0.30744732E-13</totfact>
</mgrwt>
</event>
<event>
 4    1 -0.5109406E-019  0.1502619E+02  0.7818608E-02  0.1867270E+00
         -2   -1    0    0    0  501 -0.00000000000E+00  0.00000000000E+00  0.12028663320E+03  0.12028663323E+03  0.25500000000E-02 0. -1.
          2   -1    0    0  501    0  0.00000000000E+00 -0.00000000000E+00 -0.46926391446E+00  0.46927084281E+00  0.25500000000E-02 0.  1.
         31    1    1    2    0    0  0.47561990041E+00 -0.80782436868E+00  0.62560388860E+02  0.63009046770E+02  0.74470750000E+01 0.  1.
        -31    1    1    2    0    0 -0.47561990041E+00  0.80782436868E+00  0.57256980430E+02  0.57746857304E+02  0.74470750000E+01 0.  1.
<mgrwt>
<rscale>  0 0.15026190E+02</rscale>
<asrwt>0</asrwt>
<pdfrwt beam="2">  1        2 0.99668183E+00 0.15026190E+02</pdfrwt>
<pdfrwt beam="1">  1       -2 0.99849430E+00 0.15026190E+02</pdfrwt>
<totfact>-0.44123976E-14</totfact>
</mgrwt>
</event>
<event>
 4    1  0.5109406E-019  0.1491594E+02  0.7818608E-02  0.1870645E+00
          2   -1    0    0  501    0  0.00000000000E+00  0.00000000000E+00  0.12029781005E+03  0.12029781008E+03  0.25500000000E-02 0.  1.
         -2   -1    0    0    0  501 -0.00000000000E+00 -0.00000000000E+00 -0.46235970355E+00  0.46236673536E+00  0.25500000000E-02 0. -1.
         31    1    1    2    0    0  0.16447693687E+00  0.50641846233E-01  0.56968020472E+02  0.57452971201E+02  0.74470750000E+01 0. -1.
        -31    1    1    2    0    0 -0.16447693687E+00 -0.50641846233E-01  0.62867429874E+02  0.63307205611E+02  0.74470750000E+01 0.  1.
<mgrwt>
<rscale>  0 0.14915936E+02</rscale>
<asrwt>0</asrwt>
<pdfrwt beam="1">  1        2 0.99852963E+00 0.14915936E+02</pdfrwt>
<pdfrwt beam="2">  1       -2 0.98207452E+00 0.14915936E+02</pdfrwt>
<totfact> 0.41403467E-13</totfact>
</mgrwt>
</event>
<event>
 4    1 -0.5109406E-019  0.1498683E+02  0.7818608E-02  0.1868471E+00
          2   -1    0    0  501    0  0.00000000000E+00  0.00000000000E+00  0.11986438227E+03  0.11986438229E+03  0.25500000000E-02 0. -1.
         -2   -1    0    0    0  501 -0.00000000000E+00 -0.00000000000E+00 -0.46845319028E+00  0.46846013063E+00  0.25500000000E-02 0.  1.
         31    1    1    2    0    0  0.34179272301E+00  0.39130997246E-01  0.53614832072E+02  0.54130652108E+02  0.74470750000E+01 0.  1.
        -31    1    1    2    0    0 -0.34179272301E+00 -0.39130997246E-01  0.65781097003E+02  0.66202190315E+02  0.74470750000E+01 0. -1.
<mgrwt>
<rscale>  0 0.14986830E+02</rscale>
<asrwt>0</asrwt>
<pdfrwt beam="1">  1        2 0.99499613E+00 0.14986830E+02</pdfrwt>
<pdfrwt beam="2">  1       -2 0.99495302E+00 0.14986830E+02</pdfrwt>
<totfact>-0.11942523E-13</totfact>
</mgrwt>
</event>
<event>
 4    1 -0.5109406E-019  0.1498339E+02  0.7818608E-02  0.1868576E+00
          2   -1    0    0  501    0  0.00000000000E+00  0.00000000000E+00  0.11991598358E+03  0.11991598361E+03  0.25500000000E-02 0. -1.
         -2   -1    0    0    0  501 -0.00000000000E+00 -0.00000000000E+00 -0.46803653131E+00  0.46804347783E+00  0.25500000000E-02 0.  1.
         31    1    1    2    0    0  0.63552393539E+00 -0.40212989156E+00  0.62276815939E+02  0.62725005609E+02  0.74470750000E+01 0.  1.
        -31    1    1    2    0    0 -0.63552393539E+00  0.40212989156E+00  0.57171131113E+02  0.57659021479E+02  0.74470750000E+01 0.  1.
<mgrwt>
<rscale>  0 0.14983388E+02</rscale>
<asrwt>0</asrwt>
<pdfrwt beam="1">  1        2 0.99541936E+00 0.14983388E+02</pdfrwt>
<pdfrwt beam="2">  1       -2 0.99407320E+00 0.14983388E+02</pdfrwt>
<totfact>-0.11195463E-13</totfact>
</mgrwt>
</event>
<event>
 4    1  0.5109406E-019  0.1491135E+02  0.7818608E-02  0.1870786E+00
          2   -1    0    0  501    0  0.00000000000E+00  0.00000000000E+00  0.11994422579E+03  0.11994422582E+03  0.25500000000E-02 0. -1.
         -2   -1    0    0    0  501 -0.00000000000E+00 -0.00000000000E+00 -0.46343758532E+00  0.46344460078E+00  0.25500000000E-02 0.  1.
         31    1    1    2    0    0  0.28980296123E+00  0.20117171894E+00  0.59248919006E+02  0.59716143423E+02  0.74470750000E+01 0. -1.
        -31    1    1    2    0    0 -0.28980296123E+00 -0.20117171894E+00  0.60231869201E+02  0.60691526998E+02  0.74470750000E+01 0. -1.
<mgrwt>
<rscale>  0 0.14911350E+02</rscale>
<asrwt>0</asrwt>
<pdfrwt beam="1">  1        2 0.99561486E+00 0.14911350E+02</pdfrwt>
<pdfrwt beam="2">  1       -2 0.98434404E+00 0.14911350E+02</pdfrwt>
<totfact> 0.53947823E-13</totfact>
</mgrwt>
</event>
<event>
 4    1  0.5109406E-019  0.1492072E+02  0.7818608E-02  0.1870497E+00
          2   -1    0    0  501    0  0.00000000000E+00  0.00000000000E+00  0.11977424262E+03  0.11977424264E+03  0.25500000000E-02 0.  1.
         -2   -1    0    0    0  501 -0.00000000000E+00 -0.00000000000E+00 -0.46467883786E+00  0.46468583458E+00  0.25500000000E-02 0. -1.
         31    1    1    2    0    0 -0.16564701537E+00 -0.12236847721E+00  0.62833958449E+02  0.63274067937E+02  0.74470750000E+01 0.  1.
        -31    1    1    2    0    0  0.16564701537E+00  0.12236847721E+00  0.56475605329E+02  0.56964860540E+02  0.74470750000E+01 0. -1.
<mgrwt>
<rscale>  0 0.14920721E+02</rscale>
<asrwt>0</asrwt>
<pdfrwt beam="1">  1        2 0.99421959E+00 0.14920721E+02</pdfrwt>
<pdfrwt beam="2">  1       -2 0.98696484E+00 0.14920721E+02</pdfrwt>
<totfact> 0.26813032E-13</totfact>
</mgrwt>
</event>
<event>
 4    1 -0.5109406E-019  0.1493973E+02  0.7818608E-02  0.1869913E+00
          2   -1    0    0  501    0  0.00000000000E+00  0.00000000000E+00  0.11935279067E+03  0.11935279069E+03  0.25500000000E-02 0. -1.
         -2   -1    0    0    0  501 -0.00000000000E+00 -0.00000000000E+00 -0.46750879779E+00  0.46751575215E+00  0.25500000000E-02 0.  1.
         31    1    1    2    0    0  0.40469001211E-01  0.12499075274E-01  0.64106659239E+02  0.64537775595E+02  0.74470750000E+01 0. -1.
        -31    1    1    2    0    0 -0.40469001211E-01 -0.12499075274E-01  0.54778622630E+02  0.55282530851E+02  0.74470750000E+01 0.  1.
<mgrwt>
<rscale>  0 0.14939732E+02</rscale>
<asrwt>0</asrwt>
<pdfrwt beam="1">  1        2 0.99075813E+00 0.14939732E+02</pdfrwt>
<pdfrwt beam="2">  1       -2 0.99293851E+00 0.14939732E+02</pdfrwt>
<totfact>-0.14309316E-13</totfact>
</mgrwt>
</event>
<event>
 4    1 -0.5109406E-019  0.1490579E+02  0.7818608E-02  0.1870957E+00
          2   -1    0    0  501    0  0.00000000000E+00  0.00000000000E+00  0.11831390487E+03  0.11831390490E+03  0.25500000000E-02 0. -1.
         -2   -1    0    0    0  501 -0.00000000000E+00 -0.00000000000E+00 -0.46947366284E+00  0.46948058810E+00  0.25500000000E-02 0.  1.
         31    1    1    2    0    0  0.10451275086E+00  0.15710424427E+00  0.60724403484E+02  0.61179634759E+02  0.74470750000E+01 0. -1.
        -31    1    1    2    0    0 -0.10451275086E+00 -0.15710424427E+00  0.57120027721E+02  0.57603750725E+02  0.74470750000E+01 0.  1.
<mgrwt>
<rscale>  0 0.14905794E+02</rscale>
<asrwt>0</asrwt>
<pdfrwt beam="1">  1        2 0.98218414E+00 0.14905794E+02</pdfrwt>
<pdfrwt beam="2">  1       -2 0.99706095E+00 0.14905794E+02</pdfrwt>
<totfact>-0.43928041E-13</totfact>
</mgrwt>
</event>
<event>
 4    1  0.5109406E-019  0.1491894E+02  0.7818608E-02  0.1870552E+00
          2   -1    0    0  501    0  0.00000000000E+00  0.00000000000E+00  0.12028188583E+03  0.12028188586E+03  0.25500000000E-02 0.  1.
         -2   -1    0    0    0  501 -0.00000000000E+00 -0.00000000000E+00 -0.46260722301E+00  0.46261425106E+00  0.25500000000E-02 0. -1.
         31    1    1    2    0    0  0.33603448351E+00  0.22798459613E+00  0.61050572209E+02  0.61504440403E+02  0.74470750000E+01 0.  1.
        -31    1    1    2    0    0 -0.33603448351E+00 -0.22798459613E+00  0.58768706402E+02  0.59240059709E+02  0.74470750000E+01 0. -1.
<mgrwt>
<rscale>  0 0.14918940E+02</rscale>
<asrwt>0</asrwt>
<pdfrwt beam="1">  1        2 0.99840001E+00 0.14918940E+02</pdfrwt>
<pdfrwt beam="2">  1       -2 0.98259774E+00 0.14918940E+02</pdfrwt>
<totfact> 0.39883597E-13</totfact>
</mgrwt>
</event>
<event>
 4    1  0.5109406E-019  0.1489907E+02  0.7818608E-02  0.1871164E+00
          2   -1    0    0  501    0  0.00000000000E+00  0.00000000000E+00  0.12008260164E+03  0.12008260166E+03  0.25500000000E-02 0.  1.
         -2   -1    0    0    0  501 -0.00000000000E+00 -0.00000000000E+00 -0.46214144662E+00  0.46214848175E+00  0.25500000000E-02 0. -1.
         31    1    1    2    0    0 -0.35123404741E-01 -0.30241806810E-01  0.61312991239E+02  0.61763613633E+02  0.74470750000E+01 0.  1.
        -31    1    1    2    0    0  0.35123404741E-01  0.30241806810E-01  0.58307468949E+02  0.58781136511E+02  0.74470750000E+01 0. -1.
<mgrwt>
<rscale>  0 0.14899070E+02</rscale>
<asrwt>0</asrwt>
<pdfrwt beam="1">  1        2 0.99674834E+00 0.14899070E+02</pdfrwt>
<pdfrwt beam="2">  1       -2 0.98160598E+00 0.14899070E+02</pdfrwt>
<totfact> 0.82539010E-13</totfact>
</mgrwt>
</event>
<event>
 4    1  0.5109406E-019  0.1490110E+02  0.7818608E-02  0.1871102E+00
          2   -1    0    0  501    0  0.00000000000E+00  0.00000000000E+00  0.12016523286E+03  0.12016523289E+03  0.25500000000E-02 0.  1.
         -2   -1    0    0    0  501 -0.00000000000E+00 -0.00000000000E+00 -0.46194936889E+00  0.46195640694E+00  0.25500000000E-02 0. -1.
         31    1    1    2    0    0  0.12615987698E+00 -0.81704685482E-01  0.58469245747E+02  0.58941786673E+02  0.74470750000E+01 0. -1.
        -31    1    1    2    0    0 -0.12615987698E+00  0.81704685482E-01  0.61234037748E+02  0.61685402625E+02  0.74470750000E+01 0.  1.
<mgrwt>
<rscale>  0 0.14901098E+02</rscale>
<asrwt>0</asrwt>
<pdfrwt beam="1">  1        2 0.99743000E+00 0.14901098E+02</pdfrwt>
<pdfrwt beam="2">  1       -2 0.98120215E+00 0.14901098E+02</pdfrwt>
<totfact> 0.75817936E-13</totfact>
</mgrwt>
</event>
<event>
 4    1  0.5109406E-019  0.1494310E+02  0.7818608E-02  0.1869810E+00
         -2   -1    0    0    0  501 -0.00000000000E+00  0.00000000000E+00  0.11895838953E+03  0.11895838955E+03  0.25500000000E-02 0.  1.
          2   -1    0    0  501    0  0.00000000000E+00 -0.00000000000E+00 -0.46927037628E+00  0.46927730454E+00  0.25500000000E-02 0. -1.
         31    1    1    2    0    0 -0.52115897565E+00  0.28544617498E+00  0.60121926591E+02  0.60584305470E+02  0.74470750000E+01 0. -1.
        -31    1    1    2    0    0  0.52115897565E+00 -0.28544617498E+00  0.58367192558E+02  0.58843361387E+02  0.74470750000E+01 0.  1.
<mgrwt>
<rscale>  0 0.14943101E+02</rscale>
<asrwt>0</asrwt>
<pdfrwt beam="2">  1        2 0.99665226E+00 0.14943101E+02</pdfrwt>
<pdfrwt beam="1">  1       -2 0.98751151E+00 0.14943101E+02</pdfrwt>
<totfact> 0.15508343E-13</totfact>
</mgrwt>
</event>
<event>
 4    1 -0.5109406E-019  0.1489748E+02  0.7818608E-02  0.1871213E+00
         -2   -1    0    0    0  501 -0.00000000000E+00  0.00000000000E+00  0.11944887638E+03  0.11944887641E+03  0.25500000000E-02 0. -1.
          2   -1    0    0  501    0  0.00000000000E+00 -0.00000000000E+00 -0.46449393819E+00  0.46450093769E+00  0.25500000000E-02 0.  1.
         31    1    1    2    0    0 -0.14653458644E+00  0.52699915759E-01  0.59307833918E+02  0.59773759625E+02  0.74470750000E+01 0. -1.
        -31    1    1    2    0    0  0.14653458644E+00 -0.52699915759E-01  0.59676548523E+02  0.60139617719E+02  0.74470750000E+01 0. -1.
<mgrwt>
<rscale>  0 0.14897476E+02</rscale>
<asrwt>0</asrwt>
<pdfrwt beam="2">  1        2 0.98656326E+00 0.14897476E+02</pdfrwt>
<pdfrwt beam="1">  1       -2 0.99152770E+00 0.14897476E+02</pdfrwt>
<totfact>-0.14366480E-13</totfact>
</mgrwt>
</event>
<event>
 4    1 -0.5109406E-019  0.1501295E+02  0.7818608E-02  0.1867674E+00
          2   -1    0    0  501    0  0.00000000000E+00  0.00000000000E+00  0.12002391487E+03  0.12002391490E+03  0.25500000000E-02 0.  1.
         -2   -1    0    0    0  501 -0.00000000000E+00 -0.00000000000E+00 -0.46946244145E+00  0.46946936687E+00  0.25500000000E-02 0. -1.
         31    1    1    2    0    0 -0.98519026049E-01 -0.90122485010E+00  0.61843825577E+02  0.62297187739E+02  0.74470750000E+01 0. -1.
        -31    1    1    2    0    0  0.98519026049E-01  0.90122485010E+00  0.57710626853E+02  0.58196196525E+02  0.74470750000E+01 0. -1.
<mgrwt>
<rscale>  0 0.15012946E+02</rscale>
<asrwt>0</asrwt>
<pdfrwt beam="1">  1        2 0.99632361E+00 0.15012946E+02</pdfrwt>
<pdfrwt beam="2">  1       -2 0.99709336E+00 0.15012946E+02</pdfrwt>
<totfact>-0.78754588E-14</totfact>
</mgrwt>
</event>
<event>
 4    1 -0.5109406E-019  0.1501568E+02  0.7818608E-02  0.1867590E+00
         -2   -1    0    0    0  501 -0.00000000000E+00  0.00000000000E+00  0.12004980004E+03  0.12004980007E+03  0.25500000000E-02 0.  1.
          2   -1    0    0  501    0  0.00000000000E+00 -0.00000000000E+00 -0.46953225942E+00  0.46953918381E+00  0.25500000000E-02 0. -1.
         31    1    1    2    0    0 -0.84479006425E+00  0.40699054165E+00  0.61167168147E+02  0.61625974205E+02  0.74470750000E+01 0.  1.
        -31    1    1    2    0    0  0.84479006425E+00 -0.40699054165E+00  0.58413099633E+02  0.58893365045E+02  0.74470750000E+01 0.  1.
<mgrwt>
<rscale>  0 0.15015682E+02</rscale>
<asrwt>0</asrwt>
<pdfrwt beam="2">  1        2 0.99724191E+00 0.15015682E+02</pdfrwt>
<pdfrwt beam="1">  1       -2 0.99653822E+00 0.15015682E+02</pdfrwt>
<totfact>-0.72609745E-14</totfact>
</mgrwt>
</event>
<event>
 4    1  0.5109406E-019  0.1490901E+02  0.7818608E-02  0.1870858E+00
         -2   -1    0    0    0  501 -0.00000000000E+00  0.00000000000E+00  0.11903071655E+03  0.11903071658E+03  0.25500000000E-02 0. -1.
          2   -1    0    0  501    0  0.00000000000E+00 -0.00000000000E+00 -0.46684755136E+00  0.46685451557E+00  0.25500000000E-02 0.  1.
         31    1    1    2    0    0  0.20572286957E+00 -0.72006080063E-01  0.57267226564E+02  0.57749819664E+02  0.74470750000E+01 0.  1.
        -31    1    1    2    0    0 -0.20572286957E+00  0.72006080063E-01  0.61296642436E+02  0.61747751431E+02  0.74470750000E+01 0. -1.
<mgrwt>
<rscale>  0 0.14909006E+02</rscale>
<asrwt>0</asrwt>
<pdfrwt beam="2">  1        2 0.99152913E+00 0.14909006E+02</pdfrwt>
<pdfrwt beam="1">  1       -2 0.98808953E+00 0.14909006E+02</pdfrwt>
<totfact> 0.18875909E-13</totfact>
</mgrwt>
</event>
<event>
 4    1 -0.5109406E-019  0.1493809E+02  0.7818608E-02  0.1869964E+00
         -2   -1    0    0    0  501 -0.00000000000E+00  0.00000000000E+00  0.11996292716E+03  0.11996292719E+03  0.25500000000E-02 0.  1.
          2   -1    0    0  501    0  0.00000000000E+00 -0.00000000000E+00 -0.46502849541E+00  0.46503548686E+00  0.25500000000E-02 0. -1.
         31    1    1    2    0    0  0.60491107479E-01 -0.54421852121E+00  0.58403735729E+02  0.58879156806E+02  0.74470750000E+01 0. -1.
        -31    1    1    2    0    0 -0.60491107479E-01  0.54421852121E+00  0.61094162936E+02  0.61548805869E+02  0.74470750000E+01 0.  1.
<mgrwt>
<rscale>  0 0.14938086E+02</rscale>
<asrwt>0</asrwt>
<pdfrwt beam="2">  1        2 0.98771063E+00 0.14938086E+02</pdfrwt>
<pdfrwt beam="1">  1       -2 0.99578265E+00 0.14938086E+02</pdfrwt>
<totfact>-0.22213761E-13</totfact>
</mgrwt>
</event>
<event>
 4    1 -0.5109406E-019  0.1492323E+02  0.7818608E-02  0.1870420E+00
          2   -1    0    0  501    0  0.00000000000E+00  0.00000000000E+00  0.11892110503E+03  0.11892110506E+03  0.25500000000E-02 0.  1.
         -2   -1    0    0    0  501 -0.00000000000E+00 -0.00000000000E+00 -0.46816993198E+00  0.46817687652E+00  0.25500000000E-02 0. -1.
         31    1    1    2    0    0  0.26213591504E+00  0.36044493587E+00  0.60303976847E+02  0.60763699570E+02  0.74470750000E+01 0. -1.
        -31    1    1    2    0    0 -0.26213591504E+00 -0.36044493587E+00  0.58148958250E+02  0.58625582363E+02  0.74470750000E+01 0. -1.
<mgrwt>
<rscale>  0 0.14923230E+02</rscale>
<asrwt>0</asrwt>
<pdfrwt beam="1">  1        2 0.98719412E+00 0.14923230E+02</pdfrwt>
<pdfrwt beam="2">  1       -2 0.99432307E+00 0.14923230E+02</pdfrwt>
<totfact>-0.24738482E-13</totfact>
</mgrwt>
</event>
<event>
 4    1  0.5109406E-019  0.1492898E+02  0.7818608E-02  0.1870244E+00
         -2   -1    0    0    0  501 -0.00000000000E+00  0.00000000000E+00  0.11843008790E+03  0.11843008793E+03  0.25500000000E-02 0.  1.
          2   -1    0    0  501    0  0.00000000000E+00 -0.00000000000E+00 -0.47047314157E+00  0.47048005212E+00  0.25500000000E-02 0. -1.
         31    1    1    2    0    0  0.41726992824E+00  0.19202503551E+00  0.60736933436E+02  0.61193504533E+02  0.74470750000E+01 0.  1.
        -31    1    1    2    0    0 -0.41726992824E+00 -0.19202503551E+00  0.57222681327E+02  0.57707063450E+02  0.74470750000E+01 0.  1.
<mgrwt>
<rscale>  0 0.14928977E+02</rscale>
<asrwt>0</asrwt>
<pdfrwt beam="2">  1        2 0.99917907E+00 0.14928977E+02</pdfrwt>
<pdfrwt beam="1">  1       -2 0.98315309E+00 0.14928977E+02</pdfrwt>
<totfact> 0.19776739E-13</totfact>
</mgrwt>
</event>
<event>
 4    1  0.5109406E-019  0.1491474E+02  0.7818608E-02  0.1870681E+00
         -2   -1    0    0    0  501 -0.00000000000E+00  0.00000000000E+00  0.11869674663E+03  0.11869674665E+03  0.25500000000E-02 0. -1.
          2   -1    0    0  501    0  0.00000000000E+00 -0.00000000000E+00 -0.46852134685E+00  0.46852828619E+00  0.25500000000E-02 0.  1.
         31    1    1    2    0    0 -0.29463360933E-01  0.16980779634E+00  0.56303510699E+02  0.56794136545E+02  0.74470750000E+01 0.  1.
        -31    1    1    2    0    0  0.29463360933E-01 -0.16980779634E+00  0.61924714581E+02  0.62371138396E+02  0.74470750000E+01 0. -1.
<mgrwt>
<rscale>  0 0.14914741E+02</rscale>
<asrwt>0</asrwt>
<pdfrwt beam="2">  1        2 0.99505911E+00 0.14914741E+02</pdfrwt>
<pdfrwt beam="1">  1       -2 0.98534187E+00 0.14914741E+02</pdfrwt>
<totfact> 0.43629885E-13</totfact>
</mgrwt>
</event>
<event>
 4    1 -0.5109406E-019  0.1503222E+02  0.7818608E-02  0.1867087E+00
          2   -1    0    0  501    0  0.00000000000E+00  0.00000000000E+00  0.12015146104E+03  0.12015146107E+03  0.25500000000E-02 0.  1.
         -2   -1    0    0    0  501 -0.00000000000E+00 -0.00000000000E+00 -0.47016872604E+00  0.47017564106E+00  0.25500000000E-02 0. -1.
         31    1    1    2    0    0  0.98726012722E+00 -0.23569586536E+00  0.60258898920E+02  0.60725810494E+02  0.74470750000E+01 0. -1.
        -31    1    1    2    0    0 -0.98726012722E+00  0.23569586536E+00  0.59422393395E+02  0.59895826215E+02  0.74470750000E+01 0. -1.
<mgrwt>
<rscale>  0 0.15032216E+02</rscale>
<asrwt>0</asrwt>
<pdfrwt beam="1">  1        2 0.99738409E+00 0.15032216E+02</pdfrwt>
<pdfrwt beam="2">  1       -2 0.99859170E+00 0.15032216E+02</pdfrwt>
<totfact>-0.35417628E-14</totfact>
</mgrwt>
</event>
<event>
 4    1 -0.5109406E-019  0.1495651E+02  0.7818608E-02  0.1869399E+00
          2   -1    0    0  501    0  0.00000000000E+00  0.00000000000E+00  0.11958315377E+03  0.11958315380E+03  0.25500000000E-02 0.  1.
         -2   -1    0    0    0  501 -0.00000000000E+00 -0.00000000000E+00 -0.46765676615E+00  0.46766371831E+00  0.25500000000E-02 0. -1.
         31    1    1    2    0    0 -0.17805371882E+00 -0.28914822955E+00  0.54808745635E+02  0.55313405553E+02  0.74470750000E+01 0. -1.
        -31    1    1    2    0    0  0.17805371882E+00  0.28914822955E+00  0.64306751372E+02  0.64737411965E+02  0.74470750000E+01 0. -1.
<mgrwt>
<rscale>  0 0.14956509E+02</rscale>
<asrwt>0</asrwt>
<pdfrwt beam="1">  1        2 0.99266415E+00 0.14956509E+02</pdfrwt>
<pdfrwt beam="2">  1       -2 0.99325901E+00 0.14956509E+02</pdfrwt>
<totfact>-0.13062475E-13</totfact>
</mgrwt>
</event>
<event>
 4    1  0.5109406E-019  0.1492474E+02  0.7818608E-02  0.1870374E+00
         -2   -1    0    0    0  501 -0.00000000000E+00  0.00000000000E+00  0.11880273883E+03  0.11880273886E+03  0.25500000000E-02 0.  1.
          2   -1    0    0  501    0  0.00000000000E+00 -0.00000000000E+00 -0.46873140797E+00  0.46873834419E+00  0.25500000000E-02 0. -1.
         31    1    1    2    0    0 -0.15754604657E+00 -0.15082822528E+00  0.55771833589E+02  0.56267254401E+02  0.74470750000E+01 0. -1.
        -31    1    1    2    0    0  0.15754604657E+00  0.15082822528E+00  0.62562173831E+02  0.63004222799E+02  0.74470750000E+01 0.  1.
<mgrwt>
<rscale>  0 0.14924743E+02</rscale>
<asrwt>0</asrwt>
<pdfrwt beam="2">  1        2 0.99550697E+00 0.14924743E+02</pdfrwt>
<pdfrwt beam="1">  1       -2 0.98622002E+00 0.14924743E+02</pdfrwt>
<totfact> 0.31254283E-13</totfact>
</mgrwt>
</event>
<event>
 4    1  0.5109406E-019  0.1494862E+02  0.7818608E-02  0.1869640E+00
          2   -1    0    0  501    0  0.00000000000E+00  0.00000000000E+00  0.12031132539E+03  0.12031132541E+03  0.25500000000E-02 0.  1.
         -2   -1    0    0    0  501 -0.00000000000E+00 -0.00000000000E+00 -0.46433627266E+00  0.46434327454E+00  0.25500000000E-02 0. -1.
         31    1    1    2    0    0 -0.63617092858E+00 -0.25902788716E-01  0.60182336250E+02  0.60644685727E+02  0.74470750000E+01 0. -1.
        -31    1    1    2    0    0  0.63617092858E+00  0.25902788716E-01  0.59664652864E+02  0.60130982961E+02  0.74470750000E+01 0. -1.
<mgrwt>
<rscale>  0 0.14948624E+02</rscale>
<asrwt>0</asrwt>
<pdfrwt beam="1">  1        2 0.99865773E+00 0.14948624E+02</pdfrwt>
<pdfrwt beam="2">  1       -2 0.98625707E+00 0.14948624E+02</pdfrwt>
<totfact> 0.12946329E-13</totfact>
</mgrwt>
</event>
<event>
 4    1 -0.5109406E-019  0.1503592E+02  0.7818608E-02  0.1866974E+00
         -2   -1    0    0    0  501 -0.00000000000E+00  0.00000000000E+00  0.12034604927E+03  0.12034604930E+03  0.25500000000E-02 0.  1.
          2   -1    0    0  501    0  0.00000000000E+00 -0.00000000000E+00 -0.46963980157E+00  0.46964672438E+00  0.25500000000E-02 0. -1.
         31    1    1    2    0    0 -0.96548754398E+00  0.28738918433E+00  0.61662106746E+02  0.62118347476E+02  0.74470750000E+01 0. -1.
        -31    1    1    2    0    0  0.96548754398E+00 -0.28738918433E+00  0.58214302721E+02  0.58697348544E+02  0.74470750000E+01 0.  1.
<mgrwt>
<rscale>  0 0.15035919E+02</rscale>
<asrwt>0</asrwt>
<pdfrwt beam="2">  1        2 0.99747899E+00 0.15035919E+02</pdfrwt>
<pdfrwt beam="1">  1       -2 0.99898871E+00 0.15035919E+02</pdfrwt>
<totfact>-0.25623330E-14</totfact>
</mgrwt>
</event>
<event>
 4    1  0.5109406E-019  0.1490431E+02  0.7818608E-02  0.1871003E+00
          2   -1    0    0  501    0  0.00000000000E+00  0.00000000000E+00  0.12017541826E+03  0.12017541829E+03  0.25500000000E-02 0.  1.
         -2   -1    0    0    0  501 -0.00000000000E+00 -0.00000000000E+00 -0.46210946213E+00  0.46211649775E+00  0.25500000000E-02 0. -1.
         31    1    1    2    0    0 -0.22185915122E+00  0.14929170473E+00  0.59332822154E+02  0.59798948321E+02  0.74470750000E+01 0.  1.
        -31    1    1    2    0    0  0.22185915122E+00 -0.14929170473E+00  0.60380486644E+02  0.60838586464E+02  0.74470750000E+01 0. -1.
<mgrwt>
<rscale>  0 0.14904311E+02</rscale>
<asrwt>0</asrwt>
<pdfrwt beam="1">  1        2 0.99751554E+00 0.14904311E+02</pdfrwt>
<pdfrwt beam="2">  1       -2 0.98154121E+00 0.14904311E+02</pdfrwt>
<totfact> 0.69414750E-13</totfact>
</mgrwt>
</event>
<event>
 4    1 -0.5109406E-019  0.1495042E+02  0.7818608E-02  0.1869585E+00
          2   -1    0    0  501    0  0.00000000000E+00  0.00000000000E+00  0.11973188051E+03  0.11973188054E+03  0.25500000000E-02 0. -1.
         -2   -1    0    0    0  501 -0.00000000000E+00 -0.00000000000E+00 -0.46669558610E+00  0.46670255259E+00  0.25500000000E-02 0.  1.
         31    1    1    2    0    0 -0.19487186542E-02  0.50861726653E+00  0.62859945087E+02  0.63301582269E+02  0.74470750000E+01 0. -1.
        -31    1    1    2    0    0  0.19487186542E-02 -0.50861726653E+00  0.56405239839E+02  0.56897000823E+02  0.74470750000E+01 0.  1.
<mgrwt>
<rscale>  0 0.14950419E+02</rscale>
<asrwt>0</asrwt>
<pdfrwt beam="1">  1        2 0.99388598E+00 0.14950419E+02</pdfrwt>
<pdfrwt beam="2">  1       -2 0.99123031E+00 0.14950419E+02</pdfrwt>
<totfact>-0.56821798E-14</totfact>
</mgrwt>
</event>
<event>
 4    1  0.5109406E-019  0.1493334E+02  0.7818608E-02  0.1870109E+00
          2   -1    0    0  501    0  0.00000000000E+00  0.00000000000E+00  0.12013894539E+03  0.12013894542E+03  0.25500000000E-02 0.  1.
         -2   -1    0    0    0  501 -0.00000000000E+00 -0.00000000000E+00 -0.46405238319E+00  0.46405938935E+00  0.25500000000E-02 0. -1.
         31    1    1    2    0    0 -0.52513625831E+00 -0.25028032454E-01  0.58820132155E+02  0.59292016893E+02  0.74470750000E+01 0.  1.
        -31    1    1    2    0    0  0.52513625831E+00  0.25028032454E-01  0.60854760854E+02  0.61310987915E+02  0.74470750000E+01 0.  1.
<mgrwt>
<rscale>  0 0.14933344E+02</rscale>
<asrwt>0</asrwt>
<pdfrwt beam="1">  1        2 0.99723003E+00 0.14933344E+02</pdfrwt>
<pdfrwt beam="2">  1       -2 0.98565097E+00 0.14933344E+02</pdfrwt>
<totfact> 0.27913653E-13</totfact>
</mgrwt>
</event>
<event>
 4    1  0.5109406E-019  0.1490934E+02  0.7818608E-02  0.1870848E+00
         -2   -1    0    0    0  501 -0.00000000000E+00  0.00000000000E+00  0.11833051314E+03  0.11833051317E+03  0.25500000000E-02 0.  1.
          2   -1    0    0  501    0  0.00000000000E+00 -0.00000000000E+00 -0.46963143319E+00  0.46963835612E+00  0.25500000000E-02 0. -1.
         31    1    1    2    0    0  0.20914372542E+00 -0.20370647436E+00  0.60263242731E+02  0.60722340105E+02  0.74470750000E+01 0.  1.
        -31    1    1    2    0    0 -0.20914372542E+00  0.20370647436E+00  0.57597638976E+02  0.58077811418E+02  0.74470750000E+01 0. -1.
<mgrwt>
<rscale>  0 0.14909345E+02</rscale>
<asrwt>0</asrwt>
<pdfrwt beam="2">  1        2 0.99739525E+00 0.14909345E+02</pdfrwt>
<pdfrwt beam="1">  1       -2 0.98232277E+00 0.14909345E+02</pdfrwt>
<totfact> 0.61533195E-13</totfact>
</mgrwt>
</event>
<event>
 4    1 -0.5109406E-019  0.1496245E+02  0.7818608E-02  0.1869217E+00
          2   -1    0    0  501    0  0.00000000000E+00  0.00000000000E+00  0.11954579148E+03  0.11954579151E+03  0.25500000000E-02 0.  1.
         -2   -1    0    0    0  501 -0.00000000000E+00 -0.00000000000E+00 -0.46817439148E+00  0.46818133596E+00  0.25500000000E-02 0. -1.
         31    1    1    2    0    0 -0.67088791847E+00  0.23265569936E+00  0.58941191886E+02  0.59414032402E+02  0.74470750000E+01 0. -1.
        -31    1    1    2    0    0  0.67088791847E+00 -0.23265569936E+00  0.60136425204E+02  0.60599940443E+02  0.74470750000E+01 0.  1.
<mgrwt>
<rscale>  0 0.14962446E+02</rscale>
<asrwt>0</asrwt>
<pdfrwt beam="1">  1        2 0.99235950E+00 0.14962446E+02</pdfrwt>
<pdfrwt beam="2">  1       -2 0.99435288E+00 0.14962446E+02</pdfrwt>
<totfact>-0.14686422E-13</totfact>
</mgrwt>
</event>
<event>
 4    1  0.5109406E-019  0.1492425E+02  0.7818608E-02  0.1870389E+00
          2   -1    0    0  501    0  0.00000000000E+00  0.00000000000E+00  0.11994857464E+03  0.11994857466E+03  0.25500000000E-02 0.  1.
         -2   -1    0    0    0  501 -0.00000000000E+00 -0.00000000000E+00 -0.46422293618E+00  0.46422993976E+00  0.25500000000E-02 0. -1.
         31    1    1    2    0    0  0.40999178055E+00  0.20918738675E+00  0.58839246386E+02  0.59310434950E+02  0.74470750000E+01 0. -1.
        -31    1    1    2    0    0 -0.40999178055E+00 -0.20918738675E+00  0.60645105314E+02  0.61102369653E+02  0.74470750000E+01 0.  1.
<mgrwt>
<rscale>  0 0.14924249E+02</rscale>
<asrwt>0</asrwt>
<pdfrwt beam="1">  1        2 0.99565732E+00 0.14924249E+02</pdfrwt>
<pdfrwt beam="2">  1       -2 0.98600581E+00 0.14924249E+02</pdfrwt>
<totfact> 0.33005775E-13</totfact>
</mgrwt>
</event>
<event>
 4    1  0.5109406E-019  0.1490759E+02  0.7818608E-02  0.1870902E+00
         -2   -1    0    0    0  501 -0.00000000000E+00  0.00000000000E+00  0.11812878805E+03  0.11812878808E+03  0.25500000000E-02 0. -1.
          2   -1    0    0  501    0  0.00000000000E+00 -0.00000000000E+00 -0.47032261545E+00  0.47032952820E+00  0.25500000000E-02 0.  1.
         31    1    1    2    0    0  0.21403574920E+00 -0.23289293783E+00  0.58760044867E+02  0.59230919706E+02  0.74470750000E+01 0. -1.
        -31    1    1    2    0    0 -0.21403574920E+00  0.23289293783E+00  0.58898420569E+02  0.59368197900E+02  0.74470750000E+01 0.  1.
<mgrwt>
<rscale>  0 0.14907589E+02</rscale>
<asrwt>0</asrwt>
<pdfrwt beam="2">  1        2 0.99885058E+00 0.14907589E+02</pdfrwt>
<pdfrwt beam="1">  1       -2 0.98066048E+00 0.14907589E+02</pdfrwt>
<totfact> 0.43769929E-13</totfact>
</mgrwt>
</event>
<event>
 4    1  0.5109406E-019  0.1489747E+02  0.7818608E-02  0.1871213E+00
         -2   -1    0    0    0  501 -0.00000000000E+00  0.00000000000E+00  0.11827890884E+03  0.11827890887E+03  0.25500000000E-02 0. -1.
          2   -1    0    0  501    0  0.00000000000E+00 -0.00000000000E+00 -0.46908845769E+00  0.46909538863E+00  0.25500000000E-02 0.  1.
         31    1    1    2    0    0 -0.63105987768E-01 -0.63537098150E-01  0.57873635340E+02  0.58350874996E+02  0.74470750000E+01 0.  1.
        -31    1    1    2    0    0  0.63105987768E-01  0.63537098150E-01  0.59936185045E+02  0.60397129262E+02  0.74470750000E+01 0. -1.
<mgrwt>
<rscale>  0 0.14897474E+02</rscale>
<asrwt>0</asrwt>
<pdfrwt beam="2">  1        2 0.99624494E+00 0.14897474E+02</pdfrwt>
<pdfrwt beam="1">  1       -2 0.98189158E+00 0.14897474E+02</pdfrwt>
<totfact> 0.85454197E-13</totfact>
</mgrwt>
</event>
<event>
 4    1 -0.5109406E-019  0.1490026E+02  0.7818608E-02  0.1871127E+00
         -2   -1    0    0    0  501 -0.00000000000E+00  0.00000000000E+00  0.12023261737E+03  0.12023261740E+03  0.25500000000E-02 0.  1.
          2   -1    0    0  501    0  0.00000000000E+00 -0.00000000000E+00 -0.46163864381E+00  0.46164568660E+00  0.25500000000E-02 0. -1.
         31    1    1    2    0    0 -0.44669541084E-01 -0.58629302138E-01  0.58263634008E+02  0.58737683021E+02  0.74470750000E+01 0. -1.
        -31    1    1    2    0    0  0.44669541084E-01  0.58629302138E-01  0.61507344720E+02  0.61956580065E+02  0.74470750000E+01 0.  1.
<mgrwt>
<rscale>  0 0.14900262E+02</rscale>
<asrwt>0</asrwt>
<pdfrwt beam="2">  1        2 0.98054680E+00 0.14900262E+02</pdfrwt>
<pdfrwt beam="1">  1       -2 0.99798461E+00 0.14900262E+02</pdfrwt>
<totfact>-0.43733883E-13</totfact>
</mgrwt>
</event>
<event>
 4    1  0.5109406E-019  0.1495210E+02  0.7818608E-02  0.1869534E+00
          2   -1    0    0  501    0  0.00000000000E+00  0.00000000000E+00  0.12001703527E+03  0.12001703530E+03  0.25500000000E-02 0. -1.
         -2   -1    0    0    0  501 -0.00000000000E+00 -0.00000000000E+00 -0.46569140267E+00  0.46569838417E+00  0.25500000000E-02 0.  1.
         31    1    1    2    0    0 -0.43500043485E+00  0.95074216788E-01  0.55876664275E+02  0.56372500398E+02  0.74470750000E+01 0.  1.
        -31    1    1    2    0    0  0.43500043485E+00 -0.95074216788E-01  0.63674679592E+02  0.64110233284E+02  0.74470750000E+01 0. -1.
<mgrwt>
<rscale>  0 0.14952100E+02</rscale>
<asrwt>0</asrwt>
<pdfrwt beam="1">  1        2 0.99623554E+00 0.14952100E+02</pdfrwt>
<pdfrwt beam="2">  1       -2 0.98911489E+00 0.14952100E+02</pdfrwt>
<totfact> 0.54938891E-14</totfact>
</mgrwt>
</event>
<event>
 4    1 -0.5109406E-019  0.1497512E+02  0.7818608E-02  0.1868829E+00
          2   -1    0    0  501    0  0.00000000000E+00  0.00000000000E+00  0.11972999671E+03  0.11972999674E+03  0.25500000000E-02 0. -1.
         -2   -1    0    0    0  501 -0.00000000000E+00 -0.00000000000E+00 -0.46824660576E+00  0.46825354916E+00  0.25500000000E-02 0.  1.
         31    1    1    2    0    0  0.32566013230E-01 -0.28655230531E+00  0.65427143550E+02  0.65850233196E+02  0.74470750000E+01 0. -1.
        -31    1    1    2    0    0 -0.32566013230E-01  0.28655230531E+00  0.53834606554E+02  0.54348017090E+02  0.74470750000E+01 0.  1.
<mgrwt>
<rscale>  0 0.14975124E+02</rscale>
<asrwt>0</asrwt>
<pdfrwt beam="1">  1        2 0.99388323E+00 0.14975124E+02</pdfrwt>
<pdfrwt beam="2">  1       -2 0.99451163E+00 0.14975124E+02</pdfrwt>
<totfact>-0.13186125E-13</totfact>
</mgrwt>
</event>
<event>
 4    1 -0.5109406E-019  0.1489856E+02  0.7818608E-02  0.1871180E+00
         -2   -1    0    0    0  501 -0.00000000000E+00  0.00000000000E+00  0.11941219192E+03  0.11941219195E+03  0.25500000000E-02 0. -1.
          2   -1    0    0  501    0  0.00000000000E+00 -0.00000000000E+00 -0.46470434423E+00  0.46471134056E+00  0.25500000000E-02 0.  1.
         31    1    1    2    0    0 -0.64519417335E-01  0.16529195133E+00  0.59175373533E+02  0.59642394679E+02  0.74470750000E+01 0.  1.
        -31    1    1    2    0    0  0.64519417335E-01 -0.16529195133E+00  0.59772114046E+02  0.60234508613E+02  0.74470750000E+01 0. -1.
<mgrwt>
<rscale>  0 0.14898562E+02</rscale>
<asrwt>0</asrwt>
<pdfrwt beam="2">  1        2 0.98700724E+00 0.14898562E+02</pdfrwt>
<pdfrwt beam="1">  1       -2 0.99122611E+00 0.14898562E+02</pdfrwt>
<totfact>-0.10981893E-13</totfact>
</mgrwt>
</event>
<event>
 4    1 -0.5109406E-019  0.1495412E+02  0.7818608E-02  0.1869472E+00
         -2   -1    0    0    0  501 -0.00000000000E+00  0.00000000000E+00  0.12013899238E+03  0.12013899241E+03  0.25500000000E-02 0.  1.
          2   -1    0    0  501    0  0.00000000000E+00 -0.00000000000E+00 -0.46534420309E+00  0.46535118980E+00  0.25500000000E-02 0. -1.
         31    1    1    2    0    0  0.46925853226E+00 -0.31044030841E+00  0.56918871033E+02  0.57406736386E+02  0.74470750000E+01 0. -1.
        -31    1    1    2    0    0 -0.46925853226E+00  0.31044030841E+00  0.62754777148E+02  0.63197607215E+02  0.74470750000E+01 0. -1.
<mgrwt>
<rscale>  0 0.14954117E+02</rscale>
<asrwt>0</asrwt>
<pdfrwt beam="2">  1        2 0.98838418E+00 0.14954117E+02</pdfrwt>
<pdfrwt beam="1">  1       -2 0.99724110E+00 0.14954117E+02</pdfrwt>
<totfact>-0.16111804E-13</totfact>
</mgrwt>
</event>
<event>
 4    1 -0.5109406E-019  0.1493671E+02  0.7818608E-02  0.1870006E+00
         -2   -1    0    0    0  501 -0.00000000000E+00  0.00000000000E+00  0.12023458749E+03  0.12023458752E+03  0.25500000000E-02 0.  1.
          2   -1    0    0  501    0  0.00000000000E+00 -0.00000000000E+00 -0.46389236263E+00  0.46389937120E+00  0.25500000000E-02 0. -1.
         31    1    1    2    0    0 -0.43761855259E+00 -0.34871009091E+00  0.59355668134E+02  0.59823635583E+02  0.74470750000E+01 0. -1.
        -31    1    1    2    0    0  0.43761855259E+00  0.34871009091E+00  0.60415026997E+02  0.60874851308E+02  0.74470750000E+01 0. -1.
<mgrwt>
<rscale>  0 0.14936711E+02</rscale>
<asrwt>0</asrwt>
<pdfrwt beam="2">  1        2 0.98531542E+00 0.14936711E+02</pdfrwt>
<pdfrwt beam="1">  1       -2 0.99801954E+00 0.14936711E+02</pdfrwt>
<totfact>-0.19453899E-13</totfact>
</mgrwt>
</event>
<event>
 4    1 -0.5109406E-019  0.1492403E+02  0.7818608E-02  0.1870396E+00
          2   -1    0    0  501    0  0.00000000000E+00  0.00000000000E+00  0.11874699791E+03  0.11874699794E+03  0.25500000000E-02 0. -1.
         -2   -1    0    0    0  501 -0.00000000000E+00 -0.00000000000E+00 -0.46890660949E+00  0.46891354312E+00  0.25500000000E-02 0.  1.
         31    1    1    2    0    0  0.23972880489E+00 -0.69344458201E-01  0.55939156821E+02  0.56433239057E+02  0.74470750000E+01 0.  1.
        -31    1    1    2    0    0 -0.23972880489E+00  0.69344458201E-01  0.62338934483E+02  0.62782672427E+02  0.74470750000E+01 0. -1.
<mgrwt>
<rscale>  0 0.14924030E+02</rscale>
<asrwt>0</asrwt>
<pdfrwt beam="1">  1        2 0.98576057E+00 0.14924030E+02</pdfrwt>
<pdfrwt beam="2">  1       -2 0.99587576E+00 0.14924030E+02</pdfrwt>
<totfact>-0.29228102E-13</totfact>
</mgrwt>
</event>
<event>
 4    1  0.5109406E-019  0.1490277E+02  0.7818608E-02  0.1871050E+00
          2   -1    0    0  501    0  0.00000000000E+00  0.00000000000E+00  0.12026230642E+03  0.12026230644E+03  0.25500000000E-02 0. -1.
         -2   -1    0    0    0  501 -0.00000000000E+00 -0.00000000000E+00 -0.46168026944E+00  0.46168731160E+00  0.25500000000E-02 0.  1.
         31    1    1    2    0    0 -0.19041543130E+00  0.16569466559E+00  0.60085381051E+02  0.60545649347E+02  0.74470750000E+01 0.  1.
        -31    1    1    2    0    0  0.19041543130E+00 -0.16569466559E+00  0.59715245097E+02  0.60178344409E+02  0.74470750000E+01 0. -1.
<mgrwt>
<rscale>  0 0.14902773E+02</rscale>
<asrwt>0</asrwt>
<pdfrwt beam="1">  1        2 0.99823045E+00 0.14902773E+02</pdfrwt>
<pdfrwt beam="2">  1       -2 0.98063580E+00 0.14902773E+02</pdfrwt>
<totfact> 0.63182684E-13</totfact>
</mgrwt>
</event>
<event>
 4    1  0.5109406E-019  0.1492073E+02  0.7818608E-02  0.1870497E+00
         -2   -1    0    0    0  501 -0.00000000000E+00  0.00000000000E+00  0.11898324345E+03  0.11898324347E+03  0.25500000000E-02 0. -1.
          2   -1    0    0  501    0  0.00000000000E+00 -0.00000000000E+00 -0.46776862663E+00  0.46777557713E+00  0.25500000000E-02 0.  1.
         31    1    1    2    0    0 -0.24151416817E+00 -0.30167043538E+00  0.57489491570E+02  0.57971112644E+02  0.74470750000E+01 0.  1.
        -31    1    1    2    0    0  0.24151416817E+00  0.30167043538E+00  0.61025983249E+02  0.61479906406E+02  0.74470750000E+01 0. -1.
<mgrwt>
<rscale>  0 0.14920730E+02</rscale>
<asrwt>0</asrwt>
<pdfrwt beam="2">  1        2 0.99347615E+00 0.14920730E+02</pdfrwt>
<pdfrwt beam="1">  1       -2 0.98770460E+00 0.14920730E+02</pdfrwt>
<totfact> 0.20244983E-13</totfact>
</mgrwt>
</event>
<event>
 4    1 -0.5109406E-019  0.1492265E+02  0.7818608E-02  0.1870438E+00
         -2   -1    0    0    0  501 -0.00000000000E+00  0.00000000000E+00  0.12012043796E+03  0.12012043799E+03  0.25500000000E-02 0. -1.
          2   -1    0    0  501    0  0.00000000000E+00 -0.00000000000E+00 -0.46345917221E+00  0.46346618734E+00  0.25500000000E-02 0.  1.
         31    1    1    2    0    0  0.15698699838E+00 -0.37502137500E+00  0.61582767035E+02  0.62032744641E+02  0.74470750000E+01 0.  1.
        -31    1    1    2    0    0 -0.15698699838E+00  0.37502137500E+00  0.58074211756E+02  0.58551159537E+02  0.74470750000E+01 0.  1.
<mgrwt>
<rscale>  0 0.14922646E+02</rscale>
<asrwt>0</asrwt>
<pdfrwt beam="2">  1        2 0.98439527E+00 0.14922646E+02</pdfrwt>
<pdfrwt beam="1">  1       -2 0.99707209E+00 0.14922646E+02</pdfrwt>
<totfact>-0.30212430E-13</totfact>
</mgrwt>
</event>
<event>
 4    1 -0.5109406E-019  0.1498377E+02  0.7818608E-02  0.1868564E+00
          2   -1    0    0  501    0  0.00000000000E+00  0.00000000000E+00  0.11978034523E+03  0.11978034526E+03  0.25500000000E-02 0.  1.
         -2   -1    0    0    0  501 -0.00000000000E+00 -0.00000000000E+00 -0.46859014031E+00  0.46859707863E+00  0.25500000000E-02 0. -1.
         31    1    1    2    0    0  0.52024985836E+00 -0.58559466908E+00  0.61551619754E+02  0.62005438483E+02  0.74470750000E+01 0. -1.
        -31    1    1    2    0    0 -0.52024985836E+00  0.58559466908E+00  0.57760135334E+02  0.58243503851E+02  0.74470750000E+01 0. -1.
<mgrwt>
<rscale>  0 0.14983766E+02</rscale>
<asrwt>0</asrwt>
<pdfrwt beam="1">  1        2 0.99430239E+00 0.14983766E+02</pdfrwt>
<pdfrwt beam="2">  1       -2 0.99524004E+00 0.14983766E+02</pdfrwt>
<totfact>-0.12639972E-13</totfact>
</mgrwt>
</event>
<event>
 4    1 -0.5109406E-019  0.1494146E+02  0.7818608E-02  0.1869860E+00
         -2   -1    0    0    0  501 -0.00000000000E+00  0.00000000000E+00  0.11953210780E+03  0.11953210783E+03  0.25500000000E-02 0.  1.
          2   -1    0    0  501    0  0.00000000000E+00 -0.00000000000E+00 -0.46691551931E+00  0.46692248250E+00  0.25500000000E-02 0. -1.
         31    1    1    2    0    0  0.30316141293E+00 -0.31855796038E+00  0.56325072799E+02  0.56816952910E+02  0.74470750000E+01 0. -1.
        -31    1    1    2    0    0 -0.30316141293E+00  0.31855796038E+00  0.62740119486E+02  0.63182077405E+02  0.74470750000E+01 0. -1.
<mgrwt>
<rscale>  0 0.14941461E+02</rscale>
<asrwt>0</asrwt>
<pdfrwt beam="2">  1        2 0.99168917E+00 0.14941461E+02</pdfrwt>
<pdfrwt beam="1">  1       -2 0.99223594E+00 0.14941461E+02</pdfrwt>
<totfact>-0.11128211E-13</totfact>
</mgrwt>
</event>
<event>
 4    1 -0.5109406E-019  0.1490522E+02  0.7818608E-02  0.1870975E+00
         -2   -1    0    0    0  501 -0.00000000000E+00  0.00000000000E+00  0.11998646859E+03  0.11998646862E+03  0.25500000000E-02 0. -1.
          2   -1    0    0  501    0  0.00000000000E+00 -0.00000000000E+00 -0.46289351761E+00  0.46290054131E+00  0.25500000000E-02 0.  1.
         31    1    1    2    0    0  0.46328172499E-01 -0.70512291139E-01  0.57543715998E+02  0.58023661512E+02  0.74470750000E+01 0.  1.
        -31    1    1    2    0    0 -0.46328172499E-01  0.70512291139E-01  0.61979859073E+02  0.62425707645E+02  0.74470750000E+01 0. -1.
<mgrwt>
<rscale>  0 0.14905218E+02</rscale>
<asrwt>0</asrwt>
<pdfrwt beam="2">  1        2 0.98319422E+00 0.14905218E+02</pdfrwt>
<pdfrwt beam="1">  1       -2 0.99595966E+00 0.14905218E+02</pdfrwt>
<totfact>-0.44163496E-13</totfact>
</mgrwt>
</event>
<event>
 4    1  0.5109406E-019  0.1491732E+02  0.7818608E-02  0.1870602E+00
          2   -1    0    0  501    0  0.00000000000E+00  0.00000000000E+00  0.12000391223E+03  0.12000391225E+03  0.25500000000E-02 0. -1.
         -2   -1    0    0    0  501 -0.00000000000E+00 -0.00000000000E+00 -0.46357821061E+00  0.46358522393E+00  0.25500000000E-02 0.  1.
         31    1    1    2    0    0  0.27676491575E+00 -0.28515964366E+00  0.60752020417E+02  0.61208045432E+02  0.74470750000E+01 0.  1.
        -31    1    1    2    0    0 -0.27676491575E+00  0.28515964366E+00  0.58788313599E+02  0.59259452045E+02  0.74470750000E+01 0.  1.
<mgrwt>
<rscale>  0 0.14917322E+02</rscale>
<asrwt>0</asrwt>
<pdfrwt beam="1">  1        2 0.99610956E+00 0.14917322E+02</pdfrwt>
<pdfrwt beam="2">  1       -2 0.98464346E+00 0.14917322E+02</pdfrwt>
<totfact> 0.46557073E-13</totfact>
</mgrwt>
</event>
<event>
 4    1  0.5109406E-019  0.1494020E+02  0.7818608E-02  0.1869899E+00
         -2   -1    0    0    0  501 -0.00000000000E+00  0.00000000000E+00  0.11897297142E+03  0.11897297145E+03  0.25500000000E-02 0. -1.
          2   -1    0    0  501    0  0.00000000000E+00 -0.00000000000E+00 -0.46903097026E+00  0.46903790205E+00  0.25500000000E-02 0.  1.
         31    1    1    2    0    0 -0.22589053820E+00  0.50607359803E+00  0.57727506909E+02  0.58208514129E+02  0.74470750000E+01 0.  1.
        -31    1    1    2    0    0  0.22589053820E+00 -0.50607359803E+00  0.60776433541E+02  0.61233495221E+02  0.74470750000E+01 0. -1.
<mgrwt>
<rscale>  0 0.14940204E+02</rscale>
<asrwt>0</asrwt>
<pdfrwt beam="2">  1        2 0.99614629E+00 0.14940204E+02</pdfrwt>
<pdfrwt beam="1">  1       -2 0.98763010E+00 0.14940204E+02</pdfrwt>
<totfact> 0.15960307E-13</totfact>
</mgrwt>
</event>
<event>
 4    1 -0.5109406E-019  0.1497658E+02  0.7818608E-02  0.1868784E+00
          2   -1    0    0  501    0  0.00000000000E+00  0.00000000000E+00  0.11995107064E+03  0.11995107067E+03  0.25500000000E-02 0. -1.
         -2   -1    0    0    0  501 -0.00000000000E+00 -0.00000000000E+00 -0.46747435430E+00  0.46748130917E+00  0.25500000000E-02 0.  1.
         31    1    1    2    0    0  0.64431456582E+00 -0.34791208697E+00  0.57476734592E+02  0.57961798881E+02  0.74470750000E+01 0.  1.
        -31    1    1    2    0    0 -0.64431456582E+00  0.34791208697E+00  0.62006861698E+02  0.62456753100E+02  0.74470750000E+01 0. -1.
<mgrwt>
<rscale>  0 0.14976578E+02</rscale>
<asrwt>0</asrwt>
<pdfrwt beam="1">  1        2 0.99570484E+00 0.14976578E+02</pdfrwt>
<pdfrwt beam="2">  1       -2 0.99288496E+00 0.14976578E+02</pdfrwt>
<totfact>-0.93301345E-14</totfact>
</mgrwt>
</event>
<event>
 4    1 -0.5109406E-019  0.1492944E+02  0.7818608E-02  0.1870229E+00
         -2   -1    0    0    0  501 -0.00000000000E+00  0.00000000000E+00  0.12013820147E+03  0.12013820150E+03  0.25500000000E-02 0. -1.
          2   -1    0    0  501    0  0.00000000000E+00 -0.00000000000E+00 -0.46381277580E+00  0.46381978558E+00  0.25500000000E-02 0.  1.
         31    1    1    2    0    0 -0.47480547781E+00 -0.51237522419E-01  0.61349887129E+02  0.61802068269E+02  0.74470750000E+01 0. -1.
        -31    1    1    2    0    0  0.47480547781E+00  0.51237522419E-01  0.58324501564E+02  0.58799953013E+02  0.74470750000E+01 0. -1.
<mgrwt>
<rscale>  0 0.14929442E+02</rscale>
<asrwt>0</asrwt>
<pdfrwt beam="2">  1        2 0.98514399E+00 0.14929442E+02</pdfrwt>
<pdfrwt beam="1">  1       -2 0.99722189E+00 0.14929442E+02</pdfrwt>
<totfact>-0.25803977E-13</totfact>
</mgrwt>
</event>
<event>
 4    1 -0.5109406E-019  0.1498215E+02  0.7818608E-02  0.1868614E+00
          2   -1    0    0  501    0  0.00000000000E+00  0.00000000000E+00  0.11974448577E+03  0.11974448580E+03  0.25500000000E-02 0.  1.
         -2   -1    0    0    0  501 -0.00000000000E+00 -0.00000000000E+00 -0.46862924868E+00  0.46863618641E+00  0.25500000000E-02 0. -1.
         31    1    1    2    0    0 -0.75919464358E+00 -0.20056912663E+00  0.61255795162E+02  0.61711813873E+02  0.74470750000E+01 0.  1.
        -31    1    1    2    0    0  0.75919464358E+00  0.20056912663E+00  0.58020061360E+02  0.58501308112E+02  0.74470750000E+01 0. -1.
<mgrwt>
<rscale>  0 0.14982148E+02</rscale>
<asrwt>0</asrwt>
<pdfrwt beam="1">  1        2 0.99400620E+00 0.14982148E+02</pdfrwt>
<pdfrwt beam="2">  1       -2 0.99532161E+00 0.14982148E+02</pdfrwt>
<totfact>-0.12909008E-13</totfact>
</mgrwt>
</event>
<event>
 4    1 -0.5109406E-019  0.1491425E+02  0.7818608E-02  0.1870697E+00
          2   -1    0    0  501    0  0.00000000000E+00  0.00000000000E+00  0.11882838141E+03  0.11882838143E+03  0.25500000000E-02 0. -1.
         -2   -1    0    0    0  501 -0.00000000000E+00 -0.00000000000E+00 -0.46797151069E+00  0.46797845818E+00  0.25500000000E-02 0.  1.
         31    1    1    2    0    0 -0.12918092524E+00 -0.74822678021E-01  0.56324044742E+02  0.56814427994E+02  0.74470750000E+01 0. -1.
        -31    1    1    2    0    0  0.12918092524E+00  0.74822678021E-01  0.62036365155E+02  0.62481931899E+02  0.74470750000E+01 0. -1.
<mgrwt>
<rscale>  0 0.14914250E+02</rscale>
<asrwt>0</asrwt>
<pdfrwt beam="1">  1        2 0.98642577E+00 0.14914250E+02</pdfrwt>
<pdfrwt beam="2">  1       -2 0.99390027E+00 0.14914250E+02</pdfrwt>
<totfact>-0.27001365E-13</totfact>
</mgrwt>
</event>
<event>
 4    1 -0.5109406E-019  0.1501015E+02  0.7818608E-02  0.1867759E+00
          2   -1    0    0  501    0  0.00000000000E+00  0.00000000000E+00  0.11986737445E+03  0.11986737447E+03  0.25500000000E-02 0.  1.
         -2   -1    0    0    0  501 -0.00000000000E+00 -0.00000000000E+00 -0.46990055809E+00  0.46990747706E+00  0.25500000000E-02 0. -1.
         31    1    1    2    0    0  0.64939321639E+00  0.63829939416E+00  0.61263612034E+02  0.61721294730E+02  0.74470750000E+01 0.  1.
        -31    1    1    2    0    0 -0.64939321639E+00 -0.63829939416E+00  0.58133861854E+02  0.58615987220E+02  0.74470750000E+01 0.  1.
<mgrwt>
<rscale>  0 0.15010152E+02</rscale>
<asrwt>0</asrwt>
<pdfrwt beam="1">  1        2 0.99503284E+00 0.15010152E+02</pdfrwt>
<pdfrwt beam="2">  1       -2 0.99801515E+00 0.15010152E+02</pdfrwt>
<totfact>-0.70252467E-14</totfact>
</mgrwt>
</event>
<event>
 4    1  0.5109406E-019  0.1490491E+02  0.7818608E-02  0.1870984E+00
          2   -1    0    0  501    0  0.00000000000E+00  0.00000000000E+00  0.11956955279E+03  0.11956955282E+03  0.25500000000E-02 0. -1.
         -2   -1    0    0    0  501 -0.00000000000E+00 -0.00000000000E+00 -0.46448842467E+00  0.46449542425E+00  0.25500000000E-02 0.  1.
         31    1    1    2    0    0  0.17243867338E-01 -0.12463244937E+00  0.57509807673E+02  0.57990108943E+02  0.74470750000E+01 0.  1.
        -31    1    1    2    0    0 -0.17243867338E-01  0.12463244937E+00  0.61595256692E+02  0.62043939297E+02  0.74470750000E+01 0. -1.
<mgrwt>
<rscale>  0 0.14904911E+02</rscale>
<asrwt>0</asrwt>
<pdfrwt beam="1">  1        2 0.99252549E+00 0.14904911E+02</pdfrwt>
<pdfrwt beam="2">  1       -2 0.98655545E+00 0.14904911E+02</pdfrwt>
<totfact> 0.35791326E-13</totfact>
</mgrwt>
</event>
<event>
 4    1  0.5109406E-019  0.1490124E+02  0.7818608E-02  0.1871097E+00
         -2   -1    0    0    0  501 -0.00000000000E+00  0.00000000000E+00  0.11830125085E+03  0.11830125087E+03  0.25500000000E-02 0. -1.
          2   -1    0    0  501    0  0.00000000000E+00 -0.00000000000E+00 -0.46923681520E+00  0.46924374395E+00  0.25500000000E-02 0.  1.
         31    1    1    2    0    0 -0.58632425229E-01  0.20487974876E+00  0.58231481951E+02  0.58706131108E+02  0.74470750000E+01 0.  1.
        -31    1    1    2    0    0  0.58632425229E-01 -0.20487974876E+00  0.59600532080E+02  0.60064363509E+02  0.74470750000E+01 0.  1.
<mgrwt>
<rscale>  0 0.14901237E+02</rscale>
<asrwt>0</asrwt>
<pdfrwt beam="2">  1        2 0.99655951E+00 0.14901237E+02</pdfrwt>
<pdfrwt beam="1">  1       -2 0.98207755E+00 0.14901237E+02</pdfrwt>
<totfact> 0.78019966E-13</totfact>
</mgrwt>
</event>
<event>
 4    1  0.5109406E-019  0.1489588E+02  0.7818608E-02  0.1871262E+00
          2   -1    0    0  501    0  0.00000000000E+00  0.00000000000E+00  0.11932009783E+03  0.11932009786E+03  0.25500000000E-02 0. -1.
         -2   -1    0    0    0  501 -0.00000000000E+00 -0.00000000000E+00 -0.46489561836E+00  0.46490261181E+00  0.25500000000E-02 0.  1.
         31    1    1    2    0    0  0.73282719340E-01  0.32818084571E-03  0.58730509135E+02  0.59200819249E+02  0.74470750000E+01 0.  1.
        -31    1    1    2    0    0 -0.73282719340E-01 -0.32818084571E-03  0.60124693076E+02  0.60584181219E+02  0.74470750000E+01 0. -1.
<mgrwt>
<rscale>  0 0.14895880E+02</rscale>
<asrwt>0</asrwt>
<pdfrwt beam="1">  1        2 0.99046619E+00 0.14895880E+02</pdfrwt>
<pdfrwt beam="2">  1       -2 0.98740896E+00 0.14895880E+02</pdfrwt>
<totfact> 0.29433284E-13</totfact>
</mgrwt>
</event>
<event>
 4    1  0.5109406E-019  0.1491618E+02  0.7818608E-02  0.1870637E+00
         -2   -1    0    0    0  501 -0.00000000000E+00  0.00000000000E+00  0.11862061861E+03  0.11862061863E+03  0.25500000000E-02 0. -1.
          2   -1    0    0  501    0  0.00000000000E+00 -0.00000000000E+00 -0.46891247652E+00  0.46891941006E+00  0.25500000000E-02 0.  1.
         31    1    1    2    0    0  0.29988072934E+00 -0.10695692345E+00  0.57074958045E+02  0.57559631080E+02  0.74470750000E+01 0. -1.
        -31    1    1    2    0    0 -0.29988072934E+00  0.10695692345E+00  0.61076748086E+02  0.61529906964E+02  0.74470750000E+01 0.  1.
<mgrwt>
<rscale>  0 0.14916179E+02</rscale>
<asrwt>0</asrwt>
<pdfrwt beam="2">  1        2 0.99588400E+00 0.14916179E+02</pdfrwt>
<pdfrwt beam="1">  1       -2 0.98471562E+00 0.14916179E+02</pdfrwt>
<totfact> 0.47184666E-13</totfact>
</mgrwt>
</event>
<event>
 4    1 -0.5109406E-019  0.1492292E+02  0.7818608E-02  0.1870430E+00
         -2   -1    0    0    0  501 -0.00000000000E+00  0.00000000000E+00  0.11945489136E+03  0.11945489138E+03  0.25500000000E-02 0.  1.
          2   -1    0    0  501    0  0.00000000000E+00 -0.00000000000E+00 -0.46605858848E+00  0.46606556448E+00  0.25500000000E-02 0. -1.
         31    1    1    2    0    0  0.34568801567E+00 -0.23704889139E+00  0.57911920799E+02  0.58390283345E+02  0.74470750000E+01 0. -1.
        -31    1    1    2    0    0 -0.34568801567E+00  0.23704889139E+00  0.61076911968E+02  0.61530673603E+02  0.74470750000E+01 0. -1.
<mgrwt>
<rscale>  0 0.14922922E+02</rscale>
<asrwt>0</asrwt>
<pdfrwt beam="2">  1        2 0.98987373E+00 0.14922922E+02</pdfrwt>
<pdfrwt beam="1">  1       -2 0.99159038E+00 0.14922922E+02</pdfrwt>
<totfact>-0.98781413E-14</totfact>
</mgrwt>
</event>
<event>
 4    1 -0.5109406E-019  0.1502155E+02  0.7818608E-02  0.1867412E+00
         -2   -1    0    0    0  501 -0.00000000000E+00  0.00000000000E+00  0.11999532616E+03  0.11999532618E+03  0.25500000000E-02 0.  1.
          2   -1    0    0  501    0  0.00000000000E+00 -0.00000000000E+00 -0.47011258663E+00  0.47011950248E+00  0.25500000000E-02 0. -1.
         31    1    1    2    0    0  0.48542724303E+00  0.18272333664E+00  0.53131205588E+02  0.53653079695E+02  0.74470750000E+01 0. -1.
        -31    1    1    2    0    0 -0.48542724303E+00 -0.18272333664E+00  0.66394007981E+02  0.66812365991E+02  0.74470750000E+01 0.  1.
<mgrwt>
<rscale>  0 0.15021549E+02</rscale>
<asrwt>0</asrwt>
<pdfrwt beam="2">  1        2 0.99846787E+00 0.15021549E+02</pdfrwt>
<pdfrwt beam="1">  1       -2 0.99609259E+00 0.15021549E+02</pdfrwt>
<totfact>-0.49087438E-14</totfact>
</mgrwt>
</event>
<event>
 4    1 -0.5109406E-019  0.1497251E+02  0.7818608E-02  0.1868908E+00
         -2   -1    0    0    0  501 -0.00000000000E+00  0.00000000000E+00  0.12027280087E+03  0.12027280090E+03  0.25500000000E-02 0.  1.
          2   -1    0    0  501    0  0.00000000000E+00 -0.00000000000E+00 -0.46597067384E+00  0.46597765116E+00  0.25500000000E-02 0. -1.
         31    1    1    2    0    0  0.25124633644E+00 -0.79815935756E-01  0.65693812975E+02  0.66115092713E+02  0.74470750000E+01 0.  1.
        -31    1    1    2    0    0 -0.25124633644E+00  0.79815935756E-01  0.54113017225E+02  0.54623685838E+02  0.74470750000E+01 0. -1.
<mgrwt>
<rscale>  0 0.14972511E+02</rscale>
<asrwt>0</asrwt>
<pdfrwt beam="2">  1        2 0.98971389E+00 0.14972511E+02</pdfrwt>
<pdfrwt beam="1">  1       -2 0.99835270E+00 0.14972511E+02</pdfrwt>
<totfact>-0.92964886E-14</totfact>
</mgrwt>
</event>
<event>
 4    1 -0.5109406E-019  0.1492843E+02  0.7818608E-02  0.1870260E+00
          2   -1    0    0  501    0  0.00000000000E+00  0.00000000000E+00  0.11875848001E+03  0.11875848004E+03  0.25500000000E-02 0.  1.
         -2   -1    0    0    0  501 -0.00000000000E+00 -0.00000000000E+00 -0.46913759091E+00  0.46914452112E+00  0.25500000000E-02 0. -1.
         31    1    1    2    0    0  0.32758188187E-02 -0.95936949686E-01  0.63108651250E+02  0.63546597102E+02  0.74470750000E+01 0.  1.
        -31    1    1    2    0    0 -0.32758188187E-02  0.95936949686E-01  0.55180691172E+02  0.55681027459E+02  0.74470750000E+01 0. -1.
<mgrwt>
<rscale>  0 0.14928427E+02</rscale>
<asrwt>0</asrwt>
<pdfrwt beam="1">  1        2 0.98585742E+00 0.14928427E+02</pdfrwt>
<pdfrwt beam="2">  1       -2 0.99636477E+00 0.14928427E+02</pdfrwt>
<totfact>-0.27166553E-13</totfact>
</mgrwt>
</event>
<event>
 4    1 -0.5109406E-019  0.1495535E+02  0.7818608E-02  0.1869434E+00
         -2   -1    0    0    0  501 -0.00000000000E+00  0.00000000000E+00  0.11954904795E+03  0.11954904797E+03  0.25500000000E-02 0.  1.
          2   -1    0    0  501    0  0.00000000000E+00 -0.00000000000E+00 -0.46771774829E+00  0.46772469955E+00  0.25500000000E-02 0. -1.
         31    1    1    2    0    0 -0.31645521179E-01  0.56107642367E+00  0.62552940815E+02  0.62997183578E+02  0.74470750000E+01 0. -1.
        -31    1    1    2    0    0  0.31645521179E-01 -0.56107642367E+00  0.56528389384E+02  0.57019589095E+02  0.74470750000E+01 0. -1.
<mgrwt>
<rscale>  0 0.14955351E+02</rscale>
<asrwt>0</asrwt>
<pdfrwt beam="2">  1        2 0.99338692E+00 0.14955351E+02</pdfrwt>
<pdfrwt beam="1">  1       -2 0.99238265E+00 0.14955351E+02</pdfrwt>
<totfact>-0.10290965E-13</totfact>
</mgrwt>
</event>
<event>
 4    1  0.5109406E-019  0.1490267E+02  0.7818608E-02  0.1871053E+00
          2   -1    0    0  501    0  0.00000000000E+00  0.00000000000E+00  0.11950383737E+03  0.11950383740E+03  0.25500000000E-02 0.  1.
         -2   -1    0    0    0  501 -0.00000000000E+00 -0.00000000000E+00 -0.46460410948E+00  0.46461110732E+00  0.25500000000E-02 0. -1.
         31    1    1    2    0    0  0.53231277625E-01 -0.23331353426E+00  0.58885722970E+02  0.59355240414E+02  0.74470750000E+01 0.  1.
        -31    1    1    2    0    0 -0.53231277625E-01  0.23331353426E+00  0.60153510290E+02  0.60613208091E+02  0.74470750000E+01 0.  1.
<mgrwt>
<rscale>  0 0.14902670E+02</rscale>
<asrwt>0</asrwt>
<pdfrwt beam="1">  1        2 0.99198307E+00 0.14902670E+02</pdfrwt>
<pdfrwt beam="2">  1       -2 0.98679811E+00 0.14902670E+02</pdfrwt>
<totfact> 0.33896534E-13</totfact>
</mgrwt>
</event>
<event>
 4    1  0.5109406E-019  0.1490579E+02  0.7818608E-02  0.1870957E+00
         -2   -1    0    0    0  501 -0.00000000000E+00  0.00000000000E+00  0.11820513338E+03  0.11820513340E+03  0.25500000000E-02 0. -1.
          2   -1    0    0  501    0  0.00000000000E+00 -0.00000000000E+00 -0.46990534076E+00  0.46991225965E+00  0.25500000000E-02 0.  1.
         31    1    1    2    0    0 -0.10662116274E+00  0.22430474617E+00  0.57608034939E+02  0.58087918678E+02  0.74470750000E+01 0. -1.
        -31    1    1    2    0    0  0.10662116274E+00 -0.22430474617E+00  0.60127193095E+02  0.60587126985E+02  0.74470750000E+01 0. -1.
<mgrwt>
<rscale>  0 0.14905789E+02</rscale>
<asrwt>0</asrwt>
<pdfrwt beam="2">  1        2 0.99797047E+00 0.14905789E+02</pdfrwt>
<pdfrwt beam="1">  1       -2 0.98128831E+00 0.14905789E+02</pdfrwt>
<totfact> 0.62536061E-13</totfact>
</mgrwt>
</event>
<event>
 4    1  0.5109406E-019  0.1491382E+02  0.7818608E-02  0.1870710E+00
          2   -1    0    0  501    0  0.00000000000E+00  0.00000000000E+00  0.12024354719E+03  0.12024354722E+03  0.25500000000E-02 0.  1.
         -2   -1    0    0    0  501 -0.00000000000E+00 -0.00000000000E+00 -0.46243694076E+00  0.46244397139E+00  0.25500000000E-02 0. -1.
         31    1    1    2    0    0 -0.35838573149E+00 -0.35469249560E-01  0.60941460761E+02  0.61395848916E+02  0.74470750000E+01 0.  1.
        -31    1    1    2    0    0  0.35838573149E+00  0.35469249560E-01  0.58839649491E+02  0.59310142275E+02  0.74470750000E+01 0. -1.
<mgrwt>
<rscale>  0 0.14913817E+02</rscale>
<asrwt>0</asrwt>
<pdfrwt beam="1">  1        2 0.99808159E+00 0.14913817E+02</pdfrwt>
<pdfrwt beam="2">  1       -2 0.98223625E+00 0.14913817E+02</pdfrwt>
<totfact> 0.49752114E-13</totfact>
</mgrwt>
</event>
<event>
 4    1 -0.5109406E-019  0.1490945E+02  0.7818608E-02  0.1870844E+00
          2   -1    0    0  501    0  0.00000000000E+00  0.00000000000E+00  0.11866987094E+03  0.11866987096E+03  0.25500000000E-02 0. -1.
         -2   -1    0    0    0  501 -0.00000000000E+00 -0.00000000000E+00 -0.46829517675E+00  0.46830211943E+00  0.25500000000E-02 0.  1.
         31    1    1    2    0    0  0.17301655423E+00 -0.28954521333E+00  0.58975413412E+02  0.59444697698E+02  0.74470750000E+01 0.  1.
        -31    1    1    2    0    0 -0.17301655423E+00  0.28954521333E+00  0.59226162348E+02  0.59693475386E+02  0.74470750000E+01 0.  1.
<mgrwt>
<rscale>  0 0.14909452E+02</rscale>
<asrwt>0</asrwt>
<pdfrwt beam="1">  1        2 0.98511777E+00 0.14909452E+02</pdfrwt>
<pdfrwt beam="2">  1       -2 0.99457977E+00 0.14909452E+02</pdfrwt>
<totfact>-0.34112249E-13</totfact>
</mgrwt>
</event>
<event>
 4    1  0.5109406E-019  0.1494734E+02  0.7818608E-02  0.1869680E+00
         -2   -1    0    0    0  501 -0.00000000000E+00  0.00000000000E+00  0.11915377830E+03  0.11915377833E+03  0.25500000000E-02 0. -1.
          2   -1    0    0  501    0  0.00000000000E+00 -0.00000000000E+00 -0.46876680327E+00  0.46877373897E+00  0.25500000000E-02 0.  1.
         31    1    1    2    0    0 -0.47170651887E+00  0.29198920589E+00  0.61730833555E+02  0.62180885345E+02  0.74470750000E+01 0.  1.
        -31    1    1    2    0    0  0.47170651887E+00 -0.29198920589E+00  0.56954177943E+02  0.57441666724E+02  0.74470750000E+01 0. -1.
<mgrwt>
<rscale>  0 0.14947341E+02</rscale>
<asrwt>0</asrwt>
<pdfrwt beam="2">  1        2 0.99559338E+00 0.14947341E+02</pdfrwt>
<pdfrwt beam="1">  1       -2 0.98912296E+00 0.14947341E+02</pdfrwt>
<totfact> 0.59641720E-14</totfact>
</mgrwt>
</event>
<event>
 4    1  0.5109406E-019  0.1492179E+02  0.7818608E-02  0.1870465E+00
          2   -1    0    0  501    0  0.00000000000E+00  0.00000000000E+00  0.11999295191E+03  0.11999295193E+03  0.25500000000E-02 0. -1.
         -2   -1    0    0    0  501 -0.00000000000E+00 -0.00000000000E+00 -0.46389827282E+00  0.46390528131E+00  0.25500000000E-02 0.  1.
         31    1    1    2    0    0  0.20345506716E+00  0.40552991659E+00  0.59658549073E+02  0.60123267144E+02  0.74470750000E+01 0.  1.
        -31    1    1    2    0    0 -0.20345506716E+00 -0.40552991659E+00  0.59870504559E+02  0.60333590069E+02  0.74470750000E+01 0. -1.
<mgrwt>
<rscale>  0 0.14921789E+02</rscale>
<asrwt>0</asrwt>
<pdfrwt beam="1">  1        2 0.99602157E+00 0.14921789E+02</pdfrwt>
<pdfrwt beam="2">  1       -2 0.98532030E+00 0.14921789E+02</pdfrwt>
<totfact> 0.38969883E-13</totfact>
</mgrwt>
</event>
<event>
 4    1  0.5109406E-019  0.1494287E+02  0.7818608E-02  0.1869817E+00
          2   -1    0    0  501    0  0.00000000000E+00  0.00000000000E+00  0.12010396830E+03  0.12010396832E+03  0.25500000000E-02 0. -1.
         -2   -1    0    0    0  501 -0.00000000000E+00 -0.00000000000E+00 -0.46477975936E+00  0.46478675456E+00  0.25500000000E-02 0.  1.
         31    1    1    2    0    0 -0.52596624170E+00  0.29818192948E-01  0.57455312685E+02  0.57938324202E+02  0.74470750000E+01 0.  1.
        -31    1    1    2    0    0  0.52596624170E+00 -0.29818192948E-01  0.62183875853E+02  0.62630430877E+02  0.74470750000E+01 0. -1.
<mgrwt>
<rscale>  0 0.14942867E+02</rscale>
<asrwt>0</asrwt>
<pdfrwt beam="1">  1        2 0.99694682E+00 0.14942867E+02</pdfrwt>
<pdfrwt beam="2">  1       -2 0.98718884E+00 0.14942867E+02</pdfrwt>
<totfact> 0.16934407E-13</totfact>
</mgrwt>
</event>
<event>
 4    1 -0.5109406E-019  0.1499917E+02  0.7818608E-02  0.1868094E+00
         -2   -1    0    0    0  501 -0.00000000000E+00  0.00000000000E+00  0.12003230222E+03  0.12003230224E+03  0.25500000000E-02 0.  1.
          2   -1    0    0  501    0  0.00000000000E+00 -0.00000000000E+00 -0.46856856008E+00  0.46857549871E+00  0.25500000000E-02 0. -1.
         31    1    1    2    0    0  0.31430494306E-01 -0.36701062967E+00  0.66254825475E+02  0.66673056848E+02  0.74470750000E+01 0.  1.
        -31    1    1    2    0    0 -0.31430494306E-01  0.36701062967E+00  0.53308908182E+02  0.53827820895E+02  0.74470750000E+01 0. -1.
<mgrwt>
<rscale>  0 0.14999171E+02</rscale>
<asrwt>0</asrwt>
<pdfrwt beam="2">  1        2 0.99520252E+00 0.14999171E+02</pdfrwt>
<pdfrwt beam="1">  1       -2 0.99638557E+00 0.14999171E+02</pdfrwt>
<totfact>-0.10439324E-13</totfact>
</mgrwt>
</event>
<event>
 4    1 -0.5109406E-019  0.1492175E+02  0.7818608E-02  0.1870466E+00
         -2   -1    0    0    0  501 -0.00000000000E+00  0.00000000000E+00  0.12028957933E+03  0.12028957936E+03  0.25500000000E-02 0. -1.
          2   -1    0    0  501    0  0.00000000000E+00 -0.00000000000E+00 -0.46275162631E+00  0.46275865216E+00  0.25500000000E-02 0.  1.
         31    1    1    2    0    0  0.20111098576E+00  0.37620999815E+00  0.61159708805E+02  0.61612911689E+02  0.74470750000E+01 0. -1.
        -31    1    1    2    0    0 -0.20111098576E+00 -0.37620999815E+00  0.58667118902E+02  0.59139426323E+02  0.74470750000E+01 0. -1.
<mgrwt>
<rscale>  0 0.14921746E+02</rscale>
<asrwt>0</asrwt>
<pdfrwt beam="2">  1        2 0.98290352E+00 0.14921746E+02</pdfrwt>
<pdfrwt beam="1">  1       -2 0.99846482E+00 0.14921746E+02</pdfrwt>
<totfact>-0.23452922E-13</totfact>
</mgrwt>
</event>
<event>
 4    1 -0.5109406E-019  0.1495781E+02  0.7818608E-02  0.1869359E+00
         -2   -1    0    0    0  501 -0.00000000000E+00  0.00000000000E+00  0.12022018662E+03  0.12022018665E+03  0.25500000000E-02 0.  1.
          2   -1    0    0  501    0  0.00000000000E+00 -0.00000000000E+00 -0.46525961610E+00  0.46526660408E+00  0.25500000000E-02 0. -1.
         31    1    1    2    0    0  0.34464739440E+00  0.56188562780E+00  0.61503155891E+02  0.61955884369E+02  0.74470750000E+01 0.  1.
        -31    1    1    2    0    0 -0.34464739440E+00 -0.56188562780E+00  0.58251771115E+02  0.58729568884E+02  0.74470750000E+01 0. -1.
<mgrwt>
<rscale>  0 0.14957810E+02</rscale>
<asrwt>0</asrwt>
<pdfrwt beam="2">  1        2 0.98820779E+00 0.14957810E+02</pdfrwt>
<pdfrwt beam="1">  1       -2 0.99791177E+00 0.14957810E+02</pdfrwt>
<totfact>-0.13376188E-13</totfact>
</mgrwt>
</event>
<event>
 4    1 -0.5109406E-019  0.1491024E+02  0.7818608E-02  0.1870820E+00
          2   -1    0    0  501    0  0.00000000000E+00  0.00000000000E+00  0.11879700249E+03  0.11879700252E+03  0.25500000000E-02 0.  1.
         -2   -1    0    0    0  501 -0.00000000000E+00 -0.00000000000E+00 -0.46784317518E+00  0.46785012457E+00  0.25500000000E-02 0. -1.
         31    1    1    2    0    0 -0.10911416854E-01 -0.10705625328E+00  0.56532521172E+02  0.57021017671E+02  0.74470750000E+01 0. -1.
        -31    1    1    2    0    0  0.10911416854E-01  0.10705625328E+00  0.61796638144E+02  0.62243834972E+02  0.74470750000E+01 0.  1.
<mgrwt>
<rscale>  0 0.14910236E+02</rscale>
<asrwt>0</asrwt>
<pdfrwt beam="1">  1        2 0.98616525E+00 0.14910236E+02</pdfrwt>
<pdfrwt beam="2">  1       -2 0.99362775E+00 0.14910236E+02</pdfrwt>
<totfact>-0.27404725E-13</totfact>
</mgrwt>
</event>
<event>
 4    1 -0.5109406E-019  0.1491740E+02  0.7818608E-02  0.1870600E+00
          2   -1    0    0  501    0  0.00000000000E+00  0.00000000000E+00  0.11836161416E+03  0.11836161419E+03  0.25500000000E-02 0.  1.
         -2   -1    0    0    0  501 -0.00000000000E+00 -0.00000000000E+00 -0.47001549630E+00  0.47002241358E+00  0.25500000000E-02 0. -1.
         31    1    1    2    0    0 -0.33340646083E+00 -0.19757917644E+00  0.57735547850E+02  0.58215140719E+02  0.74470750000E+01 0. -1.
        -31    1    1    2    0    0  0.33340646083E+00  0.19757917644E+00  0.60156050814E+02  0.60616495882E+02  0.74470750000E+01 0. -1.
<mgrwt>
<rscale>  0 0.14917400E+02</rscale>
<asrwt>0</asrwt>
<pdfrwt beam="1">  1        2 0.98258311E+00 0.14917400E+02</pdfrwt>
<pdfrwt beam="2">  1       -2 0.99820871E+00 0.14917400E+02</pdfrwt>
<totfact>-0.28214905E-13</totfact>
</mgrwt>
</event>
<event>
 4    1 -0.5109406E-019  0.1497217E+02  0.7818608E-02  0.1868919E+00
          2   -1    0    0  501    0  0.00000000000E+00  0.00000000000E+00  0.11917153759E+03  0.11917153762E+03  0.25500000000E-02 0. -1.
         -2   -1    0    0    0  501 -0.00000000000E+00 -0.00000000000E+00 -0.47025535083E+00  0.47026226458E+00  0.25500000000E-02 0.  1.
         31    1    1    2    0    0 -0.19984751059E+00  0.41100441772E+00  0.64235447722E+02  0.64667306529E+02  0.74470750000E+01 0. -1.
        -31    1    1    2    0    0  0.19984751059E+00 -0.41100441772E+00  0.54465834517E+02  0.54974493352E+02  0.74470750000E+01 0.  1.
<mgrwt>
<rscale>  0 0.14972170E+02</rscale>
<asrwt>0</asrwt>
<pdfrwt beam="1">  1        2 0.98928211E+00 0.14972170E+02</pdfrwt>
<pdfrwt beam="2">  1       -2 0.99874295E+00 0.14972170E+02</pdfrwt>
<totfact>-0.76800912E-14</totfact>
</mgrwt>
</event>
<event>
 4    1  0.5109406E-019  0.1494007E+02  0.7818608E-02  0.1869903E+00
          2   -1    0    0  501    0  0.00000000000E+00  0.00000000000E+00  0.11987116353E+03  0.11987116355E+03  0.25500000000E-02 0. -1.
         -2   -1    0    0    0  501 -0.00000000000E+00 -0.00000000000E+00 -0.46550787304E+00  0.46551485730E+00  0.25500000000E-02 0.  1.
         31    1    1    2    0    0 -0.13478332145E+00 -0.51343727353E+00  0.61686978939E+02  0.62137139305E+02  0.74470750000E+01 0. -1.
        -31    1    1    2    0    0  0.13478332145E+00  0.51343727353E+00  0.57718676716E+02  0.58199539107E+02  0.74470750000E+01 0.  1.
<mgrwt>
<rscale>  0 0.14940066E+02</rscale>
<asrwt>0</asrwt>
<pdfrwt beam="1">  1        2 0.99502785E+00 0.14940066E+02</pdfrwt>
<pdfrwt beam="2">  1       -2 0.98872194E+00 0.14940066E+02</pdfrwt>
<totfact> 0.92593900E-14</totfact>
</mgrwt>
</event>
<event>
 4    1  0.5109406E-019  0.1489990E+02  0.7818608E-02  0.1871138E+00
         -2   -1    0    0    0  501 -0.00000000000E+00  0.00000000000E+00  0.11886968020E+03  0.11886968023E+03  0.25500000000E-02 0. -1.
          2   -1    0    0  501    0  0.00000000000E+00 -0.00000000000E+00 -0.46690926583E+00  0.46691622912E+00  0.25500000000E-02 0.  1.
         31    1    1    2    0    0  0.65215359306E-01  0.11603423424E+00  0.60471022214E+02  0.60927999890E+02  0.74470750000E+01 0.  1.
        -31    1    1    2    0    0 -0.65215359306E-01 -0.11603423424E+00  0.57931748725E+02  0.58408596570E+02  0.74470750000E+01 0.  1.
<mgrwt>
<rscale>  0 0.14899902E+02</rscale>
<asrwt>0</asrwt>
<pdfrwt beam="2">  1        2 0.99165444E+00 0.14899902E+02</pdfrwt>
<pdfrwt beam="1">  1       -2 0.98675848E+00 0.14899902E+02</pdfrwt>
<totfact> 0.35284283E-13</totfact>
</mgrwt>
</event>
<event>
 4    1  0.5109406E-019  0.1491404E+02  0.7818608E-02  0.1870703E+00
          2   -1    0    0  501    0  0.00000000000E+00  0.00000000000E+00  0.11968466142E+03  0.11968466145E+03  0.25500000000E-02 0. -1.
         -2   -1    0    0    0  501 -0.00000000000E+00 -0.00000000000E+00 -0.46461005624E+00  0.46461705399E+00  0.25500000000E-02 0.  1.
         31    1    1    2    0    0 -0.14018088772E-01 -0.30314321020E+00  0.57701882377E+02  0.58181253408E+02  0.74470750000E+01 0.  1.
        -31    1    1    2    0    0  0.14018088772E-01  0.30314321020E+00  0.61518168991E+02  0.61968025096E+02  0.74470750000E+01 0. -1.
<mgrwt>
<rscale>  0 0.14914036E+02</rscale>
<asrwt>0</asrwt>
<pdfrwt beam="1">  1        2 0.99347830E+00 0.14914036E+02</pdfrwt>
<pdfrwt beam="2">  1       -2 0.98681647E+00 0.14914036E+02</pdfrwt>
<totfact> 0.30196525E-13</totfact>
</mgrwt>
</event>
<event>
 4    1  0.5109406E-019  0.1491401E+02  0.7818608E-02  0.1870704E+00
          2   -1    0    0  501    0  0.00000000000E+00  0.00000000000E+00  0.11994089463E+03  0.11994089465E+03  0.25500000000E-02 0.  1.
         -2   -1    0    0    0  501 -0.00000000000E+00 -0.00000000000E+00 -0.46361593359E+00  0.46362294635E+00  0.25500000000E-02 0. -1.
         31    1    1    2    0    0 -0.24039152321E+00 -0.15398962827E+00  0.57656637832E+02  0.58136290844E+02  0.74470750000E+01 0. -1.
        -31    1    1    2    0    0  0.24039152321E+00  0.15398962827E+00  0.61820640862E+02  0.62268226757E+02  0.74470750000E+01 0.  1.
<mgrwt>
<rscale>  0 0.14914011E+02</rscale>
<asrwt>0</asrwt>
<pdfrwt beam="1">  1        2 0.99558879E+00 0.14914011E+02</pdfrwt>
<pdfrwt beam="2">  1       -2 0.98472128E+00 0.14914011E+02</pdfrwt>
<totfact> 0.48985750E-13</totfact>
</mgrwt>
</event>
<event>
 4    1 -0.5109406E-019  0.1498296E+02  0.7818608E-02  0.1868589E+00
          2   -1    0    0  501    0  0.00000000000E+00  0.00000000000E+00  0.11976689272E+03  0.11976689275E+03  0.25500000000E-02 0.  1.
         -2   -1    0    0    0  501 -0.00000000000E+00 -0.00000000000E+00 -0.46859242940E+00  0.46859936769E+00  0.25500000000E-02 0. -1.
         31    1    1    2    0    0 -0.19105587411E+00 -0.78877411960E+00  0.60198422472E+02  0.60662737007E+02  0.74470750000E+01 0.  1.
        -31    1    1    2    0    0  0.19105587411E+00  0.78877411960E+00  0.59099877821E+02  0.59572755110E+02  0.74470750000E+01 0.  1.
<mgrwt>
<rscale>  0 0.14982961E+02</rscale>
<asrwt>0</asrwt>
<pdfrwt beam="1">  1        2 0.99419117E+00 0.14982961E+02</pdfrwt>
<pdfrwt beam="2">  1       -2 0.99524445E+00 0.14982961E+02</pdfrwt>
<totfact>-0.12757626E-13</totfact>
</mgrwt>
</event>
<event>
 4    1  0.5109406E-019  0.1492915E+02  0.7818608E-02  0.1870238E+00
         -2   -1    0    0    0  501 -0.00000000000E+00  0.00000000000E+00  0.11863117169E+03  0.11863117172E+03  0.25500000000E-02 0.  1.
          2   -1    0    0  501    0  0.00000000000E+00 -0.00000000000E+00 -0.46968675371E+00  0.46969367583E+00  0.25500000000E-02 0. -1.
         31    1    1    2    0    0  0.20661573797E+00  0.24957313137E+00  0.62231705409E+02  0.62676543147E+02  0.74470750000E+01 0.  1.
        -31    1    1    2    0    0 -0.20661573797E+00 -0.24957313137E+00  0.55929779528E+02  0.56424322246E+02  0.74470750000E+01 0. -1.
<mgrwt>
<rscale>  0 0.14929153E+02</rscale>
<asrwt>0</asrwt>
<pdfrwt beam="2">  1        2 0.99752226E+00 0.14929153E+02</pdfrwt>
<pdfrwt beam="1">  1       -2 0.98480929E+00 0.14929153E+02</pdfrwt>
<totfact> 0.33005096E-13</totfact>
</mgrwt>
</event>
<event>
 4    1 -0.5109406E-019  0.1494196E+02  0.7818608E-02  0.1869845E+00
         -2   -1    0    0    0  501 -0.00000000000E+00  0.00000000000E+00  0.12023260919E+03  0.12023260922E+03  0.25500000000E-02 0.  1.
          2   -1    0    0  501    0  0.00000000000E+00 -0.00000000000E+00 -0.46422634883E+00  0.46423335236E+00  0.25500000000E-02 0. -1.
         31    1    1    2    0    0  0.41961029286E+00 -0.42333696531E+00  0.59586692720E+02  0.60053211092E+02  0.74470750000E+01 0.  1.
        -31    1    1    2    0    0 -0.41961029286E+00  0.42333696531E+00  0.60181690119E+02  0.60643631477E+02  0.74470750000E+01 0. -1.
<mgrwt>
<rscale>  0 0.14941964E+02</rscale>
<asrwt>0</asrwt>
<pdfrwt beam="2">  1        2 0.98602201E+00 0.14941964E+02</pdfrwt>
<pdfrwt beam="1">  1       -2 0.99800594E+00 0.14941964E+02</pdfrwt>
<totfact>-0.17510241E-13</totfact>
</mgrwt>
</event>
<event>
 4    1  0.5109406E-019  0.1493932E+02  0.7818608E-02  0.1869926E+00
         -2   -1    0    0    0  501 -0.00000000000E+00  0.00000000000E+00  0.11918098002E+03  0.11918098004E+03  0.25500000000E-02 0.  1.
          2   -1    0    0  501    0  0.00000000000E+00 -0.00000000000E+00 -0.46815712542E+00  0.46816407015E+00  0.25500000000E-02 0. -1.
         31    1    1    2    0    0  0.56751509038E+00 -0.10141651761E+00  0.58815737411E+02  0.59288129098E+02  0.74470750000E+01 0.  1.
        -31    1    1    2    0    0 -0.56751509038E+00  0.10141651761E+00  0.59897085481E+02  0.60361015017E+02  0.74470750000E+01 0. -1.
<mgrwt>
<rscale>  0 0.14939323E+02</rscale>
<asrwt>0</asrwt>
<pdfrwt beam="2">  1        2 0.99430448E+00 0.14939323E+02</pdfrwt>
<pdfrwt beam="1">  1       -2 0.98934284E+00 0.14939323E+02</pdfrwt>
<totfact> 0.52157377E-14</totfact>
</mgrwt>
</event>
<event>
 4    1 -0.5109406E-019  0.1498962E+02  0.7818608E-02  0.1868385E+00
          2   -1    0    0  501    0  0.00000000000E+00  0.00000000000E+00  0.11974442292E+03  0.11974442295E+03  0.25500000000E-02 0.  1.
         -2   -1    0    0    0  501 -0.00000000000E+00 -0.00000000000E+00 -0.46909693803E+00  0.46910386885E+00  0.25500000000E-02 0. -1.
         31    1    1    2    0    0 -0.73409299597E+00  0.40606397622E+00  0.58857892929E+02  0.59333079025E+02  0.74470750000E+01 0. -1.
        -31    1    1    2    0    0  0.73409299597E+00 -0.40606397622E+00  0.60417433054E+02  0.60880447792E+02  0.74470750000E+01 0. -1.
<mgrwt>
<rscale>  0 0.14989618E+02</rscale>
<asrwt>0</asrwt>
<pdfrwt beam="1">  1        2 0.99400955E+00 0.14989618E+02</pdfrwt>
<pdfrwt beam="2">  1       -2 0.99631105E+00 0.14989618E+02</pdfrwt>
<totfact>-0.11793608E-13</totfact>
</mgrwt>
</event>
<event>
 4    1 -0.5109406E-019  0.1497556E+02  0.7818608E-02  0.1868815E+00
          2   -1    0    0  501    0  0.00000000000E+00  0.00000000000E+00  0.11944982356E+03  0.11944982359E+03  0.25500000000E-02 0. -1.
         -2   -1    0    0    0  501 -0.00000000000E+00 -0.00000000000E+00 -0.46937205118E+00  0.46937897794E+00  0.25500000000E-02 0.  1.
         31    1    1    2    0    0 -0.28824002019E+00  0.71846415381E+00  0.58746480209E+02  0.59221677923E+02  0.74470750000E+01 0. -1.
        -31    1    1    2    0    0  0.28824002019E+00 -0.71846415381E+00  0.60233971305E+02  0.60697524647E+02  0.74470750000E+01 0.  1.
<mgrwt>
<rscale>  0 0.14975557E+02</rscale>
<asrwt>0</asrwt>
<pdfrwt beam="1">  1        2 0.99157587E+00 0.14975557E+02</pdfrwt>
<pdfrwt beam="2">  1       -2 0.99688347E+00 0.14975557E+02</pdfrwt>
<totfact>-0.12823239E-13</totfact>
</mgrwt>
</event>
<event>
 4    1 -0.5109406E-019  0.1497102E+02  0.7818608E-02  0.1868954E+00
          2   -1    0    0  501    0  0.00000000000E+00  0.00000000000E+00  0.11962598182E+03  0.11962598185E+03  0.25500000000E-02 0.  1.
         -2   -1    0    0    0  501 -0.00000000000E+00 -0.00000000000E+00 -0.46839671284E+00  0.46840365402E+00  0.25500000000E-02 0. -1.
         31    1    1    2    0    0 -0.29624197649E+00  0.40021052406E-01  0.65162720798E+02  0.65587563370E+02  0.74470750000E+01 0.  1.
        -31    1    1    2    0    0  0.29624197649E+00 -0.40021052406E-01  0.53994864309E+02  0.54506822131E+02  0.74470750000E+01 0. -1.
<mgrwt>
<rscale>  0 0.14971017E+02</rscale>
<asrwt>0</asrwt>
<pdfrwt beam="1">  1        2 0.99302441E+00 0.14971017E+02</pdfrwt>
<pdfrwt beam="2">  1       -2 0.99482582E+00 0.14971017E+02</pdfrwt>
<totfact>-0.14092812E-13</totfact>
</mgrwt>
</event>
<event>
 4    1 -0.5109406E-019  0.1496652E+02  0.7818608E-02  0.1869092E+00
         -2   -1    0    0    0  501 -0.00000000000E+00  0.00000000000E+00  0.11968913054E+03  0.11968913057E+03  0.25500000000E-02 0. -1.
          2   -1    0    0  501    0  0.00000000000E+00 -0.00000000000E+00 -0.46786819371E+00  0.46787514273E+00  0.25500000000E-02 0.  1.
         31    1    1    2    0    0 -0.56571051329E+00 -0.32402381390E+00  0.62335681337E+02  0.62782331222E+02  0.74470750000E+01 0. -1.
        -31    1    1    2    0    0  0.56571051329E+00  0.32402381390E+00  0.56885581011E+02  0.57374674490E+02  0.74470750000E+01 0.  1.
<mgrwt>
<rscale>  0 0.14966517E+02</rscale>
<asrwt>0</asrwt>
<pdfrwt beam="2">  1        2 0.99370974E+00 0.14966517E+02</pdfrwt>
<pdfrwt beam="1">  1       -2 0.99354219E+00 0.14966517E+02</pdfrwt>
<totfact>-0.12551657E-13</totfact>
</mgrwt>
</event>
<event>
 4    1  0.5109406E-019  0.1490861E+02  0.7818608E-02  0.1870870E+00
          2   -1    0    0  501    0  0.00000000000E+00  0.00000000000E+00  0.11969830610E+03  0.11969830612E+03  0.25500000000E-02 0. -1.
         -2   -1    0    0    0  501 -0.00000000000E+00 -0.00000000000E+00 -0.46421939590E+00  0.46422639954E+00  0.25500000000E-02 0.  1.
         31    1    1    2    0    0  0.33105749860E-01 -0.94364986022E-01  0.57096833292E+02  0.57580528816E+02  0.74470750000E+01 0.  1.
        -31    1    1    2    0    0 -0.33105749860E-01  0.94364986022E-01  0.62137253408E+02  0.62582003706E+02  0.74470750000E+01 0. -1.
<mgrwt>
<rscale>  0 0.14908615E+02</rscale>
<asrwt>0</asrwt>
<pdfrwt beam="1">  1        2 0.99358789E+00 0.14908615E+02</pdfrwt>
<pdfrwt beam="2">  1       -2 0.98599037E+00 0.14908615E+02</pdfrwt>
<totfact> 0.40458708E-13</totfact>
</mgrwt>
</event>
<event>
 4    1 -0.5109406E-019  0.1498771E+02  0.7818608E-02  0.1868444E+00
         -2   -1    0    0    0  501 -0.00000000000E+00  0.00000000000E+00  0.12001831474E+03  0.12001831477E+03  0.25500000000E-02 0.  1.
          2   -1    0    0  501    0  0.00000000000E+00 -0.00000000000E+00 -0.46790742730E+00  0.46791437574E+00  0.25500000000E-02 0. -1.
         31    1    1    2    0    0 -0.59776708473E+00 -0.16085806835E+00  0.55257927304E+02  0.55760924103E+02  0.74470750000E+01 0. -1.
        -31    1    1    2    0    0  0.59776708473E+00  0.16085806835E+00  0.64292480011E+02  0.64725305043E+02  0.74470750000E+01 0.  1.
<mgrwt>
<rscale>  0 0.14987712E+02</rscale>
<asrwt>0</asrwt>
<pdfrwt beam="2">  1        2 0.99380335E+00 0.14987712E+02</pdfrwt>
<pdfrwt beam="1">  1       -2 0.99626444E+00 0.14987712E+02</pdfrwt>
<totfact>-0.12064070E-13</totfact>
</mgrwt>
</event>
<event>
 4    1  0.5109406E-019  0.1489564E+02  0.7818608E-02  0.1871270E+00
         -2   -1    0    0    0  501 -0.00000000000E+00  0.00000000000E+00  0.11852352302E+03  0.11852352305E+03  0.25500000000E-02 0. -1.
          2   -1    0    0  501    0  0.00000000000E+00 -0.00000000000E+00 -0.46800500058E+00  0.46801194757E+00  0.25500000000E-02 0.  1.
         31    1    1    2    0    0 -0.60867204741E-01  0.69815965968E-01  0.58627442469E+02  0.59098599946E+02  0.74470750000E+01 0.  1.
        -31    1    1    2    0    0  0.60867204741E-01 -0.69815965968E-01  0.59428075555E+02  0.59892935054E+02  0.74470750000E+01 0. -1.
<mgrwt>
<rscale>  0 0.14895639E+02</rscale>
<asrwt>0</asrwt>
<pdfrwt beam="2">  1        2 0.99396109E+00 0.14895639E+02</pdfrwt>
<pdfrwt beam="1">  1       -2 0.98390527E+00 0.14895639E+02</pdfrwt>
<totfact> 0.70947904E-13</totfact>
</mgrwt>
</event>
<event>
 4    1 -0.5109406E-019  0.1494786E+02  0.7818608E-02  0.1869664E+00
          2   -1    0    0  501    0  0.00000000000E+00  0.00000000000E+00  0.11882248099E+03  0.11882248101E+03  0.25500000000E-02 0.  1.
         -2   -1    0    0    0  501 -0.00000000000E+00 -0.00000000000E+00 -0.47010663867E+00  0.47011355460E+00  0.25500000000E-02 0. -1.
         31    1    1    2    0    0 -0.35269209936E+00 -0.45087915338E+00  0.61333033469E+02  0.61786144113E+02  0.74470750000E+01 0.  1.
        -31    1    1    2    0    0  0.35269209936E+00  0.45087915338E+00  0.57019340877E+02  0.57506450454E+02  0.74470750000E+01 0. -1.
<mgrwt>
<rscale>  0 0.14947863E+02</rscale>
<asrwt>0</asrwt>
<pdfrwt beam="1">  1        2 0.98639464E+00 0.14947863E+02</pdfrwt>
<pdfrwt beam="2">  1       -2 0.99841683E+00 0.14947863E+02</pdfrwt>
<totfact>-0.13657523E-13</totfact>
</mgrwt>
</event>
<event>
 4    1 -0.5109406E-019  0.1490206E+02  0.7818608E-02  0.1871072E+00
         -2   -1    0    0    0  501 -0.00000000000E+00  0.00000000000E+00  0.11940965855E+03  0.11940965858E+03  0.25500000000E-02 0. -1.
          2   -1    0    0  501    0  0.00000000000E+00 -0.00000000000E+00 -0.46493223756E+00  0.46493923046E+00  0.25500000000E-02 0.  1.
         31    1    1    2    0    0  0.21233052413E+00  0.11629417905E+00  0.59336357089E+02  0.59802347841E+02  0.74470750000E+01 0. -1.
        -31    1    1    2    0    0 -0.21233052413E+00 -0.11629417905E+00  0.59608369224E+02  0.60072249967E+02  0.74470750000E+01 0.  1.
<mgrwt>
<rscale>  0 0.14902056E+02</rscale>
<asrwt>0</asrwt>
<pdfrwt beam="2">  1        2 0.98748931E+00 0.14902056E+02</pdfrwt>
<pdfrwt beam="1">  1       -2 0.99120705E+00 0.14902056E+02</pdfrwt>
<totfact>-0.10114923E-13</totfact>
</mgrwt>
</event>
<event>
 4    1  0.5109406E-019  0.1490607E+02  0.7818608E-02  0.1870948E+00
          2   -1    0    0  501    0  0.00000000000E+00  0.00000000000E+00  0.11986890457E+03  0.11986890460E+03  0.25500000000E-02 0. -1.
         -2   -1    0    0    0  501 -0.00000000000E+00 -0.00000000000E+00 -0.46340034128E+00  0.46340735730E+00  0.25500000000E-02 0.  1.
         31    1    1    2    0    0  0.43602095494E-01 -0.22070081529E+00  0.58125389954E+02  0.58600942768E+02  0.74470750000E+01 0.  1.
        -31    1    1    2    0    0 -0.43602095494E-01  0.22070081529E+00  0.61280114274E+02  0.61731369185E+02  0.74470750000E+01 0. -1.
<mgrwt>
<rscale>  0 0.14906068E+02</rscale>
<asrwt>0</asrwt>
<pdfrwt beam="1">  1        2 0.99499175E+00 0.14906068E+02</pdfrwt>
<pdfrwt beam="2">  1       -2 0.98426285E+00 0.14906068E+02</pdfrwt>
<totfact> 0.59133666E-13</totfact>
</mgrwt>
</event>
<event>
 4    1 -0.5109406E-019  0.1492308E+02  0.7818608E-02  0.1870425E+00
         -2   -1    0    0    0  501 -0.00000000000E+00  0.00000000000E+00  0.12013037427E+03  0.12013037430E+03  0.25500000000E-02 0. -1.
          2   -1    0    0  501    0  0.00000000000E+00 -0.00000000000E+00 -0.46344799525E+00  0.46345501055E+00  0.25500000000E-02 0.  1.
         31    1    1    2    0    0 -0.17858991446E-01  0.12539922949E-01  0.63582253795E+02  0.64016891521E+02  0.74470750000E+01 0. -1.
        -31    1    1    2    0    0  0.17858991446E-01 -0.12539922949E-01  0.56084672481E+02  0.56576937788E+02  0.74470750000E+01 0.  1.
<mgrwt>
<rscale>  0 0.14923084E+02</rscale>
<asrwt>0</asrwt>
<pdfrwt beam="2">  1        2 0.98437193E+00 0.14923084E+02</pdfrwt>
<pdfrwt beam="1">  1       -2 0.99715416E+00 0.14923084E+02</pdfrwt>
<totfact>-0.29757758E-13</totfact>
</mgrwt>
</event>
<event>
 4    1  0.5109406E-019  0.1495548E+02  0.7818608E-02  0.1869430E+00
          2   -1    0    0  501    0  0.00000000000E+00  0.00000000000E+00  0.12030529192E+03  0.12030529194E+03  0.25500000000E-02 0. -1.
         -2   -1    0    0    0  501 -0.00000000000E+00 -0.00000000000E+00 -0.46478574242E+00  0.46479273753E+00  0.25500000000E-02 0.  1.
         31    1    1    2    0    0 -0.63560486083E+00 -0.10195639995E+00  0.58240012137E+02  0.58717734361E+02  0.74470750000E+01 0. -1.
        -31    1    1    2    0    0  0.63560486083E+00  0.10195639995E+00  0.61600494035E+02  0.62052350319E+02  0.74470750000E+01 0.  1.
<mgrwt>
<rscale>  0 0.14955482E+02</rscale>
<asrwt>0</asrwt>
<pdfrwt beam="1">  1        2 0.99861156E+00 0.14955482E+02</pdfrwt>
<pdfrwt beam="2">  1       -2 0.98720787E+00 0.14955482E+02</pdfrwt>
<totfact> 0.91728027E-14</totfact>
</mgrwt>
</event>
<event>
 4    1  0.5109406E-019  0.1494609E+02  0.7818608E-02  0.1869718E+00
          2   -1    0    0  501    0  0.00000000000E+00  0.00000000000E+00  0.11996265513E+03  0.11996265515E+03  0.25500000000E-02 0. -1.
         -2   -1    0    0    0  501 -0.00000000000E+00 -0.00000000000E+00 -0.46552797492E+00  0.46553495887E+00  0.25500000000E-02 0.  1.
         31    1    1    2    0    0  0.21225043992E+00  0.51974657349E+00  0.57582289166E+02  0.58064568701E+02  0.74470750000E+01 0.  1.
        -31    1    1    2    0    0 -0.21225043992E+00 -0.51974657349E+00  0.61914837984E+02  0.62363621410E+02  0.74470750000E+01 0. -1.
<mgrwt>
<rscale>  0 0.14946089E+02</rscale>
<asrwt>0</asrwt>
<pdfrwt beam="1">  1        2 0.99578454E+00 0.14946089E+02</pdfrwt>
<pdfrwt beam="2">  1       -2 0.98876739E+00 0.14946089E+02</pdfrwt>
<totfact> 0.81572617E-14</totfact>
</mgrwt>
</event>
<event>
 4    1 -0.5109406E-019  0.1496246E+02  0.7818608E-02  0.1869216E+00
          2   -1    0    0  501    0  0.00000000000E+00  0.00000000000E+00  0.11989660002E+03  0.11989660005E+03  0.25500000000E-02 0. -1.
         -2   -1    0    0    0  501 -0.00000000000E+00 -0.00000000000E+00 -0.46680569445E+00  0.46681265928E+00  0.25500000000E-02 0.  1.
         31    1    1    2    0    0  0.25579081094E+00 -0.14212249791E+00  0.64954748687E+02  0.65380914117E+02  0.74470750000E+01 0. -1.
        -31    1    1    2    0    0 -0.25579081094E+00  0.14212249791E+00  0.54475045640E+02  0.54982498591E+02  0.74470750000E+01 0.  1.
<mgrwt>
<rscale>  0 0.14962465E+02</rscale>
<asrwt>0</asrwt>
<pdfrwt beam="1">  1        2 0.99524891E+00 0.14962465E+02</pdfrwt>
<pdfrwt beam="2">  1       -2 0.99146855E+00 0.14962465E+02</pdfrwt>
<totfact>-0.59085041E-14</totfact>
</mgrwt>
</event>
<event>
 4    1 -0.5109406E-019  0.1489851E+02  0.7818608E-02  0.1871182E+00
          2   -1    0    0  501    0  0.00000000000E+00  0.00000000000E+00  0.11832714302E+03  0.11832714305E+03  0.25500000000E-02 0.  1.
         -2   -1    0    0    0  501 -0.00000000000E+00 -0.00000000000E+00 -0.46896214640E+00  0.46896907921E+00  0.25500000000E-02 0. -1.
         31    1    1    2    0    0  0.60783329586E-01  0.13758832013E+00  0.58139204336E+02  0.58614406352E+02  0.74470750000E+01 0. -1.
        -31    1    1    2    0    0 -0.60783329586E-01 -0.13758832013E+00  0.59718976542E+02  0.60181705779E+02  0.74470750000E+01 0.  1.
<mgrwt>
<rscale>  0 0.14898505E+02</rscale>
<asrwt>0</asrwt>
<pdfrwt beam="1">  1        2 0.98228937E+00 0.14898505E+02</pdfrwt>
<pdfrwt beam="2">  1       -2 0.99597935E+00 0.14898505E+02</pdfrwt>
<totfact>-0.51358107E-13</totfact>
</mgrwt>
</event>
<event>
 4    1 -0.5109406E-019  0.1490339E+02  0.7818608E-02  0.1871031E+00
         -2   -1    0    0    0  501 -0.00000000000E+00  0.00000000000E+00  0.12031932914E+03  0.12031932917E+03  0.25500000000E-02 0.  1.
          2   -1    0    0  501    0  0.00000000000E+00 -0.00000000000E+00 -0.46149978824E+00  0.46150683315E+00  0.25500000000E-02 0. -1.
         31    1    1    2    0    0 -0.22547816768E+00 -0.12155975630E-01  0.61011909823E+02  0.61465136903E+02  0.74470750000E+01 0.  1.
        -31    1    1    2    0    0  0.22547816768E+00  0.12155975630E-01  0.58845919528E+02  0.59315699097E+02  0.74470750000E+01 0. -1.
<mgrwt>
<rscale>  0 0.14903392E+02</rscale>
<asrwt>0</asrwt>
<pdfrwt beam="2">  1        2 0.98025570E+00 0.14903392E+02</pdfrwt>
<pdfrwt beam="1">  1       -2 0.99870046E+00 0.14903392E+02</pdfrwt>
<totfact>-0.31608323E-13</totfact>
</mgrwt>
</event>
<event>
 4    1  0.5109406E-019  0.1492036E+02  0.7818608E-02  0.1870509E+00
          2   -1    0    0  501    0  0.00000000000E+00  0.00000000000E+00  0.11994139431E+03  0.11994139434E+03  0.25500000000E-02 0.  1.
         -2   -1    0    0    0  501 -0.00000000000E+00 -0.00000000000E+00 -0.46400866443E+00  0.46401567125E+00  0.25500000000E-02 0. -1.
         31    1    1    2    0    0  0.22124542973E+00 -0.17383970921E+00  0.56988134417E+02  0.57473346520E+02  0.74470750000E+01 0. -1.
        -31    1    1    2    0    0 -0.22124542973E+00  0.17383970921E+00  0.62489251233E+02  0.62932063493E+02  0.74470750000E+01 0.  1.
<mgrwt>
<rscale>  0 0.14920358E+02</rscale>
<asrwt>0</asrwt>
<pdfrwt beam="1">  1        2 0.99559617E+00 0.14920358E+02</pdfrwt>
<pdfrwt beam="2">  1       -2 0.98555223E+00 0.14920358E+02</pdfrwt>
<totfact> 0.38485941E-13</totfact>
</mgrwt>
</event>
<event>
 4    1 -0.5109406E-019  0.1489894E+02  0.7818608E-02  0.1871168E+00
          2   -1    0    0  501    0  0.00000000000E+00  0.00000000000E+00  0.11794970165E+03  0.11794970167E+03  0.25500000000E-02 0. -1.
         -2   -1    0    0    0  501 -0.00000000000E+00 -0.00000000000E+00 -0.47049026762E+00  0.47049717791E+00  0.25500000000E-02 0.  1.
         31    1    1    2    0    0  0.14919205583E+00 -0.86766992165E-01  0.58129885319E+02  0.58605223999E+02  0.74470750000E+01 0.  1.
        -31    1    1    2    0    0 -0.14919205583E+00  0.86766992165E-01  0.59349326061E+02  0.59814974853E+02  0.74470750000E+01 0. -1.
<mgrwt>
<rscale>  0 0.14898939E+02</rscale>
<asrwt>0</asrwt>
<pdfrwt beam="1">  1        2 0.97918106E+00 0.14898939E+02</pdfrwt>
<pdfrwt beam="2">  1       -2 0.99919920E+00 0.14898939E+02</pdfrwt>
<totfact>-0.24184713E-13</totfact>
</mgrwt>
</event>
<event>
 4    1 -0.5109406E-019  0.1494196E+02  0.7818608E-02  0.1869845E+00
         -2   -1    0    0    0  501 -0.00000000000E+00  0.00000000000E+00  0.12026730941E+03  0.12026730944E+03  0.25500000000E-02 0. -1.
          2   -1    0    0  501    0  0.00000000000E+00 -0.00000000000E+00 -0.46409224523E+00  0.46409925078E+00  0.25500000000E-02 0.  1.
         31    1    1    2    0    0 -0.32321410305E+00  0.36844404510E+00  0.57144842660E+02  0.57630132631E+02  0.74470750000E+01 0. -1.
        -31    1    1    2    0    0  0.32321410305E+00 -0.36844404510E+00  0.62658374509E+02  0.63101276061E+02  0.74470750000E+01 0. -1.
<mgrwt>
<rscale>  0 0.14941961E+02</rscale>
<asrwt>0</asrwt>
<pdfrwt beam="2">  1        2 0.98573936E+00 0.14941961E+02</pdfrwt>
<pdfrwt beam="1">  1       -2 0.99829176E+00 0.14941961E+02</pdfrwt>
<totfact>-0.16104344E-13</totfact>
</mgrwt>
</event>
<event>
 4    1  0.5109406E-019  0.1494268E+02  0.7818608E-02  0.1869823E+00
         -2   -1    0    0    0  501 -0.00000000000E+00  0.00000000000E+00  0.11888437369E+03  0.11888437372E+03  0.25500000000E-02 0.  1.
          2   -1    0    0  501    0  0.00000000000E+00 -0.00000000000E+00 -0.46953624198E+00  0.46954316632E+00  0.25500000000E-02 0. -1.
         31    1    1    2    0    0  0.58792852837E+00 -0.30948536240E-01  0.60198412649E+02  0.60660155203E+02  0.74470750000E+01 0.  1.
        -31    1    1    2    0    0 -0.58792852837E+00  0.30948536240E-01  0.58216424803E+02  0.58693761684E+02  0.74470750000E+01 0. -1.
<mgrwt>
<rscale>  0 0.14942682E+02</rscale>
<asrwt>0</asrwt>
<pdfrwt beam="2">  1        2 0.99721225E+00 0.14942682E+02</pdfrwt>
<pdfrwt beam="1">  1       -2 0.98690169E+00 0.14942682E+02</pdfrwt>
<totfact> 0.17967240E-13</totfact>
</mgrwt>
</event>
<event>
 4    1  0.5109406E-019  0.1496211E+02  0.7818608E-02  0.1869227E+00
          2   -1    0    0  501    0  0.00000000000E+00  0.00000000000E+00  0.12031815946E+03  0.12031815949E+03  0.25500000000E-02 0.  1.
         -2   -1    0    0    0  501 -0.00000000000E+00 -0.00000000000E+00 -0.46514808248E+00  0.46515507214E+00  0.25500000000E-02 0. -1.
         31    1    1    2    0    0  0.45225900413E+00 -0.15341668360E+00  0.55661109918E+02  0.56159114649E+02  0.74470750000E+01 0. -1.
        -31    1    1    2    0    0 -0.45225900413E+00  0.15341668360E+00  0.64191901459E+02  0.64624199909E+02  0.74470750000E+01 0.  1.
<mgrwt>
<rscale>  0 0.14962110E+02</rscale>
<asrwt>0</asrwt>
<pdfrwt beam="1">  1        2 0.99872095E+00 0.14962110E+02</pdfrwt>
<pdfrwt beam="2">  1       -2 0.98797491E+00 0.14962110E+02</pdfrwt>
<totfact> 0.58400177E-14</totfact>
</mgrwt>
</event>
<event>
 4    1 -0.5109406E-019  0.1494202E+02  0.7818608E-02  0.1869843E+00
          2   -1    0    0  501    0  0.00000000000E+00  0.00000000000E+00  0.11856434619E+03  0.11856434622E+03  0.25500000000E-02 0.  1.
         -2   -1    0    0    0  501 -0.00000000000E+00 -0.00000000000E+00 -0.47076203975E+00  0.47076894605E+00  0.25500000000E-02 0. -1.
         31    1    1    2    0    0  0.71965421574E-01  0.39050305435E+00  0.55489353034E+02  0.55988256786E+02  0.74470750000E+01 0. -1.
        -31    1    1    2    0    0 -0.71965421574E-01 -0.39050305435E+00  0.62604231115E+02  0.63046858377E+02  0.74470750000E+01 0.  1.
<mgrwt>
<rscale>  0 0.14942022E+02</rscale>
<asrwt>0</asrwt>
<pdfrwt beam="1">  1        2 0.98426562E+00 0.14942022E+02</pdfrwt>
<pdfrwt beam="2">  1       -2 0.99979467E+00 0.14942022E+02</pdfrwt>
<totfact>-0.27794055E-14</totfact>
</mgrwt>
</event>
<event>
 4    1 -0.5109406E-019  0.1496586E+02  0.7818608E-02  0.1869112E+00
          2   -1    0    0  501    0  0.00000000000E+00  0.00000000000E+00  0.11929160057E+03  0.11929160059E+03  0.25500000000E-02 0. -1.
         -2   -1    0    0    0  501 -0.00000000000E+00 -0.00000000000E+00 -0.46938624913E+00  0.46939317568E+00  0.25500000000E-02 0.  1.
         31    1    1    2    0    0 -0.68843879378E+00 -0.23192257814E+00  0.60108326965E+02  0.60572251342E+02  0.74470750000E+01 0. -1.
        -31    1    1    2    0    0  0.68843879378E+00  0.23192257814E+00  0.58713887352E+02  0.59188742427E+02  0.74470750000E+01 0. -1.
<mgrwt>
<rscale>  0 0.14965862E+02</rscale>
<asrwt>0</asrwt>
<pdfrwt beam="1">  1        2 0.99026769E+00 0.14965862E+02</pdfrwt>
<pdfrwt beam="2">  1       -2 0.99690833E+00 0.14965862E+02</pdfrwt>
<totfact>-0.14223182E-13</totfact>
</mgrwt>
</event>
<event>
 4    1  0.5109406E-019  0.1492558E+02  0.7818608E-02  0.1870348E+00
          2   -1    0    0  501    0  0.00000000000E+00  0.00000000000E+00  0.12005571839E+03  0.12005571842E+03  0.25500000000E-02 0.  1.
         -2   -1    0    0    0  501 -0.00000000000E+00 -0.00000000000E+00 -0.46389156824E+00  0.46389857683E+00  0.25500000000E-02 0. -1.
         31    1    1    2    0    0  0.28825530703E+00  0.38819123010E+00  0.59606572701E+02  0.60071925379E+02  0.74470750000E+01 0. -1.
        -31    1    1    2    0    0 -0.28825530703E+00 -0.38819123010E+00  0.59985254120E+02  0.60447691614E+02  0.74470750000E+01 0.  1.
<mgrwt>
<rscale>  0 0.14925583E+02</rscale>
<asrwt>0</asrwt>
<pdfrwt beam="1">  1        2 0.99654052E+00 0.14925583E+02</pdfrwt>
<pdfrwt beam="2">  1       -2 0.98530809E+00 0.14925583E+02</pdfrwt>
<totfact> 0.35926563E-13</totfact>
</mgrwt>
</event>
<event>
 4    1 -0.5109406E-019  0.1492992E+02  0.7818608E-02  0.1870215E+00
          2   -1    0    0  501    0  0.00000000000E+00  0.00000000000E+00  0.11897494869E+03  0.11897494872E+03  0.25500000000E-02 0. -1.
         -2   -1    0    0    0  501 -0.00000000000E+00 -0.00000000000E+00 -0.46837743813E+00  0.46838437959E+00  0.25500000000E-02 0.  1.
         31    1    1    2    0    0 -0.47664845324E+00  0.25407459992E-01  0.60829815873E+02  0.61285832495E+02  0.74470750000E+01 0. -1.
        -31    1    1    2    0    0  0.47664845324E+00 -0.25407459992E-01  0.57676755380E+02  0.58157500604E+02  0.74470750000E+01 0. -1.
<mgrwt>
<rscale>  0 0.14929916E+02</rscale>
<asrwt>0</asrwt>
<pdfrwt beam="1">  1        2 0.98764105E+00 0.14929916E+02</pdfrwt>
<pdfrwt beam="2">  1       -2 0.99476382E+00 0.14929916E+02</pdfrwt>
<totfact>-0.23452214E-13</totfact>
</mgrwt>
</event>
<event>
 4    1 -0.5109406E-019  0.1497412E+02  0.7818608E-02  0.1868859E+00
         -2   -1    0    0    0  501 -0.00000000000E+00  0.00000000000E+00  0.12011487801E+03  0.12011487803E+03  0.25500000000E-02 0.  1.
          2   -1    0    0  501    0  0.00000000000E+00 -0.00000000000E+00 -0.46668359223E+00  0.46669055889E+00  0.25500000000E-02 0. -1.
         31    1    1    2    0    0 -0.26333172849E+00  0.35590192803E+00  0.54723965068E+02  0.55230130260E+02  0.74470750000E+01 0. -1.
        -31    1    1    2    0    0  0.26333172849E+00 -0.35590192803E+00  0.64924229345E+02  0.65351438331E+02  0.74470750000E+01 0.  1.
<mgrwt>
<rscale>  0 0.14974120E+02</rscale>
<asrwt>0</asrwt>
<pdfrwt beam="2">  1        2 0.99121720E+00 0.14974120E+02</pdfrwt>
<pdfrwt beam="1">  1       -2 0.99705278E+00 0.14974120E+02</pdfrwt>
<totfact>-0.12720748E-13</totfact>
</mgrwt>
</event>
<event>
 4    1  0.5109406E-019  0.1493929E+02  0.7818608E-02  0.1869927E+00
         -2   -1    0    0    0  501 -0.00000000000E+00  0.00000000000E+00  0.11864697789E+03  0.11864697792E+03  0.25500000000E-02 0. -1.
          2   -1    0    0  501    0  0.00000000000E+00 -0.00000000000E+00 -0.47026226158E+00  0.47026917523E+00  0.25500000000E-02 0.  1.
         31    1    1    2    0    0 -0.21662931663E+00  0.70718445725E-01  0.63343162798E+02  0.63779833244E+02  0.74470750000E+01 0. -1.
        -31    1    1    2    0    0  0.21662931663E+00 -0.70718445725E-01  0.54833552828E+02  0.55337413846E+02  0.74470750000E+01 0.  1.
<mgrwt>
<rscale>  0 0.14939292E+02</rscale>
<asrwt>0</asrwt>
<pdfrwt beam="2">  1        2 0.99874021E+00 0.14939292E+02</pdfrwt>
<pdfrwt beam="1">  1       -2 0.98494474E+00 0.14939292E+02</pdfrwt>
<totfact> 0.18492054E-13</totfact>
</mgrwt>
</event>
<event>
 4    1 -0.5109406E-019  0.1494301E+02  0.7818608E-02  0.1869813E+00
          2   -1    0    0  501    0  0.00000000000E+00  0.00000000000E+00  0.11934271871E+03  0.11934271873E+03  0.25500000000E-02 0. -1.
         -2   -1    0    0    0  501 -0.00000000000E+00 -0.00000000000E+00 -0.46775327707E+00  0.46776022780E+00  0.25500000000E-02 0.  1.
         31    1    1    2    0    0 -0.88027973238E-02  0.59000932600E+00  0.58415367131E+02  0.58891104859E+02  0.74470750000E+01 0. -1.
        -31    1    1    2    0    0  0.88027973238E-02 -0.59000932600E+00  0.60459598298E+02  0.60919374101E+02  0.74470750000E+01 0. -1.
<mgrwt>
<rscale>  0 0.14943007E+02</rscale>
<asrwt>0</asrwt>
<pdfrwt beam="1">  1        2 0.99067687E+00 0.14943007E+02</pdfrwt>
<pdfrwt beam="2">  1       -2 0.99345539E+00 0.14943007E+02</pdfrwt>
<totfact>-0.15616251E-13</totfact>
</mgrwt>
</event>
<event>
 4    1  0.5109406E-019  0.1490988E+02  0.7818608E-02  0.1870831E+00
          2   -1    0    0  501    0  0.00000000000E+00  0.00000000000E+00  0.11965944409E+03  0.11965944412E+03  0.25500000000E-02 0. -1.
         -2   -1    0    0    0  501 -0.00000000000E+00 -0.00000000000E+00 -0.46444874755E+00  0.46445574773E+00  0.25500000000E-02 0.  1.
         31    1    1    2    0    0 -0.31726824574E-01  0.23915568893E+00  0.61554006155E+02  0.62003328958E+02  0.74470750000E+01 0. -1.
        -31    1    1    2    0    0  0.31726824574E-01 -0.23915568893E+00  0.57640989191E+02  0.58120570911E+02  0.74470750000E+01 0.  1.
<mgrwt>
<rscale>  0 0.14909876E+02</rscale>
<asrwt>0</asrwt>
<pdfrwt beam="1">  1        2 0.99326845E+00 0.14909876E+02</pdfrwt>
<pdfrwt beam="2">  1       -2 0.98647438E+00 0.14909876E+02</pdfrwt>
<totfact> 0.34964606E-13</totfact>
</mgrwt>
</event>
<event>
 4    1 -0.5109406E-019  0.1490278E+02  0.7818608E-02  0.1871050E+00
         -2   -1    0    0    0  501 -0.00000000000E+00  0.00000000000E+00  0.11985319417E+03  0.11985319420E+03  0.25500000000E-02 0. -1.
          2   -1    0    0  501    0  0.00000000000E+00 -0.00000000000E+00 -0.46325636505E+00  0.46326338325E+00  0.25500000000E-02 0.  1.
         31    1    1    2    0    0 -0.65233312850E-01  0.23223274148E+00  0.59066204103E+02  0.59534305914E+02  0.74470750000E+01 0.  1.
        -31    1    1    2    0    0  0.65233312850E-01 -0.23223274148E+00  0.60323733700E+02  0.60782151665E+02  0.74470750000E+01 0. -1.
<mgrwt>
<rscale>  0 0.14902775E+02</rscale>
<asrwt>0</asrwt>
<pdfrwt beam="2">  1        2 0.98395773E+00 0.14902775E+02</pdfrwt>
<pdfrwt beam="1">  1       -2 0.99486065E+00 0.14902775E+02</pdfrwt>
<totfact>-0.41307784E-13</totfact>
</mgrwt>
</event>
<event>
 4    1 -0.5109406E-019  0.1497245E+02  0.7818608E-02  0.1868910E+00
          2   -1    0    0  501    0  0.00000000000E+00  0.00000000000E+00  0.11965126376E+03  0.11965126379E+03  0.25500000000E-02 0.  1.
         -2   -1    0    0    0  501 -0.00000000000E+00 -0.00000000000E+00 -0.46838722444E+00  0.46839416576E+00  0.25500000000E-02 0. -1.
         31    1    1    2    0    0 -0.47413865911E+00 -0.38780531789E+00  0.63262786525E+02  0.63702545360E+02  0.74470750000E+01 0.  1.
        -31    1    1    2    0    0  0.47413865911E+00  0.38780531789E+00  0.55920090012E+02  0.56417112594E+02  0.74470750000E+01 0. -1.
<mgrwt>
<rscale>  0 0.14972447E+02</rscale>
<asrwt>0</asrwt>
<pdfrwt beam="1">  1        2 0.99323338E+00 0.14972447E+02</pdfrwt>
<pdfrwt beam="2">  1       -2 0.99480657E+00 0.14972447E+02</pdfrwt>
<totfact>-0.13882213E-13</totfact>
</mgrwt>
</event>
<event>
 4    1 -0.5109406E-019  0.1495241E+02  0.7818608E-02  0.1869524E+00
         -2   -1    0    0    0  501 -0.00000000000E+00  0.00000000000E+00  0.12022245160E+03  0.12022245163E+03  0.25500000000E-02 0.  1.
          2   -1    0    0  501    0  0.00000000000E+00 -0.00000000000E+00 -0.46491478352E+00  0.46492177669E+00  0.25500000000E-02 0. -1.
         31    1    1    2    0    0  0.26357719213E-01 -0.60292986606E+00  0.62021479306E+02  0.62469889070E+02  0.74470750000E+01 0. -1.
        -31    1    1    2    0    0 -0.26357719213E-01  0.60292986606E+00  0.57736057513E+02  0.58217484335E+02  0.74470750000E+01 0. -1.
<mgrwt>
<rscale>  0 0.14952407E+02</rscale>
<asrwt>0</asrwt>
<pdfrwt beam="2">  1        2 0.98747827E+00 0.14952407E+02</pdfrwt>
<pdfrwt beam="1">  1       -2 0.99792764E+00 0.14952407E+02</pdfrwt>
<totfact>-0.14618751E-13</totfact>
</mgrwt>
</event>
<event>
 4    1 -0.5109406E-019  0.1499582E+02  0.7818608E-02  0.1868196E+00
          2   -1    0    0  501    0  0.00000000000E+00  0.00000000000E+00  0.12008053036E+03  0.12008053038E+03  0.25500000000E-02 0.  1.
         -2   -1    0    0    0  501 -0.00000000000E+00 -0.00000000000E+00 -0.46817103518E+00  0.46817797971E+00  0.25500000000E-02 0. -1.
         31    1    1    2    0    0 -0.24397743367E-01 -0.53715776293E+00  0.54291603089E+02  0.54802611487E+02  0.74470750000E+01 0. -1.
        -31    1    1    2    0    0  0.24397743367E-01  0.53715776293E+00  0.65320756231E+02  0.65746096876E+02  0.74470750000E+01 0.  1.
<mgrwt>
<rscale>  0 0.14995819E+02</rscale>
<asrwt>0</asrwt>
<pdfrwt beam="1">  1        2 0.99678106E+00 0.14995819E+02</pdfrwt>
<pdfrwt beam="2">  1       -2 0.99436306E+00 0.14995819E+02</pdfrwt>
<totfact>-0.91919487E-14</totfact>
</mgrwt>
</event>
<event>
 4    1 -0.5109406E-019  0.1495656E+02  0.7818608E-02  0.1869397E+00
          2   -1    0    0  501    0  0.00000000000E+00  0.00000000000E+00  0.11894830165E+03  0.11894830168E+03  0.25500000000E-02 0.  1.
         -2   -1    0    0    0  501 -0.00000000000E+00 -0.00000000000E+00 -0.47015589069E+00  0.47016280590E+00  0.25500000000E-02 0. -1.
         31    1    1    2    0    0 -0.33891620335E+00  0.43689987500E+00  0.62432689872E+02  0.62877702220E+02  0.74470750000E+01 0.  1.
        -31    1    1    2    0    0  0.33891620335E+00 -0.43689987500E+00  0.56045455887E+02  0.56540762264E+02  0.74470750000E+01 0. -1.
<mgrwt>
<rscale>  0 0.14956558E+02</rscale>
<asrwt>0</asrwt>
<pdfrwt beam="1">  1        2 0.98743542E+00 0.14956558E+02</pdfrwt>
<pdfrwt beam="2">  1       -2 0.99852518E+00 0.14956558E+02</pdfrwt>
<totfact>-0.11069507E-13</totfact>
</mgrwt>
</event>
<event>
 4    1 -0.5109406E-019  0.1490160E+02  0.7818608E-02  0.1871086E+00
         -2   -1    0    0    0  501 -0.00000000000E+00  0.00000000000E+00  0.11991490540E+03  0.11991490542E+03  0.25500000000E-02 0. -1.
          2   -1    0    0  501    0  0.00000000000E+00 -0.00000000000E+00 -0.46294520300E+00  0.46295222592E+00  0.25500000000E-02 0.  1.
         31    1    1    2    0    0  0.42065365092E-02 -0.52960700334E-01  0.61580551151E+02  0.62029235274E+02  0.74470750000E+01 0. -1.
        -31    1    1    2    0    0 -0.42065365092E-02  0.52960700334E-01  0.57871409042E+02  0.58348622375E+02  0.74470750000E+01 0.  1.
<mgrwt>
<rscale>  0 0.14901605E+02</rscale>
<asrwt>0</asrwt>
<pdfrwt beam="2">  1        2 0.98330133E+00 0.14901605E+02</pdfrwt>
<pdfrwt beam="1">  1       -2 0.99536835E+00 0.14901605E+02</pdfrwt>
<totfact>-0.45404602E-13</totfact>
</mgrwt>
</event>
<event>
 4    1 -0.5109406E-019  0.1493803E+02  0.7818608E-02  0.1869966E+00
         -2   -1    0    0    0  501 -0.00000000000E+00  0.00000000000E+00  0.11986253667E+03  0.11986253669E+03  0.25500000000E-02 0. -1.
          2   -1    0    0  501    0  0.00000000000E+00 -0.00000000000E+00 -0.46541430434E+00  0.46542129000E+00  0.25500000000E-02 0.  1.
         31    1    1    2    0    0 -0.49969072112E+00 -0.25773707700E+00  0.60547825653E+02  0.61006673706E+02  0.74470750000E+01 0. -1.
        -31    1    1    2    0    0  0.49969072112E+00  0.25773707700E+00  0.58849296709E+02  0.59321284278E+02  0.74470750000E+01 0. -1.
<mgrwt>
<rscale>  0 0.14938027E+02</rscale>
<asrwt>0</asrwt>
<pdfrwt beam="2">  1        2 0.98852370E+00 0.14938027E+02</pdfrwt>
<pdfrwt beam="1">  1       -2 0.99495575E+00 0.14938027E+02</pdfrwt>
<totfact>-0.20937468E-13</totfact>
</mgrwt>
</event>
<event>
 4    1  0.5109406E-019  0.1490321E+02  0.7818608E-02  0.1871036E+00
          2   -1    0    0  501    0  0.00000000000E+00  0.00000000000E+00  0.12017599515E+03  0.12017599518E+03  0.25500000000E-02 0. -1.
         -2   -1    0    0    0  501 -0.00000000000E+00 -0.00000000000E+00 -0.46203916270E+00  0.46204619939E+00  0.25500000000E-02 0.  1.
         31    1    1    2    0    0  0.11201060067E+00  0.20537269052E+00  0.58941450081E+02  0.59410505704E+02  0.74470750000E+01 0. -1.
        -31    1    1    2    0    0 -0.11201060067E+00 -0.20537269052E+00  0.60772505908E+02  0.61227535674E+02  0.74470750000E+01 0. -1.
<mgrwt>
<rscale>  0 0.14903213E+02</rscale>
<asrwt>0</asrwt>
<pdfrwt beam="1">  1        2 0.99751973E+00 0.14903213E+02</pdfrwt>
<pdfrwt beam="2">  1       -2 0.98139248E+00 0.14903213E+02</pdfrwt>
<totfact> 0.71312845E-13</totfact>
</mgrwt>
</event>
<event>
 4    1  0.5109406E-019  0.1492389E+02  0.7818608E-02  0.1870400E+00
         -2   -1    0    0    0  501 -0.00000000000E+00  0.00000000000E+00  0.11882070645E+03  0.11882070647E+03  0.25500000000E-02 0.  1.
          2   -1    0    0  501    0  0.00000000000E+00 -0.00000000000E+00 -0.46860700430E+00  0.46861394237E+00  0.25500000000E-02 0. -1.
         31    1    1    2    0    0  0.26492366639E+00 -0.37911638119E+00  0.58470522665E+02  0.58944676270E+02  0.74470750000E+01 0.  1.
        -31    1    1    2    0    0 -0.26492366639E+00  0.37911638119E+00  0.59881576778E+02  0.60344644148E+02  0.74470750000E+01 0. -1.
<mgrwt>
<rscale>  0 0.14923891E+02</rscale>
<asrwt>0</asrwt>
<pdfrwt beam="2">  1        2 0.99524439E+00 0.14923891E+02</pdfrwt>
<pdfrwt beam="1">  1       -2 0.98636756E+00 0.14923891E+02</pdfrwt>
<totfact> 0.30580325E-13</totfact>
</mgrwt>
</event>
<event>
 4    1 -0.5109406E-019  0.1493208E+02  0.7818608E-02  0.1870148E+00
         -2   -1    0    0    0  501 -0.00000000000E+00  0.00000000000E+00  0.11968254510E+03  0.11968254513E+03  0.25500000000E-02 0.  1.
          2   -1    0    0  501    0  0.00000000000E+00 -0.00000000000E+00 -0.46574311379E+00  0.46575009452E+00  0.25500000000E-02 0. -1.
         31    1    1    2    0    0  0.38256214987E+00  0.34627292521E+00  0.58573035468E+02  0.59046809133E+02  0.74470750000E+01 0.  1.
        -31    1    1    2    0    0 -0.38256214987E+00 -0.34627292521E+00  0.60643766518E+02  0.61101486089E+02  0.74470750000E+01 0. -1.
<mgrwt>
<rscale>  0 0.14932079E+02</rscale>
<asrwt>0</asrwt>
<pdfrwt beam="2">  1        2 0.98921361E+00 0.14932079E+02</pdfrwt>
<pdfrwt beam="1">  1       -2 0.99347017E+00 0.14932079E+02</pdfrwt>
<totfact>-0.18018594E-13</totfact>
</mgrwt>
</event>
<event>
 4    1 -0.5109406E-019  0.1495788E+02  0.7818608E-02  0.1869356E+00
         -2   -1    0    0    0  501 -0.00000000000E+00  0.00000000000E+00  0.12001405483E+03  0.12001405486E+03  0.25500000000E-02 0. -1.
          2   -1    0    0  501    0  0.00000000000E+00 -0.00000000000E+00 -0.46606340085E+00  0.46607037678E+00  0.25500000000E-02 0.  1.
         31    1    1    2    0    0 -0.59643039350E-01 -0.66172661839E+00  0.61263882018E+02  0.61718421929E+02  0.74470750000E+01 0. -1.
        -31    1    1    2    0    0  0.59643039350E-01  0.66172661839E+00  0.58284109413E+02  0.58761703307E+02  0.74470750000E+01 0.  1.
<mgrwt>
<rscale>  0 0.14957885E+02</rscale>
<asrwt>0</asrwt>
<pdfrwt beam="2">  1        2 0.98990184E+00 0.14957885E+02</pdfrwt>
<pdfrwt beam="1">  1       -2 0.99621397E+00 0.14957885E+02</pdfrwt>
<totfact>-0.16498420E-13</totfact>
</mgrwt>
</event>
<event>
 4    1  0.5109406E-019  0.1491007E+02  0.7818608E-02  0.1870825E+00
          2   -1    0    0  501    0  0.00000000000E+00  0.00000000000E+00  0.12013917537E+03  0.12013917540E+03  0.25500000000E-02 0. -1.
         -2   -1    0    0    0  501 -0.00000000000E+00 -0.00000000000E+00 -0.46260623431E+00  0.46261326237E+00  0.25500000000E-02 0.  1.
         31    1    1    2    0    0  0.93215503341E-02  0.19277560067E+00  0.57530809366E+02  0.58011121362E+02  0.74470750000E+01 0.  1.
        -31    1    1    2    0    0 -0.93215503341E-02 -0.19277560067E+00  0.62145759774E+02  0.62590667301E+02  0.74470750000E+01 0. -1.
<mgrwt>
<rscale>  0 0.14910071E+02</rscale>
<asrwt>0</asrwt>
<pdfrwt beam="1">  1        2 0.99721997E+00 0.14910071E+02</pdfrwt>
<pdfrwt beam="2">  1       -2 0.98259118E+00 0.14910071E+02</pdfrwt>
<totfact> 0.60930084E-13</totfact>
</mgrwt>
</event>
<event>
 4    1  0.5109406E-019  0.1491064E+02  0.7818608E-02  0.1870808E+00
         -2   -1    0    0    0  501 -0.00000000000E+00  0.00000000000E+00  0.11866087635E+03  0.11866087638E+03  0.25500000000E-02 0. -1.
          2   -1    0    0  501    0  0.00000000000E+00 -0.00000000000E+00 -0.46840496794E+00  0.46841190900E+00  0.25500000000E-02 0.  1.
         31    1    1    2    0    0  0.22175612813E+00 -0.17609120958E+00  0.57446260661E+02  0.57927644298E+02  0.74470750000E+01 0.  1.
        -31    1    1    2    0    0 -0.22175612813E+00  0.17609120958E+00  0.60746210719E+02  0.61201643987E+02  0.74470750000E+01 0.  1.
<mgrwt>
<rscale>  0 0.14910635E+02</rscale>
<asrwt>0</asrwt>
<pdfrwt beam="2">  1        2 0.99481173E+00 0.14910635E+02</pdfrwt>
<pdfrwt beam="1">  1       -2 0.98504431E+00 0.14910635E+02</pdfrwt>
<totfact> 0.48788406E-13</totfact>
</mgrwt>
</event>
<event>
 4    1 -0.5109406E-019  0.1498289E+02  0.7818608E-02  0.1868591E+00
          2   -1    0    0  501    0  0.00000000000E+00  0.00000000000E+00  0.12015705825E+03  0.12015705828E+03  0.25500000000E-02 0.  1.
         -2   -1    0    0    0  501 -0.00000000000E+00 -0.00000000000E+00 -0.46706663381E+00  0.46707359475E+00  0.25500000000E-02 0. -1.
         31    1    1    2    0    0  0.15556832527E+00  0.34347105377E+00  0.54035725774E+02  0.54547784189E+02  0.74470750000E+01 0. -1.
        -31    1    1    2    0    0 -0.15556832527E+00 -0.34347105377E+00  0.65654265844E+02  0.66076347686E+02  0.74470750000E+01 0.  1.
<mgrwt>
<rscale>  0 0.14982893E+02</rscale>
<asrwt>0</asrwt>
<pdfrwt beam="1">  1        2 0.99740472E+00 0.14982893E+02</pdfrwt>
<pdfrwt beam="2">  1       -2 0.99202896E+00 0.14982893E+02</pdfrwt>
<totfact>-0.53157888E-14</totfact>
</mgrwt>
</event>
<event>
 4    1 -0.5109406E-019  0.1495645E+02  0.7818608E-02  0.1869400E+00
         -2   -1    0    0    0  501 -0.00000000000E+00  0.00000000000E+00  0.11936119559E+03  0.11936119562E+03  0.25500000000E-02 0. -1.
          2   -1    0    0  501    0  0.00000000000E+00 -0.00000000000E+00 -0.46852287134E+00  0.46852981065E+00  0.25500000000E-02 0.  1.
         31    1    1    2    0    0  0.56052627739E+00  0.25127739772E+00  0.57074873907E+02  0.57561944787E+02  0.74470750000E+01 0. -1.
        -31    1    1    2    0    0 -0.56052627739E+00 -0.25127739772E+00  0.61817798810E+02  0.62267780639E+02  0.74470750000E+01 0.  1.
<mgrwt>
<rscale>  0 0.14956452E+02</rscale>
<asrwt>0</asrwt>
<pdfrwt beam="2">  1        2 0.99508411E+00 0.14956452E+02</pdfrwt>
<pdfrwt beam="1">  1       -2 0.99083601E+00 0.14956452E+02</pdfrwt>
<totfact>-0.34155659E-14</totfact>
</mgrwt>
</event>
<event>
 4    1  0.5109406E-019  0.1490581E+02  0.7818608E-02  0.1870956E+00
         -2   -1    0    0    0  501 -0.00000000000E+00  0.00000000000E+00  0.11862139618E+03  0.11862139621E+03  0.25500000000E-02 0.  1.
          2   -1    0    0  501    0  0.00000000000E+00 -0.00000000000E+00 -0.46825768512E+00  0.46826462836E+00  0.25500000000E-02 0. -1.
         31    1    1    2    0    0  0.12536669635E+00 -0.22712844514E+00  0.57959034072E+02  0.58436083551E+02  0.74470750000E+01 0. -1.
        -31    1    1    2    0    0 -0.12536669635E+00  0.22712844514E+00  0.60194104425E+02  0.60653577287E+02  0.74470750000E+01 0.  1.
<mgrwt>
<rscale>  0 0.14905810E+02</rscale>
<asrwt>0</asrwt>
<pdfrwt beam="2">  1        2 0.99449886E+00 0.14905810E+02</pdfrwt>
<pdfrwt beam="1">  1       -2 0.98471664E+00 0.14905810E+02</pdfrwt>
<totfact> 0.55029042E-13</totfact>
</mgrwt>
</event>
<event>
 4    1 -0.5109406E-019  0.1496249E+02  0.7818608E-02  0.1869215E+00
          2   -1    0    0  501    0  0.00000000000E+00  0.00000000000E+00  0.11924041329E+03  0.11924041331E+03  0.25500000000E-02 0. -1.
         -2   -1    0    0    0  501 -0.00000000000E+00 -0.00000000000E+00 -0.46937648797E+00  0.46938341466E+00  0.25500000000E-02 0.  1.
         31    1    1    2    0    0 -0.66666525766E+00  0.89980278223E-01  0.61305635686E+02  0.61759958160E+02  0.74470750000E+01 0. -1.
        -31    1    1    2    0    0  0.66666525766E+00 -0.89980278223E-01  0.57465401112E+02  0.57949838568E+02  0.74470750000E+01 0.  1.
<mgrwt>
<rscale>  0 0.14962495E+02</rscale>
<asrwt>0</asrwt>
<pdfrwt beam="1">  1        2 0.98984436E+00 0.14962495E+02</pdfrwt>
<pdfrwt beam="2">  1       -2 0.99688600E+00 0.14962495E+02</pdfrwt>
<totfact>-0.14871268E-13</totfact>
</mgrwt>
</event>
<event>
 4    1 -0.5109406E-019  0.1492622E+02  0.7818608E-02  0.1870328E+00
         -2   -1    0    0    0  501 -0.00000000000E+00  0.00000000000E+00  0.11944516946E+03  0.11944516949E+03  0.25500000000E-02 0.  1.
          2   -1    0    0  501    0  0.00000000000E+00 -0.00000000000E+00 -0.46630254416E+00  0.46630951651E+00  0.25500000000E-02 0. -1.
         31    1    1    2    0    0  0.13490718319E+00 -0.46320300767E+00  0.58850620098E+02  0.59321894516E+02  0.74470750000E+01 0. -1.
        -31    1    1    2    0    0 -0.13490718319E+00  0.46320300767E+00  0.60128246820E+02  0.60589584490E+02  0.74470750000E+01 0.  1.
<mgrwt>
<rscale>  0 0.14926219E+02</rscale>
<asrwt>0</asrwt>
<pdfrwt beam="2">  1        2 0.99038954E+00 0.14926219E+02</pdfrwt>
<pdfrwt beam="1">  1       -2 0.99151201E+00 0.14926219E+02</pdfrwt>
<totfact>-0.90011800E-14</totfact>
</mgrwt>
</event>
<event>
 4    1 -0.5109406E-019  0.1497718E+02  0.7818608E-02  0.1868766E+00
         -2   -1    0    0    0  501 -0.00000000000E+00  0.00000000000E+00  0.11984357040E+03  0.11984357043E+03  0.25500000000E-02 0.  1.
          2   -1    0    0  501    0  0.00000000000E+00 -0.00000000000E+00 -0.46793135046E+00  0.46793829854E+00  0.25500000000E-02 0. -1.
         31    1    1    2    0    0  0.77759581292E+00  0.12224748123E+00  0.59859655917E+02  0.60326254088E+02  0.74470750000E+01 0.  1.
        -31    1    1    2    0    0 -0.77759581292E+00 -0.12224748123E+00  0.59515983132E+02  0.59985254637E+02  0.74470750000E+01 0.  1.
<mgrwt>
<rscale>  0 0.14977180E+02</rscale>
<asrwt>0</asrwt>
<pdfrwt beam="2">  1        2 0.99384834E+00 0.14977180E+02</pdfrwt>
<pdfrwt beam="1">  1       -2 0.99481973E+00 0.14977180E+02</pdfrwt>
<totfact>-0.13250885E-13</totfact>
</mgrwt>
</event>
<event>
 4    1 -0.5109406E-019  0.1497004E+02  0.7818608E-02  0.1868984E+00
         -2   -1    0    0    0  501 -0.00000000000E+00  0.00000000000E+00  0.11968094344E+03  0.11968094347E+03  0.25500000000E-02 0.  1.
          2   -1    0    0  501    0  0.00000000000E+00 -0.00000000000E+00 -0.46812026683E+00  0.46812721210E+00  0.25500000000E-02 0. -1.
         31    1    1    2    0    0  0.37959859369E+00 -0.63039703378E+00  0.60877267118E+02  0.61335487878E+02  0.74470750000E+01 0. -1.
        -31    1    1    2    0    0 -0.37959859369E+00  0.63039703378E+00  0.58335556057E+02  0.58813582802E+02  0.74470750000E+01 0. -1.
<mgrwt>
<rscale>  0 0.14970036E+02</rscale>
<asrwt>0</asrwt>
<pdfrwt beam="2">  1        2 0.99424276E+00 0.14970036E+02</pdfrwt>
<pdfrwt beam="1">  1       -2 0.99347658E+00 0.14970036E+02</pdfrwt>
<totfact>-0.11931106E-13</totfact>
</mgrwt>
</event>
<event>
 4    1 -0.5109406E-019  0.1497590E+02  0.7818608E-02  0.1868805E+00
         -2   -1    0    0    0  501 -0.00000000000E+00  0.00000000000E+00  0.11950963558E+03  0.11950963560E+03  0.25500000000E-02 0. -1.
          2   -1    0    0  501    0  0.00000000000E+00 -0.00000000000E+00 -0.46915855720E+00  0.46916548710E+00  0.25500000000E-02 0.  1.
         31    1    1    2    0    0  0.14049681964E+00 -0.55983208348E+00  0.55301399412E+02  0.55803555928E+02  0.74470750000E+01 0.  1.
        -31    1    1    2    0    0 -0.14049681964E+00  0.55983208348E+00  0.63739077608E+02  0.64175245163E+02  0.74470750000E+01 0.  1.
<mgrwt>
<rscale>  0 0.14975899E+02</rscale>
<asrwt>0</asrwt>
<pdfrwt beam="2">  1        2 0.99643377E+00 0.14975899E+02</pdfrwt>
<pdfrwt beam="1">  1       -2 0.99206867E+00 0.14975899E+02</pdfrwt>
<totfact>-0.66756794E-14</totfact>
</mgrwt>
</event>
<event>
 4    1 -0.5109406E-019  0.1490422E+02  0.7818608E-02  0.1871005E+00
          2   -1    0    0  501    0  0.00000000000E+00  0.00000000000E+00  0.11871709779E+03  0.11871709782E+03  0.25500000000E-02 0. -1.
         -2   -1    0    0    0  501 -0.00000000000E+00 -0.00000000000E+00 -0.46778062858E+00  0.46778757890E+00  0.25500000000E-02 0.  1.
         31    1    1    2    0    0 -0.24542024319E+00 -0.26381660241E-01  0.58174383798E+02  0.58649627308E+02  0.74470750000E+01 0. -1.
        -31    1    1    2    0    0  0.24542024319E+00  0.26381660241E-01  0.60074933366E+02  0.60535258090E+02  0.74470750000E+01 0. -1.
<mgrwt>
<rscale>  0 0.14904224E+02</rscale>
<asrwt>0</asrwt>
<pdfrwt beam="1">  1        2 0.98550402E+00 0.14904224E+02</pdfrwt>
<pdfrwt beam="2">  1       -2 0.99349281E+00 0.14904224E+02</pdfrwt>
<totfact>-0.29916959E-13</totfact>
</mgrwt>
</event>
<event>
 4    1 -0.5109406E-019  0.1490123E+02  0.7818608E-02  0.1871098E+00
         -2   -1    0    0    0  501 -0.00000000000E+00  0.00000000000E+00  0.12013286704E+03  0.12013286707E+03  0.25500000000E-02 0. -1.
          2   -1    0    0  501    0  0.00000000000E+00 -0.00000000000E+00 -0.46208203973E+00  0.46208907577E+00  0.25500000000E-02 0.  1.
         31    1    1    2    0    0 -0.10387510597E+00 -0.14827375999E+00  0.58691880075E+02  0.59162728875E+02  0.74470750000E+01 0. -1.
        -31    1    1    2    0    0  0.10387510597E+00  0.14827375999E+00  0.60978904928E+02  0.61432227270E+02  0.74470750000E+01 0. -1.
<mgrwt>
<rscale>  0 0.14901230E+02</rscale>
<asrwt>0</asrwt>
<pdfrwt beam="2">  1        2 0.98148186E+00 0.14901230E+02</pdfrwt>
<pdfrwt beam="1">  1       -2 0.99716347E+00 0.14901230E+02</pdfrwt>
<totfact>-0.48287983E-13</totfact>
</mgrwt>
</event>
<event>
 4    1  0.5109406E-019  0.1490218E+02  0.7818608E-02  0.1871068E+00
         -2   -1    0    0    0  501 -0.00000000000E+00  0.00000000000E+00  0.11836960853E+03  0.11836960855E+03  0.25500000000E-02 0.  1.
          2   -1    0    0  501    0  0.00000000000E+00 -0.00000000000E+00 -0.46902527443E+00  0.46903220631E+00  0.25500000000E-02 0. -1.
         31    1    1    2    0    0  0.35101587110E-01 -0.15818087498E+00  0.57489130085E+02  0.57969692575E+02  0.74470750000E+01 0. -1.
        -31    1    1    2    0    0 -0.35101587110E-01  0.15818087498E+00  0.60411453168E+02  0.60868948185E+02  0.74470750000E+01 0.  1.
<mgrwt>
<rscale>  0 0.14902181E+02</rscale>
<asrwt>0</asrwt>
<pdfrwt beam="2">  1        2 0.99611430E+00 0.14902181E+02</pdfrwt>
<pdfrwt beam="1">  1       -2 0.98264103E+00 0.14902181E+02</pdfrwt>
<totfact> 0.74846693E-13</totfact>
</mgrwt>
</event>
<event>
 4    1 -0.5109406E-019  0.1498149E+02  0.7818608E-02  0.1868634E+00
          2   -1    0    0  501    0  0.00000000000E+00  0.00000000000E+00  0.11979404819E+03  0.11979404822E+03  0.25500000000E-02 0.  1.
         -2   -1    0    0    0  501 -0.00000000000E+00 -0.00000000000E+00 -0.46839393703E+00  0.46840087825E+00  0.25500000000E-02 0. -1.
         31    1    1    2    0    0  0.56740562828E-01  0.76776650599E+00  0.57702858875E+02  0.58186523640E+02  0.74470750000E+01 0. -1.
        -31    1    1    2    0    0 -0.56740562828E-01 -0.76776650599E+00  0.61622795380E+02  0.62075925457E+02  0.74470750000E+01 0.  1.
<mgrwt>
<rscale>  0 0.14981485E+02</rscale>
<asrwt>0</asrwt>
<pdfrwt beam="1">  1        2 0.99441407E+00 0.14981485E+02</pdfrwt>
<pdfrwt beam="2">  1       -2 0.99482539E+00 0.14981485E+02</pdfrwt>
<totfact>-0.12641833E-13</totfact>
</mgrwt>
</event>
<event>
 4    1  0.5109406E-019  0.1490333E+02  0.7818608E-02  0.1871033E+00
          2   -1    0    0  501    0  0.00000000000E+00  0.00000000000E+00  0.12011086096E+03  0.12011086099E+03  0.25500000000E-02 0.  1.
         -2   -1    0    0    0  501 -0.00000000000E+00 -0.00000000000E+00 -0.46229665483E+00  0.46230368760E+00  0.25500000000E-02 0. -1.
         31    1    1    2    0    0  0.26088138242E+00 -0.45436732094E-02  0.59956985523E+02  0.60418268089E+02  0.74470750000E+01 0. -1.
        -31    1    1    2    0    0 -0.26088138242E+00  0.45436732094E-02  0.59691578782E+02  0.60154896586E+02  0.74470750000E+01 0. -1.
<mgrwt>
<rscale>  0 0.14903325E+02</rscale>
<asrwt>0</asrwt>
<pdfrwt beam="1">  1        2 0.99698329E+00 0.14903325E+02</pdfrwt>
<pdfrwt beam="2">  1       -2 0.98193526E+00 0.14903325E+02</pdfrwt>
<totfact> 0.73664214E-13</totfact>
</mgrwt>
</event>
<event>
 4    1  0.5109406E-019  0.1493860E+02  0.7818608E-02  0.1869948E+00
         -2   -1    0    0    0  501 -0.00000000000E+00  0.00000000000E+00  0.11903392943E+03  0.11903392945E+03  0.25500000000E-02 0.  1.
          2   -1    0    0  501    0  0.00000000000E+00 -0.00000000000E+00 -0.46869036058E+00  0.46869729742E+00  0.25500000000E-02 0. -1.
         31    1    1    2    0    0 -0.44520172588E+00 -0.31698857922E+00  0.57832530024E+02  0.58312598479E+02  0.74470750000E+01 0. -1.
        -31    1    1    2    0    0  0.44520172588E+00  0.31698857922E+00  0.60732709043E+02  0.61190028273E+02  0.74470750000E+01 0. -1.
<mgrwt>
<rscale>  0 0.14938604E+02</rscale>
<asrwt>0</asrwt>
<pdfrwt beam="2">  1        2 0.99542773E+00 0.14938604E+02</pdfrwt>
<pdfrwt beam="1">  1       -2 0.98813133E+00 0.14938604E+02</pdfrwt>
<totfact> 0.13361566E-13</totfact>
</mgrwt>
</event>
<event>
 4    1  0.5109406E-019  0.1491192E+02  0.7818608E-02  0.1870768E+00
          2   -1    0    0  501    0  0.00000000000E+00  0.00000000000E+00  0.11980490392E+03  0.11980490395E+03  0.25500000000E-02 0. -1.
         -2   -1    0    0    0  501 -0.00000000000E+00 -0.00000000000E+00 -0.46401212034E+00  0.46401912711E+00  0.25500000000E-02 0.  1.
         31    1    1    2    0    0  0.89619961190E-01  0.12858461983E+00  0.57021656929E+02  0.57506111421E+02  0.74470750000E+01 0.  1.
        -31    1    1    2    0    0 -0.89619961190E-01 -0.12858461983E+00  0.62319234869E+02  0.62762811652E+02  0.74470750000E+01 0. -1.
<mgrwt>
<rscale>  0 0.14911921E+02</rscale>
<asrwt>0</asrwt>
<pdfrwt beam="1">  1        2 0.99446760E+00 0.14911921E+02</pdfrwt>
<pdfrwt beam="2">  1       -2 0.98555521E+00 0.14911921E+02</pdfrwt>
<totfact> 0.43300396E-13</totfact>
</mgrwt>
</event>
<event>
 4    1  0.5109406E-019  0.1490400E+02  0.7818608E-02  0.1871012E+00
          2   -1    0    0  501    0  0.00000000000E+00  0.00000000000E+00  0.11990319154E+03  0.11990319157E+03  0.25500000000E-02 0. -1.
         -2   -1    0    0    0  501 -0.00000000000E+00 -0.00000000000E+00 -0.46313959129E+00  0.46314661126E+00  0.25500000000E-02 0.  1.
         31    1    1    2    0    0  0.12193355611E+00  0.17209926912E+00  0.61093610983E+02  0.61546183594E+02  0.74470750000E+01 0. -1.
        -31    1    1    2    0    0 -0.12193355611E+00 -0.17209926912E+00  0.58346440970E+02  0.58820154589E+02  0.74470750000E+01 0.  1.
<mgrwt>
<rscale>  0 0.14904005E+02</rscale>
<asrwt>0</asrwt>
<pdfrwt beam="1">  1        2 0.99527310E+00 0.14904005E+02</pdfrwt>
<pdfrwt beam="2">  1       -2 0.98371224E+00 0.14904005E+02</pdfrwt>
<totfact> 0.65705044E-13</totfact>
</mgrwt>
</event>
<event>
 4    1  0.5109406E-019  0.1492327E+02  0.7818608E-02  0.1870419E+00
         -2   -1    0    0    0  501 -0.00000000000E+00  0.00000000000E+00  0.11888315406E+03  0.11888315409E+03  0.25500000000E-02 0.  1.
          2   -1    0    0  501    0  0.00000000000E+00 -0.00000000000E+00 -0.46832173464E+00  0.46832867693E+00  0.25500000000E-02 0. -1.
         31    1    1    2    0    0  0.24458607576E+00  0.37000778423E+00  0.60347658406E+02  0.60807035195E+02  0.74470750000E+01 0.  1.
        -31    1    1    2    0    0 -0.24458607576E+00 -0.37000778423E+00  0.58067173918E+02  0.58544447568E+02  0.74470750000E+01 0.  1.
<mgrwt>
<rscale>  0 0.14923268E+02</rscale>
<asrwt>0</asrwt>
<pdfrwt beam="2">  1        2 0.99464296E+00 0.14923268E+02</pdfrwt>
<pdfrwt beam="1">  1       -2 0.98688157E+00 0.14923268E+02</pdfrwt>
<totfact> 0.26720497E-13</totfact>
</mgrwt>
</event>
<event>
 4    1  0.5109406E-019  0.1491090E+02  0.7818608E-02  0.1870800E+00
          2   -1    0    0  501    0  0.00000000000E+00  0.00000000000E+00  0.11993378303E+03  0.11993378306E+03  0.25500000000E-02 0. -1.
         -2   -1    0    0    0  501 -0.00000000000E+00 -0.00000000000E+00 -0.46344974123E+00  0.46345675650E+00  0.25500000000E-02 0.  1.
         31    1    1    2    0    0  0.20565792134E+00  0.27343747589E+00  0.59025930324E+02  0.59494843809E+02  0.74470750000E+01 0.  1.
        -31    1    1    2    0    0 -0.20565792134E+00 -0.27343747589E+00  0.60444402968E+02  0.60902396007E+02  0.74470750000E+01 0.  1.
<mgrwt>
<rscale>  0 0.14910896E+02</rscale>
<asrwt>0</asrwt>
<pdfrwt beam="1">  1        2 0.99552862E+00 0.14910896E+02</pdfrwt>
<pdfrwt beam="2">  1       -2 0.98436943E+00 0.14910896E+02</pdfrwt>
<totfact> 0.54173504E-13</totfact>
</mgrwt>
</event>
<event>
 4    1 -0.5109406E-019  0.1498354E+02  0.7818608E-02  0.1868571E+00
         -2   -1    0    0    0  501 -0.00000000000E+00  0.00000000000E+00  0.11973339916E+03  0.11973339919E+03  0.25500000000E-02 0. -1.
          2   -1    0    0  501    0  0.00000000000E+00 -0.00000000000E+00 -0.46875966318E+00  0.46876659899E+00  0.25500000000E-02 0.  1.
         31    1    1    2    0    0 -0.56788237760E+00 -0.56552950706E+00  0.60910011826E+02  0.61368809511E+02  0.74470750000E+01 0.  1.
        -31    1    1    2    0    0  0.56788237760E+00  0.56552950706E+00  0.58354627669E+02  0.58833356274E+02  0.74470750000E+01 0.  1.
<mgrwt>
<rscale>  0 0.14983538E+02</rscale>
<asrwt>0</asrwt>
<pdfrwt beam="2">  1        2 0.99559716E+00 0.14983538E+02</pdfrwt>
<pdfrwt beam="1">  1       -2 0.99391561E+00 0.14983538E+02</pdfrwt>
<totfact>-0.10840621E-13</totfact>
</mgrwt>
</event>
<event>
 4    1  0.5109406E-019  0.1493853E+02  0.7818608E-02  0.1869950E+00
         -2   -1    0    0    0  501 -0.00000000000E+00  0.00000000000E+00  0.11877747878E+03  0.11877747880E+03  0.25500000000E-02 0. -1.
          2   -1    0    0  501    0  0.00000000000E+00 -0.00000000000E+00 -0.46969797835E+00  0.46970490030E+00  0.25500000000E-02 0.  1.
         31    1    1    2    0    0 -0.40024821878E+00  0.39871578084E+00  0.60023107213E+02  0.60485961168E+02  0.74470750000E+01 0.  1.
        -31    1    1    2    0    0  0.40024821878E+00 -0.39871578084E+00  0.58284673586E+02  0.58761222536E+02  0.74470750000E+01 0. -1.
<mgrwt>
<rscale>  0 0.14938535E+02</rscale>
<asrwt>0</asrwt>
<pdfrwt beam="2">  1        2 0.99755085E+00 0.14938535E+02</pdfrwt>
<pdfrwt beam="1">  1       -2 0.98601915E+00 0.14938535E+02</pdfrwt>
<totfact> 0.22682756E-13</totfact>
</mgrwt>
</event>
<event>
 4    1  0.5109406E-019  0.1492295E+02  0.7818608E-02  0.1870429E+00
         -2   -1    0    0    0  501 -0.00000000000E+00  0.00000000000E+00  0.11837497019E+03  0.11837497022E+03  0.25500000000E-02 0.  1.
          2   -1    0    0  501    0  0.00000000000E+00 -0.00000000000E+00 -0.47031230789E+00  0.47031922080E+00  0.25500000000E-02 0. -1.
         31    1    1    2    0    0  0.30567912834E+00 -0.54443945589E-01  0.56213294835E+02  0.56705289402E+02  0.74470750000E+01 0. -1.
        -31    1    1    2    0    0 -0.30567912834E+00  0.54443945589E-01  0.61691363047E+02  0.62140000036E+02  0.74470750000E+01 0. -1.
<mgrwt>
<rscale>  0 0.14922951E+02</rscale>
<asrwt>0</asrwt>
<pdfrwt beam="2">  1        2 0.99883702E+00 0.14922951E+02</pdfrwt>
<pdfrwt beam="1">  1       -2 0.98269600E+00 0.14922951E+02</pdfrwt>
<totfact> 0.29802634E-13</totfact>
</mgrwt>
</event>
<event>
 4    1 -0.5109406E-019  0.1492420E+02  0.7818608E-02  0.1870391E+00
         -2   -1    0    0    0  501 -0.00000000000E+00  0.00000000000E+00  0.11955026398E+03  0.11955026401E+03  0.25500000000E-02 0. -1.
          2   -1    0    0  501    0  0.00000000000E+00 -0.00000000000E+00 -0.46576626190E+00  0.46577324228E+00  0.25500000000E-02 0.  1.
         31    1    1    2    0    0  0.36225266073E+00 -0.96335550620E-01  0.57218953404E+02  0.57702756106E+02  0.74470750000E+01 0.  1.
        -31    1    1    2    0    0 -0.36225266073E+00  0.96335550620E-01  0.61865544319E+02  0.62313281148E+02  0.74470750000E+01 0. -1.
<mgrwt>
<rscale>  0 0.14924195E+02</rscale>
<asrwt>0</asrwt>
<pdfrwt beam="2">  1        2 0.98925834E+00 0.14924195E+02</pdfrwt>
<pdfrwt beam="1">  1       -2 0.99237657E+00 0.14924195E+02</pdfrwt>
<totfact>-0.14447220E-13</totfact>
</mgrwt>
</event>
<event>
 4    1  0.5109406E-019  0.1489735E+02  0.7818608E-02  0.1871217E+00
          2   -1    0    0  501    0  0.00000000000E+00  0.00000000000E+00  0.11959799032E+03  0.11959799035E+03  0.25500000000E-02 0.  1.
         -2   -1    0    0    0  501 -0.00000000000E+00 -0.00000000000E+00 -0.46390688031E+00  0.46391388867E+00  0.25500000000E-02 0. -1.
         31    1    1    2    0    0 -0.11986601358E-01  0.12580745450E+00  0.58852729398E+02  0.59322159897E+02  0.74470750000E+01 0.  1.
        -31    1    1    2    0    0  0.11986601358E-01 -0.12580745450E+00  0.60281354040E+02  0.60739744337E+02  0.74470750000E+01 0.  1.
<mgrwt>
<rscale>  0 0.14897349E+02</rscale>
<asrwt>0</asrwt>
<pdfrwt beam="1">  1        2 0.99275583E+00 0.14897349E+02</pdfrwt>
<pdfrwt beam="2">  1       -2 0.98532598E+00 0.14897349E+02</pdfrwt>
<totfact> 0.53007197E-13</totfact>
</mgrwt>
</event>
<event>
 4    1  0.5109406E-019  0.1491556E+02  0.7818608E-02  0.1870656E+00
          2   -1    0    0  501    0  0.00000000000E+00  0.00000000000E+00  0.11989642154E+03  0.11989642156E+03  0.25500000000E-02 0. -1.
         -2   -1    0    0    0  501 -0.00000000000E+00 -0.00000000000E+00 -0.46388415128E+00  0.46389115998E+00  0.25500000000E-02 0.  1.
         31    1    1    2    0    0 -0.20750910128E+00  0.25310390229E+00  0.61563898873E+02  0.62013544424E+02  0.74470750000E+01 0. -1.
        -31    1    1    2    0    0  0.20750910128E+00 -0.25310390229E+00  0.57868638513E+02  0.58346768300E+02  0.74470750000E+01 0.  1.
<mgrwt>
<rscale>  0 0.14915559E+02</rscale>
<asrwt>0</asrwt>
<pdfrwt beam="1">  1        2 0.99522328E+00 0.14915559E+02</pdfrwt>
<pdfrwt beam="2">  1       -2 0.98528736E+00 0.14915559E+02</pdfrwt>
<totfact> 0.43564093E-13</totfact>
</mgrwt>
</event>
<event>
 4    1 -0.5109406E-019  0.1495889E+02  0.7818608E-02  0.1869326E+00
         -2   -1    0    0    0  501 -0.00000000000E+00  0.00000000000E+00  0.12021709524E+03  0.12021709527E+03  0.25500000000E-02 0. -1.
          2   -1    0    0  501    0  0.00000000000E+00 -0.00000000000E+00 -0.46533887443E+00  0.46534586122E+00  0.25500000000E-02 0.  1.
         31    1    1    2    0    0 -0.21698683964E+00  0.16770858352E+00  0.65028896735E+02  0.65454499815E+02  0.74470750000E+01 0. -1.
        -31    1    1    2    0    0  0.21698683964E+00 -0.16770858352E+00  0.54722859634E+02  0.55227941316E+02  0.74470750000E+01 0.  1.
<mgrwt>
<rscale>  0 0.14958892E+02</rscale>
<asrwt>0</asrwt>
<pdfrwt beam="2">  1        2 0.98837539E+00 0.14958892E+02</pdfrwt>
<pdfrwt beam="1">  1       -2 0.99788686E+00 0.14958892E+02</pdfrwt>
<totfact>-0.13226597E-13</totfact>
</mgrwt>
</event>
<event>
 4    1 -0.5109406E-019  0.1499972E+02  0.7818608E-02  0.1868077E+00
         -2   -1    0    0    0  501 -0.00000000000E+00  0.00000000000E+00  0.11983292312E+03  0.11983292314E+03  0.25500000000E-02 0.  1.
          2   -1    0    0  501    0  0.00000000000E+00 -0.00000000000E+00 -0.46938266126E+00  0.46938958786E+00  0.25500000000E-02 0. -1.
         31    1    1    2    0    0 -0.41808152782E+00  0.74133388050E+00  0.61720576203E+02  0.62174052634E+02  0.74470750000E+01 0.  1.
        -31    1    1    2    0    0  0.41808152782E+00 -0.74133388050E+00  0.57642964252E+02  0.58128260097E+02  0.74470750000E+01 0.  1.
<mgrwt>
<rscale>  0 0.14999722E+02</rscale>
<asrwt>0</asrwt>
<pdfrwt beam="2">  1        2 0.99691839E+00 0.14999722E+02</pdfrwt>
<pdfrwt beam="1">  1       -2 0.99474369E+00 0.14999722E+02</pdfrwt>
<totfact>-0.89878489E-14</totfact>
</mgrwt>
</event>
<event>
 4    1 -0.5109406E-019  0.1500337E+02  0.7818608E-02  0.1867966E+00
          2   -1    0    0  501    0  0.00000000000E+00  0.00000000000E+00  0.12019077656E+03  0.12019077658E+03  0.25500000000E-02 0.  1.
         -2   -1    0    0    0  501 -0.00000000000E+00 -0.00000000000E+00 -0.46821256590E+00  0.46821950981E+00  0.25500000000E-02 0. -1.
         31    1    1    2    0    0 -0.44953464516E-02  0.56121576061E+00  0.54167006366E+02  0.54679415579E+02  0.74470750000E+01 0. -1.
        -31    1    1    2    0    0  0.44953464516E-02 -0.56121576061E+00  0.65555557624E+02  0.65979580514E+02  0.74470750000E+01 0.  1.
<mgrwt>
<rscale>  0 0.15003367E+02</rscale>
<asrwt>0</asrwt>
<pdfrwt beam="1">  1        2 0.99769300E+00 0.15003367E+02</pdfrwt>
<pdfrwt beam="2">  1       -2 0.99445446E+00 0.15003367E+02</pdfrwt>
<totfact>-0.72959483E-14</totfact>
</mgrwt>
</event>
<event>
 4    1 -0.5109406E-019  0.1490110E+02  0.7818608E-02  0.1871102E+00
          2   -1    0    0  501    0  0.00000000000E+00  0.00000000000E+00  0.11893116904E+03  0.11893116907E+03  0.25500000000E-02 0.  1.
         -2   -1    0    0    0  501 -0.00000000000E+00 -0.00000000000E+00 -0.46674284700E+00  0.46674981278E+00  0.25500000000E-02 0. -1.
         31    1    1    2    0    0 -0.11226618620E+00  0.19068435295E+00  0.59656177874E+02  0.60119609520E+02  0.74470750000E+01 0.  1.
        -31    1    1    2    0    0  0.11226618620E+00 -0.19068435295E+00  0.58808248321E+02  0.59278309362E+02  0.74470750000E+01 0. -1.
<mgrwt>
<rscale>  0 0.14901099E+02</rscale>
<asrwt>0</asrwt>
<pdfrwt beam="1">  1        2 0.98726553E+00 0.14901099E+02</pdfrwt>
<pdfrwt beam="2">  1       -2 0.99130438E+00 0.14901099E+02</pdfrwt>
<totfact>-0.11236133E-13</totfact>
</mgrwt>
</event>
<event>
 4    1 -0.5109406E-019  0.1490938E+02  0.7818608E-02  0.1870846E+00
         -2   -1    0    0    0  501 -0.00000000000E+00  0.00000000000E+00  0.11940585742E+03  0.11940585745E+03  0.25500000000E-02 0. -1.
          2   -1    0    0  501    0  0.00000000000E+00 -0.00000000000E+00 -0.46540438858E+00  0.46541137439E+00  0.25500000000E-02 0.  1.
         31    1    1    2    0    0  0.18687376669E+00  0.21222389001E+00  0.57997710692E+02  0.58474552862E+02  0.74470750000E+01 0.  1.
        -31    1    1    2    0    0 -0.18687376669E+00 -0.21222389001E+00  0.60942742341E+02  0.61396715962E+02  0.74470750000E+01 0. -1.
<mgrwt>
<rscale>  0 0.14909384E+02</rscale>
<asrwt>0</asrwt>
<pdfrwt beam="2">  1        2 0.98848810E+00 0.14909384E+02</pdfrwt>
<pdfrwt beam="1">  1       -2 0.99117952E+00 0.14909384E+02</pdfrwt>
<totfact>-0.87020428E-14</totfact>
</mgrwt>
</event>
<event>
 4    1 -0.5109406E-019  0.1494348E+02  0.7818608E-02  0.1869798E+00
         -2   -1    0    0    0  501 -0.00000000000E+00  0.00000000000E+00  0.12039950038E+03  0.12039950041E+03  0.25500000000E-02 0. -1.
          2   -1    0    0  501    0  0.00000000000E+00 -0.00000000000E+00 -0.46367679875E+00  0.46368381058E+00  0.25500000000E-02 0.  1.
         31    1    1    2    0    0 -0.25464304059E+00  0.54707710038E+00  0.59468167077E+02  0.59935681843E+02  0.74470750000E+01 0.  1.
        -31    1    1    2    0    0  0.25464304059E+00 -0.54707710038E+00  0.60467656503E+02  0.60927502373E+02  0.74470750000E+01 0. -1.
<mgrwt>
<rscale>  0 0.14943478E+02</rscale>
<asrwt>0</asrwt>
<pdfrwt beam="2">  1        2 0.98486450E+00 0.14943478E+02</pdfrwt>
<pdfrwt beam="1">  1       -2 0.99938137E+00 0.14943478E+02</pdfrwt>
<totfact>-0.73571054E-14</totfact>
</mgrwt>
</event>
<event>
 4    1 -0.5109406E-019  0.1500060E+02  0.7818608E-02  0.1868050E+00
          2   -1    0    0  501    0  0.00000000000E+00  0.00000000000E+00  0.12025201885E+03  0.12025201888E+03  0.25500000000E-02 0.  1.
         -2   -1    0    0    0  501 -0.00000000000E+00 -0.00000000000E+00 -0.46780124123E+00  0.46780819124E+00  0.25500000000E-02 0. -1.
         31    1    1    2    0    0 -0.60232086983E+00  0.61933291680E+00  0.61676715750E+02  0.62130689321E+02  0.74470750000E+01 0.  1.
        -31    1    1    2    0    0  0.60232086983E+00 -0.61933291680E+00  0.58107501857E+02  0.58589137746E+02  0.74470750000E+01 0. -1.
<mgrwt>
<rscale>  0 0.15000595E+02</rscale>
<asrwt>0</asrwt>
<pdfrwt beam="1">  1        2 0.99819599E+00 0.15000595E+02</pdfrwt>
<pdfrwt beam="2">  1       -2 0.99358620E+00 0.15000595E+02</pdfrwt>
<totfact>-0.56983543E-14</totfact>
</mgrwt>
</event>
<event>
 4    1 -0.5109406E-019  0.1496367E+02  0.7818608E-02  0.1869179E+00
         -2   -1    0    0    0  501 -0.00000000000E+00  0.00000000000E+00  0.11963409322E+03  0.11963409325E+03  0.25500000000E-02 0.  1.
          2   -1    0    0  501    0  0.00000000000E+00 -0.00000000000E+00 -0.46790567652E+00  0.46791262498E+00  0.25500000000E-02 0. -1.
         31    1    1    2    0    0 -0.69939580281E+00 -0.17247481825E+00  0.59519839125E+02  0.59988241161E+02  0.74470750000E+01 0.  1.
        -31    1    1    2    0    0  0.69939580281E+00  0.17247481825E+00  0.59646348419E+02  0.60113764712E+02  0.74470750000E+01 0. -1.
<mgrwt>
<rscale>  0 0.14963675E+02</rscale>
<asrwt>0</asrwt>
<pdfrwt beam="2">  1        2 0.99378725E+00 0.14963675E+02</pdfrwt>
<pdfrwt beam="1">  1       -2 0.99308742E+00 0.14963675E+02</pdfrwt>
<totfact>-0.11703309E-13</totfact>
</mgrwt>
</event>
<event>
 4    1  0.5109406E-019  0.1490762E+02  0.7818608E-02  0.1870901E+00
         -2   -1    0    0    0  501 -0.00000000000E+00  0.00000000000E+00  0.11901389598E+03  0.11901389600E+03  0.25500000000E-02 0. -1.
          2   -1    0    0  501    0  0.00000000000E+00 -0.00000000000E+00 -0.46682696937E+00  0.46683393389E+00  0.25500000000E-02 0.  1.
         31    1    1    2    0    0 -0.27677024871E+00 -0.10388856797E+00  0.60187123665E+02  0.60646815050E+02  0.74470750000E+01 0.  1.
        -31    1    1    2    0    0  0.27677024871E+00  0.10388856797E+00  0.58359945342E+02  0.58833914888E+02  0.74470750000E+01 0. -1.
<mgrwt>
<rscale>  0 0.14907624E+02</rscale>
<asrwt>0</asrwt>
<pdfrwt beam="2">  1        2 0.99148504E+00 0.14907624E+02</pdfrwt>
<pdfrwt beam="1">  1       -2 0.98795027E+00 0.14907624E+02</pdfrwt>
<totfact> 0.20523344E-13</totfact>
</mgrwt>
</event>
<event>
 4    1 -0.5109406E-019  0.1495096E+02  0.7818608E-02  0.1869569E+00
          2   -1    0    0  501    0  0.00000000000E+00  0.00000000000E+00  0.11924370343E+03  0.11924370346E+03  0.25500000000E-02 0. -1.
         -2   -1    0    0    0  501 -0.00000000000E+00 -0.00000000000E+00 -0.46864040256E+00  0.46864734013E+00  0.25500000000E-02 0.  1.
         31    1    1    2    0    0 -0.27742337219E+00 -0.10650677645E-01  0.64103040857E+02  0.64534764665E+02  0.74470750000E+01 0. -1.
        -31    1    1    2    0    0  0.27742337219E+00  0.10650677645E-01  0.54672022169E+02  0.55177586132E+02  0.74470750000E+01 0.  1.
<mgrwt>
<rscale>  0 0.14950964E+02</rscale>
<asrwt>0</asrwt>
<pdfrwt beam="1">  1        2 0.98986547E+00 0.14950964E+02</pdfrwt>
<pdfrwt beam="2">  1       -2 0.99532892E+00 0.14950964E+02</pdfrwt>
<totfact>-0.17882109E-13</totfact>
</mgrwt>
</event>
<event>
 4    1  0.5109406E-019  0.1489743E+02  0.7818608E-02  0.1871215E+00
         -2   -1    0    0    0  501 -0.00000000000E+00  0.00000000000E+00  0.11849836281E+03  0.11849836283E+03  0.25500000000E-02 0. -1.
          2   -1    0    0  501    0  0.00000000000E+00 -0.00000000000E+00 -0.46821693615E+00  0.46822388000E+00  0.25500000000E-02 0.  1.
         31    1    1    2    0    0  0.44325338596E-01 -0.14470310755E-01  0.60206386642E+02  0.60665229684E+02  0.74470750000E+01 0. -1.
        -31    1    1    2    0    0 -0.44325338596E-01  0.14470310755E-01  0.57823759228E+02  0.58301357029E+02  0.74470750000E+01 0.  1.
<mgrwt>
<rscale>  0 0.14897430E+02</rscale>
<asrwt>0</asrwt>
<pdfrwt beam="2">  1        2 0.99440860E+00 0.14897430E+02</pdfrwt>
<pdfrwt beam="1">  1       -2 0.98369898E+00 0.14897430E+02</pdfrwt>
<totfact> 0.71809559E-13</totfact>
</mgrwt>
</event>
<event>
 4    1 -0.5109406E-019  0.1498121E+02  0.7818608E-02  0.1868642E+00
         -2   -1    0    0    0  501 -0.00000000000E+00  0.00000000000E+00  0.12008410313E+03  0.12008410316E+03  0.25500000000E-02 0.  1.
          2   -1    0    0  501    0  0.00000000000E+00 -0.00000000000E+00 -0.46724553468E+00  0.46725249296E+00  0.25500000000E-02 0. -1.
         31    1    1    2    0    0  0.40863745571E+00  0.67440013750E+00  0.58451019197E+02  0.58928790683E+02  0.74470750000E+01 0. -1.
        -31    1    1    2    0    0 -0.40863745571E+00 -0.67440013750E+00  0.61165838402E+02  0.61622564971E+02  0.74470750000E+01 0. -1.
<mgrwt>
<rscale>  0 0.14981213E+02</rscale>
<asrwt>0</asrwt>
<pdfrwt beam="2">  1        2 0.99240512E+00 0.14981213E+02</pdfrwt>
<pdfrwt beam="1">  1       -2 0.99680295E+00 0.14981213E+02</pdfrwt>
<totfact>-0.12257358E-13</totfact>
</mgrwt>
</event>
<event>
 4    1 -0.5109406E-019  0.1494493E+02  0.7818608E-02  0.1869754E+00
          2   -1    0    0  501    0  0.00000000000E+00  0.00000000000E+00  0.11888696801E+03  0.11888696803E+03  0.25500000000E-02 0. -1.
         -2   -1    0    0    0  501 -0.00000000000E+00 -0.00000000000E+00 -0.46966748689E+00  0.46967440929E+00  0.25500000000E-02 0.  1.
         31    1    1    2    0    0 -0.68756319268E-01 -0.57536920376E+00  0.57551489848E+02  0.58034202734E+02  0.74470750000E+01 0. -1.
        -31    1    1    2    0    0  0.68756319268E-01  0.57536920376E+00  0.60865810671E+02  0.61322439708E+02  0.74470750000E+01 0.  1.
<mgrwt>
<rscale>  0 0.14944933E+02</rscale>
<asrwt>0</asrwt>
<pdfrwt beam="1">  1        2 0.98692423E+00 0.14944933E+02</pdfrwt>
<pdfrwt beam="2">  1       -2 0.99748997E+00 0.14944933E+02</pdfrwt>
<totfact>-0.18285586E-13</totfact>
</mgrwt>
</event>
<event>
 4    1 -0.5109406E-019  0.1500343E+02  0.7818608E-02  0.1867964E+00
         -2   -1    0    0    0  501 -0.00000000000E+00  0.00000000000E+00  0.12020172086E+03  0.12020172089E+03  0.25500000000E-02 0.  1.
          2   -1    0    0  501    0  0.00000000000E+00 -0.00000000000E+00 -0.46817395315E+00  0.46818089763E+00  0.25500000000E-02 0. -1.
         31    1    1    2    0    0 -0.27117267317E+00  0.75566815333E+00  0.63204693418E+02  0.63646969803E+02  0.74470750000E+01 0.  1.
        -31    1    1    2    0    0  0.27117267317E+00 -0.75566815333E+00  0.56528853491E+02  0.57022931984E+02  0.74470750000E+01 0. -1.
<mgrwt>
<rscale>  0 0.15003431E+02</rscale>
<asrwt>0</asrwt>
<pdfrwt beam="2">  1        2 0.99437312E+00 0.15003431E+02</pdfrwt>
<pdfrwt beam="1">  1       -2 0.99778318E+00 0.15003431E+02</pdfrwt>
<totfact>-0.81637499E-14</totfact>
</mgrwt>
</event>
<event>
 4    1 -0.5109406E-019  0.1497380E+02  0.7818608E-02  0.1868869E+00
          2   -1    0    0  501    0  0.00000000000E+00  0.00000000000E+00  0.11965920851E+03  0.11965920854E+03  0.25500000000E-02 0.  1.
         -2   -1    0    0    0  501 -0.00000000000E+00 -0.00000000000E+00 -0.46844075861E+00  0.46844769914E+00  0.25500000000E-02 0. -1.
         31    1    1    2    0    0 -0.72741696031E+00 -0.53443349672E-01  0.57585726012E+02  0.58069843791E+02  0.74470750000E+01 0.  1.
        -31    1    1    2    0    0  0.72741696031E+00  0.53443349672E-01  0.61605041743E+02  0.62057812448E+02  0.74470750000E+01 0.  1.
<mgrwt>
<rscale>  0 0.14973800E+02</rscale>
<asrwt>0</asrwt>
<pdfrwt beam="1">  1        2 0.99329951E+00 0.14973800E+02</pdfrwt>
<pdfrwt beam="2">  1       -2 0.99492008E+00 0.14973800E+02</pdfrwt>
<totfact>-0.13799850E-13</totfact>
</mgrwt>
</event>
<event>
 4    1  0.5109406E-019  0.1491445E+02  0.7818608E-02  0.1870691E+00
         -2   -1    0    0    0  501 -0.00000000000E+00  0.00000000000E+00  0.11856756942E+03  0.11856756945E+03  0.25500000000E-02 0. -1.
          2   -1    0    0  501    0  0.00000000000E+00 -0.00000000000E+00 -0.46901319606E+00  0.46902012812E+00  0.25500000000E-02 0.  1.
         31    1    1    2    0    0 -0.10681333444E+00  0.10995541442E+00  0.61901891298E+02  0.62348428782E+02  0.74470750000E+01 0. -1.
        -31    1    1    2    0    0  0.10681333444E+00 -0.10995541442E+00  0.56196664928E+02  0.56688160795E+02  0.74470750000E+01 0.  1.
<mgrwt>
<rscale>  0 0.14914445E+02</rscale>
<asrwt>0</asrwt>
<pdfrwt beam="2">  1        2 0.99609531E+00 0.14914445E+02</pdfrwt>
<pdfrwt beam="1">  1       -2 0.98427781E+00 0.14914445E+02</pdfrwt>
<totfact> 0.51346284E-13</totfact>
</mgrwt>
</event>
<event>
 4    1 -0.5109406E-019  0.1490823E+02  0.7818608E-02  0.1870882E+00
         -2   -1    0    0    0  501 -0.00000000000E+00  0.00000000000E+00  0.11956027295E+03  0.11956027298E+03  0.25500000000E-02 0. -1.
          2   -1    0    0  501    0  0.00000000000E+00 -0.00000000000E+00 -0.46473162600E+00  0.46473862192E+00  0.25500000000E-02 0.  1.
         31    1    1    2    0    0  0.28402905711E-01 -0.20229105621E+00  0.61571854041E+02  0.62020914734E+02  0.74470750000E+01 0. -1.
        -31    1    1    2    0    0 -0.28402905711E-01  0.20229105621E+00  0.57523687282E+02  0.58004096864E+02  0.74470750000E+01 0.  1.
<mgrwt>
<rscale>  0 0.14908234E+02</rscale>
<asrwt>0</asrwt>
<pdfrwt beam="2">  1        2 0.98706970E+00 0.14908234E+02</pdfrwt>
<pdfrwt beam="1">  1       -2 0.99245077E+00 0.14908234E+02</pdfrwt>
<totfact>-0.19396992E-13</totfact>
</mgrwt>
</event>
<event>
 4    1  0.5109406E-019  0.1494341E+02  0.7818608E-02  0.1869800E+00
          2   -1    0    0  501    0  0.00000000000E+00  0.00000000000E+00  0.12004459766E+03  0.12004459769E+03  0.25500000000E-02 0. -1.
         -2   -1    0    0    0  501 -0.00000000000E+00 -0.00000000000E+00 -0.46504365567E+00  0.46505064690E+00  0.25500000000E-02 0.  1.
         31    1    1    2    0    0 -0.43861445015E+00 -0.37476384386E+00  0.58288741336E+02  0.58765373505E+02  0.74470750000E+01 0.  1.
        -31    1    1    2    0    0  0.43861445015E+00  0.37476384386E+00  0.61290812668E+02  0.61744274829E+02  0.74470750000E+01 0.  1.
<mgrwt>
<rscale>  0 0.14943413E+02</rscale>
<asrwt>0</asrwt>
<pdfrwt beam="1">  1        2 0.99645809E+00 0.14943413E+02</pdfrwt>
<pdfrwt beam="2">  1       -2 0.98774530E+00 0.14943413E+02</pdfrwt>
<totfact> 0.14295020E-13</totfact>
</mgrwt>
</event>
<event>
 4    1 -0.5109406E-019  0.1494638E+02  0.7818608E-02  0.1869709E+00
         -2   -1    0    0    0  501 -0.00000000000E+00  0.00000000000E+00  0.11973570554E+03  0.11973570557E+03  0.25500000000E-02 0. -1.
          2   -1    0    0  501    0  0.00000000000E+00 -0.00000000000E+00 -0.46642849117E+00  0.46643546164E+00  0.25500000000E-02 0.  1.
         31    1    1    2    0    0  0.26368026990E+00 -0.46531284830E+00  0.62223131347E+02  0.62669474579E+02  0.74470750000E+01 0.  1.
        -31    1    1    2    0    0 -0.26368026990E+00  0.46531284830E+00  0.57046145704E+02  0.57532666452E+02  0.74470750000E+01 0. -1.
<mgrwt>
<rscale>  0 0.14946380E+02</rscale>
<asrwt>0</asrwt>
<pdfrwt beam="2">  1        2 0.99066535E+00 0.14946380E+02</pdfrwt>
<pdfrwt beam="1">  1       -2 0.99391540E+00 0.14946380E+02</pdfrwt>
<totfact>-0.16354696E-13</totfact>
</mgrwt>
</event>
<event>
 4    1  0.5109406E-019  0.1492782E+02  0.7818608E-02  0.1870279E+00
          2   -1    0    0  501    0  0.00000000000E+00  0.00000000000E+00  0.11971519932E+03  0.11971519934E+03  0.25500000000E-02 0. -1.
         -2   -1    0    0    0  501 -0.00000000000E+00 -0.00000000000E+00 -0.46535082206E+00  0.46535780867E+00  0.25500000000E-02 0.  1.
         31    1    1    2    0    0 -0.26509018711E+00  0.13560134324E+00  0.56380538987E+02  0.56871018657E+02  0.74470750000E+01 0.  1.
        -31    1    1    2    0    0  0.26509018711E+00 -0.13560134324E+00  0.62869309508E+02  0.63309538497E+02  0.74470750000E+01 0. -1.
<mgrwt>
<rscale>  0 0.14927825E+02</rscale>
<asrwt>0</asrwt>
<pdfrwt beam="1">  1        2 0.99373693E+00 0.14927825E+02</pdfrwt>
<pdfrwt beam="2">  1       -2 0.98838469E+00 0.14927825E+02</pdfrwt>
<totfact> 0.13321634E-13</totfact>
</mgrwt>
</event>
<event>
 4    1 -0.5109406E-019  0.1498267E+02  0.7818608E-02  0.1868598E+00
         -2   -1    0    0    0  501 -0.00000000000E+00  0.00000000000E+00  0.11988741837E+03  0.11988741839E+03  0.25500000000E-02 0.  1.
          2   -1    0    0  501    0  0.00000000000E+00 -0.00000000000E+00 -0.46810331110E+00  0.46811025663E+00  0.25500000000E-02 0. -1.
         31    1    1    2    0    0  0.55604705153E+00 -0.58017700038E+00  0.58712876075E+02  0.59188736570E+02  0.74470750000E+01 0.  1.
        -31    1    1    2    0    0 -0.55604705153E+00  0.58017700038E+00  0.60706438979E+02  0.61166792079E+02  0.74470750000E+01 0.  1.
<mgrwt>
<rscale>  0 0.14982672E+02</rscale>
<asrwt>0</asrwt>
<pdfrwt beam="2">  1        2 0.99421356E+00 0.14982672E+02</pdfrwt>
<pdfrwt beam="1">  1       -2 0.99518372E+00 0.14982672E+02</pdfrwt>
<totfact>-0.12763738E-13</totfact>
</mgrwt>
</event>
<event>
 4    1 -0.5109406E-019  0.1492988E+02  0.7818608E-02  0.1870216E+00
          2   -1    0    0  501    0  0.00000000000E+00  0.00000000000E+00  0.11912935800E+03  0.11912935803E+03  0.25500000000E-02 0.  1.
         -2   -1    0    0    0  501 -0.00000000000E+00 -0.00000000000E+00 -0.46776800829E+00  0.46777495880E+00  0.25500000000E-02 0. -1.
         31    1    1    2    0    0  0.31261746498E-01 -0.47117985282E+00  0.57661860610E+02  0.58142687269E+02  0.74470750000E+01 0. -1.
        -31    1    1    2    0    0 -0.31261746498E-01  0.47117985282E+00  0.60999729383E+02  0.61454445719E+02  0.74470750000E+01 0.  1.
<mgrwt>
<rscale>  0 0.14929879E+02</rscale>
<asrwt>0</asrwt>
<pdfrwt beam="1">  1        2 0.98891277E+00 0.14929879E+02</pdfrwt>
<pdfrwt beam="2">  1       -2 0.99347961E+00 0.14929879E+02</pdfrwt>
<totfact>-0.18649237E-13</totfact>
</mgrwt>
</event>
<event>
 4    1 -0.5109406E-019  0.1499009E+02  0.7818608E-02  0.1868371E+00
         -2   -1    0    0    0  501 -0.00000000000E+00  0.00000000000E+00  0.12016371555E+03  0.12016371558E+03  0.25500000000E-02 0.  1.
          2   -1    0    0  501    0  0.00000000000E+00 -0.00000000000E+00 -0.46748962149E+00  0.46749657613E+00  0.25500000000E-02 0. -1.
         31    1    1    2    0    0 -0.42901727293E-01 -0.72600408410E+00  0.56360121522E+02  0.56854649295E+02  0.74470750000E+01 0.  1.
        -31    1    1    2    0    0  0.42901727293E-01  0.72600408410E+00  0.63336104408E+02  0.63776562859E+02  0.74470750000E+01 0.  1.
<mgrwt>
<rscale>  0 0.14990092E+02</rscale>
<asrwt>0</asrwt>
<pdfrwt beam="2">  1        2 0.99292408E+00 0.14990092E+02</pdfrwt>
<pdfrwt beam="1">  1       -2 0.99746326E+00 0.14990092E+02</pdfrwt>
<totfact>-0.10107304E-13</totfact>
</mgrwt>
</event>
<event>
 4    1 -0.5109406E-019  0.1494237E+02  0.7818608E-02  0.1869832E+00
          2   -1    0    0  501    0  0.00000000000E+00  0.00000000000E+00  0.11944180858E+03  0.11944180861E+03  0.25500000000E-02 0.  1.
         -2   -1    0    0    0  501 -0.00000000000E+00 -0.00000000000E+00 -0.46732522060E+00  0.46733217769E+00  0.25500000000E-02 0. -1.
         31    1    1    2    0    0  0.44359958940E+00 -0.18543434108E+00  0.62363826822E+02  0.62808733377E+02  0.74470750000E+01 0.  1.
        -31    1    1    2    0    0 -0.44359958940E+00  0.18543434108E+00  0.56610656537E+02  0.57100407407E+02  0.74470750000E+01 0. -1.
<mgrwt>
<rscale>  0 0.14942368E+02</rscale>
<asrwt>0</asrwt>
<pdfrwt beam="1">  1        2 0.99149267E+00 0.14942368E+02</pdfrwt>
<pdfrwt beam="2">  1       -2 0.99255302E+00 0.14942368E+02</pdfrwt>
<totfact>-0.12379804E-13</totfact>
</mgrwt>
</event>
<event>
 4    1 -0.5109406E-019  0.1493443E+02  0.7818608E-02  0.1870076E+00
          2   -1    0    0  501    0  0.00000000000E+00  0.00000000000E+00  0.11929730749E+03  0.11929730752E+03  0.25500000000E-02 0. -1.
         -2   -1    0    0    0  501 -0.00000000000E+00 -0.00000000000E+00 -0.46739421379E+00  0.46740116986E+00  0.25500000000E-02 0.  1.
         31    1    1    2    0    0 -0.17870807836E+00  0.17083863145E+00  0.63337412014E+02  0.63774193912E+02  0.74470750000E+01 0. -1.
        -31    1    1    2    0    0  0.17870807836E+00 -0.17083863145E+00  0.55492501267E+02  0.55990514780E+02  0.74470750000E+01 0.  1.
<mgrwt>
<rscale>  0 0.14934429E+02</rscale>
<asrwt>0</asrwt>
<pdfrwt beam="1">  1        2 0.99029841E+00 0.14934429E+02</pdfrwt>
<pdfrwt beam="2">  1       -2 0.99269429E+00 0.14934429E+02</pdfrwt>
<totfact>-0.14154519E-13</totfact>
</mgrwt>
</event>
<event>
 4    1  0.5109406E-019  0.1491490E+02  0.7818608E-02  0.1870677E+00
         -2   -1    0    0    0  501 -0.00000000000E+00  0.00000000000E+00  0.11881256895E+03  0.11881256898E+03  0.25500000000E-02 0.  1.
          2   -1    0    0  501    0  0.00000000000E+00 -0.00000000000E+00 -0.46807454355E+00  0.46808148950E+00  0.25500000000E-02 0. -1.
         31    1    1    2    0    0 -0.26658145880E+00 -0.31949008262E-02  0.61483942184E+02  0.61933877228E+02  0.74470750000E+01 0.  1.
        -31    1    1    2    0    0  0.26658145880E+00  0.31949008262E-02  0.56860552227E+02  0.57346773244E+02  0.74470750000E+01 0. -1.
<mgrwt>
<rscale>  0 0.14914899E+02</rscale>
<asrwt>0</asrwt>
<pdfrwt beam="2">  1        2 0.99411772E+00 0.14914899E+02</pdfrwt>
<pdfrwt beam="1">  1       -2 0.98629587E+00 0.14914899E+02</pdfrwt>
<totfact> 0.34926569E-13</totfact>
</mgrwt>
</event>
<event>
 4    1  0.5109406E-019  0.1490763E+02  0.7818608E-02  0.1870900E+00
          2   -1    0    0  501    0  0.00000000000E+00  0.00000000000E+00  0.11926892273E+03  0.11926892276E+03  0.25500000000E-02 0. -1.
         -2   -1    0    0    0  501 -0.00000000000E+00 -0.00000000000E+00 -0.46582889139E+00  0.46583587084E+00  0.25500000000E-02 0.  1.
         31    1    1    2    0    0 -0.20864170853E-01 -0.77553797955E-01  0.56939658413E+02  0.57424646940E+02  0.74470750000E+01 0.  1.
        -31    1    1    2    0    0  0.20864170853E-01  0.77553797955E-01  0.61863435425E+02  0.62310111687E+02  0.74470750000E+01 0. -1.
<mgrwt>
<rscale>  0 0.14907626E+02</rscale>
<asrwt>0</asrwt>
<pdfrwt beam="1">  1        2 0.99005076E+00 0.14907626E+02</pdfrwt>
<pdfrwt beam="2">  1       -2 0.98938178E+00 0.14907626E+02</pdfrwt>
<totfact> 0.68929431E-14</totfact>
</mgrwt>
</event>
<event>
 4    1 -0.5109406E-019  0.1490917E+02  0.7818608E-02  0.1870853E+00
         -2   -1    0    0    0  501 -0.00000000000E+00  0.00000000000E+00  0.12003680427E+03  0.12003680430E+03  0.25500000000E-02 0.  1.
          2   -1    0    0  501    0  0.00000000000E+00 -0.00000000000E+00 -0.46294460978E+00  0.46295163270E+00  0.25500000000E-02 0. -1.
         31    1    1    2    0    0 -0.60735475466E-01  0.94885966958E-01  0.57241363566E+02  0.57723871328E+02  0.74470750000E+01 0. -1.
        -31    1    1    2    0    0  0.60735475466E-01 -0.94885966958E-01  0.62332496098E+02  0.62775884605E+02  0.74470750000E+01 0.  1.
<mgrwt>
<rscale>  0 0.14909167E+02</rscale>
<asrwt>0</asrwt>
<pdfrwt beam="2">  1        2 0.98330391E+00 0.14909167E+02</pdfrwt>
<pdfrwt beam="1">  1       -2 0.99637629E+00 0.14909167E+02</pdfrwt>
<totfact>-0.41182926E-13</totfact>
</mgrwt>
</event>
<event>
 4    1  0.5109406E-019  0.1492665E+02  0.7818608E-02  0.1870315E+00
          2   -1    0    0  501    0  0.00000000000E+00  0.00000000000E+00  0.12025768134E+03  0.12025768136E+03  0.25500000000E-02 0. -1.
         -2   -1    0    0    0  501 -0.00000000000E+00 -0.00000000000E+00 -0.46317845881E+00  0.46318547819E+00  0.25500000000E-02 0.  1.
         31    1    1    2    0    0  0.30925352448E+00 -0.19623609477E+00  0.62556592085E+02  0.62999367344E+02  0.74470750000E+01 0. -1.
        -31    1    1    2    0    0 -0.30925352448E+00  0.19623609477E+00  0.57237910793E+02  0.57721499498E+02  0.74470750000E+01 0.  1.
<mgrwt>
<rscale>  0 0.14926646E+02</rscale>
<asrwt>0</asrwt>
<pdfrwt beam="1">  1        2 0.99820459E+00 0.14926646E+02</pdfrwt>
<pdfrwt beam="2">  1       -2 0.98380564E+00 0.14926646E+02</pdfrwt>
<totfact> 0.33373044E-13</totfact>
</mgrwt>
</event>
<event>
 4    1 -0.5109406E-019  0.1495797E+02  0.7818608E-02  0.1869354E+00
          2   -1    0    0  501    0  0.00000000000E+00  0.00000000000E+00  0.11933121336E+03  0.11933121338E+03  0.25500000000E-02 0.  1.
         -2   -1    0    0    0  501 -0.00000000000E+00 -0.00000000000E+00 -0.46873550409E+00  0.46874244025E+00  0.25500000000E-02 0. -1.
         31    1    1    2    0    0 -0.15638970519E+00 -0.32875832750E+00  0.64126841894E+02  0.64558836089E+02  0.74470750000E+01 0.  1.
        -31    1    1    2    0    0  0.15638970519E+00  0.32875832750E+00  0.54735635957E+02  0.55241119734E+02  0.74470750000E+01 0. -1.
<mgrwt>
<rscale>  0 0.14957967E+02</rscale>
<asrwt>0</asrwt>
<pdfrwt beam="1">  1        2 0.99058985E+00 0.14957967E+02</pdfrwt>
<pdfrwt beam="2">  1       -2 0.99553296E+00 0.14957967E+02</pdfrwt>
<totfact>-0.16534026E-13</totfact>
</mgrwt>
</event>
<event>
 4    1 -0.5109406E-019  0.1492930E+02  0.7818608E-02  0.1870234E+00
         -2   -1    0    0    0  501 -0.00000000000E+00  0.00000000000E+00  0.11992393768E+03  0.11992393770E+03  0.25500000000E-02 0. -1.
          2   -1    0    0  501    0  0.00000000000E+00 -0.00000000000E+00 -0.46463254557E+00  0.46463954298E+00  0.25500000000E-02 0.  1.
         31    1    1    2    0    0  0.89908154686E-01 -0.49111896475E+00  0.60641263821E+02  0.61098863207E+02  0.74470750000E+01 0.  1.
        -31    1    1    2    0    0 -0.89908154686E-01  0.49111896475E+00  0.58818041309E+02  0.59289714039E+02  0.74470750000E+01 0.  1.
<mgrwt>
<rscale>  0 0.14929298E+02</rscale>
<asrwt>0</asrwt>
<pdfrwt beam="2">  1        2 0.98687166E+00 0.14929298E+02</pdfrwt>
<pdfrwt beam="1">  1       -2 0.99545699E+00 0.14929298E+02</pdfrwt>
<totfact>-0.25548086E-13</totfact>
</mgrwt>
</event>
<event>
 4    1 -0.5109406E-019  0.1495403E+02  0.7818608E-02  0.1869475E+00
         -2   -1    0    0    0  501 -0.00000000000E+00  0.00000000000E+00  0.11998761888E+03  0.11998761890E+03  0.25500000000E-02 0. -1.
          2   -1    0    0  501    0  0.00000000000E+00 -0.00000000000E+00 -0.46592561395E+00  0.46593259194E+00  0.25500000000E-02 0.  1.
         31    1    1    2    0    0 -0.52362799454E+00  0.20712148581E+00  0.62661908371E+02  0.63105394162E+02  0.74470750000E+01 0. -1.
        -31    1    1    2    0    0  0.52362799454E+00 -0.20712148581E+00  0.56859784892E+02  0.57348157334E+02  0.74470750000E+01 0.  1.
<mgrwt>
<rscale>  0 0.14954026E+02</rscale>
<asrwt>0</asrwt>
<pdfrwt beam="2">  1        2 0.98960948E+00 0.14954026E+02</pdfrwt>
<pdfrwt beam="1">  1       -2 0.99599424E+00 0.14954026E+02</pdfrwt>
<totfact>-0.17425980E-13</totfact>
</mgrwt>
</event>
<event>
 4    1 -0.5109406E-019  0.1493360E+02  0.7818608E-02  0.1870102E+00
          2   -1    0    0  501    0  0.00000000000E+00  0.00000000000E+00  0.11891913211E+03  0.11891913213E+03  0.25500000000E-02 0.  1.
         -2   -1    0    0    0  501 -0.00000000000E+00 -0.00000000000E+00 -0.46882847499E+00  0.46883540977E+00  0.25500000000E-02 0. -1.
         31    1    1    2    0    0 -0.73322116613E-01  0.51156688801E+00  0.57909366005E+02  0.58388532041E+02  0.74470750000E+01 0.  1.
        -31    1    1    2    0    0  0.73322116613E-01 -0.51156688801E+00  0.60540937626E+02  0.60999435502E+02  0.74470750000E+01 0.  1.
<mgrwt>
<rscale>  0 0.14933598E+02</rscale>
<asrwt>0</asrwt>
<pdfrwt beam="1">  1        2 0.98718325E+00 0.14933598E+02</pdfrwt>
<pdfrwt beam="2">  1       -2 0.99571614E+00 0.14933598E+02</pdfrwt>
<totfact>-0.24000690E-13</totfact>
</mgrwt>
</event>
<event>
 4    1 -0.5109406E-019  0.1496786E+02  0.7818608E-02  0.1869051E+00
          2   -1    0    0  501    0  0.00000000000E+00  0.00000000000E+00  0.11979268150E+03  0.11979268153E+03  0.25500000000E-02 0. -1.
         -2   -1    0    0    0  501 -0.00000000000E+00 -0.00000000000E+00 -0.46754756590E+00  0.46755451968E+00  0.25500000000E-02 0.  1.
         31    1    1    2    0    0 -0.23741380796E+00 -0.42769998783E-01  0.65298662873E+02  0.65722389591E+02  0.74470750000E+01 0. -1.
        -31    1    1    2    0    0  0.23741380796E+00  0.42769998783E-01  0.54026471062E+02  0.54537846456E+02  0.74470750000E+01 0.  1.
<mgrwt>
<rscale>  0 0.14967858E+02</rscale>
<asrwt>0</asrwt>
<pdfrwt beam="1">  1        2 0.99439577E+00 0.14967858E+02</pdfrwt>
<pdfrwt beam="2">  1       -2 0.99303475E+00 0.14967858E+02</pdfrwt>
<totfact>-0.11029023E-13</totfact>
</mgrwt>
</event>
<event>
 4    1  0.5109406E-019  0.1490396E+02  0.7818608E-02  0.1871013E+00
          2   -1    0    0  501    0  0.00000000000E+00  0.00000000000E+00  0.11997331019E+03  0.11997331021E+03  0.25500000000E-02 0.  1.
         -2   -1    0    0    0  501 -0.00000000000E+00 -0.00000000000E+00 -0.46286632535E+00  0.46287334947E+00  0.25500000000E-02 0. -1.
         31    1    1    2    0    0 -0.21867390615E+00  0.74707998316E-01  0.60889539932E+02  0.61343690782E+02  0.74470750000E+01 0. -1.
        -31    1    1    2    0    0  0.21867390615E+00 -0.74707998316E-01  0.58620903928E+02  0.59092492780E+02  0.74470750000E+01 0. -1.
<mgrwt>
<rscale>  0 0.14903963E+02</rscale>
<asrwt>0</asrwt>
<pdfrwt beam="1">  1        2 0.99585063E+00 0.14903963E+02</pdfrwt>
<pdfrwt beam="2">  1       -2 0.98313628E+00 0.14903963E+02</pdfrwt>
<totfact> 0.69829441E-13</totfact>
</mgrwt>
</event>
<event>
 4    1 -0.5109406E-019  0.1494080E+02  0.7818608E-02  0.1869880E+00
          2   -1    0    0  501    0  0.00000000000E+00  0.00000000000E+00  0.11937119977E+03  0.11937119980E+03  0.25500000000E-02 0. -1.
         -2   -1    0    0    0  501 -0.00000000000E+00 -0.00000000000E+00 -0.46750351985E+00  0.46751047429E+00  0.25500000000E-02 0.  1.
         31    1    1    2    0    0 -0.40612899596E+00  0.42710453790E+00  0.59257137156E+02  0.59726163354E+02  0.74470750000E+01 0.  1.
        -31    1    1    2    0    0  0.40612899596E+00 -0.42710453790E+00  0.59646559096E+02  0.60112546920E+02  0.74470750000E+01 0. -1.
<mgrwt>
<rscale>  0 0.14940800E+02</rscale>
<asrwt>0</asrwt>
<pdfrwt beam="1">  1        2 0.99091030E+00 0.14940800E+02</pdfrwt>
<pdfrwt beam="2">  1       -2 0.99292794E+00 0.14940800E+02</pdfrwt>
<totfact>-0.14099183E-13</totfact>
</mgrwt>
</event>
<event>
 4    1  0.5109406E-019  0.1491299E+02  0.7818608E-02  0.1870735E+00
         -2   -1    0    0    0  501 -0.00000000000E+00  0.00000000000E+00  0.11868187201E+03  0.11868187204E+03  0.25500000000E-02 0. -1.
          2   -1    0    0  501    0  0.00000000000E+00 -0.00000000000E+00 -0.46846989671E+00  0.46847683680E+00  0.25500000000E-02 0.  1.
         31    1    1    2    0    0  0.18983903315E+00 -0.61735612301E-01  0.61639868179E+02  0.62088421830E+02  0.74470750000E+01 0. -1.
        -31    1    1    2    0    0 -0.18983903315E+00  0.61735612301E-01  0.56573533937E+02  0.57061927047E+02  0.74470750000E+01 0.  1.
<mgrwt>
<rscale>  0 0.14912988E+02</rscale>
<asrwt>0</asrwt>
<pdfrwt beam="2">  1        2 0.99494978E+00 0.14912988E+02</pdfrwt>
<pdfrwt beam="1">  1       -2 0.98521845E+00 0.14912988E+02</pdfrwt>
<totfact> 0.45763696E-13</totfact>
</mgrwt>
</event>
<event>
 4    1 -0.5109406E-019  0.1490950E+02  0.7818608E-02  0.1870843E+00
         -2   -1    0    0    0  501 -0.00000000000E+00  0.00000000000E+00  0.12005129009E+03  0.12005129012E+03  0.25500000000E-02 0.  1.
          2   -1    0    0  501    0  0.00000000000E+00 -0.00000000000E+00 -0.46290913091E+00  0.46291615437E+00  0.25500000000E-02 0. -1.
         31    1    1    2    0    0 -0.15884724474E+00  0.26316592758E+00  0.58655415263E+02  0.59127076323E+02  0.74470750000E+01 0. -1.
        -31    1    1    2    0    0  0.15884724474E+00 -0.26316592758E+00  0.60932965694E+02  0.61387129946E+02  0.74470750000E+01 0. -1.
<mgrwt>
<rscale>  0 0.14909495E+02</rscale>
<asrwt>0</asrwt>
<pdfrwt beam="2">  1        2 0.98322930E+00 0.14909495E+02</pdfrwt>
<pdfrwt beam="1">  1       -2 0.99649578E+00 0.14909495E+02</pdfrwt>
<totfact>-0.40963556E-13</totfact>
</mgrwt>
</event>
<event>
 4    1 -0.5109406E-019  0.1494018E+02  0.7818608E-02  0.1869899E+00
         -2   -1    0    0    0  501 -0.00000000000E+00  0.00000000000E+00  0.11998624295E+03  0.11998624298E+03  0.25500000000E-02 0. -1.
          2   -1    0    0  501    0  0.00000000000E+00 -0.00000000000E+00 -0.46506850188E+00  0.46507549273E+00  0.25500000000E-02 0.  1.
         31    1    1    2    0    0 -0.19291746724E-01  0.49030474105E+00  0.57178807310E+02  0.57663816232E+02  0.74470750000E+01 0.  1.
        -31    1    1    2    0    0  0.19291746724E-01 -0.49030474105E+00  0.62342367139E+02  0.62787502240E+02  0.74470750000E+01 0. -1.
<mgrwt>
<rscale>  0 0.14940180E+02</rscale>
<asrwt>0</asrwt>
<pdfrwt beam="2">  1        2 0.98779602E+00 0.14940180E+02</pdfrwt>
<pdfrwt beam="1">  1       -2 0.99597578E+00 0.14940180E+02</pdfrwt>
<totfact>-0.21561366E-13</totfact>
</mgrwt>
</event>
<event>
 4    1 -0.5109406E-019  0.1491116E+02  0.7818608E-02  0.1870792E+00
         -2   -1    0    0    0  501 -0.00000000000E+00  0.00000000000E+00  0.11985935645E+03  0.11985935647E+03  0.25500000000E-02 0.  1.
          2   -1    0    0  501    0  0.00000000000E+00 -0.00000000000E+00 -0.46375387800E+00  0.46376088867E+00  0.25500000000E-02 0. -1.
         31    1    1    2    0    0  0.70573894563E-01 -0.24011240976E+00  0.61740858281E+02  0.62188866705E+02  0.74470750000E+01 0.  1.
        -31    1    1    2    0    0 -0.70573894563E-01  0.24011240976E+00  0.57654744286E+02  0.58134250656E+02  0.74470750000E+01 0. -1.
<mgrwt>
<rscale>  0 0.14911159E+02</rscale>
<asrwt>0</asrwt>
<pdfrwt beam="2">  1        2 0.98501056E+00 0.14911159E+02</pdfrwt>
<pdfrwt beam="1">  1       -2 0.99491572E+00 0.14911159E+02</pdfrwt>
<totfact>-0.34705753E-13</totfact>
</mgrwt>
</event>
<event>
 4    1  0.5109406E-019  0.1491087E+02  0.7818608E-02  0.1870801E+00
         -2   -1    0    0    0  501 -0.00000000000E+00  0.00000000000E+00  0.11877265979E+03  0.11877265981E+03  0.25500000000E-02 0.  1.
          2   -1    0    0  501    0  0.00000000000E+00 -0.00000000000E+00 -0.46797866341E+00  0.46798561079E+00  0.25500000000E-02 0. -1.
         31    1    1    2    0    0 -0.17038548454E+00  0.30203742408E+00  0.58627794260E+02  0.59099893770E+02  0.74470750000E+01 0.  1.
        -31    1    1    2    0    0  0.17038548454E+00 -0.30203742408E+00  0.59676886862E+02  0.60140751653E+02  0.74470750000E+01 0. -1.
<mgrwt>
<rscale>  0 0.14910867E+02</rscale>
<asrwt>0</asrwt>
<pdfrwt beam="2">  1        2 0.99391358E+00 0.14910867E+02</pdfrwt>
<pdfrwt beam="1">  1       -2 0.98596508E+00 0.14910867E+02</pdfrwt>
<totfact> 0.39782327E-13</totfact>
</mgrwt>
</event>
<event>
 4    1 -0.5109406E-019  0.1492460E+02  0.7818608E-02  0.1870378E+00
          2   -1    0    0  501    0  0.00000000000E+00  0.00000000000E+00  0.11864720060E+03  0.11864720063E+03  0.25500000000E-02 0.  1.
         -2   -1    0    0    0  501 -0.00000000000E+00 -0.00000000000E+00 -0.46933715527E+00  0.46934408254E+00  0.25500000000E-02 0. -1.
         31    1    1    2    0    0 -0.31231347180E+00  0.34884664394E+00  0.58384317199E+02  0.58859210448E+02  0.74470750000E+01 0. -1.
        -31    1    1    2    0    0  0.31231347180E+00 -0.34884664394E+00  0.59793546244E+02  0.60257334261E+02  0.74470750000E+01 0.  1.
<mgrwt>
<rscale>  0 0.14924604E+02</rscale>
<asrwt>0</asrwt>
<pdfrwt beam="1">  1        2 0.98493893E+00 0.14924604E+02</pdfrwt>
<pdfrwt beam="2">  1       -2 0.99678325E+00 0.14924604E+02</pdfrwt>
<totfact>-0.29339305E-13</totfact>
</mgrwt>
</event>
<event>
 4    1 -0.5109406E-019  0.1498343E+02  0.7818608E-02  0.1868574E+00
         -2   -1    0    0    0  501 -0.00000000000E+00  0.00000000000E+00  0.11997602685E+03  0.11997602688E+03  0.25500000000E-02 0. -1.
          2   -1    0    0  501    0  0.00000000000E+00 -0.00000000000E+00 -0.46780503786E+00  0.46781198782E+00  0.25500000000E-02 0.  1.
         31    1    1    2    0    0  0.60643136190E-01 -0.34349356468E+00  0.53818593709E+02  0.54332509792E+02  0.74470750000E+01 0. -1.
        -31    1    1    2    0    0 -0.60643136190E-01  0.34349356468E+00  0.65689628108E+02  0.66111329078E+02  0.74470750000E+01 0. -1.
<mgrwt>
<rscale>  0 0.14983432E+02</rscale>
<asrwt>0</asrwt>
<pdfrwt beam="2">  1        2 0.99358537E+00 0.14983432E+02</pdfrwt>
<pdfrwt beam="1">  1       -2 0.99591393E+00 0.14983432E+02</pdfrwt>
<totfact>-0.12774889E-13</totfact>
</mgrwt>
</event>
<event>
 4    1 -0.5109406E-019  0.1501345E+02  0.7818608E-02  0.1867658E+00
          2   -1    0    0  501    0  0.00000000000E+00  0.00000000000E+00  0.11985924578E+03  0.11985924581E+03  0.25500000000E-02 0.  1.
         -2   -1    0    0    0  501 -0.00000000000E+00 -0.00000000000E+00 -0.47013880180E+00  0.47014571726E+00  0.25500000000E-02 0. -1.
         31    1    1    2    0    0 -0.15223140166E-01 -0.68891651873E+00  0.54518125243E+02  0.55028717446E+02  0.74470750000E+01 0.  1.
        -31    1    1    2    0    0  0.15223140166E-01  0.68891651873E+00  0.64870981735E+02  0.65300674078E+02  0.74470750000E+01 0.  1.
<mgrwt>
<rscale>  0 0.15013447E+02</rscale>
<asrwt>0</asrwt>
<pdfrwt beam="1">  1        2 0.99496760E+00 0.15013447E+02</pdfrwt>
<pdfrwt beam="2">  1       -2 0.99851891E+00 0.15013447E+02</pdfrwt>
<totfact>-0.55323657E-14</totfact>
</mgrwt>
</event>
<event>
 4    1 -0.5109406E-019  0.1489870E+02  0.7818608E-02  0.1871176E+00
          2   -1    0    0  501    0  0.00000000000E+00  0.00000000000E+00  0.11844075973E+03  0.11844075976E+03  0.25500000000E-02 0.  1.
         -2   -1    0    0    0  501 -0.00000000000E+00 -0.00000000000E+00 -0.46852447801E+00  0.46853141730E+00  0.25500000000E-02 0. -1.
         31    1    1    2    0    0 -0.50001668940E-01 -0.11288603136E+00  0.60075771842E+02  0.60535712863E+02  0.74470750000E+01 0. -1.
        -31    1    1    2    0    0  0.50001668940E-01  0.11288603136E+00  0.57896463412E+02  0.58373578314E+02  0.74470750000E+01 0.  1.
<mgrwt>
<rscale>  0 0.14898699E+02</rscale>
<asrwt>0</asrwt>
<pdfrwt beam="1">  1        2 0.98322522E+00 0.14898699E+02</pdfrwt>
<pdfrwt beam="2">  1       -2 0.99505727E+00 0.14898699E+02</pdfrwt>
<totfact>-0.46553516E-13</totfact>
</mgrwt>
</event>
<event>
 4    1  0.5109406E-019  0.1490588E+02  0.7818608E-02  0.1870954E+00
          2   -1    0    0  501    0  0.00000000000E+00  0.00000000000E+00  0.12033611264E+03  0.12033611267E+03  0.25500000000E-02 0.  1.
         -2   -1    0    0    0  501 -0.00000000000E+00 -0.00000000000E+00 -0.46158920888E+00  0.46159625243E+00  0.25500000000E-02 0. -1.
         31    1    1    2    0    0  0.39368905141E-01 -0.12343688597E+00  0.57784493369E+02  0.58262538450E+02  0.74470750000E+01 0. -1.
        -31    1    1    2    0    0 -0.39368905141E-01  0.12343688597E+00  0.62090030063E+02  0.62535170471E+02  0.74470750000E+01 0.  1.
<mgrwt>
<rscale>  0 0.14905875E+02</rscale>
<asrwt>0</asrwt>
<pdfrwt beam="1">  1        2 0.99883998E+00 0.14905875E+02</pdfrwt>
<pdfrwt beam="2">  1       -2 0.98044542E+00 0.14905875E+02</pdfrwt>
<totfact> 0.45822119E-13</totfact>
</mgrwt>
</event>
<event>
 4    1 -0.5109406E-019  0.1498158E+02  0.7818608E-02  0.1868631E+00
         -2   -1    0    0    0  501 -0.00000000000E+00  0.00000000000E+00  0.11974338926E+03  0.11974338929E+03  0.25500000000E-02 0.  1.
          2   -1    0    0  501    0  0.00000000000E+00 -0.00000000000E+00 -0.46859778055E+00  0.46860471875E+00  0.25500000000E-02 0. -1.
         31    1    1    2    0    0  0.22321223733E+00  0.74303723269E+00  0.57824417942E+02  0.58307153630E+02  0.74470750000E+01 0.  1.
        -31    1    1    2    0    0 -0.22321223733E+00 -0.74303723269E+00  0.61450373538E+02  0.61904840377E+02  0.74470750000E+01 0. -1.
<mgrwt>
<rscale>  0 0.14981576E+02</rscale>
<asrwt>0</asrwt>
<pdfrwt beam="2">  1        2 0.99525501E+00 0.14981576E+02</pdfrwt>
<pdfrwt beam="1">  1       -2 0.99399687E+00 0.14981576E+02</pdfrwt>
<totfact>-0.11354015E-13</totfact>
</mgrwt>
</event>
<event>
 4    1 -0.5109406E-019  0.1492771E+02  0.7818608E-02  0.1870282E+00
          2   -1    0    0  501    0  0.00000000000E+00  0.00000000000E+00  0.11911272507E+03  0.11911272510E+03  0.25500000000E-02 0. -1.
         -2   -1    0    0    0  501 -0.00000000000E+00 -0.00000000000E+00 -0.46769747438E+00  0.46770442594E+00  0.25500000000E-02 0.  1.
         31    1    1    2    0    0 -0.43682333013E+00  0.76721143049E-01  0.57469455885E+02  0.57951652147E+02  0.74470750000E+01 0.  1.
        -31    1    1    2    0    0  0.43682333013E+00 -0.76721143049E-01  0.61175571713E+02  0.61628777379E+02  0.74470750000E+01 0. -1.
<mgrwt>
<rscale>  0 0.14927711E+02</rscale>
<asrwt>0</asrwt>
<pdfrwt beam="1">  1        2 0.98877466E+00 0.14927711E+02</pdfrwt>
<pdfrwt beam="2">  1       -2 0.99332985E+00 0.14927711E+02</pdfrwt>
<totfact>-0.18582543E-13</totfact>
</mgrwt>
</event>
<event>
 4    1  0.5109406E-019  0.1493028E+02  0.7818608E-02  0.1870203E+00
          2   -1    0    0  501    0  0.00000000000E+00  0.00000000000E+00  0.12012204231E+03  0.12012204234E+03  0.25500000000E-02 0. -1.
         -2   -1    0    0    0  501 -0.00000000000E+00 -0.00000000000E+00 -0.46392740537E+00  0.46393441341E+00  0.25500000000E-02 0.  1.
         31    1    1    2    0    0  0.47141405129E+00  0.58871180390E-01  0.61517599034E+02  0.61968537291E+02  0.74470750000E+01 0. -1.
        -31    1    1    2    0    0 -0.47141405129E+00 -0.58871180390E-01  0.58140515869E+02  0.58617439457E+02  0.74470750000E+01 0.  1.
<mgrwt>
<rscale>  0 0.14930282E+02</rscale>
<asrwt>0</asrwt>
<pdfrwt beam="1">  1        2 0.99708923E+00 0.14930282E+02</pdfrwt>
<pdfrwt beam="2">  1       -2 0.98538601E+00 0.14930282E+02</pdfrwt>
<totfact> 0.31334884E-13</totfact>
</mgrwt>
</event>
<event>
 4    1 -0.5109406E-019  0.1492972E+02  0.7818608E-02  0.1870221E+00
          2   -1    0    0  501    0  0.00000000000E+00  0.00000000000E+00  0.11850871167E+03  0.11850871169E+03  0.25500000000E-02 0. -1.
         -2   -1    0    0    0  501 -0.00000000000E+00 -0.00000000000E+00 -0.47020769075E+00  0.47021460520E+00  0.25500000000E-02 0.  1.
         31    1    1    2    0    0 -0.36592029350E+00 -0.14874943239E+00  0.61652374696E+02  0.62101773371E+02  0.74470750000E+01 0. -1.
        -31    1    1    2    0    0  0.36592029350E+00  0.14874943239E+00  0.56386129280E+02  0.56877152929E+02  0.74470750000E+01 0.  1.
<mgrwt>
<rscale>  0 0.14929718E+02</rscale>
<asrwt>0</asrwt>
<pdfrwt beam="1">  1        2 0.98380101E+00 0.14929718E+02</pdfrwt>
<pdfrwt beam="2">  1       -2 0.99862017E+00 0.14929718E+02</pdfrwt>
<totfact>-0.18374326E-13</totfact>
</mgrwt>
</event>
<event>
 4    1 -0.5109406E-019  0.1496379E+02  0.7818608E-02  0.1869176E+00
         -2   -1    0    0    0  501 -0.00000000000E+00  0.00000000000E+00  0.12017040442E+03  0.12017040445E+03  0.25500000000E-02 0. -1.
          2   -1    0    0  501    0  0.00000000000E+00 -0.00000000000E+00 -0.46582442159E+00  0.46583140109E+00  0.25500000000E-02 0.  1.
         31    1    1    2    0    0  0.59506707358E+00 -0.69912415227E-01  0.56619354735E+02  0.57110150142E+02  0.74470750000E+01 0. -1.
        -31    1    1    2    0    0 -0.59506707358E+00  0.69912415227E-01  0.63085225267E+02  0.63526085709E+02  0.74470750000E+01 0. -1.
<mgrwt>
<rscale>  0 0.14963787E+02</rscale>
<asrwt>0</asrwt>
<pdfrwt beam="2">  1        2 0.98940120E+00 0.14963787E+02</pdfrwt>
<pdfrwt beam="1">  1       -2 0.99750480E+00 0.14963787E+02</pdfrwt>
<totfact>-0.13366691E-13</totfact>
</mgrwt>
</event>
<event>
 4    1  0.5109406E-019  0.1491567E+02  0.7818608E-02  0.1870653E+00
          2   -1    0    0  501    0  0.00000000000E+00  0.00000000000E+00  0.12002048713E+03  0.12002048716E+03  0.25500000000E-02 0. -1.
         -2   -1    0    0    0  501 -0.00000000000E+00 -0.00000000000E+00 -0.46341163293E+00  0.46341864877E+00  0.25500000000E-02 0.  1.
         31    1    1    2    0    0  0.74400537600E-01 -0.14906202014E+00  0.62720332643E+02  0.63161117848E+02  0.74470750000E+01 0. -1.
        -31    1    1    2    0    0 -0.74400537600E-01  0.14906202014E+00  0.56836742853E+02  0.57322787957E+02  0.74470750000E+01 0.  1.
<mgrwt>
<rscale>  0 0.14915672E+02</rscale>
<asrwt>0</asrwt>
<pdfrwt beam="1">  1        2 0.99624523E+00 0.14915672E+02</pdfrwt>
<pdfrwt beam="2">  1       -2 0.98429153E+00 0.14915672E+02</pdfrwt>
<totfact> 0.49983394E-13</totfact>
</mgrwt>
</event>
<event>
 4    1  0.5109406E-019  0.1489704E+02  0.7818608E-02  0.1871227E+00
         -2   -1    0    0    0  501 -0.00000000000E+00  0.00000000000E+00  0.11897688158E+03  0.11897688161E+03  0.25500000000E-02 0. -1.
          2   -1    0    0  501    0  0.00000000000E+00 -0.00000000000E+00 -0.46630914509E+00  0.46631611734E+00  0.25500000000E-02 0.  1.
         31    1    1    2    0    0 -0.26056722046E-01 -0.77683176024E-01  0.60230255512E+02  0.60688955492E+02  0.74470750000E+01 0. -1.
        -31    1    1    2    0    0  0.26056722046E-01  0.77683176024E-01  0.58280316922E+02  0.58754242232E+02  0.74470750000E+01 0.  1.
<mgrwt>
<rscale>  0 0.14897037E+02</rscale>
<asrwt>0</asrwt>
<pdfrwt beam="2">  1        2 0.99038835E+00 0.14897037E+02</pdfrwt>
<pdfrwt beam="1">  1       -2 0.98763993E+00 0.14897037E+02</pdfrwt>
<totfact> 0.26500675E-13</totfact>
</mgrwt>
</event>
<event>
 4    1  0.5109406E-019  0.1490417E+02  0.7818608E-02  0.1871007E+00
         -2   -1    0    0    0  501 -0.00000000000E+00  0.00000000000E+00  0.11847894290E+03  0.11847894293E+03  0.25500000000E-02 0. -1.
          2   -1    0    0  501    0  0.00000000000E+00 -0.00000000000E+00 -0.46871751478E+00  0.46872445121E+00  0.25500000000E-02 0.  1.
         31    1    1    2    0    0  0.29789538291E-02  0.18531249869E+00  0.60607137868E+02  0.61063233096E+02  0.74470750000E+01 0. -1.
        -31    1    1    2    0    0 -0.29789538291E-02 -0.18531249869E+00  0.57403087519E+02  0.57884434284E+02  0.74470750000E+01 0.  1.
<mgrwt>
<rscale>  0 0.14904170E+02</rscale>
<asrwt>0</asrwt>
<pdfrwt beam="2">  1        2 0.99546689E+00 0.14904170E+02</pdfrwt>
<pdfrwt beam="1">  1       -2 0.98354254E+00 0.14904170E+02</pdfrwt>
<totfact> 0.66865510E-13</totfact>
</mgrwt>
</event>
<event>
 4    1 -0.5109406E-019  0.1500322E+02  0.7818608E-02  0.1867970E+00
         -2   -1    0    0    0  501 -0.00000000000E+00  0.00000000000E+00  0.11978092337E+03  0.11978092340E+03  0.25500000000E-02 0.  1.
          2   -1    0    0  501    0  0.00000000000E+00 -0.00000000000E+00 -0.46980543440E+00  0.46981235476E+00  0.25500000000E-02 0. -1.
         31    1    1    2    0    0 -0.52028809581E+00 -0.39677371240E+00  0.64642221803E+02  0.65073065817E+02  0.74470750000E+01 0.  1.
        -31    1    1    2    0    0  0.52028809581E+00  0.39677371240E+00  0.54668896132E+02  0.55177669934E+02  0.74470750000E+01 0. -1.
<mgrwt>
<rscale>  0 0.15003219E+02</rscale>
<asrwt>0</asrwt>
<pdfrwt beam="2">  1        2 0.99781110E+00 0.15003219E+02</pdfrwt>
<pdfrwt beam="1">  1       -2 0.99431722E+00 0.15003219E+02</pdfrwt>
<totfact>-0.69831933E-14</totfact>
</mgrwt>
</event>
<event>
 4    1  0.5109406E-019  0.1491223E+02  0.7818608E-02  0.1870759E+00
         -2   -1    0    0    0  501 -0.00000000000E+00  0.00000000000E+00  0.11868275643E+03  0.11868275645E+03  0.25500000000E-02 0. -1.
          2   -1    0    0  501    0  0.00000000000E+00 -0.00000000000E+00 -0.46841883106E+00  0.46842577191E+00  0.25500000000E-02 0.  1.
         31    1    1    2    0    0  0.29506235040E+00  0.19822883827E+00  0.59838199099E+02  0.60300873575E+02  0.74470750000E+01 0.  1.
        -31    1    1    2    0    0 -0.29506235040E+00 -0.19822883827E+00  0.58376138497E+02  0.58850308652E+02  0.74470750000E+01 0. -1.
<mgrwt>
<rscale>  0 0.14912230E+02</rscale>
<asrwt>0</asrwt>
<pdfrwt beam="2">  1        2 0.99484178E+00 0.14912230E+02</pdfrwt>
<pdfrwt beam="1">  1       -2 0.98522534E+00 0.14912230E+02</pdfrwt>
<totfact> 0.46167914E-13</totfact>
</mgrwt>
</event>
<event>
 4    1  0.5109406E-019  0.1492936E+02  0.7818608E-02  0.1870232E+00
         -2   -1    0    0    0  501 -0.00000000000E+00  0.00000000000E+00  0.11883929349E+03  0.11883929352E+03  0.25500000000E-02 0. -1.
          2   -1    0    0  501    0  0.00000000000E+00 -0.00000000000E+00 -0.46887723877E+00  0.46888417284E+00  0.25500000000E-02 0.  1.
         31    1    1    2    0    0  0.40820400744E+00  0.71369354967E-01  0.61593358888E+02  0.62043311560E+02  0.74470750000E+01 0. -1.
        -31    1    1    2    0    0 -0.40820400744E+00 -0.71369354967E-01  0.56777057365E+02  0.57264866133E+02  0.74470750000E+01 0. -1.
<mgrwt>
<rscale>  0 0.14929361E+02</rscale>
<asrwt>0</asrwt>
<pdfrwt beam="2">  1        2 0.99581667E+00 0.14929361E+02</pdfrwt>
<pdfrwt beam="1">  1       -2 0.98652349E+00 0.14929361E+02</pdfrwt>
<totfact> 0.26920247E-13</totfact>
</mgrwt>
</event>
<event>
 4    1 -0.5109406E-019  0.1497052E+02  0.7818608E-02  0.1868969E+00
          2   -1    0    0  501    0  0.00000000000E+00  0.00000000000E+00  0.11941984116E+03  0.11941984119E+03  0.25500000000E-02 0.  1.
         -2   -1    0    0    0  501 -0.00000000000E+00 -0.00000000000E+00 -0.46917423459E+00  0.46918116426E+00  0.25500000000E-02 0. -1.
         31    1    1    2    0    0 -0.54731461967E-01  0.34940293387E-01  0.53450489767E+02  0.53966823130E+02  0.74470750000E+01 0. -1.
        -31    1    1    2    0    0  0.54731461967E-01 -0.34940293387E-01  0.65500177157E+02  0.65922199220E+02  0.74470750000E+01 0.  1.
<mgrwt>
<rscale>  0 0.14970522E+02</rscale>
<asrwt>0</asrwt>
<pdfrwt beam="1">  1        2 0.99132632E+00 0.14970522E+02</pdfrwt>
<pdfrwt beam="2">  1       -2 0.99646400E+00 0.14970522E+02</pdfrwt>
<totfact>-0.14075359E-13</totfact>
</mgrwt>
</event>
<event>
 4    1  0.5109406E-019  0.1490599E+02  0.7818608E-02  0.1870951E+00
          2   -1    0    0  501    0  0.00000000000E+00  0.00000000000E+00  0.12022328427E+03  0.12022328430E+03  0.25500000000E-02 0.  1.
         -2   -1    0    0    0  501 -0.00000000000E+00 -0.00000000000E+00 -0.46202979389E+00  0.46203683072E+00  0.25500000000E-02 0. -1.
         31    1    1    2    0    0 -0.17689703488E+00  0.79302772980E-01  0.58058337840E+02  0.58534324120E+02  0.74470750000E+01 0. -1.
        -31    1    1    2    0    0  0.17689703488E+00 -0.79302772980E-01  0.61702916637E+02  0.62150997008E+02  0.74470750000E+01 0.  1.
<mgrwt>
<rscale>  0 0.14905994E+02</rscale>
<asrwt>0</asrwt>
<pdfrwt beam="1">  1        2 0.99791067E+00 0.14905994E+02</pdfrwt>
<pdfrwt beam="2">  1       -2 0.98137414E+00 0.14905994E+02</pdfrwt>
<totfact> 0.62933964E-13</totfact>
</mgrwt>
</event>
<event>
 4    1 -0.5109406E-019  0.1499363E+02  0.7818608E-02  0.1868263E+00
         -2   -1    0    0    0  501 -0.00000000000E+00  0.00000000000E+00  0.12020943664E+03  0.12020943667E+03  0.25500000000E-02 0. -1.
          2   -1    0    0  501    0  0.00000000000E+00 -0.00000000000E+00 -0.46753254379E+00  0.46753949780E+00  0.25500000000E-02 0.  1.
         31    1    1    2    0    0 -0.85363923342E+00 -0.45941202814E-01  0.60771107222E+02  0.61231668355E+02  0.74470750000E+01 0. -1.
        -31    1    1    2    0    0  0.85363923342E+00  0.45941202814E-01  0.58970796877E+02  0.59445307812E+02  0.74470750000E+01 0. -1.
<mgrwt>
<rscale>  0 0.14993631E+02</rscale>
<asrwt>0</asrwt>
<pdfrwt beam="2">  1        2 0.99301635E+00 0.14993631E+02</pdfrwt>
<pdfrwt beam="1">  1       -2 0.99784167E+00 0.14993631E+02</pdfrwt>
<totfact>-0.88859791E-14</totfact>
</mgrwt>
</event>
<event>
 4    1 -0.5109406E-019  0.1498572E+02  0.7818608E-02  0.1868505E+00
         -2   -1    0    0    0  501 -0.00000000000E+00  0.00000000000E+00  0.12006464174E+03  0.12006464177E+03  0.25500000000E-02 0.  1.
          2   -1    0    0  501    0  0.00000000000E+00 -0.00000000000E+00 -0.46760253542E+00  0.46760948839E+00  0.25500000000E-02 0. -1.
         31    1    1    2    0    0  0.59294763010E-01 -0.14065579009E-01  0.53164455702E+02  0.53683535556E+02  0.74470750000E+01 0. -1.
        -31    1    1    2    0    0 -0.59294763010E-01  0.14065579009E-01  0.66432583505E+02  0.66848715702E+02  0.74470750000E+01 0.  1.
<mgrwt>
<rscale>  0 0.14985720E+02</rscale>
<asrwt>0</asrwt>
<pdfrwt beam="2">  1        2 0.99315979E+00 0.14985720E+02</pdfrwt>
<pdfrwt beam="1">  1       -2 0.99664499E+00 0.14985720E+02</pdfrwt>
<totfact>-0.11949480E-13</totfact>
</mgrwt>
</event>
<event>
 4    1  0.5109406E-019  0.1491441E+02  0.7818608E-02  0.1870692E+00
          2   -1    0    0  501    0  0.00000000000E+00  0.00000000000E+00  0.11981448575E+03  0.11981448577E+03  0.25500000000E-02 0. -1.
         -2   -1    0    0    0  501 -0.00000000000E+00 -0.00000000000E+00 -0.46412981044E+00  0.46413681543E+00  0.25500000000E-02 0.  1.
         31    1    1    2    0    0  0.18722746747E+00  0.33821199107E+00  0.59359736538E+02  0.59826304327E+02  0.74470750000E+01 0. -1.
        -31    1    1    2    0    0 -0.18722746747E+00 -0.33821199107E+00  0.59990619398E+02  0.60452318262E+02  0.74470750000E+01 0. -1.
<mgrwt>
<rscale>  0 0.14914409E+02</rscale>
<asrwt>0</asrwt>
<pdfrwt beam="1">  1        2 0.99454781E+00 0.14914409E+02</pdfrwt>
<pdfrwt beam="2">  1       -2 0.98580452E+00 0.14914409E+02</pdfrwt>
<totfact> 0.39733330E-13</totfact>
</mgrwt>
</event>
<event>
 4    1  0.5109406E-019  0.1490382E+02  0.7818608E-02  0.1871018E+00
         -2   -1    0    0    0  501 -0.00000000000E+00  0.00000000000E+00  0.11824232617E+03  0.11824232620E+03  0.25500000000E-02 0. -1.
          2   -1    0    0  501    0  0.00000000000E+00 -0.00000000000E+00 -0.46963356691E+00  0.46964048981E+00  0.25500000000E-02 0.  1.
         31    1    1    2    0    0  0.17173488839E+00 -0.10409329839E+00  0.60305038301E+02  0.60763450353E+02  0.74470750000E+01 0.  1.
        -31    1    1    2    0    0 -0.17173488839E+00  0.10409329839E+00  0.57467654306E+02  0.57948516338E+02  0.74470750000E+01 0.  1.
<mgrwt>
<rscale>  0 0.14903822E+02</rscale>
<asrwt>0</asrwt>
<pdfrwt beam="2">  1        2 0.99739682E+00 0.14903822E+02</pdfrwt>
<pdfrwt beam="1">  1       -2 0.98159360E+00 0.14903822E+02</pdfrwt>
<totfact> 0.71074471E-13</totfact>
</mgrwt>
</event>
<event>
 4    1 -0.5109406E-019  0.1494531E+02  0.7818608E-02  0.1869742E+00
          2   -1    0    0  501    0  0.00000000000E+00  0.00000000000E+00  0.11905493819E+03  0.11905493822E+03  0.25500000000E-02 0.  1.
         -2   -1    0    0    0  501 -0.00000000000E+00 -0.00000000000E+00 -0.46902864428E+00  0.46903557611E+00  0.25500000000E-02 0. -1.
         31    1    1    2    0    0 -0.29064834860E+00  0.54480410365E+00  0.59137443046E+02  0.59607695678E+02  0.74470750000E+01 0.  1.
        -31    1    1    2    0    0  0.29064834860E+00 -0.54480410365E+00  0.59448466501E+02  0.59916278117E+02  0.74470750000E+01 0.  1.
<mgrwt>
<rscale>  0 0.14945313E+02</rscale>
<asrwt>0</asrwt>
<pdfrwt beam="1">  1        2 0.98830784E+00 0.14945313E+02</pdfrwt>
<pdfrwt beam="2">  1       -2 0.99614406E+00 0.14945313E+02</pdfrwt>
<totfact>-0.19825563E-13</totfact>
</mgrwt>
</event>
<event>
 4    1  0.5109406E-019  0.1494463E+02  0.7818608E-02  0.1869763E+00
          2   -1    0    0  501    0  0.00000000000E+00  0.00000000000E+00  0.11987948605E+03  0.11987948608E+03  0.25500000000E-02 0. -1.
         -2   -1    0    0    0  501 -0.00000000000E+00 -0.00000000000E+00 -0.46575978494E+00  0.46576676542E+00  0.25500000000E-02 0.  1.
         31    1    1    2    0    0 -0.10728269428E+00 -0.33938265684E+00  0.63732019742E+02  0.64166626502E+02  0.74470750000E+01 0. -1.
        -31    1    1    2    0    0  0.10728269428E+00  0.33938265684E+00  0.55681706525E+02  0.56178626342E+02  0.74470750000E+01 0.  1.
<mgrwt>
<rscale>  0 0.14944627E+02</rscale>
<asrwt>0</asrwt>
<pdfrwt beam="1">  1        2 0.99509875E+00 0.14944627E+02</pdfrwt>
<pdfrwt beam="2">  1       -2 0.98925518E+00 0.14944627E+02</pdfrwt>
<totfact> 0.54170246E-14</totfact>
</mgrwt>
</event>
<event>
 4    1 -0.5109406E-019  0.1499825E+02  0.7818608E-02  0.1868122E+00
         -2   -1    0    0    0  501 -0.00000000000E+00  0.00000000000E+00  0.11981436023E+03  0.11981436026E+03  0.25500000000E-02 0. -1.
          2   -1    0    0  501    0  0.00000000000E+00 -0.00000000000E+00 -0.46936345274E+00  0.46937037962E+00  0.25500000000E-02 0.  1.
         31    1    1    2    0    0 -0.46577145400E+00  0.24850859833E-01  0.65676218674E+02  0.66098730592E+02  0.74470750000E+01 0. -1.
        -31    1    1    2    0    0  0.46577145400E+00 -0.24850859833E-01  0.53668778109E+02  0.54185000049E+02  0.74470750000E+01 0. -1.
<mgrwt>
<rscale>  0 0.14998253E+02</rscale>
<asrwt>0</asrwt>
<pdfrwt beam="2">  1        2 0.99687715E+00 0.14998253E+02</pdfrwt>
<pdfrwt beam="1">  1       -2 0.99459004E+00 0.14998253E+02</pdfrwt>
<totfact>-0.90580656E-14</totfact>
</mgrwt>
</event>
<event>
 4    1 -0.5109406E-019  0.1498794E+02  0.7818608E-02  0.1868437E+00
         -2   -1    0    0    0  501 -0.00000000000E+00  0.00000000000E+00  0.11988308838E+03  0.11988308841E+03  0.25500000000E-02 0. -1.
          2   -1    0    0  501    0  0.00000000000E+00 -0.00000000000E+00 -0.46844962788E+00  0.46845656827E+00  0.25500000000E-02 0.  1.
         31    1    1    2    0    0 -0.31437852197E+00  0.38221964338E+00  0.65128272763E+02  0.65554525129E+02  0.74470750000E+01 0. -1.
        -31    1    1    2    0    0  0.31437852197E+00 -0.38221964338E+00  0.54286365989E+02  0.54797019847E+02  0.74470750000E+01 0.  1.
<mgrwt>
<rscale>  0 0.14987943E+02</rscale>
<asrwt>0</asrwt>
<pdfrwt beam="2">  1        2 0.99494609E+00 0.14987943E+02</pdfrwt>
<pdfrwt beam="1">  1       -2 0.99515078E+00 0.14987943E+02</pdfrwt>
<totfact>-0.11943694E-13</totfact>
</mgrwt>
</event>
<event>
 4    1  0.5109406E-019  0.1490888E+02  0.7818608E-02  0.1870862E+00
         -2   -1    0    0    0  501 -0.00000000000E+00  0.00000000000E+00  0.11883754293E+03  0.11883754296E+03  0.25500000000E-02 0.  1.
          2   -1    0    0  501    0  0.00000000000E+00 -0.00000000000E+00 -0.46759835354E+00  0.46760530657E+00  0.25500000000E-02 0. -1.
         31    1    1    2    0    0  0.13443099719E+00  0.22915357730E+00  0.57601677337E+02  0.58081690240E+02  0.74470750000E+01 0.  1.
        -31    1    1    2    0    0 -0.13443099719E+00 -0.22915357730E+00  0.60768267241E+02  0.61223458025E+02  0.74470750000E+01 0.  1.
<mgrwt>
<rscale>  0 0.14908877E+02</rscale>
<asrwt>0</asrwt>
<pdfrwt beam="2">  1        2 0.99311116E+00 0.14908877E+02</pdfrwt>
<pdfrwt beam="1">  1       -2 0.98649844E+00 0.14908877E+02</pdfrwt>
<totfact> 0.35054824E-13</totfact>
</mgrwt>
</event>
<event>
 4    1  0.5109406E-019  0.1490566E+02  0.7818608E-02  0.1870961E+00
         -2   -1    0    0    0  501 -0.00000000000E+00  0.00000000000E+00  0.11858702986E+03  0.11858702989E+03  0.25500000000E-02 0.  1.
          2   -1    0    0  501    0  0.00000000000E+00 -0.00000000000E+00 -0.46838364747E+00  0.46839058884E+00  0.25500000000E-02 0. -1.
         31    1    1    2    0    0 -0.28603240994E+00  0.29606480976E-03  0.58560534997E+02  0.59032846787E+02  0.74470750000E+01 0. -1.
        -31    1    1    2    0    0  0.28603240994E+00 -0.29606480976E-03  0.59558111218E+02  0.60022573691E+02  0.74470750000E+01 0.  1.
<mgrwt>
<rscale>  0 0.14905655E+02</rscale>
<asrwt>0</asrwt>
<pdfrwt beam="2">  1        2 0.99476419E+00 0.14905655E+02</pdfrwt>
<pdfrwt beam="1">  1       -2 0.98443352E+00 0.14905655E+02</pdfrwt>
<totfact> 0.57884841E-13</totfact>
</mgrwt>
</event>
<event>
 4    1 -0.5109406E-019  0.1493307E+02  0.7818608E-02  0.1870118E+00
         -2   -1    0    0    0  501 -0.00000000000E+00  0.00000000000E+00  0.12032550088E+03  0.12032550091E+03  0.25500000000E-02 0.  1.
          2   -1    0    0  501    0  0.00000000000E+00 -0.00000000000E+00 -0.46331571169E+00  0.46332272899E+00  0.25500000000E-02 0. -1.
         31    1    1    2    0    0  0.33490968629E+00 -0.41736367006E+00  0.59430016825E+02  0.59897180091E+02  0.74470750000E+01 0. -1.
        -31    1    1    2    0    0 -0.33490968629E+00  0.41736367006E+00  0.60432168342E+02  0.60891643545E+02  0.74470750000E+01 0.  1.
<mgrwt>
<rscale>  0 0.14933067E+02</rscale>
<asrwt>0</asrwt>
<pdfrwt beam="2">  1        2 0.98409817E+00 0.14933067E+02</pdfrwt>
<pdfrwt beam="1">  1       -2 0.99876651E+00 0.14933067E+02</pdfrwt>
<totfact>-0.15830125E-13</totfact>
</mgrwt>
</event>
<event>
 4    1  0.5109406E-019  0.1492036E+02  0.7818608E-02  0.1870508E+00
          2   -1    0    0  501    0  0.00000000000E+00  0.00000000000E+00  0.12024446345E+03  0.12024446348E+03  0.25500000000E-02 0.  1.
         -2   -1    0    0    0  501 -0.00000000000E+00 -0.00000000000E+00 -0.46283930390E+00  0.46284632843E+00  0.25500000000E-02 0. -1.
         31    1    1    2    0    0  0.11030839425E+00 -0.39447605537E+00  0.61234451799E+02  0.61686990464E+02  0.74470750000E+01 0.  1.
        -31    1    1    2    0    0 -0.11030839425E+00  0.39447605537E+00  0.58547172350E+02  0.59020319345E+02  0.74470750000E+01 0. -1.
<mgrwt>
<rscale>  0 0.14920360E+02</rscale>
<asrwt>0</asrwt>
<pdfrwt beam="1">  1        2 0.99809249E+00 0.14920360E+02</pdfrwt>
<pdfrwt beam="2">  1       -2 0.98308762E+00 0.14920360E+02</pdfrwt>
<totfact> 0.41337731E-13</totfact>
</mgrwt>
</event>
<event>
 4    1 -0.5109406E-019  0.1490634E+02  0.7818608E-02  0.1870940E+00
          2   -1    0    0  501    0  0.00000000000E+00  0.00000000000E+00  0.11857222312E+03  0.11857222315E+03  0.25500000000E-02 0. -1.
         -2   -1    0    0    0  501 -0.00000000000E+00 -0.00000000000E+00 -0.46848500875E+00  0.46849194862E+00  0.25500000000E-02 0.  1.
         31    1    1    2    0    0  0.87750137100E-01 -0.28688828878E+00  0.58827033470E+02  0.59297291658E+02  0.74470750000E+01 0.  1.
        -31    1    1    2    0    0 -0.87750137100E-01  0.28688828878E+00  0.59276704641E+02  0.59743423439E+02  0.74470750000E+01 0. -1.
<mgrwt>
<rscale>  0 0.14906337E+02</rscale>
<asrwt>0</asrwt>
<pdfrwt beam="1">  1        2 0.98431192E+00 0.14906337E+02</pdfrwt>
<pdfrwt beam="2">  1       -2 0.99497813E+00 0.14906337E+02</pdfrwt>
<totfact>-0.38876509E-13</totfact>
</mgrwt>
</event>
<event>
 4    1 -0.5109406E-019  0.1499176E+02  0.7818608E-02  0.1868320E+00
         -2   -1    0    0    0  501 -0.00000000000E+00  0.00000000000E+00  0.11982797481E+03  0.11982797483E+03  0.25500000000E-02 0. -1.
          2   -1    0    0  501    0  0.00000000000E+00 -0.00000000000E+00 -0.46890389353E+00  0.46891082720E+00  0.25500000000E-02 0.  1.
         31    1    1    2    0    0 -0.27812306641E+00 -0.60042375663E+00  0.55347690325E+02  0.55850368051E+02  0.74470750000E+01 0.  1.
        -31    1    1    2    0    0  0.27812306641E+00  0.60042375663E+00  0.64011380587E+02  0.64446517609E+02  0.74470750000E+01 0. -1.
<mgrwt>
<rscale>  0 0.14991761E+02</rscale>
<asrwt>0</asrwt>
<pdfrwt beam="2">  1        2 0.99590536E+00 0.14991761E+02</pdfrwt>
<pdfrwt beam="1">  1       -2 0.99469882E+00 0.14991761E+02</pdfrwt>
<totfact>-0.10724235E-13</totfact>
</mgrwt>
</event>
<event>
 4    1  0.5109406E-019  0.1490808E+02  0.7818608E-02  0.1870886E+00
         -2   -1    0    0    0  501 -0.00000000000E+00  0.00000000000E+00  0.11854667573E+03  0.11854667576E+03  0.25500000000E-02 0. -1.
          2   -1    0    0  501    0  0.00000000000E+00 -0.00000000000E+00 -0.46869576728E+00  0.46870270403E+00  0.25500000000E-02 0.  1.
         31    1    1    2    0    0  0.16222975752E+00  0.13218234162E+00  0.60994857936E+02  0.61448152220E+02  0.74470750000E+01 0. -1.
        -31    1    1    2    0    0 -0.16222975752E+00 -0.13218234162E+00  0.57083122026E+02  0.57567226240E+02  0.74470750000E+01 0.  1.
<mgrwt>
<rscale>  0 0.14908084E+02</rscale>
<asrwt>0</asrwt>
<pdfrwt beam="2">  1        2 0.99542313E+00 0.14908084E+02</pdfrwt>
<pdfrwt beam="1">  1       -2 0.98410242E+00 0.14908084E+02</pdfrwt>
<totfact> 0.58717856E-13</totfact>
</mgrwt>
</event>
<event>
 4    1 -0.5109406E-019  0.1489635E+02  0.7818608E-02  0.1871248E+00
         -2   -1    0    0    0  501 -0.00000000000E+00  0.00000000000E+00  0.11996590307E+03  0.11996590310E+03  0.25500000000E-02 0. -1.
          2   -1    0    0  501    0  0.00000000000E+00 -0.00000000000E+00 -0.46242190640E+00  0.46242893727E+00  0.25500000000E-02 0.  1.
         31    1    1    2    0    0  0.22209468964E-01  0.12571420835E+00  0.59687463692E+02  0.60150382753E+02  0.74470750000E+01 0.  1.
        -31    1    1    2    0    0 -0.22209468964E-01 -0.12571420835E+00  0.59816017475E+02  0.60277949285E+02  0.74470750000E+01 0. -1.
<mgrwt>
<rscale>  0 0.14896347E+02</rscale>
<asrwt>0</asrwt>
<pdfrwt beam="2">  1        2 0.98219573E+00 0.14896347E+02</pdfrwt>
<pdfrwt beam="1">  1       -2 0.99578571E+00 0.14896347E+02</pdfrwt>
<totfact>-0.53162472E-13</totfact>
</mgrwt>
</event>
<event>
 4    1  0.5109406E-019  0.1493356E+02  0.7818608E-02  0.1870103E+00
         -2   -1    0    0    0  501 -0.00000000000E+00  0.00000000000E+00  0.11844785529E+03  0.11844785531E+03  0.25500000000E-02 0.  1.
          2   -1    0    0  501    0  0.00000000000E+00 -0.00000000000E+00 -0.47069119735E+00  0.47069810469E+00  0.25500000000E-02 0. -1.
         31    1    1    2    0    0  0.31910036483E+00  0.30287532151E+00  0.56466747979E+02  0.56957406120E+02  0.74470750000E+01 0. -1.
        -31    1    1    2    0    0 -0.31910036483E+00 -0.30287532151E+00  0.61510416110E+02  0.61961147299E+02  0.74470750000E+01 0.  1.
<mgrwt>
<rscale>  0 0.14933556E+02</rscale>
<asrwt>0</asrwt>
<pdfrwt beam="2">  1        2 0.99964093E+00 0.14933556E+02</pdfrwt>
<pdfrwt beam="1">  1       -2 0.98330180E+00 0.14933556E+02</pdfrwt>
<totfact> 0.88033641E-14</totfact>
</mgrwt>
</event>
<event>
 4    1 -0.5109406E-019  0.1490369E+02  0.7818608E-02  0.1871022E+00
         -2   -1    0    0    0  501 -0.00000000000E+00  0.00000000000E+00  0.11946381194E+03  0.11946381197E+03  0.25500000000E-02 0. -1.
          2   -1    0    0  501    0  0.00000000000E+00 -0.00000000000E+00 -0.46482346394E+00  0.46483045848E+00  0.25500000000E-02 0.  1.
         31    1    1    2    0    0  0.24914873440E+00 -0.92466417543E-01  0.59328272763E+02  0.59794427000E+02  0.74470750000E+01 0.  1.
        -31    1    1    2    0    0 -0.24914873440E+00  0.92466417543E-01  0.59670715712E+02  0.60134215425E+02  0.74470750000E+01 0. -1.
<mgrwt>
<rscale>  0 0.14903691E+02</rscale>
<asrwt>0</asrwt>
<pdfrwt beam="2">  1        2 0.98726092E+00 0.14903691E+02</pdfrwt>
<pdfrwt beam="1">  1       -2 0.99165393E+00 0.14903691E+02</pdfrwt>
<totfact>-0.13931880E-13</totfact>
</mgrwt>
</event>
<event>
 4    1 -0.5109406E-019  0.1489882E+02  0.7818608E-02  0.1871172E+00
          2   -1    0    0  501    0  0.00000000000E+00  0.00000000000E+00  0.11793174236E+03  0.11793174239E+03  0.25500000000E-02 0. -1.
         -2   -1    0    0    0  501 -0.00000000000E+00 -0.00000000000E+00 -0.47055455493E+00  0.47056146428E+00  0.25500000000E-02 0.  1.
         31    1    1    2    0    0 -0.11100038874E+00  0.64955129239E-01  0.57656621607E+02  0.58135716057E+02  0.74470750000E+01 0.  1.
        -31    1    1    2    0    0  0.11100038874E+00 -0.64955129239E-01  0.59804566198E+02  0.60266587795E+02  0.74470750000E+01 0. -1.
<mgrwt>
<rscale>  0 0.14898823E+02</rscale>
<asrwt>0</asrwt>
<pdfrwt beam="1">  1        2 0.97903309E+00 0.14898823E+02</pdfrwt>
<pdfrwt beam="2">  1       -2 0.99933458E+00 0.14898823E+02</pdfrwt>
<totfact>-0.20800120E-13</totfact>
</mgrwt>
</event>
<event>
 4    1 -0.5109406E-019  0.1495867E+02  0.7818608E-02  0.1869332E+00
          2   -1    0    0  501    0  0.00000000000E+00  0.00000000000E+00  0.11912761527E+03  0.11912761530E+03  0.25500000000E-02 0. -1.
         -2   -1    0    0    0  501 -0.00000000000E+00 -0.00000000000E+00 -0.46958047488E+00  0.46958739856E+00  0.25500000000E-02 0.  1.
         31    1    1    2    0    0 -0.32628893948E+00 -0.37154309470E+00  0.63221142400E+02  0.63660162434E+02  0.74470750000E+01 0.  1.
        -31    1    1    2    0    0  0.32628893948E+00  0.37154309470E+00  0.55436892399E+02  0.55937040265E+02  0.74470750000E+01 0. -1.
<mgrwt>
<rscale>  0 0.14958665E+02</rscale>
<asrwt>0</asrwt>
<pdfrwt beam="1">  1        2 0.98891335E+00 0.14958665E+02</pdfrwt>
<pdfrwt beam="2">  1       -2 0.99731383E+00 0.14958665E+02</pdfrwt>
<totfact>-0.14863081E-13</totfact>
</mgrwt>
</event>
<event>
 4    1 -0.5109406E-019  0.1500175E+02  0.7818608E-02  0.1868015E+00
         -2   -1    0    0    0  501 -0.00000000000E+00  0.00000000000E+00  0.12003958729E+03  0.12003958731E+03  0.25500000000E-02 0. -1.
          2   -1    0    0  501    0  0.00000000000E+00 -0.00000000000E+00 -0.46870127686E+00  0.46870821353E+00  0.25500000000E-02 0.  1.
         31    1    1    2    0    0  0.21700764639E-01  0.32361611116E+00  0.53069383225E+02  0.53590330847E+02  0.74470750000E+01 0.  1.
        -31    1    1    2    0    0 -0.21700764639E-01 -0.32361611116E+00  0.66501502784E+02  0.66917964680E+02  0.74470750000E+01 0.  1.
<mgrwt>
<rscale>  0 0.15001750E+02</rscale>
<asrwt>0</asrwt>
<pdfrwt beam="2">  1        2 0.99548354E+00 0.15001750E+02</pdfrwt>
<pdfrwt beam="1">  1       -2 0.99644690E+00 0.15001750E+02</pdfrwt>
<totfact>-0.10015818E-13</totfact>
</mgrwt>
</event>
<event>
 4    1 -0.5109406E-019  0.1500235E+02  0.7818608E-02  0.1867997E+00
          2   -1    0    0  501    0  0.00000000000E+00  0.00000000000E+00  0.11971429606E+03  0.11971429608E+03  0.25500000000E-02 0. -1.
         -2   -1    0    0    0  501 -0.00000000000E+00 -0.00000000000E+00 -0.47001240819E+00  0.47001932551E+00  0.25500000000E-02 0.  1.
         31    1    1    2    0    0 -0.67903188314E-03 -0.78674115281E+00  0.63111622475E+02  0.63554345088E+02  0.74470750000E+01 0. -1.
        -31    1    1    2    0    0  0.67903188314E-03  0.78674115281E+00  0.56132661172E+02  0.56629970320E+02  0.74470750000E+01 0.  1.
<mgrwt>
<rscale>  0 0.15002349E+02</rscale>
<asrwt>0</asrwt>
<pdfrwt beam="1">  1        2 0.99376801E+00 0.15002349E+02</pdfrwt>
<pdfrwt beam="2">  1       -2 0.99824679E+00 0.15002349E+02</pdfrwt>
<totfact>-0.70997702E-14</totfact>
</mgrwt>
</event>
<event>
 4    1 -0.5109406E-019  0.1502028E+02  0.7818608E-02  0.1867450E+00
         -2   -1    0    0    0  501 -0.00000000000E+00  0.00000000000E+00  0.11995773160E+03  0.11995773162E+03  0.25500000000E-02 0.  1.
          2   -1    0    0  501    0  0.00000000000E+00 -0.00000000000E+00 -0.47018020749E+00  0.47018712235E+00  0.25500000000E-02 0. -1.
         31    1    1    2    0    0 -0.89080575969E+00  0.10845631832E+00  0.56765925115E+02  0.57259361487E+02  0.74470750000E+01 0. -1.
        -31    1    1    2    0    0  0.89080575969E+00 -0.10845631832E+00  0.62721626275E+02  0.63168557260E+02  0.74470750000E+01 0.  1.
<mgrwt>
<rscale>  0 0.15020276E+02</rscale>
<asrwt>0</asrwt>
<pdfrwt beam="2">  1        2 0.99860971E+00 0.15020276E+02</pdfrwt>
<pdfrwt beam="1">  1       -2 0.99578229E+00 0.15020276E+02</pdfrwt>
<totfact>-0.46694194E-14</totfact>
</mgrwt>
</event>
<event>
 4    1 -0.5109406E-019  0.1493733E+02  0.7818608E-02  0.1869987E+00
          2   -1    0    0  501    0  0.00000000000E+00  0.00000000000E+00  0.11911124045E+03  0.11911124048E+03  0.25500000000E-02 0. -1.
         -2   -1    0    0    0  501 -0.00000000000E+00 -0.00000000000E+00 -0.46830655924E+00  0.46831350176E+00  0.25500000000E-02 0.  1.
         31    1    1    2    0    0  0.32394463716E+00  0.46502404726E+00  0.59558724333E+02  0.60025176033E+02  0.74470750000E+01 0.  1.
        -31    1    1    2    0    0 -0.32394463716E+00 -0.46502404726E+00  0.59084209560E+02  0.59554377949E+02  0.74470750000E+01 0. -1.
<mgrwt>
<rscale>  0 0.14937335E+02</rscale>
<asrwt>0</asrwt>
<pdfrwt beam="1">  1        2 0.98876742E+00 0.14937335E+02</pdfrwt>
<pdfrwt beam="2">  1       -2 0.99461833E+00 0.14937335E+02</pdfrwt>
<totfact>-0.20370512E-13</totfact>
</mgrwt>
</event>
<event>
 4    1 -0.5109406E-019  0.1489863E+02  0.7818608E-02  0.1871178E+00
          2   -1    0    0  501    0  0.00000000000E+00  0.00000000000E+00  0.11855773779E+03  0.11855773782E+03  0.25500000000E-02 0. -1.
         -2   -1    0    0    0  501 -0.00000000000E+00 -0.00000000000E+00 -0.46805754712E+00  0.46806449333E+00  0.25500000000E-02 0.  1.
         31    1    1    2    0    0 -0.15338384398E+00  0.68595697337E-01  0.59615424477E+02  0.60078997941E+02  0.74470750000E+01 0.  1.
        -31    1    1    2    0    0  0.15338384398E+00 -0.68595697337E-01  0.58474255770E+02  0.58946804373E+02  0.74470750000E+01 0.  1.
<mgrwt>
<rscale>  0 0.14898625E+02</rscale>
<asrwt>0</asrwt>
<pdfrwt beam="1">  1        2 0.98418861E+00 0.14898625E+02</pdfrwt>
<pdfrwt beam="2">  1       -2 0.99407338E+00 0.14898625E+02</pdfrwt>
<totfact>-0.39003091E-13</totfact>
</mgrwt>
</event>
<event>
 4    1  0.5109406E-019  0.1490208E+02  0.7818608E-02  0.1871071E+00
          2   -1    0    0  501    0  0.00000000000E+00  0.00000000000E+00  0.11971319311E+03  0.11971319313E+03  0.25500000000E-02 0. -1.
         -2   -1    0    0    0  501 -0.00000000000E+00 -0.00000000000E+00 -0.46375516136E+00  0.46376217201E+00  0.25500000000E-02 0.  1.
         31    1    1    2    0    0 -0.13405547858E+00 -0.11852464880E+00  0.58297412808E+02  0.58771415545E+02  0.74470750000E+01 0.  1.
        -31    1    1    2    0    0  0.13405547858E+00  0.11852464880E+00  0.60952025137E+02  0.61405539761E+02  0.74470750000E+01 0.  1.
<mgrwt>
<rscale>  0 0.14902085E+02</rscale>
<asrwt>0</asrwt>
<pdfrwt beam="1">  1        2 0.99370715E+00 0.14902085E+02</pdfrwt>
<pdfrwt beam="2">  1       -2 0.98500864E+00 0.14902085E+02</pdfrwt>
<totfact> 0.54191998E-13</totfact>
</mgrwt>
</event>
<event>
 4    1  0.5109406E-019  0.1491291E+02  0.7818608E-02  0.1870738E+00
         -2   -1    0    0    0  501 -0.00000000000E+00  0.00000000000E+00  0.11832999630E+03  0.11832999633E+03  0.25500000000E-02 0.  1.
          2   -1    0    0  501    0  0.00000000000E+00 -0.00000000000E+00 -0.46985791150E+00  0.46986483109E+00  0.25500000000E-02 0. -1.
         31    1    1    2    0    0  0.13672874848E+00 -0.25596061583E+00  0.60807822044E+02  0.61262830153E+02  0.74470750000E+01 0.  1.
        -31    1    1    2    0    0 -0.13672874848E+00  0.25596061583E+00  0.57052316346E+02  0.57537031007E+02  0.74470750000E+01 0.  1.
<mgrwt>
<rscale>  0 0.14912907E+02</rscale>
<asrwt>0</asrwt>
<pdfrwt beam="2">  1        2 0.99787431E+00 0.14912907E+02</pdfrwt>
<pdfrwt beam="1">  1       -2 0.98232037E+00 0.14912907E+02</pdfrwt>
<totfact> 0.52960764E-13</totfact>
</mgrwt>
</event>
<event>
 4    1 -0.5109406E-019  0.1499393E+02  0.7818608E-02  0.1868254E+00
          2   -1    0    0  501    0  0.00000000000E+00  0.00000000000E+00  0.11985414663E+03  0.11985414666E+03  0.25500000000E-02 0.  1.
         -2   -1    0    0    0  501 -0.00000000000E+00 -0.00000000000E+00 -0.46893739997E+00  0.46894433315E+00  0.25500000000E-02 0. -1.
         31    1    1    2    0    0 -0.92929905427E-01 -0.19375738960E+00  0.66403775393E+02  0.66820404746E+02  0.74470750000E+01 0.  1.
        -31    1    1    2    0    0  0.92929905427E-01  0.19375738960E+00  0.52981433838E+02  0.53502686246E+02  0.74470750000E+01 0. -1.
<mgrwt>
<rscale>  0 0.14993934E+02</rscale>
<asrwt>0</asrwt>
<pdfrwt beam="1">  1        2 0.99491550E+00 0.14993934E+02</pdfrwt>
<pdfrwt beam="2">  1       -2 0.99597709E+00 0.14993934E+02</pdfrwt>
<totfact>-0.11319809E-13</totfact>
</mgrwt>
</event>
<event>
 4    1 -0.5109406E-019  0.1495344E+02  0.7818608E-02  0.1869493E+00
          2   -1    0    0  501    0  0.00000000000E+00  0.00000000000E+00  0.11898941020E+03  0.11898941023E+03  0.25500000000E-02 0.  1.
         -2   -1    0    0    0  501 -0.00000000000E+00 -0.00000000000E+00 -0.46979751628E+00  0.46980443676E+00  0.25500000000E-02 0. -1.
         31    1    1    2    0    0 -0.61188634962E+00  0.82348745744E-03  0.61343210991E+02  0.61796625040E+02  0.74470750000E+01 0.  1.
        -31    1    1    2    0    0  0.61188634962E+00 -0.82348745744E-03  0.57176401694E+02  0.57662589626E+02  0.74470750000E+01 0. -1.
<mgrwt>
<rscale>  0 0.14953440E+02</rscale>
<asrwt>0</asrwt>
<pdfrwt beam="1">  1        2 0.98777237E+00 0.14953440E+02</pdfrwt>
<pdfrwt beam="2">  1       -2 0.99776842E+00 0.14953440E+02</pdfrwt>
<totfact>-0.14896261E-13</totfact>
</mgrwt>
</event>
<event>
 4    1  0.5109406E-019  0.1494764E+02  0.7818608E-02  0.1869670E+00
          2   -1    0    0  501    0  0.00000000000E+00  0.00000000000E+00  0.12020857206E+03  0.12020857209E+03  0.25500000000E-02 0. -1.
         -2   -1    0    0    0  501 -0.00000000000E+00 -0.00000000000E+00 -0.46467216772E+00  0.46467916454E+00  0.25500000000E-02 0.  1.
         31    1    1    2    0    0  0.41126393701E+00 -0.25899537188E+00  0.56614002827E+02  0.57103769217E+02  0.74470750000E+01 0.  1.
        -31    1    1    2    0    0 -0.41126393701E+00  0.25899537188E+00  0.63129897066E+02  0.63569482036E+02  0.74470750000E+01 0. -1.
<mgrwt>
<rscale>  0 0.14947642E+02</rscale>
<asrwt>0</asrwt>
<pdfrwt beam="1">  1        2 0.99781087E+00 0.14947642E+02</pdfrwt>
<pdfrwt beam="2">  1       -2 0.98696451E+00 0.14947642E+02</pdfrwt>
<totfact> 0.14684484E-13</totfact>
</mgrwt>
</event>
<event>
 4    1 -0.5109406E-019  0.1500139E+02  0.7818608E-02  0.1868026E+00
         -2   -1    0    0    0  501 -0.00000000000E+00  0.00000000000E+00  0.12002929553E+03  0.12002929556E+03  0.25500000000E-02 0.  1.
          2   -1    0    0  501    0  0.00000000000E+00 -0.00000000000E+00 -0.46871906027E+00  0.46872599667E+00  0.25500000000E-02 0. -1.
         31    1    1    2    0    0 -0.35638788734E+00 -0.21719284008E+00  0.53418263269E+02  0.53936480806E+02  0.74470750000E+01 0. -1.
        -31    1    1    2    0    0  0.35638788734E+00  0.21719284008E+00  0.66142313205E+02  0.66561540752E+02  0.74470750000E+01 0.  1.
<mgrwt>
<rscale>  0 0.15001392E+02</rscale>
<asrwt>0</asrwt>
<pdfrwt beam="2">  1        2 0.99552083E+00 0.15001392E+02</pdfrwt>
<pdfrwt beam="1">  1       -2 0.99636195E+00 0.15001392E+02</pdfrwt>
<totfact>-0.10095418E-13</totfact>
</mgrwt>
</event>
<event>
 4    1 -0.5109406E-019  0.1493957E+02  0.7818608E-02  0.1869918E+00
          2   -1    0    0  501    0  0.00000000000E+00  0.00000000000E+00  0.11916581569E+03  0.11916581572E+03  0.25500000000E-02 0. -1.
         -2   -1    0    0    0  501 -0.00000000000E+00 -0.00000000000E+00 -0.46823233364E+00  0.46823927726E+00  0.25500000000E-02 0.  1.
         31    1    1    2    0    0 -0.41899462824E+00 -0.40153658285E+00  0.59706086713E+02  0.60171525698E+02  0.74470750000E+01 0. -1.
        -31    1    1    2    0    0  0.41899462824E+00  0.40153658285E+00  0.58991496644E+02  0.59462529297E+02  0.74470750000E+01 0.  1.
<mgrwt>
<rscale>  0 0.14939572E+02</rscale>
<asrwt>0</asrwt>
<pdfrwt beam="1">  1        2 0.98921807E+00 0.14939572E+02</pdfrwt>
<pdfrwt beam="2">  1       -2 0.99446309E+00 0.14939572E+02</pdfrwt>
<totfact>-0.19318216E-13</totfact>
</mgrwt>
</event>
<event>
 4    1 -0.5109406E-019  0.1489716E+02  0.7818608E-02  0.1871223E+00
          2   -1    0    0  501    0  0.00000000000E+00  0.00000000000E+00  0.11791461933E+03  0.11791461936E+03  0.25500000000E-02 0. -1.
         -2   -1    0    0    0  501 -0.00000000000E+00 -0.00000000000E+00 -0.47051807327E+00  0.47052498315E+00  0.25500000000E-02 0.  1.
         31    1    1    2    0    0 -0.91806934282E-01  0.20231586091E-01  0.59649014833E+02  0.60112167939E+02  0.74470750000E+01 0. -1.
        -31    1    1    2    0    0  0.91806934282E-01 -0.20231586091E-01  0.57795086424E+02  0.58272976401E+02  0.74470750000E+01 0.  1.
<mgrwt>
<rscale>  0 0.14897164E+02</rscale>
<asrwt>0</asrwt>
<pdfrwt beam="1">  1        2 0.97889120E+00 0.14897164E+02</pdfrwt>
<pdfrwt beam="2">  1       -2 0.99925683E+00 0.14897164E+02</pdfrwt>
<totfact>-0.23618177E-13</totfact>
</mgrwt>
</event>
<event>
 4    1  0.5109406E-019  0.1492007E+02  0.7818608E-02  0.1870517E+00
         -2   -1    0    0    0  501 -0.00000000000E+00  0.00000000000E+00  0.11847602196E+03  0.11847602198E+03  0.25500000000E-02 0. -1.
          2   -1    0    0  501    0  0.00000000000E+00 -0.00000000000E+00 -0.46972960711E+00  0.46973652860E+00  0.25500000000E-02 0.  1.
         31    1    1    2    0    0  0.38616799949E+00 -0.19901775870E+00  0.58471413568E+02  0.58945346420E+02  0.74470750000E+01 0.  1.
        -31    1    1    2    0    0 -0.38616799949E+00  0.19901775870E+00  0.59534878781E+02  0.60000412093E+02  0.74470750000E+01 0.  1.
<mgrwt>
<rscale>  0 0.14920068E+02</rscale>
<asrwt>0</asrwt>
<pdfrwt beam="2">  1        2 0.99760776E+00 0.14920068E+02</pdfrwt>
<pdfrwt beam="1">  1       -2 0.98352675E+00 0.14920068E+02</pdfrwt>
<totfact> 0.44472949E-13</totfact>
</mgrwt>
</event>
<event>
 4    1 -0.5109406E-019  0.1493077E+02  0.7818608E-02  0.1870188E+00
         -2   -1    0    0    0  501 -0.00000000000E+00  0.00000000000E+00  0.12007354886E+03  0.12007354889E+03  0.25500000000E-02 0.  1.
          2   -1    0    0  501    0  0.00000000000E+00 -0.00000000000E+00 -0.46414518332E+00  0.46415218808E+00  0.25500000000E-02 0. -1.
         31    1    1    2    0    0 -0.17001126652E+00 -0.49135328997E+00  0.60226146381E+02  0.60687049408E+02  0.74470750000E+01 0.  1.
        -31    1    1    2    0    0  0.17001126652E+00  0.49135328997E+00  0.59383257297E+02  0.59850651669E+02  0.74470750000E+01 0.  1.
<mgrwt>
<rscale>  0 0.14930771E+02</rscale>
<asrwt>0</asrwt>
<pdfrwt beam="2">  1        2 0.98584525E+00 0.14930771E+02</pdfrwt>
<pdfrwt beam="1">  1       -2 0.99669005E+00 0.14930771E+02</pdfrwt>
<totfact>-0.25838550E-13</totfact>
</mgrwt>
</event>
<event>
 4    1  0.5109406E-019  0.1490353E+02  0.7818608E-02  0.1871027E+00
         -2   -1    0    0    0  501 -0.00000000000E+00  0.00000000000E+00  0.11843088730E+03  0.11843088732E+03  0.25500000000E-02 0.  1.
          2   -1    0    0  501    0  0.00000000000E+00 -0.00000000000E+00 -0.46886771422E+00  0.46887464843E+00  0.25500000000E-02 0. -1.
         31    1    1    2    0    0  0.14161064149E+00 -0.63653793153E-02  0.57200420798E+02  0.57683335198E+02  0.74470750000E+01 0. -1.
        -31    1    1    2    0    0 -0.14161064149E+00  0.63653793153E-02  0.60761598785E+02  0.61216426774E+02  0.74470750000E+01 0.  1.
<mgrwt>
<rscale>  0 0.14903534E+02</rscale>
<asrwt>0</asrwt>
<pdfrwt beam="2">  1        2 0.99578303E+00 0.14903534E+02</pdfrwt>
<pdfrwt beam="1">  1       -2 0.98314642E+00 0.14903534E+02</pdfrwt>
<totfact> 0.70314957E-13</totfact>
</mgrwt>
</event>
<event>
 4    1 -0.5109406E-019  0.1493487E+02  0.7818608E-02  0.1870063E+00
         -2   -1    0    0    0  501 -0.00000000000E+00  0.00000000000E+00  0.12004062974E+03  0.12004062976E+03  0.25500000000E-02 0.  1.
          2   -1    0    0  501    0  0.00000000000E+00 -0.00000000000E+00 -0.46452714483E+00  0.46453414383E+00  0.25500000000E-02 0. -1.
         31    1    1    2    0    0  0.43596893687E+00  0.16158746925E+00  0.57401991100E+02  0.57884917619E+02  0.74470750000E+01 0. -1.
        -31    1    1    2    0    0 -0.43596893687E+00 -0.16158746925E+00  0.62174111492E+02  0.62620246289E+02  0.74470750000E+01 0. -1.
<mgrwt>
<rscale>  0 0.14934866E+02</rscale>
<asrwt>0</asrwt>
<pdfrwt beam="2">  1        2 0.98665236E+00 0.14934866E+02</pdfrwt>
<pdfrwt beam="1">  1       -2 0.99642101E+00 0.14934866E+02</pdfrwt>
<totfact>-0.23896282E-13</totfact>
</mgrwt>
</event>
<event>
 4    1  0.5109406E-019  0.1493549E+02  0.7818608E-02  0.1870044E+00
          2   -1    0    0  501    0  0.00000000000E+00  0.00000000000E+00  0.11991636486E+03  0.11991636489E+03  0.25500000000E-02 0. -1.
         -2   -1    0    0    0  501 -0.00000000000E+00 -0.00000000000E+00 -0.46504713443E+00  0.46505412560E+00  0.25500000000E-02 0.  1.
         31    1    1    2    0    0 -0.82417215916E-01  0.18302821269E+00  0.55553313989E+02  0.56050601363E+02  0.74470750000E+01 0.  1.
        -31    1    1    2    0    0  0.82417215916E-01 -0.18302821269E+00  0.63898003740E+02  0.64330817654E+02  0.74470750000E+01 0. -1.
<mgrwt>
<rscale>  0 0.14935486E+02</rscale>
<asrwt>0</asrwt>
<pdfrwt beam="1">  1        2 0.99539780E+00 0.14935486E+02</pdfrwt>
<pdfrwt beam="2">  1       -2 0.98774859E+00 0.14935486E+02</pdfrwt>
<totfact> 0.16612771E-13</totfact>
</mgrwt>
</event>
<event>
 4    1  0.5109406E-019  0.1493738E+02  0.7818608E-02  0.1869985E+00
          2   -1    0    0  501    0  0.00000000000E+00  0.00000000000E+00  0.11999926134E+03  0.11999926136E+03  0.25500000000E-02 0.  1.
         -2   -1    0    0    0  501 -0.00000000000E+00 -0.00000000000E+00 -0.46484390684E+00  0.46485090107E+00  0.25500000000E-02 0. -1.
         31    1    1    2    0    0  0.47062189976E-01 -0.24504633698E+00  0.55653786949E+02  0.56150380145E+02  0.74470750000E+01 0. -1.
        -31    1    1    2    0    0 -0.47062189976E-01  0.24504633698E+00  0.63880630481E+02  0.64313732120E+02  0.74470750000E+01 0.  1.
<mgrwt>
<rscale>  0 0.14937382E+02</rscale>
<asrwt>0</asrwt>
<pdfrwt beam="1">  1        2 0.99608156E+00 0.14937382E+02</pdfrwt>
<pdfrwt beam="2">  1       -2 0.98732124E+00 0.14937382E+02</pdfrwt>
<totfact> 0.18678404E-13</totfact>
</mgrwt>
</event>
<event>
 4    1 -0.5109406E-019  0.1503092E+02  0.7818608E-02  0.1867126E+00
          2   -1    0    0  501    0  0.00000000000E+00  0.00000000000E+00  0.12037679445E+03  0.12037679447E+03  0.25500000000E-02 0.  1.
         -2   -1    0    0    0  501 -0.00000000000E+00 -0.00000000000E+00 -0.46920771197E+00  0.46921464115E+00  0.25500000000E-02 0. -1.
         31    1    1    2    0    0 -0.81265821330E+00 -0.48750027326E+00  0.62797946108E+02  0.63245071202E+02  0.74470750000E+01 0.  1.
        -31    1    1    2    0    0  0.81265821330E+00  0.48750027326E+00  0.57109640626E+02  0.57600937912E+02  0.74470750000E+01 0. -1.
<mgrwt>
<rscale>  0 0.15030920E+02</rscale>
<asrwt>0</asrwt>
<pdfrwt beam="1">  1        2 0.99923935E+00 0.15030920E+02</pdfrwt>
<pdfrwt beam="2">  1       -2 0.99656583E+00 0.15030920E+02</pdfrwt>
<totfact>-0.24851410E-14</totfact>
</mgrwt>
</event>
<event>
 4    1  0.5109406E-019  0.1489757E+02  0.7818608E-02  0.1871210E+00
         -2   -1    0    0    0  501 -0.00000000000E+00  0.00000000000E+00  0.11815371532E+03  0.11815371535E+03  0.25500000000E-02 0. -1.
          2   -1    0    0  501    0  0.00000000000E+00 -0.00000000000E+00 -0.46959138033E+00  0.46959830385E+00  0.25500000000E-02 0.  1.
         31    1    1    2    0    0 -0.13479375109E+00 -0.23761733681E-01  0.58189395365E+02  0.58664157652E+02  0.74470750000E+01 0.  1.
        -31    1    1    2    0    0  0.13479375109E+00  0.23761733681E-01  0.59494728578E+02  0.59959156003E+02  0.74470750000E+01 0. -1.
<mgrwt>
<rscale>  0 0.14897567E+02</rscale>
<asrwt>0</asrwt>
<pdfrwt beam="2">  1        2 0.99730462E+00 0.14897567E+02</pdfrwt>
<pdfrwt beam="1">  1       -2 0.98086055E+00 0.14897567E+02</pdfrwt>
<totfact> 0.83484486E-13</totfact>
</mgrwt>
</event>
<event>
 4    1 -0.5109406E-019  0.1490338E+02  0.7818608E-02  0.1871031E+00
          2   -1    0    0  501    0  0.00000000000E+00  0.00000000000E+00  0.11894429336E+03  0.11894429339E+03  0.25500000000E-02 0.  1.
         -2   -1    0    0    0  501 -0.00000000000E+00 -0.00000000000E+00 -0.46683434296E+00  0.46684130737E+00  0.25500000000E-02 0. -1.
         31    1    1    2    0    0 -0.63332854930E-01 -0.18981258385E+00  0.60596877736E+02  0.61053096214E+02  0.74470750000E+01 0.  1.
        -31    1    1    2    0    0  0.63332854930E-01  0.18981258385E+00  0.57880581281E+02  0.58358038481E+02  0.74470750000E+01 0. -1.
<mgrwt>
<rscale>  0 0.14903382E+02</rscale>
<asrwt>0</asrwt>
<pdfrwt beam="1">  1        2 0.98737481E+00 0.14903382E+02</pdfrwt>
<pdfrwt beam="2">  1       -2 0.99149837E+00 0.14903382E+02</pdfrwt>
<totfact>-0.12575789E-13</totfact>
</mgrwt>
</event>
<event>
 4    1 -0.5109406E-019  0.1500297E+02  0.7818608E-02  0.1867978E+00
          2   -1    0    0  501    0  0.00000000000E+00  0.00000000000E+00  0.11989017708E+03  0.11989017711E+03  0.25500000000E-02 0. -1.
         -2   -1    0    0    0  501 -0.00000000000E+00 -0.00000000000E+00 -0.46936152654E+00  0.46936845345E+00  0.25500000000E-02 0.  1.
         31    1    1    2    0    0 -0.10172367490E+00 -0.89583680243E+00  0.59538780158E+02  0.60009483751E+02  0.74470750000E+01 0.  1.
        -31    1    1    2    0    0  0.10172367490E+00  0.89583680243E+00  0.59882035397E+02  0.60350061811E+02  0.74470750000E+01 0. -1.
<mgrwt>
<rscale>  0 0.15002967E+02</rscale>
<asrwt>0</asrwt>
<pdfrwt beam="1">  1        2 0.99521693E+00 0.15002967E+02</pdfrwt>
<pdfrwt beam="2">  1       -2 0.99687553E+00 0.15002967E+02</pdfrwt>
<totfact>-0.95834659E-14</totfact>
</mgrwt>
</event>
<event>
 4    1  0.5109406E-019  0.1489575E+02  0.7818608E-02  0.1871266E+00
         -2   -1    0    0    0  501 -0.00000000000E+00  0.00000000000E+00  0.11803598730E+03  0.11803598733E+03  0.25500000000E-02 0. -1.
          2   -1    0    0  501    0  0.00000000000E+00 -0.00000000000E+00 -0.46994519798E+00  0.46995211629E+00  0.25500000000E-02 0.  1.
         31    1    1    2    0    0  0.62413381392E-01 -0.88497328138E-01  0.58896573495E+02  0.59365621556E+02  0.74470750000E+01 0.  1.
        -31    1    1    2    0    0 -0.62413381392E-01  0.88497328138E-01  0.58669468610E+02  0.59140317891E+02  0.74470750000E+01 0. -1.
<mgrwt>
<rscale>  0 0.14895752E+02</rscale>
<asrwt>0</asrwt>
<pdfrwt beam="2">  1        2 0.99804912E+00 0.14895752E+02</pdfrwt>
<pdfrwt beam="1">  1       -2 0.97989002E+00 0.14895752E+02</pdfrwt>
<totfact> 0.77613469E-13</totfact>
</mgrwt>
</event>
<event>
 4    1  0.5109406E-019  0.1491419E+02  0.7818608E-02  0.1870698E+00
         -2   -1    0    0    0  501 -0.00000000000E+00  0.00000000000E+00  0.11863703377E+03  0.11863703380E+03  0.25500000000E-02 0. -1.
          2   -1    0    0  501    0  0.00000000000E+00 -0.00000000000E+00 -0.46872271532E+00  0.46872965167E+00  0.25500000000E-02 0.  1.
         31    1    1    2    0    0  0.36951079040E+00 -0.77778819493E-01  0.58426892308E+02  0.58900791663E+02  0.74470750000E+01 0. -1.
        -31    1    1    2    0    0 -0.36951079040E+00  0.77778819493E-01  0.59741418745E+02  0.60204971783E+02  0.74470750000E+01 0.  1.
<mgrwt>
<rscale>  0 0.14914193E+02</rscale>
<asrwt>0</asrwt>
<pdfrwt beam="2">  1        2 0.99548312E+00 0.14914193E+02</pdfrwt>
<pdfrwt beam="1">  1       -2 0.98484979E+00 0.14914193E+02</pdfrwt>
<totfact> 0.47909066E-13</totfact>
</mgrwt>
</event>
<event>
 4    1 -0.5109406E-019  0.1491047E+02  0.7818608E-02  0.1870813E+00
         -2   -1    0    0    0  501 -0.00000000000E+00  0.00000000000E+00  0.12003873992E+03  0.12003873995E+03  0.25500000000E-02 0.  1.
          2   -1    0    0  501    0  0.00000000000E+00 -0.00000000000E+00 -0.46301829306E+00  0.46302531487E+00  0.25500000000E-02 0. -1.
         31    1    1    2    0    0 -0.12537228784E+00  0.32221501291E+00  0.59418360718E+02  0.59884222106E+02  0.74470750000E+01 0. -1.
        -31    1    1    2    0    0  0.12537228784E+00 -0.32221501291E+00  0.60157360907E+02  0.60617543155E+02  0.74470750000E+01 0.  1.
<mgrwt>
<rscale>  0 0.14910474E+02</rscale>
<asrwt>0</asrwt>
<pdfrwt beam="2">  1        2 0.98345987E+00 0.14910474E+02</pdfrwt>
<pdfrwt beam="1">  1       -2 0.99639291E+00 0.14910474E+02</pdfrwt>
<totfact>-0.40018509E-13</totfact>
</mgrwt>
</event>
<event>
 4    1 -0.5109406E-019  0.1499568E+02  0.7818608E-02  0.1868200E+00
          2   -1    0    0  501    0  0.00000000000E+00  0.00000000000E+00  0.11966804569E+03  0.11966804572E+03  0.25500000000E-02 0. -1.
         -2   -1    0    0    0  501 -0.00000000000E+00 -0.00000000000E+00 -0.46977619389E+00  0.46978311469E+00  0.25500000000E-02 0.  1.
         31    1    1    2    0    0  0.28289813480E+00  0.60538960624E+00  0.64075276896E+02  0.64510050095E+02  0.74470750000E+01 0. -1.
        -31    1    1    2    0    0 -0.28289813480E+00 -0.60538960624E+00  0.55122992603E+02  0.55627778739E+02  0.74470750000E+01 0.  1.
<mgrwt>
<rscale>  0 0.14995682E+02</rscale>
<asrwt>0</asrwt>
<pdfrwt beam="1">  1        2 0.99338362E+00 0.14995682E+02</pdfrwt>
<pdfrwt beam="2">  1       -2 0.99774557E+00 0.14995682E+02</pdfrwt>
<totfact>-0.89485991E-14</totfact>
</mgrwt>
</event>
<event>
 4    1  0.5109406E-019  0.1492892E+02  0.7818608E-02  0.1870245E+00
         -2   -1    0    0    0  501 -0.00000000000E+00  0.00000000000E+00  0.11893983636E+03  0.11893983638E+03  0.25500000000E-02 0.  1.
          2   -1    0    0  501    0  0.00000000000E+00 -0.00000000000E+00 -0.46845309678E+00  0.46846003713E+00  0.25500000000E-02 0. -1.
         31    1    1    2    0    0  0.47937519976E+00 -0.17153369998E+00  0.59231913112E+02  0.59700399340E+02  0.74470750000E+01 0. -1.
        -31    1    1    2    0    0 -0.47937519976E+00  0.17153369998E+00  0.59239470148E+02  0.59707897081E+02  0.74470750000E+01 0. -1.
<mgrwt>
<rscale>  0 0.14928918E+02</rscale>
<asrwt>0</asrwt>
<pdfrwt beam="2">  1        2 0.99492272E+00 0.14928918E+02</pdfrwt>
<pdfrwt beam="1">  1       -2 0.98735134E+00 0.14928918E+02</pdfrwt>
<totfact> 0.21240643E-13</totfact>
</mgrwt>
</event>
<event>
 4    1 -0.5109406E-019  0.1496544E+02  0.7818608E-02  0.1869125E+00
          2   -1    0    0  501    0  0.00000000000E+00  0.00000000000E+00  0.11906568901E+03  0.11906568904E+03  0.25500000000E-02 0.  1.
         -2   -1    0    0    0  501 -0.00000000000E+00 -0.00000000000E+00 -0.47025033978E+00  0.47025725360E+00  0.25500000000E-02 0. -1.
         31    1    1    2    0    0 -0.25188539035E+00  0.27050948137E+00  0.64321244481E+02  0.64751973246E+02  0.74470750000E+01 0.  1.
        -31    1    1    2    0    0  0.25188539035E+00 -0.27050948137E+00  0.54274194194E+02  0.54783973049E+02  0.74470750000E+01 0.  1.
<mgrwt>
<rscale>  0 0.14965440E+02</rscale>
<asrwt>0</asrwt>
<pdfrwt beam="1">  1        2 0.98840684E+00 0.14965440E+02</pdfrwt>
<pdfrwt beam="2">  1       -2 0.99872886E+00 0.14965440E+02</pdfrwt>
<totfact>-0.85705837E-14</totfact>
</mgrwt>
</event>
<event>
 4    1  0.5109406E-019  0.1492029E+02  0.7818608E-02  0.1870511E+00
          2   -1    0    0  501    0  0.00000000000E+00  0.00000000000E+00  0.11997159328E+03  0.11997159331E+03  0.25500000000E-02 0.  1.
         -2   -1    0    0    0  501 -0.00000000000E+00 -0.00000000000E+00 -0.46388734730E+00  0.46389435595E+00  0.25500000000E-02 0. -1.
         31    1    1    2    0    0 -0.22093979715E+00  0.23751008044E+00  0.62169725569E+02  0.62615005620E+02  0.74470750000E+01 0. -1.
        -31    1    1    2    0    0  0.22093979715E+00 -0.23751008044E+00  0.57337980367E+02  0.57820482046E+02  0.74470750000E+01 0. -1.
<mgrwt>
<rscale>  0 0.14920285E+02</rscale>
<asrwt>0</asrwt>
<pdfrwt beam="1">  1        2 0.99584488E+00 0.14920285E+02</pdfrwt>
<pdfrwt beam="2">  1       -2 0.98529650E+00 0.14920285E+02</pdfrwt>
<totfact> 0.40244101E-13</totfact>
</mgrwt>
</event>
<event>
 4    1  0.5109406E-019  0.1494784E+02  0.7818608E-02  0.1869664E+00
          2   -1    0    0  501    0  0.00000000000E+00  0.00000000000E+00  0.12034795349E+03  0.12034795352E+03  0.25500000000E-02 0. -1.
         -2   -1    0    0    0  501 -0.00000000000E+00 -0.00000000000E+00 -0.46414619914E+00  0.46415320388E+00  0.25500000000E-02 0.  1.
         31    1    1    2    0    0  0.44980777324E+00  0.97461662631E-01  0.63452968200E+02  0.63890139500E+02  0.74470750000E+01 0. -1.
        -31    1    1    2    0    0 -0.44980777324E+00 -0.97461662631E-01  0.56430839089E+02  0.56921967220E+02  0.74470750000E+01 0.  1.
<mgrwt>
<rscale>  0 0.14947839E+02</rscale>
<asrwt>0</asrwt>
<pdfrwt beam="1">  1        2 0.99895903E+00 0.14947839E+02</pdfrwt>
<pdfrwt beam="2">  1       -2 0.98585606E+00 0.14947839E+02</pdfrwt>
<totfact> 0.11891025E-13</totfact>
</mgrwt>
</event>
<event>
 4    1 -0.5109406E-019  0.1500377E+02  0.7818608E-02  0.1867953E+00
         -2   -1    0    0    0  501 -0.00000000000E+00  0.00000000000E+00  0.12011662132E+03  0.12011662134E+03  0.25500000000E-02 0.  1.
          2   -1    0    0  501    0  0.00000000000E+00 -0.00000000000E+00 -0.46852683058E+00  0.46853376983E+00  0.25500000000E-02 0. -1.
         31    1    1    2    0    0 -0.54325766829E+00 -0.69997143695E+00  0.58336336730E+02  0.58816427961E+02  0.74470750000E+01 0. -1.
        -31    1    1    2    0    0  0.54325766829E+00  0.69997143695E+00  0.61311757756E+02  0.61768727152E+02  0.74470750000E+01 0.  1.
<mgrwt>
<rscale>  0 0.15003770E+02</rscale>
<asrwt>0</asrwt>
<pdfrwt beam="2">  1        2 0.99511696E+00 0.15003770E+02</pdfrwt>
<pdfrwt beam="1">  1       -2 0.99708243E+00 0.15003770E+02</pdfrwt>
<totfact>-0.92697640E-14</totfact>
</mgrwt>
</event>
<event>
 4    1 -0.5109406E-019  0.1498409E+02  0.7818608E-02  0.1868554E+00
         -2   -1    0    0    0  501 -0.00000000000E+00  0.00000000000E+00  0.12006807586E+03  0.12006807589E+03  0.25500000000E-02 0. -1.
          2   -1    0    0  501    0  0.00000000000E+00 -0.00000000000E+00 -0.46748771989E+00  0.46749467457E+00  0.25500000000E-02 0.  1.
         31    1    1    2    0    0 -0.27302285808E+00 -0.74730226850E+00  0.58214874141E+02  0.58694663297E+02  0.74470750000E+01 0.  1.
        -31    1    1    2    0    0  0.27302285808E+00  0.74730226850E+00  0.61385713998E+02  0.61840907264E+02  0.74470750000E+01 0. -1.
<mgrwt>
<rscale>  0 0.14984094E+02</rscale>
<asrwt>0</asrwt>
<pdfrwt beam="2">  1        2 0.99291699E+00 0.14984094E+02</pdfrwt>
<pdfrwt beam="1">  1       -2 0.99667243E+00 0.14984094E+02</pdfrwt>
<totfact>-0.12102772E-13</totfact>
</mgrwt>
</event>
<event>
 4    1 -0.5109406E-019  0.1493915E+02  0.7818608E-02  0.1869931E+00
          2   -1    0    0  501    0  0.00000000000E+00  0.00000000000E+00  0.11916099707E+03  0.11916099710E+03  0.25500000000E-02 0. -1.
         -2   -1    0    0    0  501 -0.00000000000E+00 -0.00000000000E+00 -0.46822506919E+00  0.46823201291E+00  0.25500000000E-02 0.  1.
         31    1    1    2    0    0 -0.53395364657E+00 -0.21981977286E+00  0.58968254982E+02  0.59439443544E+02  0.74470750000E+01 0. -1.
        -31    1    1    2    0    0  0.53395364657E+00  0.21981977286E+00  0.59724517018E+02  0.60189785564E+02  0.74470750000E+01 0. -1.
<mgrwt>
<rscale>  0 0.14939154E+02</rscale>
<asrwt>0</asrwt>
<pdfrwt beam="1">  1        2 0.98917817E+00 0.14939154E+02</pdfrwt>
<pdfrwt beam="2">  1       -2 0.99444757E+00 0.14939154E+02</pdfrwt>
<totfact>-0.19394388E-13</totfact>
</mgrwt>
</event>
<event>
 4    1 -0.5109406E-019  0.1499824E+02  0.7818608E-02  0.1868122E+00
         -2   -1    0    0    0  501 -0.00000000000E+00  0.00000000000E+00  0.12021354431E+03  0.12021354434E+03  0.25500000000E-02 0. -1.
          2   -1    0    0  501    0  0.00000000000E+00 -0.00000000000E+00 -0.46780402759E+00  0.46781097757E+00  0.25500000000E-02 0.  1.
         31    1    1    2    0    0  0.28378681467E+00  0.18362177175E+00  0.53318051664E+02  0.53836677194E+02  0.74470750000E+01 0.  1.
        -31    1    1    2    0    0 -0.28378681467E+00 -0.18362177175E+00  0.66427688623E+02  0.66844678126E+02  0.74470750000E+01 0. -1.
<mgrwt>
<rscale>  0 0.14998240E+02</rscale>
<asrwt>0</asrwt>
<pdfrwt beam="2">  1        2 0.99359086E+00 0.14998240E+02</pdfrwt>
<pdfrwt beam="1">  1       -2 0.99787788E+00 0.14998240E+02</pdfrwt>
<totfact>-0.84054642E-14</totfact>
</mgrwt>
</event>
<event>
 4    1 -0.5109406E-019  0.1491602E+02  0.7818608E-02  0.1870642E+00
         -2   -1    0    0    0  501 -0.00000000000E+00  0.00000000000E+00  0.11998080506E+03  0.11998080508E+03  0.25500000000E-02 0.  1.
          2   -1    0    0  501    0  0.00000000000E+00 -0.00000000000E+00 -0.46358651133E+00  0.46359352453E+00  0.25500000000E-02 0. -1.
         31    1    1    2    0    0 -0.12487440605E-01 -0.34111700664E+00  0.61499181597E+02  0.61949372716E+02  0.74470750000E+01 0.  1.
        -31    1    1    2    0    0  0.12487440605E-01  0.34111700664E+00  0.58018036949E+02  0.58495025893E+02  0.74470750000E+01 0. -1.
<mgrwt>
<rscale>  0 0.14916019E+02</rscale>
<asrwt>0</asrwt>
<pdfrwt beam="2">  1        2 0.98466029E+00 0.14916019E+02</pdfrwt>
<pdfrwt beam="1">  1       -2 0.99591856E+00 0.14916019E+02</pdfrwt>
<totfact>-0.34722823E-13</totfact>
</mgrwt>
</event>
<event>
 4    1  0.5109406E-019  0.1492021E+02  0.7818608E-02  0.1870513E+00
         -2   -1    0    0    0  501 -0.00000000000E+00  0.00000000000E+00  0.11839784881E+03  0.11839784883E+03  0.25500000000E-02 0.  1.
          2   -1    0    0  501    0  0.00000000000E+00 -0.00000000000E+00 -0.47004840211E+00  0.47005531890E+00  0.25500000000E-02 0. -1.
         31    1    1    2    0    0 -0.95286408445E-01  0.37001244217E+00  0.57214486097E+02  0.57698373756E+02  0.74470750000E+01 0. -1.
        -31    1    1    2    0    0  0.95286408445E-01 -0.37001244217E+00  0.60713314307E+02  0.61169530396E+02  0.74470750000E+01 0.  1.
<mgrwt>
<rscale>  0 0.14920205E+02</rscale>
<asrwt>0</asrwt>
<pdfrwt beam="2">  1        2 0.99827953E+00 0.14920205E+02</pdfrwt>
<pdfrwt beam="1">  1       -2 0.98288300E+00 0.14920205E+02</pdfrwt>
<totfact> 0.39812948E-13</totfact>
</mgrwt>
</event>
<event>
 4    1  0.5109406E-019  0.1491179E+02  0.7818608E-02  0.1870772E+00
          2   -1    0    0  501    0  0.00000000000E+00  0.00000000000E+00  0.11986690941E+03  0.11986690943E+03  0.25500000000E-02 0.  1.
         -2   -1    0    0    0  501 -0.00000000000E+00 -0.00000000000E+00 -0.46376387641E+00  0.46377088693E+00  0.25500000000E-02 0. -1.
         31    1    1    2    0    0  0.19186372358E+00 -0.20780132740E+00  0.57871257138E+02  0.58349133001E+02  0.74470750000E+01 0.  1.
        -31    1    1    2    0    0 -0.19186372358E+00  0.20780132740E+00  0.61531888390E+02  0.61981547319E+02  0.74470750000E+01 0.  1.
<mgrwt>
<rscale>  0 0.14911789E+02</rscale>
<asrwt>0</asrwt>
<pdfrwt beam="1">  1        2 0.99497826E+00 0.14911789E+02</pdfrwt>
<pdfrwt beam="2">  1       -2 0.98503195E+00 0.14911789E+02</pdfrwt>
<totfact> 0.48150843E-13</totfact>
</mgrwt>
</event>
<event>
 4    1  0.5109406E-019  0.1491751E+02  0.7818608E-02  0.1870596E+00
          2   -1    0    0  501    0  0.00000000000E+00  0.00000000000E+00  0.11999910511E+03  0.11999910514E+03  0.25500000000E-02 0.  1.
         -2   -1    0    0    0  501 -0.00000000000E+00 -0.00000000000E+00 -0.46360850407E+00  0.46361551693E+00  0.25500000000E-02 0. -1.
         31    1    1    2    0    0  0.12742812868E+00  0.38181636379E+00  0.58880134056E+02  0.59350578213E+02  0.74470750000E+01 0.  1.
        -31    1    1    2    0    0 -0.12742812868E+00 -0.38181636379E+00  0.60655362554E+02  0.61112142445E+02  0.74470750000E+01 0.  1.
<mgrwt>
<rscale>  0 0.14917510E+02</rscale>
<asrwt>0</asrwt>
<pdfrwt beam="1">  1        2 0.99607006E+00 0.14917510E+02</pdfrwt>
<pdfrwt beam="2">  1       -2 0.98470740E+00 0.14917510E+02</pdfrwt>
<totfact> 0.46034919E-13</totfact>
</mgrwt>
</event>
<event>
 4    1 -0.5109406E-019  0.1495719E+02  0.7818608E-02  0.1869378E+00
          2   -1    0    0  501    0  0.00000000000E+00  0.00000000000E+00  0.11923715999E+03  0.11923716001E+03  0.25500000000E-02 0.  1.
         -2   -1    0    0    0  501 -0.00000000000E+00 -0.00000000000E+00 -0.46905638606E+00  0.46906331747E+00  0.25500000000E-02 0. -1.
         31    1    1    2    0    0 -0.15841789427E+00  0.45905435255E+00  0.55507511056E+02  0.56006950790E+02  0.74470750000E+01 0. -1.
        -31    1    1    2    0    0  0.15841789427E+00 -0.45905435255E+00  0.63260592543E+02  0.63699272540E+02  0.74470750000E+01 0.  1.
<mgrwt>
<rscale>  0 0.14957188E+02</rscale>
<asrwt>0</asrwt>
<pdfrwt beam="1">  1        2 0.98981481E+00 0.14957188E+02</pdfrwt>
<pdfrwt beam="2">  1       -2 0.99620872E+00 0.14957188E+02</pdfrwt>
<totfact>-0.16650272E-13</totfact>
</mgrwt>
</event>
<event>
 4    1 -0.5109406E-019  0.1490962E+02  0.7818608E-02  0.1870839E+00
         -2   -1    0    0    0  501 -0.00000000000E+00  0.00000000000E+00  0.11990960890E+03  0.11990960893E+03  0.25500000000E-02 0. -1.
          2   -1    0    0  501    0  0.00000000000E+00 -0.00000000000E+00 -0.46346412390E+00  0.46347113896E+00  0.25500000000E-02 0.  1.
         31    1    1    2    0    0 -0.12594362233E+00  0.22650388095E+00  0.61494354896E+02  0.61944182745E+02  0.74470750000E+01 0.  1.
        -31    1    1    2    0    0  0.12594362233E+00 -0.22650388095E+00  0.57951789880E+02  0.58428897321E+02  0.74470750000E+01 0.  1.
<mgrwt>
<rscale>  0 0.14909624E+02</rscale>
<asrwt>0</asrwt>
<pdfrwt beam="2">  1        2 0.98439909E+00 0.14909624E+02</pdfrwt>
<pdfrwt beam="1">  1       -2 0.99532885E+00 0.14909624E+02</pdfrwt>
<totfact>-0.37863969E-13</totfact>
</mgrwt>
</event>
<event>
 4    1 -0.5109406E-019  0.1497639E+02  0.7818608E-02  0.1868790E+00
         -2   -1    0    0    0  501 -0.00000000000E+00  0.00000000000E+00  0.12005342960E+03  0.12005342963E+03  0.25500000000E-02 0. -1.
          2   -1    0    0  501    0  0.00000000000E+00 -0.00000000000E+00 -0.46706424674E+00  0.46707120772E+00  0.25500000000E-02 0.  1.
         31    1    1    2    0    0 -0.14886973960E+00  0.45978987997E+00  0.54828599004E+02  0.55334146454E+02  0.74470750000E+01 0.  1.
        -31    1    1    2    0    0  0.14886973960E+00 -0.45978987997E+00  0.64757766351E+02  0.65186354383E+02  0.74470750000E+01 0. -1.
<mgrwt>
<rscale>  0 0.14976393E+02</rscale>
<asrwt>0</asrwt>
<pdfrwt beam="2">  1        2 0.99202059E+00 0.14976393E+02</pdfrwt>
<pdfrwt beam="1">  1       -2 0.99654782E+00 0.14976393E+02</pdfrwt>
<totfact>-0.13182178E-13</totfact>
</mgrwt>
</event>
<event>
 4    1  0.5109406E-019  0.1492152E+02  0.7818608E-02  0.1870473E+00
          2   -1    0    0  501    0  0.00000000000E+00  0.00000000000E+00  0.12017203909E+03  0.12017203912E+03  0.25500000000E-02 0.  1.
         -2   -1    0    0    0  501 -0.00000000000E+00 -0.00000000000E+00 -0.46318998741E+00  0.46319700661E+00  0.25500000000E-02 0. -1.
         31    1    1    2    0    0 -0.10107787544E+00 -0.43714974210E+00  0.60271986985E+02  0.60731973934E+02  0.74470750000E+01 0. -1.
        -31    1    1    2    0    0  0.10107787544E+00  0.43714974210E+00  0.59436862120E+02  0.59903262193E+02  0.74470750000E+01 0. -1.
<mgrwt>
<rscale>  0 0.14921516E+02</rscale>
<asrwt>0</asrwt>
<pdfrwt beam="1">  1        2 0.99749654E+00 0.14921516E+02</pdfrwt>
<pdfrwt beam="2">  1       -2 0.98382734E+00 0.14921516E+02</pdfrwt>
<totfact> 0.42812000E-13</totfact>
</mgrwt>
</event>
<event>
 4    1 -0.5109406E-019  0.1493254E+02  0.7818608E-02  0.1870134E+00
          2   -1    0    0  501    0  0.00000000000E+00  0.00000000000E+00  0.11863032833E+03  0.11863032836E+03  0.25500000000E-02 0.  1.
         -2   -1    0    0    0  501 -0.00000000000E+00 -0.00000000000E+00 -0.46990321015E+00  0.46991012908E+00  0.25500000000E-02 0. -1.
         31    1    1    2    0    0  0.35078382542E+00  0.37146839525E+00  0.57813536313E+02  0.58293438268E+02  0.74470750000E+01 0. -1.
        -31    1    1    2    0    0 -0.35078382542E+00 -0.37146839525E+00  0.60346888806E+02  0.60806800218E+02  0.74470750000E+01 0.  1.
<mgrwt>
<rscale>  0 0.14932540E+02</rscale>
<asrwt>0</asrwt>
<pdfrwt beam="1">  1        2 0.98480410E+00 0.14932540E+02</pdfrwt>
<pdfrwt beam="2">  1       -2 0.99798013E+00 0.14932540E+02</pdfrwt>
<totfact>-0.21466437E-13</totfact>
</mgrwt>
</event>
<event>
 4    1 -0.5109406E-019  0.1497924E+02  0.7818608E-02  0.1868703E+00
          2   -1    0    0  501    0  0.00000000000E+00  0.00000000000E+00  0.11945868011E+03  0.11945868013E+03  0.25500000000E-02 0.  1.
         -2   -1    0    0    0  501 -0.00000000000E+00 -0.00000000000E+00 -0.46956793960E+00  0.46957486346E+00  0.25500000000E-02 0. -1.
         31    1    1    2    0    0  0.43142146890E+00  0.11222091255E+00  0.64785617856E+02  0.65213755643E+02  0.74470750000E+01 0.  1.
        -31    1    1    2    0    0 -0.43142146890E+00 -0.11222091255E+00  0.54203494310E+02  0.54714499353E+02  0.74470750000E+01 0. -1.
<mgrwt>
<rscale>  0 0.14979237E+02</rscale>
<asrwt>0</asrwt>
<pdfrwt beam="1">  1        2 0.99165072E+00 0.14979237E+02</pdfrwt>
<pdfrwt beam="2">  1       -2 0.99729816E+00 0.14979237E+02</pdfrwt>
<totfact>-0.11595521E-13</totfact>
</mgrwt>
</event>
<event>
 4    1  0.5109406E-019  0.1493079E+02  0.7818608E-02  0.1870188E+00
          2   -1    0    0  501    0  0.00000000000E+00  0.00000000000E+00  0.11980519601E+03  0.11980519604E+03  0.25500000000E-02 0. -1.
         -2   -1    0    0    0  501 -0.00000000000E+00 -0.00000000000E+00 -0.46518627071E+00  0.46519325979E+00  0.25500000000E-02 0.  1.
         31    1    1    2    0    0 -0.37019926850E+00  0.43297023226E-01  0.56717955328E+02  0.57205981372E+02  0.74470750000E+01 0. -1.
        -31    1    1    2    0    0  0.37019926850E+00 -0.43297023226E-01  0.62622054412E+02  0.63064407926E+02  0.74470750000E+01 0. -1.
<mgrwt>
<rscale>  0 0.14930794E+02</rscale>
<asrwt>0</asrwt>
<pdfrwt beam="1">  1        2 0.99447973E+00 0.14930794E+02</pdfrwt>
<pdfrwt beam="2">  1       -2 0.98803942E+00 0.14930794E+02</pdfrwt>
<totfact> 0.15547610E-13</totfact>
</mgrwt>
</event>
<event>
 4    1 -0.5109406E-019  0.1494893E+02  0.7818608E-02  0.1869631E+00
         -2   -1    0    0    0  501 -0.00000000000E+00  0.00000000000E+00  0.11978574470E+03  0.11978574473E+03  0.25500000000E-02 0.  1.
          2   -1    0    0  501    0  0.00000000000E+00 -0.00000000000E+00 -0.46639265428E+00  0.46639962529E+00  0.25500000000E-02 0. -1.
         31    1    1    2    0    0 -0.49958148548E+00 -0.39816661832E+00  0.59467991807E+02  0.59935874849E+02  0.74470750000E+01 0.  1.
        -31    1    1    2    0    0  0.49958148548E+00  0.39816661832E+00  0.59851360241E+02  0.60316269505E+02  0.74470750000E+01 0.  1.
<mgrwt>
<rscale>  0 0.14948928E+02</rscale>
<asrwt>0</asrwt>
<pdfrwt beam="2">  1        2 0.99059114E+00 0.14948928E+02</pdfrwt>
<pdfrwt beam="1">  1       -2 0.99432887E+00 0.14948928E+02</pdfrwt>
<totfact>-0.16838479E-13</totfact>
</mgrwt>
</event>
