<event>
 4    1  0.5011189E-019  0.1493329E+02  0.7818608E-02  0.1870111E+00
          2   -1    0    0  501    0  0.00000000000E+00  0.00000000000E+00  0.12004803015E+03  0.12004803018E+03  0.25500000000E-02 0.  1.
         -2   -1    0    0    0  501 -0.00000000000E+00 -0.00000000000E+00 -0.46440033997E+00  0.46440734088E+00  0.25500000000E-02 0. -1.
         31    1    1    2    0    0 -0.38056339613E+00  0.38075301304E+00  0.60156496028E+02  0.60618089229E+02  0.74470750000E+01 0.  1.
        -31    1    1    2    0    0  0.38056339613E+00 -0.38075301304E+00  0.59427133784E+02  0.59894348290E+02  0.74470750000E+01 0. -1.
<mgrwt>
<rscale>  0 0.14933288E+02</rscale>
<asrwt>0</asrwt>
<pdfrwt beam="1">  1        2 0.99648115E+00 0.14933288E+02</pdfrwt>
<pdfrwt beam="2">  1       -2 0.98638430E+00 0.14933288E+02</pdfrwt>
<totfact> 0.25552359E-13</totfact>
</mgrwt>
</event>
<event>
 4    1  0.5011189E-019  0.1495323E+02  0.7818608E-02  0.1869499E+00
          2   -1    0    0  501    0  0.00000000000E+00  0.00000000000E+00  0.12024041303E+03  0.12024041306E+03  0.25500000000E-02 0.  1.
         -2   -1    0    0    0  501 -0.00000000000E+00 -0.00000000000E+00 -0.46489654359E+00  0.46490353702E+00  0.25500000000E-02 0. -1.
         31    1    1    2    0    0 -0.65505029157E+00 -0.10838352145E+00  0.59859568889E+02  0.60324686087E+02  0.74470750000E+01 0. -1.
        -31    1    1    2    0    0  0.65505029157E+00  0.10838352145E+00  0.59915947601E+02  0.60380630510E+02  0.74470750000E+01 0. -1.
<mgrwt>
<rscale>  0 0.14953231E+02</rscale>
<asrwt>0</asrwt>
<pdfrwt beam="1">  1        2 0.99807601E+00 0.14953231E+02</pdfrwt>
<pdfrwt beam="2">  1       -2 0.98744025E+00 0.14953231E+02</pdfrwt>
<totfact> 0.10774459E-13</totfact>
</mgrwt>
</event>
<event>
 4    1 -0.5011189E-019  0.1496570E+02  0.7818608E-02  0.1869117E+00
         -2   -1    0    0    0  501 -0.00000000000E+00  0.00000000000E+00  0.11968848849E+03  0.11968848852E+03  0.25500000000E-02 0.  1.
          2   -1    0    0  501    0  0.00000000000E+00 -0.00000000000E+00 -0.46781984045E+00  0.46782679019E+00  0.25500000000E-02 0. -1.
         31    1    1    2    0    0  0.43944932799E+00  0.25877609900E+00  0.63813473899E+02  0.64248567750E+02  0.74470750000E+01 0.  1.
        -31    1    1    2    0    0 -0.43944932799E+00 -0.25877609900E+00  0.55407194749E+02  0.55907747556E+02  0.74470750000E+01 0. -1.
<mgrwt>
<rscale>  0 0.14965703E+02</rscale>
<asrwt>0</asrwt>
<pdfrwt beam="2">  1        2 0.99360742E+00 0.14965703E+02</pdfrwt>
<pdfrwt beam="1">  1       -2 0.99353648E+00 0.14965703E+02</pdfrwt>
<totfact>-0.12642156E-13</totfact>
</mgrwt>
</event>
<event>
 4    1 -0.5011189E-019  0.1491215E+02  0.7818608E-02  0.1870761E+00
          2   -1    0    0  501    0  0.00000000000E+00  0.00000000000E+00  0.11855950813E+03  0.11855950815E+03  0.25500000000E-02 0. -1.
         -2   -1    0    0    0  501 -0.00000000000E+00 -0.00000000000E+00 -0.46890081875E+00  0.46890775246E+00  0.25500000000E-02 0.  1.
         31    1    1    2    0    0 -0.57415960624E-01  0.15580650902E+00  0.56439627132E+02  0.56929061200E+02  0.74470750000E+01 0. -1.
        -31    1    1    2    0    0  0.57415960624E-01 -0.15580650902E+00  0.61650980177E+02  0.62099354707E+02  0.74470750000E+01 0.  1.
<mgrwt>
<rscale>  0 0.14912151E+02</rscale>
<asrwt>0</asrwt>
<pdfrwt beam="1">  1        2 0.98421022E+00 0.14912151E+02</pdfrwt>
<pdfrwt beam="2">  1       -2 0.99585732E+00 0.14912151E+02</pdfrwt>
<totfact>-0.37624381E-13</totfact>
</mgrwt>
</event>
<event>
 4    1 -0.5011189E-019  0.1502948E+02  0.7818608E-02  0.1867170E+00
          2   -1    0    0  501    0  0.00000000000E+00  0.00000000000E+00  0.12039674210E+03  0.12039674213E+03  0.25500000000E-02 0. -1.
         -2   -1    0    0    0  501 -0.00000000000E+00 -0.00000000000E+00 -0.46903984101E+00  0.46904677267E+00  0.25500000000E-02 0.  1.
         31    1    1    2    0    0 -0.13527274182E+00 -0.85625630318E+00  0.64071449686E+02  0.64508612328E+02  0.74470750000E+01 0.  1.
        -31    1    1    2    0    0  0.13527274182E+00  0.85625630318E+00  0.55856252574E+02  0.56357176572E+02  0.74470750000E+01 0. -1.
<mgrwt>
<rscale>  0 0.15029476E+02</rscale>
<asrwt>0</asrwt>
<pdfrwt beam="1">  1        2 0.99940291E+00 0.15029476E+02</pdfrwt>
<pdfrwt beam="2">  1       -2 0.99621131E+00 0.15029476E+02</pdfrwt>
<totfact>-0.20911515E-14</totfact>
</mgrwt>
</event>
<event>
 4    1 -0.5011189E-019  0.1498135E+02  0.7818608E-02  0.1868638E+00
         -2   -1    0    0    0  501 -0.00000000000E+00  0.00000000000E+00  0.12004790330E+03  0.12004790333E+03  0.25500000000E-02 0.  1.
          2   -1    0    0  501    0  0.00000000000E+00 -0.00000000000E+00 -0.46739496505E+00  0.46740192110E+00  0.25500000000E-02 0. -1.
         31    1    1    2    0    0  0.60191307024E+00 -0.26829719743E+00  0.63537556319E+02  0.63975888206E+02  0.74470750000E+01 0.  1.
        -31    1    1    2    0    0 -0.60191307024E+00  0.26829719743E+00  0.56042952021E+02  0.56539417047E+02  0.74470750000E+01 0.  1.
<mgrwt>
<rscale>  0 0.14981349E+02</rscale>
<asrwt>0</asrwt>
<pdfrwt beam="2">  1        2 0.99272011E+00 0.14981349E+02</pdfrwt>
<pdfrwt beam="1">  1       -2 0.99650486E+00 0.14981349E+02</pdfrwt>
<totfact>-0.12621392E-13</totfact>
</mgrwt>
</event>
<event>
 4    1  0.5011189E-019  0.1492013E+02  0.7818608E-02  0.1870516E+00
         -2   -1    0    0    0  501 -0.00000000000E+00  0.00000000000E+00  0.11873513793E+03  0.11873513796E+03  0.25500000000E-02 0.  1.
          2   -1    0    0  501    0  0.00000000000E+00 -0.00000000000E+00 -0.46870824999E+00  0.46871518655E+00  0.25500000000E-02 0. -1.
         31    1    1    2    0    0 -0.13613954389E+00  0.85295128505E-01  0.55860277811E+02  0.56354728040E+02  0.74470750000E+01 0. -1.
        -31    1    1    2    0    0  0.13613954389E+00 -0.85295128505E-01  0.62406151871E+02  0.62849125106E+02  0.74470750000E+01 0.  1.
<mgrwt>
<rscale>  0 0.14920128E+02</rscale>
<asrwt>0</asrwt>
<pdfrwt beam="2">  1        2 0.99545575E+00 0.14920128E+02</pdfrwt>
<pdfrwt beam="1">  1       -2 0.98566086E+00 0.14920128E+02</pdfrwt>
<totfact> 0.37849478E-13</totfact>
</mgrwt>
</event>
<event>
 4    1 -0.5011189E-019  0.1499948E+02  0.7818608E-02  0.1868084E+00
         -2   -1    0    0    0  501 -0.00000000000E+00  0.00000000000E+00  0.12029738115E+03  0.12029738118E+03  0.25500000000E-02 0.  1.
          2   -1    0    0  501    0  0.00000000000E+00 -0.00000000000E+00 -0.46755527921E+00  0.46756223288E+00  0.25500000000E-02 0. -1.
         31    1    1    2    0    0 -0.34943761295E+00  0.23780265042E+00  0.66195497970E+02  0.66614424371E+02  0.74470750000E+01 0.  1.
        -31    1    1    2    0    0  0.34943761295E+00 -0.23780265042E+00  0.53634327903E+02  0.54150519041E+02  0.74470750000E+01 0. -1.
<mgrwt>
<rscale>  0 0.14999480E+02</rscale>
<asrwt>0</asrwt>
<pdfrwt beam="2">  1        2 0.99306727E+00 0.14999480E+02</pdfrwt>
<pdfrwt beam="1">  1       -2 0.99856905E+00 0.14999480E+02</pdfrwt>
<totfact>-0.62877672E-14</totfact>
</mgrwt>
</event>
<event>
 4    1  0.5011189E-019  0.1494480E+02  0.7818608E-02  0.1869758E+00
         -2   -1    0    0    0  501 -0.00000000000E+00  0.00000000000E+00  0.11879781800E+03  0.11879781803E+03  0.25500000000E-02 0.  1.
          2   -1    0    0  501    0  0.00000000000E+00 -0.00000000000E+00 -0.47001131071E+00  0.47001822804E+00  0.25500000000E-02 0. -1.
         31    1    1    2    0    0  0.60263560091E+00  0.26180933791E-01  0.58221280548E+02  0.58698724771E+02  0.74470750000E+01 0. -1.
        -31    1    1    2    0    0 -0.60263560091E+00 -0.26180933791E-01  0.60106526143E+02  0.60569111485E+02  0.74470750000E+01 0.  1.
<mgrwt>
<rscale>  0 0.14944796E+02</rscale>
<asrwt>0</asrwt>
<pdfrwt beam="2">  1        2 0.99821436E+00 0.14944796E+02</pdfrwt>
<pdfrwt beam="1">  1       -2 0.98618992E+00 0.14944796E+02</pdfrwt>
<totfact> 0.16786356E-13</totfact>
</mgrwt>
</event>
<event>
 4    1 -0.5011189E-019  0.1490366E+02  0.7818608E-02  0.1871023E+00
         -2   -1    0    0    0  501 -0.00000000000E+00  0.00000000000E+00  0.12000452710E+03  0.12000452712E+03  0.25500000000E-02 0.  1.
          2   -1    0    0  501    0  0.00000000000E+00 -0.00000000000E+00 -0.46272717059E+00  0.46273419681E+00  0.25500000000E-02 0. -1.
         31    1    1    2    0    0 -0.26376521592E+00  0.35611782381E-01  0.59800909729E+02  0.60263409883E+02  0.74470750000E+01 0. -1.
        -31    1    1    2    0    0  0.26376521592E+00 -0.35611782381E-01  0.59740890196E+02  0.60203851436E+02  0.74470750000E+01 0. -1.
<mgrwt>
<rscale>  0 0.14903661E+02</rscale>
<asrwt>0</asrwt>
<pdfrwt beam="2">  1        2 0.98284283E+00 0.14903661E+02</pdfrwt>
<pdfrwt beam="1">  1       -2 0.99610760E+00 0.14903661E+02</pdfrwt>
<totfact>-0.46105773E-13</totfact>
</mgrwt>
</event>
<event>
 4    1  0.5011189E-019  0.1490005E+02  0.7818608E-02  0.1871134E+00
         -2   -1    0    0    0  501 -0.00000000000E+00  0.00000000000E+00  0.11878076168E+03  0.11878076170E+03  0.25500000000E-02 0.  1.
          2   -1    0    0  501    0  0.00000000000E+00 -0.00000000000E+00 -0.46726777578E+00  0.46727473373E+00  0.25500000000E-02 0. -1.
         31    1    1    2    0    0 -0.27058731314E-01  0.20772769867E+00  0.59200421120E+02  0.59667350115E+02  0.74470750000E+01 0. -1.
        -31    1    1    2    0    0  0.27058731314E-01 -0.20772769867E+00  0.59113072781E+02  0.59580686323E+02  0.74470750000E+01 0.  1.
<mgrwt>
<rscale>  0 0.14900045E+02</rscale>
<asrwt>0</asrwt>
<pdfrwt beam="2">  1        2 0.99240997E+00 0.14900045E+02</pdfrwt>
<pdfrwt beam="1">  1       -2 0.98602620E+00 0.14900045E+02</pdfrwt>
<totfact> 0.43549068E-13</totfact>
</mgrwt>
</event>
<event>
 4    1 -0.5011189E-019  0.1494335E+02  0.7818608E-02  0.1869802E+00
         -2   -1    0    0    0  501 -0.00000000000E+00  0.00000000000E+00  0.12004419212E+03  0.12004419214E+03  0.25500000000E-02 0. -1.
          2   -1    0    0  501    0  0.00000000000E+00 -0.00000000000E+00 -0.46504117520E+00  0.46504816646E+00  0.25500000000E-02 0.  1.
         31    1    1    2    0    0  0.37605138648E+00  0.31895661320E+00  0.62627525397E+02  0.63070666806E+02  0.74470750000E+01 0. -1.
        -31    1    1    2    0    0 -0.37605138648E+00 -0.31895661320E+00  0.56951625543E+02  0.57438573503E+02  0.74470750000E+01 0.  1.
<mgrwt>
<rscale>  0 0.14943348E+02</rscale>
<asrwt>0</asrwt>
<pdfrwt beam="2">  1        2 0.98774004E+00 0.14943348E+02</pdfrwt>
<pdfrwt beam="1">  1       -2 0.99645471E+00 0.14943348E+02</pdfrwt>
<totfact>-0.20429952E-13</totfact>
</mgrwt>
</event>
<event>
 4    1  0.5011189E-019  0.1491490E+02  0.7818608E-02  0.1870677E+00
         -2   -1    0    0    0  501 -0.00000000000E+00  0.00000000000E+00  0.11852183893E+03  0.11852183895E+03  0.25500000000E-02 0. -1.
          2   -1    0    0  501    0  0.00000000000E+00 -0.00000000000E+00 -0.46922272786E+00  0.46922965682E+00  0.25500000000E-02 0.  1.
         31    1    1    2    0    0 -0.19345954522E+00 -0.19143738754E+00  0.61290620308E+02  0.61741988458E+02  0.74470750000E+01 0. -1.
        -31    1    1    2    0    0  0.19345954522E+00  0.19143738754E+00  0.56761995890E+02  0.57249080153E+02  0.74470750000E+01 0.  1.
<mgrwt>
<rscale>  0 0.14914899E+02</rscale>
<asrwt>0</asrwt>
<pdfrwt beam="2">  1        2 0.99653704E+00 0.14914899E+02</pdfrwt>
<pdfrwt beam="1">  1       -2 0.98390141E+00 0.14914899E+02</pdfrwt>
<totfact> 0.52414344E-13</totfact>
</mgrwt>
</event>
<event>
 4    1  0.5011189E-019  0.1492486E+02  0.7818608E-02  0.1870370E+00
          2   -1    0    0  501    0  0.00000000000E+00  0.00000000000E+00  0.12029669865E+03  0.12029669867E+03  0.25500000000E-02 0.  1.
         -2   -1    0    0    0  501 -0.00000000000E+00 -0.00000000000E+00 -0.46291760020E+00  0.46292462354E+00  0.25500000000E-02 0. -1.
         31    1    1    2    0    0 -0.34977154410E+00  0.11780440174E+00  0.57452857415E+02  0.57934669838E+02  0.74470750000E+01 0. -1.
        -31    1    1    2    0    0  0.34977154410E+00 -0.11780440174E+00  0.62380923631E+02  0.62824953459E+02  0.74470750000E+01 0.  1.
<mgrwt>
<rscale>  0 0.14924863E+02</rscale>
<asrwt>0</asrwt>
<pdfrwt beam="1">  1        2 0.99852506E+00 0.14924863E+02</pdfrwt>
<pdfrwt beam="2">  1       -2 0.98325492E+00 0.14924863E+02</pdfrwt>
<totfact> 0.32300078E-13</totfact>
</mgrwt>
</event>
<event>
 4    1 -0.5011189E-019  0.1493763E+02  0.7818608E-02  0.1869978E+00
          2   -1    0    0  501    0  0.00000000000E+00  0.00000000000E+00  0.11894461161E+03  0.11894461164E+03  0.25500000000E-02 0.  1.
         -2   -1    0    0    0  501 -0.00000000000E+00 -0.00000000000E+00 -0.46898119769E+00  0.46898813022E+00  0.25500000000E-02 0. -1.
         31    1    1    2    0    0  0.36818699663E-01  0.56806628911E+00  0.59118978198E+02  0.59588896316E+02  0.74470750000E+01 0.  1.
        -31    1    1    2    0    0 -0.36818699663E-01 -0.56806628911E+00  0.59356652218E+02  0.59824703455E+02  0.74470750000E+01 0.  1.
<mgrwt>
<rscale>  0 0.14937631E+02</rscale>
<asrwt>0</asrwt>
<pdfrwt beam="1">  1        2 0.98739519E+00 0.14937631E+02</pdfrwt>
<pdfrwt beam="2">  1       -2 0.99604006E+00 0.14937631E+02</pdfrwt>
<totfact>-0.22592632E-13</totfact>
</mgrwt>
</event>
<event>
 4    1  0.5011189E-019  0.1497741E+02  0.7818608E-02  0.1868759E+00
          2   -1    0    0  501    0  0.00000000000E+00  0.00000000000E+00  0.12038934720E+03  0.12038934723E+03  0.25500000000E-02 0. -1.
         -2   -1    0    0    0  501 -0.00000000000E+00 -0.00000000000E+00 -0.46582427987E+00  0.46583125938E+00  0.25500000000E-02 0.  1.
         31    1    1    2    0    0 -0.31202792497E-01 -0.74126807298E+00  0.62116792159E+02  0.62566007113E+02  0.74470750000E+01 0.  1.
        -31    1    1    2    0    0  0.31202792497E-01  0.74126807298E+00  0.57806730762E+02  0.58289171373E+02  0.74470750000E+01 0.  1.
<mgrwt>
<rscale>  0 0.14977410E+02</rscale>
<asrwt>0</asrwt>
<pdfrwt beam="1">  1        2 0.99931517E+00 0.14977410E+02</pdfrwt>
<pdfrwt beam="2">  1       -2 0.98940785E+00 0.14977410E+02</pdfrwt>
<totfact> 0.97061758E-15</totfact>
</mgrwt>
</event>
<event>
 4    1 -0.5011189E-019  0.1490313E+02  0.7818608E-02  0.1871039E+00
          2   -1    0    0  501    0  0.00000000000E+00  0.00000000000E+00  0.11818633497E+03  0.11818633499E+03  0.25500000000E-02 0.  1.
         -2   -1    0    0    0  501 -0.00000000000E+00 -0.00000000000E+00 -0.46981244845E+00  0.46981936872E+00  0.25500000000E-02 0. -1.
         31    1    1    2    0    0  0.16014191438E+00  0.14231922460E+00  0.60011966940E+02  0.60472646727E+02  0.74470750000E+01 0. -1.
        -31    1    1    2    0    0 -0.16014191438E+00 -0.14231922460E+00  0.57704555578E+02  0.58183507635E+02  0.74470750000E+01 0. -1.
<mgrwt>
<rscale>  0 0.14903130E+02</rscale>
<asrwt>0</asrwt>
<pdfrwt beam="1">  1        2 0.98113210E+00 0.14903130E+02</pdfrwt>
<pdfrwt beam="2">  1       -2 0.99777334E+00 0.14903130E+02</pdfrwt>
<totfact>-0.42917372E-13</totfact>
</mgrwt>
</event>
<event>
 4    1  0.5011189E-019  0.1490568E+02  0.7818608E-02  0.1870960E+00
          2   -1    0    0  501    0  0.00000000000E+00  0.00000000000E+00  0.11983753092E+03  0.11983753095E+03  0.25500000000E-02 0. -1.
         -2   -1    0    0    0  501 -0.00000000000E+00 -0.00000000000E+00 -0.46349783732E+00  0.46350485187E+00  0.25500000000E-02 0.  1.
         31    1    1    2    0    0  0.23891111216E+00  0.13864073206E+00  0.60479196794E+02  0.60936593855E+02  0.74470750000E+01 0.  1.
        -31    1    1    2    0    0 -0.23891111216E+00 -0.13864073206E+00  0.58894836290E+02  0.59364441945E+02  0.74470750000E+01 0. -1.
<mgrwt>
<rscale>  0 0.14905685E+02</rscale>
<asrwt>0</asrwt>
<pdfrwt beam="1">  1        2 0.99473313E+00 0.14905685E+02</pdfrwt>
<pdfrwt beam="2">  1       -2 0.98446814E+00 0.14905685E+02</pdfrwt>
<totfact> 0.57534491E-13</totfact>
</mgrwt>
</event>
<event>
 4    1  0.5011189E-019  0.1493263E+02  0.7818608E-02  0.1870131E+00
          2   -1    0    0  501    0  0.00000000000E+00  0.00000000000E+00  0.12029133734E+03  0.12029133736E+03  0.25500000000E-02 0.  1.
         -2   -1    0    0    0  501 -0.00000000000E+00 -0.00000000000E+00 -0.46342018581E+00  0.46342720153E+00  0.25500000000E-02 0. -1.
         31    1    1    2    0    0 -0.32582599956E+00 -0.18511706478E+00  0.56818749550E+02  0.57305930385E+02  0.74470750000E+01 0. -1.
        -31    1    1    2    0    0  0.32582599956E+00  0.18511706478E+00  0.63009167601E+02  0.63448834180E+02  0.74470750000E+01 0.  1.
<mgrwt>
<rscale>  0 0.14932630E+02</rscale>
<asrwt>0</asrwt>
<pdfrwt beam="1">  1        2 0.99848488E+00 0.14932630E+02</pdfrwt>
<pdfrwt beam="2">  1       -2 0.98431815E+00 0.14932630E+02</pdfrwt>
<totfact> 0.25575893E-13</totfact>
</mgrwt>
</event>
<event>
 4    1 -0.5011189E-019  0.1491661E+02  0.7818608E-02  0.1870624E+00
         -2   -1    0    0    0  501 -0.00000000000E+00  0.00000000000E+00  0.12011972453E+03  0.12011972456E+03  0.25500000000E-02 0. -1.
          2   -1    0    0  501    0  0.00000000000E+00 -0.00000000000E+00 -0.46308733799E+00  0.46309435875E+00  0.25500000000E-02 0.  1.
         31    1    1    2    0    0 -0.40116649012E+00  0.61589724266E-01  0.60247936199E+02  0.60707804029E+02  0.74470750000E+01 0. -1.
        -31    1    1    2    0    0  0.40116649012E+00 -0.61589724266E-01  0.59408700994E+02  0.59875014886E+02  0.74470750000E+01 0.  1.
<mgrwt>
<rscale>  0 0.14916615E+02</rscale>
<asrwt>0</asrwt>
<pdfrwt beam="2">  1        2 0.98360851E+00 0.14916615E+02</pdfrwt>
<pdfrwt beam="1">  1       -2 0.99706311E+00 0.14916615E+02</pdfrwt>
<totfact>-0.34519387E-13</totfact>
</mgrwt>
</event>
<event>
 4    1  0.5011189E-019  0.1491040E+02  0.7818608E-02  0.1870815E+00
         -2   -1    0    0    0  501 -0.00000000000E+00  0.00000000000E+00  0.11846848111E+03  0.11846848114E+03  0.25500000000E-02 0. -1.
          2   -1    0    0  501    0  0.00000000000E+00 -0.00000000000E+00 -0.46915063192E+00  0.46915756195E+00  0.25500000000E-02 0.  1.
         31    1    1    2    0    0 -0.26930808923E+00  0.47390634114E-03  0.57242527720E+02  0.57725544025E+02  0.74470750000E+01 0.  1.
        -31    1    1    2    0    0  0.26930808923E+00 -0.47390634114E-03  0.60756802757E+02  0.61212094674E+02  0.74470750000E+01 0.  1.
<mgrwt>
<rscale>  0 0.14910396E+02</rscale>
<asrwt>0</asrwt>
<pdfrwt beam="2">  1        2 0.99638276E+00 0.14910396E+02</pdfrwt>
<pdfrwt beam="1">  1       -2 0.98345961E+00 0.14910396E+02</pdfrwt>
<totfact> 0.59809293E-13</totfact>
</mgrwt>
</event>
<event>
 4    1 -0.5011189E-019  0.1492603E+02  0.7818608E-02  0.1870334E+00
          2   -1    0    0  501    0  0.00000000000E+00  0.00000000000E+00  0.11907916945E+03  0.11907916947E+03  0.25500000000E-02 0.  1.
         -2   -1    0    0    0  501 -0.00000000000E+00 -0.00000000000E+00 -0.46772380222E+00  0.46773075339E+00  0.25500000000E-02 0. -1.
         31    1    1    2    0    0 -0.12971694228E-03 -0.16472208749E+00  0.62980578754E+02  0.63419550295E+02  0.74470750000E+01 0. -1.
        -31    1    1    2    0    0  0.12971694228E-03  0.16472208749E+00  0.55630866889E+02  0.56127349931E+02  0.74470750000E+01 0. -1.
<mgrwt>
<rscale>  0 0.14926028E+02</rscale>
<asrwt>0</asrwt>
<pdfrwt beam="1">  1        2 0.98849741E+00 0.14926028E+02</pdfrwt>
<pdfrwt beam="2">  1       -2 0.99338445E+00 0.14926028E+02</pdfrwt>
<totfact>-0.19340268E-13</totfact>
</mgrwt>
</event>
<event>
 4    1 -0.5011189E-019  0.1495094E+02  0.7818608E-02  0.1869569E+00
         -2   -1    0    0    0  501 -0.00000000000E+00  0.00000000000E+00  0.12029978253E+03  0.12029978255E+03  0.25500000000E-02 0.  1.
          2   -1    0    0  501    0  0.00000000000E+00 -0.00000000000E+00 -0.46452454049E+00  0.46453153953E+00  0.25500000000E-02 0. -1.
         31    1    1    2    0    0  0.39187039913E+00 -0.49945590697E+00  0.58756036835E+02  0.59229501173E+02  0.74470750000E+01 0. -1.
        -31    1    1    2    0    0 -0.39187039913E+00  0.49945590697E+00  0.61079221150E+02  0.61534812919E+02  0.74470750000E+01 0.  1.
<mgrwt>
<rscale>  0 0.14950936E+02</rscale>
<asrwt>0</asrwt>
<pdfrwt beam="2">  1        2 0.98665504E+00 0.14950936E+02</pdfrwt>
<pdfrwt beam="1">  1       -2 0.99856384E+00 0.14950936E+02</pdfrwt>
<totfact>-0.12079238E-13</totfact>
</mgrwt>
</event>
<event>
 4    1 -0.5011189E-019  0.1493355E+02  0.7818608E-02  0.1870103E+00
         -2   -1    0    0    0  501 -0.00000000000E+00  0.00000000000E+00  0.12015853081E+03  0.12015853084E+03  0.25500000000E-02 0. -1.
          2   -1    0    0  501    0  0.00000000000E+00 -0.00000000000E+00 -0.46398947847E+00  0.46399648558E+00  0.25500000000E-02 0.  1.
         31    1    1    2    0    0 -0.32090934495E+00  0.39679916181E+00  0.58371980591E+02  0.58847323444E+02  0.74470750000E+01 0. -1.
        -31    1    1    2    0    0  0.32090934495E+00 -0.39679916181E+00  0.61322560741E+02  0.61775203879E+02  0.74470750000E+01 0. -1.
<mgrwt>
<rscale>  0 0.14933549E+02</rscale>
<asrwt>0</asrwt>
<pdfrwt beam="2">  1        2 0.98551850E+00 0.14933549E+02</pdfrwt>
<pdfrwt beam="1">  1       -2 0.99739145E+00 0.14933549E+02</pdfrwt>
<totfact>-0.23255339E-13</totfact>
</mgrwt>
</event>
<event>
 4    1 -0.5011189E-019  0.1502664E+02  0.7818608E-02  0.1867257E+00
          2   -1    0    0  501    0  0.00000000000E+00  0.00000000000E+00  0.12015149411E+03  0.12015149413E+03  0.25500000000E-02 0. -1.
         -2   -1    0    0    0  501 -0.00000000000E+00 -0.00000000000E+00 -0.46981968782E+00  0.46982660798E+00  0.25500000000E-02 0.  1.
         31    1    1    2    0    0 -0.40470914971E+00 -0.75475801234E-01  0.67116587249E+02  0.67529731942E+02  0.74470750000E+01 0. -1.
        -31    1    1    2    0    0  0.40470914971E+00  0.75475801234E-01  0.52565087169E+02  0.53091588799E+02  0.74470750000E+01 0.  1.
<mgrwt>
<rscale>  0 0.15026637E+02</rscale>
<asrwt>0</asrwt>
<pdfrwt beam="1">  1        2 0.99738147E+00 0.15026637E+02</pdfrwt>
<pdfrwt beam="2">  1       -2 0.99785328E+00 0.15026637E+02</pdfrwt>
<totfact>-0.50392244E-14</totfact>
</mgrwt>
</event>
<event>
 4    1 -0.5011189E-019  0.1498968E+02  0.7818608E-02  0.1868384E+00
         -2   -1    0    0    0  501 -0.00000000000E+00  0.00000000000E+00  0.11980792023E+03  0.11980792026E+03  0.25500000000E-02 0. -1.
          2   -1    0    0  501    0  0.00000000000E+00 -0.00000000000E+00 -0.46885220308E+00  0.46885913752E+00  0.25500000000E-02 0.  1.
         31    1    1    2    0    0 -0.22490722036E+00 -0.51401250671E+00  0.64737406923E+02  0.65166752054E+02  0.74470750000E+01 0. -1.
        -31    1    1    2    0    0  0.22490722036E+00  0.51401250671E+00  0.54601661108E+02  0.55110027345E+02  0.74470750000E+01 0.  1.
<mgrwt>
<rscale>  0 0.14989680E+02</rscale>
<asrwt>0</asrwt>
<pdfrwt beam="2">  1        2 0.99579535E+00 0.14989680E+02</pdfrwt>
<pdfrwt beam="1">  1       -2 0.99453257E+00 0.14989680E+02</pdfrwt>
<totfact>-0.10867752E-13</totfact>
</mgrwt>
</event>
<event>
 4    1  0.5011189E-019  0.1493242E+02  0.7818608E-02  0.1870138E+00
          2   -1    0    0  501    0  0.00000000000E+00  0.00000000000E+00  0.12020258270E+03  0.12020258272E+03  0.25500000000E-02 0. -1.
         -2   -1    0    0    0  501 -0.00000000000E+00 -0.00000000000E+00 -0.46374958396E+00  0.46375659470E+00  0.25500000000E-02 0.  1.
         31    1    1    2    0    0 -0.43763401508E+00 -0.15320889558E+00  0.57725334222E+02  0.58205567892E+02  0.74470750000E+01 0.  1.
        -31    1    1    2    0    0  0.43763401508E+00  0.15320889558E+00  0.62013498889E+02  0.62460771425E+02  0.74470750000E+01 0.  1.
<mgrwt>
<rscale>  0 0.14932424E+02</rscale>
<asrwt>0</asrwt>
<pdfrwt beam="1">  1        2 0.99775372E+00 0.14932424E+02</pdfrwt>
<pdfrwt beam="2">  1       -2 0.98501231E+00 0.14932424E+02</pdfrwt>
<totfact> 0.29003507E-13</totfact>
</mgrwt>
</event>
<event>
 4    1 -0.5011189E-019  0.1499999E+02  0.7818608E-02  0.1868069E+00
          2   -1    0    0  501    0  0.00000000000E+00  0.00000000000E+00  0.11982230315E+03  0.11982230318E+03  0.25500000000E-02 0.  1.
         -2   -1    0    0    0  501 -0.00000000000E+00 -0.00000000000E+00 -0.46944094569E+00  0.46944787143E+00  0.25500000000E-02 0. -1.
         31    1    1    2    0    0 -0.53950842192E-01 -0.58399579735E+00  0.54314624510E+02  0.54825918355E+02  0.74470750000E+01 0. -1.
        -31    1    1    2    0    0  0.53950842192E-01  0.58399579735E+00  0.65038237695E+02  0.65465832694E+02  0.74470750000E+01 0.  1.
<mgrwt>
<rscale>  0 0.14999988E+02</rscale>
<asrwt>0</asrwt>
<pdfrwt beam="1">  1        2 0.99465636E+00 0.14999988E+02</pdfrwt>
<pdfrwt beam="2">  1       -2 0.99704135E+00 0.14999988E+02</pdfrwt>
<totfact>-0.97966119E-14</totfact>
</mgrwt>
</event>
<event>
 4    1  0.5011189E-019  0.1490547E+02  0.7818608E-02  0.1870967E+00
          2   -1    0    0  501    0  0.00000000000E+00  0.00000000000E+00  0.12006403817E+03  0.12006403820E+03  0.25500000000E-02 0.  1.
         -2   -1    0    0    0  501 -0.00000000000E+00 -0.00000000000E+00 -0.46260997915E+00  0.46261700716E+00  0.25500000000E-02 0. -1.
         31    1    1    2    0    0  0.25024595544E+00  0.14691164173E+00  0.59887515225E+02  0.60349462400E+02  0.74470750000E+01 0.  1.
        -31    1    1    2    0    0 -0.25024595544E+00 -0.14691164173E+00  0.59713912965E+02  0.60177192803E+02  0.74470750000E+01 0. -1.
<mgrwt>
<rscale>  0 0.14905468E+02</rscale>
<asrwt>0</asrwt>
<pdfrwt beam="1">  1        2 0.99659871E+00 0.14905468E+02</pdfrwt>
<pdfrwt beam="2">  1       -2 0.98259674E+00 0.14905468E+02</pdfrwt>
<totfact> 0.69616914E-13</totfact>
</mgrwt>
</event>
<event>
 4    1  0.5011189E-019  0.1494286E+02  0.7818608E-02  0.1869817E+00
         -2   -1    0    0    0  501 -0.00000000000E+00  0.00000000000E+00  0.11870583765E+03  0.11870583768E+03  0.25500000000E-02 0. -1.
          2   -1    0    0  501    0  0.00000000000E+00 -0.00000000000E+00 -0.47025383988E+00  0.47026075364E+00  0.25500000000E-02 0.  1.
         31    1    1    2    0    0 -0.37997634876E+00 -0.12131727953E+00  0.62722340263E+02  0.63164151178E+02  0.74470750000E+01 0.  1.
        -31    1    1    2    0    0  0.37997634876E+00  0.12131727953E+00  0.55513243551E+02  0.56011947257E+02  0.74470750000E+01 0.  1.
<mgrwt>
<rscale>  0 0.14942863E+02</rscale>
<asrwt>0</asrwt>
<pdfrwt beam="2">  1        2 0.99872435E+00 0.14942863E+02</pdfrwt>
<pdfrwt beam="1">  1       -2 0.98543137E+00 0.14942863E+02</pdfrwt>
<totfact> 0.16222287E-13</totfact>
</mgrwt>
</event>
<event>
 4    1  0.5011189E-019  0.1490152E+02  0.7818608E-02  0.1871089E+00
          2   -1    0    0  501    0  0.00000000000E+00  0.00000000000E+00  0.12026061265E+03  0.12026061268E+03  0.25500000000E-02 0. -1.
         -2   -1    0    0    0  501 -0.00000000000E+00 -0.00000000000E+00 -0.46160933252E+00  0.46161637576E+00  0.25500000000E-02 0.  1.
         31    1    1    2    0    0 -0.90153015927E-01  0.20764129366E+00  0.60390911239E+02  0.60848766042E+02  0.74470750000E+01 0. -1.
        -31    1    1    2    0    0  0.90153015927E-01 -0.20764129366E+00  0.59408092079E+02  0.59873463012E+02  0.74470750000E+01 0.  1.
<mgrwt>
<rscale>  0 0.14901523E+02</rscale>
<asrwt>0</asrwt>
<pdfrwt beam="1">  1        2 0.99821585E+00 0.14901523E+02</pdfrwt>
<pdfrwt beam="2">  1       -2 0.98048565E+00 0.14901523E+02</pdfrwt>
<totfact> 0.65303094E-13</totfact>
</mgrwt>
</event>
<event>
 4    1 -0.5011189E-019  0.1491994E+02  0.7818608E-02  0.1870521E+00
          2   -1    0    0  501    0  0.00000000000E+00  0.00000000000E+00  0.11833698670E+03  0.11833698673E+03  0.25500000000E-02 0. -1.
         -2   -1    0    0    0  501 -0.00000000000E+00 -0.00000000000E+00 -0.47027333998E+00  0.47028025346E+00  0.25500000000E-02 0.  1.
         31    1    1    2    0    0  0.28189310068E+00 -0.44429558621E-01  0.56283003341E+02  0.56774262028E+02  0.74470750000E+01 0.  1.
        -31    1    1    2    0    0 -0.28189310068E+00  0.44429558621E-01  0.61583710019E+02  0.62033004953E+02  0.74470750000E+01 0. -1.
<mgrwt>
<rscale>  0 0.14919939E+02</rscale>
<asrwt>0</asrwt>
<pdfrwt beam="1">  1        2 0.98238161E+00 0.14919939E+02</pdfrwt>
<pdfrwt beam="2">  1       -2 0.99875332E+00 0.14919939E+02</pdfrwt>
<totfact>-0.21338510E-13</totfact>
</mgrwt>
</event>
<event>
 4    1 -0.5011189E-019  0.1499176E+02  0.7818608E-02  0.1868320E+00
          2   -1    0    0  501    0  0.00000000000E+00  0.00000000000E+00  0.12002723853E+03  0.12002723856E+03  0.25500000000E-02 0.  1.
         -2   -1    0    0    0  501 -0.00000000000E+00 -0.00000000000E+00 -0.46812565532E+00  0.46813260052E+00  0.25500000000E-02 0. -1.
         31    1    1    2    0    0 -0.36328115766E+00  0.55329747381E+00  0.55442225555E+02  0.55944056091E+02  0.74470750000E+01 0. -1.
        -31    1    1    2    0    0  0.36328115766E+00 -0.55329747381E+00  0.64116887323E+02  0.64551315070E+02  0.74470750000E+01 0.  1.
<mgrwt>
<rscale>  0 0.14991764E+02</rscale>
<asrwt>0</asrwt>
<pdfrwt beam="1">  1        2 0.99634004E+00 0.14991764E+02</pdfrwt>
<pdfrwt beam="2">  1       -2 0.99426533E+00 0.14991764E+02</pdfrwt>
<totfact>-0.99338188E-14</totfact>
</mgrwt>
</event>
<event>
 4    1  0.5011189E-019  0.1491453E+02  0.7818608E-02  0.1870688E+00
          2   -1    0    0  501    0  0.00000000000E+00  0.00000000000E+00  0.11954885737E+03  0.11954885740E+03  0.25500000000E-02 0.  1.
         -2   -1    0    0    0  501 -0.00000000000E+00 -0.00000000000E+00 -0.46516865400E+00  0.46517564334E+00  0.25500000000E-02 0. -1.
         31    1    1    2    0    0 -0.18965619503E+00 -0.33958863347E+00  0.59736660548E+02  0.60200322503E+02  0.74470750000E+01 0. -1.
        -31    1    1    2    0    0  0.18965619503E+00  0.33958863347E+00  0.59347028171E+02  0.59813710541E+02  0.74470750000E+01 0. -1.
<mgrwt>
<rscale>  0 0.14914530E+02</rscale>
<asrwt>0</asrwt>
<pdfrwt beam="1">  1        2 0.99235999E+00 0.14914530E+02</pdfrwt>
<pdfrwt beam="2">  1       -2 0.98799395E+00 0.14914530E+02</pdfrwt>
<totfact> 0.18767834E-13</totfact>
</mgrwt>
</event>
<event>
 4    1  0.5011189E-019  0.1491032E+02  0.7818608E-02  0.1870818E+00
         -2   -1    0    0    0  501 -0.00000000000E+00  0.00000000000E+00  0.11820818586E+03  0.11820818588E+03  0.25500000000E-02 0.  1.
          2   -1    0    0  501    0  0.00000000000E+00 -0.00000000000E+00 -0.47017880154E+00  0.47018571642E+00  0.25500000000E-02 0. -1.
         31    1    1    2    0    0 -0.16580508904E-02 -0.20521015290E+00  0.56640987481E+02  0.57128823748E+02  0.74470750000E+01 0. -1.
        -31    1    1    2    0    0  0.16580508904E-02  0.20521015290E+00  0.61097019573E+02  0.61549547852E+02  0.74470750000E+01 0.  1.
<mgrwt>
<rscale>  0 0.14910318E+02</rscale>
<asrwt>0</asrwt>
<pdfrwt beam="2">  1        2 0.99854903E+00 0.14910318E+02</pdfrwt>
<pdfrwt beam="1">  1       -2 0.98131581E+00 0.14910318E+02</pdfrwt>
<totfact> 0.47423471E-13</totfact>
</mgrwt>
</event>
<event>
 4    1 -0.5011189E-019  0.1495456E+02  0.7818608E-02  0.1869458E+00
         -2   -1    0    0    0  501 -0.00000000000E+00  0.00000000000E+00  0.12026930878E+03  0.12026930880E+03  0.25500000000E-02 0. -1.
          2   -1    0    0  501    0  0.00000000000E+00 -0.00000000000E+00 -0.46486722811E+00  0.46487422199E+00  0.25500000000E-02 0.  1.
         31    1    1    2    0    0 -0.25177785486E+00 -0.47965671935E+00  0.56700270154E+02  0.57189798254E+02  0.74470750000E+01 0.  1.
        -31    1    1    2    0    0  0.25177785486E+00  0.47965671935E+00  0.63104171395E+02  0.63544384773E+02  0.74470750000E+01 0. -1.
<mgrwt>
<rscale>  0 0.14954556E+02</rscale>
<asrwt>0</asrwt>
<pdfrwt beam="2">  1        2 0.98737914E+00 0.14954556E+02</pdfrwt>
<pdfrwt beam="1">  1       -2 0.99831470E+00 0.14954556E+02</pdfrwt>
<totfact>-0.12505132E-13</totfact>
</mgrwt>
</event>
<event>
 4    1  0.5011189E-019  0.1489489E+02  0.7818608E-02  0.1871293E+00
         -2   -1    0    0    0  501 -0.00000000000E+00  0.00000000000E+00  0.11804228235E+03  0.11804228237E+03  0.25500000000E-02 0.  1.
          2   -1    0    0  501    0  0.00000000000E+00 -0.00000000000E+00 -0.46986545473E+00  0.46987237421E+00  0.25500000000E-02 0. -1.
         31    1    1    2    0    0 -0.27262536980E-01 -0.24497980141E-01  0.59297715679E+02  0.59763528629E+02  0.74470750000E+01 0.  1.
        -31    1    1    2    0    0  0.27262536980E-01  0.24497980141E-01  0.58274701213E+02  0.58748626120E+02  0.74470750000E+01 0. -1.
<mgrwt>
<rscale>  0 0.14894885E+02</rscale>
<asrwt>0</asrwt>
<pdfrwt beam="2">  1        2 0.99788065E+00 0.14894885E+02</pdfrwt>
<pdfrwt beam="1">  1       -2 0.97994141E+00 0.14894885E+02</pdfrwt>
<totfact> 0.82050913E-13</totfact>
</mgrwt>
</event>
<event>
 4    1 -0.5011189E-019  0.1495311E+02  0.7818608E-02  0.1869503E+00
         -2   -1    0    0    0  501 -0.00000000000E+00  0.00000000000E+00  0.12015160395E+03  0.12015160398E+03  0.25500000000E-02 0.  1.
          2   -1    0    0  501    0  0.00000000000E+00 -0.00000000000E+00 -0.46523252168E+00  0.46523951006E+00  0.25500000000E-02 0. -1.
         31    1    1    2    0    0 -0.36961232779E+00 -0.52787800289E+00  0.58576429634E+02  0.59051437774E+02  0.74470750000E+01 0.  1.
        -31    1    1    2    0    0  0.36961232779E+00  0.52787800289E+00  0.61109941798E+02  0.61565405717E+02  0.74470750000E+01 0.  1.
<mgrwt>
<rscale>  0 0.14953108E+02</rscale>
<asrwt>0</asrwt>
<pdfrwt beam="2">  1        2 0.98814829E+00 0.14953108E+02</pdfrwt>
<pdfrwt beam="1">  1       -2 0.99734445E+00 0.14953108E+02</pdfrwt>
<totfact>-0.16150726E-13</totfact>
</mgrwt>
</event>
<event>
 4    1 -0.5011189E-019  0.1497985E+02  0.7818608E-02  0.1868684E+00
         -2   -1    0    0    0  501 -0.00000000000E+00  0.00000000000E+00  0.12016774199E+03  0.12016774202E+03  0.25500000000E-02 0.  1.
          2   -1    0    0  501    0  0.00000000000E+00 -0.00000000000E+00 -0.46683556607E+00  0.46684253046E+00  0.25500000000E-02 0. -1.
         31    1    1    2    0    0 -0.53926341415E-01 -0.22764759111E+00  0.66011697090E+02  0.66430849838E+02  0.74470750000E+01 0.  1.
        -31    1    1    2    0    0  0.53926341415E-01  0.22764759111E+00  0.53689209336E+02  0.54203734712E+02  0.74470750000E+01 0. -1.
<mgrwt>
<rscale>  0 0.14979853E+02</rscale>
<asrwt>0</asrwt>
<pdfrwt beam="2">  1        2 0.99154043E+00 0.14979853E+02</pdfrwt>
<pdfrwt beam="1">  1       -2 0.99749115E+00 0.14979853E+02</pdfrwt>
<totfact>-0.11088635E-13</totfact>
</mgrwt>
</event>
<event>
 4    1  0.5011189E-019  0.1491414E+02  0.7818608E-02  0.1870700E+00
          2   -1    0    0  501    0  0.00000000000E+00  0.00000000000E+00  0.12003096737E+03  0.12003096740E+03  0.25500000000E-02 0. -1.
         -2   -1    0    0    0  501 -0.00000000000E+00 -0.00000000000E+00 -0.46327620911E+00  0.46328322701E+00  0.25500000000E-02 0.  1.
         31    1    1    2    0    0 -0.74257221696E-01 -0.35830806493E+00  0.58791349605E+02  0.59262261290E+02  0.74470750000E+01 0.  1.
        -31    1    1    2    0    0  0.74257221696E-01  0.35830806493E+00  0.60776341558E+02  0.61231989336E+02  0.74470750000E+01 0. -1.
<mgrwt>
<rscale>  0 0.14914143E+02</rscale>
<asrwt>0</asrwt>
<pdfrwt beam="1">  1        2 0.99633077E+00 0.14914143E+02</pdfrwt>
<pdfrwt beam="2">  1       -2 0.98400533E+00 0.14914143E+02</pdfrwt>
<totfact> 0.52963908E-13</totfact>
</mgrwt>
</event>
<event>
 4    1  0.5011189E-019  0.1491606E+02  0.7818608E-02  0.1870641E+00
         -2   -1    0    0    0  501 -0.00000000000E+00  0.00000000000E+00  0.11830846792E+03  0.11830846795E+03  0.25500000000E-02 0.  1.
          2   -1    0    0  501    0  0.00000000000E+00 -0.00000000000E+00 -0.47014242430E+00  0.47014933971E+00  0.25500000000E-02 0. -1.
         31    1    1    2    0    0  0.24492040276E-01 -0.39143997225E+00  0.59694948949E+02  0.60158953459E+02  0.74470750000E+01 0.  1.
        -31    1    1    2    0    0 -0.24492040276E-01  0.39143997225E+00  0.58143376547E+02  0.58619663829E+02  0.74470750000E+01 0. -1.
<mgrwt>
<rscale>  0 0.14916064E+02</rscale>
<asrwt>0</asrwt>
<pdfrwt beam="2">  1        2 0.99847543E+00 0.14916064E+02</pdfrwt>
<pdfrwt beam="1">  1       -2 0.98214471E+00 0.14916064E+02</pdfrwt>
<totfact> 0.42074495E-13</totfact>
</mgrwt>
</event>
<event>
 4    1 -0.5011189E-019  0.1492251E+02  0.7818608E-02  0.1870442E+00
         -2   -1    0    0    0  501 -0.00000000000E+00  0.00000000000E+00  0.11990615865E+03  0.11990615868E+03  0.25500000000E-02 0. -1.
          2   -1    0    0  501    0  0.00000000000E+00 -0.00000000000E+00 -0.46427920106E+00  0.46428620380E+00  0.25500000000E-02 0.  1.
         31    1    1    2    0    0  0.21762221819E+00 -0.12697901154E+00  0.56618276910E+02  0.57106494284E+02  0.74470750000E+01 0.  1.
        -31    1    1    2    0    0 -0.21762221819E+00  0.12697901154E+00  0.62823602541E+02  0.63263950599E+02  0.74470750000E+01 0. -1.
<mgrwt>
<rscale>  0 0.14922514E+02</rscale>
<asrwt>0</asrwt>
<pdfrwt beam="2">  1        2 0.98612351E+00 0.14922514E+02</pdfrwt>
<pdfrwt beam="1">  1       -2 0.99530706E+00 0.14922514E+02</pdfrwt>
<totfact>-0.28776042E-13</totfact>
</mgrwt>
</event>
<event>
 4    1 -0.5011189E-019  0.1493857E+02  0.7818608E-02  0.1869949E+00
          2   -1    0    0  501    0  0.00000000000E+00  0.00000000000E+00  0.11911081550E+03  0.11911081553E+03  0.25500000000E-02 0.  1.
         -2   -1    0    0    0  501 -0.00000000000E+00 -0.00000000000E+00 -0.46838566258E+00  0.46839260393E+00  0.25500000000E-02 0. -1.
         31    1    1    2    0    0  0.22947953780E+00  0.37893925460E+00  0.62262699990E+02  0.62708045672E+02  0.74470750000E+01 0.  1.
        -31    1    1    2    0    0 -0.22947953780E+00 -0.37893925460E+00  0.56379729848E+02  0.56871162460E+02  0.74470750000E+01 0. -1.
<mgrwt>
<rscale>  0 0.14938570E+02</rscale>
<asrwt>0</asrwt>
<pdfrwt beam="1">  1        2 0.98876456E+00 0.14938570E+02</pdfrwt>
<pdfrwt beam="2">  1       -2 0.99478566E+00 0.14938570E+02</pdfrwt>
<totfact>-0.20389906E-13</totfact>
</mgrwt>
</event>
<event>
 4    1  0.5011189E-019  0.1489852E+02  0.7818608E-02  0.1871181E+00
          2   -1    0    0  501    0  0.00000000000E+00  0.00000000000E+00  0.12004313873E+03  0.12004313875E+03  0.25500000000E-02 0.  1.
         -2   -1    0    0    0  501 -0.00000000000E+00 -0.00000000000E+00 -0.46225945672E+00  0.46226649005E+00  0.25500000000E-02 0. -1.
         31    1    1    2    0    0  0.10487837496E+00  0.79328875515E-01  0.60790361790E+02  0.61244953304E+02  0.74470750000E+01 0.  1.
        -31    1    1    2    0    0 -0.10487837496E+00 -0.79328875515E-01  0.58790517481E+02  0.59260451941E+02  0.74470750000E+01 0. -1.
<mgrwt>
<rscale>  0 0.14898524E+02</rscale>
<asrwt>0</asrwt>
<pdfrwt beam="1">  1        2 0.99642300E+00 0.14898524E+02</pdfrwt>
<pdfrwt beam="2">  1       -2 0.98185443E+00 0.14898524E+02</pdfrwt>
<totfact> 0.83560288E-13</totfact>
</mgrwt>
</event>
<event>
 4    1  0.5011189E-019  0.1491963E+02  0.7818608E-02  0.1870531E+00
         -2   -1    0    0    0  501 -0.00000000000E+00  0.00000000000E+00  0.11827289117E+03  0.11827289119E+03  0.25500000000E-02 0.  1.
          2   -1    0    0  501    0  0.00000000000E+00 -0.00000000000E+00 -0.47050856955E+00  0.47051547957E+00  0.25500000000E-02 0. -1.
         31    1    1    2    0    0  0.80452619379E-01  0.42115803825E+00  0.58282240789E+02  0.58757657919E+02  0.74470750000E+01 0. -1.
        -31    1    1    2    0    0 -0.80452619379E-01 -0.42115803825E+00  0.59520141809E+02  0.59985748755E+02  0.74470750000E+01 0. -1.
<mgrwt>
<rscale>  0 0.14919627E+02</rscale>
<asrwt>0</asrwt>
<pdfrwt beam="2">  1        2 0.99924876E+00 0.14919627E+02</pdfrwt>
<pdfrwt beam="1">  1       -2 0.98185357E+00 0.14919627E+02</pdfrwt>
<totfact> 0.23935154E-13</totfact>
</mgrwt>
</event>
<event>
 4    1  0.5011189E-019  0.1495124E+02  0.7818608E-02  0.1869560E+00
          2   -1    0    0  501    0  0.00000000000E+00  0.00000000000E+00  0.12002703548E+03  0.12002703551E+03  0.25500000000E-02 0.  1.
         -2   -1    0    0    0  501 -0.00000000000E+00 -0.00000000000E+00 -0.46559895311E+00  0.46560593600E+00  0.25500000000E-02 0. -1.
         31    1    1    2    0    0  0.33499884818E+00  0.23650123470E+00  0.55688810091E+02  0.56186036098E+02  0.74470750000E+01 0. -1.
        -31    1    1    2    0    0 -0.33499884818E+00 -0.23650123470E+00  0.63872626438E+02  0.64306605346E+02  0.74470750000E+01 0.  1.
<mgrwt>
<rscale>  0 0.14951239E+02</rscale>
<asrwt>0</asrwt>
<pdfrwt beam="1">  1        2 0.99631746E+00 0.14951239E+02</pdfrwt>
<pdfrwt beam="2">  1       -2 0.98891961E+00 0.14951239E+02</pdfrwt>
<totfact> 0.65899845E-14</totfact>
</mgrwt>
</event>
<event>
 4    1  0.5011189E-019  0.1490644E+02  0.7818608E-02  0.1870937E+00
         -2   -1    0    0    0  501 -0.00000000000E+00  0.00000000000E+00  0.11856847143E+03  0.11856847145E+03  0.25500000000E-02 0.  1.
          2   -1    0    0  501    0  0.00000000000E+00 -0.00000000000E+00 -0.46850611712E+00  0.46851305668E+00  0.25500000000E-02 0. -1.
         31    1    1    2    0    0 -0.33760383341E-02 -0.20016044030E+00  0.57238337223E+02  0.57721107489E+02  0.74470750000E+01 0. -1.
        -31    1    1    2    0    0  0.33760383341E-02  0.20016044030E+00  0.60861628087E+02  0.61315877023E+02  0.74470750000E+01 0.  1.
<mgrwt>
<rscale>  0 0.14906437E+02</rscale>
<asrwt>0</asrwt>
<pdfrwt beam="2">  1        2 0.99502266E+00 0.14906437E+02</pdfrwt>
<pdfrwt beam="1">  1       -2 0.98428107E+00 0.14906437E+02</pdfrwt>
<totfact> 0.58671358E-13</totfact>
</mgrwt>
</event>
<event>
 4    1 -0.5011189E-019  0.1490530E+02  0.7818608E-02  0.1870972E+00
         -2   -1    0    0    0  501 -0.00000000000E+00  0.00000000000E+00  0.11962974479E+03  0.11962974482E+03  0.25500000000E-02 0.  1.
          2   -1    0    0  501    0  0.00000000000E+00 -0.00000000000E+00 -0.46427872089E+00  0.46428572363E+00  0.25500000000E-02 0. -1.
         31    1    1    2    0    0 -0.12908561014E-01 -0.25197722614E+00  0.58461029844E+02  0.58933985065E+02  0.74470750000E+01 0.  1.
        -31    1    1    2    0    0  0.12908561014E-01  0.25197722614E+00  0.60704436228E+02  0.61160045479E+02  0.74470750000E+01 0. -1.
<mgrwt>
<rscale>  0 0.14905297E+02</rscale>
<asrwt>0</asrwt>
<pdfrwt beam="2">  1        2 0.98611370E+00 0.14905297E+02</pdfrwt>
<pdfrwt beam="1">  1       -2 0.99302147E+00 0.14905297E+02</pdfrwt>
<totfact>-0.25380070E-13</totfact>
</mgrwt>
</event>
<event>
 4    1  0.5011189E-019  0.1493201E+02  0.7818608E-02  0.1870150E+00
         -2   -1    0    0    0  501 -0.00000000000E+00  0.00000000000E+00  0.11847032289E+03  0.11847032292E+03  0.25500000000E-02 0. -1.
          2   -1    0    0  501    0  0.00000000000E+00 -0.00000000000E+00 -0.47050466004E+00  0.47051157013E+00  0.25500000000E-02 0.  1.
         31    1    1    2    0    0 -0.22730607016E+00 -0.45057771119E+00  0.57675690743E+02  0.58156675602E+02  0.74470750000E+01 0.  1.
        -31    1    1    2    0    0  0.22730607016E+00  0.45057771119E+00  0.60324127487E+02  0.60784158885E+02  0.74470750000E+01 0. -1.
<mgrwt>
<rscale>  0 0.14932013E+02</rscale>
<asrwt>0</asrwt>
<pdfrwt beam="2">  1        2 0.99924709E+00 0.14932013E+02</pdfrwt>
<pdfrwt beam="1">  1       -2 0.98348604E+00 0.14932013E+02</pdfrwt>
<totfact> 0.16941480E-13</totfact>
</mgrwt>
</event>
<event>
 4    1  0.5011189E-019  0.1490408E+02  0.7818608E-02  0.1871010E+00
         -2   -1    0    0    0  501 -0.00000000000E+00  0.00000000000E+00  0.11825421605E+03  0.11825421608E+03  0.25500000000E-02 0. -1.
          2   -1    0    0  501    0  0.00000000000E+00 -0.00000000000E+00 -0.46960265234E+00  0.46960957570E+00  0.25500000000E-02 0.  1.
         31    1    1    2    0    0  0.22681380334E+00 -0.14826304217E+00  0.59079739472E+02  0.59547862838E+02  0.74470750000E+01 0.  1.
        -31    1    1    2    0    0 -0.22681380334E+00  0.14826304217E+00  0.58704873927E+02  0.59175962817E+02  0.74470750000E+01 0. -1.
<mgrwt>
<rscale>  0 0.14904081E+02</rscale>
<asrwt>0</asrwt>
<pdfrwt beam="2">  1        2 0.99733182E+00 0.14904081E+02</pdfrwt>
<pdfrwt beam="1">  1       -2 0.98169166E+00 0.14904081E+02</pdfrwt>
<totfact> 0.70979062E-13</totfact>
</mgrwt>
</event>
<event>
 4    1 -0.5011189E-019  0.1497370E+02  0.7818608E-02  0.1868872E+00
         -2   -1    0    0    0  501 -0.00000000000E+00  0.00000000000E+00  0.12040884528E+03  0.12040884530E+03  0.25500000000E-02 0.  1.
          2   -1    0    0  501    0  0.00000000000E+00 -0.00000000000E+00 -0.46551837517E+00  0.46552535927E+00  0.25500000000E-02 0. -1.
         31    1    1    2    0    0 -0.36625752149E+00  0.44718957874E+00  0.55856264370E+02  0.56353485416E+02  0.74470750000E+01 0. -1.
        -31    1    1    2    0    0  0.36625752149E+00 -0.44718957874E+00  0.64087062530E+02  0.64520885245E+02  0.74470750000E+01 0.  1.
<mgrwt>
<rscale>  0 0.14973704E+02</rscale>
<asrwt>0</asrwt>
<pdfrwt beam="2">  1        2 0.98876124E+00 0.14973704E+02</pdfrwt>
<pdfrwt beam="1">  1       -2 0.99947387E+00 0.14973704E+02</pdfrwt>
<totfact>-0.36141988E-14</totfact>
</mgrwt>
</event>
<event>
 4    1  0.5011189E-019  0.1491124E+02  0.7818608E-02  0.1870789E+00
          2   -1    0    0  501    0  0.00000000000E+00  0.00000000000E+00  0.12034327982E+03  0.12034327985E+03  0.25500000000E-02 0. -1.
         -2   -1    0    0    0  501 -0.00000000000E+00 -0.00000000000E+00 -0.46189429739E+00  0.46190133628E+00  0.25500000000E-02 0.  1.
         31    1    1    2    0    0 -0.31361337480E-01 -0.28778993834E+00  0.61631755299E+02  0.62080721596E+02  0.74470750000E+01 0. -1.
        -31    1    1    2    0    0  0.31361337480E-01  0.28778993834E+00  0.58249630222E+02  0.58724459586E+02  0.74470750000E+01 0.  1.
<mgrwt>
<rscale>  0 0.14911244E+02</rscale>
<asrwt>0</asrwt>
<pdfrwt beam="1">  1        2 0.99890176E+00 0.14911244E+02</pdfrwt>
<pdfrwt beam="2">  1       -2 0.98109119E+00 0.14911244E+02</pdfrwt>
<totfact> 0.38914134E-13</totfact>
</mgrwt>
</event>
<event>
 4    1  0.5011189E-019  0.1491333E+02  0.7818608E-02  0.1870725E+00
          2   -1    0    0  501    0  0.00000000000E+00  0.00000000000E+00  0.11974188636E+03  0.11974188639E+03  0.25500000000E-02 0.  1.
         -2   -1    0    0    0  501 -0.00000000000E+00 -0.00000000000E+00 -0.46434418053E+00  0.46435118229E+00  0.25500000000E-02 0. -1.
         31    1    1    2    0    0  0.17190780463E+00 -0.22955635008E+00  0.61624558101E+02  0.62073563903E+02  0.74470750000E+01 0.  1.
        -31    1    1    2    0    0 -0.17190780463E+00  0.22955635008E+00  0.57652984080E+02  0.58132673668E+02  0.74470750000E+01 0. -1.
<mgrwt>
<rscale>  0 0.14913332E+02</rscale>
<asrwt>0</asrwt>
<pdfrwt beam="1">  1        2 0.99394928E+00 0.14913332E+02</pdfrwt>
<pdfrwt beam="2">  1       -2 0.98625577E+00 0.14913332E+02</pdfrwt>
<totfact> 0.35914251E-13</totfact>
</mgrwt>
</event>
<event>
 4    1 -0.5011189E-019  0.1498495E+02  0.7818608E-02  0.1868528E+00
          2   -1    0    0  501    0  0.00000000000E+00  0.00000000000E+00  0.11990729158E+03  0.11990729161E+03  0.25500000000E-02 0. -1.
         -2   -1    0    0    0  501 -0.00000000000E+00 -0.00000000000E+00 -0.46816797030E+00  0.46817491488E+00  0.25500000000E-02 0.  1.
         31    1    1    2    0    0  0.78174563876E+00  0.24258373888E-01  0.61791603765E+02  0.62243657802E+02  0.74470750000E+01 0. -1.
        -31    1    1    2    0    0 -0.78174563876E+00 -0.24258373888E-01  0.57647519843E+02  0.58131808718E+02  0.74470750000E+01 0.  1.
<mgrwt>
<rscale>  0 0.14984949E+02</rscale>
<asrwt>0</asrwt>
<pdfrwt beam="1">  1        2 0.99534858E+00 0.14984949E+02</pdfrwt>
<pdfrwt beam="2">  1       -2 0.99435099E+00 0.14984949E+02</pdfrwt>
<totfact>-0.11435739E-13</totfact>
</mgrwt>
</event>
<event>
 4    1 -0.5011189E-019  0.1501900E+02  0.7818608E-02  0.1867489E+00
         -2   -1    0    0    0  501 -0.00000000000E+00  0.00000000000E+00  0.12004423633E+03  0.12004423636E+03  0.25500000000E-02 0.  1.
          2   -1    0    0  501    0  0.00000000000E+00 -0.00000000000E+00 -0.46976169526E+00  0.46976861627E+00  0.25500000000E-02 0. -1.
         31    1    1    2    0    0  0.49720899236E+00  0.75774165759E+00  0.62476058551E+02  0.62924861599E+02  0.74470750000E+01 0. -1.
        -31    1    1    2    0    0 -0.49720899236E+00 -0.75774165759E+00  0.57098416087E+02  0.57589143377E+02  0.74470750000E+01 0. -1.
<mgrwt>
<rscale>  0 0.15019002E+02</rscale>
<asrwt>0</asrwt>
<pdfrwt beam="2">  1        2 0.99772712E+00 0.15019002E+02</pdfrwt>
<pdfrwt beam="1">  1       -2 0.99649411E+00 0.15019002E+02</pdfrwt>
<totfact>-0.63547670E-14</totfact>
</mgrwt>
</event>
<event>
 4    1  0.5011189E-019  0.1490008E+02  0.7818608E-02  0.1871133E+00
          2   -1    0    0  501    0  0.00000000000E+00  0.00000000000E+00  0.12005476115E+03  0.12005476118E+03  0.25500000000E-02 0.  1.
         -2   -1    0    0    0  501 -0.00000000000E+00 -0.00000000000E+00 -0.46231112843E+00  0.46231816098E+00  0.25500000000E-02 0. -1.
         31    1    1    2    0    0 -0.57987370956E-01  0.65343954699E-01  0.58250543575E+02  0.58724716988E+02  0.74470750000E+01 0. -1.
        -31    1    1    2    0    0  0.57987370956E-01 -0.65343954699E-01  0.61341906448E+02  0.61792362353E+02  0.74470750000E+01 0.  1.
<mgrwt>
<rscale>  0 0.14900078E+02</rscale>
<asrwt>0</asrwt>
<pdfrwt beam="1">  1        2 0.99651953E+00 0.14900078E+02</pdfrwt>
<pdfrwt beam="2">  1       -2 0.98196413E+00 0.14900078E+02</pdfrwt>
<totfact> 0.80387286E-13</totfact>
</mgrwt>
</event>
<event>
 4    1 -0.5011189E-019  0.1495390E+02  0.7818608E-02  0.1869479E+00
          2   -1    0    0  501    0  0.00000000000E+00  0.00000000000E+00  0.11887554547E+03  0.11887554550E+03  0.25500000000E-02 0. -1.
         -2   -1    0    0    0  501 -0.00000000000E+00 -0.00000000000E+00 -0.47027634292E+00  0.47028325636E+00  0.25500000000E-02 0.  1.
         31    1    1    2    0    0  0.56335712445E+00  0.27720800396E+00  0.57389202559E+02  0.57873773956E+02  0.74470750000E+01 0.  1.
        -31    1    1    2    0    0 -0.56335712445E+00 -0.27720800396E+00  0.61016066570E+02  0.61472054800E+02  0.74470750000E+01 0. -1.
<mgrwt>
<rscale>  0 0.14953899E+02</rscale>
<asrwt>0</asrwt>
<pdfrwt beam="1">  1        2 0.98683481E+00 0.14953899E+02</pdfrwt>
<pdfrwt beam="2">  1       -2 0.99877758E+00 0.14953899E+02</pdfrwt>
<totfact>-0.10204677E-13</totfact>
</mgrwt>
</event>
<event>
 4    1 -0.5011189E-019  0.1492482E+02  0.7818608E-02  0.1870371E+00
          2   -1    0    0  501    0  0.00000000000E+00  0.00000000000E+00  0.11883507498E+03  0.11883507501E+03  0.25500000000E-02 0. -1.
         -2   -1    0    0    0  501 -0.00000000000E+00 -0.00000000000E+00 -0.46860860905E+00  0.46861554709E+00  0.25500000000E-02 0.  1.
         31    1    1    2    0    0 -0.87607988689E-01 -0.33033190682E+00  0.61856438643E+02  0.62304050607E+02  0.74470750000E+01 0. -1.
        -31    1    1    2    0    0  0.87607988689E-01  0.33033190682E+00  0.56510027731E+02  0.56999639951E+02  0.74470750000E+01 0.  1.
<mgrwt>
<rscale>  0 0.14924819E+02</rscale>
<asrwt>0</asrwt>
<pdfrwt beam="1">  1        2 0.98648639E+00 0.14924819E+02</pdfrwt>
<pdfrwt beam="2">  1       -2 0.99524826E+00 0.14924819E+02</pdfrwt>
<totfact>-0.27316796E-13</totfact>
</mgrwt>
</event>
<event>
 4    1 -0.5011189E-019  0.1494254E+02  0.7818608E-02  0.1869827E+00
          2   -1    0    0  501    0  0.00000000000E+00  0.00000000000E+00  0.11940050287E+03  0.11940050290E+03  0.25500000000E-02 0.  1.
         -2   -1    0    0    0  501 -0.00000000000E+00 -0.00000000000E+00 -0.46749798225E+00  0.46750493677E+00  0.25500000000E-02 0. -1.
         31    1    1    2    0    0  0.20566514396E+00 -0.54542645248E+00  0.58298536464E+02  0.58775148388E+02  0.74470750000E+01 0. -1.
        -31    1    1    2    0    0 -0.20566514396E+00  0.54542645248E+00  0.60634468425E+02  0.61092859447E+02  0.74470750000E+01 0. -1.
<mgrwt>
<rscale>  0 0.14942545E+02</rscale>
<asrwt>0</asrwt>
<pdfrwt beam="1">  1        2 0.99115256E+00 0.14942545E+02</pdfrwt>
<pdfrwt beam="2">  1       -2 0.99291717E+00 0.14942545E+02</pdfrwt>
<totfact>-0.13794564E-13</totfact>
</mgrwt>
</event>
<event>
 4    1 -0.5011189E-019  0.1497130E+02  0.7818608E-02  0.1868945E+00
         -2   -1    0    0    0  501 -0.00000000000E+00  0.00000000000E+00  0.12034631061E+03  0.12034631063E+03  0.25500000000E-02 0. -1.
          2   -1    0    0  501    0  0.00000000000E+00 -0.00000000000E+00 -0.46561084356E+00  0.46561782627E+00  0.25500000000E-02 0.  1.
         31    1    1    2    0    0  0.40037610260E+00 -0.23871917719E+00  0.55106977454E+02  0.55609847852E+02  0.74470750000E+01 0.  1.
        -31    1    1    2    0    0 -0.40037610260E+00  0.23871917719E+00  0.64773722308E+02  0.65202080608E+02  0.74470750000E+01 0. -1.
<mgrwt>
<rscale>  0 0.14971302E+02</rscale>
<asrwt>0</asrwt>
<pdfrwt beam="2">  1        2 0.98895491E+00 0.14971302E+02</pdfrwt>
<pdfrwt beam="1">  1       -2 0.99895755E+00 0.14971302E+02</pdfrwt>
<totfact>-0.67222836E-14</totfact>
</mgrwt>
</event>
<event>
 4    1 -0.5011189E-019  0.1495610E+02  0.7818608E-02  0.1869411E+00
          2   -1    0    0  501    0  0.00000000000E+00  0.00000000000E+00  0.11958597622E+03  0.11958597624E+03  0.25500000000E-02 0.  1.
         -2   -1    0    0    0  501 -0.00000000000E+00 -0.00000000000E+00 -0.46761999906E+00  0.46762695177E+00  0.25500000000E-02 0. -1.
         31    1    1    2    0    0  0.60041976367E-01  0.64874957288E+00  0.57998414727E+02  0.58478196945E+02  0.74470750000E+01 0.  1.
        -31    1    1    2    0    0 -0.60041976367E-01 -0.64874957288E+00  0.61119941489E+02  0.61575406249E+02  0.74470750000E+01 0. -1.
<mgrwt>
<rscale>  0 0.14956097E+02</rscale>
<asrwt>0</asrwt>
<pdfrwt beam="1">  1        2 0.99268719E+00 0.14956097E+02</pdfrwt>
<pdfrwt beam="2">  1       -2 0.99318132E+00 0.14956097E+02</pdfrwt>
<totfact>-0.12887834E-13</totfact>
</mgrwt>
</event>
<event>
 4    1 -0.5011189E-019  0.1496879E+02  0.7818608E-02  0.1869022E+00
         -2   -1    0    0    0  501 -0.00000000000E+00  0.00000000000E+00  0.11968023575E+03  0.11968023578E+03  0.25500000000E-02 0.  1.
          2   -1    0    0  501    0  0.00000000000E+00 -0.00000000000E+00 -0.46804524779E+00  0.46805219418E+00  0.25500000000E-02 0. -1.
         31    1    1    2    0    0 -0.21947195821E-01  0.68995980520E+00  0.57325467591E+02  0.57811285116E+02  0.74470750000E+01 0. -1.
        -31    1    1    2    0    0  0.21947195821E-01 -0.68995980520E+00  0.61886722915E+02  0.62337002858E+02  0.74470750000E+01 0.  1.
<mgrwt>
<rscale>  0 0.14968792E+02</rscale>
<asrwt>0</asrwt>
<pdfrwt beam="2">  1        2 0.99408402E+00 0.14968792E+02</pdfrwt>
<pdfrwt beam="1">  1       -2 0.99347011E+00 0.14968792E+02</pdfrwt>
<totfact>-0.12080803E-13</totfact>
</mgrwt>
</event>
<event>
 4    1 -0.5011189E-019  0.1489788E+02  0.7818608E-02  0.1871201E+00
          2   -1    0    0  501    0  0.00000000000E+00  0.00000000000E+00  0.11810180131E+03  0.11810180134E+03  0.25500000000E-02 0.  1.
         -2   -1    0    0    0  501 -0.00000000000E+00 -0.00000000000E+00 -0.46981778503E+00  0.46982470522E+00  0.25500000000E-02 0. -1.
         31    1    1    2    0    0 -0.14372721183E+00  0.81330214691E-01  0.59001014921E+02  0.59469369930E+02  0.74470750000E+01 0. -1.
        -31    1    1    2    0    0  0.14372721183E+00 -0.81330214691E-01  0.58630968605E+02  0.59102256114E+02  0.74470750000E+01 0. -1.
<mgrwt>
<rscale>  0 0.14897884E+02</rscale>
<asrwt>0</asrwt>
<pdfrwt beam="1">  1        2 0.98043316E+00 0.14897884E+02</pdfrwt>
<pdfrwt beam="2">  1       -2 0.99778181E+00 0.14897884E+02</pdfrwt>
<totfact>-0.48066222E-13</totfact>
</mgrwt>
</event>
<event>
 4    1  0.5011189E-019  0.1492647E+02  0.7818608E-02  0.1870321E+00
          2   -1    0    0  501    0  0.00000000000E+00  0.00000000000E+00  0.12022289929E+03  0.12022289932E+03  0.25500000000E-02 0. -1.
         -2   -1    0    0    0  501 -0.00000000000E+00 -0.00000000000E+00 -0.46330135944E+00  0.46330837695E+00  0.25500000000E-02 0.  1.
         31    1    1    2    0    0 -0.25588475942E+00 -0.30390496764E+00  0.57549069337E+02  0.58030269195E+02  0.74470750000E+01 0.  1.
        -31    1    1    2    0    0  0.25588475942E+00  0.30390496764E+00  0.62210528596E+02  0.62655938501E+02  0.74470750000E+01 0. -1.
<mgrwt>
<rscale>  0 0.14926467E+02</rscale>
<asrwt>0</asrwt>
<pdfrwt beam="1">  1        2 0.99791801E+00 0.14926467E+02</pdfrwt>
<pdfrwt beam="2">  1       -2 0.98406459E+00 0.14926467E+02</pdfrwt>
<totfact> 0.35190934E-13</totfact>
</mgrwt>
</event>
<event>
 4    1  0.5011189E-019  0.1490784E+02  0.7818608E-02  0.1870894E+00
          2   -1    0    0  501    0  0.00000000000E+00  0.00000000000E+00  0.11944039250E+03  0.11944039253E+03  0.25500000000E-02 0.  1.
         -2   -1    0    0    0  501 -0.00000000000E+00 -0.00000000000E+00 -0.46517323574E+00  0.46518022502E+00  0.25500000000E-02 0. -1.
         31    1    1    2    0    0 -0.58179652374E-01  0.15627464665E+00  0.57297252343E+02  0.57779424182E+02  0.74470750000E+01 0. -1.
        -31    1    1    2    0    0  0.58179652374E-01 -0.15627464665E+00  0.61677966925E+02  0.62126148574E+02  0.74470750000E+01 0.  1.
<mgrwt>
<rscale>  0 0.14907836E+02</rscale>
<asrwt>0</asrwt>
<pdfrwt beam="1">  1        2 0.99146317E+00 0.14907836E+02</pdfrwt>
<pdfrwt beam="2">  1       -2 0.98800017E+00 0.14907836E+02</pdfrwt>
<totfact> 0.19985045E-13</totfact>
</mgrwt>
</event>
<event>
 4    1  0.5011189E-019  0.1491157E+02  0.7818608E-02  0.1870779E+00
          2   -1    0    0  501    0  0.00000000000E+00  0.00000000000E+00  0.12015279751E+03  0.12015279754E+03  0.25500000000E-02 0.  1.
         -2   -1    0    0    0  501 -0.00000000000E+00 -0.00000000000E+00 -0.46264690683E+00  0.46265393427E+00  0.25500000000E-02 0. -1.
         31    1    1    2    0    0 -0.10655397963E+00 -0.34332365836E+00  0.59647834221E+02  0.60111997789E+02  0.74470750000E+01 0.  1.
        -31    1    1    2    0    0  0.10655397963E+00  0.34332365836E+00  0.60042316382E+02  0.60503453682E+02  0.74470750000E+01 0. -1.
<mgrwt>
<rscale>  0 0.14911572E+02</rscale>
<asrwt>0</asrwt>
<pdfrwt beam="1">  1        2 0.99733294E+00 0.14911572E+02</pdfrwt>
<pdfrwt beam="2">  1       -2 0.98267766E+00 0.14911572E+02</pdfrwt>
<totfact> 0.58107331E-13</totfact>
</mgrwt>
</event>
<event>
 4    1 -0.5011189E-019  0.1500145E+02  0.7818608E-02  0.1868024E+00
         -2   -1    0    0    0  501 -0.00000000000E+00  0.00000000000E+00  0.11974224564E+03  0.11974224567E+03  0.25500000000E-02 0. -1.
          2   -1    0    0  501    0  0.00000000000E+00 -0.00000000000E+00 -0.46984635629E+00  0.46985327605E+00  0.25500000000E-02 0.  1.
         31    1    1    2    0    0  0.82593454940E+00  0.22434613837E+00  0.61747994885E+02  0.62201336782E+02  0.74470750000E+01 0. -1.
        -31    1    1    2    0    0 -0.82593454940E+00 -0.22434613837E+00  0.57524404404E+02  0.58010762166E+02  0.74470750000E+01 0.  1.
<mgrwt>
<rscale>  0 0.15001450E+02</rscale>
<asrwt>0</asrwt>
<pdfrwt beam="2">  1        2 0.99789641E+00 0.15001450E+02</pdfrwt>
<pdfrwt beam="1">  1       -2 0.99399774E+00 0.15001450E+02</pdfrwt>
<totfact>-0.66633614E-14</totfact>
</mgrwt>
</event>
<event>
 4    1  0.5011189E-019  0.1490456E+02  0.7818608E-02  0.1870995E+00
          2   -1    0    0  501    0  0.00000000000E+00  0.00000000000E+00  0.11986187442E+03  0.11986187445E+03  0.25500000000E-02 0. -1.
         -2   -1    0    0    0  501 -0.00000000000E+00 -0.00000000000E+00 -0.46333389779E+00  0.46334091481E+00  0.25500000000E-02 0.  1.
         31    1    1    2    0    0 -0.20474881511E+00  0.94727052786E-01  0.61017722941E+02  0.61470906405E+02  0.74470750000E+01 0. -1.
        -31    1    1    2    0    0  0.20474881511E+00 -0.94727052786E-01  0.58380817581E+02  0.58854308957E+02  0.74470750000E+01 0.  1.
<mgrwt>
<rscale>  0 0.14904562E+02</rscale>
<asrwt>0</asrwt>
<pdfrwt beam="1">  1        2 0.99493307E+00 0.14904562E+02</pdfrwt>
<pdfrwt beam="2">  1       -2 0.98412205E+00 0.14904562E+02</pdfrwt>
<totfact> 0.61643702E-13</totfact>
</mgrwt>
</event>
<event>
 4    1  0.5011189E-019  0.1492442E+02  0.7818608E-02  0.1870384E+00
         -2   -1    0    0    0  501 -0.00000000000E+00  0.00000000000E+00  0.11860411158E+03  0.11860411160E+03  0.25500000000E-02 0. -1.
          2   -1    0    0  501    0  0.00000000000E+00 -0.00000000000E+00 -0.46949615846E+00  0.46950308339E+00  0.25500000000E-02 0.  1.
         31    1    1    2    0    0 -0.21104479659E+00  0.88526973872E-01  0.55746074351E+02  0.56241764807E+02  0.74470750000E+01 0.  1.
        -31    1    1    2    0    0  0.21104479659E+00 -0.88526973872E-01  0.62388541066E+02  0.62831849880E+02  0.74470750000E+01 0. -1.
<mgrwt>
<rscale>  0 0.14924421E+02</rscale>
<asrwt>0</asrwt>
<pdfrwt beam="2">  1        2 0.99711818E+00 0.14924421E+02</pdfrwt>
<pdfrwt beam="1">  1       -2 0.98458396E+00 0.14924421E+02</pdfrwt>
<totfact> 0.39035925E-13</totfact>
</mgrwt>
</event>
<event>
 4    1 -0.5011189E-019  0.1501435E+02  0.7818608E-02  0.1867631E+00
          2   -1    0    0  501    0  0.00000000000E+00  0.00000000000E+00  0.11972224389E+03  0.11972224392E+03  0.25500000000E-02 0.  1.
         -2   -1    0    0    0  501 -0.00000000000E+00 -0.00000000000E+00 -0.47073329047E+00  0.47074019720E+00  0.25500000000E-02 0. -1.
         31    1    1    2    0    0  0.46186408772E+00 -0.55635563547E-01  0.53013226946E+02  0.53535759741E+02  0.74470750000E+01 0. -1.
        -31    1    1    2    0    0 -0.46186408772E+00  0.55635563547E-01  0.66238283653E+02  0.66657224373E+02  0.74470750000E+01 0.  1.
<mgrwt>
<rscale>  0 0.15014348E+02</rscale>
<asrwt>0</asrwt>
<pdfrwt beam="1">  1        2 0.99383969E+00 0.15014348E+02</pdfrwt>
<pdfrwt beam="2">  1       -2 0.99977210E+00 0.15014348E+02</pdfrwt>
<totfact>-0.10413972E-14</totfact>
</mgrwt>
</event>
<event>
 4    1  0.5011189E-019  0.1489915E+02  0.7818608E-02  0.1871162E+00
         -2   -1    0    0    0  501 -0.00000000000E+00  0.00000000000E+00  0.11869791304E+03  0.11869791307E+03  0.25500000000E-02 0. -1.
          2   -1    0    0  501    0  0.00000000000E+00 -0.00000000000E+00 -0.46753792020E+00  0.46754487413E+00  0.25500000000E-02 0.  1.
         31    1    1    2    0    0 -0.19056546475E+00 -0.36527336022E-02  0.58870391571E+02  0.59339853878E+02  0.74470750000E+01 0.  1.
        -31    1    1    2    0    0  0.19056546475E+00  0.36527336022E-02  0.59359983547E+02  0.59825604061E+02  0.74470750000E+01 0.  1.
<mgrwt>
<rscale>  0 0.14899153E+02</rscale>
<asrwt>0</asrwt>
<pdfrwt beam="2">  1        2 0.99297874E+00 0.14899153E+02</pdfrwt>
<pdfrwt beam="1">  1       -2 0.98534338E+00 0.14899153E+02</pdfrwt>
<totfact> 0.51895673E-13</totfact>
</mgrwt>
</event>
<event>
 4    1  0.5011189E-019  0.1491113E+02  0.7818608E-02  0.1870793E+00
         -2   -1    0    0    0  501 -0.00000000000E+00  0.00000000000E+00  0.11897468489E+03  0.11897468492E+03  0.25500000000E-02 0. -1.
          2   -1    0    0  501    0  0.00000000000E+00 -0.00000000000E+00 -0.46720019230E+00  0.46720715126E+00  0.25500000000E-02 0.  1.
         31    1    1    2    0    0 -0.16857387046E+00 -0.22030571486E+00  0.61036542501E+02  0.61489799140E+02  0.74470750000E+01 0. -1.
        -31    1    1    2    0    0  0.16857387046E+00  0.22030571486E+00  0.57470942195E+02  0.57952092926E+02  0.74470750000E+01 0. -1.
<mgrwt>
<rscale>  0 0.14911125E+02</rscale>
<asrwt>0</asrwt>
<pdfrwt beam="2">  1        2 0.99227333E+00 0.14911125E+02</pdfrwt>
<pdfrwt beam="1">  1       -2 0.98762913E+00 0.14911125E+02</pdfrwt>
<totfact> 0.22946147E-13</totfact>
</mgrwt>
</event>
<event>
 4    1  0.5011189E-019  0.1491600E+02  0.7818608E-02  0.1870643E+00
          2   -1    0    0  501    0  0.00000000000E+00  0.00000000000E+00  0.12007613117E+03  0.12007613119E+03  0.25500000000E-02 0. -1.
         -2   -1    0    0    0  501 -0.00000000000E+00 -0.00000000000E+00 -0.46321739436E+00  0.46322441315E+00  0.25500000000E-02 0.  1.
         31    1    1    2    0    0  0.11909660458E+00  0.56798047660E-01  0.56724545583E+02  0.57211453466E+02  0.74470750000E+01 0.  1.
        -31    1    1    2    0    0 -0.11909660458E+00 -0.56798047660E-01  0.62888368190E+02  0.63327902142E+02  0.74470750000E+01 0. -1.
<mgrwt>
<rscale>  0 0.14916002E+02</rscale>
<asrwt>0</asrwt>
<pdfrwt beam="1">  1        2 0.99670373E+00 0.14916002E+02</pdfrwt>
<pdfrwt beam="2">  1       -2 0.98388231E+00 0.14916002E+02</pdfrwt>
<totfact> 0.51027524E-13</totfact>
</mgrwt>
</event>
<event>
 4    1  0.5011189E-019  0.1493904E+02  0.7818608E-02  0.1869935E+00
          2   -1    0    0  501    0  0.00000000000E+00  0.00000000000E+00  0.12022396824E+03  0.12022396827E+03  0.25500000000E-02 0.  1.
         -2   -1    0    0    0  501 -0.00000000000E+00 -0.00000000000E+00 -0.46407784211E+00  0.46408484788E+00  0.25500000000E-02 0. -1.
         31    1    1    2    0    0  0.10354120627E+00 -0.29269090471E+00  0.55935507505E+02  0.56429923929E+02  0.74470750000E+01 0. -1.
        -31    1    1    2    0    0 -0.10354120627E+00  0.29269090471E+00  0.63824382892E+02  0.64258129185E+02  0.74470750000E+01 0.  1.
<mgrwt>
<rscale>  0 0.14939037E+02</rscale>
<asrwt>0</asrwt>
<pdfrwt beam="1">  1        2 0.99793326E+00 0.14939037E+02</pdfrwt>
<pdfrwt beam="2">  1       -2 0.98570752E+00 0.14939037E+02</pdfrwt>
<totfact> 0.22102840E-13</totfact>
</mgrwt>
</event>
<event>
 4    1 -0.5011189E-019  0.1492029E+02  0.7818608E-02  0.1870511E+00
          2   -1    0    0  501    0  0.00000000000E+00  0.00000000000E+00  0.11882928794E+03  0.11882928797E+03  0.25500000000E-02 0. -1.
         -2   -1    0    0    0  501 -0.00000000000E+00 -0.00000000000E+00 -0.46834715201E+00  0.46835409393E+00  0.25500000000E-02 0.  1.
         31    1    1    2    0    0  0.44089068935E+00  0.21162712158E-01  0.59212227018E+02  0.59680328308E+02  0.74470750000E+01 0.  1.
        -31    1    1    2    0    0 -0.44089068935E+00 -0.21162712158E-01  0.59148713768E+02  0.59617313751E+02  0.74470750000E+01 0.  1.
<mgrwt>
<rscale>  0 0.14920291E+02</rscale>
<asrwt>0</asrwt>
<pdfrwt beam="1">  1        2 0.98643637E+00 0.14920291E+02</pdfrwt>
<pdfrwt beam="2">  1       -2 0.99469497E+00 0.14920291E+02</pdfrwt>
<totfact>-0.27810484E-13</totfact>
</mgrwt>
</event>
<event>
 4    1  0.5011189E-019  0.1490261E+02  0.7818608E-02  0.1871055E+00
          2   -1    0    0  501    0  0.00000000000E+00  0.00000000000E+00  0.12020541421E+03  0.12020541423E+03  0.25500000000E-02 0. -1.
         -2   -1    0    0    0  501 -0.00000000000E+00 -0.00000000000E+00 -0.46188881714E+00  0.46189585612E+00  0.25500000000E-02 0.  1.
         31    1    1    2    0    0 -0.46787279247E-01  0.14344199939E-02  0.57874467243E+02  0.58351650156E+02  0.74470750000E+01 0.  1.
        -31    1    1    2    0    0  0.46787279247E-01 -0.14344199939E-02  0.61869058146E+02  0.62315659934E+02  0.74470750000E+01 0. -1.
<mgrwt>
<rscale>  0 0.14902612E+02</rscale>
<asrwt>0</asrwt>
<pdfrwt beam="1">  1        2 0.99776175E+00 0.14902612E+02</pdfrwt>
<pdfrwt beam="2">  1       -2 0.98107529E+00 0.14902612E+02</pdfrwt>
<totfact> 0.70106051E-13</totfact>
</mgrwt>
</event>
<event>
 4    1 -0.5011189E-019  0.1498543E+02  0.7818608E-02  0.1868513E+00
          2   -1    0    0  501    0  0.00000000000E+00  0.00000000000E+00  0.11993292898E+03  0.11993292900E+03  0.25500000000E-02 0. -1.
         -2   -1    0    0    0  501 -0.00000000000E+00 -0.00000000000E+00 -0.46809802916E+00  0.46810497477E+00  0.25500000000E-02 0.  1.
         31    1    1    2    0    0 -0.74872210689E+00  0.34501465878E+00  0.59352025871E+02  0.59823085184E+02  0.74470750000E+01 0. -1.
        -31    1    1    2    0    0  0.74872210689E+00 -0.34501465878E+00  0.60112805076E+02  0.60577948794E+02  0.74470750000E+01 0.  1.
<mgrwt>
<rscale>  0 0.14985431E+02</rscale>
<asrwt>0</asrwt>
<pdfrwt beam="1">  1        2 0.99555999E+00 0.14985431E+02</pdfrwt>
<pdfrwt beam="2">  1       -2 0.99420385E+00 0.14985431E+02</pdfrwt>
<totfact>-0.11083743E-13</totfact>
</mgrwt>
</event>
<event>
 4    1 -0.5011189E-019  0.1497250E+02  0.7818608E-02  0.1868909E+00
          2   -1    0    0  501    0  0.00000000000E+00  0.00000000000E+00  0.11962337092E+03  0.11962337095E+03  0.25500000000E-02 0.  1.
         -2   -1    0    0    0  501 -0.00000000000E+00 -0.00000000000E+00 -0.46849959868E+00  0.46850653833E+00  0.25500000000E-02 0. -1.
         31    1    1    2    0    0 -0.56464602296E+00  0.10383207193E+00  0.63630831786E+02  0.64067708607E+02  0.74470750000E+01 0.  1.
        -31    1    1    2    0    0  0.56464602296E+00 -0.10383207193E+00  0.55524039537E+02  0.56024168881E+02  0.74470750000E+01 0. -1.
<mgrwt>
<rscale>  0 0.14972497E+02</rscale>
<asrwt>0</asrwt>
<pdfrwt beam="1">  1        2 0.99300367E+00 0.14972497E+02</pdfrwt>
<pdfrwt beam="2">  1       -2 0.99504340E+00 0.14972497E+02</pdfrwt>
<totfact>-0.14065878E-13</totfact>
</mgrwt>
</event>
<event>
 4    1 -0.5011189E-019  0.1492414E+02  0.7818608E-02  0.1870392E+00
          2   -1    0    0  501    0  0.00000000000E+00  0.00000000000E+00  0.11904980613E+03  0.11904980616E+03  0.25500000000E-02 0. -1.
         -2   -1    0    0    0  501 -0.00000000000E+00 -0.00000000000E+00 -0.46772054862E+00  0.46772749983E+00  0.25500000000E-02 0.  1.
         31    1    1    2    0    0 -0.34122207972E+00 -0.24180165601E+00  0.57525007797E+02  0.58006554360E+02  0.74470750000E+01 0.  1.
        -31    1    1    2    0    0  0.34122207972E+00  0.24180165601E+00  0.61057077788E+02  0.61510979302E+02  0.74470750000E+01 0. -1.
<mgrwt>
<rscale>  0 0.14924136E+02</rscale>
<asrwt>0</asrwt>
<pdfrwt beam="1">  1        2 0.98825459E+00 0.14924136E+02</pdfrwt>
<pdfrwt beam="2">  1       -2 0.99337661E+00 0.14924136E+02</pdfrwt>
<totfact>-0.19900382E-13</totfact>
</mgrwt>
</event>
<event>
 4    1  0.5011189E-019  0.1491576E+02  0.7818608E-02  0.1870650E+00
         -2   -1    0    0    0  501 -0.00000000000E+00  0.00000000000E+00  0.11858946119E+03  0.11858946121E+03  0.25500000000E-02 0. -1.
          2   -1    0    0  501    0  0.00000000000E+00 -0.00000000000E+00 -0.46900950047E+00  0.46901643259E+00  0.25500000000E-02 0.  1.
         31    1    1    2    0    0 -0.23779283280E+00  0.17185773671E-01  0.61637224252E+02  0.62085933836E+02  0.74470750000E+01 0. -1.
        -31    1    1    2    0    0  0.23779283280E+00 -0.17185773671E-01  0.56483227434E+02  0.56972543810E+02  0.74470750000E+01 0.  1.
<mgrwt>
<rscale>  0 0.14915763E+02</rscale>
<asrwt>0</asrwt>
<pdfrwt beam="2">  1        2 0.99608822E+00 0.14915763E+02</pdfrwt>
<pdfrwt beam="1">  1       -2 0.98445879E+00 0.14915763E+02</pdfrwt>
<totfact> 0.49051124E-13</totfact>
</mgrwt>
</event>
<event>
 4    1  0.5011189E-019  0.1491528E+02  0.7818608E-02  0.1870665E+00
         -2   -1    0    0    0  501 -0.00000000000E+00  0.00000000000E+00  0.11846740478E+03  0.11846740481E+03  0.25500000000E-02 0. -1.
          2   -1    0    0  501    0  0.00000000000E+00 -0.00000000000E+00 -0.46946210389E+00  0.46946902931E+00  0.25500000000E-02 0.  1.
         31    1    1    2    0    0  0.15608616203E+00 -0.36098778491E+00  0.58579327081E+02  0.59052105487E+02  0.74470750000E+01 0. -1.
        -31    1    1    2    0    0 -0.15608616203E+00  0.36098778491E+00  0.59418615598E+02  0.59884768353E+02  0.74470750000E+01 0.  1.
<mgrwt>
<rscale>  0 0.14915277E+02</rscale>
<asrwt>0</asrwt>
<pdfrwt beam="2">  1        2 0.99704161E+00 0.14915277E+02</pdfrwt>
<pdfrwt beam="1">  1       -2 0.98345329E+00 0.14915277E+02</pdfrwt>
<totfact> 0.52583296E-13</totfact>
</mgrwt>
</event>
<event>
 4    1  0.5011189E-019  0.1491053E+02  0.7818608E-02  0.1870811E+00
         -2   -1    0    0    0  501 -0.00000000000E+00  0.00000000000E+00  0.11841262452E+03  0.11841262454E+03  0.25500000000E-02 0. -1.
          2   -1    0    0  501    0  0.00000000000E+00 -0.00000000000E+00 -0.46938044785E+00  0.46938737448E+00  0.25500000000E-02 0.  1.
         31    1    1    2    0    0 -0.22858625788E+00  0.26213633513E+00  0.59234960422E+02  0.59702264859E+02  0.74470750000E+01 0. -1.
        -31    1    1    2    0    0  0.22858625788E+00 -0.26213633513E+00  0.58708283647E+02  0.59179747059E+02  0.74470750000E+01 0. -1.
<mgrwt>
<rscale>  0 0.14910531E+02</rscale>
<asrwt>0</asrwt>
<pdfrwt beam="2">  1        2 0.99686705E+00 0.14910531E+02</pdfrwt>
<pdfrwt beam="1">  1       -2 0.98299965E+00 0.14910531E+02</pdfrwt>
<totfact> 0.60521758E-13</totfact>
</mgrwt>
</event>
<event>
 4    1  0.5011189E-019  0.1490745E+02  0.7818608E-02  0.1870906E+00
          2   -1    0    0  501    0  0.00000000000E+00  0.00000000000E+00  0.12027098079E+03  0.12027098082E+03  0.25500000000E-02 0. -1.
         -2   -1    0    0    0  501 -0.00000000000E+00 -0.00000000000E+00 -0.46193674180E+00  0.46194378005E+00  0.25500000000E-02 0.  1.
         31    1    1    2    0    0 -0.30741544431E+00 -0.17232080633E-02  0.59356534109E+02  0.59822667733E+02  0.74470750000E+01 0. -1.
        -31    1    1    2    0    0  0.30741544431E+00  0.17232080633E-02  0.60452509941E+02  0.60910256865E+02  0.74470750000E+01 0. -1.
<mgrwt>
<rscale>  0 0.14907449E+02</rscale>
<asrwt>0</asrwt>
<pdfrwt beam="1">  1        2 0.99830429E+00 0.14907449E+02</pdfrwt>
<pdfrwt beam="2">  1       -2 0.98117874E+00 0.14907449E+02</pdfrwt>
<totfact> 0.55332416E-13</totfact>
</mgrwt>
</event>
<event>
 4    1  0.5011189E-019  0.1490809E+02  0.7818608E-02  0.1870886E+00
         -2   -1    0    0    0  501 -0.00000000000E+00  0.00000000000E+00  0.11872586691E+03  0.11872586694E+03  0.25500000000E-02 0. -1.
          2   -1    0    0  501    0  0.00000000000E+00 -0.00000000000E+00 -0.46798861757E+00  0.46799556480E+00  0.25500000000E-02 0.  1.
         31    1    1    2    0    0 -0.25655221230E+00  0.13756140644E+00  0.58023923043E+02  0.58500592420E+02  0.74470750000E+01 0.  1.
        -31    1    1    2    0    0  0.25655221230E+00 -0.13756140644E+00  0.60233955249E+02  0.60693270082E+02  0.74470750000E+01 0. -1.
<mgrwt>
<rscale>  0 0.14908088E+02</rscale>
<asrwt>0</asrwt>
<pdfrwt beam="2">  1        2 0.99393310E+00 0.14908088E+02</pdfrwt>
<pdfrwt beam="1">  1       -2 0.98557825E+00 0.14908088E+02</pdfrwt>
<totfact> 0.44973765E-13</totfact>
</mgrwt>
</event>
<event>
 4    1 -0.5011189E-019  0.1489924E+02  0.7818608E-02  0.1871159E+00
          2   -1    0    0  501    0  0.00000000000E+00  0.00000000000E+00  0.11844465856E+03  0.11844465858E+03  0.25500000000E-02 0. -1.
         -2   -1    0    0    0  501 -0.00000000000E+00 -0.00000000000E+00 -0.46854300479E+00  0.46854994381E+00  0.25500000000E-02 0.  1.
         31    1    1    2    0    0  0.17099479964E+00  0.89597977927E-01  0.58786567278E+02  0.59256701607E+02  0.74470750000E+01 0.  1.
        -31    1    1    2    0    0 -0.17099479964E+00 -0.89597977927E-01  0.59189548273E+02  0.59656506919E+02  0.74470750000E+01 0.  1.
<mgrwt>
<rscale>  0 0.14899239E+02</rscale>
<asrwt>0</asrwt>
<pdfrwt beam="1">  1        2 0.98325761E+00 0.14899239E+02</pdfrwt>
<pdfrwt beam="2">  1       -2 0.99509659E+00 0.14899239E+02</pdfrwt>
<totfact>-0.46249299E-13</totfact>
</mgrwt>
</event>
<event>
 4    1 -0.5011189E-019  0.1499082E+02  0.7818608E-02  0.1868349E+00
         -2   -1    0    0    0  501 -0.00000000000E+00  0.00000000000E+00  0.12015864557E+03  0.12015864559E+03  0.25500000000E-02 0.  1.
          2   -1    0    0  501    0  0.00000000000E+00 -0.00000000000E+00 -0.46755463373E+00  0.46756158741E+00  0.25500000000E-02 0. -1.
         31    1    1    2    0    0  0.62521087028E+00  0.47050088679E+00  0.57177169013E+02  0.57665412876E+02  0.74470750000E+01 0.  1.
        -31    1    1    2    0    0 -0.62521087028E+00 -0.47050088679E+00  0.62513921921E+02  0.62960794306E+02  0.74470750000E+01 0.  1.
<mgrwt>
<rscale>  0 0.14990818E+02</rscale>
<asrwt>0</asrwt>
<pdfrwt beam="2">  1        2 0.99306146E+00 0.14990818E+02</pdfrwt>
<pdfrwt beam="1">  1       -2 0.99742188E+00 0.14990818E+02</pdfrwt>
<totfact>-0.10125709E-13</totfact>
</mgrwt>
</event>
<event>
 4    1 -0.5011189E-019  0.1499348E+02  0.7818608E-02  0.1868268E+00
         -2   -1    0    0    0  501 -0.00000000000E+00  0.00000000000E+00  0.12000679002E+03  0.12000679005E+03  0.25500000000E-02 0.  1.
          2   -1    0    0  501    0  0.00000000000E+00 -0.00000000000E+00 -0.46831247255E+00  0.46831941498E+00  0.25500000000E-02 0. -1.
         31    1    1    2    0    0 -0.20105211616E+00  0.49603369259E+00  0.65193417052E+02  0.65619562817E+02  0.74470750000E+01 0.  1.
        -31    1    1    2    0    0  0.20105211616E+00 -0.49603369259E+00  0.54345060499E+02  0.54855546648E+02  0.74470750000E+01 0. -1.
<mgrwt>
<rscale>  0 0.14993478E+02</rscale>
<asrwt>0</asrwt>
<pdfrwt beam="2">  1        2 0.99465991E+00 0.14993478E+02</pdfrwt>
<pdfrwt beam="1">  1       -2 0.99617250E+00 0.14993478E+02</pdfrwt>
<totfact>-0.11348616E-13</totfact>
</mgrwt>
</event>
<event>
 4    1 -0.5011189E-019  0.1500530E+02  0.7818608E-02  0.1867907E+00
          2   -1    0    0  501    0  0.00000000000E+00  0.00000000000E+00  0.12017917498E+03  0.12017917500E+03  0.25500000000E-02 0.  1.
         -2   -1    0    0    0  501 -0.00000000000E+00 -0.00000000000E+00 -0.46837817668E+00  0.46838511814E+00  0.25500000000E-02 0. -1.
         31    1    1    2    0    0  0.10639084527E+00 -0.84745270047E+00  0.62414474213E+02  0.62862986029E+02  0.74470750000E+01 0. -1.
        -31    1    1    2    0    0 -0.10639084527E+00  0.84745270047E+00  0.57296322587E+02  0.57784574093E+02  0.74470750000E+01 0. -1.
<mgrwt>
<rscale>  0 0.15005295E+02</rscale>
<asrwt>0</asrwt>
<pdfrwt beam="1">  1        2 0.99759844E+00 0.15005295E+02</pdfrwt>
<pdfrwt beam="2">  1       -2 0.99480447E+00 0.15005295E+02</pdfrwt>
<totfact>-0.75429661E-14</totfact>
</mgrwt>
</event>
<event>
 4    1  0.5011189E-019  0.1490918E+02  0.7818608E-02  0.1870853E+00
         -2   -1    0    0    0  501 -0.00000000000E+00  0.00000000000E+00  0.11859218925E+03  0.11859218928E+03  0.25500000000E-02 0. -1.
          2   -1    0    0  501    0  0.00000000000E+00 -0.00000000000E+00 -0.46858459201E+00  0.46859153040E+00  0.25500000000E-02 0.  1.
         31    1    1    2    0    0  0.32973895403E+00  0.43677246476E-01  0.59352570516E+02  0.59818869836E+02  0.74470750000E+01 0.  1.
        -31    1    1    2    0    0 -0.32973895403E+00 -0.43677246476E-01  0.58771034140E+02  0.59241910970E+02  0.74470750000E+01 0. -1.
<mgrwt>
<rscale>  0 0.14909177E+02</rscale>
<asrwt>0</asrwt>
<pdfrwt beam="2">  1        2 0.99518945E+00 0.14909177E+02</pdfrwt>
<pdfrwt beam="1">  1       -2 0.98447784E+00 0.14909177E+02</pdfrwt>
<totfact> 0.54773627E-13</totfact>
</mgrwt>
</event>
<event>
 4    1 -0.5011189E-019  0.1492953E+02  0.7818608E-02  0.1870226E+00
          2   -1    0    0  501    0  0.00000000000E+00  0.00000000000E+00  0.11883550816E+03  0.11883550819E+03  0.25500000000E-02 0.  1.
         -2   -1    0    0    0  501 -0.00000000000E+00 -0.00000000000E+00 -0.46890304622E+00  0.46890997990E+00  0.25500000000E-02 0. -1.
         31    1    1    2    0    0 -0.47520110420E+00 -0.19362746613E+00  0.59364347625E+02  0.59831831015E+02  0.74470750000E+01 0.  1.
        -31    1    1    2    0    0  0.47520110420E+00  0.19362746613E+00  0.59002257494E+02  0.59472587157E+02  0.74470750000E+01 0.  1.
<mgrwt>
<rscale>  0 0.14929534E+02</rscale>
<asrwt>0</asrwt>
<pdfrwt beam="1">  1        2 0.98649240E+00 0.14929534E+02</pdfrwt>
<pdfrwt beam="2">  1       -2 0.99587114E+00 0.14929534E+02</pdfrwt>
<totfact>-0.26154342E-13</totfact>
</mgrwt>
</event>
<event>
 4    1 -0.5011189E-019  0.1496046E+02  0.7818608E-02  0.1869278E+00
         -2   -1    0    0    0  501 -0.00000000000E+00  0.00000000000E+00  0.12018818726E+03  0.12018818728E+03  0.25500000000E-02 0. -1.
          2   -1    0    0  501    0  0.00000000000E+00 -0.00000000000E+00 -0.46554820720E+00  0.46555519085E+00  0.25500000000E-02 0.  1.
         31    1    1    2    0    0  0.39171600303E-01 -0.63856649447E-01  0.54220078904E+02  0.54729164935E+02  0.74470750000E+01 0.  1.
        -31    1    1    2    0    0 -0.39171600303E-01  0.63856649447E-01  0.65502560145E+02  0.65924577539E+02  0.74470750000E+01 0. -1.
<mgrwt>
<rscale>  0 0.14960457E+02</rscale>
<asrwt>0</asrwt>
<pdfrwt beam="2">  1        2 0.98881737E+00 0.14960457E+02</pdfrwt>
<pdfrwt beam="1">  1       -2 0.99764956E+00 0.14960457E+02</pdfrwt>
<totfact>-0.13630135E-13</totfact>
</mgrwt>
</event>
<event>
 4    1  0.5011189E-019  0.1493794E+02  0.7818608E-02  0.1869968E+00
          2   -1    0    0  501    0  0.00000000000E+00  0.00000000000E+00  0.12002775612E+03  0.12002775615E+03  0.25500000000E-02 0. -1.
         -2   -1    0    0    0  501 -0.00000000000E+00 -0.00000000000E+00 -0.46476834151E+00  0.46477533688E+00  0.25500000000E-02 0.  1.
         31    1    1    2    0    0 -0.46893786554E+00  0.12805850340E+00  0.62205338400E+02  0.62651411422E+02  0.74470750000E+01 0.  1.
        -31    1    1    2    0    0  0.46893786554E+00 -0.12805850340E+00  0.57357649383E+02  0.57841120066E+02  0.74470750000E+01 0.  1.
<mgrwt>
<rscale>  0 0.14937942E+02</rscale>
<asrwt>0</asrwt>
<pdfrwt beam="1">  1        2 0.99631655E+00 0.14937942E+02</pdfrwt>
<pdfrwt beam="2">  1       -2 0.98716227E+00 0.14937942E+02</pdfrwt>
<totfact> 0.19318159E-13</totfact>
</mgrwt>
</event>
<event>
 4    1 -0.5011189E-019  0.1492217E+02  0.7818608E-02  0.1870453E+00
         -2   -1    0    0    0  501 -0.00000000000E+00  0.00000000000E+00  0.12002267204E+03  0.12002267207E+03  0.25500000000E-02 0. -1.
          2   -1    0    0  501    0  0.00000000000E+00 -0.00000000000E+00 -0.46380693635E+00  0.46381394622E+00  0.25500000000E-02 0.  1.
         31    1    1    2    0    0  0.64463048835E-01  0.12623773450E+00  0.56271471399E+02  0.56762289514E+02  0.74470750000E+01 0.  1.
        -31    1    1    2    0    0 -0.64463048835E-01 -0.12623773450E+00  0.63287393703E+02  0.63724196498E+02  0.74470750000E+01 0. -1.
<mgrwt>
<rscale>  0 0.14922168E+02</rscale>
<asrwt>0</asrwt>
<pdfrwt beam="2">  1        2 0.98512799E+00 0.14922168E+02</pdfrwt>
<pdfrwt beam="1">  1       -2 0.99626657E+00 0.14922168E+02</pdfrwt>
<totfact>-0.30906459E-13</totfact>
</mgrwt>
</event>
<event>
 4    1  0.5011189E-019  0.1491728E+02  0.7818608E-02  0.1870603E+00
          2   -1    0    0  501    0  0.00000000000E+00  0.00000000000E+00  0.11979834551E+03  0.11979834554E+03  0.25500000000E-02 0.  1.
         -2   -1    0    0    0  501 -0.00000000000E+00 -0.00000000000E+00 -0.46437095484E+00  0.46437795620E+00  0.25500000000E-02 0. -1.
         31    1    1    2    0    0 -0.10346853447E+00 -0.19514141471E+00  0.62501121427E+02  0.62943608823E+02  0.74470750000E+01 0.  1.
        -31    1    1    2    0    0  0.10346853447E+00  0.19514141471E+00  0.56832853129E+02  0.57319114671E+02  0.74470750000E+01 0. -1.
<mgrwt>
<rscale>  0 0.14917278E+02</rscale>
<asrwt>0</asrwt>
<pdfrwt beam="1">  1        2 0.99441634E+00 0.14917278E+02</pdfrwt>
<pdfrwt beam="2">  1       -2 0.98631421E+00 0.14917278E+02</pdfrwt>
<totfact> 0.33826258E-13</totfact>
</mgrwt>
</event>
<event>
 4    1  0.5011189E-019  0.1490256E+02  0.7818608E-02  0.1871057E+00
          2   -1    0    0  501    0  0.00000000000E+00  0.00000000000E+00  0.12009123916E+03  0.12009123919E+03  0.25500000000E-02 0. -1.
         -2   -1    0    0    0  501 -0.00000000000E+00 -0.00000000000E+00 -0.46232459868E+00  0.46233163103E+00  0.25500000000E-02 0.  1.
         31    1    1    2    0    0 -0.15703328993E+00  0.16612013190E+00  0.60638552449E+02  0.61094559697E+02  0.74470750000E+01 0.  1.
        -31    1    1    2    0    0  0.15703328993E+00 -0.16612013190E+00  0.58990362112E+02  0.59459011121E+02  0.74470750000E+01 0. -1.
<mgrwt>
<rscale>  0 0.14902558E+02</rscale>
<asrwt>0</asrwt>
<pdfrwt beam="1">  1        2 0.99682127E+00 0.14902558E+02</pdfrwt>
<pdfrwt beam="2">  1       -2 0.98199377E+00 0.14902558E+02</pdfrwt>
<totfact> 0.75391180E-13</totfact>
</mgrwt>
</event>
<event>
 4    1  0.5011189E-019  0.1493810E+02  0.7818608E-02  0.1869963E+00
         -2   -1    0    0    0  501 -0.00000000000E+00  0.00000000000E+00  0.11865254978E+03  0.11865254981E+03  0.25500000000E-02 0. -1.
          2   -1    0    0  501    0  0.00000000000E+00 -0.00000000000E+00 -0.47016495547E+00  0.47017187055E+00  0.25500000000E-02 0.  1.
         31    1    1    2    0    0 -0.31537503595E+00  0.28742410961E+00  0.62134918469E+02  0.62581060179E+02  0.74470750000E+01 0. -1.
        -31    1    1    2    0    0  0.31537503595E+00 -0.28742410961E+00  0.56047466354E+02  0.56541661497E+02  0.74470750000E+01 0. -1.
<mgrwt>
<rscale>  0 0.14938097E+02</rscale>
<asrwt>0</asrwt>
<pdfrwt beam="2">  1        2 0.99853456E+00 0.14938097E+02</pdfrwt>
<pdfrwt beam="1">  1       -2 0.98499001E+00 0.14938097E+02</pdfrwt>
<totfact> 0.20759673E-13</totfact>
</mgrwt>
</event>
<event>
 4    1  0.5011189E-019  0.1493729E+02  0.7818608E-02  0.1869988E+00
         -2   -1    0    0    0  501 -0.00000000000E+00  0.00000000000E+00  0.11854001141E+03  0.11854001144E+03  0.25500000000E-02 0. -1.
          2   -1    0    0  501    0  0.00000000000E+00 -0.00000000000E+00 -0.47056048598E+00  0.47056739525E+00  0.25500000000E-02 0.  1.
         31    1    1    2    0    0  0.27818341771E-01 -0.49278180318E+00  0.56807793777E+02  0.57295968163E+02  0.74470750000E+01 0.  1.
        -31    1    1    2    0    0 -0.27818341771E-01  0.49278180318E+00  0.61261657145E+02  0.61714610669E+02  0.74470750000E+01 0. -1.
<mgrwt>
<rscale>  0 0.14937290E+02</rscale>
<asrwt>0</asrwt>
<pdfrwt beam="2">  1        2 0.99936750E+00 0.14937290E+02</pdfrwt>
<pdfrwt beam="1">  1       -2 0.98406273E+00 0.14937290E+02</pdfrwt>
<totfact> 0.12558571E-13</totfact>
</mgrwt>
</event>
<event>
 4    1 -0.5011189E-019  0.1499972E+02  0.7818608E-02  0.1868077E+00
          2   -1    0    0  501    0  0.00000000000E+00  0.00000000000E+00  0.12009384949E+03  0.12009384952E+03  0.25500000000E-02 0. -1.
         -2   -1    0    0    0  501 -0.00000000000E+00 -0.00000000000E+00 -0.46836279157E+00  0.46836973326E+00  0.25500000000E-02 0.  1.
         31    1    1    2    0    0  0.22001695185E+00 -0.96433116667E-03  0.52895820579E+02  0.53417929286E+02  0.74470750000E+01 0.  1.
        -31    1    1    2    0    0 -0.22001695185E+00  0.96433116667E-03  0.66729666118E+02  0.67144289963E+02  0.74470750000E+01 0. -1.
<mgrwt>
<rscale>  0 0.14999721E+02</rscale>
<asrwt>0</asrwt>
<pdfrwt beam="1">  1        2 0.99689278E+00 0.14999721E+02</pdfrwt>
<pdfrwt beam="2">  1       -2 0.99476917E+00 0.14999721E+02</pdfrwt>
<totfact>-0.90373021E-14</totfact>
</mgrwt>
</event>
<event>
 4    1  0.5011189E-019  0.1492582E+02  0.7818608E-02  0.1870341E+00
          2   -1    0    0  501    0  0.00000000000E+00  0.00000000000E+00  0.12028963750E+03  0.12028963753E+03  0.25500000000E-02 0. -1.
         -2   -1    0    0    0  501 -0.00000000000E+00 -0.00000000000E+00 -0.46300404848E+00  0.46301107051E+00  0.25500000000E-02 0.  1.
         31    1    1    2    0    0 -0.13987586192E+00  0.43439601572E+00  0.61262791262E+02  0.61715450127E+02  0.74470750000E+01 0. -1.
        -31    1    1    2    0    0  0.13987586192E+00 -0.43439601572E+00  0.58563842192E+02  0.59037198473E+02  0.74470750000E+01 0. -1.
<mgrwt>
<rscale>  0 0.14925819E+02</rscale>
<asrwt>0</asrwt>
<pdfrwt beam="1">  1        2 0.99846738E+00 0.14925819E+02</pdfrwt>
<pdfrwt beam="2">  1       -2 0.98343761E+00 0.14925819E+02</pdfrwt>
<totfact> 0.31986952E-13</totfact>
</mgrwt>
</event>
<event>
 4    1 -0.5011189E-019  0.1498354E+02  0.7818608E-02  0.1868571E+00
         -2   -1    0    0    0  501 -0.00000000000E+00  0.00000000000E+00  0.11974417159E+03  0.11974417162E+03  0.25500000000E-02 0.  1.
          2   -1    0    0  501    0  0.00000000000E+00 -0.00000000000E+00 -0.46871765198E+00  0.46872458841E+00  0.25500000000E-02 0. -1.
         31    1    1    2    0    0  0.10158939581E+00 -0.10358129970E-01  0.53133299390E+02  0.53652743246E+02  0.74470750000E+01 0. -1.
        -31    1    1    2    0    0 -0.10158939581E+00  0.10358129970E-01  0.66142154551E+02  0.66560152962E+02  0.74470750000E+01 0.  1.
<mgrwt>
<rscale>  0 0.14983541E+02</rscale>
<asrwt>0</asrwt>
<pdfrwt beam="2">  1        2 0.99550863E+00 0.14983541E+02</pdfrwt>
<pdfrwt beam="1">  1       -2 0.99400433E+00 0.14983541E+02</pdfrwt>
<totfact>-0.11028530E-13</totfact>
</mgrwt>
</event>
<event>
 4    1  0.5011189E-019  0.1489831E+02  0.7818608E-02  0.1871188E+00
         -2   -1    0    0    0  501 -0.00000000000E+00  0.00000000000E+00  0.11915572753E+03  0.11915572756E+03  0.25500000000E-02 0. -1.
          2   -1    0    0  501    0  0.00000000000E+00 -0.00000000000E+00 -0.46568864560E+00  0.46569562715E+00  0.25500000000E-02 0.  1.
         31    1    1    2    0    0 -0.11893660615E+00  0.83169984562E-01  0.60143888229E+02  0.60603360307E+02  0.74470750000E+01 0. -1.
        -31    1    1    2    0    0  0.11893660615E+00 -0.83169984562E-01  0.58546150653E+02  0.59018062875E+02  0.74470750000E+01 0.  1.
<mgrwt>
<rscale>  0 0.14898307E+02</rscale>
<asrwt>0</asrwt>
<pdfrwt beam="2">  1        2 0.98908142E+00 0.14898307E+02</pdfrwt>
<pdfrwt beam="1">  1       -2 0.98911362E+00 0.14898307E+02</pdfrwt>
<totfact> 0.10599267E-13</totfact>
</mgrwt>
</event>
<event>
 4    1 -0.5011189E-019  0.1493382E+02  0.7818608E-02  0.1870095E+00
         -2   -1    0    0    0  501 -0.00000000000E+00  0.00000000000E+00  0.11972925339E+03  0.11972925341E+03  0.25500000000E-02 0. -1.
          2   -1    0    0  501    0  0.00000000000E+00 -0.00000000000E+00 -0.46566986491E+00  0.46567684673E+00  0.25500000000E-02 0.  1.
         31    1    1    2    0    0  0.60997486487E-01  0.13749128049E-01  0.55283432415E+02  0.55782799637E+02  0.74470750000E+01 0.  1.
        -31    1    1    2    0    0 -0.60997486487E-01 -0.13749128049E-01  0.63980151107E+02  0.64412130624E+02  0.74470750000E+01 0. -1.
<mgrwt>
<rscale>  0 0.14933818E+02</rscale>
<asrwt>0</asrwt>
<pdfrwt beam="2">  1        2 0.98906013E+00 0.14933818E+02</pdfrwt>
<pdfrwt beam="1">  1       -2 0.99385578E+00 0.14933818E+02</pdfrwt>
<totfact>-0.19047640E-13</totfact>
</mgrwt>
</event>
<event>
 4    1 -0.5011189E-019  0.1490811E+02  0.7818608E-02  0.1870886E+00
          2   -1    0    0  501    0  0.00000000000E+00  0.00000000000E+00  0.11822940010E+03  0.11822940012E+03  0.25500000000E-02 0. -1.
         -2   -1    0    0    0  501 -0.00000000000E+00 -0.00000000000E+00 -0.46995530611E+00  0.46996222427E+00  0.25500000000E-02 0.  1.
         31    1    1    2    0    0 -0.27992510176E+00 -0.27383122428E-01  0.57623022317E+02  0.58102932240E+02  0.74470750000E+01 0.  1.
        -31    1    1    2    0    0  0.27992510176E+00  0.27383122428E-01  0.60136422474E+02  0.60596430108E+02  0.74470750000E+01 0. -1.
<mgrwt>
<rscale>  0 0.14908111E+02</rscale>
<asrwt>0</asrwt>
<pdfrwt beam="1">  1        2 0.98148938E+00 0.14908111E+02</pdfrwt>
<pdfrwt beam="2">  1       -2 0.99807697E+00 0.14908111E+02</pdfrwt>
<totfact>-0.35975619E-13</totfact>
</mgrwt>
</event>
<event>
 4    1  0.5011189E-019  0.1489979E+02  0.7818608E-02  0.1871142E+00
          2   -1    0    0  501    0  0.00000000000E+00  0.00000000000E+00  0.11971541640E+03  0.11971541643E+03  0.25500000000E-02 0.  1.
         -2   -1    0    0    0  501 -0.00000000000E+00 -0.00000000000E+00 -0.46360344834E+00  0.46361046129E+00  0.25500000000E-02 0. -1.
         31    1    1    2    0    0 -0.24084207019E-01  0.19961352074E+00  0.59308227933E+02  0.59774285877E+02  0.74470750000E+01 0.  1.
        -31    1    1    2    0    0  0.24084207019E-01 -0.19961352074E+00  0.59943585022E+02  0.60404741014E+02  0.74470750000E+01 0.  1.
<mgrwt>
<rscale>  0 0.14899786E+02</rscale>
<asrwt>0</asrwt>
<pdfrwt beam="1">  1        2 0.99372428E+00 0.14899786E+02</pdfrwt>
<pdfrwt beam="2">  1       -2 0.98468772E+00 0.14899786E+02</pdfrwt>
<totfact> 0.59143027E-13</totfact>
</mgrwt>
</event>
<event>
 4    1 -0.5011189E-019  0.1494764E+02  0.7818608E-02  0.1869671E+00
         -2   -1    0    0    0  501 -0.00000000000E+00  0.00000000000E+00  0.12031301519E+03  0.12031301522E+03  0.25500000000E-02 0. -1.
          2   -1    0    0  501    0  0.00000000000E+00 -0.00000000000E+00 -0.46426835777E+00  0.46427536067E+00  0.25500000000E-02 0.  1.
         31    1    1    2    0    0 -0.62947606600E-01  0.51740059808E+00  0.57040826298E+02  0.57527267070E+02  0.74470750000E+01 0.  1.
        -31    1    1    2    0    0  0.62947606600E-01 -0.51740059808E+00  0.62807920536E+02  0.63250023509E+02  0.74470750000E+01 0. -1.
<mgrwt>
<rscale>  0 0.14947635E+02</rscale>
<asrwt>0</asrwt>
<pdfrwt beam="2">  1        2 0.98611343E+00 0.14947635E+02</pdfrwt>
<pdfrwt beam="1">  1       -2 0.99867114E+00 0.14947635E+02</pdfrwt>
<totfact>-0.12235297E-13</totfact>
</mgrwt>
</event>
<event>
 4    1  0.5011189E-019  0.1494813E+02  0.7818608E-02  0.1869655E+00
          2   -1    0    0  501    0  0.00000000000E+00  0.00000000000E+00  0.12026449040E+03  0.12026449043E+03  0.25500000000E-02 0. -1.
         -2   -1    0    0    0  501 -0.00000000000E+00 -0.00000000000E+00 -0.46448664472E+00  0.46449364433E+00  0.25500000000E-02 0.  1.
         31    1    1    2    0    0 -0.44062916837E+00 -0.44875233863E+00  0.59213972312E+02  0.59683741301E+02  0.74470750000E+01 0. -1.
        -31    1    1    2    0    0  0.44062916837E+00  0.44875233863E+00  0.60586031442E+02  0.61045242768E+02  0.74470750000E+01 0.  1.
<mgrwt>
<rscale>  0 0.14948134E+02</rscale>
<asrwt>0</asrwt>
<pdfrwt beam="1">  1        2 0.99827171E+00 0.14948134E+02</pdfrwt>
<pdfrwt beam="2">  1       -2 0.98657375E+00 0.14948134E+02</pdfrwt>
<totfact> 0.14232053E-13</totfact>
</mgrwt>
</event>
<event>
 4    1 -0.5011189E-019  0.1494093E+02  0.7818608E-02  0.1869877E+00
         -2   -1    0    0    0  501 -0.00000000000E+00  0.00000000000E+00  0.11988545072E+03  0.11988545074E+03  0.25500000000E-02 0. -1.
          2   -1    0    0  501    0  0.00000000000E+00 -0.00000000000E+00 -0.46550604522E+00  0.46551302950E+00  0.25500000000E-02 0.  1.
         31    1    1    2    0    0 -0.10986368342E+00  0.25713140805E-01  0.64380321835E+02  0.64809702181E+02  0.74470750000E+01 0. -1.
        -31    1    1    2    0    0  0.10986368342E+00 -0.25713140805E-01  0.55039622835E+02  0.55541261591E+02  0.74470750000E+01 0.  1.
<mgrwt>
<rscale>  0 0.14940927E+02</rscale>
<asrwt>0</asrwt>
<pdfrwt beam="2">  1        2 0.98871853E+00 0.14940927E+02</pdfrwt>
<pdfrwt beam="1">  1       -2 0.99514597E+00 0.14940927E+02</pdfrwt>
<totfact>-0.20363577E-13</totfact>
</mgrwt>
</event>
<event>
 4    1 -0.5011189E-019  0.1494211E+02  0.7818608E-02  0.1869840E+00
         -2   -1    0    0    0  501 -0.00000000000E+00  0.00000000000E+00  0.11969413474E+03  0.11969413476E+03  0.25500000000E-02 0. -1.
          2   -1    0    0  501    0  0.00000000000E+00 -0.00000000000E+00 -0.46632364414E+00  0.46633061618E+00  0.25500000000E-02 0.  1.
         31    1    1    2    0    0 -0.30351546692E+00  0.43444477141E+00  0.61843014060E+02  0.62292039443E+02  0.74470750000E+01 0. -1.
        -31    1    1    2    0    0  0.30351546692E+00 -0.43444477141E+00  0.57384797034E+02  0.57868425938E+02  0.74470750000E+01 0.  1.
<mgrwt>
<rscale>  0 0.14942105E+02</rscale>
<asrwt>0</asrwt>
<pdfrwt beam="2">  1        2 0.99044219E+00 0.14942105E+02</pdfrwt>
<pdfrwt beam="1">  1       -2 0.99357080E+00 0.14942105E+02</pdfrwt>
<totfact>-0.16156256E-13</totfact>
</mgrwt>
</event>
<event>
 4    1 -0.5011189E-019  0.1491941E+02  0.7818608E-02  0.1870538E+00
          2   -1    0    0  501    0  0.00000000000E+00  0.00000000000E+00  0.11830967850E+03  0.11830967853E+03  0.25500000000E-02 0. -1.
         -2   -1    0    0    0  501 -0.00000000000E+00 -0.00000000000E+00 -0.47034885689E+00  0.47035576926E+00  0.25500000000E-02 0.  1.
         31    1    1    2    0    0  0.16006560965E+00  0.38312149796E+00  0.59923724100E+02  0.60386124558E+02  0.74470750000E+01 0. -1.
        -31    1    1    2    0    0 -0.16006560965E+00 -0.38312149796E+00  0.57915605544E+02  0.58393909739E+02  0.74470750000E+01 0.  1.
<mgrwt>
<rscale>  0 0.14919415E+02</rscale>
<asrwt>0</asrwt>
<pdfrwt beam="1">  1        2 0.98215643E+00 0.14919415E+02</pdfrwt>
<pdfrwt beam="2">  1       -2 0.99891215E+00 0.14919415E+02</pdfrwt>
<totfact>-0.19604783E-13</totfact>
</mgrwt>
</event>
<event>
 4    1 -0.5011189E-019  0.1497055E+02  0.7818608E-02  0.1868969E+00
         -2   -1    0    0    0  501 -0.00000000000E+00  0.00000000000E+00  0.11983455387E+03  0.11983455390E+03  0.25500000000E-02 0.  1.
          2   -1    0    0  501    0  0.00000000000E+00 -0.00000000000E+00 -0.46755220027E+00  0.46755915399E+00  0.25500000000E-02 0. -1.
         31    1    1    2    0    0 -0.40261392702E+00  0.28338721976E+00  0.64285753016E+02  0.64717535283E+02  0.74470750000E+01 0. -1.
        -31    1    1    2    0    0  0.40261392702E+00 -0.28338721976E+00  0.55081248657E+02  0.55584577771E+02  0.74470750000E+01 0. -1.
<mgrwt>
<rscale>  0 0.14970548E+02</rscale>
<asrwt>0</asrwt>
<pdfrwt beam="2">  1        2 0.99304591E+00 0.14970548E+02</pdfrwt>
<pdfrwt beam="1">  1       -2 0.99474204E+00 0.14970548E+02</pdfrwt>
<totfact>-0.14074578E-13</totfact>
</mgrwt>
</event>
<event>
 4    1  0.5011189E-019  0.1495762E+02  0.7818608E-02  0.1869365E+00
         -2   -1    0    0    0  501 -0.00000000000E+00  0.00000000000E+00  0.11911758135E+03  0.11911758137E+03  0.25500000000E-02 0. -1.
          2   -1    0    0  501    0  0.00000000000E+00 -0.00000000000E+00 -0.46955434102E+00  0.46956126509E+00  0.25500000000E-02 0.  1.
         31    1    1    2    0    0 -0.23300463314E+00 -0.44382799881E+00  0.63094367578E+02  0.63534316874E+02  0.74470750000E+01 0. -1.
        -31    1    1    2    0    0  0.23300463314E+00  0.44382799881E+00  0.55553659428E+02  0.56052825766E+02  0.74470750000E+01 0. -1.
<mgrwt>
<rscale>  0 0.14957619E+02</rscale>
<asrwt>0</asrwt>
<pdfrwt beam="2">  1        2 0.99725821E+00 0.14957619E+02</pdfrwt>
<pdfrwt beam="1">  1       -2 0.98883017E+00 0.14957619E+02</pdfrwt>
<totfact> 0.58845447E-14</totfact>
</mgrwt>
</event>
<event>
 4    1  0.5011189E-019  0.1490697E+02  0.7818608E-02  0.1870921E+00
         -2   -1    0    0    0  501 -0.00000000000E+00  0.00000000000E+00  0.11873169751E+03  0.11873169754E+03  0.25500000000E-02 0. -1.
          2   -1    0    0  501    0  0.00000000000E+00 -0.00000000000E+00 -0.46789571693E+00  0.46790266554E+00  0.25500000000E-02 0.  1.
         31    1    1    2    0    0  0.76661199648E-02  0.21833048637E+00  0.60880416538E+02  0.61334588699E+02  0.74470750000E+01 0.  1.
        -31    1    1    2    0    0 -0.76661199648E-02 -0.21833048637E+00  0.57383385257E+02  0.57865011506E+02  0.74470750000E+01 0. -1.
<mgrwt>
<rscale>  0 0.14906974E+02</rscale>
<asrwt>0</asrwt>
<pdfrwt beam="2">  1        2 0.99373676E+00 0.14906974E+02</pdfrwt>
<pdfrwt beam="1">  1       -2 0.98562569E+00 0.14906974E+02</pdfrwt>
<totfact> 0.45003434E-13</totfact>
</mgrwt>
</event>
<event>
 4    1 -0.5011189E-019  0.1489935E+02  0.7818608E-02  0.1871156E+00
         -2   -1    0    0    0  501 -0.00000000000E+00  0.00000000000E+00  0.11976933341E+03  0.11976933344E+03  0.25500000000E-02 0.  1.
          2   -1    0    0  501    0  0.00000000000E+00 -0.00000000000E+00 -0.46336733828E+00  0.46337435480E+00  0.25500000000E-02 0. -1.
         31    1    1    2    0    0 -0.10992659054E+00 -0.13956304626E+00  0.58971446757E+02  0.59440070831E+02  0.74470750000E+01 0. -1.
        -31    1    1    2    0    0  0.10992659054E+00  0.13956304626E+00  0.60334519315E+02  0.60792636962E+02  0.74470750000E+01 0.  1.
<mgrwt>
<rscale>  0 0.14899345E+02</rscale>
<asrwt>0</asrwt>
<pdfrwt beam="2">  1        2 0.98418988E+00 0.14899345E+02</pdfrwt>
<pdfrwt beam="1">  1       -2 0.99416815E+00 0.14899345E+02</pdfrwt>
<totfact>-0.39197828E-13</totfact>
</mgrwt>
</event>
<event>
 4    1 -0.5011189E-019  0.1490332E+02  0.7818608E-02  0.1871033E+00
          2   -1    0    0  501    0  0.00000000000E+00  0.00000000000E+00  0.11833528666E+03  0.11833528669E+03  0.25500000000E-02 0.  1.
         -2   -1    0    0    0  501 -0.00000000000E+00 -0.00000000000E+00 -0.46923312166E+00  0.46924005047E+00  0.25500000000E-02 0. -1.
         31    1    1    2    0    0  0.15877065946E+00  0.15871433071E+00  0.60000302570E+02  0.60461108432E+02  0.74470750000E+01 0.  1.
        -31    1    1    2    0    0 -0.15877065946E+00 -0.15871433071E+00  0.57865750972E+02  0.58343418309E+02  0.74470750000E+01 0. -1.
<mgrwt>
<rscale>  0 0.14903322E+02</rscale>
<asrwt>0</asrwt>
<pdfrwt beam="1">  1        2 0.98235895E+00 0.14903322E+02</pdfrwt>
<pdfrwt beam="2">  1       -2 0.99655283E+00 0.14903322E+02</pdfrwt>
<totfact>-0.47027005E-13</totfact>
</mgrwt>
</event>
<event>
 4    1 -0.5011189E-019  0.1492791E+02  0.7818608E-02  0.1870276E+00
          2   -1    0    0  501    0  0.00000000000E+00  0.00000000000E+00  0.11903619258E+03  0.11903619261E+03  0.25500000000E-02 0. -1.
         -2   -1    0    0    0  501 -0.00000000000E+00 -0.00000000000E+00 -0.46801049991E+00  0.46801744682E+00  0.25500000000E-02 0.  1.
         31    1    1    2    0    0  0.32506515619E+00  0.38210998253E+00  0.59269607517E+02  0.59737734947E+02  0.74470750000E+01 0. -1.
        -31    1    1    2    0    0 -0.32506515619E+00 -0.38210998253E+00  0.59298574568E+02  0.59766475112E+02  0.74470750000E+01 0. -1.
<mgrwt>
<rscale>  0 0.14927907E+02</rscale>
<asrwt>0</asrwt>
<pdfrwt beam="1">  1        2 0.98814442E+00 0.14927907E+02</pdfrwt>
<pdfrwt beam="2">  1       -2 0.99398956E+00 0.14927907E+02</pdfrwt>
<totfact>-0.21433771E-13</totfact>
</mgrwt>
</event>
<event>
 4    1  0.5011189E-019  0.1490831E+02  0.7818608E-02  0.1870879E+00
          2   -1    0    0  501    0  0.00000000000E+00  0.00000000000E+00  0.11974695292E+03  0.11974695295E+03  0.25500000000E-02 0.  1.
         -2   -1    0    0    0  501 -0.00000000000E+00 -0.00000000000E+00 -0.46401176060E+00  0.46401876737E+00  0.25500000000E-02 0. -1.
         31    1    1    2    0    0  0.13122202597E+00 -0.97078301844E-04  0.62037141025E+02  0.62482661690E+02  0.74470750000E+01 0.  1.
        -31    1    1    2    0    0 -0.13122202597E+00  0.97078301844E-04  0.57245800137E+02  0.57728310027E+02  0.74470750000E+01 0. -1.
<mgrwt>
<rscale>  0 0.14908309E+02</rscale>
<asrwt>0</asrwt>
<pdfrwt beam="1">  1        2 0.99398842E+00 0.14908309E+02</pdfrwt>
<pdfrwt beam="2">  1       -2 0.98555261E+00 0.14908309E+02</pdfrwt>
<totfact> 0.45131184E-13</totfact>
</mgrwt>
</event>
<event>
 4    1 -0.5011189E-019  0.1496794E+02  0.7818608E-02  0.1869048E+00
         -2   -1    0    0    0  501 -0.00000000000E+00  0.00000000000E+00  0.11950447128E+03  0.11950447131E+03  0.25500000000E-02 0. -1.
          2   -1    0    0  501    0  0.00000000000E+00 -0.00000000000E+00 -0.46868052659E+00  0.46868746357E+00  0.25500000000E-02 0.  1.
         31    1    1    2    0    0  0.38785961772E+00  0.10747914675E+00  0.64516559706E+02  0.64946188412E+02  0.74470750000E+01 0. -1.
        -31    1    1    2    0    0 -0.38785961772E+00 -0.10747914675E+00  0.54519231052E+02  0.55026970364E+02  0.74470750000E+01 0. -1.
<mgrwt>
<rscale>  0 0.14967944E+02</rscale>
<asrwt>0</asrwt>
<pdfrwt beam="2">  1        2 0.99542230E+00 0.14967944E+02</pdfrwt>
<pdfrwt beam="1">  1       -2 0.99202202E+00 0.14967944E+02</pdfrwt>
<totfact>-0.75827660E-14</totfact>
</mgrwt>
</event>
<event>
 4    1 -0.5011189E-019  0.1495624E+02  0.7818608E-02  0.1869407E+00
          2   -1    0    0  501    0  0.00000000000E+00  0.00000000000E+00  0.11941548804E+03  0.11941548807E+03  0.25500000000E-02 0. -1.
         -2   -1    0    0    0  501 -0.00000000000E+00 -0.00000000000E+00 -0.46829623693E+00  0.46830317960E+00  0.25500000000E-02 0.  1.
         31    1    1    2    0    0 -0.60381336473E+00 -0.17735989014E+00  0.57394648865E+02  0.57879190487E+02  0.74470750000E+01 0. -1.
        -31    1    1    2    0    0  0.60381336473E+00  0.17735989014E+00  0.61552542939E+02  0.62004600760E+02  0.74470750000E+01 0. -1.
<mgrwt>
<rscale>  0 0.14956235E+02</rscale>
<asrwt>0</asrwt>
<pdfrwt beam="1">  1        2 0.99128306E+00 0.14956235E+02</pdfrwt>
<pdfrwt beam="2">  1       -2 0.99460642E+00 0.14956235E+02</pdfrwt>
<totfact>-0.16007816E-13</totfact>
</mgrwt>
</event>
<event>
 4    1  0.5011189E-019  0.1493667E+02  0.7818608E-02  0.1870007E+00
         -2   -1    0    0    0  501 -0.00000000000E+00  0.00000000000E+00  0.11885359475E+03  0.11885359478E+03  0.25500000000E-02 0.  1.
          2   -1    0    0  501    0  0.00000000000E+00 -0.00000000000E+00 -0.46927977634E+00  0.46928670446E+00  0.25500000000E-02 0. -1.
         31    1    1    2    0    0  0.11781448180E+00 -0.50295040781E+00  0.57401609976E+02  0.57884977267E+02  0.74470750000E+01 0.  1.
        -31    1    1    2    0    0 -0.11781448180E+00  0.50295040781E+00  0.60982705001E+02  0.61437904217E+02  0.74470750000E+01 0.  1.
<mgrwt>
<rscale>  0 0.14936667E+02</rscale>
<asrwt>0</asrwt>
<pdfrwt beam="2">  1        2 0.99666869E+00 0.14936667E+02</pdfrwt>
<pdfrwt beam="1">  1       -2 0.98664507E+00 0.14936667E+02</pdfrwt>
<totfact> 0.22399677E-13</totfact>
</mgrwt>
</event>
<event>
 4    1 -0.5011189E-019  0.1496736E+02  0.7818608E-02  0.1869066E+00
          2   -1    0    0  501    0  0.00000000000E+00  0.00000000000E+00  0.11977988019E+03  0.11977988022E+03  0.25500000000E-02 0.  1.
         -2   -1    0    0    0  501 -0.00000000000E+00 -0.00000000000E+00 -0.46756663361E+00  0.46757358711E+00  0.25500000000E-02 0. -1.
         31    1    1    2    0    0 -0.43829153466E+00 -0.59486014978E+00  0.59457580077E+02  0.59926694492E+02  0.74470750000E+01 0. -1.
        -31    1    1    2    0    0  0.43829153466E+00  0.59486014978E+00  0.59854733482E+02  0.60320759315E+02  0.74470750000E+01 0.  1.
<mgrwt>
<rscale>  0 0.14967364E+02</rscale>
<asrwt>0</asrwt>
<pdfrwt beam="1">  1        2 0.99429008E+00 0.14967364E+02</pdfrwt>
<pdfrwt beam="2">  1       -2 0.99307468E+00 0.14967364E+02</pdfrwt>
<totfact>-0.11208371E-13</totfact>
</mgrwt>
</event>
<event>
 4    1  0.5011189E-019  0.1490323E+02  0.7818608E-02  0.1871036E+00
         -2   -1    0    0    0  501 -0.00000000000E+00  0.00000000000E+00  0.11820452144E+03  0.11820452146E+03  0.25500000000E-02 0.  1.
          2   -1    0    0  501    0  0.00000000000E+00 -0.00000000000E+00 -0.46974630609E+00  0.46975322732E+00  0.25500000000E-02 0. -1.
         31    1    1    2    0    0  0.17022873335E+00 -0.15687282286E+00  0.57923960709E+02  0.58401179244E+02  0.74470750000E+01 0. -1.
        -31    1    1    2    0    0 -0.17022873335E+00  0.15687282286E+00  0.59810814422E+02  0.60273095448E+02  0.74470750000E+01 0. -1.
<mgrwt>
<rscale>  0 0.14903228E+02</rscale>
<asrwt>0</asrwt>
<pdfrwt beam="2">  1        2 0.99763404E+00 0.14903228E+02</pdfrwt>
<pdfrwt beam="1">  1       -2 0.98128194E+00 0.14903228E+02</pdfrwt>
<totfact> 0.70329759E-13</totfact>
</mgrwt>
</event>
<event>
 4    1 -0.5011189E-019  0.1494919E+02  0.7818608E-02  0.1869623E+00
          2   -1    0    0  501    0  0.00000000000E+00  0.00000000000E+00  0.11972295074E+03  0.11972295077E+03  0.25500000000E-02 0.  1.
         -2   -1    0    0    0  501 -0.00000000000E+00 -0.00000000000E+00 -0.46665346247E+00  0.46666042958E+00  0.25500000000E-02 0. -1.
         31    1    1    2    0    0  0.63771445477E+00 -0.45086225576E-01  0.59979636486E+02  0.60443564021E+02  0.74470750000E+01 0. -1.
        -31    1    1    2    0    0 -0.63771445477E+00  0.45086225576E-01  0.59276660791E+02  0.59746047175E+02  0.74470750000E+01 0.  1.
<mgrwt>
<rscale>  0 0.14949187E+02</rscale>
<asrwt>0</asrwt>
<pdfrwt beam="1">  1        2 0.99381180E+00 0.14949187E+02</pdfrwt>
<pdfrwt beam="2">  1       -2 0.99114090E+00 0.14949187E+02</pdfrwt>
<totfact>-0.53079531E-14</totfact>
</mgrwt>
</event>
<event>
 4    1 -0.5011189E-019  0.1492257E+02  0.7818608E-02  0.1870441E+00
         -2   -1    0    0    0  501 -0.00000000000E+00  0.00000000000E+00  0.12035135184E+03  0.12035135187E+03  0.25500000000E-02 0.  1.
          2   -1    0    0  501    0  0.00000000000E+00 -0.00000000000E+00 -0.46256516359E+00  0.46257219227E+00  0.25500000000E-02 0. -1.
         31    1    1    2    0    0 -0.22911802687E+00  0.36577069987E+00  0.58650046374E+02  0.59122526578E+02  0.74470750000E+01 0. -1.
        -31    1    1    2    0    0  0.22911802687E+00 -0.36577069987E+00  0.61238740304E+02  0.61691397483E+02  0.74470750000E+01 0.  1.
<mgrwt>
<rscale>  0 0.14922569E+02</rscale>
<asrwt>0</asrwt>
<pdfrwt beam="2">  1        2 0.98251092E+00 0.14922569E+02</pdfrwt>
<pdfrwt beam="1">  1       -2 0.99897405E+00 0.14922569E+02</pdfrwt>
<totfact>-0.17503554E-13</totfact>
</mgrwt>
</event>
<event>
 4    1  0.5011189E-019  0.1490656E+02  0.7818608E-02  0.1870933E+00
         -2   -1    0    0    0  501 -0.00000000000E+00  0.00000000000E+00  0.11870252730E+03  0.11870252732E+03  0.25500000000E-02 0.  1.
          2   -1    0    0  501    0  0.00000000000E+00 -0.00000000000E+00 -0.46798466834E+00  0.46799161563E+00  0.25500000000E-02 0. -1.
         31    1    1    2    0    0 -0.33346353657E-01  0.29406076733E+00  0.59675095434E+02  0.60138702387E+02  0.74470750000E+01 0.  1.
        -31    1    1    2    0    0  0.33346353657E-01 -0.29406076733E+00  0.58559447193E+02  0.59031816551E+02  0.74470750000E+01 0. -1.
<mgrwt>
<rscale>  0 0.14906559E+02</rscale>
<asrwt>0</asrwt>
<pdfrwt beam="2">  1        2 0.99392398E+00 0.14906559E+02</pdfrwt>
<pdfrwt beam="1">  1       -2 0.98538523E+00 0.14906559E+02</pdfrwt>
<totfact> 0.47738125E-13</totfact>
</mgrwt>
</event>
<event>
 4    1 -0.5011189E-019  0.1497714E+02  0.7818608E-02  0.1868767E+00
         -2   -1    0    0    0  501 -0.00000000000E+00  0.00000000000E+00  0.11997882794E+03  0.11997882797E+03  0.25500000000E-02 0.  1.
          2   -1    0    0  501    0  0.00000000000E+00 -0.00000000000E+00 -0.46740141491E+00  0.46740837087E+00  0.25500000000E-02 0. -1.
         31    1    1    2    0    0  0.24817381581E+00 -0.33134265133E+00  0.65140795762E+02  0.65566405855E+02  0.74470750000E+01 0. -1.
        -31    1    1    2    0    0 -0.24817381581E+00  0.33134265133E+00  0.54370630765E+02  0.54879830484E+02  0.74470750000E+01 0. -1.
<mgrwt>
<rscale>  0 0.14977142E+02</rscale>
<asrwt>0</asrwt>
<pdfrwt beam="2">  1        2 0.99273154E+00 0.14977142E+02</pdfrwt>
<pdfrwt beam="1">  1       -2 0.99593375E+00 0.14977142E+02</pdfrwt>
<totfact>-0.13569576E-13</totfact>
</mgrwt>
</event>
<event>
 4    1 -0.5011189E-019  0.1492128E+02  0.7818608E-02  0.1870480E+00
         -2   -1    0    0    0  501 -0.00000000000E+00  0.00000000000E+00  0.12008624311E+03  0.12008624314E+03  0.25500000000E-02 0.  1.
          2   -1    0    0  501    0  0.00000000000E+00 -0.00000000000E+00 -0.46350620854E+00  0.46351322296E+00  0.25500000000E-02 0. -1.
         31    1    1    2    0    0 -0.65903048884E-01  0.15976022985E+00  0.56457335914E+02  0.56946637926E+02  0.74470750000E+01 0. -1.
        -31    1    1    2    0    0  0.65903048884E-01 -0.15976022985E+00  0.63165400992E+02  0.63603118438E+02  0.74470750000E+01 0.  1.
<mgrwt>
<rscale>  0 0.14921279E+02</rscale>
<asrwt>0</asrwt>
<pdfrwt beam="2">  1        2 0.98449371E+00 0.14921279E+02</pdfrwt>
<pdfrwt beam="1">  1       -2 0.99678973E+00 0.14921279E+02</pdfrwt>
<totfact>-0.31518289E-13</totfact>
</mgrwt>
</event>
<event>
 4    1  0.5011189E-019  0.1490300E+02  0.7818608E-02  0.1871043E+00
          2   -1    0    0  501    0  0.00000000000E+00  0.00000000000E+00  0.12010592929E+03  0.12010592931E+03  0.25500000000E-02 0. -1.
         -2   -1    0    0    0  501 -0.00000000000E+00 -0.00000000000E+00 -0.46229548873E+00  0.46230252152E+00  0.25500000000E-02 0.  1.
         31    1    1    2    0    0  0.48125920863E-01 -0.13708165013E+00  0.58109036889E+02  0.58584470653E+02  0.74470750000E+01 0.  1.
        -31    1    1    2    0    0 -0.48125920863E-01  0.13708165013E+00  0.61534596909E+02  0.61983761182E+02  0.74470750000E+01 0. -1.
<mgrwt>
<rscale>  0 0.14903000E+02</rscale>
<asrwt>0</asrwt>
<pdfrwt beam="1">  1        2 0.99694250E+00 0.14903000E+02</pdfrwt>
<pdfrwt beam="2">  1       -2 0.98193264E+00 0.14903000E+02</pdfrwt>
<totfact> 0.74369249E-13</totfact>
</mgrwt>
</event>
<event>
 4    1  0.5011189E-019  0.1492518E+02  0.7818608E-02  0.1870360E+00
          2   -1    0    0  501    0  0.00000000000E+00  0.00000000000E+00  0.12005193809E+03  0.12005193812E+03  0.25500000000E-02 0.  1.
         -2   -1    0    0    0  501 -0.00000000000E+00 -0.00000000000E+00 -0.46388086393E+00  0.46388787268E+00  0.25500000000E-02 0. -1.
         31    1    1    2    0    0 -0.17776011667E+00  0.44429223983E+00  0.60181310962E+02  0.60642213922E+02  0.74470750000E+01 0. -1.
        -31    1    1    2    0    0  0.17776011667E+00 -0.44429223983E+00  0.59406746269E+02  0.59873612072E+02  0.74470750000E+01 0. -1.
<mgrwt>
<rscale>  0 0.14925176E+02</rscale>
<asrwt>0</asrwt>
<pdfrwt beam="1">  1        2 0.99650917E+00 0.14925176E+02</pdfrwt>
<pdfrwt beam="2">  1       -2 0.98528533E+00 0.14925176E+02</pdfrwt>
<totfact> 0.36375310E-13</totfact>
</mgrwt>
</event>
<event>
 4    1 -0.5011189E-019  0.1490517E+02  0.7818608E-02  0.1870976E+00
         -2   -1    0    0    0  501 -0.00000000000E+00  0.00000000000E+00  0.11952307003E+03  0.11952307005E+03  0.25500000000E-02 0. -1.
          2   -1    0    0  501    0  0.00000000000E+00 -0.00000000000E+00 -0.46468549736E+00  0.46469249398E+00  0.25500000000E-02 0.  1.
         31    1    1    2    0    0  0.61878958166E-01  0.14529272929E+00  0.57604002437E+02  0.58083603209E+02  0.74470750000E+01 0.  1.
        -31    1    1    2    0    0 -0.61878958166E-01 -0.14529272929E+00  0.61454382092E+02  0.61904159338E+02  0.74470750000E+01 0. -1.
<mgrwt>
<rscale>  0 0.14905175E+02</rscale>
<asrwt>0</asrwt>
<pdfrwt beam="2">  1        2 0.98697092E+00 0.14905175E+02</pdfrwt>
<pdfrwt beam="1">  1       -2 0.99214277E+00 0.14905175E+02</pdfrwt>
<totfact>-0.17875542E-13</totfact>
</mgrwt>
</event>
<event>
 4    1 -0.5011189E-019  0.1502687E+02  0.7818608E-02  0.1867250E+00
          2   -1    0    0  501    0  0.00000000000E+00  0.00000000000E+00  0.12002372437E+03  0.12002372440E+03  0.25500000000E-02 0. -1.
         -2   -1    0    0    0  501 -0.00000000000E+00 -0.00000000000E+00 -0.47033468227E+00  0.47034159485E+00  0.25500000000E-02 0.  1.
         31    1    1    2    0    0  0.63378123239E-01 -0.89306431694E+00  0.56270170283E+02  0.56767883265E+02  0.74470750000E+01 0.  1.
        -31    1    1    2    0    0 -0.63378123239E-01  0.89306431694E+00  0.63283219406E+02  0.63726182729E+02  0.74470750000E+01 0. -1.
<mgrwt>
<rscale>  0 0.15026874E+02</rscale>
<asrwt>0</asrwt>
<pdfrwt beam="1">  1        2 0.99632924E+00 0.15026874E+02</pdfrwt>
<pdfrwt beam="2">  1       -2 0.99893865E+00 0.15026874E+02</pdfrwt>
<totfact>-0.34439760E-14</totfact>
</mgrwt>
</event>
<event>
 4    1 -0.5011189E-019  0.1490962E+02  0.7818608E-02  0.1870839E+00
          2   -1    0    0  501    0  0.00000000000E+00  0.00000000000E+00  0.11853895789E+03  0.11853895792E+03  0.25500000000E-02 0. -1.
         -2   -1    0    0    0  501 -0.00000000000E+00 -0.00000000000E+00 -0.46882289070E+00  0.46882982557E+00  0.25500000000E-02 0.  1.
         31    1    1    2    0    0 -0.22808849013E+00 -0.14080459545E+00  0.57371931006E+02  0.57853861096E+02  0.74470750000E+01 0.  1.
        -31    1    1    2    0    0  0.22808849013E+00  0.14080459545E+00  0.60698203998E+02  0.61153926652E+02  0.74470750000E+01 0. -1.
<mgrwt>
<rscale>  0 0.14909620E+02</rscale>
<asrwt>0</asrwt>
<pdfrwt beam="1">  1        2 0.98403965E+00 0.14909620E+02</pdfrwt>
<pdfrwt beam="2">  1       -2 0.99569179E+00 0.14909620E+02</pdfrwt>
<totfact>-0.39268913E-13</totfact>
</mgrwt>
</event>
<event>
 4    1  0.5011189E-019  0.1492438E+02  0.7818608E-02  0.1870385E+00
          2   -1    0    0  501    0  0.00000000000E+00  0.00000000000E+00  0.12016150409E+03  0.12016150411E+03  0.25500000000E-02 0.  1.
         -2   -1    0    0    0  501 -0.00000000000E+00 -0.00000000000E+00 -0.46340865445E+00  0.46341567034E+00  0.25500000000E-02 0. -1.
         31    1    1    2    0    0  0.12057411607E+00  0.41477186434E+00  0.61441216588E+02  0.61892395297E+02  0.74470750000E+01 0.  1.
        -31    1    1    2    0    0 -0.12057411607E+00 -0.41477186434E+00  0.58256878844E+02  0.58732524487E+02  0.74470750000E+01 0. -1.
<mgrwt>
<rscale>  0 0.14924383E+02</rscale>
<asrwt>0</asrwt>
<pdfrwt beam="1">  1        2 0.99741123E+00 0.14924383E+02</pdfrwt>
<pdfrwt beam="2">  1       -2 0.98428967E+00 0.14924383E+02</pdfrwt>
<totfact> 0.39098268E-13</totfact>
</mgrwt>
</event>
<event>
 4    1  0.5011189E-019  0.1492660E+02  0.7818608E-02  0.1870317E+00
          2   -1    0    0  501    0  0.00000000000E+00  0.00000000000E+00  0.11999872890E+03  0.11999872893E+03  0.25500000000E-02 0.  1.
         -2   -1    0    0    0  501 -0.00000000000E+00 -0.00000000000E+00 -0.46417493076E+00  0.46418193507E+00  0.25500000000E-02 0. -1.
         31    1    1    2    0    0  0.14096867557E+00  0.39073859028E+00  0.57641993933E+02  0.58122551040E+02  0.74470750000E+01 0.  1.
        -31    1    1    2    0    0 -0.14096867557E+00 -0.39073859028E+00  0.61892560034E+02  0.62340359820E+02  0.74470750000E+01 0. -1.
<mgrwt>
<rscale>  0 0.14926597E+02</rscale>
<asrwt>0</asrwt>
<pdfrwt beam="1">  1        2 0.99607163E+00 0.14926597E+02</pdfrwt>
<pdfrwt beam="2">  1       -2 0.98590583E+00 0.14926597E+02</pdfrwt>
<totfact> 0.32214870E-13</totfact>
</mgrwt>
</event>
<event>
 4    1  0.5011189E-019  0.1490671E+02  0.7818608E-02  0.1870929E+00
          2   -1    0    0  501    0  0.00000000000E+00  0.00000000000E+00  0.11969647363E+03  0.11969647366E+03  0.25500000000E-02 0.  1.
         -2   -1    0    0    0  501 -0.00000000000E+00 -0.00000000000E+00 -0.46410804836E+00  0.46411505368E+00  0.25500000000E-02 0. -1.
         31    1    1    2    0    0  0.27967280550E+00 -0.53612034278E-01  0.58714877947E+02  0.59185951961E+02  0.74470750000E+01 0.  1.
        -31    1    1    2    0    0 -0.27967280550E+00  0.53612034278E-01  0.60517487637E+02  0.60974636752E+02  0.74470750000E+01 0.  1.
<mgrwt>
<rscale>  0 0.14906712E+02</rscale>
<asrwt>0</asrwt>
<pdfrwt beam="1">  1        2 0.99357182E+00 0.14906712E+02</pdfrwt>
<pdfrwt beam="2">  1       -2 0.98575473E+00 0.14906712E+02</pdfrwt>
<totfact> 0.43752254E-13</totfact>
</mgrwt>
</event>
<event>
 4    1 -0.5011189E-019  0.1502291E+02  0.7818608E-02  0.1867370E+00
          2   -1    0    0  501    0  0.00000000000E+00  0.00000000000E+00  0.12023216741E+03  0.12023216743E+03  0.25500000000E-02 0.  1.
         -2   -1    0    0    0  501 -0.00000000000E+00 -0.00000000000E+00 -0.46927155771E+00  0.46927848595E+00  0.25500000000E-02 0. -1.
         31    1    1    2    0    0  0.68159925036E+00  0.48321377074E+00  0.55745774974E+02  0.56247208167E+02  0.74470750000E+01 0. -1.
        -31    1    1    2    0    0 -0.68159925036E+00 -0.48321377074E+00  0.64017120873E+02  0.64454237751E+02  0.74470750000E+01 0. -1.
<mgrwt>
<rscale>  0 0.15022910E+02</rscale>
<asrwt>0</asrwt>
<pdfrwt beam="1">  1        2 0.99804401E+00 0.15022910E+02</pdfrwt>
<pdfrwt beam="2">  1       -2 0.99669625E+00 0.15022910E+02</pdfrwt>
<totfact>-0.54752934E-14</totfact>
</mgrwt>
</event>
<event>
 4    1 -0.5011189E-019  0.1494685E+02  0.7818608E-02  0.1869695E+00
         -2   -1    0    0    0  501 -0.00000000000E+00  0.00000000000E+00  0.11941771395E+03  0.11941771398E+03  0.25500000000E-02 0.  1.
          2   -1    0    0  501    0  0.00000000000E+00 -0.00000000000E+00 -0.46770002826E+00  0.46770697978E+00  0.25500000000E-02 0. -1.
         31    1    1    2    0    0  0.51884329237E+00 -0.13370479394E+00  0.56862581408E+02  0.57350668399E+02  0.74470750000E+01 0. -1.
        -31    1    1    2    0    0 -0.51884329237E+00  0.13370479394E+00  0.62087432516E+02  0.62534752560E+02  0.74470750000E+01 0.  1.
<mgrwt>
<rscale>  0 0.14946851E+02</rscale>
<asrwt>0</asrwt>
<pdfrwt beam="2">  1        2 0.99334518E+00 0.14946851E+02</pdfrwt>
<pdfrwt beam="1">  1       -2 0.99129654E+00 0.14946851E+02</pdfrwt>
<totfact>-0.62269328E-14</totfact>
</mgrwt>
</event>
<event>
 4    1 -0.5011189E-019  0.1492649E+02  0.7818608E-02  0.1870320E+00
          2   -1    0    0  501    0  0.00000000000E+00  0.00000000000E+00  0.11851359768E+03  0.11851359771E+03  0.25500000000E-02 0. -1.
         -2   -1    0    0    0  501 -0.00000000000E+00 -0.00000000000E+00 -0.46998516743E+00  0.46999208515E+00  0.25500000000E-02 0.  1.
         31    1    1    2    0    0 -0.25659213170E+00 -0.41134489377E+00  0.58400452039E+02  0.58875349413E+02  0.74470750000E+01 0. -1.
        -31    1    1    2    0    0  0.25659213170E+00  0.41134489377E+00  0.59643160477E+02  0.60108240383E+02  0.74470750000E+01 0. -1.
<mgrwt>
<rscale>  0 0.14926493E+02</rscale>
<asrwt>0</asrwt>
<pdfrwt beam="1">  1        2 0.98383957E+00 0.14926493E+02</pdfrwt>
<pdfrwt beam="2">  1       -2 0.99814962E+00 0.14926493E+02</pdfrwt>
<totfact>-0.23450147E-13</totfact>
</mgrwt>
</event>
<event>
 4    1  0.5011189E-019  0.1490094E+02  0.7818608E-02  0.1871106E+00
          2   -1    0    0  501    0  0.00000000000E+00  0.00000000000E+00  0.12015543824E+03  0.12015543827E+03  0.25500000000E-02 0.  1.
         -2   -1    0    0    0  501 -0.00000000000E+00 -0.00000000000E+00 -0.46197738989E+00  0.46198442751E+00  0.25500000000E-02 0. -1.
         31    1    1    2    0    0  0.22888214614E-01  0.22311472720E+00  0.59984978989E+02  0.60445900890E+02  0.74470750000E+01 0. -1.
        -31    1    1    2    0    0 -0.22888214614E-01 -0.22311472720E+00  0.59708481864E+02  0.60171521807E+02  0.74470750000E+01 0.  1.
<mgrwt>
<rscale>  0 0.14900942E+02</rscale>
<asrwt>0</asrwt>
<pdfrwt beam="1">  1        2 0.99734924E+00 0.14900942E+02</pdfrwt>
<pdfrwt beam="2">  1       -2 0.98126114E+00 0.14900942E+02</pdfrwt>
<totfact> 0.76666333E-13</totfact>
</mgrwt>
</event>
<event>
 4    1 -0.5011189E-019  0.1491037E+02  0.7818608E-02  0.1870816E+00
          2   -1    0    0  501    0  0.00000000000E+00  0.00000000000E+00  0.11914242175E+03  0.11914242178E+03  0.25500000000E-02 0.  1.
         -2   -1    0    0    0  501 -0.00000000000E+00 -0.00000000000E+00 -0.46649501198E+00  0.46650198146E+00  0.25500000000E-02 0. -1.
         31    1    1    2    0    0  0.13884088382E+00 -0.19573527670E+00  0.61355406139E+02  0.61806167796E+02  0.74470750000E+01 0.  1.
        -31    1    1    2    0    0 -0.13884088382E+00  0.19573527670E+00  0.57320520597E+02  0.57802755961E+02  0.74470750000E+01 0.  1.
<mgrwt>
<rscale>  0 0.14910367E+02</rscale>
<asrwt>0</asrwt>
<pdfrwt beam="1">  1        2 0.98901027E+00 0.14910367E+02</pdfrwt>
<pdfrwt beam="2">  1       -2 0.99078694E+00 0.14910367E+02</pdfrwt>
<totfact>-0.53485310E-14</totfact>
</mgrwt>
</event>
<event>
 4    1 -0.5011189E-019  0.1493270E+02  0.7818608E-02  0.1870129E+00
          2   -1    0    0  501    0  0.00000000000E+00  0.00000000000E+00  0.11933480030E+03  0.11933480033E+03  0.25500000000E-02 0.  1.
         -2   -1    0    0    0  501 -0.00000000000E+00 -0.00000000000E+00 -0.46713910173E+00  0.46714606160E+00  0.25500000000E-02 0. -1.
         31    1    1    2    0    0  0.22084063115E-01 -0.38017831896E-02  0.55136265708E+02  0.55636923211E+02  0.74470750000E+01 0. -1.
        -31    1    1    2    0    0 -0.22084063115E-01  0.38017831896E-02  0.63731395489E+02  0.64165023176E+02  0.74470750000E+01 0.  1.
<mgrwt>
<rscale>  0 0.14932698E+02</rscale>
<asrwt>0</asrwt>
<pdfrwt beam="1">  1        2 0.99060631E+00 0.14932698E+02</pdfrwt>
<pdfrwt beam="2">  1       -2 0.99215580E+00 0.14932698E+02</pdfrwt>
<totfact>-0.11821080E-13</totfact>
</mgrwt>
</event>
<event>
 4    1  0.5011189E-019  0.1491727E+02  0.7818608E-02  0.1870604E+00
         -2   -1    0    0    0  501 -0.00000000000E+00  0.00000000000E+00  0.11859020289E+03  0.11859020292E+03  0.25500000000E-02 0.  1.
          2   -1    0    0  501    0  0.00000000000E+00 -0.00000000000E+00 -0.46910103218E+00  0.46910796294E+00  0.25500000000E-02 0. -1.
         31    1    1    2    0    0 -0.35516131551E+00 -0.20842970755E+00  0.59474675700E+02  0.59940516833E+02  0.74470750000E+01 0.  1.
        -31    1    1    2    0    0  0.35516131551E+00  0.20842970755E+00  0.58646426158E+02  0.59118794048E+02  0.74470750000E+01 0.  1.
<mgrwt>
<rscale>  0 0.14917265E+02</rscale>
<asrwt>0</asrwt>
<pdfrwt beam="2">  1        2 0.99628187E+00 0.14917265E+02</pdfrwt>
<pdfrwt beam="1">  1       -2 0.98446568E+00 0.14917265E+02</pdfrwt>
<totfact> 0.47496603E-13</totfact>
</mgrwt>
</event>
<event>
 4    1  0.5011189E-019  0.1492127E+02  0.7818608E-02  0.1870480E+00
         -2   -1    0    0    0  501 -0.00000000000E+00  0.00000000000E+00  0.11858463582E+03  0.11858463585E+03  0.25500000000E-02 0. -1.
          2   -1    0    0  501    0  0.00000000000E+00 -0.00000000000E+00 -0.46937524800E+00  0.46938217471E+00  0.25500000000E-02 0.  1.
         31    1    1    2    0    0 -0.34334766104E+00  0.24325674113E+00  0.60322197251E+02  0.60781604690E+02  0.74470750000E+01 0. -1.
        -31    1    1    2    0    0  0.34334766104E+00 -0.24325674113E+00  0.57793063321E+02  0.58272413332E+02  0.74470750000E+01 0.  1.
<mgrwt>
<rscale>  0 0.14921274E+02</rscale>
<asrwt>0</asrwt>
<pdfrwt beam="2">  1        2 0.99686176E+00 0.14921274E+02</pdfrwt>
<pdfrwt beam="1">  1       -2 0.98442192E+00 0.14921274E+02</pdfrwt>
<totfact> 0.43144902E-13</totfact>
</mgrwt>
</event>
<event>
 4    1 -0.5011189E-019  0.1490746E+02  0.7818608E-02  0.1870906E+00
          2   -1    0    0  501    0  0.00000000000E+00  0.00000000000E+00  0.11857779247E+03  0.11857779250E+03  0.25500000000E-02 0. -1.
         -2   -1    0    0    0  501 -0.00000000000E+00 -0.00000000000E+00 -0.46853364897E+00  0.46854058812E+00  0.25500000000E-02 0.  1.
         31    1    1    2    0    0  0.24979736478E+00  0.17075511689E+00  0.59751646648E+02  0.60214697203E+02  0.74470750000E+01 0. -1.
        -31    1    1    2    0    0 -0.24979736478E+00 -0.17075511689E+00  0.58357612171E+02  0.58831635880E+02  0.74470750000E+01 0.  1.
<mgrwt>
<rscale>  0 0.14907461E+02</rscale>
<asrwt>0</asrwt>
<pdfrwt beam="1">  1        2 0.98435837E+00 0.14907461E+02</pdfrwt>
<pdfrwt beam="2">  1       -2 0.99508121E+00 0.14907461E+02</pdfrwt>
<totfact>-0.38484021E-13</totfact>
</mgrwt>
</event>
<event>
 4    1  0.5011189E-019  0.1490347E+02  0.7818608E-02  0.1871028E+00
         -2   -1    0    0    0  501 -0.00000000000E+00  0.00000000000E+00  0.11816546264E+03  0.11816546267E+03  0.25500000000E-02 0. -1.
          2   -1    0    0  501    0  0.00000000000E+00 -0.00000000000E+00 -0.46991689084E+00  0.46992380956E+00  0.25500000000E-02 0.  1.
         31    1    1    2    0    0  0.19776244630E+00  0.13278673676E+00  0.57951034092E+02  0.58428058505E+02  0.74470750000E+01 0.  1.
        -31    1    1    2    0    0 -0.19776244630E+00 -0.13278673676E+00  0.59744511658E+02  0.60207327973E+02  0.74470750000E+01 0. -1.
<mgrwt>
<rscale>  0 0.14903471E+02</rscale>
<asrwt>0</asrwt>
<pdfrwt beam="2">  1        2 0.99799358E+00 0.14903471E+02</pdfrwt>
<pdfrwt beam="1">  1       -2 0.98096038E+00 0.14903471E+02</pdfrwt>
<totfact> 0.65841129E-13</totfact>
</mgrwt>
</event>
<event>
 4    1 -0.5011189E-019  0.1493786E+02  0.7818608E-02  0.1869971E+00
          2   -1    0    0  501    0  0.00000000000E+00  0.00000000000E+00  0.11934307608E+03  0.11934307611E+03  0.25500000000E-02 0. -1.
         -2   -1    0    0    0  501 -0.00000000000E+00 -0.00000000000E+00 -0.46742996667E+00  0.46743692220E+00  0.25500000000E-02 0.  1.
         31    1    1    2    0    0  0.33704336588E-01  0.38308123571E+00  0.62822998457E+02  0.63264017802E+02  0.74470750000E+01 0. -1.
        -31    1    1    2    0    0 -0.33704336588E-01 -0.38308123571E+00  0.56052647658E+02  0.56546495230E+02  0.74470750000E+01 0.  1.
<mgrwt>
<rscale>  0 0.14937864E+02</rscale>
<asrwt>0</asrwt>
<pdfrwt beam="1">  1        2 0.99067715E+00 0.14937864E+02</pdfrwt>
<pdfrwt beam="2">  1       -2 0.99277142E+00 0.14937864E+02</pdfrwt>
<totfact>-0.13926239E-13</totfact>
</mgrwt>
</event>
<event>
 4    1 -0.5011189E-019  0.1493732E+02  0.7818608E-02  0.1869987E+00
          2   -1    0    0  501    0  0.00000000000E+00  0.00000000000E+00  0.11864921044E+03  0.11864921046E+03  0.25500000000E-02 0.  1.
         -2   -1    0    0    0  501 -0.00000000000E+00 -0.00000000000E+00 -0.47012954768E+00  0.47013646327E+00  0.25500000000E-02 0. -1.
         31    1    1    2    0    0  0.33362217365E+00  0.45887287752E+00  0.59176544019E+02  0.59645990277E+02  0.74470750000E+01 0. -1.
        -31    1    1    2    0    0 -0.33362217365E+00 -0.45887287752E+00  0.59002536871E+02  0.59473356651E+02  0.74470750000E+01 0.  1.
<mgrwt>
<rscale>  0 0.14937324E+02</rscale>
<asrwt>0</asrwt>
<pdfrwt beam="1">  1        2 0.98496210E+00 0.14937324E+02</pdfrwt>
<pdfrwt beam="2">  1       -2 0.99845955E+00 0.14937324E+02</pdfrwt>
<totfact>-0.16692390E-13</totfact>
</mgrwt>
</event>
<event>
 4    1 -0.5011189E-019  0.1500565E+02  0.7818608E-02  0.1867896E+00
          2   -1    0    0  501    0  0.00000000000E+00  0.00000000000E+00  0.11968952043E+03  0.11968952046E+03  0.25500000000E-02 0.  1.
         -2   -1    0    0    0  501 -0.00000000000E+00 -0.00000000000E+00 -0.47031650987E+00  0.47032342271E+00  0.25500000000E-02 0. -1.
         31    1    1    2    0    0 -0.43929284328E+00  0.76706114989E+00  0.61437159007E+02  0.61893172433E+02  0.74470750000E+01 0.  1.
        -31    1    1    2    0    0  0.43929284328E+00 -0.76706114989E+00  0.57782044914E+02  0.58266671447E+02  0.74470750000E+01 0. -1.
<mgrwt>
<rscale>  0 0.15005649E+02</rscale>
<asrwt>0</asrwt>
<pdfrwt beam="1">  1        2 0.99356566E+00 0.15005649E+02</pdfrwt>
<pdfrwt beam="2">  1       -2 0.99888932E+00 0.15005649E+02</pdfrwt>
<totfact>-0.48366571E-14</totfact>
</mgrwt>
</event>
<event>
 4    1  0.5011189E-019  0.1491769E+02  0.7818608E-02  0.1870591E+00
         -2   -1    0    0    0  501 -0.00000000000E+00  0.00000000000E+00  0.11830143552E+03  0.11830143555E+03  0.25500000000E-02 0.  1.
          2   -1    0    0  501    0  0.00000000000E+00 -0.00000000000E+00 -0.47027293363E+00  0.47027984712E+00  0.25500000000E-02 0. -1.
         31    1    1    2    0    0 -0.88377519220E-01  0.38734530404E+00  0.57859259599E+02  0.58337901011E+02  0.74470750000E+01 0. -1.
        -31    1    1    2    0    0  0.88377519220E-01 -0.38734530404E+00  0.59971902990E+02  0.60433814387E+02  0.74470750000E+01 0.  1.
<mgrwt>
<rscale>  0 0.14917691E+02</rscale>
<asrwt>0</asrwt>
<pdfrwt beam="2">  1        2 0.99875127E+00 0.14917691E+02</pdfrwt>
<pdfrwt beam="1">  1       -2 0.98208764E+00 0.14917691E+02</pdfrwt>
<totfact> 0.35942811E-13</totfact>
</mgrwt>
</event>
<event>
 4    1  0.5011189E-019  0.1491543E+02  0.7818608E-02  0.1870660E+00
          2   -1    0    0  501    0  0.00000000000E+00  0.00000000000E+00  0.11988832872E+03  0.11988832874E+03  0.25500000000E-02 0.  1.
         -2   -1    0    0    0  501 -0.00000000000E+00 -0.00000000000E+00 -0.46390741839E+00  0.46391442674E+00  0.25500000000E-02 0. -1.
         31    1    1    2    0    0  0.31877980303E+00 -0.21234613908E+00  0.60591356436E+02  0.61048489844E+02  0.74470750000E+01 0. -1.
        -31    1    1    2    0    0 -0.31877980303E+00  0.21234613908E+00  0.58833064862E+02  0.59303753326E+02  0.74470750000E+01 0.  1.
<mgrwt>
<rscale>  0 0.14915429E+02</rscale>
<asrwt>0</asrwt>
<pdfrwt beam="1">  1        2 0.99515655E+00 0.14915429E+02</pdfrwt>
<pdfrwt beam="2">  1       -2 0.98533633E+00 0.14915429E+02</pdfrwt>
<totfact> 0.43250089E-13</totfact>
</mgrwt>
</event>
<event>
 4    1 -0.5011189E-019  0.1493282E+02  0.7818608E-02  0.1870126E+00
         -2   -1    0    0    0  501 -0.00000000000E+00  0.00000000000E+00  0.11981513127E+03  0.11981513129E+03  0.25500000000E-02 0. -1.
          2   -1    0    0  501    0  0.00000000000E+00 -0.00000000000E+00 -0.46527365103E+00  0.46528063880E+00  0.25500000000E-02 0.  1.
         31    1    1    2    0    0 -0.30647094723E+00 -0.83169672480E-01  0.63162540158E+02  0.63600835269E+02  0.74470750000E+01 0. -1.
        -31    1    1    2    0    0  0.30647094723E+00  0.83169672480E-01  0.56187317458E+02  0.56679576664E+02  0.74470750000E+01 0.  1.
<mgrwt>
<rscale>  0 0.14932816E+02</rscale>
<asrwt>0</asrwt>
<pdfrwt beam="2">  1        2 0.98822461E+00 0.14932816E+02</pdfrwt>
<pdfrwt beam="1">  1       -2 0.99456260E+00 0.14932816E+02</pdfrwt>
<totfact>-0.21723661E-13</totfact>
</mgrwt>
</event>
<event>
 4    1 -0.5011189E-019  0.1493785E+02  0.7818608E-02  0.1869971E+00
          2   -1    0    0  501    0  0.00000000000E+00  0.00000000000E+00  0.11870790913E+03  0.11870790916E+03  0.25500000000E-02 0. -1.
         -2   -1    0    0    0  501 -0.00000000000E+00 -0.00000000000E+00 -0.46992984631E+00  0.46993676484E+00  0.25500000000E-02 0.  1.
         31    1    1    2    0    0  0.73273009141E-01 -0.48000883062E+00  0.56724186586E+02  0.57213005928E+02  0.74470750000E+01 0.  1.
        -31    1    1    2    0    0 -0.73273009141E-01  0.48000883062E+00  0.61513792700E+02  0.61964839997E+02  0.74470750000E+01 0. -1.
<mgrwt>
<rscale>  0 0.14937845E+02</rscale>
<asrwt>0</asrwt>
<pdfrwt beam="1">  1        2 0.98544581E+00 0.14937845E+02</pdfrwt>
<pdfrwt beam="2">  1       -2 0.99803905E+00 0.14937845E+02</pdfrwt>
<totfact>-0.18902262E-13</totfact>
</mgrwt>
</event>
<event>
 4    1 -0.5011189E-019  0.1492241E+02  0.7818608E-02  0.1870446E+00
          2   -1    0    0  501    0  0.00000000000E+00  0.00000000000E+00  0.11877724768E+03  0.11877724771E+03  0.25500000000E-02 0. -1.
         -2   -1    0    0    0  501 -0.00000000000E+00 -0.00000000000E+00 -0.46868532384E+00  0.46869226075E+00  0.25500000000E-02 0.  1.
         31    1    1    2    0    0  0.35125170757E+00  0.21882226515E+00  0.60740080364E+02  0.61196303399E+02  0.74470750000E+01 0. -1.
        -31    1    1    2    0    0 -0.35125170757E+00 -0.21882226515E+00  0.57568481996E+02  0.58049636573E+02  0.74470750000E+01 0. -1.
<mgrwt>
<rscale>  0 0.14922408E+02</rscale>
<asrwt>0</asrwt>
<pdfrwt beam="1">  1        2 0.98600886E+00 0.14922408E+02</pdfrwt>
<pdfrwt beam="2">  1       -2 0.99540864E+00 0.14922408E+02</pdfrwt>
<totfact>-0.29133962E-13</totfact>
</mgrwt>
</event>
<event>
 4    1 -0.5011189E-019  0.1495483E+02  0.7818608E-02  0.1869450E+00
         -2   -1    0    0    0  501 -0.00000000000E+00  0.00000000000E+00  0.11964818824E+03  0.11964818827E+03  0.25500000000E-02 0. -1.
          2   -1    0    0  501    0  0.00000000000E+00 -0.00000000000E+00 -0.46729767164E+00  0.46730462915E+00  0.25500000000E-02 0.  1.
         31    1    1    2    0    0  0.63461905589E+00  0.18605522126E+00  0.60588964727E+02  0.61048496547E+02  0.74470750000E+01 0. -1.
        -31    1    1    2    0    0 -0.63461905589E+00 -0.18605522126E+00  0.58591925844E+02  0.59066996352E+02  0.74470750000E+01 0. -1.
<mgrwt>
<rscale>  0 0.14954831E+02</rscale>
<asrwt>0</asrwt>
<pdfrwt beam="2">  1        2 0.99250141E+00 0.14954831E+02</pdfrwt>
<pdfrwt beam="1">  1       -2 0.99319894E+00 0.14954831E+02</pdfrwt>
<totfact>-0.13096180E-13</totfact>
</mgrwt>
</event>
<event>
 4    1 -0.5011189E-019  0.1497704E+02  0.7818608E-02  0.1868770E+00
         -2   -1    0    0    0  501 -0.00000000000E+00  0.00000000000E+00  0.11950655750E+03  0.11950655753E+03  0.25500000000E-02 0.  1.
          2   -1    0    0  501    0  0.00000000000E+00 -0.00000000000E+00 -0.46924190265E+00  0.46924883133E+00  0.25500000000E-02 0. -1.
         31    1    1    2    0    0 -0.37003693273E+00  0.26900785511E+00  0.64645994260E+02  0.65075131905E+02  0.74470750000E+01 0.  1.
        -31    1    1    2    0    0  0.37003693273E+00 -0.26900785511E+00  0.54391321340E+02  0.54900674456E+02  0.74470750000E+01 0. -1.
<mgrwt>
<rscale>  0 0.14977036E+02</rscale>
<asrwt>0</asrwt>
<pdfrwt beam="2">  1        2 0.99660999E+00 0.14977036E+02</pdfrwt>
<pdfrwt beam="1">  1       -2 0.99204391E+00 0.14977036E+02</pdfrwt>
<totfact>-0.64067402E-14</totfact>
</mgrwt>
</event>
<event>
 4    1  0.5011189E-019  0.1490500E+02  0.7818608E-02  0.1870981E+00
          2   -1    0    0  501    0  0.00000000000E+00  0.00000000000E+00  0.11975791377E+03  0.11975791380E+03  0.25500000000E-02 0.  1.
         -2   -1    0    0    0  501 -0.00000000000E+00 -0.00000000000E+00 -0.46376347891E+00  0.46377048944E+00  0.25500000000E-02 0. -1.
         31    1    1    2    0    0  0.98471873079E-01  0.13050941797E+00  0.61523394427E+02  0.61972685252E+02  0.74470750000E+01 0.  1.
        -31    1    1    2    0    0 -0.98471873079E-01 -0.13050941797E+00  0.57770755868E+02  0.58248999039E+02  0.74470750000E+01 0.  1.
<mgrwt>
<rscale>  0 0.14905002E+02</rscale>
<asrwt>0</asrwt>
<pdfrwt beam="1">  1        2 0.99407700E+00 0.14905002E+02</pdfrwt>
<pdfrwt beam="2">  1       -2 0.98502766E+00 0.14905002E+02</pdfrwt>
<totfact> 0.52339888E-13</totfact>
</mgrwt>
</event>
<event>
 4    1  0.5011189E-019  0.1492445E+02  0.7818608E-02  0.1870383E+00
          2   -1    0    0  501    0  0.00000000000E+00  0.00000000000E+00  0.12023044278E+03  0.12023044281E+03  0.25500000000E-02 0. -1.
         -2   -1    0    0    0  501 -0.00000000000E+00 -0.00000000000E+00 -0.46314709911E+00  0.46315411897E+00  0.25500000000E-02 0.  1.
         31    1    1    2    0    0  0.36083690547E+00 -0.23966105444E+00  0.58302250937E+02  0.58777538491E+02  0.74470750000E+01 0.  1.
        -31    1    1    2    0    0 -0.36083690547E+00  0.23966105444E+00  0.61465044743E+02  0.61916058434E+02  0.74470750000E+01 0. -1.
<mgrwt>
<rscale>  0 0.14924451E+02</rscale>
<asrwt>0</asrwt>
<pdfrwt beam="1">  1        2 0.99797910E+00 0.14924451E+02</pdfrwt>
<pdfrwt beam="2">  1       -2 0.98373843E+00 0.14924451E+02</pdfrwt>
<totfact> 0.37234002E-13</totfact>
</mgrwt>
</event>
<event>
 4    1  0.5011189E-019  0.1492088E+02  0.7818608E-02  0.1870492E+00
          2   -1    0    0  501    0  0.00000000000E+00  0.00000000000E+00  0.11986256865E+03  0.11986256868E+03  0.25500000000E-02 0. -1.
         -2   -1    0    0    0  501 -0.00000000000E+00 -0.00000000000E+00 -0.46434642645E+00  0.46435342817E+00  0.25500000000E-02 0.  1.
         31    1    1    2    0    0  0.31516754508E+00  0.13777815151E+00  0.61993393196E+02  0.62440035550E+02  0.74470750000E+01 0.  1.
        -31    1    1    2    0    0 -0.31516754508E+00 -0.13777815151E+00  0.57404829031E+02  0.57886886559E+02  0.74470750000E+01 0.  1.
<mgrwt>
<rscale>  0 0.14920882E+02</rscale>
<asrwt>0</asrwt>
<pdfrwt beam="1">  1        2 0.99494718E+00 0.14920882E+02</pdfrwt>
<pdfrwt beam="2">  1       -2 0.98626435E+00 0.14920882E+02</pdfrwt>
<totfact> 0.32744674E-13</totfact>
</mgrwt>
</event>
<event>
 4    1  0.5011189E-019  0.1493538E+02  0.7818608E-02  0.1870047E+00
          2   -1    0    0  501    0  0.00000000000E+00  0.00000000000E+00  0.11976264749E+03  0.11976264752E+03  0.25500000000E-02 0. -1.
         -2   -1    0    0    0  501 -0.00000000000E+00 -0.00000000000E+00 -0.46563745107E+00  0.46564443338E+00  0.25500000000E-02 0.  1.
         31    1    1    2    0    0  0.40123660995E+00  0.33145842268E+00  0.58108180175E+02  0.58585752404E+02  0.74470750000E+01 0.  1.
        -31    1    1    2    0    0 -0.40123660995E+00 -0.33145842268E+00  0.61188829865E+02  0.61642539547E+02  0.74470750000E+01 0.  1.
<mgrwt>
<rscale>  0 0.14935380E+02</rscale>
<asrwt>0</asrwt>
<pdfrwt beam="1">  1        2 0.99413164E+00 0.14935380E+02</pdfrwt>
<pdfrwt beam="2">  1       -2 0.98899262E+00 0.14935380E+02</pdfrwt>
<totfact> 0.79046166E-14</totfact>
</mgrwt>
</event>
<event>
 4    1 -0.5011189E-019  0.1500884E+02  0.7818608E-02  0.1867799E+00
          2   -1    0    0  501    0  0.00000000000E+00  0.00000000000E+00  0.12002611528E+03  0.12002611531E+03  0.25500000000E-02 0. -1.
         -2   -1    0    0    0  501 -0.00000000000E+00 -0.00000000000E+00 -0.46919719812E+00  0.46920412745E+00  0.25500000000E-02 0.  1.
         31    1    1    2    0    0  0.15212614363E+00  0.89473637699E+00  0.58304344171E+02  0.58785025056E+02  0.74470750000E+01 0.  1.
        -31    1    1    2    0    0 -0.15212614363E+00 -0.89473637699E+00  0.61252573915E+02  0.61710294382E+02  0.74470750000E+01 0. -1.
<mgrwt>
<rscale>  0 0.15008842E+02</rscale>
<asrwt>0</asrwt>
<pdfrwt beam="1">  1        2 0.99633961E+00 0.15008842E+02</pdfrwt>
<pdfrwt beam="2">  1       -2 0.99653228E+00 0.15008842E+02</pdfrwt>
<totfact>-0.87525232E-14</totfact>
</mgrwt>
</event>
<event>
 4    1 -0.5011189E-019  0.1493987E+02  0.7818608E-02  0.1869909E+00
          2   -1    0    0  501    0  0.00000000000E+00  0.00000000000E+00  0.11924269239E+03  0.11924269242E+03  0.25500000000E-02 0.  1.
         -2   -1    0    0    0  501 -0.00000000000E+00 -0.00000000000E+00 -0.46794900488E+00  0.46795595270E+00  0.25500000000E-02 0. -1.
         31    1    1    2    0    0 -0.53354793767E+00  0.18668467383E-01  0.61283024911E+02  0.61736157073E+02  0.74470750000E+01 0.  1.
        -31    1    1    2    0    0  0.53354793767E+00 -0.18668467383E-01  0.57491718474E+02  0.57974491296E+02  0.74470750000E+01 0. -1.
<mgrwt>
<rscale>  0 0.14939868E+02</rscale>
<asrwt>0</asrwt>
<pdfrwt beam="1">  1        2 0.98985140E+00 0.14939868E+02</pdfrwt>
<pdfrwt beam="2">  1       -2 0.99386621E+00 0.14939868E+02</pdfrwt>
<totfact>-0.17555820E-13</totfact>
</mgrwt>
</event>
<event>
 4    1  0.5011189E-019  0.1490332E+02  0.7818608E-02  0.1871033E+00
         -2   -1    0    0    0  501 -0.00000000000E+00  0.00000000000E+00  0.11850872275E+03  0.11850872278E+03  0.25500000000E-02 0.  1.
          2   -1    0    0  501    0  0.00000000000E+00 -0.00000000000E+00 -0.46854635439E+00  0.46855329335E+00  0.25500000000E-02 0. -1.
         31    1    1    2    0    0 -0.23688706390E+00 -0.92669021274E-01  0.58540072089E+02  0.59012402673E+02  0.74470750000E+01 0.  1.
        -31    1    1    2    0    0  0.23688706390E+00  0.92669021274E-01  0.59500104306E+02  0.59964873397E+02  0.74470750000E+01 0.  1.
<mgrwt>
<rscale>  0 0.14903321E+02</rscale>
<asrwt>0</asrwt>
<pdfrwt beam="2">  1        2 0.99510580E+00 0.14903321E+02</pdfrwt>
<pdfrwt beam="1">  1       -2 0.98378736E+00 0.14903321E+02</pdfrwt>
<totfact> 0.65727684E-13</totfact>
</mgrwt>
</event>
<event>
 4    1  0.5011189E-019  0.1491176E+02  0.7818608E-02  0.1870773E+00
         -2   -1    0    0    0  501 -0.00000000000E+00  0.00000000000E+00  0.11812521066E+03  0.11812521069E+03  0.25500000000E-02 0. -1.
          2   -1    0    0  501    0  0.00000000000E+00 -0.00000000000E+00 -0.47059991514E+00  0.47060682383E+00  0.25500000000E-02 0.  1.
         31    1    1    2    0    0  0.26270010993E+00  0.18936310875E+00  0.60117819895E+02  0.60578181425E+02  0.74470750000E+01 0. -1.
        -31    1    1    2    0    0 -0.26270010993E+00 -0.18936310875E+00  0.57536790852E+02  0.58017636088E+02  0.74470750000E+01 0.  1.
<mgrwt>
<rscale>  0 0.14911757E+02</rscale>
<asrwt>0</asrwt>
<pdfrwt beam="2">  1        2 0.99943703E+00 0.14911757E+02</pdfrwt>
<pdfrwt beam="1">  1       -2 0.98063320E+00 0.14911757E+02</pdfrwt>
<totfact> 0.22987040E-13</totfact>
</mgrwt>
</event>
<event>
 4    1 -0.5011189E-019  0.1496358E+02  0.7818608E-02  0.1869182E+00
          2   -1    0    0  501    0  0.00000000000E+00  0.00000000000E+00  0.11953687738E+03  0.11953687740E+03  0.25500000000E-02 0. -1.
         -2   -1    0    0    0  501 -0.00000000000E+00 -0.00000000000E+00 -0.46828039566E+00  0.46828733857E+00  0.25500000000E-02 0.  1.
         31    1    1    2    0    0  0.49339729055E+00 -0.12157745383E+00  0.63623983248E+02  0.64060349611E+02  0.74470750000E+01 0. -1.
        -31    1    1    2    0    0 -0.49339729055E+00  0.12157745383E+00  0.55444613732E+02  0.55944815129E+02  0.74470750000E+01 0.  1.
<mgrwt>
<rscale>  0 0.14963582E+02</rscale>
<asrwt>0</asrwt>
<pdfrwt beam="1">  1        2 0.99228667E+00 0.14963582E+02</pdfrwt>
<pdfrwt beam="2">  1       -2 0.99457685E+00 0.14963582E+02</pdfrwt>
<totfact>-0.14843662E-13</totfact>
</mgrwt>
</event>
<event>
 4    1 -0.5011189E-019  0.1491758E+02  0.7818608E-02  0.1870594E+00
          2   -1    0    0  501    0  0.00000000000E+00  0.00000000000E+00  0.11848583653E+03  0.11848583656E+03  0.25500000000E-02 0.  1.
         -2   -1    0    0    0  501 -0.00000000000E+00 -0.00000000000E+00 -0.46953382755E+00  0.46954075192E+00  0.25500000000E-02 0. -1.
         31    1    1    2    0    0  0.17178638194E+00  0.46371459095E-01  0.62022926503E+02  0.62468664136E+02  0.74470750000E+01 0.  1.
        -31    1    1    2    0    0 -0.17178638194E+00 -0.46371459095E-01  0.55993376202E+02  0.56486713176E+02  0.74470750000E+01 0. -1.
<mgrwt>
<rscale>  0 0.14917576E+02</rscale>
<asrwt>0</asrwt>
<pdfrwt beam="1">  1        2 0.98360629E+00 0.14917576E+02</pdfrwt>
<pdfrwt beam="2">  1       -2 0.99719394E+00 0.14917576E+02</pdfrwt>
<totfact>-0.33491039E-13</totfact>
</mgrwt>
</event>
<event>
 4    1  0.5011189E-019  0.1491370E+02  0.7818608E-02  0.1870714E+00
         -2   -1    0    0    0  501 -0.00000000000E+00  0.00000000000E+00  0.11835748667E+03  0.11835748669E+03  0.25500000000E-02 0.  1.
          2   -1    0    0  501    0  0.00000000000E+00 -0.00000000000E+00 -0.46979853610E+00  0.46980545657E+00  0.25500000000E-02 0. -1.
         31    1    1    2    0    0  0.24755491126E+00  0.26349566977E+00  0.57969723909E+02  0.58447228588E+02  0.74470750000E+01 0. -1.
        -31    1    1    2    0    0 -0.24755491126E+00 -0.26349566977E+00  0.59917964222E+02  0.60380063563E+02  0.74470750000E+01 0.  1.
<mgrwt>
<rscale>  0 0.14913697E+02</rscale>
<asrwt>0</asrwt>
<pdfrwt beam="2">  1        2 0.99774963E+00 0.14913697E+02</pdfrwt>
<pdfrwt beam="1">  1       -2 0.98254719E+00 0.14913697E+02</pdfrwt>
<totfact> 0.52759705E-13</totfact>
</mgrwt>
</event>
<event>
 4    1 -0.5011189E-019  0.1495865E+02  0.7818608E-02  0.1869333E+00
         -2   -1    0    0    0  501 -0.00000000000E+00  0.00000000000E+00  0.12001896547E+03  0.12001896550E+03  0.25500000000E-02 0. -1.
          2   -1    0    0  501    0  0.00000000000E+00 -0.00000000000E+00 -0.46609190934E+00  0.46609888484E+00  0.25500000000E-02 0.  1.
         31    1    1    2    0    0 -0.31880744892E+00  0.28574838835E+00  0.55378964788E+02  0.55879083362E+02  0.74470750000E+01 0.  1.
        -31    1    1    2    0    0  0.31880744892E+00 -0.28574838835E+00  0.64173908773E+02  0.64605981020E+02  0.74470750000E+01 0.  1.
<mgrwt>
<rscale>  0 0.14958648E+02</rscale>
<asrwt>0</asrwt>
<pdfrwt beam="2">  1        2 0.98996231E+00 0.14958648E+02</pdfrwt>
<pdfrwt beam="1">  1       -2 0.99625481E+00 0.14958648E+02</pdfrwt>
<totfact>-0.16315992E-13</totfact>
</mgrwt>
</event>
<event>
 4    1 -0.5011189E-019  0.1498520E+02  0.7818608E-02  0.1868520E+00
         -2   -1    0    0    0  501 -0.00000000000E+00  0.00000000000E+00  0.11967686486E+03  0.11967686488E+03  0.25500000000E-02 0.  1.
          2   -1    0    0  501    0  0.00000000000E+00 -0.00000000000E+00 -0.46908527281E+00  0.46909220380E+00  0.25500000000E-02 0. -1.
         31    1    1    2    0    0 -0.35620706782E+00  0.60291531324E+00  0.56111322716E+02  0.56607683696E+02  0.74470750000E+01 0. -1.
        -31    1    1    2    0    0  0.35620706782E+00 -0.60291531324E+00  0.63096456868E+02  0.63538273393E+02  0.74470750000E+01 0. -1.
<mgrwt>
<rscale>  0 0.14985202E+02</rscale>
<asrwt>0</asrwt>
<pdfrwt beam="2">  1        2 0.99628417E+00 0.14985202E+02</pdfrwt>
<pdfrwt beam="1">  1       -2 0.99345084E+00 0.14985202E+02</pdfrwt>
<totfact>-0.93844052E-14</totfact>
</mgrwt>
</event>
<event>
 4    1 -0.5011189E-019  0.1497027E+02  0.7818608E-02  0.1868977E+00
         -2   -1    0    0    0  501 -0.00000000000E+00  0.00000000000E+00  0.12035234559E+03  0.12035234562E+03  0.25500000000E-02 0. -1.
          2   -1    0    0  501    0  0.00000000000E+00 -0.00000000000E+00 -0.46552318641E+00  0.46553017043E+00  0.25500000000E-02 0.  1.
         31    1    1    2    0    0 -0.27559957552E+00 -0.29320461857E+00  0.54798614514E+02  0.55303788322E+02  0.74470750000E+01 0.  1.
        -31    1    1    2    0    0  0.27559957552E+00  0.29320461857E+00  0.65088207892E+02  0.65514087468E+02  0.74470750000E+01 0. -1.
<mgrwt>
<rscale>  0 0.14970268E+02</rscale>
<asrwt>0</asrwt>
<pdfrwt beam="2">  1        2 0.98876963E+00 0.14970268E+02</pdfrwt>
<pdfrwt beam="1">  1       -2 0.99900673E+00 0.14970268E+02</pdfrwt>
<totfact>-0.65682287E-14</totfact>
</mgrwt>
</event>
<event>
 4    1 -0.5011189E-019  0.1490666E+02  0.7818608E-02  0.1870930E+00
          2   -1    0    0  501    0  0.00000000000E+00  0.00000000000E+00  0.11848679353E+03  0.11848679356E+03  0.25500000000E-02 0.  1.
         -2   -1    0    0    0  501 -0.00000000000E+00 -0.00000000000E+00 -0.46884330014E+00  0.46885023470E+00  0.25500000000E-02 0. -1.
         31    1    1    2    0    0 -0.30307381763E+00  0.31554435206E-01  0.59164106096E+02  0.59631730024E+02  0.74470750000E+01 0.  1.
        -31    1    1    2    0    0  0.30307381763E+00 -0.31554435206E-01  0.58853844135E+02  0.59323913769E+02  0.74470750000E+01 0. -1.
<mgrwt>
<rscale>  0 0.14906663E+02</rscale>
<asrwt>0</asrwt>
<pdfrwt beam="1">  1        2 0.98360849E+00 0.14906663E+02</pdfrwt>
<pdfrwt beam="2">  1       -2 0.99573324E+00 0.14906663E+02</pdfrwt>
<totfact>-0.42066521E-13</totfact>
</mgrwt>
</event>
<event>
 4    1  0.5011189E-019  0.1491592E+02  0.7818608E-02  0.1870645E+00
          2   -1    0    0  501    0  0.00000000000E+00  0.00000000000E+00  0.12002737889E+03  0.12002737892E+03  0.25500000000E-02 0. -1.
         -2   -1    0    0    0  501 -0.00000000000E+00 -0.00000000000E+00 -0.46340054205E+00  0.46340755806E+00  0.25500000000E-02 0.  1.
         31    1    1    2    0    0  0.23573533159E+00  0.32551834485E+00  0.59998346769E+02  0.60460086623E+02  0.74470750000E+01 0. -1.
        -31    1    1    2    0    0 -0.23573533159E+00 -0.32551834485E+00  0.59565631582E+02  0.60030699856E+02  0.74470750000E+01 0.  1.
<mgrwt>
<rscale>  0 0.14915921E+02</rscale>
<asrwt>0</asrwt>
<pdfrwt beam="1">  1        2 0.99630213E+00 0.14915921E+02</pdfrwt>
<pdfrwt beam="2">  1       -2 0.98426828E+00 0.14915921E+02</pdfrwt>
<totfact> 0.49817940E-13</totfact>
</mgrwt>
</event>
<event>
 4    1  0.5011189E-019  0.1491915E+02  0.7818608E-02  0.1870546E+00
         -2   -1    0    0    0  501 -0.00000000000E+00  0.00000000000E+00  0.11882182904E+03  0.11882182907E+03  0.25500000000E-02 0. -1.
          2   -1    0    0  501    0  0.00000000000E+00 -0.00000000000E+00 -0.46830480823E+00  0.46831175078E+00  0.25500000000E-02 0.  1.
         31    1    1    2    0    0 -0.30566075511E+00  0.13899780021E+00  0.57007936723E+02  0.57493273732E+02  0.74470750000E+01 0.  1.
        -31    1    1    2    0    0  0.30566075511E+00 -0.13899780021E+00  0.61345587511E+02  0.61796867089E+02  0.74470750000E+01 0.  1.
<mgrwt>
<rscale>  0 0.14919149E+02</rscale>
<asrwt>0</asrwt>
<pdfrwt beam="2">  1        2 0.99460514E+00 0.14919149E+02</pdfrwt>
<pdfrwt beam="1">  1       -2 0.98637435E+00 0.14919149E+02</pdfrwt>
<totfact> 0.32545222E-13</totfact>
</mgrwt>
</event>
<event>
 4    1 -0.5011189E-019  0.1491653E+02  0.7818608E-02  0.1870626E+00
         -2   -1    0    0    0  501 -0.00000000000E+00  0.00000000000E+00  0.12014991144E+03  0.12014991147E+03  0.25500000000E-02 0. -1.
          2   -1    0    0  501    0  0.00000000000E+00 -0.00000000000E+00 -0.46296563360E+00  0.46297265621E+00  0.25500000000E-02 0.  1.
         31    1    1    2    0    0 -0.22912755591E+00  0.29157633015E+00  0.61226668684E+02  0.61679019127E+02  0.74470750000E+01 0. -1.
        -31    1    1    2    0    0  0.22912755591E+00 -0.29157633015E+00  0.58460277125E+02  0.58933864999E+02  0.74470750000E+01 0. -1.
<mgrwt>
<rscale>  0 0.14916528E+02</rscale>
<asrwt>0</asrwt>
<pdfrwt beam="2">  1        2 0.98335195E+00 0.14916528E+02</pdfrwt>
<pdfrwt beam="1">  1       -2 0.99731171E+00 0.14916528E+02</pdfrwt>
<totfact>-0.33932063E-13</totfact>
</mgrwt>
</event>
<event>
 4    1 -0.5011189E-019  0.1493368E+02  0.7818608E-02  0.1870099E+00
         -2   -1    0    0    0  501 -0.00000000000E+00  0.00000000000E+00  0.12022107982E+03  0.12022107985E+03  0.25500000000E-02 0. -1.
          2   -1    0    0  501    0  0.00000000000E+00 -0.00000000000E+00 -0.46375600374E+00  0.46376301438E+00  0.25500000000E-02 0.  1.
         31    1    1    2    0    0  0.23601220393E+00  0.55932301500E-02  0.63829569380E+02  0.64262964344E+02  0.74470750000E+01 0. -1.
        -31    1    1    2    0    0 -0.23601220393E+00 -0.55932301500E-02  0.55927754436E+02  0.56421878517E+02  0.74470750000E+01 0.  1.
<mgrwt>
<rscale>  0 0.14933676E+02</rscale>
<asrwt>0</asrwt>
<pdfrwt beam="2">  1        2 0.98502648E+00 0.14933676E+02</pdfrwt>
<pdfrwt beam="1">  1       -2 0.99790672E+00 0.14933676E+02</pdfrwt>
<totfact>-0.21302160E-13</totfact>
</mgrwt>
</event>
<event>
 4    1  0.5011189E-019  0.1493216E+02  0.7818608E-02  0.1870146E+00
         -2   -1    0    0    0  501 -0.00000000000E+00  0.00000000000E+00  0.11875653521E+03  0.11875653523E+03  0.25500000000E-02 0.  1.
          2   -1    0    0  501    0  0.00000000000E+00 -0.00000000000E+00 -0.46937969815E+00  0.46938662479E+00  0.25500000000E-02 0. -1.
         31    1    1    2    0    0 -0.47265052883E+00  0.91281667046E-01  0.60958438667E+02  0.61413531910E+02  0.74470750000E+01 0. -1.
        -31    1    1    2    0    0  0.47265052883E+00 -0.91281667046E-01  0.57328716841E+02  0.57812389949E+02  0.74470750000E+01 0.  1.
<mgrwt>
<rscale>  0 0.14932156E+02</rscale>
<asrwt>0</asrwt>
<pdfrwt beam="2">  1        2 0.99687687E+00 0.14932156E+02</pdfrwt>
<pdfrwt beam="1">  1       -2 0.98584334E+00 0.14932156E+02</pdfrwt>
<totfact> 0.28481395E-13</totfact>
</mgrwt>
</event>
<event>
 4    1  0.5011189E-019  0.1497217E+02  0.7818608E-02  0.1868919E+00
          2   -1    0    0  501    0  0.00000000000E+00  0.00000000000E+00  0.12023376448E+03  0.12023376451E+03  0.25500000000E-02 0. -1.
         -2   -1    0    0    0  501 -0.00000000000E+00 -0.00000000000E+00 -0.46610068739E+00  0.46610766276E+00  0.25500000000E-02 0.  1.
         31    1    1    2    0    0  0.32598054716E+00  0.17669924659E+00  0.65261907587E+02  0.65686474969E+02  0.74470750000E+01 0. -1.
        -31    1    1    2    0    0 -0.32598054716E+00 -0.17669924659E+00  0.54505756206E+02  0.55013397201E+02  0.74470750000E+01 0.  1.
<mgrwt>
<rscale>  0 0.14972169E+02</rscale>
<asrwt>0</asrwt>
<pdfrwt beam="1">  1        2 0.99803099E+00 0.14972169E+02</pdfrwt>
<pdfrwt beam="2">  1       -2 0.98998773E+00 0.14972169E+02</pdfrwt>
<totfact> 0.49373171E-15</totfact>
</mgrwt>
</event>
<event>
 4    1  0.5011189E-019  0.1490402E+02  0.7818608E-02  0.1871012E+00
         -2   -1    0    0    0  501 -0.00000000000E+00  0.00000000000E+00  0.11914403585E+03  0.11914403588E+03  0.25500000000E-02 0.  1.
          2   -1    0    0  501    0  0.00000000000E+00 -0.00000000000E+00 -0.46609155165E+00  0.46609852715E+00  0.25500000000E-02 0. -1.
         31    1    1    2    0    0  0.22613184151E+00  0.23997318478E-01  0.60524168933E+02  0.60981027070E+02  0.74470750000E+01 0.  1.
        -31    1    1    2    0    0 -0.22613184151E+00 -0.23997318478E-01  0.58153775366E+02  0.58629107334E+02  0.74470750000E+01 0. -1.
<mgrwt>
<rscale>  0 0.14904019E+02</rscale>
<asrwt>0</asrwt>
<pdfrwt beam="2">  1        2 0.98993343E+00 0.14904019E+02</pdfrwt>
<pdfrwt beam="1">  1       -2 0.98902028E+00 0.14904019E+02</pdfrwt>
<totfact> 0.10696134E-13</totfact>
</mgrwt>
</event>
<event>
 4    1  0.5011189E-019  0.1495023E+02  0.7818608E-02  0.1869591E+00
         -2   -1    0    0    0  501 -0.00000000000E+00  0.00000000000E+00  0.11874707431E+03  0.11874707434E+03  0.25500000000E-02 0. -1.
          2   -1    0    0  501    0  0.00000000000E+00 -0.00000000000E+00 -0.47055400326E+00  0.47056091262E+00  0.25500000000E-02 0.  1.
         31    1    1    2    0    0 -0.58546979789E+00  0.20702712116E+00  0.60581664264E+02  0.61040827372E+02  0.74470750000E+01 0. -1.
        -31    1    1    2    0    0  0.58546979789E+00 -0.20702712116E+00  0.57694856041E+02  0.58176807877E+02  0.74470750000E+01 0.  1.
<mgrwt>
<rscale>  0 0.14950227E+02</rscale>
<asrwt>0</asrwt>
<pdfrwt beam="2">  1        2 0.99936068E+00 0.14950227E+02</pdfrwt>
<pdfrwt beam="1">  1       -2 0.98577482E+00 0.14950227E+02</pdfrwt>
<totfact> 0.78382842E-14</totfact>
</mgrwt>
</event>
<event>
 4    1 -0.5011189E-019  0.1495907E+02  0.7818608E-02  0.1869320E+00
          2   -1    0    0  501    0  0.00000000000E+00  0.00000000000E+00  0.11910589809E+03  0.11910589812E+03  0.25500000000E-02 0.  1.
         -2   -1    0    0    0  501 -0.00000000000E+00 -0.00000000000E+00 -0.46969140087E+00  0.46969832291E+00  0.25500000000E-02 0. -1.
         31    1    1    2    0    0 -0.33972273128E+00  0.58281106547E+00  0.60689295540E+02  0.61148218286E+02  0.74470750000E+01 0.  1.
        -31    1    1    2    0    0  0.33972273128E+00 -0.58281106547E+00  0.57946911148E+02  0.58427378154E+02  0.74470750000E+01 0.  1.
<mgrwt>
<rscale>  0 0.14959068E+02</rscale>
<asrwt>0</asrwt>
<pdfrwt beam="1">  1        2 0.98873469E+00 0.14959068E+02</pdfrwt>
<pdfrwt beam="2">  1       -2 0.99754777E+00 0.14959068E+02</pdfrwt>
<totfact>-0.14203819E-13</totfact>
</mgrwt>
</event>
<event>
 4    1 -0.5011189E-019  0.1490955E+02  0.7818608E-02  0.1870841E+00
         -2   -1    0    0    0  501 -0.00000000000E+00  0.00000000000E+00  0.12016709665E+03  0.12016709668E+03  0.25500000000E-02 0.  1.
          2   -1    0    0  501    0  0.00000000000E+00 -0.00000000000E+00 -0.46246647959E+00  0.46247350977E+00  0.25500000000E-02 0. -1.
         31    1    1    2    0    0 -0.16657683873E-02 -0.16507131478E+00  0.62245626862E+02  0.62689745899E+02  0.74470750000E+01 0.  1.
        -31    1    1    2    0    0  0.16657683873E-02  0.16507131478E+00  0.57459003306E+02  0.57939824286E+02  0.74470750000E+01 0. -1.
<mgrwt>
<rscale>  0 0.14909551E+02</rscale>
<asrwt>0</asrwt>
<pdfrwt beam="2">  1        2 0.98229635E+00 0.14909551E+02</pdfrwt>
<pdfrwt beam="1">  1       -2 0.99744969E+00 0.14909551E+02</pdfrwt>
<totfact>-0.39061119E-13</totfact>
</mgrwt>
</event>
<event>
 4    1  0.5011189E-019  0.1494804E+02  0.7818608E-02  0.1869658E+00
         -2   -1    0    0    0  501 -0.00000000000E+00  0.00000000000E+00  0.11892569414E+03  0.11892569417E+03  0.25500000000E-02 0.  1.
          2   -1    0    0  501    0  0.00000000000E+00 -0.00000000000E+00 -0.46970998295E+00  0.46971690472E+00  0.25500000000E-02 0. -1.
         31    1    1    2    0    0 -0.51442749384E+00 -0.31290789501E+00  0.60816002303E+02  0.61273220979E+02  0.74470750000E+01 0.  1.
        -31    1    1    2    0    0  0.51442749384E+00  0.31290789501E+00  0.57639981857E+02  0.58122190096E+02  0.74470750000E+01 0. -1.
<mgrwt>
<rscale>  0 0.14948043E+02</rscale>
<asrwt>0</asrwt>
<pdfrwt beam="2">  1        2 0.99758115E+00 0.14948043E+02</pdfrwt>
<pdfrwt beam="1">  1       -2 0.98724480E+00 0.14948043E+02</pdfrwt>
<totfact> 0.14027707E-13</totfact>
</mgrwt>
</event>
<event>
 4    1 -0.5011189E-019  0.1495756E+02  0.7818608E-02  0.1869366E+00
          2   -1    0    0  501    0  0.00000000000E+00  0.00000000000E+00  0.11890787739E+03  0.11890787741E+03  0.25500000000E-02 0.  1.
         -2   -1    0    0    0  501 -0.00000000000E+00 -0.00000000000E+00 -0.47037854715E+00  0.47038545908E+00  0.25500000000E-02 0. -1.
         31    1    1    2    0    0 -0.18779077601E+00  0.22968020191E-02  0.53937119395E+02  0.54449123458E+02  0.74470750000E+01 0. -1.
        -31    1    1    2    0    0  0.18779077601E+00 -0.22968020191E-02  0.64500379445E+02  0.64929139416E+02  0.74470750000E+01 0.  1.
<mgrwt>
<rscale>  0 0.14957557E+02</rscale>
<asrwt>0</asrwt>
<pdfrwt beam="1">  1        2 0.98710300E+00 0.14957557E+02</pdfrwt>
<pdfrwt beam="2">  1       -2 0.99899485E+00 0.14957557E+02</pdfrwt>
<totfact>-0.82251356E-14</totfact>
</mgrwt>
</event>
<event>
 4    1  0.5011189E-019  0.1490588E+02  0.7818608E-02  0.1870954E+00
          2   -1    0    0  501    0  0.00000000000E+00  0.00000000000E+00  0.11996638738E+03  0.11996638740E+03  0.25500000000E-02 0.  1.
         -2   -1    0    0    0  501 -0.00000000000E+00 -0.00000000000E+00 -0.46301214800E+00  0.46301916991E+00  0.25500000000E-02 0. -1.
         31    1    1    2    0    0 -0.88744815190E-01 -0.22848074968E+00  0.61086953163E+02  0.61539701429E+02  0.74470750000E+01 0.  1.
        -31    1    1    2    0    0  0.88744815190E-01  0.22848074968E+00  0.58416422066E+02  0.58889705145E+02  0.74470750000E+01 0. -1.
<mgrwt>
<rscale>  0 0.14905881E+02</rscale>
<asrwt>0</asrwt>
<pdfrwt beam="1">  1        2 0.99579459E+00 0.14905881E+02</pdfrwt>
<pdfrwt beam="2">  1       -2 0.98344459E+00 0.14905881E+02</pdfrwt>
<totfact> 0.65611215E-13</totfact>
</mgrwt>
</event>
<event>
 4    1 -0.5011189E-019  0.1498956E+02  0.7818608E-02  0.1868387E+00
          2   -1    0    0  501    0  0.00000000000E+00  0.00000000000E+00  0.12018409142E+03  0.12018409145E+03  0.25500000000E-02 0.  1.
         -2   -1    0    0    0  501 -0.00000000000E+00 -0.00000000000E+00 -0.46737706853E+00  0.46738402486E+00  0.25500000000E-02 0. -1.
         31    1    1    2    0    0  0.77621003730E+00  0.30268732631E+00  0.60957924783E+02  0.61416786317E+02  0.74470750000E+01 0.  1.
        -31    1    1    2    0    0 -0.77621003730E+00 -0.30268732631E+00  0.58758789572E+02  0.59234689158E+02  0.74470750000E+01 0.  1.
<mgrwt>
<rscale>  0 0.14989558E+02</rscale>
<asrwt>0</asrwt>
<pdfrwt beam="1">  1        2 0.99763081E+00 0.14989558E+02</pdfrwt>
<pdfrwt beam="2">  1       -2 0.99268661E+00 0.14989558E+02</pdfrwt>
<totfact>-0.60588558E-14</totfact>
</mgrwt>
</event>
<event>
 4    1 -0.5011189E-019  0.1491298E+02  0.7818608E-02  0.1870735E+00
          2   -1    0    0  501    0  0.00000000000E+00  0.00000000000E+00  0.11810421125E+03  0.11810421127E+03  0.25500000000E-02 0. -1.
         -2   -1    0    0    0  501 -0.00000000000E+00 -0.00000000000E+00 -0.47076110160E+00  0.47076800791E+00  0.25500000000E-02 0.  1.
         31    1    1    2    0    0  0.29967527274E+00  0.20796000990E+00  0.59496115385E+02  0.59961485344E+02  0.74470750000E+01 0. -1.
        -31    1    1    2    0    0 -0.29967527274E+00 -0.20796000990E+00  0.58137334761E+02  0.58613493939E+02  0.74470750000E+01 0. -1.
<mgrwt>
<rscale>  0 0.14912985E+02</rscale>
<asrwt>0</asrwt>
<pdfrwt beam="1">  1        2 0.98046089E+00 0.14912985E+02</pdfrwt>
<pdfrwt beam="2">  1       -2 0.99977728E+00 0.14912985E+02</pdfrwt>
<totfact>-0.57046221E-14</totfact>
</mgrwt>
</event>
<event>
 4    1 -0.5011189E-019  0.1493409E+02  0.7818608E-02  0.1870087E+00
          2   -1    0    0  501    0  0.00000000000E+00  0.00000000000E+00  0.11914981593E+03  0.11914981596E+03  0.25500000000E-02 0. -1.
         -2   -1    0    0    0  501 -0.00000000000E+00 -0.00000000000E+00 -0.46795133876E+00  0.46795828655E+00  0.25500000000E-02 0.  1.
         31    1    1    2    0    0  0.50240637114E-01  0.34278724184E+00  0.62718143678E+02  0.63159674632E+02  0.74470750000E+01 0. -1.
        -31    1    1    2    0    0 -0.50240637114E-01 -0.34278724184E+00  0.55963720916E+02  0.56458099614E+02  0.74470750000E+01 0.  1.
<mgrwt>
<rscale>  0 0.14934086E+02</rscale>
<asrwt>0</asrwt>
<pdfrwt beam="1">  1        2 0.98908345E+00 0.14934086E+02</pdfrwt>
<pdfrwt beam="2">  1       -2 0.99386812E+00 0.14934086E+02</pdfrwt>
<totfact>-0.19017388E-13</totfact>
</mgrwt>
</event>
<event>
 4    1 -0.5011189E-019  0.1493572E+02  0.7818608E-02  0.1870036E+00
         -2   -1    0    0    0  501 -0.00000000000E+00  0.00000000000E+00  0.12010243311E+03  0.12010243314E+03  0.25500000000E-02 0. -1.
          2   -1    0    0  501    0  0.00000000000E+00 -0.00000000000E+00 -0.46434135184E+00  0.46434835364E+00  0.25500000000E-02 0.  1.
         31    1    1    2    0    0 -0.42352951905E+00 -0.35408529348E+00  0.60405067755E+02  0.60864898670E+02  0.74470750000E+01 0. -1.
        -31    1    1    2    0    0  0.42352951905E+00  0.35408529348E+00  0.59233024007E+02  0.59701882824E+02  0.74470750000E+01 0.  1.
<mgrwt>
<rscale>  0 0.14935722E+02</rscale>
<asrwt>0</asrwt>
<pdfrwt beam="2">  1        2 0.98626122E+00 0.14935722E+02</pdfrwt>
<pdfrwt beam="1">  1       -2 0.99693051E+00 0.14935722E+02</pdfrwt>
<totfact>-0.23148037E-13</totfact>
</mgrwt>
</event>
<event>
 4    1  0.5011189E-019  0.1490184E+02  0.7818608E-02  0.1871079E+00
         -2   -1    0    0    0  501 -0.00000000000E+00  0.00000000000E+00  0.11906096339E+03  0.11906096342E+03  0.25500000000E-02 0.  1.
          2   -1    0    0  501    0  0.00000000000E+00 -0.00000000000E+00 -0.46628067307E+00  0.46628764574E+00  0.25500000000E-02 0. -1.
         31    1    1    2    0    0  0.18067493813E+00  0.14990056916E+00  0.59673970292E+02  0.60137315953E+02  0.74470750000E+01 0.  1.
        -31    1    1    2    0    0 -0.18067493813E+00 -0.14990056916E+00  0.58920712429E+02  0.59389935114E+02  0.74470750000E+01 0. -1.
<mgrwt>
<rscale>  0 0.14901845E+02</rscale>
<asrwt>0</asrwt>
<pdfrwt beam="2">  1        2 0.99033084E+00 0.14901845E+02</pdfrwt>
<pdfrwt beam="1">  1       -2 0.98833494E+00 0.14901845E+02</pdfrwt>
<totfact> 0.17884587E-13</totfact>
</mgrwt>
</event>
<event>
 4    1 -0.5011189E-019  0.1492238E+02  0.7818608E-02  0.1870447E+00
          2   -1    0    0  501    0  0.00000000000E+00  0.00000000000E+00  0.11908149978E+03  0.11908149981E+03  0.25500000000E-02 0.  1.
         -2   -1    0    0    0  501 -0.00000000000E+00 -0.00000000000E+00 -0.46748576808E+00  0.46749272279E+00  0.25500000000E-02 0. -1.
         31    1    1    2    0    0  0.39370719298E-01  0.17404208074E+00  0.62692300827E+02  0.63133314104E+02  0.74470750000E+01 0.  1.
        -31    1    1    2    0    0 -0.39370719298E-01 -0.17404208074E+00  0.55921713186E+02  0.56415678427E+02  0.74470750000E+01 0. -1.
<mgrwt>
<rscale>  0 0.14922376E+02</rscale>
<asrwt>0</asrwt>
<pdfrwt beam="1">  1        2 0.98851471E+00 0.14922376E+02</pdfrwt>
<pdfrwt beam="2">  1       -2 0.99288096E+00 0.14922376E+02</pdfrwt>
<totfact>-0.17769953E-13</totfact>
</mgrwt>
</event>
<event>
 4    1 -0.5011189E-019  0.1493610E+02  0.7818608E-02  0.1870025E+00
          2   -1    0    0  501    0  0.00000000000E+00  0.00000000000E+00  0.11872441556E+03  0.11872441558E+03  0.25500000000E-02 0.  1.
         -2   -1    0    0    0  501 -0.00000000000E+00 -0.00000000000E+00 -0.46975454439E+00  0.46976146551E+00  0.25500000000E-02 0. -1.
         31    1    1    2    0    0  0.28308842480E+00  0.48050128479E+00  0.59466022650E+02  0.59933111019E+02  0.74470750000E+01 0.  1.
        -31    1    1    2    0    0 -0.28308842480E+00 -0.48050128479E+00  0.58788638362E+02  0.59261066030E+02  0.74470750000E+01 0.  1.
<mgrwt>
<rscale>  0 0.14936097E+02</rscale>
<asrwt>0</asrwt>
<pdfrwt beam="1">  1        2 0.98558085E+00 0.14936097E+02</pdfrwt>
<pdfrwt beam="2">  1       -2 0.99766876E+00 0.14936097E+02</pdfrwt>
<totfact>-0.21194787E-13</totfact>
</mgrwt>
</event>
<event>
 4    1 -0.5011189E-019  0.1500935E+02  0.7818608E-02  0.1867783E+00
         -2   -1    0    0    0  501 -0.00000000000E+00  0.00000000000E+00  0.11986931720E+03  0.11986931723E+03  0.25500000000E-02 0.  1.
          2   -1    0    0  501    0  0.00000000000E+00 -0.00000000000E+00 -0.46984265191E+00  0.46984957173E+00  0.25500000000E-02 0. -1.
         31    1    1    2    0    0  0.82955582685E+00 -0.17733138065E+00  0.56682721403E+02  0.57176126496E+02  0.74470750000E+01 0.  1.
        -31    1    1    2    0    0 -0.82955582685E+00  0.17733138065E+00  0.62716753150E+02  0.63163040308E+02  0.74470750000E+01 0.  1.
<mgrwt>
<rscale>  0 0.15009349E+02</rscale>
<asrwt>0</asrwt>
<pdfrwt beam="2">  1        2 0.99789271E+00 0.15009349E+02</pdfrwt>
<pdfrwt beam="1">  1       -2 0.99504843E+00 0.15009349E+02</pdfrwt>
<totfact>-0.68117899E-14</totfact>
</mgrwt>
</event>
<event>
 4    1 -0.5011189E-019  0.1493655E+02  0.7818608E-02  0.1870011E+00
          2   -1    0    0  501    0  0.00000000000E+00  0.00000000000E+00  0.11929002494E+03  0.11929002497E+03  0.25500000000E-02 0.  1.
         -2   -1    0    0    0  501 -0.00000000000E+00 -0.00000000000E+00 -0.46755539111E+00  0.46756234478E+00  0.25500000000E-02 0. -1.
         31    1    1    2    0    0  0.46303677787E+00 -0.21189062080E+00  0.57498944965E+02  0.57981435812E+02  0.74470750000E+01 0. -1.
        -31    1    1    2    0    0 -0.46303677787E+00  0.21189062080E+00  0.61323524586E+02  0.61776151502E+02  0.74470750000E+01 0.  1.
<mgrwt>
<rscale>  0 0.14936547E+02</rscale>
<asrwt>0</asrwt>
<pdfrwt beam="1">  1        2 0.99023952E+00 0.14936547E+02</pdfrwt>
<pdfrwt beam="2">  1       -2 0.99303504E+00 0.14936547E+02</pdfrwt>
<totfact>-0.15248090E-13</totfact>
</mgrwt>
</event>
<event>
 4    1 -0.5011189E-019  0.1495567E+02  0.7818608E-02  0.1869424E+00
         -2   -1    0    0    0  501 -0.00000000000E+00  0.00000000000E+00  0.12032019397E+03  0.12032019400E+03  0.25500000000E-02 0.  1.
          2   -1    0    0  501    0  0.00000000000E+00 -0.00000000000E+00 -0.46474002881E+00  0.46474702460E+00  0.25500000000E-02 0. -1.
         31    1    1    2    0    0 -0.99159946797E-01  0.59695373037E+00  0.62389603086E+02  0.62835401532E+02  0.74470750000E+01 0. -1.
        -31    1    1    2    0    0  0.99159946797E-01 -0.59695373037E+00  0.57465850858E+02  0.57949539492E+02  0.74470750000E+01 0.  1.
<mgrwt>
<rscale>  0 0.14955672E+02</rscale>
<asrwt>0</asrwt>
<pdfrwt beam="2">  1        2 0.98711162E+00 0.14955672E+02</pdfrwt>
<pdfrwt beam="1">  1       -2 0.99873440E+00 0.14955672E+02</pdfrwt>
<totfact>-0.10118874E-13</totfact>
</mgrwt>
</event>
<event>
 4    1 -0.5011189E-019  0.1497466E+02  0.7818608E-02  0.1868843E+00
         -2   -1    0    0    0  501 -0.00000000000E+00  0.00000000000E+00  0.11997902191E+03  0.11997902194E+03  0.25500000000E-02 0. -1.
          2   -1    0    0  501    0  0.00000000000E+00 -0.00000000000E+00 -0.46724595444E+00  0.46725291272E+00  0.25500000000E-02 0.  1.
         31    1    1    2    0    0  0.46891359063E+00  0.19710203021E+00  0.64462980063E+02  0.64893708892E+02  0.74470750000E+01 0. -1.
        -31    1    1    2    0    0 -0.46891359063E+00 -0.19710203021E+00  0.55048795892E+02  0.55552565956E+02  0.74470750000E+01 0.  1.
<mgrwt>
<rscale>  0 0.14974663E+02</rscale>
<asrwt>0</asrwt>
<pdfrwt beam="2">  1        2 0.99240264E+00 0.14974663E+02</pdfrwt>
<pdfrwt beam="1">  1       -2 0.99593407E+00 0.14974663E+02</pdfrwt>
<totfact>-0.13892081E-13</totfact>
</mgrwt>
</event>
<event>
 4    1  0.5011189E-019  0.1490458E+02  0.7818608E-02  0.1870994E+00
         -2   -1    0    0    0  501 -0.00000000000E+00  0.00000000000E+00  0.11817606096E+03  0.11817606099E+03  0.25500000000E-02 0.  1.
          2   -1    0    0  501    0  0.00000000000E+00 -0.00000000000E+00 -0.46994476355E+00  0.46995168186E+00  0.25500000000E-02 0. -1.
         31    1    1    2    0    0 -0.22846530711E+00 -0.15968253390E+00  0.58825356653E+02  0.59295524337E+02  0.74470750000E+01 0. -1.
        -31    1    1    2    0    0  0.22846530711E+00  0.15968253390E+00  0.58880759546E+02  0.59350488335E+02  0.74470750000E+01 0.  1.
<mgrwt>
<rscale>  0 0.14904581E+02</rscale>
<asrwt>0</asrwt>
<pdfrwt beam="2">  1        2 0.99805289E+00 0.14904581E+02</pdfrwt>
<pdfrwt beam="1">  1       -2 0.98104825E+00 0.14904581E+02</pdfrwt>
<totfact> 0.63293128E-13</totfact>
</mgrwt>
</event>
<event>
 4    1 -0.5011189E-019  0.1497508E+02  0.7818608E-02  0.1868830E+00
          2   -1    0    0  501    0  0.00000000000E+00  0.00000000000E+00  0.11993082407E+03  0.11993082410E+03  0.25500000000E-02 0. -1.
         -2   -1    0    0    0  501 -0.00000000000E+00 -0.00000000000E+00 -0.46745994206E+00  0.46746689715E+00  0.25500000000E-02 0.  1.
         31    1    1    2    0    0  0.77732759720E+00  0.64481109985E-02  0.59799221545E+02  0.60266160515E+02  0.74470750000E+01 0.  1.
        -31    1    1    2    0    0 -0.77732759720E+00 -0.64481109985E-02  0.59664142588E+02  0.60132130484E+02  0.74470750000E+01 0. -1.
<mgrwt>
<rscale>  0 0.14975083E+02</rscale>
<asrwt>0</asrwt>
<pdfrwt beam="1">  1        2 0.99553731E+00 0.14975083E+02</pdfrwt>
<pdfrwt beam="2">  1       -2 0.99285382E+00 0.14975083E+02</pdfrwt>
<totfact>-0.94706511E-14</totfact>
</mgrwt>
</event>
<event>
 4    1 -0.5011189E-019  0.1492444E+02  0.7818608E-02  0.1870383E+00
         -2   -1    0    0    0  501 -0.00000000000E+00  0.00000000000E+00  0.12007682912E+03  0.12007682915E+03  0.25500000000E-02 0. -1.
          2   -1    0    0  501    0  0.00000000000E+00 -0.00000000000E+00 -0.46373906005E+00  0.46374607094E+00  0.25500000000E-02 0.  1.
         31    1    1    2    0    0  0.11550796558E+00  0.19875145176E+00  0.63165624368E+02  0.63603520910E+02  0.74470750000E+01 0. -1.
        -31    1    1    2    0    0 -0.11550796558E+00 -0.19875145176E+00  0.56447465690E+02  0.56937054306E+02  0.74470750000E+01 0.  1.
<mgrwt>
<rscale>  0 0.14924442E+02</rscale>
<asrwt>0</asrwt>
<pdfrwt beam="2">  1        2 0.98498608E+00 0.14924442E+02</pdfrwt>
<pdfrwt beam="1">  1       -2 0.99671381E+00 0.14924442E+02</pdfrwt>
<totfact>-0.29491656E-13</totfact>
</mgrwt>
</event>
<event>
 4    1 -0.5011189E-019  0.1494035E+02  0.7818608E-02  0.1869894E+00
         -2   -1    0    0    0  501 -0.00000000000E+00  0.00000000000E+00  0.12011492634E+03  0.12011492636E+03  0.25500000000E-02 0.  1.
          2   -1    0    0  501    0  0.00000000000E+00 -0.00000000000E+00 -0.46458085075E+00  0.46458784894E+00  0.25500000000E-02 0. -1.
         31    1    1    2    0    0  0.39795671178E+00 -0.14705653048E+00  0.56550833352E+02  0.57040649313E+02  0.74470750000E+01 0. -1.
        -31    1    1    2    0    0 -0.39795671178E+00  0.14705653048E+00  0.63099512135E+02  0.63538864901E+02  0.74470750000E+01 0.  1.
<mgrwt>
<rscale>  0 0.14940350E+02</rscale>
<asrwt>0</asrwt>
<pdfrwt beam="2">  1        2 0.98676834E+00 0.14940350E+02</pdfrwt>
<pdfrwt beam="1">  1       -2 0.99703579E+00 0.14940350E+02</pdfrwt>
<totfact>-0.20993840E-13</totfact>
</mgrwt>
</event>
<event>
 4    1 -0.5011189E-019  0.1495621E+02  0.7818608E-02  0.1869408E+00
          2   -1    0    0  501    0  0.00000000000E+00  0.00000000000E+00  0.11895047684E+03  0.11895047687E+03  0.25500000000E-02 0.  1.
         -2   -1    0    0    0  501 -0.00000000000E+00 -0.00000000000E+00 -0.47012559555E+00  0.47013251121E+00  0.25500000000E-02 0. -1.
         31    1    1    2    0    0 -0.11652419245E+00  0.53752700592E+00  0.56039930256E+02  0.56535256454E+02  0.74470750000E+01 0. -1.
        -31    1    1    2    0    0  0.11652419245E+00 -0.53752700592E+00  0.62440420987E+02  0.62885352923E+02  0.74470750000E+01 0.  1.
<mgrwt>
<rscale>  0 0.14956213E+02</rscale>
<asrwt>0</asrwt>
<pdfrwt beam="1">  1        2 0.98745315E+00 0.14956213E+02</pdfrwt>
<pdfrwt beam="2">  1       -2 0.99846117E+00 0.14956213E+02</pdfrwt>
<totfact>-0.11456067E-13</totfact>
</mgrwt>
</event>
<event>
 4    1 -0.5011189E-019  0.1499866E+02  0.7818608E-02  0.1868109E+00
         -2   -1    0    0    0  501 -0.00000000000E+00  0.00000000000E+00  0.12015279534E+03  0.12015279536E+03  0.25500000000E-02 0. -1.
          2   -1    0    0  501    0  0.00000000000E+00 -0.00000000000E+00 -0.46806680640E+00  0.46807375247E+00  0.25500000000E-02 0.  1.
         31    1    1    2    0    0  0.70610557125E+00  0.41618651431E+00  0.57184408835E+02  0.57673107564E+02  0.74470750000E+01 0. -1.
        -31    1    1    2    0    0 -0.70610557125E+00 -0.41618651431E+00  0.62500319696E+02  0.62947761553E+02  0.74470750000E+01 0. -1.
<mgrwt>
<rscale>  0 0.14998661E+02</rscale>
<asrwt>0</asrwt>
<pdfrwt beam="2">  1        2 0.99414487E+00 0.14998661E+02</pdfrwt>
<pdfrwt beam="1">  1       -2 0.99737774E+00 0.14998661E+02</pdfrwt>
<totfact>-0.94341986E-14</totfact>
</mgrwt>
</event>
<event>
 4    1  0.5011189E-019  0.1493650E+02  0.7818608E-02  0.1870012E+00
         -2   -1    0    0    0  501 -0.00000000000E+00  0.00000000000E+00  0.11879041171E+03  0.11879041174E+03  0.25500000000E-02 0. -1.
          2   -1    0    0  501    0  0.00000000000E+00 -0.00000000000E+00 -0.46951891919E+00  0.46952584378E+00  0.25500000000E-02 0.  1.
         31    1    1    2    0    0 -0.40348958274E+00 -0.26586554444E+00  0.61451665648E+02  0.61903147136E+02  0.74470750000E+01 0. -1.
        -31    1    1    2    0    0  0.40348958274E+00  0.26586554444E+00  0.56869227143E+02  0.57356790446E+02  0.74470750000E+01 0. -1.
<mgrwt>
<rscale>  0 0.14936500E+02</rscale>
<asrwt>0</asrwt>
<pdfrwt beam="2">  1        2 0.99717250E+00 0.14936500E+02</pdfrwt>
<pdfrwt beam="1">  1       -2 0.98612461E+00 0.14936500E+02</pdfrwt>
<totfact> 0.24240677E-13</totfact>
</mgrwt>
</event>
<event>
 4    1  0.5011189E-019  0.1490360E+02  0.7818608E-02  0.1871024E+00
          2   -1    0    0  501    0  0.00000000000E+00  0.00000000000E+00  0.11920938776E+03  0.11920938778E+03  0.25500000000E-02 0. -1.
         -2   -1    0    0    0  501 -0.00000000000E+00 -0.00000000000E+00 -0.46580994246E+00  0.46581692219E+00  0.25500000000E-02 0.  1.
         31    1    1    2    0    0 -0.56525431180E-01 -0.16570622678E+00  0.60972905716E+02  0.61426255064E+02  0.74470750000E+01 0. -1.
        -31    1    1    2    0    0  0.56525431180E-01  0.16570622678E+00  0.57770672097E+02  0.58248949641E+02  0.74470750000E+01 0.  1.
<mgrwt>
<rscale>  0 0.14903602E+02</rscale>
<asrwt>0</asrwt>
<pdfrwt beam="1">  1        2 0.98955832E+00 0.14903602E+02</pdfrwt>
<pdfrwt beam="2">  1       -2 0.98933977E+00 0.14903602E+02</pdfrwt>
<totfact> 0.76694562E-14</totfact>
</mgrwt>
</event>
<event>
 4    1 -0.5011189E-019  0.1493916E+02  0.7818608E-02  0.1869931E+00
          2   -1    0    0  501    0  0.00000000000E+00  0.00000000000E+00  0.11875756216E+03  0.11875756219E+03  0.25500000000E-02 0.  1.
         -2   -1    0    0    0  501 -0.00000000000E+00 -0.00000000000E+00 -0.46981615887E+00  0.46982307908E+00  0.25500000000E-02 0. -1.
         31    1    1    2    0    0 -0.25866418050E+00 -0.36470457024E-01  0.55016350847E+02  0.55518699767E+02  0.74470750000E+01 0. -1.
        -31    1    1    2    0    0  0.25866418050E+00  0.36470457024E-01  0.63271395155E+02  0.63708685500E+02  0.74470750000E+01 0.  1.
<mgrwt>
<rscale>  0 0.14939161E+02</rscale>
<asrwt>0</asrwt>
<pdfrwt beam="1">  1        2 0.98585544E+00 0.14939161E+02</pdfrwt>
<pdfrwt beam="2">  1       -2 0.99780020E+00 0.14939161E+02</pdfrwt>
<totfact>-0.19418698E-13</totfact>
</mgrwt>
</event>
<event>
 4    1  0.5011189E-019  0.1493432E+02  0.7818608E-02  0.1870079E+00
          2   -1    0    0  501    0  0.00000000000E+00  0.00000000000E+00  0.12029033975E+03  0.12029033978E+03  0.25500000000E-02 0. -1.
         -2   -1    0    0    0  501 -0.00000000000E+00 -0.00000000000E+00 -0.46352913495E+00  0.46353614902E+00  0.25500000000E-02 0.  1.
         31    1    1    2    0    0 -0.22467972734E-01 -0.48729115878E+00  0.61920518334E+02  0.62368641754E+02  0.74470750000E+01 0. -1.
        -31    1    1    2    0    0  0.22467972734E-01  0.48729115878E+00  0.57906292282E+02  0.58385234173E+02  0.74470750000E+01 0. -1.
<mgrwt>
<rscale>  0 0.14934323E+02</rscale>
<asrwt>0</asrwt>
<pdfrwt beam="1">  1        2 0.99847753E+00 0.14934323E+02</pdfrwt>
<pdfrwt beam="2">  1       -2 0.98454864E+00 0.14934323E+02</pdfrwt>
<totfact> 0.24180503E-13</totfact>
</mgrwt>
</event>
<event>
 4    1  0.5011189E-019  0.1489936E+02  0.7818608E-02  0.1871155E+00
          2   -1    0    0  501    0  0.00000000000E+00  0.00000000000E+00  0.11976521670E+03  0.11976521673E+03  0.25500000000E-02 0. -1.
         -2   -1    0    0    0  501 -0.00000000000E+00 -0.00000000000E+00 -0.46338407102E+00  0.46339108728E+00  0.25500000000E-02 0.  1.
         31    1    1    2    0    0 -0.16597428028E+00  0.52313215161E-01  0.60395178562E+02  0.60852829053E+02  0.74470750000E+01 0. -1.
        -31    1    1    2    0    0  0.16597428028E+00 -0.52313215161E-01  0.58906654071E+02  0.59375778766E+02  0.74470750000E+01 0.  1.
<mgrwt>
<rscale>  0 0.14899358E+02</rscale>
<asrwt>0</asrwt>
<pdfrwt beam="1">  1        2 0.99413425E+00 0.14899358E+02</pdfrwt>
<pdfrwt beam="2">  1       -2 0.98422515E+00 0.14899358E+02</pdfrwt>
<totfact> 0.64603054E-13</totfact>
</mgrwt>
</event>
<event>
 4    1 -0.5011189E-019  0.1490368E+02  0.7818608E-02  0.1871022E+00
          2   -1    0    0  501    0  0.00000000000E+00  0.00000000000E+00  0.11811240481E+03  0.11811240484E+03  0.25500000000E-02 0. -1.
         -2   -1    0    0    0  501 -0.00000000000E+00 -0.00000000000E+00 -0.47014118898E+00  0.47014810440E+00  0.25500000000E-02 0.  1.
         31    1    1    2    0    0  0.37798381528E-01 -0.24834406258E+00  0.58114447179E+02  0.58590195429E+02  0.74470750000E+01 0.  1.
        -31    1    1    2    0    0 -0.37798381528E-01  0.24834406258E+00  0.59527816446E+02  0.59992357517E+02  0.74470750000E+01 0. -1.
<mgrwt>
<rscale>  0 0.14903680E+02</rscale>
<asrwt>0</asrwt>
<pdfrwt beam="1">  1        2 0.98052352E+00 0.14903680E+02</pdfrwt>
<pdfrwt beam="2">  1       -2 0.99846626E+00 0.14903680E+02</pdfrwt>
<totfact>-0.34958652E-13</totfact>
</mgrwt>
</event>
<event>
 4    1  0.5011189E-019  0.1489552E+02  0.7818608E-02  0.1871273E+00
          2   -1    0    0  501    0  0.00000000000E+00  0.00000000000E+00  0.12031662792E+03  0.12031662794E+03  0.25500000000E-02 0. -1.
         -2   -1    0    0    0  501 -0.00000000000E+00 -0.00000000000E+00 -0.46102301610E+00  0.46103006829E+00  0.25500000000E-02 0.  1.
         31    1    1    2    0    0 -0.62442312979E-01 -0.53593036649E-01  0.59450520451E+02  0.59915190721E+02  0.74470750000E+01 0. -1.
        -31    1    1    2    0    0  0.62442312979E-01  0.53593036649E-01  0.60405084449E+02  0.60862467290E+02  0.74470750000E+01 0. -1.
<mgrwt>
<rscale>  0 0.14895524E+02</rscale>
<asrwt>0</asrwt>
<pdfrwt beam="1">  1        2 0.99867418E+00 0.14895524E+02</pdfrwt>
<pdfrwt beam="2">  1       -2 0.97924680E+00 0.14895524E+02</pdfrwt>
<totfact> 0.62791408E-13</totfact>
</mgrwt>
</event>
<event>
 4    1 -0.5011189E-019  0.1499323E+02  0.7818608E-02  0.1868275E+00
          2   -1    0    0  501    0  0.00000000000E+00  0.00000000000E+00  0.12010935465E+03  0.12010935467E+03  0.25500000000E-02 0.  1.
         -2   -1    0    0    0  501 -0.00000000000E+00 -0.00000000000E+00 -0.46789732739E+00  0.46790427597E+00  0.25500000000E-02 0. -1.
         31    1    1    2    0    0  0.55308118511E+00 -0.41169452173E+00  0.55681194039E+02  0.56181221835E+02  0.74470750000E+01 0. -1.
        -31    1    1    2    0    0 -0.55308118511E+00  0.41169452173E+00  0.63960263278E+02  0.64396037113E+02  0.74470750000E+01 0.  1.
<mgrwt>
<rscale>  0 0.14993234E+02</rscale>
<asrwt>0</asrwt>
<pdfrwt beam="1">  1        2 0.99701714E+00 0.14993234E+02</pdfrwt>
<pdfrwt beam="2">  1       -2 0.99378491E+00 0.14993234E+02</pdfrwt>
<totfact>-0.84412539E-14</totfact>
</mgrwt>
</event>
<event>
 4    1  0.5011189E-019  0.1493581E+02  0.7818608E-02  0.1870034E+00
         -2   -1    0    0    0  501 -0.00000000000E+00  0.00000000000E+00  0.11857092833E+03  0.11857092836E+03  0.25500000000E-02 0. -1.
          2   -1    0    0  501    0  0.00000000000E+00 -0.00000000000E+00 -0.47034429666E+00  0.47035120910E+00  0.25500000000E-02 0.  1.
         31    1    1    2    0    0  0.13010492605E+00  0.40444799719E+00  0.56175034762E+02  0.56668103568E+02  0.74470750000E+01 0.  1.
        -31    1    1    2    0    0 -0.13010492605E+00 -0.40444799719E+00  0.61925549270E+02  0.62373175997E+02  0.74470750000E+01 0. -1.
<mgrwt>
<rscale>  0 0.14935806E+02</rscale>
<asrwt>0</asrwt>
<pdfrwt beam="2">  1        2 0.99891122E+00 0.14935806E+02</pdfrwt>
<pdfrwt beam="1">  1       -2 0.98431659E+00 0.14935806E+02</pdfrwt>
<totfact> 0.19276621E-13</totfact>
</mgrwt>
</event>
<event>
 4    1  0.5011189E-019  0.1493271E+02  0.7818608E-02  0.1870129E+00
         -2   -1    0    0    0  501 -0.00000000000E+00  0.00000000000E+00  0.11859966222E+03  0.11859966225E+03  0.25500000000E-02 0.  1.
          2   -1    0    0  501    0  0.00000000000E+00 -0.00000000000E+00 -0.47003535608E+00  0.47004227306E+00  0.25500000000E-02 0. -1.
         31    1    1    2    0    0  0.38015756410E+00  0.37795566714E+00  0.59162985385E+02  0.59632249127E+02  0.74470750000E+01 0. -1.
        -31    1    1    2    0    0 -0.38015756410E+00 -0.37795566714E+00  0.58966641484E+02  0.59437455398E+02  0.74470750000E+01 0.  1.
<mgrwt>
<rscale>  0 0.14932709E+02</rscale>
<asrwt>0</asrwt>
<pdfrwt beam="2">  1        2 0.99825865E+00 0.14932709E+02</pdfrwt>
<pdfrwt beam="1">  1       -2 0.98455163E+00 0.14932709E+02</pdfrwt>
<totfact> 0.26972718E-13</totfact>
</mgrwt>
</event>
<event>
 4    1 -0.5011189E-019  0.1495918E+02  0.7818608E-02  0.1869317E+00
          2   -1    0    0  501    0  0.00000000000E+00  0.00000000000E+00  0.11902119385E+03  0.11902119388E+03  0.25500000000E-02 0. -1.
         -2   -1    0    0    0  501 -0.00000000000E+00 -0.00000000000E+00 -0.47003242792E+00  0.47003934495E+00  0.25500000000E-02 0.  1.
         31    1    1    2    0    0 -0.64006509573E+00 -0.10611154265E+00  0.61302136485E+02  0.61756228890E+02  0.74470750000E+01 0. -1.
        -31    1    1    2    0    0  0.64006509573E+00  0.10611154265E+00  0.57249024935E+02  0.57735004330E+02  0.74470750000E+01 0.  1.
<mgrwt>
<rscale>  0 0.14959176E+02</rscale>
<asrwt>0</asrwt>
<pdfrwt beam="1">  1        2 0.98803712E+00 0.14959176E+02</pdfrwt>
<pdfrwt beam="2">  1       -2 0.99826641E+00 0.14959176E+02</pdfrwt>
<totfact>-0.11739641E-13</totfact>
</mgrwt>
</event>
<event>
 4    1 -0.5011189E-019  0.1491993E+02  0.7818608E-02  0.1870522E+00
         -2   -1    0    0    0  501 -0.00000000000E+00  0.00000000000E+00  0.11953656802E+03  0.11953656805E+03  0.25500000000E-02 0.  1.
          2   -1    0    0  501    0  0.00000000000E+00 -0.00000000000E+00 -0.46555358153E+00  0.46556056510E+00  0.25500000000E-02 0. -1.
         31    1    1    2    0    0  0.21582736179E+00 -0.34286033032E-01  0.56478980398E+02  0.56968253526E+02  0.74470750000E+01 0. -1.
        -31    1    1    2    0    0 -0.21582736179E+00  0.34286033032E-01  0.62592034044E+02  0.63033875089E+02  0.74470750000E+01 0.  1.
<mgrwt>
<rscale>  0 0.14919933E+02</rscale>
<asrwt>0</asrwt>
<pdfrwt beam="2">  1        2 0.98880794E+00 0.14919933E+02</pdfrwt>
<pdfrwt beam="1">  1       -2 0.99226156E+00 0.14919933E+02</pdfrwt>
<totfact>-0.14664977E-13</totfact>
</mgrwt>
</event>
<event>
 4    1 -0.5011189E-019  0.1497838E+02  0.7818608E-02  0.1868729E+00
         -2   -1    0    0    0  501 -0.00000000000E+00  0.00000000000E+00  0.11982309496E+03  0.11982309499E+03  0.25500000000E-02 0. -1.
          2   -1    0    0  501    0  0.00000000000E+00 -0.00000000000E+00 -0.46808636786E+00  0.46809331364E+00  0.25500000000E-02 0.  1.
         31    1    1    2    0    0  0.12768134480E+00 -0.59382297827E+00  0.55581524592E+02  0.56081491869E+02  0.74470750000E+01 0.  1.
        -31    1    1    2    0    0 -0.12768134480E+00  0.59382297827E+00  0.63773484000E+02  0.64209696432E+02  0.74470750000E+01 0. -1.
<mgrwt>
<rscale>  0 0.14978381E+02</rscale>
<asrwt>0</asrwt>
<pdfrwt beam="2">  1        2 0.99417564E+00 0.14978381E+02</pdfrwt>
<pdfrwt beam="1">  1       -2 0.99465171E+00 0.14978381E+02</pdfrwt>
<totfact>-0.12901598E-13</totfact>
</mgrwt>
</event>
<event>
 4    1 -0.5011189E-019  0.1501931E+02  0.7818608E-02  0.1867480E+00
          2   -1    0    0  501    0  0.00000000000E+00  0.00000000000E+00  0.12014951234E+03  0.12014951237E+03  0.25500000000E-02 0.  1.
         -2   -1    0    0    0  501 -0.00000000000E+00 -0.00000000000E+00 -0.46936956729E+00  0.46937649408E+00  0.25500000000E-02 0. -1.
         31    1    1    2    0    0  0.92600229333E-01  0.11314467303E+00  0.67520592307E+02  0.67930189813E+02  0.74470750000E+01 0.  1.
        -31    1    1    2    0    0 -0.92600229333E-01 -0.11314467303E+00  0.52159550466E+02  0.52688699048E+02  0.74470750000E+01 0. -1.
<mgrwt>
<rscale>  0 0.15019313E+02</rscale>
<asrwt>0</asrwt>
<pdfrwt beam="1">  1        2 0.99736137E+00 0.15019313E+02</pdfrwt>
<pdfrwt beam="2">  1       -2 0.99690094E+00 0.15019313E+02</pdfrwt>
<totfact>-0.65896386E-14</totfact>
</mgrwt>
</event>
<event>
 4    1  0.5011189E-019  0.1490856E+02  0.7818608E-02  0.1870872E+00
          2   -1    0    0  501    0  0.00000000000E+00  0.00000000000E+00  0.12014356042E+03  0.12014356045E+03  0.25500000000E-02 0. -1.
         -2   -1    0    0    0  501 -0.00000000000E+00 -0.00000000000E+00 -0.46249541580E+00  0.46250244555E+00  0.25500000000E-02 0.  1.
         31    1    1    2    0    0 -0.53063891883E-01 -0.17864198683E+00  0.57660556365E+02  0.58139774811E+02  0.74470750000E+01 0. -1.
        -31    1    1    2    0    0  0.53063891883E-01  0.17864198683E+00  0.62020508644E+02  0.62466288086E+02  0.74470750000E+01 0. -1.
<mgrwt>
<rscale>  0 0.14908557E+02</rscale>
<asrwt>0</asrwt>
<pdfrwt beam="1">  1        2 0.99725531E+00 0.14908557E+02</pdfrwt>
<pdfrwt beam="2">  1       -2 0.98235684E+00 0.14908557E+02</pdfrwt>
<totfact> 0.63408042E-13</totfact>
</mgrwt>
</event>
<event>
 4    1  0.5011189E-019  0.1491645E+02  0.7818608E-02  0.1870629E+00
          2   -1    0    0  501    0  0.00000000000E+00  0.00000000000E+00  0.11954946670E+03  0.11954946673E+03  0.25500000000E-02 0. -1.
         -2   -1    0    0    0  501 -0.00000000000E+00 -0.00000000000E+00 -0.46528608858E+00  0.46529307616E+00  0.25500000000E-02 0.  1.
         31    1    1    2    0    0 -0.37049140380E+00  0.19359476284E-01  0.60901805672E+02  0.61356552207E+02  0.74470750000E+01 0. -1.
        -31    1    1    2    0    0  0.37049140380E+00 -0.19359476284E-01  0.58182374939E+02  0.58658207595E+02  0.74470750000E+01 0.  1.
<mgrwt>
<rscale>  0 0.14916451E+02</rscale>
<asrwt>0</asrwt>
<pdfrwt beam="1">  1        2 0.99236600E+00 0.14916451E+02</pdfrwt>
<pdfrwt beam="2">  1       -2 0.98824243E+00 0.14916451E+02</pdfrwt>
<totfact> 0.16159641E-13</totfact>
</mgrwt>
</event>
<event>
 4    1 -0.5011189E-019  0.1496545E+02  0.7818608E-02  0.1869125E+00
         -2   -1    0    0    0  501 -0.00000000000E+00  0.00000000000E+00  0.11975815687E+03  0.11975815690E+03  0.25500000000E-02 0.  1.
          2   -1    0    0  501    0  0.00000000000E+00 -0.00000000000E+00 -0.46753196572E+00  0.46753891974E+00  0.25500000000E-02 0. -1.
         31    1    1    2    0    0 -0.18629234963E+00  0.70225178349E+00  0.60178057933E+02  0.60641449892E+02  0.74470750000E+01 0. -1.
        -31    1    1    2    0    0  0.18629234963E+00 -0.70225178349E+00  0.59112566977E+02  0.59584245930E+02  0.74470750000E+01 0. -1.
<mgrwt>
<rscale>  0 0.14965452E+02</rscale>
<asrwt>0</asrwt>
<pdfrwt beam="2">  1        2 0.99300063E+00 0.14965452E+02</pdfrwt>
<pdfrwt beam="1">  1       -2 0.99411017E+00 0.14965452E+02</pdfrwt>
<totfact>-0.13875086E-13</totfact>
</mgrwt>
</event>
<event>
 4    1  0.5011189E-019  0.1490716E+02  0.7818608E-02  0.1870915E+00
          2   -1    0    0  501    0  0.00000000000E+00  0.00000000000E+00  0.11984897597E+03  0.11984897599E+03  0.25500000000E-02 0.  1.
         -2   -1    0    0    0  501 -0.00000000000E+00 -0.00000000000E+00 -0.46354531350E+00  0.46355232732E+00  0.25500000000E-02 0. -1.
         31    1    1    2    0    0 -0.21342022296E+00 -0.19764399934E+00  0.58796992527E+02  0.59267443572E+02  0.74470750000E+01 0.  1.
        -31    1    1    2    0    0  0.21342022296E+00  0.19764399934E+00  0.60588438125E+02  0.61045084747E+02  0.74470750000E+01 0.  1.
<mgrwt>
<rscale>  0 0.14907160E+02</rscale>
<asrwt>0</asrwt>
<pdfrwt beam="1">  1        2 0.99482816E+00 0.14907160E+02</pdfrwt>
<pdfrwt beam="2">  1       -2 0.98456895E+00 0.14907160E+02</pdfrwt>
<totfact> 0.55510570E-13</totfact>
</mgrwt>
</event>
<event>
 4    1 -0.5011189E-019  0.1500315E+02  0.7818608E-02  0.1867972E+00
          2   -1    0    0  501    0  0.00000000000E+00  0.00000000000E+00  0.11996824563E+03  0.11996824565E+03  0.25500000000E-02 0. -1.
         -2   -1    0    0    0  501 -0.00000000000E+00 -0.00000000000E+00 -0.46906740257E+00  0.46907433382E+00  0.25500000000E-02 0.  1.
         31    1    1    2    0    0 -0.58887452638E+00 -0.23672879722E+00  0.64901402723E+02  0.65330343755E+02  0.74470750000E+01 0. -1.
        -31    1    1    2    0    0  0.58887452638E+00  0.23672879722E+00  0.54597775502E+02  0.55106976233E+02  0.74470750000E+01 0.  1.
<mgrwt>
<rscale>  0 0.15003148E+02</rscale>
<asrwt>0</asrwt>
<pdfrwt beam="1">  1        2 0.99586003E+00 0.15003148E+02</pdfrwt>
<pdfrwt beam="2">  1       -2 0.99625581E+00 0.15003148E+02</pdfrwt>
<totfact>-0.98012175E-14</totfact>
</mgrwt>
</event>
<event>
 4    1 -0.5011189E-019  0.1497225E+02  0.7818608E-02  0.1868916E+00
          2   -1    0    0  501    0  0.00000000000E+00  0.00000000000E+00  0.11930273030E+03  0.11930273033E+03  0.25500000000E-02 0. -1.
         -2   -1    0    0    0  501 -0.00000000000E+00 -0.00000000000E+00 -0.46974321114E+00  0.46975013243E+00  0.25500000000E-02 0.  1.
         31    1    1    2    0    0  0.52100311125E+00 -0.26427010696E+00  0.55482376171E+02  0.55982982009E+02  0.74470750000E+01 0.  1.
        -31    1    1    2    0    0 -0.52100311125E+00  0.26427010696E+00  0.63350610921E+02  0.63789498455E+02  0.74470750000E+01 0. -1.
<mgrwt>
<rscale>  0 0.14972249E+02</rscale>
<asrwt>0</asrwt>
<pdfrwt beam="1">  1        2 0.99036267E+00 0.14972249E+02</pdfrwt>
<pdfrwt beam="2">  1       -2 0.99766384E+00 0.14972249E+02</pdfrwt>
<totfact>-0.11589798E-13</totfact>
</mgrwt>
</event>
<event>
 4    1 -0.5011189E-019  0.1494889E+02  0.7818608E-02  0.1869632E+00
         -2   -1    0    0    0  501 -0.00000000000E+00  0.00000000000E+00  0.11979761647E+03  0.11979761649E+03  0.25500000000E-02 0.  1.
          2   -1    0    0  501    0  0.00000000000E+00 -0.00000000000E+00 -0.46634418706E+00  0.46635115879E+00  0.25500000000E-02 0. -1.
         31    1    1    2    0    0  0.23372629860E+00 -0.35122828204E+00  0.63527471432E+02  0.63963869035E+02  0.74470750000E+01 0.  1.
        -31    1    1    2    0    0 -0.23372629860E+00  0.35122828204E+00  0.55803800847E+02  0.56300098617E+02  0.74470750000E+01 0. -1.
<mgrwt>
<rscale>  0 0.14948892E+02</rscale>
<asrwt>0</asrwt>
<pdfrwt beam="2">  1        2 0.99048898E+00 0.14948892E+02</pdfrwt>
<pdfrwt beam="1">  1       -2 0.99442663E+00 0.14948892E+02</pdfrwt>
<totfact>-0.17042704E-13</totfact>
</mgrwt>
</event>
<event>
 4    1 -0.5011189E-019  0.1496853E+02  0.7818608E-02  0.1869030E+00
         -2   -1    0    0    0  501 -0.00000000000E+00  0.00000000000E+00  0.11965104844E+03  0.11965104847E+03  0.25500000000E-02 0. -1.
          2   -1    0    0  501    0  0.00000000000E+00 -0.00000000000E+00 -0.46814272595E+00  0.46814967090E+00  0.25500000000E-02 0.  1.
         31    1    1    2    0    0 -0.11346190561E-01  0.69449333640E+00  0.57426084806E+02  0.57911109400E+02  0.74470750000E+01 0.  1.
        -31    1    1    2    0    0  0.11346190561E-01 -0.69449333640E+00  0.61756820911E+02  0.62208088742E+02  0.74470750000E+01 0.  1.
<mgrwt>
<rscale>  0 0.14968525E+02</rscale>
<asrwt>0</asrwt>
<pdfrwt beam="2">  1        2 0.99428930E+00 0.14968525E+02</pdfrwt>
<pdfrwt beam="1">  1       -2 0.99322957E+00 0.14968525E+02</pdfrwt>
<totfact>-0.11492204E-13</totfact>
</mgrwt>
</event>
<event>
 4    1 -0.5011189E-019  0.1491417E+02  0.7818608E-02  0.1870699E+00
         -2   -1    0    0    0  501 -0.00000000000E+00  0.00000000000E+00  0.12006168542E+03  0.12006168545E+03  0.25500000000E-02 0.  1.
          2   -1    0    0  501    0  0.00000000000E+00 -0.00000000000E+00 -0.46315932221E+00  0.46316634188E+00  0.25500000000E-02 0. -1.
         31    1    1    2    0    0  0.11672618354E+00  0.15536942514E+00  0.62496782133E+02  0.62939212481E+02  0.74470750000E+01 0.  1.
        -31    1    1    2    0    0 -0.11672618354E+00 -0.15536942514E+00  0.57101743964E+02  0.57585639308E+02  0.74470750000E+01 0. -1.
<mgrwt>
<rscale>  0 0.14914170E+02</rscale>
<asrwt>0</asrwt>
<pdfrwt beam="2">  1        2 0.98375899E+00 0.14914170E+02</pdfrwt>
<pdfrwt beam="1">  1       -2 0.99658380E+00 0.14914170E+02</pdfrwt>
<totfact>-0.36943279E-13</totfact>
</mgrwt>
</event>
<event>
 4    1 -0.5011189E-019  0.1493921E+02  0.7818608E-02  0.1869929E+00
         -2   -1    0    0    0  501 -0.00000000000E+00  0.00000000000E+00  0.11964198267E+03  0.11964198270E+03  0.25500000000E-02 0. -1.
          2   -1    0    0  501    0  0.00000000000E+00 -0.00000000000E+00 -0.46634623477E+00  0.46635320647E+00  0.25500000000E-02 0.  1.
         31    1    1    2    0    0 -0.13987955908E+00  0.16727060827E+00  0.63906447954E+02  0.64339261434E+02  0.74470750000E+01 0. -1.
        -31    1    1    2    0    0  0.13987955908E+00 -0.16727060827E+00  0.55269188481E+02  0.55769074469E+02  0.74470750000E+01 0.  1.
<mgrwt>
<rscale>  0 0.14939211E+02</rscale>
<asrwt>0</asrwt>
<pdfrwt beam="2">  1        2 0.99048831E+00 0.14939211E+02</pdfrwt>
<pdfrwt beam="1">  1       -2 0.99313976E+00 0.14939211E+02</pdfrwt>
<totfact>-0.15177046E-13</totfact>
</mgrwt>
</event>
<event>
 4    1  0.5011189E-019  0.1490080E+02  0.7818608E-02  0.1871111E+00
         -2   -1    0    0    0  501 -0.00000000000E+00  0.00000000000E+00  0.11849324269E+03  0.11849324272E+03  0.25500000000E-02 0.  1.
          2   -1    0    0  501    0  0.00000000000E+00 -0.00000000000E+00 -0.46844887914E+00  0.46845581955E+00  0.25500000000E-02 0. -1.
         31    1    1    2    0    0 -0.13903977872E+00 -0.11467857357E-01  0.57628412894E+02  0.58107765078E+02  0.74470750000E+01 0.  1.
        -31    1    1    2    0    0  0.13903977872E+00  0.11467857357E-01  0.60396380914E+02  0.60853933457E+02  0.74470750000E+01 0. -1.
<mgrwt>
<rscale>  0 0.14900797E+02</rscale>
<asrwt>0</asrwt>
<pdfrwt beam="2">  1        2 0.99489909E+00 0.14900797E+02</pdfrwt>
<pdfrwt beam="1">  1       -2 0.98365856E+00 0.14900797E+02</pdfrwt>
<totfact> 0.69240725E-13</totfact>
</mgrwt>
</event>
<event>
 4    1  0.5011189E-019  0.1491695E+02  0.7818608E-02  0.1870613E+00
         -2   -1    0    0    0  501 -0.00000000000E+00  0.00000000000E+00  0.11849995353E+03  0.11849995356E+03  0.25500000000E-02 0.  1.
          2   -1    0    0  501    0  0.00000000000E+00 -0.00000000000E+00 -0.46943832691E+00  0.46944525269E+00  0.25500000000E-02 0. -1.
         31    1    1    2    0    0 -0.14554902794E+00 -0.41751155453E-01  0.62072881907E+02  0.62518193528E+02  0.74470750000E+01 0. -1.
        -31    1    1    2    0    0  0.14554902794E+00  0.41751155453E-01  0.55957633297E+02  0.56451205284E+02  0.74470750000E+01 0. -1.
<mgrwt>
<rscale>  0 0.14916948E+02</rscale>
<asrwt>0</asrwt>
<pdfrwt beam="2">  1        2 0.99699239E+00 0.14916948E+02</pdfrwt>
<pdfrwt beam="1">  1       -2 0.98372223E+00 0.14916948E+02</pdfrwt>
<totfact> 0.49920982E-13</totfact>
</mgrwt>
</event>
<event>
 4    1 -0.5011189E-019  0.1501236E+02  0.7818608E-02  0.1867692E+00
         -2   -1    0    0    0  501 -0.00000000000E+00  0.00000000000E+00  0.12020019917E+03  0.12020019920E+03  0.25500000000E-02 0.  1.
          2   -1    0    0  501    0  0.00000000000E+00 -0.00000000000E+00 -0.46873721508E+00  0.46874415122E+00  0.25500000000E-02 0. -1.
         31    1    1    2    0    0  0.41411409502E+00  0.77297865300E+00  0.62589337556E+02  0.63036918455E+02  0.74470750000E+01 0.  1.
        -31    1    1    2    0    0 -0.41411409502E+00 -0.77297865300E+00  0.57142124399E+02  0.57632024894E+02  0.74470750000E+01 0. -1.
<mgrwt>
<rscale>  0 0.15012358E+02</rscale>
<asrwt>0</asrwt>
<pdfrwt beam="2">  1        2 0.99556474E+00 0.15012358E+02</pdfrwt>
<pdfrwt beam="1">  1       -2 0.99777525E+00 0.15012358E+02</pdfrwt>
<totfact>-0.72371873E-14</totfact>
</mgrwt>
</event>
<event>
 4    1 -0.5011189E-019  0.1502256E+02  0.7818608E-02  0.1867381E+00
         -2   -1    0    0    0  501 -0.00000000000E+00  0.00000000000E+00  0.11998921946E+03  0.11998921949E+03  0.25500000000E-02 0. -1.
          2   -1    0    0  501    0  0.00000000000E+00 -0.00000000000E+00 -0.47019956658E+00  0.47020648114E+00  0.25500000000E-02 0.  1.
         31    1    1    2    0    0 -0.36470100715E+00 -0.61930705100E-01  0.67036241444E+02  0.67449636287E+02  0.74470750000E+01 0. -1.
        -31    1    1    2    0    0  0.36470100715E+00  0.61930705100E-01  0.52482778449E+02  0.53009789681E+02  0.74470750000E+01 0.  1.
<mgrwt>
<rscale>  0 0.15022556E+02</rscale>
<asrwt>0</asrwt>
<pdfrwt beam="2">  1        2 0.99865168E+00 0.15022556E+02</pdfrwt>
<pdfrwt beam="1">  1       -2 0.99604282E+00 0.15022556E+02</pdfrwt>
<totfact>-0.44336008E-14</totfact>
</mgrwt>
</event>
<event>
 4    1  0.5011189E-019  0.1490967E+02  0.7818608E-02  0.1870838E+00
          2   -1    0    0  501    0  0.00000000000E+00  0.00000000000E+00  0.11996811771E+03  0.11996811774E+03  0.25500000000E-02 0.  1.
         -2   -1    0    0    0  501 -0.00000000000E+00 -0.00000000000E+00 -0.46324082978E+00  0.46324784822E+00  0.25500000000E-02 0. -1.
         31    1    1    2    0    0 -0.14222526989E-01 -0.33617254321E+00  0.60149328441E+02  0.60609519485E+02  0.74470750000E+01 0. -1.
        -31    1    1    2    0    0  0.14222526989E-01  0.33617254321E+00  0.59355548439E+02  0.59821846100E+02  0.74470750000E+01 0.  1.
<mgrwt>
<rscale>  0 0.14909669E+02</rscale>
<asrwt>0</asrwt>
<pdfrwt beam="1">  1        2 0.99581079E+00 0.14909669E+02</pdfrwt>
<pdfrwt beam="2">  1       -2 0.98392849E+00 0.14909669E+02</pdfrwt>
<totfact> 0.58360993E-13</totfact>
</mgrwt>
</event>
<event>
 4    1 -0.5011189E-019  0.1502231E+02  0.7818608E-02  0.1867388E+00
         -2   -1    0    0    0  501 -0.00000000000E+00  0.00000000000E+00  0.12010977555E+03  0.12010977558E+03  0.25500000000E-02 0.  1.
          2   -1    0    0  501    0  0.00000000000E+00 -0.00000000000E+00 -0.46971234961E+00  0.46971927134E+00  0.25500000000E-02 0. -1.
         31    1    1    2    0    0 -0.40427590855E+00  0.50381806824E+00  0.53914729703E+02  0.54430453578E+02  0.74470750000E+01 0. -1.
        -31    1    1    2    0    0  0.40427590855E+00 -0.50381806824E+00  0.65725333501E+02  0.66149041274E+02  0.74470750000E+01 0. -1.
<mgrwt>
<rscale>  0 0.15022312E+02</rscale>
<asrwt>0</asrwt>
<pdfrwt beam="2">  1        2 0.99762484E+00 0.15022312E+02</pdfrwt>
<pdfrwt beam="1">  1       -2 0.99703563E+00 0.15022312E+02</pdfrwt>
<totfact>-0.59337376E-14</totfact>
</mgrwt>
</event>
<event>
 4    1 -0.5011189E-019  0.1490860E+02  0.7818608E-02  0.1870870E+00
         -2   -1    0    0    0  501 -0.00000000000E+00  0.00000000000E+00  0.11993793733E+03  0.11993793736E+03  0.25500000000E-02 0. -1.
          2   -1    0    0  501    0  0.00000000000E+00 -0.00000000000E+00 -0.46329106165E+00  0.46329807932E+00  0.25500000000E-02 0.  1.
         31    1    1    2    0    0 -0.26973161777E+00 -0.17002771749E+00  0.60363290156E+02  0.60821767396E+02  0.74470750000E+01 0. -1.
        -31    1    1    2    0    0  0.26973161777E+00  0.17002771749E+00  0.59111356110E+02  0.59579468039E+02  0.74470750000E+01 0.  1.
<mgrwt>
<rscale>  0 0.14908601E+02</rscale>
<asrwt>0</asrwt>
<pdfrwt beam="2">  1        2 0.98403382E+00 0.14908601E+02</pdfrwt>
<pdfrwt beam="1">  1       -2 0.99556166E+00 0.14908601E+02</pdfrwt>
<totfact>-0.39687588E-13</totfact>
</mgrwt>
</event>
<event>
 4    1 -0.5011189E-019  0.1496137E+02  0.7818608E-02  0.1869249E+00
          2   -1    0    0  501    0  0.00000000000E+00  0.00000000000E+00  0.11936474999E+03  0.11936475002E+03  0.25500000000E-02 0. -1.
         -2   -1    0    0    0  501 -0.00000000000E+00 -0.00000000000E+00 -0.46881727281E+00  0.46882420777E+00  0.25500000000E-02 0.  1.
         31    1    1    2    0    0  0.37464788665E-01  0.55782341845E+00  0.62931670860E+02  0.63373233260E+02  0.74470750000E+01 0. -1.
        -31    1    1    2    0    0 -0.37464788665E-01 -0.55782341845E+00  0.55964261858E+02  0.56460340965E+02  0.74470750000E+01 0.  1.
<mgrwt>
<rscale>  0 0.14961373E+02</rscale>
<asrwt>0</asrwt>
<pdfrwt beam="1">  1        2 0.99086783E+00 0.14961373E+02</pdfrwt>
<pdfrwt beam="2">  1       -2 0.99570704E+00 0.14961373E+02</pdfrwt>
<totfact>-0.15942606E-13</totfact>
</mgrwt>
</event>
<event>
 4    1  0.5011189E-019  0.1492008E+02  0.7818608E-02  0.1870517E+00
          2   -1    0    0  501    0  0.00000000000E+00  0.00000000000E+00  0.11988933568E+03  0.11988933571E+03  0.25500000000E-02 0.  1.
         -2   -1    0    0    0  501 -0.00000000000E+00 -0.00000000000E+00 -0.46419283311E+00  0.46419983715E+00  0.25500000000E-02 0. -1.
         31    1    1    2    0    0  0.14869005114E+00  0.15198952953E+00  0.62816441285E+02  0.63256694755E+02  0.74470750000E+01 0.  1.
        -31    1    1    2    0    0 -0.14869005114E+00 -0.15198952953E+00  0.56608701565E+02  0.57096840792E+02  0.74470750000E+01 0. -1.
<mgrwt>
<rscale>  0 0.14920080E+02</rscale>
<asrwt>0</asrwt>
<pdfrwt beam="1">  1        2 0.99516724E+00 0.14920080E+02</pdfrwt>
<pdfrwt beam="2">  1       -2 0.98594024E+00 0.14920080E+02</pdfrwt>
<totfact> 0.35742056E-13</totfact>
</mgrwt>
</event>
<event>
 4    1  0.5011189E-019  0.1495223E+02  0.7818608E-02  0.1869530E+00
         -2   -1    0    0    0  501 -0.00000000000E+00  0.00000000000E+00  0.11907638912E+03  0.11907638915E+03  0.25500000000E-02 0.  1.
          2   -1    0    0  501    0  0.00000000000E+00 -0.00000000000E+00 -0.46937819338E+00  0.46938512005E+00  0.25500000000E-02 0. -1.
         31    1    1    2    0    0  0.13789698501E+00 -0.63149372047E+00  0.58306505858E+02  0.58783716719E+02  0.74470750000E+01 0.  1.
        -31    1    1    2    0    0 -0.13789698501E+00  0.63149372047E+00  0.60300505067E+02  0.60762057547E+02  0.74470750000E+01 0.  1.
<mgrwt>
<rscale>  0 0.14952227E+02</rscale>
<asrwt>0</asrwt>
<pdfrwt beam="2">  1        2 0.99688422E+00 0.14952227E+02</pdfrwt>
<pdfrwt beam="1">  1       -2 0.98848810E+00 0.14952227E+02</pdfrwt>
<totfact> 0.83995865E-14</totfact>
</mgrwt>
</event>
<event>
 4    1  0.5011189E-019  0.1494672E+02  0.7818608E-02  0.1869699E+00
          2   -1    0    0  501    0  0.00000000000E+00  0.00000000000E+00  0.11998284054E+03  0.11998284056E+03  0.25500000000E-02 0.  1.
         -2   -1    0    0    0  501 -0.00000000000E+00 -0.00000000000E+00 -0.46548904157E+00  0.46549602611E+00  0.25500000000E-02 0. -1.
         31    1    1    2    0    0  0.38377676096E+00  0.47613664522E+00  0.60845916667E+02  0.61303005570E+02  0.74470750000E+01 0.  1.
        -31    1    1    2    0    0 -0.38377676096E+00 -0.47613664522E+00  0.58671434827E+02  0.59145331019E+02  0.74470750000E+01 0. -1.
<mgrwt>
<rscale>  0 0.14946721E+02</rscale>
<asrwt>0</asrwt>
<pdfrwt beam="1">  1        2 0.99595112E+00 0.14946721E+02</pdfrwt>
<pdfrwt beam="2">  1       -2 0.98868566E+00 0.14946721E+02</pdfrwt>
<totfact> 0.85202009E-14</totfact>
</mgrwt>
</event>
<event>
 4    1 -0.5011189E-019  0.1493977E+02  0.7818608E-02  0.1869912E+00
         -2   -1    0    0    0  501 -0.00000000000E+00  0.00000000000E+00  0.11964672253E+03  0.11964672256E+03  0.25500000000E-02 0. -1.
          2   -1    0    0  501    0  0.00000000000E+00 -0.00000000000E+00 -0.46636286167E+00  0.46636983312E+00  0.25500000000E-02 0.  1.
         31    1    1    2    0    0 -0.33452657749E+00  0.33756898466E+00  0.62309747109E+02  0.62754994794E+02  0.74470750000E+01 0. -1.
        -31    1    1    2    0    0  0.33452657749E+00 -0.33756898466E+00  0.56870612563E+02  0.57358097599E+02  0.74470750000E+01 0.  1.
<mgrwt>
<rscale>  0 0.14939774E+02</rscale>
<asrwt>0</asrwt>
<pdfrwt beam="2">  1        2 0.99052364E+00 0.14939774E+02</pdfrwt>
<pdfrwt beam="1">  1       -2 0.99317909E+00 0.14939774E+02</pdfrwt>
<totfact>-0.15225277E-13</totfact>
</mgrwt>
</event>
<event>
 4    1  0.5011189E-019  0.1494958E+02  0.7818608E-02  0.1869611E+00
         -2   -1    0    0    0  501 -0.00000000000E+00  0.00000000000E+00  0.11914625768E+03  0.11914625771E+03  0.25500000000E-02 0.  1.
          2   -1    0    0  501    0  0.00000000000E+00 -0.00000000000E+00 -0.46893670012E+00  0.46894363331E+00  0.25500000000E-02 0. -1.
         31    1    1    2    0    0 -0.19781447295E+00 -0.29229800669E+00  0.63639836083E+02  0.64075051552E+02  0.74470750000E+01 0.  1.
        -31    1    1    2    0    0  0.19781447295E+00  0.29229800669E+00  0.55037484900E+02  0.55540149792E+02  0.74470750000E+01 0.  1.
<mgrwt>
<rscale>  0 0.14949578E+02</rscale>
<asrwt>0</asrwt>
<pdfrwt beam="2">  1        2 0.99595255E+00 0.14949578E+02</pdfrwt>
<pdfrwt beam="1">  1       -2 0.98906218E+00 0.14949578E+02</pdfrwt>
<totfact> 0.60631117E-14</totfact>
</mgrwt>
</event>
<event>
 4    1 -0.5011189E-019  0.1494703E+02  0.7818608E-02  0.1869689E+00
         -2   -1    0    0    0  501 -0.00000000000E+00  0.00000000000E+00  0.12003889149E+03  0.12003889151E+03  0.25500000000E-02 0.  1.
          2   -1    0    0  501    0  0.00000000000E+00 -0.00000000000E+00 -0.46529108359E+00  0.46529807110E+00  0.25500000000E-02 0. -1.
         31    1    1    2    0    0 -0.15570274219E+00  0.49763581847E+00  0.56963486060E+02  0.57450583591E+02  0.74470750000E+01 0. -1.
        -31    1    1    2    0    0  0.15570274219E+00 -0.49763581847E+00  0.62610114341E+02  0.63053605992E+02  0.74470750000E+01 0.  1.
<mgrwt>
<rscale>  0 0.14947033E+02</rscale>
<asrwt>0</asrwt>
<pdfrwt beam="2">  1        2 0.98826862E+00 0.14947033E+02</pdfrwt>
<pdfrwt beam="1">  1       -2 0.99641295E+00 0.14947033E+02</pdfrwt>
<totfact>-0.19216881E-13</totfact>
</mgrwt>
</event>
<event>
 4    1 -0.5011189E-019  0.1497316E+02  0.7818608E-02  0.1868889E+00
          2   -1    0    0  501    0  0.00000000000E+00  0.00000000000E+00  0.11964503332E+03  0.11964503335E+03  0.25500000000E-02 0.  1.
         -2   -1    0    0    0  501 -0.00000000000E+00 -0.00000000000E+00 -0.46845603747E+00  0.46846297777E+00  0.25500000000E-02 0. -1.
         31    1    1    2    0    0 -0.49626575270E+00 -0.26658903448E+00  0.63776478636E+02  0.64212269098E+02  0.74470750000E+01 0.  1.
        -31    1    1    2    0    0  0.49626575270E+00  0.26658903448E+00  0.55400098646E+02  0.55901227227E+02  0.74470750000E+01 0. -1.
<mgrwt>
<rscale>  0 0.14973157E+02</rscale>
<asrwt>0</asrwt>
<pdfrwt beam="1">  1        2 0.99318243E+00 0.14973157E+02</pdfrwt>
<pdfrwt beam="2">  1       -2 0.99495195E+00 0.14973157E+02</pdfrwt>
<totfact>-0.13911558E-13</totfact>
</mgrwt>
</event>
<event>
 4    1 -0.5011189E-019  0.1492021E+02  0.7818608E-02  0.1870513E+00
         -2   -1    0    0    0  501 -0.00000000000E+00  0.00000000000E+00  0.11940489028E+03  0.11940489030E+03  0.25500000000E-02 0. -1.
          2   -1    0    0  501    0  0.00000000000E+00 -0.00000000000E+00 -0.46608414031E+00  0.46609111593E+00  0.25500000000E-02 0.  1.
         31    1    1    2    0    0 -0.34505134590E+00  0.18919691712E+00  0.57875413526E+02  0.58353896808E+02  0.74470750000E+01 0.  1.
        -31    1    1    2    0    0  0.34505134590E+00 -0.18919691712E+00  0.61063392611E+02  0.61517084612E+02  0.74470750000E+01 0.  1.
<mgrwt>
<rscale>  0 0.14920207E+02</rscale>
<asrwt>0</asrwt>
<pdfrwt beam="2">  1        2 0.98992618E+00 0.14920207E+02</pdfrwt>
<pdfrwt beam="1">  1       -2 0.99117714E+00 0.14920207E+02</pdfrwt>
<totfact>-0.74313805E-14</totfact>
</mgrwt>
</event>
<event>
 4    1 -0.5011189E-019  0.1491714E+02  0.7818608E-02  0.1870607E+00
         -2   -1    0    0    0  501 -0.00000000000E+00  0.00000000000E+00  0.11962788086E+03  0.11962788088E+03  0.25500000000E-02 0.  1.
          2   -1    0    0  501    0  0.00000000000E+00 -0.00000000000E+00 -0.46502430219E+00  0.46503129370E+00  0.25500000000E-02 0. -1.
         31    1    1    2    0    0 -0.13151768240E+00 -0.17231663368E+00  0.56742187370E+02  0.57229203589E+02  0.74470750000E+01 0. -1.
        -31    1    1    2    0    0  0.13151768240E+00  0.17231663368E+00  0.62420669184E+02  0.62863708587E+02  0.74470750000E+01 0.  1.
<mgrwt>
<rscale>  0 0.14917144E+02</rscale>
<asrwt>0</asrwt>
<pdfrwt beam="2">  1        2 0.98769108E+00 0.14917144E+02</pdfrwt>
<pdfrwt beam="1">  1       -2 0.99301222E+00 0.14917144E+02</pdfrwt>
<totfact>-0.20212998E-13</totfact>
</mgrwt>
</event>
<event>
 4    1  0.5011189E-019  0.1490794E+02  0.7818608E-02  0.1870891E+00
          2   -1    0    0  501    0  0.00000000000E+00  0.00000000000E+00  0.11976243371E+03  0.11976243374E+03  0.25500000000E-02 0.  1.
         -2   -1    0    0    0  501 -0.00000000000E+00 -0.00000000000E+00 -0.46392900492E+00  0.46393601294E+00  0.25500000000E-02 0. -1.
         31    1    1    2    0    0  0.30151516810E+00  0.64018084670E-01  0.60359386435E+02  0.60817838392E+02  0.74470750000E+01 0.  1.
        -31    1    1    2    0    0 -0.30151516810E+00 -0.64018084670E-01  0.58939118270E+02  0.59408531359E+02  0.74470750000E+01 0.  1.
<mgrwt>
<rscale>  0 0.14907943E+02</rscale>
<asrwt>0</asrwt>
<pdfrwt beam="1">  1        2 0.99411574E+00 0.14907943E+02</pdfrwt>
<pdfrwt beam="2">  1       -2 0.98537801E+00 0.14907943E+02</pdfrwt>
<totfact> 0.47102478E-13</totfact>
</mgrwt>
</event>
<event>
 4    1  0.5011189E-019  0.1492603E+02  0.7818608E-02  0.1870334E+00
          2   -1    0    0  501    0  0.00000000000E+00  0.00000000000E+00  0.12038734645E+03  0.12038734648E+03  0.25500000000E-02 0. -1.
         -2   -1    0    0    0  501 -0.00000000000E+00 -0.00000000000E+00 -0.46264148294E+00  0.46264851046E+00  0.25500000000E-02 0.  1.
         31    1    1    2    0    0 -0.13458111967E+00 -0.45197654295E+00  0.58961323160E+02  0.59431632568E+02  0.74470750000E+01 0. -1.
        -31    1    1    2    0    0  0.13458111967E+00  0.45197654295E+00  0.60963381810E+02  0.61418362422E+02  0.74470750000E+01 0. -1.
<mgrwt>
<rscale>  0 0.14926032E+02</rscale>
<asrwt>0</asrwt>
<pdfrwt beam="1">  1        2 0.99927231E+00 0.14926032E+02</pdfrwt>
<pdfrwt beam="2">  1       -2 0.98267353E+00 0.14926032E+02</pdfrwt>
<totfact> 0.19662780E-13</totfact>
</mgrwt>
</event>
<event>
 4    1 -0.5011189E-019  0.1498108E+02  0.7818608E-02  0.1868646E+00
         -2   -1    0    0    0  501 -0.00000000000E+00  0.00000000000E+00  0.11998670757E+03  0.11998670760E+03  0.25500000000E-02 0.  1.
          2   -1    0    0  501    0  0.00000000000E+00 -0.00000000000E+00 -0.46761648404E+00  0.46762343680E+00  0.25500000000E-02 0. -1.
         31    1    1    2    0    0 -0.10531342442E+00  0.34708151390E+00  0.65544746761E+02  0.65967448871E+02  0.74470750000E+01 0.  1.
        -31    1    1    2    0    0  0.10531342442E+00 -0.34708151390E+00  0.53974344323E+02  0.54486882161E+02  0.74470750000E+01 0. -1.
<mgrwt>
<rscale>  0 0.14981079E+02</rscale>
<asrwt>0</asrwt>
<pdfrwt beam="2">  1        2 0.99318680E+00 0.14981079E+02</pdfrwt>
<pdfrwt beam="1">  1       -2 0.99600069E+00 0.14981079E+02</pdfrwt>
<totfact>-0.13040952E-13</totfact>
</mgrwt>
</event>
<event>
 4    1 -0.5011189E-019  0.1495522E+02  0.7818608E-02  0.1869438E+00
          2   -1    0    0  501    0  0.00000000000E+00  0.00000000000E+00  0.11960170578E+03  0.11960170581E+03  0.25500000000E-02 0.  1.
         -2   -1    0    0    0  501 -0.00000000000E+00 -0.00000000000E+00 -0.46750334174E+00  0.46751029619E+00  0.25500000000E-02 0. -1.
         31    1    1    2    0    0  0.10565667960E+00 -0.48766909658E-01  0.64905649391E+02  0.65331583407E+02  0.74470750000E+01 0.  1.
        -31    1    1    2    0    0 -0.10565667960E+00  0.48766909658E-01  0.54228553047E+02  0.54737632696E+02  0.74470750000E+01 0. -1.
<mgrwt>
<rscale>  0 0.14955215E+02</rscale>
<asrwt>0</asrwt>
<pdfrwt beam="1">  1        2 0.99281629E+00 0.14955215E+02</pdfrwt>
<pdfrwt beam="2">  1       -2 0.99293503E+00 0.14955215E+02</pdfrwt>
<totfact>-0.12233948E-13</totfact>
</mgrwt>
</event>
<event>
 4    1  0.5011189E-019  0.1495122E+02  0.7818608E-02  0.1869561E+00
         -2   -1    0    0    0  501 -0.00000000000E+00  0.00000000000E+00  0.11905916353E+03  0.11905916356E+03  0.25500000000E-02 0.  1.
          2   -1    0    0  501    0  0.00000000000E+00 -0.00000000000E+00 -0.46938253520E+00  0.46938946180E+00  0.25500000000E-02 0. -1.
         31    1    1    2    0    0 -0.48536767765E+00  0.19738772086E+00  0.62403924283E+02  0.62848892080E+02  0.74470750000E+01 0.  1.
        -31    1    1    2    0    0  0.48536767765E+00 -0.19738772086E+00  0.56185856715E+02  0.56679660943E+02  0.74470750000E+01 0. -1.
<mgrwt>
<rscale>  0 0.14951215E+02</rscale>
<asrwt>0</asrwt>
<pdfrwt beam="2">  1        2 0.99689284E+00 0.14951215E+02</pdfrwt>
<pdfrwt beam="1">  1       -2 0.98834571E+00 0.14951215E+02</pdfrwt>
<totfact> 0.92459869E-14</totfact>
</mgrwt>
</event>
<event>
 4    1  0.5011189E-019  0.1491969E+02  0.7818608E-02  0.1870529E+00
         -2   -1    0    0    0  501 -0.00000000000E+00  0.00000000000E+00  0.11859632718E+03  0.11859632721E+03  0.25500000000E-02 0. -1.
          2   -1    0    0  501    0  0.00000000000E+00 -0.00000000000E+00 -0.46922908916E+00  0.46923601803E+00  0.25500000000E-02 0.  1.
         31    1    1    2    0    0  0.40751790640E+00 -0.13802186765E+00  0.59639787908E+02  0.60104478607E+02  0.74470750000E+01 0. -1.
        -31    1    1    2    0    0 -0.40751790640E+00  0.13802186765E+00  0.58487310187E+02  0.58961084622E+02  0.74470750000E+01 0.  1.
<mgrwt>
<rscale>  0 0.14919686E+02</rscale>
<asrwt>0</asrwt>
<pdfrwt beam="2">  1        2 0.99655297E+00 0.14919686E+02</pdfrwt>
<pdfrwt beam="1">  1       -2 0.98451738E+00 0.14919686E+02</pdfrwt>
<totfact> 0.44709468E-13</totfact>
</mgrwt>
</event>
<event>
 4    1  0.5011189E-019  0.1496355E+02  0.7818608E-02  0.1869183E+00
         -2   -1    0    0    0  501 -0.00000000000E+00  0.00000000000E+00  0.11904284719E+03  0.11904284721E+03  0.25500000000E-02 0. -1.
          2   -1    0    0  501    0  0.00000000000E+00 -0.00000000000E+00 -0.47022189579E+00  0.47022881003E+00  0.25500000000E-02 0.  1.
         31    1    1    2    0    0 -0.30770843689E+00  0.60335282992E+00  0.61231636761E+02  0.61686554334E+02  0.74470750000E+01 0. -1.
        -31    1    1    2    0    0  0.30770843689E+00 -0.60335282992E+00  0.57340988529E+02  0.57826521689E+02  0.74470750000E+01 0.  1.
<mgrwt>
<rscale>  0 0.14963551E+02</rscale>
<asrwt>0</asrwt>
<pdfrwt beam="2">  1        2 0.99866793E+00 0.14963551E+02</pdfrwt>
<pdfrwt beam="1">  1       -2 0.98821773E+00 0.14963551E+02</pdfrwt>
<totfact> 0.52333350E-14</totfact>
</mgrwt>
</event>
<event>
 4    1 -0.5011189E-019  0.1491829E+02  0.7818608E-02  0.1870572E+00
          2   -1    0    0  501    0  0.00000000000E+00  0.00000000000E+00  0.11855671600E+03  0.11855671603E+03  0.25500000000E-02 0. -1.
         -2   -1    0    0    0  501 -0.00000000000E+00 -0.00000000000E+00 -0.46929791431E+00  0.46930484216E+00  0.25500000000E-02 0.  1.
         31    1    1    2    0    0  0.13245714709E+00  0.65393013439E-01  0.55871440102E+02  0.56365757036E+02  0.74470750000E+01 0.  1.
        -31    1    1    2    0    0 -0.13245714709E+00 -0.65393013439E-01  0.62215977985E+02  0.62660263835E+02  0.74470750000E+01 0. -1.
<mgrwt>
<rscale>  0 0.14918289E+02</rscale>
<asrwt>0</asrwt>
<pdfrwt beam="1">  1        2 0.98419042E+00 0.14918289E+02</pdfrwt>
<pdfrwt beam="2">  1       -2 0.99669725E+00 0.14918289E+02</pdfrwt>
<totfact>-0.33710451E-13</totfact>
</mgrwt>
</event>
<event>
 4    1 -0.5011189E-019  0.1494030E+02  0.7818608E-02  0.1869896E+00
         -2   -1    0    0    0  501 -0.00000000000E+00  0.00000000000E+00  0.11974325311E+03  0.11974325314E+03  0.25500000000E-02 0.  1.
          2   -1    0    0  501    0  0.00000000000E+00 -0.00000000000E+00 -0.46602003923E+00  0.46602701581E+00  0.25500000000E-02 0. -1.
         31    1    1    2    0    0  0.43120390287E+00  0.18925268989E+00  0.56822560349E+02  0.57310418286E+02  0.74470750000E+01 0. -1.
        -31    1    1    2    0    0 -0.43120390287E+00 -0.18925268989E+00  0.62454672723E+02  0.62898861869E+02  0.74470750000E+01 0.  1.
<mgrwt>
<rscale>  0 0.14940305E+02</rscale>
<asrwt>0</asrwt>
<pdfrwt beam="2">  1        2 0.98980144E+00 0.14940305E+02</pdfrwt>
<pdfrwt beam="1">  1       -2 0.99397443E+00 0.14940305E+02</pdfrwt>
<totfact>-0.17784097E-13</totfact>
</mgrwt>
</event>
<event>
 4    1  0.5011189E-019  0.1490237E+02  0.7818608E-02  0.1871063E+00
          2   -1    0    0  501    0  0.00000000000E+00  0.00000000000E+00  0.11986843312E+03  0.11986843315E+03  0.25500000000E-02 0. -1.
         -2   -1    0    0    0  501 -0.00000000000E+00 -0.00000000000E+00 -0.46317207460E+00  0.46317909408E+00  0.25500000000E-02 0.  1.
         31    1    1    2    0    0 -0.16675280856E+00  0.11485535542E+00  0.58554706670E+02  0.59026719352E+02  0.74470750000E+01 0. -1.
        -31    1    1    2    0    0  0.16675280856E+00 -0.11485535542E+00  0.60850554380E+02  0.61304892894E+02  0.74470750000E+01 0. -1.
<mgrwt>
<rscale>  0 0.14902367E+02</rscale>
<asrwt>0</asrwt>
<pdfrwt beam="1">  1        2 0.99498596E+00 0.14902367E+02</pdfrwt>
<pdfrwt beam="2">  1       -2 0.98377987E+00 0.14902367E+02</pdfrwt>
<totfact> 0.66677085E-13</totfact>
</mgrwt>
</event>
<event>
 4    1 -0.5011189E-019  0.1496396E+02  0.7818608E-02  0.1869170E+00
         -2   -1    0    0    0  501 -0.00000000000E+00  0.00000000000E+00  0.11955584307E+03  0.11955584310E+03  0.25500000000E-02 0.  1.
          2   -1    0    0  501    0  0.00000000000E+00 -0.00000000000E+00 -0.46822971457E+00  0.46823665823E+00  0.25500000000E-02 0. -1.
         31    1    1    2    0    0 -0.39278515055E+00  0.58583159363E+00  0.60776303270E+02  0.61234920136E+02  0.74470750000E+01 0.  1.
        -31    1    1    2    0    0  0.39278515055E+00 -0.58583159363E+00  0.58311310084E+02  0.58789159618E+02  0.74470750000E+01 0. -1.
<mgrwt>
<rscale>  0 0.14963959E+02</rscale>
<asrwt>0</asrwt>
<pdfrwt beam="2">  1        2 0.99447025E+00 0.14963959E+02</pdfrwt>
<pdfrwt beam="1">  1       -2 0.99244307E+00 0.14963959E+02</pdfrwt>
<totfact>-0.95947857E-14</totfact>
</mgrwt>
</event>
<event>
 4    1 -0.5011189E-019  0.1500060E+02  0.7818608E-02  0.1868050E+00
          2   -1    0    0  501    0  0.00000000000E+00  0.00000000000E+00  0.12007134841E+03  0.12007134844E+03  0.25500000000E-02 0. -1.
         -2   -1    0    0    0  501 -0.00000000000E+00 -0.00000000000E+00 -0.46850535512E+00  0.46851229469E+00  0.25500000000E-02 0.  1.
         31    1    1    2    0    0 -0.54887753148E+00 -0.22079047875E+00  0.65165185067E+02  0.65591998642E+02  0.74470750000E+01 0. -1.
        -31    1    1    2    0    0  0.54887753148E+00  0.22079047875E+00  0.54437657992E+02  0.54947862094E+02  0.74470750000E+01 0. -1.
<mgrwt>
<rscale>  0 0.15000599E+02</rscale>
<asrwt>0</asrwt>
<pdfrwt beam="1">  1        2 0.99670791E+00 0.15000599E+02</pdfrwt>
<pdfrwt beam="2">  1       -2 0.99507006E+00 0.15000599E+02</pdfrwt>
<totfact>-0.93455741E-14</totfact>
</mgrwt>
</event>
<event>
 4    1  0.5011189E-019  0.1494013E+02  0.7818608E-02  0.1869901E+00
          2   -1    0    0  501    0  0.00000000000E+00  0.00000000000E+00  0.12028514088E+03  0.12028514091E+03  0.25500000000E-02 0.  1.
         -2   -1    0    0    0  501 -0.00000000000E+00 -0.00000000000E+00 -0.46391001435E+00  0.46391702266E+00  0.25500000000E-02 0. -1.
         31    1    1    2    0    0  0.38990280240E+00 -0.42762543591E+00  0.60637672505E+02  0.61095999383E+02  0.74470750000E+01 0. -1.
        -31    1    1    2    0    0 -0.38990280240E+00  0.42762543591E+00  0.59183558359E+02  0.59653058546E+02  0.74470750000E+01 0.  1.
<mgrwt>
<rscale>  0 0.14940135E+02</rscale>
<asrwt>0</asrwt>
<pdfrwt beam="1">  1        2 0.99843769E+00 0.14940135E+02</pdfrwt>
<pdfrwt beam="2">  1       -2 0.98535436E+00 0.14940135E+02</pdfrwt>
<totfact> 0.19697041E-13</totfact>
</mgrwt>
</event>
<event>
 4    1 -0.5011189E-019  0.1491662E+02  0.7818608E-02  0.1870624E+00
         -2   -1    0    0    0  501 -0.00000000000E+00  0.00000000000E+00  0.11972461676E+03  0.11972461678E+03  0.25500000000E-02 0. -1.
          2   -1    0    0  501    0  0.00000000000E+00 -0.00000000000E+00 -0.46461574796E+00  0.46462274562E+00  0.25500000000E-02 0.  1.
         31    1    1    2    0    0  0.20903545807E+00 -0.12383741683E+00  0.62282918241E+02  0.62727026569E+02  0.74470750000E+01 0. -1.
        -31    1    1    2    0    0 -0.20903545807E+00  0.12383741683E+00  0.56977082768E+02  0.57462212961E+02  0.74470750000E+01 0. -1.
<mgrwt>
<rscale>  0 0.14916617E+02</rscale>
<asrwt>0</asrwt>
<pdfrwt beam="2">  1        2 0.98682978E+00 0.14916617E+02</pdfrwt>
<pdfrwt beam="1">  1       -2 0.99380872E+00 0.14916617E+02</pdfrwt>
<totfact>-0.25258350E-13</totfact>
</mgrwt>
</event>
<event>
 4    1  0.5011189E-019  0.1491325E+02  0.7818608E-02  0.1870727E+00
          2   -1    0    0  501    0  0.00000000000E+00  0.00000000000E+00  0.12021820934E+03  0.12021820936E+03  0.25500000000E-02 0.  1.
         -2   -1    0    0    0  501 -0.00000000000E+00 -0.00000000000E+00 -0.46249921617E+00  0.46250624585E+00  0.25500000000E-02 0. -1.
         31    1    1    2    0    0  0.13691984327E+00 -0.13587591127E+00  0.62501494785E+02  0.62943887596E+02  0.74470750000E+01 0.  1.
        -31    1    1    2    0    0 -0.13691984327E+00  0.13587591127E+00  0.57254215336E+02  0.57736828014E+02  0.74470750000E+01 0. -1.
<mgrwt>
<rscale>  0 0.14913250E+02</rscale>
<asrwt>0</asrwt>
<pdfrwt beam="1">  1        2 0.99787259E+00 0.14913250E+02</pdfrwt>
<pdfrwt beam="2">  1       -2 0.98236722E+00 0.14913250E+02</pdfrwt>
<totfact> 0.52485583E-13</totfact>
</mgrwt>
</event>
<event>
 4    1  0.5011189E-019  0.1493316E+02  0.7818608E-02  0.1870115E+00
         -2   -1    0    0    0  501 -0.00000000000E+00  0.00000000000E+00  0.11924150435E+03  0.11924150438E+03  0.25500000000E-02 0.  1.
          2   -1    0    0  501    0  0.00000000000E+00 -0.00000000000E+00 -0.46753335207E+00  0.46754030607E+00  0.25500000000E-02 0. -1.
         31    1    1    2    0    0  0.47577303121E+00  0.53429182883E-01  0.57396459431E+02  0.57879544710E+02  0.74470750000E+01 0. -1.
        -31    1    1    2    0    0 -0.47577303121E+00 -0.53429182883E-01  0.61377511567E+02  0.61829499972E+02  0.74470750000E+01 0.  1.
<mgrwt>
<rscale>  0 0.14933157E+02</rscale>
<asrwt>0</asrwt>
<pdfrwt beam="2">  1        2 0.99298684E+00 0.14933157E+02</pdfrwt>
<pdfrwt beam="1">  1       -2 0.98983814E+00 0.14933157E+02</pdfrwt>
<totfact> 0.20998202E-14</totfact>
</mgrwt>
</event>
<event>
 4    1 -0.5011189E-019  0.1494366E+02  0.7818608E-02  0.1869793E+00
         -2   -1    0    0    0  501 -0.00000000000E+00  0.00000000000E+00  0.12010865447E+03  0.12010865449E+03  0.25500000000E-02 0.  1.
          2   -1    0    0  501    0  0.00000000000E+00 -0.00000000000E+00 -0.46481094805E+00  0.46481794278E+00  0.25500000000E-02 0. -1.
         31    1    1    2    0    0  0.17631309825E-01  0.40357530529E-01  0.54931461516E+02  0.55433981726E+02  0.74470750000E+01 0. -1.
        -31    1    1    2    0    0 -0.17631309825E-01 -0.40357530529E-01  0.64712382002E+02  0.65139490710E+02  0.74470750000E+01 0.  1.
<mgrwt>
<rscale>  0 0.14943660E+02</rscale>
<asrwt>0</asrwt>
<pdfrwt beam="2">  1        2 0.98725498E+00 0.14943660E+02</pdfrwt>
<pdfrwt beam="1">  1       -2 0.99698583E+00 0.14943660E+02</pdfrwt>
<totfact>-0.19806170E-13</totfact>
</mgrwt>
</event>
<event>
 4    1 -0.5011189E-019  0.1491043E+02  0.7818608E-02  0.1870814E+00
          2   -1    0    0  501    0  0.00000000000E+00  0.00000000000E+00  0.11823220059E+03  0.11823220062E+03  0.25500000000E-02 0. -1.
         -2   -1    0    0    0  501 -0.00000000000E+00 -0.00000000000E+00 -0.47009010877E+00  0.47009702495E+00  0.25500000000E-02 0.  1.
         31    1    1    2    0    0 -0.19921143554E+00  0.26175552589E+00  0.59791294985E+02  0.60254178969E+02  0.74470750000E+01 0. -1.
        -31    1    1    2    0    0  0.19921143554E+00 -0.26175552589E+00  0.57970815499E+02  0.58448118677E+02  0.74470750000E+01 0.  1.
<mgrwt>
<rscale>  0 0.14910426E+02</rscale>
<asrwt>0</asrwt>
<pdfrwt beam="1">  1        2 0.98151365E+00 0.14910426E+02</pdfrwt>
<pdfrwt beam="2">  1       -2 0.99836222E+00 0.14910426E+02</pdfrwt>
<totfact>-0.31344692E-13</totfact>
</mgrwt>
</event>
<event>
 4    1 -0.5011189E-019  0.1502268E+02  0.7818608E-02  0.1867377E+00
         -2   -1    0    0    0  501 -0.00000000000E+00  0.00000000000E+00  0.12012365492E+03  0.12012365495E+03  0.25500000000E-02 0. -1.
          2   -1    0    0  501    0  0.00000000000E+00 -0.00000000000E+00 -0.46968129306E+00  0.46968821526E+00  0.25500000000E-02 0.  1.
         31    1    1    2    0    0  0.98014718984E+00  0.11309681124E-01  0.59645682914E+02  0.60116779960E+02  0.74470750000E+01 0.  1.
        -31    1    1    2    0    0 -0.98014718984E+00 -0.11309681124E-01  0.60008290712E+02  0.60476563201E+02  0.74470750000E+01 0.  1.
<mgrwt>
<rscale>  0 0.15022683E+02</rscale>
<asrwt>0</asrwt>
<pdfrwt beam="2">  1        2 0.99755959E+00 0.15022683E+02</pdfrwt>
<pdfrwt beam="1">  1       -2 0.99715014E+00 0.15022683E+02</pdfrwt>
<totfact>-0.58967051E-14</totfact>
</mgrwt>
</event>
<event>
 4    1 -0.5011189E-019  0.1491101E+02  0.7818608E-02  0.1870796E+00
         -2   -1    0    0    0  501 -0.00000000000E+00  0.00000000000E+00  0.11984376852E+03  0.11984376855E+03  0.25500000000E-02 0.  1.
          2   -1    0    0  501    0  0.00000000000E+00 -0.00000000000E+00 -0.46380492693E+00  0.46381193683E+00  0.25500000000E-02 0. -1.
         31    1    1    2    0    0 -0.56008569115E-02 -0.15221640554E+00  0.62272193123E+02  0.62716091744E+02  0.74470750000E+01 0.  1.
        -31    1    1    2    0    0  0.56008569115E-02  0.15221640554E+00  0.57107770475E+02  0.57591488745E+02  0.74470750000E+01 0. -1.
<mgrwt>
<rscale>  0 0.14911010E+02</rscale>
<asrwt>0</asrwt>
<pdfrwt beam="2">  1        2 0.98511807E+00 0.14911010E+02</pdfrwt>
<pdfrwt beam="1">  1       -2 0.99478725E+00 0.14911010E+02</pdfrwt>
<totfact>-0.34147313E-13</totfact>
</mgrwt>
</event>
<event>
 4    1 -0.5011189E-019  0.1501194E+02  0.7818608E-02  0.1867704E+00
         -2   -1    0    0    0  501 -0.00000000000E+00  0.00000000000E+00  0.11973792749E+03  0.11973792752E+03  0.25500000000E-02 0. -1.
          2   -1    0    0  501    0  0.00000000000E+00 -0.00000000000E+00 -0.47052075881E+00  0.47052766865E+00  0.25500000000E-02 0.  1.
         31    1    1    2    0    0  0.44825251815E+00  0.82438229396E+00  0.59540698333E+02  0.60011950648E+02  0.74470750000E+01 0. -1.
        -31    1    1    2    0    0 -0.44825251815E+00 -0.82438229396E+00  0.59726708399E+02  0.60196504539E+02  0.74470750000E+01 0.  1.
<mgrwt>
<rscale>  0 0.15011942E+02</rscale>
<asrwt>0</asrwt>
<pdfrwt beam="2">  1        2 0.99932299E+00 0.15011942E+02</pdfrwt>
<pdfrwt beam="1">  1       -2 0.99396761E+00 0.15011942E+02</pdfrwt>
<totfact>-0.25059648E-14</totfact>
</mgrwt>
</event>
<event>
 4    1 -0.5011189E-019  0.1499655E+02  0.7818608E-02  0.1868174E+00
         -2   -1    0    0    0  501 -0.00000000000E+00  0.00000000000E+00  0.12022913383E+03  0.12022913386E+03  0.25500000000E-02 0.  1.
          2   -1    0    0  501    0  0.00000000000E+00 -0.00000000000E+00 -0.46763790769E+00  0.46764486014E+00  0.25500000000E-02 0. -1.
         31    1    1    2    0    0  0.67166582705E+00 -0.15239400541E+00  0.64221140772E+02  0.64655148341E+02  0.74470750000E+01 0.  1.
        -31    1    1    2    0    0 -0.67166582705E+00  0.15239400541E+00  0.55540355152E+02  0.56041630378E+02  0.74470750000E+01 0. -1.
<mgrwt>
<rscale>  0 0.14996549E+02</rscale>
<asrwt>0</asrwt>
<pdfrwt beam="2">  1        2 0.99323990E+00 0.14996549E+02</pdfrwt>
<pdfrwt beam="1">  1       -2 0.99800541E+00 0.14996549E+02</pdfrwt>
<totfact>-0.82121175E-14</totfact>
</mgrwt>
</event>
<event>
 4    1 -0.5011189E-019  0.1496750E+02  0.7818608E-02  0.1869062E+00
         -2   -1    0    0    0  501 -0.00000000000E+00  0.00000000000E+00  0.11948423171E+03  0.11948423173E+03  0.25500000000E-02 0. -1.
          2   -1    0    0  501    0  0.00000000000E+00 -0.00000000000E+00 -0.46873233519E+00  0.46873927140E+00  0.25500000000E-02 0.  1.
         31    1    1    2    0    0  0.35466820580E+00  0.10999122958E+00  0.54377849775E+02  0.54886677435E+02  0.74470750000E+01 0.  1.
        -31    1    1    2    0    0 -0.35466820580E+00 -0.10999122958E+00  0.64637649596E+02  0.65066293571E+02  0.74470750000E+01 0.  1.
<mgrwt>
<rscale>  0 0.14967504E+02</rscale>
<asrwt>0</asrwt>
<pdfrwt beam="2">  1        2 0.99553125E+00 0.14967504E+02</pdfrwt>
<pdfrwt beam="1">  1       -2 0.99185509E+00 0.14967504E+02</pdfrwt>
<totfact>-0.69887680E-14</totfact>
</mgrwt>
</event>
<event>
 4    1 -0.5011189E-019  0.1495210E+02  0.7818608E-02  0.1869534E+00
          2   -1    0    0  501    0  0.00000000000E+00  0.00000000000E+00  0.11897701738E+03  0.11897701740E+03  0.25500000000E-02 0. -1.
         -2   -1    0    0    0  501 -0.00000000000E+00 -0.00000000000E+00 -0.46976214333E+00  0.46976906434E+00  0.25500000000E-02 0.  1.
         31    1    1    2    0    0  0.31336876824E+00 -0.74238457923E-01  0.54673722334E+02  0.55179512060E+02  0.74470750000E+01 0. -1.
        -31    1    1    2    0    0 -0.31336876824E+00  0.74238457923E-01  0.63833532899E+02  0.64267274408E+02  0.74470750000E+01 0. -1.
<mgrwt>
<rscale>  0 0.14952099E+02</rscale>
<asrwt>0</asrwt>
<pdfrwt beam="1">  1        2 0.98766960E+00 0.14952099E+02</pdfrwt>
<pdfrwt beam="2">  1       -2 0.99769318E+00 0.14952099E+02</pdfrwt>
<totfact>-0.15488818E-13</totfact>
</mgrwt>
</event>
<event>
 4    1 -0.5011189E-019  0.1498016E+02  0.7818608E-02  0.1868675E+00
         -2   -1    0    0    0  501 -0.00000000000E+00  0.00000000000E+00  0.11975865590E+03  0.11975865592E+03  0.25500000000E-02 0.  1.
          2   -1    0    0  501    0  0.00000000000E+00 -0.00000000000E+00 -0.46844919302E+00  0.46845613342E+00  0.25500000000E-02 0. -1.
         31    1    1    2    0    0  0.57252920459E+00 -0.50781373090E+00  0.57734466629E+02  0.58217808508E+02  0.74470750000E+01 0. -1.
        -31    1    1    2    0    0 -0.57252920459E+00  0.50781373090E+00  0.61555740074E+02  0.62009303548E+02  0.74470750000E+01 0. -1.
<mgrwt>
<rscale>  0 0.14980155E+02</rscale>
<asrwt>0</asrwt>
<pdfrwt beam="2">  1        2 0.99494115E+00 0.14980155E+02</pdfrwt>
<pdfrwt beam="1">  1       -2 0.99412188E+00 0.14980155E+02</pdfrwt>
<totfact>-0.11829360E-13</totfact>
</mgrwt>
</event>
<event>
 4    1 -0.5011189E-019  0.1494637E+02  0.7818608E-02  0.1869710E+00
         -2   -1    0    0    0  501 -0.00000000000E+00  0.00000000000E+00  0.11967926588E+03  0.11967926591E+03  0.25500000000E-02 0. -1.
          2   -1    0    0  501    0  0.00000000000E+00 -0.00000000000E+00 -0.46664769628E+00  0.46665466348E+00  0.25500000000E-02 0.  1.
         31    1    1    2    0    0  0.49974659964E+00 -0.19245087420E-01  0.62607908484E+02  0.63051243031E+02  0.74470750000E+01 0. -1.
        -31    1    1    2    0    0 -0.49974659964E+00  0.19245087420E-01  0.56604709698E+02  0.57094677538E+02  0.74470750000E+01 0.  1.
<mgrwt>
<rscale>  0 0.14946367E+02</rscale>
<asrwt>0</asrwt>
<pdfrwt beam="2">  1        2 0.99112730E+00 0.14946367E+02</pdfrwt>
<pdfrwt beam="1">  1       -2 0.99345053E+00 0.14946367E+02</pdfrwt>
<totfact>-0.15033544E-13</totfact>
</mgrwt>
</event>
<event>
 4    1  0.5011189E-019  0.1492270E+02  0.7818608E-02  0.1870437E+00
         -2   -1    0    0    0  501 -0.00000000000E+00  0.00000000000E+00  0.11853082931E+03  0.11853082933E+03  0.25500000000E-02 0. -1.
          2   -1    0    0  501    0  0.00000000000E+00 -0.00000000000E+00 -0.46967792338E+00  0.46968484562E+00  0.25500000000E-02 0.  1.
         31    1    1    2    0    0 -0.30359177683E+00 -0.10391053997E+00  0.56387719383E+02  0.56878262884E+02  0.74470750000E+01 0.  1.
        -31    1    1    2    0    0  0.30359177683E+00  0.10391053997E+00  0.61673432000E+02  0.62122251296E+02  0.74470750000E+01 0. -1.
<mgrwt>
<rscale>  0 0.14922698E+02</rscale>
<asrwt>0</asrwt>
<pdfrwt beam="2">  1        2 0.99750025E+00 0.14922698E+02</pdfrwt>
<pdfrwt beam="1">  1       -2 0.98397951E+00 0.14922698E+02</pdfrwt>
<totfact> 0.41209148E-13</totfact>
</mgrwt>
</event>
<event>
 4    1  0.5011189E-019  0.1492919E+02  0.7818608E-02  0.1870237E+00
         -2   -1    0    0    0  501 -0.00000000000E+00  0.00000000000E+00  0.11856493323E+03  0.11856493326E+03  0.25500000000E-02 0.  1.
          2   -1    0    0  501    0  0.00000000000E+00 -0.00000000000E+00 -0.46995146402E+00  0.46995838224E+00  0.25500000000E-02 0. -1.
         31    1    1    2    0    0  0.17154561990E+00 -0.30778226759E+00  0.56095286565E+02  0.56588552364E+02  0.74470750000E+01 0.  1.
        -31    1    1    2    0    0 -0.17154561990E+00  0.30778226759E+00  0.61999695203E+02  0.62446339278E+02  0.74470750000E+01 0.  1.
<mgrwt>
<rscale>  0 0.14929190E+02</rscale>
<asrwt>0</asrwt>
<pdfrwt beam="2">  1        2 0.99808003E+00 0.14929190E+02</pdfrwt>
<pdfrwt beam="1">  1       -2 0.98426377E+00 0.14929190E+02</pdfrwt>
<totfact> 0.31422821E-13</totfact>
</mgrwt>
</event>
<event>
 4    1 -0.5011189E-019  0.1493806E+02  0.7818608E-02  0.1869964E+00
         -2   -1    0    0    0  501 -0.00000000000E+00  0.00000000000E+00  0.12019312198E+03  0.12019312201E+03  0.25500000000E-02 0.  1.
          2   -1    0    0  501    0  0.00000000000E+00 -0.00000000000E+00 -0.46413652225E+00  0.46414352714E+00  0.25500000000E-02 0. -1.
         31    1    1    2    0    0  0.41979962062E+00  0.90820767648E-02  0.56723713972E+02  0.57212017680E+02  0.74470750000E+01 0.  1.
        -31    1    1    2    0    0 -0.41979962062E+00 -0.90820767648E-02  0.63005271485E+02  0.63445247854E+02  0.74470750000E+01 0. -1.
<mgrwt>
<rscale>  0 0.14938064E+02</rscale>
<asrwt>0</asrwt>
<pdfrwt beam="2">  1        2 0.98583071E+00 0.14938064E+02</pdfrwt>
<pdfrwt beam="1">  1       -2 0.99767869E+00 0.14938064E+02</pdfrwt>
<totfact>-0.20315975E-13</totfact>
</mgrwt>
</event>
<event>
 4    1 -0.5011189E-019  0.1502364E+02  0.7818608E-02  0.1867348E+00
         -2   -1    0    0    0  501 -0.00000000000E+00  0.00000000000E+00  0.11992264754E+03  0.11992264757E+03  0.25500000000E-02 0. -1.
          2   -1    0    0  501    0  0.00000000000E+00 -0.00000000000E+00 -0.47052866750E+00  0.47053557723E+00  0.25500000000E-02 0.  1.
         31    1    1    2    0    0  0.80984769301E+00  0.37990020137E+00  0.56437974446E+02  0.56934208198E+02  0.74470750000E+01 0.  1.
        -31    1    1    2    0    0 -0.80984769301E+00 -0.37990020137E+00  0.63014144427E+02  0.63458974947E+02  0.74470750000E+01 0. -1.
<mgrwt>
<rscale>  0 0.15023643E+02</rscale>
<asrwt>0</asrwt>
<pdfrwt beam="2">  1        2 0.99934575E+00 0.15023643E+02</pdfrwt>
<pdfrwt beam="1">  1       -2 0.99549507E+00 0.15023643E+02</pdfrwt>
<totfact>-0.24355825E-14</totfact>
</mgrwt>
</event>
<event>
 4    1 -0.5011189E-019  0.1499001E+02  0.7818608E-02  0.1868373E+00
         -2   -1    0    0    0  501 -0.00000000000E+00  0.00000000000E+00  0.12041247008E+03  0.12041247011E+03  0.25500000000E-02 0. -1.
          2   -1    0    0  501    0  0.00000000000E+00 -0.00000000000E+00 -0.46651891259E+00  0.46652588171E+00  0.25500000000E-02 0.  1.
         31    1    1    2    0    0  0.39507818463E+00 -0.53109904529E+00  0.64225053971E+02  0.64658755297E+02  0.74470750000E+01 0. -1.
        -31    1    1    2    0    0 -0.39507818463E+00  0.53109904529E+00  0.55720897196E+02  0.56220240691E+02  0.74470750000E+01 0. -1.
<mgrwt>
<rscale>  0 0.14990012E+02</rscale>
<asrwt>0</asrwt>
<pdfrwt beam="2">  1        2 0.99087827E+00 0.14990012E+02</pdfrwt>
<pdfrwt beam="1">  1       -2 0.99951211E+00 0.14990012E+02</pdfrwt>
<totfact>-0.27286604E-14</totfact>
</mgrwt>
</event>
<event>
 4    1 -0.5011189E-019  0.1495146E+02  0.7818608E-02  0.1869553E+00
          2   -1    0    0  501    0  0.00000000000E+00  0.00000000000E+00  0.11917038007E+03  0.11917038010E+03  0.25500000000E-02 0.  1.
         -2   -1    0    0    0  501 -0.00000000000E+00 -0.00000000000E+00 -0.46896005970E+00  0.46896699254E+00  0.25500000000E-02 0. -1.
         31    1    1    2    0    0 -0.22776516251E+00  0.77993101993E-01  0.54485487632E+02  0.54992592669E+02  0.74470750000E+01 0. -1.
        -31    1    1    2    0    0  0.22776516251E+00 -0.77993101993E-01  0.64215932381E+02  0.64646754423E+02  0.74470750000E+01 0.  1.
<mgrwt>
<rscale>  0 0.14951463E+02</rscale>
<asrwt>0</asrwt>
<pdfrwt beam="1">  1        2 0.98926183E+00 0.14951463E+02</pdfrwt>
<pdfrwt beam="2">  1       -2 0.99600275E+00 0.14951463E+02</pdfrwt>
<totfact>-0.18053338E-13</totfact>
</mgrwt>
</event>
<event>
 4    1  0.5011189E-019  0.1492338E+02  0.7818608E-02  0.1870416E+00
          2   -1    0    0  501    0  0.00000000000E+00  0.00000000000E+00  0.11972315115E+03  0.11972315117E+03  0.25500000000E-02 0. -1.
         -2   -1    0    0    0  501 -0.00000000000E+00 -0.00000000000E+00 -0.46504273641E+00  0.46504972765E+00  0.25500000000E-02 0.  1.
         31    1    1    2    0    0  0.21122054181E+00 -0.33933054794E+00  0.57687494546E+02  0.58167565811E+02  0.74470750000E+01 0.  1.
        -31    1    1    2    0    0 -0.21122054181E+00  0.33933054794E+00  0.61570613865E+02  0.62020635091E+02  0.74470750000E+01 0. -1.
<mgrwt>
<rscale>  0 0.14923378E+02</rscale>
<asrwt>0</asrwt>
<pdfrwt beam="1">  1        2 0.99380014E+00 0.14923378E+02</pdfrwt>
<pdfrwt beam="2">  1       -2 0.98773312E+00 0.14923378E+02</pdfrwt>
<totfact> 0.19461684E-13</totfact>
</mgrwt>
</event>
<event>
 4    1  0.5011189E-019  0.1494637E+02  0.7818608E-02  0.1869709E+00
          2   -1    0    0  501    0  0.00000000000E+00  0.00000000000E+00  0.12040344575E+03  0.12040344578E+03  0.25500000000E-02 0.  1.
         -2   -1    0    0    0  501 -0.00000000000E+00 -0.00000000000E+00 -0.46384111776E+00  0.46384812711E+00  0.25500000000E-02 0. -1.
         31    1    1    2    0    0  0.59593955193E+00  0.16695457217E+00  0.59315313477E+02  0.59784181492E+02  0.74470750000E+01 0.  1.
        -31    1    1    2    0    0 -0.59593955193E+00 -0.16695457217E+00  0.60624291157E+02  0.61083112413E+02  0.74470750000E+01 0.  1.
<mgrwt>
<rscale>  0 0.14946370E+02</rscale>
<asrwt>0</asrwt>
<pdfrwt beam="1">  1        2 0.99941535E+00 0.14946370E+02</pdfrwt>
<pdfrwt beam="2">  1       -2 0.98521230E+00 0.14946370E+02</pdfrwt>
<totfact> 0.85663992E-14</totfact>
</mgrwt>
</event>
<event>
 4    1  0.5011189E-019  0.1490395E+02  0.7818608E-02  0.1871014E+00
         -2   -1    0    0    0  501 -0.00000000000E+00  0.00000000000E+00  0.11823898334E+03  0.11823898336E+03  0.25500000000E-02 0.  1.
          2   -1    0    0  501    0  0.00000000000E+00 -0.00000000000E+00 -0.46965485062E+00  0.46966177320E+00  0.25500000000E-02 0. -1.
         31    1    1    2    0    0  0.19333815868E+00 -0.16901477519E+00  0.59553568925E+02  0.60017934348E+02  0.74470750000E+01 0.  1.
        -31    1    1    2    0    0 -0.19333815868E+00  0.16901477519E+00  0.58215759560E+02  0.58690710789E+02  0.74470750000E+01 0. -1.
<mgrwt>
<rscale>  0 0.14903949E+02</rscale>
<asrwt>0</asrwt>
<pdfrwt beam="2">  1        2 0.99744173E+00 0.14903949E+02</pdfrwt>
<pdfrwt beam="1">  1       -2 0.98156613E+00 0.14903949E+02</pdfrwt>
<totfact> 0.70563324E-13</totfact>
</mgrwt>
</event>
<event>
 4    1  0.5011189E-019  0.1490527E+02  0.7818608E-02  0.1870973E+00
          2   -1    0    0  501    0  0.00000000000E+00  0.00000000000E+00  0.11954137983E+03  0.11954137986E+03  0.25500000000E-02 0. -1.
         -2   -1    0    0    0  501 -0.00000000000E+00 -0.00000000000E+00 -0.46462025609E+00  0.46462725368E+00  0.25500000000E-02 0.  1.
         31    1    1    2    0    0  0.12073289911E+00  0.12794782957E+00  0.57704269654E+02  0.58183095564E+02  0.74470750000E+01 0.  1.
        -31    1    1    2    0    0 -0.12073289911E+00 -0.12794782957E+00  0.61372489922E+02  0.61822911548E+02  0.74470750000E+01 0. -1.
<mgrwt>
<rscale>  0 0.14905270E+02</rscale>
<asrwt>0</asrwt>
<pdfrwt beam="1">  1        2 0.99229363E+00 0.14905270E+02</pdfrwt>
<pdfrwt beam="2">  1       -2 0.98683347E+00 0.14905270E+02</pdfrwt>
<totfact> 0.32676027E-13</totfact>
</mgrwt>
</event>
<event>
 4    1 -0.5011189E-019  0.1489681E+02  0.7818608E-02  0.1871234E+00
          2   -1    0    0  501    0  0.00000000000E+00  0.00000000000E+00  0.11828469565E+03  0.11828469567E+03  0.25500000000E-02 0.  1.
         -2   -1    0    0    0  501 -0.00000000000E+00 -0.00000000000E+00 -0.46902354627E+00  0.46903047818E+00  0.25500000000E-02 0. -1.
         31    1    1    2    0    0 -0.86835789750E-01  0.10963561047E+00  0.58785846900E+02  0.59255837537E+02  0.74470750000E+01 0. -1.
        -31    1    1    2    0    0  0.86835789750E-01 -0.10963561047E+00  0.59029825200E+02  0.59497888615E+02  0.74470750000E+01 0.  1.
<mgrwt>
<rscale>  0 0.14896808E+02</rscale>
<asrwt>0</asrwt>
<pdfrwt beam="1">  1        2 0.98193890E+00 0.14896808E+02</pdfrwt>
<pdfrwt beam="2">  1       -2 0.99610782E+00 0.14896808E+02</pdfrwt>
<totfact>-0.53716616E-13</totfact>
</mgrwt>
</event>
<event>
 4    1 -0.5011189E-019  0.1496668E+02  0.7818608E-02  0.1869087E+00
          2   -1    0    0  501    0  0.00000000000E+00  0.00000000000E+00  0.11958765946E+03  0.11958765949E+03  0.25500000000E-02 0.  1.
         -2   -1    0    0    0  501 -0.00000000000E+00 -0.00000000000E+00 -0.46827512144E+00  0.46828206442E+00  0.25500000000E-02 0. -1.
         31    1    1    2    0    0 -0.14129305205E+00 -0.50125756753E+00  0.55390065662E+02  0.55890871553E+02  0.74470750000E+01 0.  1.
        -31    1    1    2    0    0  0.14129305205E+00  0.50125756753E+00  0.63729318682E+02  0.64165070004E+02  0.74470750000E+01 0.  1.
<mgrwt>
<rscale>  0 0.14966676E+02</rscale>
<asrwt>0</asrwt>
<pdfrwt beam="1">  1        2 0.99270652E+00 0.14966676E+02</pdfrwt>
<pdfrwt beam="2">  1       -2 0.99456734E+00 0.14966676E+02</pdfrwt>
<totfact>-0.14401805E-13</totfact>
</mgrwt>
</event>
<event>
 4    1 -0.5011189E-019  0.1490631E+02  0.7818608E-02  0.1870941E+00
         -2   -1    0    0    0  501 -0.00000000000E+00  0.00000000000E+00  0.11989711165E+03  0.11989711168E+03  0.25500000000E-02 0.  1.
          2   -1    0    0  501    0  0.00000000000E+00 -0.00000000000E+00 -0.46330646692E+00  0.46331348436E+00  0.25500000000E-02 0. -1.
         31    1    1    2    0    0 -0.23300736484E+00  0.16699342660E+00  0.60458076742E+02  0.60915680646E+02  0.74470750000E+01 0.  1.
        -31    1    1    2    0    0  0.23300736484E+00 -0.16699342660E+00  0.58975728445E+02  0.59444744519E+02  0.74470750000E+01 0. -1.
<mgrwt>
<rscale>  0 0.14906312E+02</rscale>
<asrwt>0</asrwt>
<pdfrwt beam="2">  1        2 0.98406513E+00 0.14906312E+02</pdfrwt>
<pdfrwt beam="1">  1       -2 0.99522421E+00 0.14906312E+02</pdfrwt>
<totfact>-0.40208914E-13</totfact>
</mgrwt>
</event>
<event>
 4    1  0.5011189E-019  0.1491677E+02  0.7818608E-02  0.1870619E+00
         -2   -1    0    0    0  501 -0.00000000000E+00  0.00000000000E+00  0.11834622865E+03  0.11834622868E+03  0.25500000000E-02 0. -1.
          2   -1    0    0  501    0  0.00000000000E+00 -0.00000000000E+00 -0.47003679028E+00  0.47004370724E+00  0.25500000000E-02 0.  1.
         31    1    1    2    0    0 -0.10702823373E+00  0.27618065455E+00  0.61202775185E+02  0.61654897188E+02  0.74470750000E+01 0. -1.
        -31    1    1    2    0    0  0.10702823373E+00 -0.27618065455E+00  0.56673416674E+02  0.57161375197E+02  0.74470750000E+01 0. -1.
<mgrwt>
<rscale>  0 0.14916768E+02</rscale>
<asrwt>0</asrwt>
<pdfrwt beam="2">  1        2 0.99825324E+00 0.14916768E+02</pdfrwt>
<pdfrwt beam="1">  1       -2 0.98245607E+00 0.14916768E+02</pdfrwt>
<totfact> 0.44129034E-13</totfact>
</mgrwt>
</event>
<event>
 4    1 -0.5011189E-019  0.1495931E+02  0.7818608E-02  0.1869313E+00
          2   -1    0    0  501    0  0.00000000000E+00  0.00000000000E+00  0.11939445215E+03  0.11939445218E+03  0.25500000000E-02 0. -1.
         -2   -1    0    0    0  501 -0.00000000000E+00 -0.00000000000E+00 -0.46857138655E+00  0.46857832514E+00  0.25500000000E-02 0.  1.
         31    1    1    2    0    0 -0.27648148110E+00 -0.57172926703E+00  0.61771335937E+02  0.62221862603E+02  0.74470750000E+01 0.  1.
        -31    1    1    2    0    0  0.27648148110E+00  0.57172926703E+00  0.57154544831E+02  0.57641167903E+02  0.74470750000E+01 0.  1.
<mgrwt>
<rscale>  0 0.14959310E+02</rscale>
<asrwt>0</asrwt>
<pdfrwt beam="1">  1        2 0.99111140E+00 0.14959310E+02</pdfrwt>
<pdfrwt beam="2">  1       -2 0.99518783E+00 0.14959310E+02</pdfrwt>
<totfact>-0.16110435E-13</totfact>
</mgrwt>
</event>
<event>
 4    1  0.5011189E-019  0.1491177E+02  0.7818608E-02  0.1870773E+00
          2   -1    0    0  501    0  0.00000000000E+00  0.00000000000E+00  0.12041382671E+03  0.12041382673E+03  0.25500000000E-02 0.  1.
         -2   -1    0    0    0  501 -0.00000000000E+00 -0.00000000000E+00 -0.46165639382E+00  0.46166343634E+00  0.25500000000E-02 0. -1.
         31    1    1    2    0    0 -0.25610322297E+00  0.22381515457E+00  0.58962598469E+02  0.59432000020E+02  0.74470750000E+01 0. -1.
        -31    1    1    2    0    0  0.25610322297E+00 -0.22381515457E+00  0.60989571843E+02  0.61443490149E+02  0.74470750000E+01 0. -1.
<mgrwt>
<rscale>  0 0.14911773E+02</rscale>
<asrwt>0</asrwt>
<pdfrwt beam="1">  1        2 0.99948312E+00 0.14911773E+02</pdfrwt>
<pdfrwt beam="2">  1       -2 0.98059000E+00 0.14911773E+02</pdfrwt>
<totfact> 0.21375262E-13</totfact>
</mgrwt>
</event>
<event>
 4    1 -0.5011189E-019  0.1491088E+02  0.7818608E-02  0.1870800E+00
          2   -1    0    0  501    0  0.00000000000E+00  0.00000000000E+00  0.11831072181E+03  0.11831072184E+03  0.25500000000E-02 0. -1.
         -2   -1    0    0    0  501 -0.00000000000E+00 -0.00000000000E+00 -0.46980650329E+00  0.46981342364E+00  0.25500000000E-02 0.  1.
         31    1    1    2    0    0 -0.16316015349E+00 -0.30065743462E+00  0.59615695040E+02  0.60080005303E+02  0.74470750000E+01 0. -1.
        -31    1    1    2    0    0  0.16316015349E+00  0.30065743462E+00  0.58225220270E+02  0.58700529961E+02  0.74470750000E+01 0. -1.
<mgrwt>
<rscale>  0 0.14910876E+02</rscale>
<asrwt>0</asrwt>
<pdfrwt beam="1">  1        2 0.98216057E+00 0.14910876E+02</pdfrwt>
<pdfrwt beam="2">  1       -2 0.99776492E+00 0.14910876E+02</pdfrwt>
<totfact>-0.36203582E-13</totfact>
</mgrwt>
</event>
<event>
 4    1 -0.5011189E-019  0.1495747E+02  0.7818608E-02  0.1869369E+00
          2   -1    0    0  501    0  0.00000000000E+00  0.00000000000E+00  0.11901891523E+03  0.11901891525E+03  0.25500000000E-02 0.  1.
         -2   -1    0    0    0  501 -0.00000000000E+00 -0.00000000000E+00 -0.46993404464E+00  0.46994096312E+00  0.25500000000E-02 0. -1.
         31    1    1    2    0    0  0.51857001397E+00 -0.14134215824E+00  0.55851158303E+02  0.56348023055E+02  0.74470750000E+01 0. -1.
        -31    1    1    2    0    0 -0.51857001397E+00  0.14134215824E+00  0.62697822878E+02  0.63140833160E+02  0.74470750000E+01 0.  1.
<mgrwt>
<rscale>  0 0.14957467E+02</rscale>
<asrwt>0</asrwt>
<pdfrwt beam="1">  1        2 0.98801747E+00 0.14957467E+02</pdfrwt>
<pdfrwt beam="2">  1       -2 0.99805821E+00 0.14957467E+02</pdfrwt>
<totfact>-0.12924056E-13</totfact>
</mgrwt>
</event>
<event>
 4    1 -0.5011189E-019  0.1498185E+02  0.7818608E-02  0.1868623E+00
         -2   -1    0    0    0  501 -0.00000000000E+00  0.00000000000E+00  0.11937384000E+03  0.11937384002E+03  0.25500000000E-02 0.  1.
          2   -1    0    0  501    0  0.00000000000E+00 -0.00000000000E+00 -0.47006549206E+00  0.47007240860E+00  0.25500000000E-02 0. -1.
         31    1    1    2    0    0 -0.49763704264E+00  0.63731470737E+00  0.59174760881E+02  0.59647003814E+02  0.74470750000E+01 0.  1.
        -31    1    1    2    0    0  0.49763704264E+00 -0.63731470737E+00  0.59729013622E+02  0.60196908616E+02  0.74470750000E+01 0.  1.
<mgrwt>
<rscale>  0 0.14981848E+02</rscale>
<asrwt>0</asrwt>
<pdfrwt beam="2">  1        2 0.99834796E+00 0.14981848E+02</pdfrwt>
<pdfrwt beam="1">  1       -2 0.99095332E+00 0.14981848E+02</pdfrwt>
<totfact>-0.18713411E-14</totfact>
</mgrwt>
</event>
<event>
 4    1 -0.5011189E-019  0.1491948E+02  0.7818608E-02  0.1870536E+00
         -2   -1    0    0    0  501 -0.00000000000E+00  0.00000000000E+00  0.12031382580E+03  0.12031382583E+03  0.25500000000E-02 0. -1.
          2   -1    0    0  501    0  0.00000000000E+00 -0.00000000000E+00 -0.46251768415E+00  0.46252471356E+00  0.25500000000E-02 0.  1.
         31    1    1    2    0    0 -0.37941935388E+00 -0.16610675534E-01  0.58217253470E+02  0.58692859554E+02  0.74470750000E+01 0.  1.
        -31    1    1    2    0    0  0.37941935388E+00  0.16610675534E-01  0.61634054649E+02  0.62083490990E+02  0.74470750000E+01 0.  1.
<mgrwt>
<rscale>  0 0.14919477E+02</rscale>
<asrwt>0</asrwt>
<pdfrwt beam="2">  1        2 0.98240929E+00 0.14919477E+02</pdfrwt>
<pdfrwt beam="1">  1       -2 0.99866337E+00 0.14919477E+02</pdfrwt>
<totfact>-0.22594525E-13</totfact>
</mgrwt>
</event>
<event>
 4    1 -0.5011189E-019  0.1494559E+02  0.7818608E-02  0.1869733E+00
          2   -1    0    0  501    0  0.00000000000E+00  0.00000000000E+00  0.11916239097E+03  0.11916239099E+03  0.25500000000E-02 0.  1.
         -2   -1    0    0    0  501 -0.00000000000E+00 -0.00000000000E+00 -0.46862295231E+00  0.46862989014E+00  0.25500000000E-02 0. -1.
         31    1    1    2    0    0 -0.89749398348E-01 -0.20099843533E+00  0.54712137129E+02  0.55217074629E+02  0.74470750000E+01 0. -1.
        -31    1    1    2    0    0  0.89749398348E-01  0.20099843533E+00  0.63981630885E+02  0.64413946255E+02  0.74470750000E+01 0.  1.
<mgrwt>
<rscale>  0 0.14945588E+02</rscale>
<asrwt>0</asrwt>
<pdfrwt beam="1">  1        2 0.98919298E+00 0.14945588E+02</pdfrwt>
<pdfrwt beam="2">  1       -2 0.99528934E+00 0.14945588E+02</pdfrwt>
<totfact>-0.19198745E-13</totfact>
</mgrwt>
</event>
<event>
 4    1 -0.5011189E-019  0.1492179E+02  0.7818608E-02  0.1870464E+00
         -2   -1    0    0    0  501 -0.00000000000E+00  0.00000000000E+00  0.11966191073E+03  0.11966191076E+03  0.25500000000E-02 0.  1.
          2   -1    0    0  501    0  0.00000000000E+00 -0.00000000000E+00 -0.46518190608E+00  0.46518889523E+00  0.25500000000E-02 0. -1.
         31    1    1    2    0    0 -0.68362206482E-01  0.79162597737E-01  0.63154356900E+02  0.63592001554E+02  0.74470750000E+01 0.  1.
        -31    1    1    2    0    0  0.68362206482E-01 -0.79162597737E-01  0.56042371925E+02  0.56535098100E+02  0.74470750000E+01 0.  1.
<mgrwt>
<rscale>  0 0.14921793E+02</rscale>
<asrwt>0</asrwt>
<pdfrwt beam="2">  1        2 0.98802561E+00 0.14921793E+02</pdfrwt>
<pdfrwt beam="1">  1       -2 0.99329491E+00 0.14921793E+02</pdfrwt>
<totfact>-0.20252437E-13</totfact>
</mgrwt>
</event>
<event>
 4    1  0.5011189E-019  0.1490064E+02  0.7818608E-02  0.1871116E+00
          2   -1    0    0  501    0  0.00000000000E+00  0.00000000000E+00  0.11948864945E+03  0.11948864948E+03  0.25500000000E-02 0.  1.
         -2   -1    0    0    0  501 -0.00000000000E+00 -0.00000000000E+00 -0.46453655386E+00  0.46454355272E+00  0.25500000000E-02 0. -1.
         31    1    1    2    0    0 -0.19846701562E+00  0.80443567521E-01  0.59912990569E+02  0.60374425259E+02  0.74470750000E+01 0. -1.
        -31    1    1    2    0    0  0.19846701562E+00 -0.80443567521E-01  0.59111122325E+02  0.59578767769E+02  0.74470750000E+01 0. -1.
<mgrwt>
<rscale>  0 0.14900640E+02</rscale>
<asrwt>0</asrwt>
<pdfrwt beam="1">  1        2 0.99185693E+00 0.14900640E+02</pdfrwt>
<pdfrwt beam="2">  1       -2 0.98665470E+00 0.14900640E+02</pdfrwt>
<totfact> 0.36182892E-13</totfact>
</mgrwt>
</event>
<event>
 4    1 -0.5011189E-019  0.1497654E+02  0.7818608E-02  0.1868785E+00
         -2   -1    0    0    0  501 -0.00000000000E+00  0.00000000000E+00  0.11995089753E+03  0.11995089756E+03  0.25500000000E-02 0. -1.
          2   -1    0    0  501    0  0.00000000000E+00 -0.00000000000E+00 -0.46747292266E+00  0.46747987756E+00  0.25500000000E-02 0.  1.
         31    1    1    2    0    0 -0.85474508559E-01  0.77497303851E+00  0.60433466591E+02  0.60895572084E+02  0.74470750000E+01 0. -1.
        -31    1    1    2    0    0  0.85474508559E-01 -0.77497303851E+00  0.59049958020E+02  0.59522805355E+02  0.74470750000E+01 0. -1.
<mgrwt>
<rscale>  0 0.14976544E+02</rscale>
<asrwt>0</asrwt>
<pdfrwt beam="2">  1        2 0.99288192E+00 0.14976544E+02</pdfrwt>
<pdfrwt beam="1">  1       -2 0.99570340E+00 0.14976544E+02</pdfrwt>
<totfact>-0.13707526E-13</totfact>
</mgrwt>
</event>
<event>
 4    1  0.5011189E-019  0.1490529E+02  0.7818608E-02  0.1870973E+00
         -2   -1    0    0    0  501 -0.00000000000E+00  0.00000000000E+00  0.11895570467E+03  0.11895570469E+03  0.25500000000E-02 0.  1.
          2   -1    0    0  501    0  0.00000000000E+00 -0.00000000000E+00 -0.46690890708E+00  0.46691587038E+00  0.25500000000E-02 0. -1.
         31    1    1    2    0    0  0.26752022678E+00 -0.62584580379E-01  0.58551199995E+02  0.59023532856E+02  0.74470750000E+01 0. -1.
        -31    1    1    2    0    0 -0.26752022678E+00  0.62584580379E-01  0.59937595764E+02  0.60399087708E+02  0.74470750000E+01 0.  1.
<mgrwt>
<rscale>  0 0.14905287E+02</rscale>
<asrwt>0</asrwt>
<pdfrwt beam="2">  1        2 0.99165649E+00 0.14905287E+02</pdfrwt>
<pdfrwt beam="1">  1       -2 0.98746978E+00 0.14905287E+02</pdfrwt>
<totfact> 0.25954563E-13</totfact>
</mgrwt>
</event>
<event>
 4    1  0.5011189E-019  0.1490089E+02  0.7818608E-02  0.1871108E+00
         -2   -1    0    0    0  501 -0.00000000000E+00  0.00000000000E+00  0.11801958544E+03  0.11801958547E+03  0.25500000000E-02 0.  1.
          2   -1    0    0  501    0  0.00000000000E+00 -0.00000000000E+00 -0.47033472519E+00  0.47034163777E+00  0.25500000000E-02 0. -1.
         31    1    1    2    0    0  0.10919269185E+00  0.56448488564E-01  0.60264087661E+02  0.60722601205E+02  0.74470750000E+01 0.  1.
        -31    1    1    2    0    0 -0.10919269185E+00 -0.56448488564E-01  0.57285163053E+02  0.57767325900E+02  0.74470750000E+01 0. -1.
<mgrwt>
<rscale>  0 0.14900889E+02</rscale>
<asrwt>0</asrwt>
<pdfrwt beam="2">  1        2 0.99887253E+00 0.14900889E+02</pdfrwt>
<pdfrwt beam="1">  1       -2 0.97975762E+00 0.14900889E+02</pdfrwt>
<totfact> 0.50235874E-13</totfact>
</mgrwt>
</event>
<event>
 4    1 -0.5011189E-019  0.1491431E+02  0.7818608E-02  0.1870695E+00
         -2   -1    0    0    0  501 -0.00000000000E+00  0.00000000000E+00  0.11982336594E+03  0.11982336597E+03  0.25500000000E-02 0. -1.
          2   -1    0    0  501    0  0.00000000000E+00 -0.00000000000E+00 -0.46408936413E+00  0.46409636974E+00  0.25500000000E-02 0.  1.
         31    1    1    2    0    0 -0.34031937505E+00 -0.12384451275E+00  0.60794039510E+02  0.61249533229E+02  0.74470750000E+01 0. -1.
        -31    1    1    2    0    0  0.34031937505E+00  0.12384451275E+00  0.58565237068E+02  0.59037929110E+02  0.74470750000E+01 0.  1.
<mgrwt>
<rscale>  0 0.14914312E+02</rscale>
<asrwt>0</asrwt>
<pdfrwt beam="2">  1        2 0.98571923E+00 0.14914312E+02</pdfrwt>
<pdfrwt beam="1">  1       -2 0.99462090E+00 0.14914312E+02</pdfrwt>
<totfact>-0.31017904E-13</totfact>
</mgrwt>
</event>
<event>
 4    1  0.5011189E-019  0.1491224E+02  0.7818608E-02  0.1870758E+00
          2   -1    0    0  501    0  0.00000000000E+00  0.00000000000E+00  0.12027473819E+03  0.12027473821E+03  0.25500000000E-02 0.  1.
         -2   -1    0    0    0  501 -0.00000000000E+00 -0.00000000000E+00 -0.46221953404E+00  0.46222656798E+00  0.25500000000E-02 0. -1.
         31    1    1    2    0    0  0.26427963955E+00  0.14414093639E+00  0.61608706888E+02  0.62057894830E+02  0.74470750000E+01 0.  1.
        -31    1    1    2    0    0 -0.26427963955E+00 -0.14414093639E+00  0.58203811764E+02  0.58679069951E+02  0.74470750000E+01 0. -1.
<mgrwt>
<rscale>  0 0.14912245E+02</rscale>
<asrwt>0</asrwt>
<pdfrwt beam="1">  1        2 0.99833770E+00 0.14912245E+02</pdfrwt>
<pdfrwt beam="2">  1       -2 0.98177722E+00 0.14912245E+02</pdfrwt>
<totfact> 0.48595421E-13</totfact>
</mgrwt>
</event>
<event>
 4    1 -0.5011189E-019  0.1490154E+02  0.7818608E-02  0.1871088E+00
         -2   -1    0    0    0  501 -0.00000000000E+00  0.00000000000E+00  0.12025804055E+03  0.12025804058E+03  0.25500000000E-02 0. -1.
          2   -1    0    0  501    0  0.00000000000E+00 -0.00000000000E+00 -0.46162032413E+00  0.46162736720E+00  0.25500000000E-02 0.  1.
         31    1    1    2    0    0 -0.12172941668E+00  0.17120993629E+00  0.60744982544E+02  0.61200130402E+02  0.74470750000E+01 0.  1.
        -31    1    1    2    0    0  0.12172941668E+00 -0.17120993629E+00  0.59051437683E+02  0.59519537543E+02  0.74470750000E+01 0.  1.
<mgrwt>
<rscale>  0 0.14901541E+02</rscale>
<asrwt>0</asrwt>
<pdfrwt beam="2">  1        2 0.98050883E+00 0.14901541E+02</pdfrwt>
<pdfrwt beam="1">  1       -2 0.99819468E+00 0.14901541E+02</pdfrwt>
<totfact>-0.40227552E-13</totfact>
</mgrwt>
</event>
<event>
 4    1 -0.5011189E-019  0.1492076E+02  0.7818608E-02  0.1870496E+00
         -2   -1    0    0    0  501 -0.00000000000E+00  0.00000000000E+00  0.12017303960E+03  0.12017303962E+03  0.25500000000E-02 0. -1.
          2   -1    0    0  501    0  0.00000000000E+00 -0.00000000000E+00 -0.46313938788E+00  0.46314640785E+00  0.25500000000E-02 0.  1.
         31    1    1    2    0    0  0.16715787720E+00  0.31085112671E+00  0.57658580578E+02  0.58138587965E+02  0.74470750000E+01 0.  1.
        -31    1    1    2    0    0 -0.16715787720E+00 -0.31085112671E+00  0.62051319632E+02  0.62497598068E+02  0.74470750000E+01 0. -1.
<mgrwt>
<rscale>  0 0.14920763E+02</rscale>
<asrwt>0</asrwt>
<pdfrwt beam="2">  1        2 0.98372031E+00 0.14920763E+02</pdfrwt>
<pdfrwt beam="1">  1       -2 0.99750439E+00 0.14920763E+02</pdfrwt>
<totfact>-0.30233818E-13</totfact>
</mgrwt>
</event>
<event>
 4    1 -0.5011189E-019  0.1493454E+02  0.7818608E-02  0.1870073E+00
         -2   -1    0    0    0  501 -0.00000000000E+00  0.00000000000E+00  0.12008615044E+03  0.12008615047E+03  0.25500000000E-02 0. -1.
          2   -1    0    0  501    0  0.00000000000E+00 -0.00000000000E+00 -0.46433063677E+00  0.46433763873E+00  0.25500000000E-02 0.  1.
         31    1    1    2    0    0  0.35475190604E-01  0.27385880059E+00  0.55982746634E+02  0.56476571283E+02  0.74470750000E+01 0.  1.
        -31    1    1    2    0    0 -0.35475190604E-01 -0.27385880059E+00  0.63639073169E+02  0.64073916823E+02  0.74470750000E+01 0. -1.
<mgrwt>
<rscale>  0 0.14934537E+02</rscale>
<asrwt>0</asrwt>
<pdfrwt beam="2">  1        2 0.98623803E+00 0.14934537E+02</pdfrwt>
<pdfrwt beam="1">  1       -2 0.99679578E+00 0.14934537E+02</pdfrwt>
<totfact>-0.23859411E-13</totfact>
</mgrwt>
</event>
<event>
 4    1 -0.5011189E-019  0.1494899E+02  0.7818608E-02  0.1869629E+00
         -2   -1    0    0    0  501 -0.00000000000E+00  0.00000000000E+00  0.11960758768E+03  0.11960758771E+03  0.25500000000E-02 0. -1.
          2   -1    0    0  501    0  0.00000000000E+00 -0.00000000000E+00 -0.46709143742E+00  0.46709839799E+00  0.25500000000E-02 0.  1.
         31    1    1    2    0    0 -0.60921880787E-01 -0.63352082941E+00  0.60085406230E+02  0.60548493194E+02  0.74470750000E+01 0.  1.
        -31    1    1    2    0    0  0.60921880787E-01  0.63352082941E+00  0.59055090015E+02  0.59526192914E+02  0.74470750000E+01 0.  1.
<mgrwt>
<rscale>  0 0.14948993E+02</rscale>
<asrwt>0</asrwt>
<pdfrwt beam="2">  1        2 0.99206378E+00 0.14948993E+02</pdfrwt>
<pdfrwt beam="1">  1       -2 0.99286152E+00 0.14948993E+02</pdfrwt>
<totfact>-0.12728489E-13</totfact>
</mgrwt>
</event>
<event>
 4    1  0.5011189E-019  0.1491008E+02  0.7818608E-02  0.1870825E+00
         -2   -1    0    0    0  501 -0.00000000000E+00  0.00000000000E+00  0.11899809917E+03  0.11899809919E+03  0.25500000000E-02 0. -1.
          2   -1    0    0  501    0  0.00000000000E+00 -0.00000000000E+00 -0.46704292410E+00  0.46704988540E+00  0.25500000000E-02 0.  1.
         31    1    1    2    0    0 -0.27126499589E+00 -0.18846493243E+00  0.58480157729E+02  0.58953344925E+02  0.74470750000E+01 0. -1.
        -31    1    1    2    0    0  0.27126499589E+00  0.18846493243E+00  0.60050898512E+02  0.60511804153E+02  0.74470750000E+01 0.  1.
<mgrwt>
<rscale>  0 0.14910082E+02</rscale>
<asrwt>0</asrwt>
<pdfrwt beam="2">  1        2 0.99194139E+00 0.14910082E+02</pdfrwt>
<pdfrwt beam="1">  1       -2 0.98782144E+00 0.14910082E+02</pdfrwt>
<totfact> 0.21281136E-13</totfact>
</mgrwt>
</event>
<event>
 4    1  0.5011189E-019  0.1491741E+02  0.7818608E-02  0.1870599E+00
         -2   -1    0    0    0  501 -0.00000000000E+00  0.00000000000E+00  0.11861479890E+03  0.11861479893E+03  0.25500000000E-02 0.  1.
          2   -1    0    0  501    0  0.00000000000E+00 -0.00000000000E+00 -0.46901288642E+00  0.46901981849E+00  0.25500000000E-02 0. -1.
         31    1    1    2    0    0  0.94995773095E-01  0.33879818286E+00  0.60849851589E+02  0.61304870711E+02  0.74470750000E+01 0. -1.
        -31    1    1    2    0    0 -0.94995773095E-01 -0.33879818286E+00  0.57295934425E+02  0.57778948036E+02  0.74470750000E+01 0.  1.
<mgrwt>
<rscale>  0 0.14917410E+02</rscale>
<asrwt>0</asrwt>
<pdfrwt beam="2">  1        2 0.99609622E+00 0.14917410E+02</pdfrwt>
<pdfrwt beam="1">  1       -2 0.98466833E+00 0.14917410E+02</pdfrwt>
<totfact> 0.46340368E-13</totfact>
</mgrwt>
</event>
<event>
 4    1 -0.5011189E-019  0.1494059E+02  0.7818608E-02  0.1869887E+00
         -2   -1    0    0    0  501 -0.00000000000E+00  0.00000000000E+00  0.11960691753E+03  0.11960691756E+03  0.25500000000E-02 0. -1.
          2   -1    0    0  501    0  0.00000000000E+00 -0.00000000000E+00 -0.46656876627E+00  0.46657573464E+00  0.25500000000E-02 0.  1.
         31    1    1    2    0    0 -0.56652303883E+00 -0.13519397576E+00  0.58892028393E+02  0.59363870832E+02  0.74470750000E+01 0. -1.
        -31    1    1    2    0    0  0.56652303883E+00  0.13519397576E+00  0.60248320371E+02  0.60709622461E+02  0.74470750000E+01 0. -1.
<mgrwt>
<rscale>  0 0.14940585E+02</rscale>
<asrwt>0</asrwt>
<pdfrwt beam="2">  1        2 0.99095798E+00 0.14940585E+02</pdfrwt>
<pdfrwt beam="1">  1       -2 0.99285165E+00 0.14940585E+02</pdfrwt>
<totfact>-0.13832867E-13</totfact>
</mgrwt>
</event>
<event>
 4    1 -0.5011189E-019  0.1496695E+02  0.7818608E-02  0.1869079E+00
          2   -1    0    0  501    0  0.00000000000E+00  0.00000000000E+00  0.11977837953E+03  0.11977837956E+03  0.25500000000E-02 0. -1.
         -2   -1    0    0    0  501 -0.00000000000E+00 -0.00000000000E+00 -0.46754687853E+00  0.46755383233E+00  0.25500000000E-02 0.  1.
         31    1    1    2    0    0 -0.61368034553E-01  0.17855702595E+00  0.53930017238E+02  0.54442091566E+02  0.74470750000E+01 0. -1.
        -31    1    1    2    0    0  0.61368034553E-01 -0.17855702595E+00  0.65380815412E+02  0.65803841822E+02  0.74470750000E+01 0. -1.
<mgrwt>
<rscale>  0 0.14966954E+02</rscale>
<asrwt>0</asrwt>
<pdfrwt beam="1">  1        2 0.99427751E+00 0.14966954E+02</pdfrwt>
<pdfrwt beam="2">  1       -2 0.99303284E+00 0.14966954E+02</pdfrwt>
<totfact>-0.11138879E-13</totfact>
</mgrwt>
</event>
<event>
 4    1  0.5011189E-019  0.1492283E+02  0.7818608E-02  0.1870433E+00
          2   -1    0    0  501    0  0.00000000000E+00  0.00000000000E+00  0.12009459190E+03  0.12009459193E+03  0.25500000000E-02 0.  1.
         -2   -1    0    0    0  501 -0.00000000000E+00 -0.00000000000E+00 -0.46357039571E+00  0.46357740916E+00  0.25500000000E-02 0. -1.
         31    1    1    2    0    0 -0.38808202174E+00 -0.18426835176E+00  0.58434221236E+02  0.58908417904E+02  0.74470750000E+01 0. -1.
        -31    1    1    2    0    0  0.38808202174E+00  0.18426835176E+00  0.61196800270E+02  0.61649751433E+02  0.74470750000E+01 0. -1.
<mgrwt>
<rscale>  0 0.14922831E+02</rscale>
<asrwt>0</asrwt>
<pdfrwt beam="1">  1        2 0.99685929E+00 0.14922831E+02</pdfrwt>
<pdfrwt beam="2">  1       -2 0.98462978E+00 0.14922831E+02</pdfrwt>
<totfact> 0.40860948E-13</totfact>
</mgrwt>
</event>
<event>
 4    1  0.5011189E-019  0.1491330E+02  0.7818608E-02  0.1870726E+00
          2   -1    0    0  501    0  0.00000000000E+00  0.00000000000E+00  0.12023094758E+03  0.12023094760E+03  0.25500000000E-02 0. -1.
         -2   -1    0    0    0  501 -0.00000000000E+00 -0.00000000000E+00 -0.46245358708E+00  0.46246061746E+00  0.25500000000E-02 0.  1.
         31    1    1    2    0    0  0.12893487769E+00 -0.10722194376E+00  0.57144409105E+02  0.57627862521E+02  0.74470750000E+01 0.  1.
        -31    1    1    2    0    0 -0.12893487769E+00  0.10722194376E+00  0.62624084885E+02  0.63065545701E+02  0.74470750000E+01 0. -1.
<mgrwt>
<rscale>  0 0.14913304E+02</rscale>
<asrwt>0</asrwt>
<pdfrwt beam="1">  1        2 0.99797754E+00 0.14913304E+02</pdfrwt>
<pdfrwt beam="2">  1       -2 0.98227107E+00 0.14913304E+02</pdfrwt>
<totfact> 0.51483556E-13</totfact>
</mgrwt>
</event>
<event>
 4    1 -0.5011189E-019  0.1499127E+02  0.7818608E-02  0.1868335E+00
         -2   -1    0    0    0  501 -0.00000000000E+00  0.00000000000E+00  0.12008298813E+03  0.12008298816E+03  0.25500000000E-02 0.  1.
          2   -1    0    0  501    0  0.00000000000E+00 -0.00000000000E+00 -0.46787718679E+00  0.46788413567E+00  0.25500000000E-02 0. -1.
         31    1    1    2    0    0 -0.37037907867E+00 -0.36875917774E+00  0.65216387353E+02  0.65642282634E+02  0.74470750000E+01 0.  1.
        -31    1    1    2    0    0  0.37037907867E+00  0.36875917774E+00  0.54398723590E+02  0.54908589659E+02  0.74470750000E+01 0. -1.
<mgrwt>
<rscale>  0 0.14991266E+02</rscale>
<asrwt>0</asrwt>
<pdfrwt beam="2">  1        2 0.99374145E+00 0.14991266E+02</pdfrwt>
<pdfrwt beam="1">  1       -2 0.99679896E+00 0.14991266E+02</pdfrwt>
<totfact>-0.11125919E-13</totfact>
</mgrwt>
</event>
<event>
 4    1 -0.5011189E-019  0.1500890E+02  0.7818608E-02  0.1867797E+00
         -2   -1    0    0    0  501 -0.00000000000E+00  0.00000000000E+00  0.11967547549E+03  0.11967547552E+03  0.25500000000E-02 0. -1.
          2   -1    0    0  501    0  0.00000000000E+00 -0.00000000000E+00 -0.47057559513E+00  0.47058250417E+00  0.25500000000E-02 0.  1.
         31    1    1    2    0    0  0.42909168546E+00 -0.44650393270E+00  0.54089092135E+02  0.54602859810E+02  0.74470750000E+01 0.  1.
        -31    1    1    2    0    0 -0.42909168546E+00  0.44650393270E+00  0.65115807763E+02  0.65543198214E+02  0.74470750000E+01 0. -1.
<mgrwt>
<rscale>  0 0.15008901E+02</rscale>
<asrwt>0</asrwt>
<pdfrwt beam="2">  1        2 0.99943696E+00 0.15008901E+02</pdfrwt>
<pdfrwt beam="1">  1       -2 0.99345167E+00 0.15008901E+02</pdfrwt>
<totfact>-0.20085762E-14</totfact>
</mgrwt>
</event>
<event>
 4    1  0.5011189E-019  0.1490716E+02  0.7818608E-02  0.1870915E+00
         -2   -1    0    0    0  501 -0.00000000000E+00  0.00000000000E+00  0.11874733546E+03  0.11874733549E+03  0.25500000000E-02 0. -1.
          2   -1    0    0  501    0  0.00000000000E+00 -0.00000000000E+00 -0.46784586773E+00  0.46785281708E+00  0.25500000000E-02 0.  1.
         31    1    1    2    0    0 -0.26226906900E+00 -0.16769819356E+00  0.59094321464E+02  0.59562527340E+02  0.74470750000E+01 0.  1.
        -31    1    1    2    0    0  0.26226906900E+00  0.16769819356E+00  0.59185168130E+02  0.59652660966E+02  0.74470750000E+01 0. -1.
<mgrwt>
<rscale>  0 0.14907162E+02</rscale>
<asrwt>0</asrwt>
<pdfrwt beam="2">  1        2 0.99363182E+00 0.14907162E+02</pdfrwt>
<pdfrwt beam="1">  1       -2 0.98575459E+00 0.14907162E+02</pdfrwt>
<totfact> 0.43555142E-13</totfact>
</mgrwt>
</event>
<event>
 4    1 -0.5011189E-019  0.1490627E+02  0.7818608E-02  0.1870942E+00
         -2   -1    0    0    0  501 -0.00000000000E+00  0.00000000000E+00  0.12022115210E+03  0.12022115213E+03  0.25500000000E-02 0. -1.
          2   -1    0    0  501    0  0.00000000000E+00 -0.00000000000E+00 -0.46205529702E+00  0.46206233347E+00  0.25500000000E-02 0.  1.
         31    1    1    2    0    0 -0.17903472547E+00  0.19561633386E+00  0.58734549647E+02  0.59205376170E+02  0.74470750000E+01 0.  1.
        -31    1    1    2    0    0  0.17903472547E+00 -0.19561633386E+00  0.61024547158E+02  0.61477838292E+02  0.74470750000E+01 0. -1.
<mgrwt>
<rscale>  0 0.14906273E+02</rscale>
<asrwt>0</asrwt>
<pdfrwt beam="2">  1        2 0.98142803E+00 0.14906273E+02</pdfrwt>
<pdfrwt beam="1">  1       -2 0.99789325E+00 0.14906273E+02</pdfrwt>
<totfact>-0.39110423E-13</totfact>
</mgrwt>
</event>
<event>
 4    1 -0.5011189E-019  0.1489741E+02  0.7818608E-02  0.1871215E+00
         -2   -1    0    0    0  501 -0.00000000000E+00  0.00000000000E+00  0.12000178951E+03  0.12000178954E+03  0.25500000000E-02 0. -1.
          2   -1    0    0  501    0  0.00000000000E+00 -0.00000000000E+00 -0.46234964821E+00  0.46235668017E+00  0.25500000000E-02 0.  1.
         31    1    1    2    0    0 -0.11222919651E+00  0.22286585070E-01  0.60625190100E+02  0.61080976521E+02  0.74470750000E+01 0. -1.
        -31    1    1    2    0    0  0.11222919651E+00 -0.22286585070E-01  0.58914249762E+02  0.59383169696E+02  0.74470750000E+01 0.  1.
<mgrwt>
<rscale>  0 0.14897411E+02</rscale>
<asrwt>0</asrwt>
<pdfrwt beam="2">  1        2 0.98204397E+00 0.14897411E+02</pdfrwt>
<pdfrwt beam="1">  1       -2 0.99608185E+00 0.14897411E+02</pdfrwt>
<totfact>-0.52931704E-13</totfact>
</mgrwt>
</event>
<event>
 4    1 -0.5011189E-019  0.1499803E+02  0.7818608E-02  0.1868129E+00
          2   -1    0    0  501    0  0.00000000000E+00  0.00000000000E+00  0.11994165712E+03  0.11994165715E+03  0.25500000000E-02 0. -1.
         -2   -1    0    0    0  501 -0.00000000000E+00 -0.00000000000E+00 -0.46885130580E+00  0.46885824025E+00  0.25500000000E-02 0.  1.
         31    1    1    2    0    0  0.79800451845E-01 -0.58651560726E-01  0.52707577509E+02  0.53231170014E+02  0.74470750000E+01 0.  1.
        -31    1    1    2    0    0 -0.79800451845E-01  0.58651560726E-01  0.66765228307E+02  0.67179345375E+02  0.74470750000E+01 0. -1.
<mgrwt>
<rscale>  0 0.14998029E+02</rscale>
<asrwt>0</asrwt>
<pdfrwt beam="1">  1        2 0.99563839E+00 0.14998029E+02</pdfrwt>
<pdfrwt beam="2">  1       -2 0.99579778E+00 0.14998029E+02</pdfrwt>
<totfact>-0.10613953E-13</totfact>
</mgrwt>
</event>
<event>
 4    1  0.5011189E-019  0.1493455E+02  0.7818608E-02  0.1870072E+00
         -2   -1    0    0    0  501 -0.00000000000E+00  0.00000000000E+00  0.11884398450E+03  0.11884398452E+03  0.25500000000E-02 0. -1.
          2   -1    0    0  501    0  0.00000000000E+00 -0.00000000000E+00 -0.46918457239E+00  0.46919150192E+00  0.25500000000E-02 0.  1.
         31    1    1    2    0    0 -0.29897122512E+00 -0.32533272251E+00  0.61788794912E+02  0.62237523471E+02  0.74470750000E+01 0.  1.
        -31    1    1    2    0    0  0.29897122512E+00  0.32533272251E+00  0.56586005013E+02  0.57075652555E+02  0.74470750000E+01 0. -1.
<mgrwt>
<rscale>  0 0.14934548E+02</rscale>
<asrwt>0</asrwt>
<pdfrwt beam="2">  1        2 0.99646698E+00 0.14934548E+02</pdfrwt>
<pdfrwt beam="1">  1       -2 0.98656482E+00 0.14934548E+02</pdfrwt>
<totfact> 0.23967448E-13</totfact>
</mgrwt>
</event>
<event>
 4    1 -0.5011189E-019  0.1493142E+02  0.7818608E-02  0.1870169E+00
          2   -1    0    0  501    0  0.00000000000E+00  0.00000000000E+00  0.11860359733E+03  0.11860359736E+03  0.25500000000E-02 0. -1.
         -2   -1    0    0    0  501 -0.00000000000E+00 -0.00000000000E+00 -0.46993832859E+00  0.46994524700E+00  0.25500000000E-02 0.  1.
         31    1    1    2    0    0  0.20695390790E+00 -0.83952138576E-01  0.55259080719E+02  0.55759078237E+02  0.74470750000E+01 0.  1.
        -31    1    1    2    0    0 -0.20695390790E+00  0.83952138576E-01  0.62874578285E+02  0.63314464370E+02  0.74470750000E+01 0. -1.
<mgrwt>
<rscale>  0 0.14931415E+02</rscale>
<asrwt>0</asrwt>
<pdfrwt beam="1">  1        2 0.98458336E+00 0.14931415E+02</pdfrwt>
<pdfrwt beam="2">  1       -2 0.99805353E+00 0.14931415E+02</pdfrwt>
<totfact>-0.21601929E-13</totfact>
</mgrwt>
</event>
<event>
 4    1  0.5011189E-019  0.1490983E+02  0.7818608E-02  0.1870833E+00
         -2   -1    0    0    0  501 -0.00000000000E+00  0.00000000000E+00  0.11857594884E+03  0.11857594887E+03  0.25500000000E-02 0. -1.
          2   -1    0    0  501    0  0.00000000000E+00 -0.00000000000E+00 -0.46868989152E+00  0.46869682836E+00  0.25500000000E-02 0.  1.
         31    1    1    2    0    0 -0.24776149488E+00 -0.93549269126E-01  0.60779049750E+02  0.61234156741E+02  0.74470750000E+01 0. -1.
        -31    1    1    2    0    0  0.24776149488E+00  0.93549269126E-01  0.57328209204E+02  0.57810488960E+02  0.74470750000E+01 0.  1.
<mgrwt>
<rscale>  0 0.14909831E+02</rscale>
<asrwt>0</asrwt>
<pdfrwt beam="2">  1        2 0.99541166E+00 0.14909831E+02</pdfrwt>
<pdfrwt beam="1">  1       -2 0.98434442E+00 0.14909831E+02</pdfrwt>
<totfact> 0.55295537E-13</totfact>
</mgrwt>
</event>
<event>
 4    1 -0.5011189E-019  0.1499625E+02  0.7818608E-02  0.1868183E+00
          2   -1    0    0  501    0  0.00000000000E+00  0.00000000000E+00  0.11952862648E+03  0.11952862651E+03  0.25500000000E-02 0. -1.
         -2   -1    0    0    0  501 -0.00000000000E+00 -0.00000000000E+00 -0.47035974251E+00  0.47036665472E+00  0.25500000000E-02 0.  1.
         31    1    1    2    0    0 -0.27005434360E+00  0.17766048177E+00  0.53035961201E+02  0.53557227329E+02  0.74470750000E+01 0.  1.
        -31    1    1    2    0    0  0.27005434360E+00 -0.17766048177E+00  0.66022305538E+02  0.66441765834E+02  0.74470750000E+01 0. -1.
<mgrwt>
<rscale>  0 0.14996249E+02</rscale>
<asrwt>0</asrwt>
<pdfrwt beam="1">  1        2 0.99223563E+00 0.14996249E+02</pdfrwt>
<pdfrwt beam="2">  1       -2 0.99897552E+00 0.14996249E+02</pdfrwt>
<totfact>-0.49478886E-14</totfact>
</mgrwt>
</event>
<event>
 4    1  0.5011189E-019  0.1490876E+02  0.7818608E-02  0.1870865E+00
          2   -1    0    0  501    0  0.00000000000E+00  0.00000000000E+00  0.11976678294E+03  0.11976678297E+03  0.25500000000E-02 0. -1.
         -2   -1    0    0    0  501 -0.00000000000E+00 -0.00000000000E+00 -0.46396323554E+00  0.46397024304E+00  0.25500000000E-02 0.  1.
         31    1    1    2    0    0  0.50878777597E-01 -0.25506835020E+00  0.58013863922E+02  0.58490469153E+02  0.74470750000E+01 0.  1.
        -31    1    1    2    0    0 -0.50878777597E-01  0.25506835020E+00  0.61288955785E+02  0.61740284060E+02  0.74470750000E+01 0. -1.
<mgrwt>
<rscale>  0 0.14908763E+02</rscale>
<asrwt>0</asrwt>
<pdfrwt beam="1">  1        2 0.99415199E+00 0.14908763E+02</pdfrwt>
<pdfrwt beam="2">  1       -2 0.98545057E+00 0.14908763E+02</pdfrwt>
<totfact> 0.45943672E-13</totfact>
</mgrwt>
</event>
<event>
 4    1 -0.5011189E-019  0.1496516E+02  0.7818608E-02  0.1869134E+00
         -2   -1    0    0    0  501 -0.00000000000E+00  0.00000000000E+00  0.11979275256E+03  0.11979275259E+03  0.25500000000E-02 0. -1.
          2   -1    0    0  501    0  0.00000000000E+00 -0.00000000000E+00 -0.46737859522E+00  0.46738555152E+00  0.25500000000E-02 0.  1.
         31    1    1    2    0    0 -0.14055473169E+00  0.56908786936E+00  0.56192790646E+02  0.56687143721E+02  0.74470750000E+01 0.  1.
        -31    1    1    2    0    0  0.14055473169E+00 -0.56908786936E+00  0.63132583319E+02  0.63572994418E+02  0.74470750000E+01 0. -1.
<mgrwt>
<rscale>  0 0.14965158E+02</rscale>
<asrwt>0</asrwt>
<pdfrwt beam="2">  1        2 0.99267727E+00 0.14965158E+02</pdfrwt>
<pdfrwt beam="1">  1       -2 0.99439496E+00 0.14965158E+02</pdfrwt>
<totfact>-0.14375493E-13</totfact>
</mgrwt>
</event>
<event>
 4    1 -0.5011189E-019  0.1498722E+02  0.7818608E-02  0.1868459E+00
          2   -1    0    0  501    0  0.00000000000E+00  0.00000000000E+00  0.11958311301E+03  0.11958311304E+03  0.25500000000E-02 0.  1.
         -2   -1    0    0    0  501 -0.00000000000E+00 -0.00000000000E+00 -0.46957939048E+00  0.46958631418E+00  0.25500000000E-02 0. -1.
         31    1    1    2    0    0 -0.74455677023E+00 -0.13496402525E+00  0.56751130065E+02  0.57242661274E+02  0.74470750000E+01 0. -1.
        -31    1    1    2    0    0  0.74455677023E+00  0.13496402525E+00  0.62362403556E+02  0.62810038079E+02  0.74470750000E+01 0.  1.
<mgrwt>
<rscale>  0 0.14987219E+02</rscale>
<asrwt>0</asrwt>
<pdfrwt beam="1">  1        2 0.99267971E+00 0.14987219E+02</pdfrwt>
<pdfrwt beam="2">  1       -2 0.99732645E+00 0.14987219E+02</pdfrwt>
<totfact>-0.10679834E-13</totfact>
</mgrwt>
</event>
<event>
 4    1 -0.5011189E-019  0.1493615E+02  0.7818608E-02  0.1870023E+00
         -2   -1    0    0    0  501 -0.00000000000E+00  0.00000000000E+00  0.12025322504E+03  0.12025322506E+03  0.25500000000E-02 0.  1.
          2   -1    0    0  501    0  0.00000000000E+00 -0.00000000000E+00 -0.46378560662E+00  0.46379261681E+00  0.25500000000E-02 0. -1.
         31    1    1    2    0    0 -0.38604989411E+00 -0.11028810608E+00  0.56743534148E+02  0.57231536688E+02  0.74470750000E+01 0.  1.
        -31    1    1    2    0    0  0.38604989411E+00  0.11028810608E+00  0.63045905282E+02  0.63485480992E+02  0.74470750000E+01 0.  1.
<mgrwt>
<rscale>  0 0.14936149E+02</rscale>
<asrwt>0</asrwt>
<pdfrwt beam="2">  1        2 0.98509013E+00 0.14936149E+02</pdfrwt>
<pdfrwt beam="1">  1       -2 0.99817276E+00 0.14936149E+02</pdfrwt>
<totfact>-0.18886036E-13</totfact>
</mgrwt>
</event>
<event>
 4    1  0.5011189E-019  0.1491983E+02  0.7818608E-02  0.1870525E+00
          2   -1    0    0  501    0  0.00000000000E+00  0.00000000000E+00  0.12032648592E+03  0.12032648595E+03  0.25500000000E-02 0. -1.
         -2   -1    0    0    0  501 -0.00000000000E+00 -0.00000000000E+00 -0.46249093309E+00  0.46249796291E+00  0.25500000000E-02 0.  1.
         31    1    1    2    0    0  0.20288787973E+00  0.35064985532E+00  0.61269411309E+02  0.61721664000E+02  0.74470750000E+01 0. -1.
        -31    1    1    2    0    0 -0.20288787973E+00 -0.35064985532E+00  0.58594583679E+02  0.59067319911E+02  0.74470750000E+01 0.  1.
<mgrwt>
<rscale>  0 0.14919830E+02</rscale>
<asrwt>0</asrwt>
<pdfrwt beam="1">  1        2 0.99876783E+00 0.14919830E+02</pdfrwt>
<pdfrwt beam="2">  1       -2 0.98235308E+00 0.14919830E+02</pdfrwt>
<totfact> 0.33665945E-13</totfact>
</mgrwt>
</event>
<event>
 4    1 -0.5011189E-019  0.1496473E+02  0.7818608E-02  0.1869147E+00
          2   -1    0    0  501    0  0.00000000000E+00  0.00000000000E+00  0.11958890904E+03  0.11958890907E+03  0.25500000000E-02 0.  1.
         -2   -1    0    0    0  501 -0.00000000000E+00 -0.00000000000E+00 -0.46814877057E+00  0.46815571543E+00  0.25500000000E-02 0. -1.
         31    1    1    2    0    0  0.49928739930E+00 -0.52100877955E+00  0.60189796538E+02  0.60653040084E+02  0.74470750000E+01 0.  1.
        -31    1    1    2    0    0 -0.49928739930E+00  0.52100877955E+00  0.58930963730E+02  0.59404024698E+02  0.74470750000E+01 0. -1.
<mgrwt>
<rscale>  0 0.14964734E+02</rscale>
<asrwt>0</asrwt>
<pdfrwt beam="1">  1        2 0.99271581E+00 0.14964734E+02</pdfrwt>
<pdfrwt beam="2">  1       -2 0.99430008E+00 0.14964734E+02</pdfrwt>
<totfact>-0.14289158E-13</totfact>
</mgrwt>
</event>
<event>
 4    1 -0.5011189E-019  0.1489891E+02  0.7818608E-02  0.1871169E+00
         -2   -1    0    0    0  501 -0.00000000000E+00  0.00000000000E+00  0.11941889192E+03  0.11941889194E+03  0.25500000000E-02 0. -1.
          2   -1    0    0  501    0  0.00000000000E+00 -0.00000000000E+00 -0.46469972336E+00  0.46470671976E+00  0.25500000000E-02 0.  1.
         31    1    1    2    0    0 -0.13108089329E+00 -0.13457612768E+00  0.59568151674E+02  0.60032148994E+02  0.74470750000E+01 0.  1.
        -31    1    1    2    0    0  0.13108089329E+00  0.13457612768E+00  0.59386040520E+02  0.59851449670E+02  0.74470750000E+01 0. -1.
<mgrwt>
<rscale>  0 0.14898906E+02</rscale>
<asrwt>0</asrwt>
<pdfrwt beam="2">  1        2 0.98699768E+00 0.14898906E+02</pdfrwt>
<pdfrwt beam="1">  1       -2 0.99128147E+00 0.14898906E+02</pdfrwt>
<totfact>-0.11472988E-13</totfact>
</mgrwt>
</event>
<event>
 4    1  0.5011189E-019  0.1490775E+02  0.7818608E-02  0.1870897E+00
         -2   -1    0    0    0  501 -0.00000000000E+00  0.00000000000E+00  0.11867789955E+03  0.11867789958E+03  0.25500000000E-02 0. -1.
          2   -1    0    0  501    0  0.00000000000E+00 -0.00000000000E+00 -0.46815674123E+00  0.46816368597E+00  0.25500000000E-02 0.  1.
         31    1    1    2    0    0  0.12670747595E+00 -0.41986188336E-01  0.56794989665E+02  0.57281302313E+02  0.74470750000E+01 0.  1.
        -31    1    1    2    0    0 -0.12670747595E+00  0.41986188336E-01  0.61414753147E+02  0.61864760953E+02  0.74470750000E+01 0. -1.
<mgrwt>
<rscale>  0 0.14907753E+02</rscale>
<asrwt>0</asrwt>
<pdfrwt beam="2">  1        2 0.99428718E+00 0.14907753E+02</pdfrwt>
<pdfrwt beam="1">  1       -2 0.98518301E+00 0.14907753E+02</pdfrwt>
<totfact> 0.49180461E-13</totfact>
</mgrwt>
</event>
<event>
 4    1 -0.5011189E-019  0.1497050E+02  0.7818608E-02  0.1868970E+00
         -2   -1    0    0    0  501 -0.00000000000E+00  0.00000000000E+00  0.11993624035E+03  0.11993624038E+03  0.25500000000E-02 0.  1.
          2   -1    0    0  501    0  0.00000000000E+00 -0.00000000000E+00 -0.46715268751E+00  0.46715964717E+00  0.25500000000E-02 0. -1.
         31    1    1    2    0    0  0.10149408761E+00 -0.31928010944E-01  0.53722859861E+02  0.54236665810E+02  0.74470750000E+01 0. -1.
        -31    1    1    2    0    0 -0.10149408761E+00  0.31928010944E-01  0.65746227802E+02  0.66166734215E+02  0.74470750000E+01 0.  1.
<mgrwt>
<rscale>  0 0.14970499E+02</rscale>
<asrwt>0</asrwt>
<pdfrwt beam="2">  1        2 0.99220394E+00 0.14970499E+02</pdfrwt>
<pdfrwt beam="1">  1       -2 0.99557955E+00 0.14970499E+02</pdfrwt>
<totfact>-0.14524444E-13</totfact>
</mgrwt>
</event>
<event>
 4    1  0.5011189E-019  0.1494385E+02  0.7818608E-02  0.1869787E+00
         -2   -1    0    0    0  501 -0.00000000000E+00  0.00000000000E+00  0.11881718457E+03  0.11881718460E+03  0.25500000000E-02 0. -1.
          2   -1    0    0  501    0  0.00000000000E+00 -0.00000000000E+00 -0.46987529337E+00  0.46988221270E+00  0.25500000000E-02 0.  1.
         31    1    1    2    0    0  0.25951352497E+00 -0.14026898837E+00  0.54921787601E+02  0.55425163077E+02  0.74470750000E+01 0.  1.
        -31    1    1    2    0    0 -0.25951352497E+00  0.14026898837E+00  0.63425521680E+02  0.63861903739E+02  0.74470750000E+01 0. -1.
<mgrwt>
<rscale>  0 0.14943851E+02</rscale>
<asrwt>0</asrwt>
<pdfrwt beam="2">  1        2 0.99792726E+00 0.14943851E+02</pdfrwt>
<pdfrwt beam="1">  1       -2 0.98634893E+00 0.14943851E+02</pdfrwt>
<totfact> 0.17845667E-13</totfact>
</mgrwt>
</event>
<event>
 4    1  0.5011189E-019  0.1492968E+02  0.7818608E-02  0.1870222E+00
         -2   -1    0    0    0  501 -0.00000000000E+00  0.00000000000E+00  0.11905831701E+03  0.11905831704E+03  0.25500000000E-02 0.  1.
          2   -1    0    0  501    0  0.00000000000E+00 -0.00000000000E+00 -0.46803479893E+00  0.46804174547E+00  0.25500000000E-02 0. -1.
         31    1    1    2    0    0 -0.41549075895E+00  0.16959646293E-01  0.56866735803E+02  0.57353792264E+02  0.74470750000E+01 0. -1.
        -31    1    1    2    0    0  0.41549075895E+00 -0.16959646293E-01  0.61723546411E+02  0.62172566521E+02  0.74470750000E+01 0.  1.
<mgrwt>
<rscale>  0 0.14929682E+02</rscale>
<asrwt>0</asrwt>
<pdfrwt beam="2">  1        2 0.99404169E+00 0.14929682E+02</pdfrwt>
<pdfrwt beam="1">  1       -2 0.98832756E+00 0.14929682E+02</pdfrwt>
<totfact> 0.13508526E-13</totfact>
</mgrwt>
</event>
<event>
 4    1  0.5011189E-019  0.1489624E+02  0.7818608E-02  0.1871252E+00
         -2   -1    0    0    0  501 -0.00000000000E+00  0.00000000000E+00  0.11895051964E+03  0.11895051967E+03  0.25500000000E-02 0.  1.
          2   -1    0    0  501    0  0.00000000000E+00 -0.00000000000E+00 -0.46636228967E+00  0.46636926112E+00  0.25500000000E-02 0. -1.
         31    1    1    2    0    0  0.93181342418E-01 -0.47518034617E-01  0.58699088967E+02  0.59169695896E+02  0.74470750000E+01 0. -1.
        -31    1    1    2    0    0 -0.93181342418E-01  0.47518034617E-01  0.59785068386E+02  0.60247193035E+02  0.74470750000E+01 0.  1.
<mgrwt>
<rscale>  0 0.14896235E+02</rscale>
<asrwt>0</asrwt>
<pdfrwt beam="2">  1        2 0.99049992E+00 0.14896235E+02</pdfrwt>
<pdfrwt beam="1">  1       -2 0.98742239E+00 0.14896235E+02</pdfrwt>
<totfact> 0.29161525E-13</totfact>
</mgrwt>
</event>
<event>
 4    1 -0.5011189E-019  0.1498957E+02  0.7818608E-02  0.1868387E+00
          2   -1    0    0  501    0  0.00000000000E+00  0.00000000000E+00  0.12005215935E+03  0.12005215938E+03  0.25500000000E-02 0.  1.
         -2   -1    0    0    0  501 -0.00000000000E+00 -0.00000000000E+00 -0.46789122978E+00  0.46789817846E+00  0.25500000000E-02 0. -1.
         31    1    1    2    0    0 -0.87858796670E-01  0.81427716406E+00  0.61441472384E+02  0.61896560658E+02  0.74470750000E+01 0.  1.
        -31    1    1    2    0    0  0.87858796670E-01 -0.81427716406E+00  0.58142795739E+02  0.58623496901E+02  0.74470750000E+01 0.  1.
<mgrwt>
<rscale>  0 0.14989566E+02</rscale>
<asrwt>0</asrwt>
<pdfrwt beam="1">  1        2 0.99654416E+00 0.14989566E+02</pdfrwt>
<pdfrwt beam="2">  1       -2 0.99377017E+00 0.14989566E+02</pdfrwt>
<totfact>-0.92819334E-14</totfact>
</mgrwt>
</event>
<event>
 4    1 -0.5011189E-019  0.1499031E+02  0.7818608E-02  0.1868364E+00
          2   -1    0    0  501    0  0.00000000000E+00  0.00000000000E+00  0.12006337276E+03  0.12006337279E+03  0.25500000000E-02 0. -1.
         -2   -1    0    0    0  501 -0.00000000000E+00 -0.00000000000E+00 -0.46789407101E+00  0.46790101965E+00  0.25500000000E-02 0.  1.
         31    1    1    2    0    0  0.72157585647E+00 -0.44492466940E-01  0.63355501519E+02  0.63795776898E+02  0.74470750000E+01 0.  1.
        -31    1    1    2    0    0 -0.72157585647E+00  0.44492466940E-01  0.56239977173E+02  0.56735496911E+02  0.74470750000E+01 0. -1.
<mgrwt>
<rscale>  0 0.14990312E+02</rscale>
<asrwt>0</asrwt>
<pdfrwt beam="1">  1        2 0.99663690E+00 0.14990312E+02</pdfrwt>
<pdfrwt beam="2">  1       -2 0.99377654E+00 0.14990312E+02</pdfrwt>
<totfact>-0.91280853E-14</totfact>
</mgrwt>
</event>
<event>
 4    1 -0.5011189E-019  0.1499225E+02  0.7818608E-02  0.1868305E+00
         -2   -1    0    0    0  501 -0.00000000000E+00  0.00000000000E+00  0.12003350250E+03  0.12003350252E+03  0.25500000000E-02 0.  1.
          2   -1    0    0  501    0  0.00000000000E+00 -0.00000000000E+00 -0.46813174318E+00  0.46813868829E+00  0.25500000000E-02 0. -1.
         31    1    1    2    0    0  0.52724249728E+00  0.67377918954E+00  0.59525514832E+02  0.59995648218E+02  0.74470750000E+01 0.  1.
        -31    1    1    2    0    0 -0.52724249728E+00 -0.67377918954E+00  0.60039855921E+02  0.60505992994E+02  0.74470750000E+01 0. -1.
<mgrwt>
<rscale>  0 0.14992253E+02</rscale>
<asrwt>0</asrwt>
<pdfrwt beam="2">  1        2 0.99427842E+00 0.14992253E+02</pdfrwt>
<pdfrwt beam="1">  1       -2 0.99639188E+00 0.14992253E+02</pdfrwt>
<totfact>-0.11402080E-13</totfact>
</mgrwt>
</event>
<event>
 4    1 -0.5011189E-019  0.1491567E+02  0.7818608E-02  0.1870653E+00
          2   -1    0    0  501    0  0.00000000000E+00  0.00000000000E+00  0.11909123825E+03  0.11909123828E+03  0.25500000000E-02 0. -1.
         -2   -1    0    0    0  501 -0.00000000000E+00 -0.00000000000E+00 -0.46702761816E+00  0.46703457969E+00  0.25500000000E-02 0.  1.
         31    1    1    2    0    0 -0.31021257139E+00  0.23650083112E+00  0.60039037643E+02  0.60500389516E+02  0.74470750000E+01 0. -1.
        -31    1    1    2    0    0  0.31021257139E+00 -0.23650083112E+00  0.58585172989E+02  0.59057883341E+02  0.74470750000E+01 0.  1.
<mgrwt>
<rscale>  0 0.14915672E+02</rscale>
<asrwt>0</asrwt>
<pdfrwt beam="1">  1        2 0.98859145E+00 0.14915672E+02</pdfrwt>
<pdfrwt beam="2">  1       -2 0.99191204E+00 0.14915672E+02</pdfrwt>
<totfact>-0.13236320E-13</totfact>
</mgrwt>
</event>
<event>
 4    1 -0.5011189E-019  0.1496106E+02  0.7818608E-02  0.1869259E+00
         -2   -1    0    0    0  501 -0.00000000000E+00  0.00000000000E+00  0.11970366818E+03  0.11970366821E+03  0.25500000000E-02 0.  1.
          2   -1    0    0  501    0  0.00000000000E+00 -0.00000000000E+00 -0.46747047299E+00  0.46747742792E+00  0.25500000000E-02 0. -1.
         31    1    1    2    0    0  0.49841983546E+00  0.49789455204E+00  0.59170698743E+02  0.59641653541E+02  0.74470750000E+01 0.  1.
        -31    1    1    2    0    0 -0.49841983546E+00 -0.49789455204E+00  0.60065498969E+02  0.60529492099E+02  0.74470750000E+01 0.  1.
<mgrwt>
<rscale>  0 0.14961063E+02</rscale>
<asrwt>0</asrwt>
<pdfrwt beam="2">  1        2 0.99286878E+00 0.14961063E+02</pdfrwt>
<pdfrwt beam="1">  1       -2 0.99365911E+00 0.14961063E+02</pdfrwt>
<totfact>-0.13523531E-13</totfact>
</mgrwt>
</event>
<event>
 4    1  0.5011189E-019  0.1492983E+02  0.7818608E-02  0.1870217E+00
         -2   -1    0    0    0  501 -0.00000000000E+00  0.00000000000E+00  0.11855035236E+03  0.11855035238E+03  0.25500000000E-02 0.  1.
          2   -1    0    0  501    0  0.00000000000E+00 -0.00000000000E+00 -0.47004940734E+00  0.47005632411E+00  0.25500000000E-02 0. -1.
         31    1    1    2    0    0 -0.15721464898E+00 -0.49119408687E+00  0.59002774140E+02  0.59473122251E+02  0.74470750000E+01 0.  1.
        -31    1    1    2    0    0  0.15721464898E+00  0.49119408687E+00  0.59077528809E+02  0.59547286456E+02  0.74470750000E+01 0. -1.
<mgrwt>
<rscale>  0 0.14929827E+02</rscale>
<asrwt>0</asrwt>
<pdfrwt beam="2">  1        2 0.99828673E+00 0.14929827E+02</pdfrwt>
<pdfrwt beam="1">  1       -2 0.98414401E+00 0.14929827E+02</pdfrwt>
<totfact> 0.29571810E-13</totfact>
</mgrwt>
</event>
<event>
 4    1  0.5011189E-019  0.1492713E+02  0.7818608E-02  0.1870300E+00
         -2   -1    0    0    0  501 -0.00000000000E+00  0.00000000000E+00  0.11894153235E+03  0.11894153238E+03  0.25500000000E-02 0.  1.
          2   -1    0    0  501    0  0.00000000000E+00 -0.00000000000E+00 -0.46833402064E+00  0.46834096275E+00  0.25500000000E-02 0. -1.
         31    1    1    2    0    0 -0.41771305752E+00 -0.46088615570E-01  0.61341670770E+02  0.61793495672E+02  0.74470750000E+01 0.  1.
        -31    1    1    2    0    0  0.41771305752E+00  0.46088615570E-01  0.57131527559E+02  0.57616377669E+02  0.74470750000E+01 0.  1.
<mgrwt>
<rscale>  0 0.14927127E+02</rscale>
<asrwt>0</asrwt>
<pdfrwt beam="2">  1        2 0.99467087E+00 0.14927127E+02</pdfrwt>
<pdfrwt beam="1">  1       -2 0.98736438E+00 0.14927127E+02</pdfrwt>
<totfact> 0.21637512E-13</totfact>
</mgrwt>
</event>
<event>
 4    1 -0.5011189E-019  0.1502760E+02  0.7818608E-02  0.1867228E+00
          2   -1    0    0  501    0  0.00000000000E+00  0.00000000000E+00  0.12025807449E+03  0.12025807452E+03  0.25500000000E-02 0. -1.
         -2   -1    0    0    0  501 -0.00000000000E+00 -0.00000000000E+00 -0.46946323167E+00  0.46947015709E+00  0.25500000000E-02 0.  1.
         31    1    1    2    0    0 -0.24637776562E+00 -0.22775504960E+00  0.52333793293E+02  0.52862060316E+02  0.74470750000E+01 0.  1.
        -31    1    1    2    0    0  0.24637776562E+00  0.22775504960E+00  0.67454817965E+02  0.67865484357E+02  0.74470750000E+01 0. -1.
<mgrwt>
<rscale>  0 0.15027596E+02</rscale>
<asrwt>0</asrwt>
<pdfrwt beam="1">  1        2 0.99825981E+00 0.15027596E+02</pdfrwt>
<pdfrwt beam="2">  1       -2 0.99710260E+00 0.15027596E+02</pdfrwt>
<totfact>-0.45930694E-14</totfact>
</mgrwt>
</event>
<event>
 4    1 -0.5011189E-019  0.1496342E+02  0.7818608E-02  0.1869187E+00
          2   -1    0    0  501    0  0.00000000000E+00  0.00000000000E+00  0.11938733212E+03  0.11938733215E+03  0.25500000000E-02 0.  1.
         -2   -1    0    0    0  501 -0.00000000000E+00 -0.00000000000E+00 -0.46885690245E+00  0.46886383682E+00  0.25500000000E-02 0. -1.
         31    1    1    2    0    0  0.31705216310E+00  0.63869415203E+00  0.58715839749E+02  0.59190516266E+02  0.74470750000E+01 0. -1.
        -31    1    1    2    0    0 -0.31705216310E+00 -0.63869415203E+00  0.60202635467E+02  0.60665679717E+02  0.74470750000E+01 0. -1.
<mgrwt>
<rscale>  0 0.14963421E+02</rscale>
<asrwt>0</asrwt>
<pdfrwt beam="1">  1        2 0.99105489E+00 0.14963421E+02</pdfrwt>
<pdfrwt beam="2">  1       -2 0.99579162E+00 0.14963421E+02</pdfrwt>
<totfact>-0.15587281E-13</totfact>
</mgrwt>
</event>
<event>
 4    1 -0.5011189E-019  0.1492711E+02  0.7818608E-02  0.1870301E+00
         -2   -1    0    0    0  501 -0.00000000000E+00  0.00000000000E+00  0.11999105408E+03  0.11999105411E+03  0.25500000000E-02 0. -1.
          2   -1    0    0  501    0  0.00000000000E+00 -0.00000000000E+00 -0.46423623065E+00  0.46424323404E+00  0.25500000000E-02 0.  1.
         31    1    1    2    0    0 -0.38909881922E+00  0.11987045062E-01  0.57287346923E+02  0.57770672362E+02  0.74470750000E+01 0.  1.
        -31    1    1    2    0    0  0.38909881922E+00 -0.11987045062E-01  0.62239470931E+02  0.62684624984E+02  0.74470750000E+01 0. -1.
<mgrwt>
<rscale>  0 0.14927105E+02</rscale>
<asrwt>0</asrwt>
<pdfrwt beam="2">  1        2 0.98603528E+00 0.14927105E+02</pdfrwt>
<pdfrwt beam="1">  1       -2 0.99600868E+00 0.14927105E+02</pdfrwt>
<totfact>-0.27634468E-13</totfact>
</mgrwt>
</event>
<event>
 4    1  0.5011189E-019  0.1493128E+02  0.7818608E-02  0.1870173E+00
         -2   -1    0    0    0  501 -0.00000000000E+00  0.00000000000E+00  0.11914632329E+03  0.11914632332E+03  0.25500000000E-02 0. -1.
          2   -1    0    0  501    0  0.00000000000E+00 -0.00000000000E+00 -0.46778906695E+00  0.46779601715E+00  0.25500000000E-02 0.  1.
         31    1    1    2    0    0 -0.38051303891E+00  0.11854127594E+00  0.56587447696E+02  0.57076764143E+02  0.74470750000E+01 0.  1.
        -31    1    1    2    0    0  0.38051303891E+00 -0.11854127594E+00  0.62091086531E+02  0.62537355196E+02  0.74470750000E+01 0. -1.
<mgrwt>
<rscale>  0 0.14931278E+02</rscale>
<asrwt>0</asrwt>
<pdfrwt beam="2">  1        2 0.99352471E+00 0.14931278E+02</pdfrwt>
<pdfrwt beam="1">  1       -2 0.98905323E+00 0.14931278E+02</pdfrwt>
<totfact> 0.78020427E-14</totfact>
</mgrwt>
</event>
<event>
 4    1  0.5011189E-019  0.1491526E+02  0.7818608E-02  0.1870665E+00
         -2   -1    0    0    0  501 -0.00000000000E+00  0.00000000000E+00  0.11879365905E+03  0.11879365908E+03  0.25500000000E-02 0.  1.
          2   -1    0    0  501    0  0.00000000000E+00 -0.00000000000E+00 -0.46817175802E+00  0.46817870253E+00  0.25500000000E-02 0. -1.
         31    1    1    2    0    0 -0.35224581184E+00 -0.92866155713E-01  0.60417489163E+02  0.60875813129E+02  0.74470750000E+01 0. -1.
        -31    1    1    2    0    0  0.35224581184E+00  0.92866155713E-01  0.57907998127E+02  0.58386024649E+02  0.74470750000E+01 0. -1.
<mgrwt>
<rscale>  0 0.14915261E+02</rscale>
<asrwt>0</asrwt>
<pdfrwt beam="2">  1        2 0.99432275E+00 0.14915261E+02</pdfrwt>
<pdfrwt beam="1">  1       -2 0.98614032E+00 0.14915261E+02</pdfrwt>
<totfact> 0.36244084E-13</totfact>
</mgrwt>
</event>
<event>
 4    1 -0.5011189E-019  0.1489577E+02  0.7818608E-02  0.1871266E+00
         -2   -1    0    0    0  501 -0.00000000000E+00  0.00000000000E+00  0.11978755716E+03  0.11978755718E+03  0.25500000000E-02 0.  1.
          2   -1    0    0  501    0  0.00000000000E+00 -0.00000000000E+00 -0.46307458918E+00  0.46308161014E+00  0.25500000000E-02 0. -1.
         31    1    1    2    0    0 -0.75660781559E-01  0.73886792868E-01  0.59421714936E+02  0.59886645555E+02  0.74470750000E+01 0.  1.
        -31    1    1    2    0    0  0.75660781559E-01 -0.73886792868E-01  0.59902767631E+02  0.60363993239E+02  0.74470750000E+01 0.  1.
<mgrwt>
<rscale>  0 0.14895771E+02</rscale>
<asrwt>0</asrwt>
<pdfrwt beam="2">  1        2 0.98357106E+00 0.14895771E+02</pdfrwt>
<pdfrwt beam="1">  1       -2 0.99431642E+00 0.14895771E+02</pdfrwt>
<totfact>-0.43754686E-13</totfact>
</mgrwt>
</event>
<event>
 4    1 -0.5011189E-019  0.1494736E+02  0.7818608E-02  0.1869679E+00
         -2   -1    0    0    0  501 -0.00000000000E+00  0.00000000000E+00  0.12004926607E+03  0.12004926610E+03  0.25500000000E-02 0. -1.
          2   -1    0    0  501    0  0.00000000000E+00 -0.00000000000E+00 -0.46527107799E+00  0.46527806580E+00  0.25500000000E-02 0.  1.
         31    1    1    2    0    0 -0.32025206506E+00  0.20022855240E+00  0.55726215013E+02  0.56222883407E+02  0.74470750000E+01 0.  1.
        -31    1    1    2    0    0  0.32025206506E+00 -0.20022855240E+00  0.63857779982E+02  0.64291660759E+02  0.74470750000E+01 0. -1.
<mgrwt>
<rscale>  0 0.14947358E+02</rscale>
<asrwt>0</asrwt>
<pdfrwt beam="2">  1        2 0.98822662E+00 0.14947358E+02</pdfrwt>
<pdfrwt beam="1">  1       -2 0.99649857E+00 0.14947358E+02</pdfrwt>
<totfact>-0.19067280E-13</totfact>
</mgrwt>
</event>
<event>
 4    1  0.5011189E-019  0.1493618E+02  0.7818608E-02  0.1870022E+00
          2   -1    0    0  501    0  0.00000000000E+00  0.00000000000E+00  0.12017858969E+03  0.12017858972E+03  0.25500000000E-02 0.  1.
         -2   -1    0    0    0  501 -0.00000000000E+00 -0.00000000000E+00 -0.46407583213E+00  0.46408283794E+00  0.25500000000E-02 0. -1.
         31    1    1    2    0    0  0.19216795098E+00 -0.46921394831E+00  0.57939248354E+02  0.58418083811E+02  0.74470750000E+01 0. -1.
        -31    1    1    2    0    0 -0.19216795098E+00  0.46921394831E+00  0.61775265508E+02  0.62224588748E+02  0.74470750000E+01 0.  1.
<mgrwt>
<rscale>  0 0.14936185E+02</rscale>
<asrwt>0</asrwt>
<pdfrwt beam="1">  1        2 0.99755803E+00 0.14936185E+02</pdfrwt>
<pdfrwt beam="2">  1       -2 0.98570184E+00 0.14936185E+02</pdfrwt>
<totfact> 0.25102808E-13</totfact>
</mgrwt>
</event>
<event>
 4    1 -0.5011189E-019  0.1491323E+02  0.7818608E-02  0.1870728E+00
         -2   -1    0    0    0  501 -0.00000000000E+00  0.00000000000E+00  0.12014760384E+03  0.12014760387E+03  0.25500000000E-02 0.  1.
          2   -1    0    0  501    0  0.00000000000E+00 -0.00000000000E+00 -0.46276958809E+00  0.46277661367E+00  0.25500000000E-02 0. -1.
         31    1    1    2    0    0  0.21907628387E+00  0.70616826083E-01  0.62257517664E+02  0.62701757654E+02  0.74470750000E+01 0.  1.
        -31    1    1    2    0    0 -0.21907628387E+00 -0.70616826083E-01  0.57427316589E+02  0.57908622828E+02  0.74470750000E+01 0. -1.
<mgrwt>
<rscale>  0 0.14913227E+02</rscale>
<asrwt>0</asrwt>
<pdfrwt beam="2">  1        2 0.98293708E+00 0.14913227E+02</pdfrwt>
<pdfrwt beam="1">  1       -2 0.99729101E+00 0.14913227E+02</pdfrwt>
<totfact>-0.36590199E-13</totfact>
</mgrwt>
</event>
<event>
 4    1 -0.5011189E-019  0.1491197E+02  0.7818608E-02  0.1870767E+00
          2   -1    0    0  501    0  0.00000000000E+00  0.00000000000E+00  0.11858613234E+03  0.11858613237E+03  0.25500000000E-02 0.  1.
         -2   -1    0    0    0  501 -0.00000000000E+00 -0.00000000000E+00 -0.46878394670E+00  0.46879088215E+00  0.25500000000E-02 0. -1.
         31    1    1    2    0    0 -0.56381204500E-01 -0.35961324659E+00  0.59188160639E+02  0.59655928342E+02  0.74470750000E+01 0. -1.
        -31    1    1    2    0    0  0.56381204500E-01  0.35961324659E+00  0.58929187755E+02  0.59398994908E+02  0.74470750000E+01 0.  1.
<mgrwt>
<rscale>  0 0.14911967E+02</rscale>
<asrwt>0</asrwt>
<pdfrwt beam="1">  1        2 0.98442940E+00 0.14911967E+02</pdfrwt>
<pdfrwt beam="2">  1       -2 0.99561097E+00 0.14911967E+02</pdfrwt>
<totfact>-0.37035812E-13</totfact>
</mgrwt>
</event>
<event>
 4    1 -0.5011189E-019  0.1493925E+02  0.7818608E-02  0.1869928E+00
         -2   -1    0    0    0  501 -0.00000000000E+00  0.00000000000E+00  0.11988423105E+03  0.11988423108E+03  0.25500000000E-02 0.  1.
          2   -1    0    0  501    0  0.00000000000E+00 -0.00000000000E+00 -0.46540651518E+00  0.46541350096E+00  0.25500000000E-02 0. -1.
         31    1    1    2    0    0  0.35813977058E+00 -0.18266850595E+00  0.63077200051E+02  0.63516562597E+02  0.74470750000E+01 0.  1.
        -31    1    1    2    0    0 -0.35813977058E+00  0.18266850595E+00  0.56341624487E+02  0.56833081984E+02  0.74470750000E+01 0. -1.
<mgrwt>
<rscale>  0 0.14939254E+02</rscale>
<asrwt>0</asrwt>
<pdfrwt beam="2">  1        2 0.98850791E+00 0.14939254E+02</pdfrwt>
<pdfrwt beam="1">  1       -2 0.99513507E+00 0.14939254E+02</pdfrwt>
<totfact>-0.20883116E-13</totfact>
</mgrwt>
</event>
<event>
 4    1 -0.5011189E-019  0.1494772E+02  0.7818608E-02  0.1869668E+00
          2   -1    0    0  501    0  0.00000000000E+00  0.00000000000E+00  0.11902329201E+03  0.11902329204E+03  0.25500000000E-02 0. -1.
         -2   -1    0    0    0  501 -0.00000000000E+00 -0.00000000000E+00 -0.46930450767E+00  0.46931143542E+00  0.25500000000E-02 0.  1.
         31    1    1    2    0    0 -0.19476399406E+00  0.38943424116E+00  0.62940887058E+02  0.63381415114E+02  0.74470750000E+01 0. -1.
        -31    1    1    2    0    0  0.19476399406E+00 -0.38943424116E+00  0.55613100447E+02  0.56111188362E+02  0.74470750000E+01 0.  1.
<mgrwt>
<rscale>  0 0.14947720E+02</rscale>
<asrwt>0</asrwt>
<pdfrwt beam="1">  1        2 0.98804845E+00 0.14947720E+02</pdfrwt>
<pdfrwt beam="2">  1       -2 0.99672660E+00 0.14947720E+02</pdfrwt>
<totfact>-0.18760985E-13</totfact>
</mgrwt>
</event>
<event>
 4    1 -0.5011189E-019  0.1493533E+02  0.7818608E-02  0.1870048E+00
         -2   -1    0    0    0  501 -0.00000000000E+00  0.00000000000E+00  0.11944128306E+03  0.11944128309E+03  0.25500000000E-02 0. -1.
          2   -1    0    0  501    0  0.00000000000E+00 -0.00000000000E+00 -0.46688738278E+00  0.46689434640E+00  0.25500000000E-02 0.  1.
         31    1    1    2    0    0  0.17678293686E+00 -0.32036216410E+00  0.56145599881E+02  0.56638513365E+02  0.74470750000E+01 0.  1.
        -31    1    1    2    0    0 -0.17678293686E+00  0.32036216410E+00  0.62828795798E+02  0.63269664071E+02  0.74470750000E+01 0. -1.
<mgrwt>
<rscale>  0 0.14935334E+02</rscale>
<asrwt>0</asrwt>
<pdfrwt beam="2">  1        2 0.99162671E+00 0.14935334E+02</pdfrwt>
<pdfrwt beam="1">  1       -2 0.99148471E+00 0.14935334E+02</pdfrwt>
<totfact>-0.79986992E-14</totfact>
</mgrwt>
</event>
<event>
 4    1 -0.5011189E-019  0.1495043E+02  0.7818608E-02  0.1869585E+00
          2   -1    0    0  501    0  0.00000000000E+00  0.00000000000E+00  0.11887641596E+03  0.11887641598E+03  0.25500000000E-02 0. -1.
         -2   -1    0    0    0  501 -0.00000000000E+00 -0.00000000000E+00 -0.47005492021E+00  0.47006183690E+00  0.25500000000E-02 0.  1.
         31    1    1    2    0    0  0.61057754894E+00 -0.16300229345E+00  0.60347756505E+02  0.60808798837E+02  0.74470750000E+01 0. -1.
        -31    1    1    2    0    0 -0.61057754894E+00  0.16300229345E+00  0.58058604532E+02  0.58537678984E+02  0.74470750000E+01 0. -1.
<mgrwt>
<rscale>  0 0.14950433E+02</rscale>
<asrwt>0</asrwt>
<pdfrwt beam="1">  1        2 0.98684018E+00 0.14950433E+02</pdfrwt>
<pdfrwt beam="2">  1       -2 0.99830921E+00 0.14950433E+02</pdfrwt>
<totfact>-0.13527151E-13</totfact>
</mgrwt>
</event>
<event>
 4    1 -0.5011189E-019  0.1489951E+02  0.7818608E-02  0.1871150E+00
          2   -1    0    0  501    0  0.00000000000E+00  0.00000000000E+00  0.11852528199E+03  0.11852528201E+03  0.25500000000E-02 0. -1.
         -2   -1    0    0    0  501 -0.00000000000E+00 -0.00000000000E+00 -0.46824153153E+00  0.46824847501E+00  0.25500000000E-02 0.  1.
         31    1    1    2    0    0  0.41394020523E-01 -0.41500013340E-01  0.60554582564E+02  0.61010817330E+02  0.74470750000E+01 0. -1.
        -31    1    1    2    0    0 -0.41394020523E-01  0.41500013340E-01  0.57502457891E+02  0.57982713159E+02  0.74470750000E+01 0.  1.
<mgrwt>
<rscale>  0 0.14899513E+02</rscale>
<asrwt>0</asrwt>
<pdfrwt beam="1">  1        2 0.98392177E+00 0.14899513E+02</pdfrwt>
<pdfrwt beam="2">  1       -2 0.99446152E+00 0.14899513E+02</pdfrwt>
<totfact>-0.41439042E-13</totfact>
</mgrwt>
</event>
<event>
 4    1  0.5011189E-019  0.1494449E+02  0.7818608E-02  0.1869767E+00
          2   -1    0    0  501    0  0.00000000000E+00  0.00000000000E+00  0.11989722768E+03  0.11989722771E+03  0.25500000000E-02 0. -1.
         -2   -1    0    0    0  501 -0.00000000000E+00 -0.00000000000E+00 -0.46568263890E+00  0.46568962054E+00  0.25500000000E-02 0.  1.
         31    1    1    2    0    0  0.15591748933E+00 -0.27198740759E+00  0.55474857629E+02  0.55973360114E+02  0.74470750000E+01 0.  1.
        -31    1    1    2    0    0 -0.15591748933E+00  0.27198740759E+00  0.63956687411E+02  0.64389557212E+02  0.74470750000E+01 0. -1.
<mgrwt>
<rscale>  0 0.14944495E+02</rscale>
<asrwt>0</asrwt>
<pdfrwt beam="1">  1        2 0.99524481E+00 0.14944495E+02</pdfrwt>
<pdfrwt beam="2">  1       -2 0.98909253E+00 0.14944495E+02</pdfrwt>
<totfact> 0.64213057E-14</totfact>
</mgrwt>
</event>
<event>
 4    1 -0.5011189E-019  0.1491178E+02  0.7818608E-02  0.1870773E+00
         -2   -1    0    0    0  501 -0.00000000000E+00  0.00000000000E+00  0.12032560611E+03  0.12032560614E+03  0.25500000000E-02 0. -1.
          2   -1    0    0  501    0  0.00000000000E+00 -0.00000000000E+00 -0.46199505869E+00  0.46200209605E+00  0.25500000000E-02 0.  1.
         31    1    1    2    0    0 -0.35611891302E+00 -0.39536173368E-01  0.59491686478E+02  0.59957051878E+02  0.74470750000E+01 0. -1.
        -31    1    1    2    0    0  0.35611891302E+00  0.39536173368E-01  0.60371924577E+02  0.60830556359E+02  0.74470750000E+01 0.  1.
<mgrwt>
<rscale>  0 0.14911775E+02</rscale>
<asrwt>0</asrwt>
<pdfrwt beam="2">  1        2 0.98130384E+00 0.14911775E+02</pdfrwt>
<pdfrwt beam="1">  1       -2 0.99875646E+00 0.14911775E+02</pdfrwt>
<totfact>-0.25531419E-13</totfact>
</mgrwt>
</event>
<event>
 4    1 -0.5011189E-019  0.1493138E+02  0.7818608E-02  0.1870170E+00
         -2   -1    0    0    0  501 -0.00000000000E+00  0.00000000000E+00  0.11990208552E+03  0.11990208555E+03  0.25500000000E-02 0.  1.
          2   -1    0    0  501    0  0.00000000000E+00 -0.00000000000E+00 -0.46484696583E+00  0.46485396002E+00  0.25500000000E-02 0. -1.
         31    1    1    2    0    0  0.94821941966E-01 -0.74646277450E-01  0.55584056641E+02  0.56080842023E+02  0.74470750000E+01 0. -1.
        -31    1    1    2    0    0 -0.94821941966E-01  0.74646277450E-01  0.63853181915E+02  0.64286097486E+02  0.74470750000E+01 0.  1.
<mgrwt>
<rscale>  0 0.14931382E+02</rscale>
<asrwt>0</asrwt>
<pdfrwt beam="2">  1        2 0.98732463E+00 0.14931382E+02</pdfrwt>
<pdfrwt beam="1">  1       -2 0.99527807E+00 0.14931382E+02</pdfrwt>
<totfact>-0.24192119E-13</totfact>
</mgrwt>
</event>
<event>
 4    1 -0.5011189E-019  0.1500876E+02  0.7818608E-02  0.1867801E+00
          2   -1    0    0  501    0  0.00000000000E+00  0.00000000000E+00  0.12011568883E+03  0.12011568885E+03  0.25500000000E-02 0.  1.
         -2   -1    0    0    0  501 -0.00000000000E+00 -0.00000000000E+00 -0.46884227347E+00  0.46884920805E+00  0.25500000000E-02 0. -1.
         31    1    1    2    0    0 -0.31552728459E-01 -0.67736787792E+00  0.54761296903E+02  0.55269506849E+02  0.74470750000E+01 0.  1.
        -31    1    1    2    0    0  0.31552728459E-01  0.67736787792E+00  0.64885549649E+02  0.65315031211E+02  0.74470750000E+01 0.  1.
<mgrwt>
<rscale>  0 0.15008762E+02</rscale>
<asrwt>0</asrwt>
<pdfrwt beam="1">  1        2 0.99707733E+00 0.15008762E+02</pdfrwt>
<pdfrwt beam="2">  1       -2 0.99578429E+00 0.15008762E+02</pdfrwt>
<totfact>-0.82909811E-14</totfact>
</mgrwt>
</event>
<event>
 4    1 -0.5011189E-019  0.1489629E+02  0.7818608E-02  0.1871250E+00
          2   -1    0    0  501    0  0.00000000000E+00  0.00000000000E+00  0.11833259364E+03  0.11833259367E+03  0.25500000000E-02 0. -1.
         -2   -1    0    0    0  501 -0.00000000000E+00 -0.00000000000E+00 -0.46880079890E+00  0.46880773410E+00  0.25500000000E-02 0.  1.
         31    1    1    2    0    0  0.94607813153E-01  0.61370307572E-01  0.58481806575E+02  0.58954163070E+02  0.74470750000E+01 0.  1.
        -31    1    1    2    0    0 -0.94607813153E-01 -0.61370307572E-01  0.59381986266E+02  0.59847238331E+02  0.74470750000E+01 0. -1.
<mgrwt>
<rscale>  0 0.14896285E+02</rscale>
<asrwt>0</asrwt>
<pdfrwt beam="1">  1        2 0.98233311E+00 0.14896285E+02</pdfrwt>
<pdfrwt beam="2">  1       -2 0.99563822E+00 0.14896285E+02</pdfrwt>
<totfact>-0.52569713E-13</totfact>
</mgrwt>
</event>
<event>
 4    1  0.5011189E-019  0.1494279E+02  0.7818608E-02  0.1869819E+00
         -2   -1    0    0    0  501 -0.00000000000E+00  0.00000000000E+00  0.11858587140E+03  0.11858587142E+03  0.25500000000E-02 0.  1.
          2   -1    0    0  501    0  0.00000000000E+00 -0.00000000000E+00 -0.47072513327E+00  0.47073204012E+00  0.25500000000E-02 0. -1.
         31    1    1    2    0    0 -0.27678059437E-01  0.60131385792E+00  0.58880770924E+02  0.59352897613E+02  0.74470750000E+01 0.  1.
        -31    1    1    2    0    0  0.27678059437E-01 -0.60131385792E+00  0.59234375338E+02  0.59703705850E+02  0.74470750000E+01 0.  1.
<mgrwt>
<rscale>  0 0.14942793E+02</rscale>
<asrwt>0</asrwt>
<pdfrwt beam="2">  1        2 0.99971732E+00 0.14942793E+02</pdfrwt>
<pdfrwt beam="1">  1       -2 0.98444330E+00 0.14942793E+02</pdfrwt>
<totfact> 0.52947129E-14</totfact>
</mgrwt>
</event>
<event>
 4    1  0.5011189E-019  0.1490105E+02  0.7818608E-02  0.1871103E+00
         -2   -1    0    0    0  501 -0.00000000000E+00  0.00000000000E+00  0.11843507414E+03  0.11843507417E+03  0.25500000000E-02 0. -1.
          2   -1    0    0  501    0  0.00000000000E+00 -0.00000000000E+00 -0.46869461492E+00  0.46870155169E+00  0.25500000000E-02 0.  1.
         31    1    1    2    0    0 -0.16112855406E+00  0.96026825246E-01  0.57968000283E+02  0.58444701782E+02  0.74470750000E+01 0.  1.
        -31    1    1    2    0    0  0.16112855406E+00 -0.96026825246E-01  0.59998379242E+02  0.60459073936E+02  0.74470750000E+01 0. -1.
<mgrwt>
<rscale>  0 0.14901046E+02</rscale>
<asrwt>0</asrwt>
<pdfrwt beam="2">  1        2 0.99541699E+00 0.14901046E+02</pdfrwt>
<pdfrwt beam="1">  1       -2 0.98317961E+00 0.14901046E+02</pdfrwt>
<totfact> 0.73084048E-13</totfact>
</mgrwt>
</event>
<event>
 4    1 -0.5011189E-019  0.1492595E+02  0.7818608E-02  0.1870336E+00
         -2   -1    0    0    0  501 -0.00000000000E+00  0.00000000000E+00  0.12012047061E+03  0.12012047064E+03  0.25500000000E-02 0.  1.
          2   -1    0    0  501    0  0.00000000000E+00 -0.00000000000E+00 -0.46366450043E+00  0.46367151246E+00  0.25500000000E-02 0. -1.
         31    1    1    2    0    0 -0.51648229899E-01 -0.43532131091E+00  0.58116070560E+02  0.58592907041E+02  0.74470750000E+01 0. -1.
        -31    1    1    2    0    0  0.51648229899E-01  0.43532131091E+00  0.61540735553E+02  0.61991235111E+02  0.74470750000E+01 0.  1.
<mgrwt>
<rscale>  0 0.14925954E+02</rscale>
<asrwt>0</asrwt>
<pdfrwt beam="2">  1        2 0.98482971E+00 0.14925954E+02</pdfrwt>
<pdfrwt beam="1">  1       -2 0.99707406E+00 0.14925954E+02</pdfrwt>
<totfact>-0.28119516E-13</totfact>
</mgrwt>
</event>
<event>
 4    1  0.5011189E-019  0.1490505E+02  0.7818608E-02  0.1870980E+00
          2   -1    0    0  501    0  0.00000000000E+00  0.00000000000E+00  0.12010568226E+03  0.12010568228E+03  0.25500000000E-02 0.  1.
         -2   -1    0    0    0  501 -0.00000000000E+00 -0.00000000000E+00 -0.46242350596E+00  0.46243053680E+00  0.25500000000E-02 0. -1.
         31    1    1    2    0    0 -0.70832521401E-01 -0.26581385866E+00  0.60422395032E+02  0.60880213712E+02  0.74470750000E+01 0. -1.
        -31    1    1    2    0    0  0.70832521401E-01  0.26581385866E+00  0.59220863719E+02  0.59687899108E+02  0.74470750000E+01 0.  1.
<mgrwt>
<rscale>  0 0.14905048E+02</rscale>
<asrwt>0</asrwt>
<pdfrwt beam="1">  1        2 0.99694151E+00 0.14905048E+02</pdfrwt>
<pdfrwt beam="2">  1       -2 0.98220350E+00 0.14905048E+02</pdfrwt>
<totfact> 0.70458150E-13</totfact>
</mgrwt>
</event>
<event>
 4    1 -0.5011189E-019  0.1497249E+02  0.7818608E-02  0.1868909E+00
         -2   -1    0    0    0  501 -0.00000000000E+00  0.00000000000E+00  0.12000750345E+03  0.12000750348E+03  0.25500000000E-02 0. -1.
          2   -1    0    0  501    0  0.00000000000E+00 -0.00000000000E+00 -0.46699973729E+00  0.46700669923E+00  0.25500000000E-02 0.  1.
         31    1    1    2    0    0 -0.19301047697E+00 -0.12090506187E+00  0.65645198396E+02  0.66066654748E+02  0.74470750000E+01 0. -1.
        -31    1    1    2    0    0  0.19301047697E+00  0.12090506187E+00  0.53895305317E+02  0.54407855429E+02  0.74470750000E+01 0.  1.
<mgrwt>
<rscale>  0 0.14972494E+02</rscale>
<asrwt>0</asrwt>
<pdfrwt beam="2">  1        2 0.99188264E+00 0.14972494E+02</pdfrwt>
<pdfrwt beam="1">  1       -2 0.99616754E+00 0.14972494E+02</pdfrwt>
<totfact>-0.14054895E-13</totfact>
</mgrwt>
</event>
<event>
 4    1 -0.5011189E-019  0.1499868E+02  0.7818608E-02  0.1868109E+00
          2   -1    0    0  501    0  0.00000000000E+00  0.00000000000E+00  0.11973483387E+03  0.11973483390E+03  0.25500000000E-02 0. -1.
         -2   -1    0    0    0  501 -0.00000000000E+00 -0.00000000000E+00 -0.46970163862E+00  0.46970856051E+00  0.25500000000E-02 0.  1.
         31    1    1    2    0    0 -0.49049872076E-01 -0.40228451935E+00  0.53337858647E+02  0.53856757514E+02  0.74470750000E+01 0.  1.
        -31    1    1    2    0    0  0.49049872076E-01  0.40228451935E+00  0.65927273588E+02  0.66347784948E+02  0.74470750000E+01 0. -1.
<mgrwt>
<rscale>  0 0.14998675E+02</rscale>
<asrwt>0</asrwt>
<pdfrwt beam="1">  1        2 0.99393526E+00 0.14998675E+02</pdfrwt>
<pdfrwt beam="2">  1       -2 0.99759002E+00 0.14998675E+02</pdfrwt>
<totfact>-0.90229988E-14</totfact>
</mgrwt>
</event>
<event>
 4    1  0.5011189E-019  0.1490654E+02  0.7818608E-02  0.1870934E+00
          2   -1    0    0  501    0  0.00000000000E+00  0.00000000000E+00  0.12033754885E+03  0.12033754887E+03  0.25500000000E-02 0. -1.
         -2   -1    0    0    0  501 -0.00000000000E+00 -0.00000000000E+00 -0.46162474379E+00  0.46163178679E+00  0.25500000000E-02 0.  1.
         31    1    1    2    0    0  0.19575704645E+00  0.18615583186E+00  0.61064249614E+02  0.61517269785E+02  0.74470750000E+01 0. -1.
        -31    1    1    2    0    0 -0.19575704645E+00 -0.18615583186E+00  0.58811674488E+02  0.59281910875E+02  0.74470750000E+01 0.  1.
<mgrwt>
<rscale>  0 0.14906538E+02</rscale>
<asrwt>0</asrwt>
<pdfrwt beam="1">  1        2 0.99885214E+00 0.14906538E+02</pdfrwt>
<pdfrwt beam="2">  1       -2 0.98052066E+00 0.14906538E+02</pdfrwt>
<totfact> 0.44809317E-13</totfact>
</mgrwt>
</event>
<event>
 4    1  0.5011189E-019  0.1490836E+02  0.7818608E-02  0.1870878E+00
         -2   -1    0    0    0  501 -0.00000000000E+00  0.00000000000E+00  0.11881358580E+03  0.11881358582E+03  0.25500000000E-02 0.  1.
          2   -1    0    0  501    0  0.00000000000E+00 -0.00000000000E+00 -0.46766005805E+00  0.46766701016E+00  0.25500000000E-02 0. -1.
         31    1    1    2    0    0  0.23560756614E+00  0.44363904862E-01  0.57413122375E+02  0.57894585464E+02  0.74470750000E+01 0.  1.
        -31    1    1    2    0    0 -0.23560756614E+00 -0.44363904862E-01  0.60932803362E+02  0.61386667369E+02  0.74470750000E+01 0.  1.
<mgrwt>
<rscale>  0 0.14908358E+02</rscale>
<asrwt>0</asrwt>
<pdfrwt beam="2">  1        2 0.99324091E+00 0.14908358E+02</pdfrwt>
<pdfrwt beam="1">  1       -2 0.98630086E+00 0.14908358E+02</pdfrwt>
<totfact> 0.37305678E-13</totfact>
</mgrwt>
</event>
<event>
 4    1 -0.5011189E-019  0.1495260E+02  0.7818608E-02  0.1869518E+00
          2   -1    0    0  501    0  0.00000000000E+00  0.00000000000E+00  0.11950866118E+03  0.11950866120E+03  0.25500000000E-02 0.  1.
         -2   -1    0    0    0  501 -0.00000000000E+00 -0.00000000000E+00 -0.46770380204E+00  0.46771075351E+00  0.25500000000E-02 0. -1.
         31    1    1    2    0    0 -0.13315871227E+00  0.28937337723E+00  0.54878602192E+02  0.55382500600E+02  0.74470750000E+01 0. -1.
        -31    1    1    2    0    0  0.13315871227E+00 -0.28937337723E+00  0.64162355184E+02  0.64593871358E+02  0.74470750000E+01 0.  1.
<mgrwt>
<rscale>  0 0.14952602E+02</rscale>
<asrwt>0</asrwt>
<pdfrwt beam="1">  1        2 0.99204859E+00 0.14952602E+02</pdfrwt>
<pdfrwt beam="2">  1       -2 0.99335611E+00 0.14952602E+02</pdfrwt>
<totfact>-0.13842805E-13</totfact>
</mgrwt>
</event>
<event>
 4    1 -0.5011189E-019  0.1500373E+02  0.7818608E-02  0.1867955E+00
          2   -1    0    0  501    0  0.00000000000E+00  0.00000000000E+00  0.12023148049E+03  0.12023148051E+03  0.25500000000E-02 0.  1.
         -2   -1    0    0    0  501 -0.00000000000E+00 -0.00000000000E+00 -0.46807699376E+00  0.46808393968E+00  0.25500000000E-02 0. -1.
         31    1    1    2    0    0  0.48344258615E-01  0.80408130865E+00  0.63200547874E+02  0.63642886967E+02  0.74470750000E+01 0.  1.
        -31    1    1    2    0    0 -0.48344258615E-01 -0.80408130865E+00  0.56562855620E+02  0.57056677487E+02  0.74470750000E+01 0.  1.
<mgrwt>
<rscale>  0 0.15003734E+02</rscale>
<asrwt>0</asrwt>
<pdfrwt beam="1">  1        2 0.99802845E+00 0.15003734E+02</pdfrwt>
<pdfrwt beam="2">  1       -2 0.99416894E+00 0.15003734E+02</pdfrwt>
<totfact>-0.64007103E-14</totfact>
</mgrwt>
</event>
<event>
 4    1 -0.5011189E-019  0.1498032E+02  0.7818608E-02  0.1868670E+00
          2   -1    0    0  501    0  0.00000000000E+00  0.00000000000E+00  0.11946400797E+03  0.11946400799E+03  0.25500000000E-02 0. -1.
         -2   -1    0    0    0  501 -0.00000000000E+00 -0.00000000000E+00 -0.46961504719E+00  0.46962197036E+00  0.25500000000E-02 0.  1.
         31    1    1    2    0    0  0.61629873814E+00  0.50569918765E+00  0.60214653298E+02  0.60678653196E+02  0.74470750000E+01 0.  1.
        -31    1    1    2    0    0 -0.61629873814E+00 -0.50569918765E+00  0.58779739620E+02  0.59254976767E+02  0.74470750000E+01 0. -1.
<mgrwt>
<rscale>  0 0.14980322E+02</rscale>
<asrwt>0</asrwt>
<pdfrwt beam="1">  1        2 0.99169517E+00 0.14980322E+02</pdfrwt>
<pdfrwt beam="2">  1       -2 0.99739799E+00 0.14980322E+02</pdfrwt>
<totfact>-0.11252583E-13</totfact>
</mgrwt>
</event>
<event>
 4    1 -0.5011189E-019  0.1490093E+02  0.7818608E-02  0.1871107E+00
          2   -1    0    0  501    0  0.00000000000E+00  0.00000000000E+00  0.11865520142E+03  0.11865520145E+03  0.25500000000E-02 0. -1.
         -2   -1    0    0    0  501 -0.00000000000E+00 -0.00000000000E+00 -0.46781771140E+00  0.46782466117E+00  0.25500000000E-02 0.  1.
         31    1    1    2    0    0  0.15018707137E+00  0.11029938706E+00  0.60097679144E+02  0.60557614605E+02  0.74470750000E+01 0. -1.
        -31    1    1    2    0    0 -0.15018707137E+00 -0.11029938706E+00  0.58089704565E+02  0.58565411504E+02  0.74470750000E+01 0.  1.
<mgrwt>
<rscale>  0 0.14900929E+02</rscale>
<asrwt>0</asrwt>
<pdfrwt beam="1">  1        2 0.98499253E+00 0.14900929E+02</pdfrwt>
<pdfrwt beam="2">  1       -2 0.99356923E+00 0.14900929E+02</pdfrwt>
<totfact>-0.32758381E-13</totfact>
</mgrwt>
</event>
<event>
 4    1 -0.5011189E-019  0.1495671E+02  0.7818608E-02  0.1869392E+00
         -2   -1    0    0    0  501 -0.00000000000E+00  0.00000000000E+00  0.12016935214E+03  0.12016935217E+03  0.25500000000E-02 0. -1.
          2   -1    0    0  501    0  0.00000000000E+00 -0.00000000000E+00 -0.46538810728E+00  0.46539509333E+00  0.25500000000E-02 0.  1.
         31    1    1    2    0    0 -0.20113169800E+00 -0.65087543074E+00  0.59425838075E+02  0.59894517694E+02  0.74470750000E+01 0. -1.
        -31    1    1    2    0    0  0.20113169800E+00  0.65087543074E+00  0.60278125958E+02  0.60740229567E+02  0.74470750000E+01 0.  1.
<mgrwt>
<rscale>  0 0.14956712E+02</rscale>
<asrwt>0</asrwt>
<pdfrwt beam="2">  1        2 0.98847804E+00 0.14956712E+02</pdfrwt>
<pdfrwt beam="1">  1       -2 0.99749249E+00 0.14956712E+02</pdfrwt>
<totfact>-0.14882572E-13</totfact>
</mgrwt>
</event>
<event>
 4    1 -0.5011189E-019  0.1492115E+02  0.7818608E-02  0.1870484E+00
         -2   -1    0    0    0  501 -0.00000000000E+00  0.00000000000E+00  0.11968121966E+03  0.11968121969E+03  0.25500000000E-02 0.  1.
          2   -1    0    0  501    0  0.00000000000E+00 -0.00000000000E+00 -0.46506693987E+00  0.46507393075E+00  0.25500000000E-02 0. -1.
         31    1    1    2    0    0  0.71913524447E-01  0.22650153022E+00  0.62672097273E+02  0.63113446880E+02  0.74470750000E+01 0. -1.
        -31    1    1    2    0    0 -0.71913524447E-01 -0.22650153022E+00  0.56544055447E+02  0.57032846737E+02  0.74470750000E+01 0.  1.
<mgrwt>
<rscale>  0 0.14921153E+02</rscale>
<asrwt>0</asrwt>
<pdfrwt beam="2">  1        2 0.98778299E+00 0.14921153E+02</pdfrwt>
<pdfrwt beam="1">  1       -2 0.99345362E+00 0.14921153E+02</pdfrwt>
<totfact>-0.21343018E-13</totfact>
</mgrwt>
</event>
<event>
 4    1  0.5011189E-019  0.1490800E+02  0.7818608E-02  0.1870889E+00
         -2   -1    0    0    0  501 -0.00000000000E+00  0.00000000000E+00  0.11869912309E+03  0.11869912312E+03  0.25500000000E-02 0.  1.
          2   -1    0    0  501    0  0.00000000000E+00 -0.00000000000E+00 -0.46808871061E+00  0.46809565636E+00  0.25500000000E-02 0. -1.
         31    1    1    2    0    0 -0.43374655333E-01  0.27295907599E+00  0.57806413808E+02  0.58284790395E+02  0.74470750000E+01 0. -1.
        -31    1    1    2    0    0  0.43374655333E-01 -0.27295907599E+00  0.60424620576E+02  0.60882428383E+02  0.74470750000E+01 0.  1.
<mgrwt>
<rscale>  0 0.14908003E+02</rscale>
<asrwt>0</asrwt>
<pdfrwt beam="2">  1        2 0.99414396E+00 0.14908003E+02</pdfrwt>
<pdfrwt beam="1">  1       -2 0.98535794E+00 0.14908003E+02</pdfrwt>
<totfact> 0.47275780E-13</totfact>
</mgrwt>
</event>
<event>
 4    1 -0.5011189E-019  0.1494986E+02  0.7818608E-02  0.1869602E+00
         -2   -1    0    0    0  501 -0.00000000000E+00  0.00000000000E+00  0.12033973996E+03  0.12033973999E+03  0.25500000000E-02 0. -1.
          2   -1    0    0  501    0  0.00000000000E+00 -0.00000000000E+00 -0.46430325511E+00  0.46431025749E+00  0.25500000000E-02 0.  1.
         31    1    1    2    0    0  0.61181136022E+00 -0.20312121104E+00  0.60000388797E+02  0.60464213823E+02  0.74470750000E+01 0. -1.
        -31    1    1    2    0    0 -0.61181136022E+00  0.20312121104E+00  0.59875047908E+02  0.60339836422E+02  0.74470750000E+01 0.  1.
<mgrwt>
<rscale>  0 0.14949857E+02</rscale>
<asrwt>0</asrwt>
<pdfrwt beam="2">  1        2 0.98618810E+00 0.14949857E+02</pdfrwt>
<pdfrwt beam="1">  1       -2 0.99889241E+00 0.14949857E+02</pdfrwt>
<totfact>-0.10275515E-13</totfact>
</mgrwt>
</event>
<event>
 4    1 -0.5011189E-019  0.1493497E+02  0.7818608E-02  0.1870059E+00
         -2   -1    0    0    0  501 -0.00000000000E+00  0.00000000000E+00  0.12009004771E+03  0.12009004774E+03  0.25500000000E-02 0.  1.
          2   -1    0    0  501    0  0.00000000000E+00 -0.00000000000E+00 -0.46434271642E+00  0.46434971820E+00  0.25500000000E-02 0. -1.
         31    1    1    2    0    0  0.34576307816E+00 -0.26149242533E+00  0.57057652709E+02  0.57543223659E+02  0.74470750000E+01 0. -1.
        -31    1    1    2    0    0 -0.34576307816E+00  0.26149242533E+00  0.62568052283E+02  0.63011173794E+02  0.74470750000E+01 0.  1.
<mgrwt>
<rscale>  0 0.14934974E+02</rscale>
<asrwt>0</asrwt>
<pdfrwt beam="2">  1        2 0.98626371E+00 0.14934974E+02</pdfrwt>
<pdfrwt beam="1">  1       -2 0.99682811E+00 0.14934974E+02</pdfrwt>
<totfact>-0.23619670E-13</totfact>
</mgrwt>
</event>
<event>
 4    1 -0.5011189E-019  0.1495230E+02  0.7818608E-02  0.1869528E+00
         -2   -1    0    0    0  501 -0.00000000000E+00  0.00000000000E+00  0.11957436565E+03  0.11957436567E+03  0.25500000000E-02 0.  1.
          2   -1    0    0  501    0  0.00000000000E+00 -0.00000000000E+00 -0.46742770549E+00  0.46743466106E+00  0.25500000000E-02 0. -1.
         31    1    1    2    0    0 -0.28740062244E+00 -0.48519885047E+00  0.56820921459E+02  0.57309633209E+02  0.74470750000E+01 0.  1.
        -31    1    1    2    0    0  0.28740062244E+00  0.48519885047E+00  0.62286016481E+02  0.62732167125E+02  0.74470750000E+01 0.  1.
<mgrwt>
<rscale>  0 0.14952296E+02</rscale>
<asrwt>0</asrwt>
<pdfrwt beam="2">  1        2 0.99277413E+00 0.14952296E+02</pdfrwt>
<pdfrwt beam="1">  1       -2 0.99258959E+00 0.14952296E+02</pdfrwt>
<totfact>-0.11375965E-13</totfact>
</mgrwt>
</event>
<event>
 4    1 -0.5011189E-019  0.1494608E+02  0.7818608E-02  0.1869718E+00
          2   -1    0    0  501    0  0.00000000000E+00  0.00000000000E+00  0.11911107212E+03  0.11911107215E+03  0.25500000000E-02 0. -1.
         -2   -1    0    0    0  501 -0.00000000000E+00 -0.00000000000E+00 -0.46885599825E+00  0.46886293263E+00  0.25500000000E-02 0.  1.
         31    1    1    2    0    0 -0.15174581936E+00  0.33332900337E+00  0.55294448833E+02  0.55794884469E+02  0.74470750000E+01 0.  1.
        -31    1    1    2    0    0  0.15174581936E+00 -0.33332900337E+00  0.63347767291E+02  0.63785050614E+02  0.74470750000E+01 0.  1.
<mgrwt>
<rscale>  0 0.14946084E+02</rscale>
<asrwt>0</asrwt>
<pdfrwt beam="1">  1        2 0.98877057E+00 0.14946084E+02</pdfrwt>
<pdfrwt beam="2">  1       -2 0.99578067E+00 0.14946084E+02</pdfrwt>
<totfact>-0.19483914E-13</totfact>
</mgrwt>
</event>
<event>
 4    1  0.5011189E-019  0.1490826E+02  0.7818608E-02  0.1870881E+00
         -2   -1    0    0    0  501 -0.00000000000E+00  0.00000000000E+00  0.11904700281E+03  0.11904700283E+03  0.25500000000E-02 0.  1.
          2   -1    0    0  501    0  0.00000000000E+00 -0.00000000000E+00 -0.46673693755E+00  0.46674390342E+00  0.25500000000E-02 0. -1.
         31    1    1    2    0    0 -0.20647408472E+00  0.13620100905E-01  0.57289055722E+02  0.57771425883E+02  0.74470750000E+01 0. -1.
        -31    1    1    2    0    0  0.20647408472E+00 -0.13620100905E-01  0.61291210148E+02  0.61742320855E+02  0.74470750000E+01 0.  1.
<mgrwt>
<rscale>  0 0.14908260E+02</rscale>
<asrwt>0</asrwt>
<pdfrwt beam="2">  1        2 0.99129565E+00 0.14908260E+02</pdfrwt>
<pdfrwt beam="1">  1       -2 0.98822328E+00 0.14908260E+02</pdfrwt>
<totfact> 0.17715662E-13</totfact>
</mgrwt>
</event>
<event>
 4    1 -0.5011189E-019  0.1492780E+02  0.7818608E-02  0.1870280E+00
         -2   -1    0    0    0  501 -0.00000000000E+00  0.00000000000E+00  0.11947248313E+03  0.11947248316E+03  0.25500000000E-02 0. -1.
          2   -1    0    0  501    0  0.00000000000E+00 -0.00000000000E+00 -0.46629469758E+00  0.46630167005E+00  0.25500000000E-02 0.  1.
         31    1    1    2    0    0  0.12069430854E+00 -0.23122335560E+00  0.62938741996E+02  0.63378325960E+02  0.74470750000E+01 0. -1.
        -31    1    1    2    0    0 -0.12069430854E+00  0.23122335560E+00  0.56067446438E+02  0.56560458869E+02  0.74470750000E+01 0.  1.
<mgrwt>
<rscale>  0 0.14927800E+02</rscale>
<asrwt>0</asrwt>
<pdfrwt beam="2">  1        2 0.99037382E+00 0.14927800E+02</pdfrwt>
<pdfrwt beam="1">  1       -2 0.99173779E+00 0.14927800E+02</pdfrwt>
<totfact>-0.10169625E-13</totfact>
</mgrwt>
</event>
<event>
 4    1  0.5011189E-019  0.1494876E+02  0.7818608E-02  0.1869636E+00
          2   -1    0    0  501    0  0.00000000000E+00  0.00000000000E+00  0.12039435293E+03  0.12039435295E+03  0.25500000000E-02 0.  1.
         -2   -1    0    0    0  501 -0.00000000000E+00 -0.00000000000E+00 -0.46402447425E+00  0.46403148083E+00  0.25500000000E-02 0. -1.
         31    1    1    2    0    0  0.38217886074E+00  0.13962185582E+00  0.55989012445E+02  0.56483572794E+02  0.74470750000E+01 0. -1.
        -31    1    1    2    0    0 -0.38217886074E+00 -0.13962185582E+00  0.63941316007E+02  0.64374811640E+02  0.74470750000E+01 0.  1.
<mgrwt>
<rscale>  0 0.14948759E+02</rscale>
<asrwt>0</asrwt>
<pdfrwt beam="1">  1        2 0.99934168E+00 0.14948759E+02</pdfrwt>
<pdfrwt beam="2">  1       -2 0.98559997E+00 0.14948759E+02</pdfrwt>
<totfact> 0.85121067E-14</totfact>
</mgrwt>
</event>
<event>
 4    1 -0.5011189E-019  0.1499185E+02  0.7818608E-02  0.1868317E+00
          2   -1    0    0  501    0  0.00000000000E+00  0.00000000000E+00  0.11999119429E+03  0.11999119431E+03  0.25500000000E-02 0. -1.
         -2   -1    0    0    0  501 -0.00000000000E+00 -0.00000000000E+00 -0.46827140679E+00  0.46827834982E+00  0.25500000000E-02 0.  1.
         31    1    1    2    0    0 -0.57495476791E+00 -0.47328517393E+00  0.63126267939E+02  0.63568382092E+02  0.74470750000E+01 0.  1.
        -31    1    1    2    0    0  0.57495476791E+00  0.47328517393E+00  0.56396654942E+02  0.56891090572E+02  0.74470750000E+01 0.  1.
<mgrwt>
<rscale>  0 0.14991846E+02</rscale>
<asrwt>0</asrwt>
<pdfrwt beam="1">  1        2 0.99604320E+00 0.14991846E+02</pdfrwt>
<pdfrwt beam="2">  1       -2 0.99457253E+00 0.14991846E+02</pdfrwt>
<totfact>-0.10500188E-13</totfact>
</mgrwt>
</event>
<event>
 4    1 -0.5011189E-019  0.1490205E+02  0.7818608E-02  0.1871072E+00
         -2   -1    0    0    0  501 -0.00000000000E+00  0.00000000000E+00  0.11953968110E+03  0.11953968113E+03  0.25500000000E-02 0.  1.
          2   -1    0    0  501    0  0.00000000000E+00 -0.00000000000E+00 -0.46442637388E+00  0.46443337440E+00  0.25500000000E-02 0. -1.
         31    1    1    2    0    0 -0.95724309811E-01  0.33203448866E-01  0.61313106889E+02  0.61763794152E+02  0.74470750000E+01 0.  1.
        -31    1    1    2    0    0  0.95724309811E-01 -0.33203448866E-01  0.57762147838E+02  0.58240320351E+02  0.74470750000E+01 0. -1.
<mgrwt>
<rscale>  0 0.14902054E+02</rscale>
<asrwt>0</asrwt>
<pdfrwt beam="2">  1        2 0.98642322E+00 0.14902054E+02</pdfrwt>
<pdfrwt beam="1">  1       -2 0.99227798E+00 0.14902054E+02</pdfrwt>
<totfact>-0.20251952E-13</totfact>
</mgrwt>
</event>
<event>
 4    1 -0.5011189E-019  0.1498133E+02  0.7818608E-02  0.1868639E+00
         -2   -1    0    0    0  501 -0.00000000000E+00  0.00000000000E+00  0.11965302145E+03  0.11965302148E+03  0.25500000000E-02 0. -1.
          2   -1    0    0  501    0  0.00000000000E+00 -0.00000000000E+00 -0.46893614545E+00  0.46894307865E+00  0.25500000000E-02 0.  1.
         31    1    1    2    0    0  0.36707658834E+00  0.42333980381E+00  0.54936309109E+02  0.55441599421E+02  0.74470750000E+01 0.  1.
        -31    1    1    2    0    0 -0.36707658834E+00 -0.42333980381E+00  0.64247776194E+02  0.64680365133E+02  0.74470750000E+01 0.  1.
<mgrwt>
<rscale>  0 0.14981328E+02</rscale>
<asrwt>0</asrwt>
<pdfrwt beam="2">  1        2 0.99596791E+00 0.14981328E+02</pdfrwt>
<pdfrwt beam="1">  1       -2 0.99325245E+00 0.14981328E+02</pdfrwt>
<totfact>-0.95892976E-14</totfact>
</mgrwt>
</event>
<event>
 4    1  0.5011189E-019  0.1491613E+02  0.7818608E-02  0.1870639E+00
         -2   -1    0    0    0  501 -0.00000000000E+00  0.00000000000E+00  0.11851526198E+03  0.11851526200E+03  0.25500000000E-02 0. -1.
          2   -1    0    0  501    0  0.00000000000E+00 -0.00000000000E+00 -0.46932643784E+00  0.46933336527E+00  0.25500000000E-02 0.  1.
         31    1    1    2    0    0  0.37980950973E+00 -0.13918822355E+00  0.58908807897E+02  0.59379038411E+02  0.74470750000E+01 0.  1.
        -31    1    1    2    0    0 -0.37980950973E+00  0.13918822355E+00  0.59137127641E+02  0.59605556958E+02  0.74470750000E+01 0.  1.
<mgrwt>
<rscale>  0 0.14916133E+02</rscale>
<asrwt>0</asrwt>
<pdfrwt beam="2">  1        2 0.99675621E+00 0.14916133E+02</pdfrwt>
<pdfrwt beam="1">  1       -2 0.98384788E+00 0.14916133E+02</pdfrwt>
<totfact> 0.50923000E-13</totfact>
</mgrwt>
</event>
<event>
 4    1 -0.5011189E-019  0.1492272E+02  0.7818608E-02  0.1870436E+00
          2   -1    0    0  501    0  0.00000000000E+00  0.00000000000E+00  0.11900915717E+03  0.11900915720E+03  0.25500000000E-02 0.  1.
         -2   -1    0    0    0  501 -0.00000000000E+00 -0.00000000000E+00 -0.46779171859E+00  0.46779866875E+00  0.25500000000E-02 0. -1.
         31    1    1    2    0    0  0.54004306158E-01  0.14471197672E-01  0.62938469343E+02  0.63377543146E+02  0.74470750000E+01 0.  1.
        -31    1    1    2    0    0 -0.54004306158E-01 -0.14471197672E-01  0.55602896108E+02  0.56099412720E+02  0.74470750000E+01 0. -1.
<mgrwt>
<rscale>  0 0.14922723E+02</rscale>
<asrwt>0</asrwt>
<pdfrwt beam="1">  1        2 0.98791906E+00 0.14922723E+02</pdfrwt>
<pdfrwt beam="2">  1       -2 0.99352584E+00 0.14922723E+02</pdfrwt>
<totfact>-0.21149906E-13</totfact>
</mgrwt>
</event>
<event>
 4    1 -0.5011189E-019  0.1497707E+02  0.7818608E-02  0.1868769E+00
          2   -1    0    0  501    0  0.00000000000E+00  0.00000000000E+00  0.11932271443E+03  0.11932271446E+03  0.25500000000E-02 0. -1.
         -2   -1    0    0    0  501 -0.00000000000E+00 -0.00000000000E+00 -0.46996719200E+00  0.46997410998E+00  0.25500000000E-02 0.  1.
         31    1    1    2    0    0  0.68367924968E+00 -0.10838538738E+00  0.62420024573E+02  0.62866505855E+02  0.74470750000E+01 0. -1.
        -31    1    1    2    0    0 -0.68367924968E+00  0.10838538738E+00  0.56432722666E+02  0.56926182713E+02  0.74470750000E+01 0.  1.
<mgrwt>
<rscale>  0 0.14977073E+02</rscale>
<asrwt>0</asrwt>
<pdfrwt beam="1">  1        2 0.99052976E+00 0.14977073E+02</pdfrwt>
<pdfrwt beam="2">  1       -2 0.99813833E+00 0.14977073E+02</pdfrwt>
<totfact>-0.95401261E-14</totfact>
</mgrwt>
</event>
<event>
 4    1 -0.5011189E-019  0.1493888E+02  0.7818608E-02  0.1869939E+00
         -2   -1    0    0    0  501 -0.00000000000E+00  0.00000000000E+00  0.12006373644E+03  0.12006373647E+03  0.25500000000E-02 0.  1.
          2   -1    0    0  501    0  0.00000000000E+00 -0.00000000000E+00 -0.46468764499E+00  0.46469464157E+00  0.25500000000E-02 0. -1.
         31    1    1    2    0    0 -0.18780244650E+00  0.51471763137E+00  0.61274645198E+02  0.61727961851E+02  0.74470750000E+01 0. -1.
        -31    1    1    2    0    0  0.18780244650E+00 -0.51471763137E+00  0.58324403598E+02  0.58800469260E+02  0.74470750000E+01 0. -1.
<mgrwt>
<rscale>  0 0.14938883E+02</rscale>
<asrwt>0</asrwt>
<pdfrwt beam="2">  1        2 0.98699267E+00 0.14938883E+02</pdfrwt>
<pdfrwt beam="1">  1       -2 0.99661340E+00 0.14938883E+02</pdfrwt>
<totfact>-0.22065861E-13</totfact>
</mgrwt>
</event>
<event>
 4    1 -0.5011189E-019  0.1495814E+02  0.7818608E-02  0.1869349E+00
         -2   -1    0    0    0  501 -0.00000000000E+00  0.00000000000E+00  0.11994882399E+03  0.11994882402E+03  0.25500000000E-02 0. -1.
          2   -1    0    0  501    0  0.00000000000E+00 -0.00000000000E+00 -0.46633282846E+00  0.46633980036E+00  0.25500000000E-02 0.  1.
         31    1    1    2    0    0  0.62702931532E+00 -0.69692279044E-01  0.62011712886E+02  0.62460463366E+02  0.74470750000E+01 0.  1.
        -31    1    1    2    0    0 -0.62702931532E+00  0.69692279044E-01  0.57470778278E+02  0.57954700454E+02  0.74470750000E+01 0.  1.
<mgrwt>
<rscale>  0 0.14958141E+02</rscale>
<asrwt>0</asrwt>
<pdfrwt beam="2">  1        2 0.99046979E+00 0.14958141E+02</pdfrwt>
<pdfrwt beam="1">  1       -2 0.99567682E+00 0.14958141E+02</pdfrwt>
<totfact>-0.16537028E-13</totfact>
</mgrwt>
</event>
<event>
 4    1 -0.5011189E-019  0.1499426E+02  0.7818608E-02  0.1868244E+00
         -2   -1    0    0    0  501 -0.00000000000E+00  0.00000000000E+00  0.11979576873E+03  0.11979576876E+03  0.25500000000E-02 0.  1.
          2   -1    0    0  501    0  0.00000000000E+00 -0.00000000000E+00 -0.46918642398E+00  0.46919335348E+00  0.25500000000E-02 0. -1.
         31    1    1    2    0    0 -0.81780974630E+00  0.25276890789E+00  0.58670024414E+02  0.59146964382E+02  0.74470750000E+01 0. -1.
        -31    1    1    2    0    0  0.81780974630E+00 -0.25276890789E+00  0.60656557897E+02  0.61117997732E+02  0.74470750000E+01 0. -1.
<mgrwt>
<rscale>  0 0.14994261E+02</rscale>
<asrwt>0</asrwt>
<pdfrwt beam="2">  1        2 0.99650203E+00 0.14994261E+02</pdfrwt>
<pdfrwt beam="1">  1       -2 0.99443485E+00 0.14994261E+02</pdfrwt>
<totfact>-0.97152815E-14</totfact>
</mgrwt>
</event>
<event>
 4    1 -0.5011189E-019  0.1501789E+02  0.7818608E-02  0.1867523E+00
          2   -1    0    0  501    0  0.00000000000E+00  0.00000000000E+00  0.12025853798E+03  0.12025853801E+03  0.25500000000E-02 0. -1.
         -2   -1    0    0    0  501 -0.00000000000E+00 -0.00000000000E+00 -0.46885525605E+00  0.46886219045E+00  0.25500000000E-02 0.  1.
         31    1    1    2    0    0  0.26747624298E+00 -0.78521435182E+00  0.55979336378E+02  0.56478607742E+02  0.74470750000E+01 0.  1.
        -31    1    1    2    0    0 -0.26747624298E+00  0.78521435182E+00  0.63810346347E+02  0.64248792456E+02  0.74470750000E+01 0. -1.
<mgrwt>
<rscale>  0 0.15017892E+02</rscale>
<asrwt>0</asrwt>
<pdfrwt beam="1">  1        2 0.99825861E+00 0.15017892E+02</pdfrwt>
<pdfrwt beam="2">  1       -2 0.99581635E+00 0.15017892E+02</pdfrwt>
<totfact>-0.56086260E-14</totfact>
</mgrwt>
</event>
<event>
 4    1  0.5011189E-019  0.1489707E+02  0.7818608E-02  0.1871226E+00
          2   -1    0    0  501    0  0.00000000000E+00  0.00000000000E+00  0.11996854419E+03  0.11996854421E+03  0.25500000000E-02 0.  1.
         -2   -1    0    0    0  501 -0.00000000000E+00 -0.00000000000E+00 -0.46245670308E+00  0.46246373341E+00  0.25500000000E-02 0. -1.
         31    1    1    2    0    0  0.12109785646E+00 -0.84204524047E-01  0.59744055995E+02  0.60206585254E+02  0.74470750000E+01 0.  1.
        -31    1    1    2    0    0 -0.12109785646E+00  0.84204524047E-01  0.59762031488E+02  0.60224422693E+02  0.74470750000E+01 0. -1.
<mgrwt>
<rscale>  0 0.14897071E+02</rscale>
<asrwt>0</asrwt>
<pdfrwt beam="1">  1        2 0.99580783E+00 0.14897071E+02</pdfrwt>
<pdfrwt beam="2">  1       -2 0.98226943E+00 0.14897071E+02</pdfrwt>
<totfact> 0.84499439E-13</totfact>
</mgrwt>
</event>
<event>
 4    1 -0.5011189E-019  0.1498468E+02  0.7818608E-02  0.1868536E+00
          2   -1    0    0  501    0  0.00000000000E+00  0.00000000000E+00  0.11945644027E+03  0.11945644030E+03  0.25500000000E-02 0. -1.
         -2   -1    0    0    0  501 -0.00000000000E+00 -0.00000000000E+00 -0.46991803660E+00  0.46992495531E+00  0.25500000000E-02 0.  1.
         31    1    1    2    0    0 -0.54618348188E+00 -0.44524709169E+00  0.56100924811E+02  0.56597431497E+02  0.74470750000E+01 0.  1.
        -31    1    1    2    0    0  0.54618348188E+00  0.44524709169E+00  0.62885597427E+02  0.63328933760E+02  0.74470750000E+01 0. -1.
<mgrwt>
<rscale>  0 0.14984679E+02</rscale>
<asrwt>0</asrwt>
<pdfrwt beam="1">  1        2 0.99163510E+00 0.14984679E+02</pdfrwt>
<pdfrwt beam="2">  1       -2 0.99803872E+00 0.14984679E+02</pdfrwt>
<totfact>-0.91010025E-14</totfact>
</mgrwt>
</event>
<event>
 4    1 -0.5011189E-019  0.1501780E+02  0.7818608E-02  0.1867526E+00
          2   -1    0    0  501    0  0.00000000000E+00  0.00000000000E+00  0.12035097713E+03  0.12035097716E+03  0.25500000000E-02 0. -1.
         -2   -1    0    0    0  501 -0.00000000000E+00 -0.00000000000E+00 -0.46848965357E+00  0.46849659337E+00  0.25500000000E-02 0.  1.
         31    1    1    2    0    0  0.91028359702E+00  0.30920795505E+00  0.60113153512E+02  0.60580313444E+02  0.74470750000E+01 0.  1.
        -31    1    1    2    0    0 -0.91028359702E+00 -0.30920795505E+00  0.59769333965E+02  0.60239160307E+02  0.74470750000E+01 0. -1.
<mgrwt>
<rscale>  0 0.15017804E+02</rscale>
<asrwt>0</asrwt>
<pdfrwt beam="1">  1        2 0.99901994E+00 0.15017804E+02</pdfrwt>
<pdfrwt beam="2">  1       -2 0.99504583E+00 0.15017804E+02</pdfrwt>
<totfact>-0.35890834E-14</totfact>
</mgrwt>
</event>
<event>
 4    1  0.5011189E-019  0.1492004E+02  0.7818608E-02  0.1870518E+00
          2   -1    0    0  501    0  0.00000000000E+00  0.00000000000E+00  0.12021380838E+03  0.12021380841E+03  0.25500000000E-02 0.  1.
         -2   -1    0    0    0  501 -0.00000000000E+00 -0.00000000000E+00 -0.46293753366E+00  0.46294455670E+00  0.25500000000E-02 0. -1.
         31    1    1    2    0    0 -0.14201825023E+00  0.38468392360E+00  0.61150003090E+02  0.61603165137E+02  0.74470750000E+01 0.  1.
        -31    1    1    2    0    0  0.14201825023E+00 -0.38468392360E+00  0.58600867760E+02  0.59073587831E+02  0.74470750000E+01 0.  1.
<mgrwt>
<rscale>  0 0.14920041E+02</rscale>
<asrwt>0</asrwt>
<pdfrwt beam="1">  1        2 0.99783983E+00 0.14920041E+02</pdfrwt>
<pdfrwt beam="2">  1       -2 0.98329450E+00 0.14920041E+02</pdfrwt>
<totfact> 0.43459102E-13</totfact>
</mgrwt>
</event>
<event>
 4    1 -0.5011189E-019  0.1493911E+02  0.7818608E-02  0.1869932E+00
          2   -1    0    0  501    0  0.00000000000E+00  0.00000000000E+00  0.11918372802E+03  0.11918372805E+03  0.25500000000E-02 0. -1.
         -2   -1    0    0    0  501 -0.00000000000E+00 -0.00000000000E+00 -0.46813275433E+00  0.46813969943E+00  0.25500000000E-02 0.  1.
         31    1    1    2    0    0  0.36488079946E+00 -0.41192090945E+00  0.57914319219E+02  0.58393750638E+02  0.74470750000E+01 0.  1.
        -31    1    1    2    0    0 -0.36488079946E+00  0.41192090945E+00  0.60801276046E+02  0.61258117109E+02  0.74470750000E+01 0. -1.
<mgrwt>
<rscale>  0 0.14939106E+02</rscale>
<asrwt>0</asrwt>
<pdfrwt beam="1">  1        2 0.98936536E+00 0.14939106E+02</pdfrwt>
<pdfrwt beam="2">  1       -2 0.99425302E+00 0.14939106E+02</pdfrwt>
<totfact>-0.18883738E-13</totfact>
</mgrwt>
</event>
<event>
 4    1  0.5011189E-019  0.1497680E+02  0.7818608E-02  0.1868777E+00
         -2   -1    0    0    0  501 -0.00000000000E+00  0.00000000000E+00  0.11914180368E+03  0.11914180371E+03  0.25500000000E-02 0. -1.
          2   -1    0    0  501    0  0.00000000000E+00 -0.00000000000E+00 -0.47066386677E+00  0.47067077451E+00  0.25500000000E-02 0.  1.
         31    1    1    2    0    0  0.28225628842E+00 -0.61829325440E+00  0.62482658022E+02  0.62928558181E+02  0.74470750000E+01 0.  1.
        -31    1    1    2    0    0 -0.28225628842E+00  0.61829325440E+00  0.56188481789E+02  0.56683916299E+02  0.74470750000E+01 0.  1.
<mgrwt>
<rscale>  0 0.14976803E+02</rscale>
<asrwt>0</asrwt>
<pdfrwt beam="2">  1        2 0.99960616E+00 0.14976803E+02</pdfrwt>
<pdfrwt beam="1">  1       -2 0.98903963E+00 0.14976803E+02</pdfrwt>
<totfact> 0.90016936E-15</totfact>
</mgrwt>
</event>
<event>
 4    1 -0.5011189E-019  0.1499909E+02  0.7818608E-02  0.1868096E+00
         -2   -1    0    0    0  501 -0.00000000000E+00  0.00000000000E+00  0.11999917126E+03  0.11999917128E+03  0.25500000000E-02 0.  1.
          2   -1    0    0  501    0  0.00000000000E+00 -0.00000000000E+00 -0.46869315417E+00  0.46870009096E+00  0.25500000000E-02 0. -1.
         31    1    1    2    0    0  0.40758545551E+00  0.56452188928E+00  0.55369977245E+02  0.55872874609E+02  0.74470750000E+01 0. -1.
        -31    1    1    2    0    0 -0.40758545551E+00 -0.56452188928E+00  0.64160500857E+02  0.64594996765E+02  0.74470750000E+01 0.  1.
<mgrwt>
<rscale>  0 0.14999095E+02</rscale>
<asrwt>0</asrwt>
<pdfrwt beam="2">  1        2 0.99546505E+00 0.14999095E+02</pdfrwt>
<pdfrwt beam="1">  1       -2 0.99611265E+00 0.14999095E+02</pdfrwt>
<totfact>-0.10497822E-13</totfact>
</mgrwt>
</event>
<event>
 4    1 -0.5011189E-019  0.1495835E+02  0.7818608E-02  0.1869342E+00
          2   -1    0    0  501    0  0.00000000000E+00  0.00000000000E+00  0.11947749213E+03  0.11947749216E+03  0.25500000000E-02 0. -1.
         -2   -1    0    0    0  501 -0.00000000000E+00 -0.00000000000E+00 -0.46818571970E+00  0.46819266401E+00  0.25500000000E-02 0.  1.
         31    1    1    2    0    0  0.49543668348E+00 -0.41899720184E+00  0.57571319884E+02  0.58054602018E+02  0.74470750000E+01 0.  1.
        -31    1    1    2    0    0 -0.49543668348E+00  0.41899720184E+00  0.61437986526E+02  0.61891082804E+02  0.74470750000E+01 0.  1.
<mgrwt>
<rscale>  0 0.14958352E+02</rscale>
<asrwt>0</asrwt>
<pdfrwt beam="1">  1        2 0.99179484E+00 0.14958352E+02</pdfrwt>
<pdfrwt beam="2">  1       -2 0.99437463E+00 0.14958352E+02</pdfrwt>
<totfact>-0.15315127E-13</totfact>
</mgrwt>
</event>
<event>
 4    1 -0.5011189E-019  0.1496321E+02  0.7818608E-02  0.1869193E+00
          2   -1    0    0  501    0  0.00000000000E+00  0.00000000000E+00  0.11979686794E+03  0.11979686797E+03  0.25500000000E-02 0.  1.
         -2   -1    0    0    0  501 -0.00000000000E+00 -0.00000000000E+00 -0.46724066929E+00  0.46724762764E+00  0.25500000000E-02 0. -1.
         31    1    1    2    0    0 -0.13756180904E+00 -0.48226927750E+00  0.63794119258E+02  0.64229277474E+02  0.74470750000E+01 0.  1.
        -31    1    1    2    0    0  0.13756180904E+00  0.48226927750E+00  0.55535508013E+02  0.56034838121E+02  0.74470750000E+01 0. -1.
<mgrwt>
<rscale>  0 0.14963207E+02</rscale>
<asrwt>0</asrwt>
<pdfrwt beam="1">  1        2 0.99442785E+00 0.14963207E+02</pdfrwt>
<pdfrwt beam="2">  1       -2 0.99238560E+00 0.14963207E+02</pdfrwt>
<totfact>-0.94750755E-14</totfact>
</mgrwt>
</event>
<event>
 4    1 -0.5011189E-019  0.1493989E+02  0.7818608E-02  0.1869908E+00
         -2   -1    0    0    0  501 -0.00000000000E+00  0.00000000000E+00  0.12000154137E+03  0.12000154140E+03  0.25500000000E-02 0. -1.
          2   -1    0    0  501    0  0.00000000000E+00 -0.00000000000E+00 -0.46499119825E+00  0.46499819027E+00  0.25500000000E-02 0.  1.
         31    1    1    2    0    0  0.29899491643E+00  0.46865836140E+00  0.61213373631E+02  0.61667212325E+02  0.74470750000E+01 0.  1.
        -31    1    1    2    0    0 -0.29899491643E+00 -0.46865836140E+00  0.58323176539E+02  0.58799327261E+02  0.74470750000E+01 0. -1.
<mgrwt>
<rscale>  0 0.14939891E+02</rscale>
<asrwt>0</asrwt>
<pdfrwt beam="2">  1        2 0.98763295E+00 0.14939891E+02</pdfrwt>
<pdfrwt beam="1">  1       -2 0.99610164E+00 0.14939891E+02</pdfrwt>
<totfact>-0.21725831E-13</totfact>
</mgrwt>
</event>
<event>
 4    1  0.5011189E-019  0.1494899E+02  0.7818608E-02  0.1869629E+00
         -2   -1    0    0    0  501 -0.00000000000E+00  0.00000000000E+00  0.11906703342E+03  0.11906703344E+03  0.25500000000E-02 0. -1.
          2   -1    0    0  501    0  0.00000000000E+00 -0.00000000000E+00 -0.46921175003E+00  0.46921867916E+00  0.25500000000E-02 0.  1.
         31    1    1    2    0    0  0.42460037253E+00 -0.31098310705E+00  0.56392125443E+02  0.56884160660E+02  0.74470750000E+01 0.  1.
        -31    1    1    2    0    0 -0.42460037253E+00  0.31098310705E+00  0.62205696223E+02  0.62652091463E+02  0.74470750000E+01 0. -1.
<mgrwt>
<rscale>  0 0.14948989E+02</rscale>
<asrwt>0</asrwt>
<pdfrwt beam="2">  1        2 0.99653181E+00 0.14948989E+02</pdfrwt>
<pdfrwt beam="1">  1       -2 0.98840937E+00 0.14948989E+02</pdfrwt>
<totfact> 0.95103136E-14</totfact>
</mgrwt>
</event>
<event>
 4    1 -0.5011189E-019  0.1496943E+02  0.7818608E-02  0.1869003E+00
          2   -1    0    0  501    0  0.00000000000E+00  0.00000000000E+00  0.11988484315E+03  0.11988484317E+03  0.25500000000E-02 0.  1.
         -2   -1    0    0    0  501 -0.00000000000E+00 -0.00000000000E+00 -0.46728622389E+00  0.46729318156E+00  0.25500000000E-02 0. -1.
         31    1    1    2    0    0 -0.11771030565E+00 -0.70635454572E+00  0.61492784662E+02  0.61946220902E+02  0.74470750000E+01 0.  1.
        -31    1    1    2    0    0  0.11771030565E+00  0.70635454572E+00  0.57924772262E+02  0.58405915454E+02  0.74470750000E+01 0. -1.
<mgrwt>
<rscale>  0 0.14969430E+02</rscale>
<asrwt>0</asrwt>
<pdfrwt beam="1">  1        2 0.99515567E+00 0.14969430E+02</pdfrwt>
<pdfrwt beam="2">  1       -2 0.99248481E+00 0.14969430E+02</pdfrwt>
<totfact>-0.90735359E-14</totfact>
</mgrwt>
</event>
<event>
 4    1 -0.5011189E-019  0.1501762E+02  0.7818608E-02  0.1867531E+00
          2   -1    0    0  501    0  0.00000000000E+00  0.00000000000E+00  0.12005995411E+03  0.12005995413E+03  0.25500000000E-02 0.  1.
         -2   -1    0    0    0  501 -0.00000000000E+00 -0.00000000000E+00 -0.46961377495E+00  0.46962069814E+00  0.25500000000E-02 0. -1.
         31    1    1    2    0    0 -0.42361832526E+00  0.42608234847E+00  0.65813520850E+02  0.66236239714E+02  0.74470750000E+01 0.  1.
        -31    1    1    2    0    0  0.42361832526E+00 -0.42608234847E+00  0.53776819481E+02  0.54293335118E+02  0.74470750000E+01 0. -1.
<mgrwt>
<rscale>  0 0.15017620E+02</rscale>
<asrwt>0</asrwt>
<pdfrwt beam="1">  1        2 0.99662285E+00 0.15017620E+02</pdfrwt>
<pdfrwt beam="2">  1       -2 0.99741469E+00 0.15017620E+02</pdfrwt>
<totfact>-0.68862269E-14</totfact>
</mgrwt>
</event>
<event>
 4    1 -0.5011189E-019  0.1490224E+02  0.7818608E-02  0.1871066E+00
          2   -1    0    0  501    0  0.00000000000E+00  0.00000000000E+00  0.11794805429E+03  0.11794805432E+03  0.25500000000E-02 0. -1.
         -2   -1    0    0    0  501 -0.00000000000E+00 -0.00000000000E+00 -0.47070516219E+00  0.47071206933E+00  0.25500000000E-02 0.  1.
         31    1    1    2    0    0  0.93033927468E-01 -0.16225061010E+00  0.60001673205E+02  0.60462341123E+02  0.74470750000E+01 0. -1.
        -31    1    1    2    0    0 -0.93033927468E-01  0.16225061010E+00  0.57475675921E+02  0.57956425263E+02  0.74470750000E+01 0.  1.
<mgrwt>
<rscale>  0 0.14902237E+02</rscale>
<asrwt>0</asrwt>
<pdfrwt beam="1">  1        2 0.97916921E+00 0.14902237E+02</pdfrwt>
<pdfrwt beam="2">  1       -2 0.99965370E+00 0.14902237E+02</pdfrwt>
<totfact>-0.10851589E-13</totfact>
</mgrwt>
</event>
<event>
 4    1 -0.5011189E-019  0.1492236E+02  0.7818608E-02  0.1870447E+00
          2   -1    0    0  501    0  0.00000000000E+00  0.00000000000E+00  0.11827404073E+03  0.11827404076E+03  0.25500000000E-02 0.  1.
         -2   -1    0    0    0  501 -0.00000000000E+00 -0.00000000000E+00 -0.47067656369E+00  0.47068347125E+00  0.25500000000E-02 0. -1.
         31    1    1    2    0    0 -0.31451655076E+00  0.15044179258E+00  0.56531049562E+02  0.57020523007E+02  0.74470750000E+01 0.  1.
        -31    1    1    2    0    0  0.31451655076E+00 -0.15044179258E+00  0.61272314602E+02  0.61724201219E+02  0.74470750000E+01 0.  1.
<mgrwt>
<rscale>  0 0.14922363E+02</rscale>
<asrwt>0</asrwt>
<pdfrwt beam="1">  1        2 0.98186446E+00 0.14922363E+02</pdfrwt>
<pdfrwt beam="2">  1       -2 0.99960416E+00 0.14922363E+02</pdfrwt>
<totfact>-0.79160497E-14</totfact>
</mgrwt>
</event>
<event>
 4    1  0.5011189E-019  0.1489774E+02  0.7818608E-02  0.1871205E+00
         -2   -1    0    0    0  501 -0.00000000000E+00  0.00000000000E+00  0.11864576970E+03  0.11864576972E+03  0.25500000000E-02 0. -1.
          2   -1    0    0  501    0  0.00000000000E+00 -0.00000000000E+00 -0.46765440572E+00  0.46766135792E+00  0.25500000000E-02 0.  1.
         31    1    1    2    0    0  0.11204995421E+00  0.80382968467E-01  0.58387922561E+02  0.58861085988E+02  0.74470750000E+01 0.  1.
        -31    1    1    2    0    0 -0.11204995421E+00 -0.80382968467E-01  0.59790192729E+02  0.60252345093E+02  0.74470750000E+01 0.  1.
<mgrwt>
<rscale>  0 0.14897736E+02</rscale>
<asrwt>0</asrwt>
<pdfrwt beam="2">  1        2 0.99322345E+00 0.14897736E+02</pdfrwt>
<pdfrwt beam="1">  1       -2 0.98491319E+00 0.14897736E+02</pdfrwt>
<totfact> 0.57719616E-13</totfact>
</mgrwt>
</event>
<event>
 4    1 -0.5011189E-019  0.1493586E+02  0.7818608E-02  0.1870032E+00
          2   -1    0    0  501    0  0.00000000000E+00  0.00000000000E+00  0.11947134103E+03  0.11947134105E+03  0.25500000000E-02 0. -1.
         -2   -1    0    0    0  501 -0.00000000000E+00 -0.00000000000E+00 -0.46680273434E+00  0.46680969922E+00  0.25500000000E-02 0.  1.
         31    1    1    2    0    0 -0.15119683370E-01  0.54668959156E+00  0.60379872983E+02  0.60839847844E+02  0.74470750000E+01 0.  1.
        -31    1    1    2    0    0  0.15119683370E-01 -0.54668959156E+00  0.58624665308E+02  0.59098302908E+02  0.74470750000E+01 0. -1.
<mgrwt>
<rscale>  0 0.14935859E+02</rscale>
<asrwt>0</asrwt>
<pdfrwt beam="1">  1        2 0.99173255E+00 0.14935859E+02</pdfrwt>
<pdfrwt beam="2">  1       -2 0.99144860E+00 0.14935859E+02</pdfrwt>
<totfact>-0.77602981E-14</totfact>
</mgrwt>
</event>
<event>
 4    1 -0.5011189E-019  0.1492704E+02  0.7818608E-02  0.1870303E+00
         -2   -1    0    0    0  501 -0.00000000000E+00  0.00000000000E+00  0.11997856503E+03  0.11997856506E+03  0.25500000000E-02 0. -1.
          2   -1    0    0  501    0  0.00000000000E+00 -0.00000000000E+00 -0.46428055563E+00  0.46428755835E+00  0.25500000000E-02 0.  1.
         31    1    1    2    0    0  0.38357302405E+00  0.30681372405E-01  0.62271991619E+02  0.62716887166E+02  0.74470750000E+01 0. -1.
        -31    1    1    2    0    0 -0.38357302405E+00 -0.30681372405E-01  0.57242292857E+02  0.57725965451E+02  0.74470750000E+01 0.  1.
<mgrwt>
<rscale>  0 0.14927041E+02</rscale>
<asrwt>0</asrwt>
<pdfrwt beam="2">  1        2 0.98612867E+00 0.14927041E+02</pdfrwt>
<pdfrwt beam="1">  1       -2 0.99590578E+00 0.14927041E+02</pdfrwt>
<totfact>-0.27533650E-13</totfact>
</mgrwt>
</event>
<event>
 4    1 -0.5011189E-019  0.1498099E+02  0.7818608E-02  0.1868649E+00
         -2   -1    0    0    0  501 -0.00000000000E+00  0.00000000000E+00  0.11999855452E+03  0.11999855455E+03  0.25500000000E-02 0. -1.
          2   -1    0    0  501    0  0.00000000000E+00 -0.00000000000E+00 -0.46756472423E+00  0.46757167776E+00  0.25500000000E-02 0.  1.
         31    1    1    2    0    0  0.44608063887E+00 -0.66773332485E+00  0.60256587397E+02  0.60720343432E+02  0.74470750000E+01 0. -1.
        -31    1    1    2    0    0 -0.44608063887E+00  0.66773332485E+00  0.59274402402E+02  0.59745782796E+02  0.74470750000E+01 0.  1.
<mgrwt>
<rscale>  0 0.14980989E+02</rscale>
<asrwt>0</asrwt>
<pdfrwt beam="2">  1        2 0.99307768E+00 0.14980989E+02</pdfrwt>
<pdfrwt beam="1">  1       -2 0.99609822E+00 0.14980989E+02</pdfrwt>
<totfact>-0.13002271E-13</totfact>
</mgrwt>
</event>
<event>
 4    1  0.5011189E-019  0.1492619E+02  0.7818608E-02  0.1870329E+00
         -2   -1    0    0    0  501 -0.00000000000E+00  0.00000000000E+00  0.11890291084E+03  0.11890291087E+03  0.25500000000E-02 0.  1.
          2   -1    0    0  501    0  0.00000000000E+00 -0.00000000000E+00 -0.46842742668E+00  0.46843436740E+00  0.25500000000E-02 0. -1.
         31    1    1    2    0    0 -0.38572039743E+00 -0.16160416341E+00  0.57194374989E+02  0.57678681960E+02  0.74470750000E+01 0. -1.
        -31    1    1    2    0    0  0.38572039743E+00  0.16160416341E+00  0.61240108422E+02  0.61692663273E+02  0.74470750000E+01 0. -1.
<mgrwt>
<rscale>  0 0.14926192E+02</rscale>
<asrwt>0</asrwt>
<pdfrwt beam="2">  1        2 0.99486720E+00 0.14926192E+02</pdfrwt>
<pdfrwt beam="1">  1       -2 0.98704580E+00 0.14926192E+02</pdfrwt>
<totfact> 0.24433509E-13</totfact>
</mgrwt>
</event>
<event>
 4    1  0.5011189E-019  0.1490339E+02  0.7818608E-02  0.1871031E+00
          2   -1    0    0  501    0  0.00000000000E+00  0.00000000000E+00  0.11942646711E+03  0.11942646713E+03  0.25500000000E-02 0.  1.
         -2   -1    0    0    0  501 -0.00000000000E+00 -0.00000000000E+00 -0.46494972111E+00  0.46495671375E+00  0.25500000000E-02 0. -1.
         31    1    1    2    0    0 -0.76643917148E-01 -0.24369660076E+00  0.59002461022E+02  0.59471124044E+02  0.74470750000E+01 0. -1.
        -31    1    1    2    0    0  0.76643917148E-01  0.24369660076E+00  0.59959056363E+02  0.60420299803E+02  0.74470750000E+01 0. -1.
<mgrwt>
<rscale>  0 0.14903385E+02</rscale>
<asrwt>0</asrwt>
<pdfrwt beam="1">  1        2 0.99134618E+00 0.14903385E+02</pdfrwt>
<pdfrwt beam="2">  1       -2 0.98752684E+00 0.14903385E+02</pdfrwt>
<totfact> 0.25862599E-13</totfact>
</mgrwt>
</event>
<event>
 4    1 -0.5011189E-019  0.1500835E+02  0.7818608E-02  0.1867814E+00
         -2   -1    0    0    0  501 -0.00000000000E+00  0.00000000000E+00  0.12008093292E+03  0.12008093295E+03  0.25500000000E-02 0.  1.
          2   -1    0    0  501    0  0.00000000000E+00 -0.00000000000E+00 -0.46895253077E+00  0.46895946372E+00  0.25500000000E-02 0. -1.
         31    1    1    2    0    0 -0.70591111398E+00  0.31093549201E+00  0.63891835027E+02  0.64329002017E+02  0.74470750000E+01 0.  1.
        -31    1    1    2    0    0  0.70591111398E+00 -0.31093549201E+00  0.55720145361E+02  0.56220890392E+02  0.74470750000E+01 0.  1.
<mgrwt>
<rscale>  0 0.15008355E+02</rscale>
<asrwt>0</asrwt>
<pdfrwt beam="2">  1        2 0.99601643E+00 0.15008355E+02</pdfrwt>
<pdfrwt beam="1">  1       -2 0.99679085E+00 0.15008355E+02</pdfrwt>
<totfact>-0.88009618E-14</totfact>
</mgrwt>
</event>
<event>
 4    1 -0.5011189E-019  0.1494912E+02  0.7818608E-02  0.1869625E+00
          2   -1    0    0  501    0  0.00000000000E+00  0.00000000000E+00  0.11882380153E+03  0.11882380156E+03  0.25500000000E-02 0.  1.
         -2   -1    0    0    0  501 -0.00000000000E+00 -0.00000000000E+00 -0.47018064177E+00  0.47018755661E+00  0.25500000000E-02 0. -1.
         31    1    1    2    0    0  0.33009199342E+00 -0.54136017146E+00  0.59895352998E+02  0.60359872999E+02  0.74470750000E+01 0.  1.
        -31    1    1    2    0    0 -0.33009199342E+00  0.54136017146E+00  0.58458267894E+02  0.58934116120E+02  0.74470750000E+01 0.  1.
<mgrwt>
<rscale>  0 0.14949122E+02</rscale>
<asrwt>0</asrwt>
<pdfrwt beam="1">  1        2 0.98640617E+00 0.14949122E+02</pdfrwt>
<pdfrwt beam="2">  1       -2 0.99857342E+00 0.14949122E+02</pdfrwt>
<totfact>-0.12459454E-13</totfact>
</mgrwt>
</event>
<event>
 4    1  0.5011189E-019  0.1491413E+02  0.7818608E-02  0.1870700E+00
          2   -1    0    0  501    0  0.00000000000E+00  0.00000000000E+00  0.11934739177E+03  0.11934739180E+03  0.25500000000E-02 0. -1.
         -2   -1    0    0    0  501 -0.00000000000E+00 -0.00000000000E+00 -0.46592888227E+00  0.46593586022E+00  0.25500000000E-02 0.  1.
         31    1    1    2    0    0  0.14899373935E+00  0.12820799313E+00  0.62108231573E+02  0.62553417105E+02  0.74470750000E+01 0. -1.
        -31    1    1    2    0    0 -0.14899373935E+00 -0.12820799313E+00  0.56773231319E+02  0.57259910556E+02  0.74470750000E+01 0.  1.
<mgrwt>
<rscale>  0 0.14914130E+02</rscale>
<asrwt>0</asrwt>
<pdfrwt beam="1">  1        2 0.99070042E+00 0.14914130E+02</pdfrwt>
<pdfrwt beam="2">  1       -2 0.98959586E+00 0.14914130E+02</pdfrwt>
<totfact> 0.45699319E-14</totfact>
</mgrwt>
</event>
<event>
 4    1  0.5011189E-019  0.1493474E+02  0.7818608E-02  0.1870066E+00
         -2   -1    0    0    0  501 -0.00000000000E+00  0.00000000000E+00  0.11892791398E+03  0.11892791400E+03  0.25500000000E-02 0. -1.
          2   -1    0    0  501    0  0.00000000000E+00 -0.00000000000E+00 -0.46886560289E+00  0.46887253713E+00  0.25500000000E-02 0.  1.
         31    1    1    2    0    0  0.34743264802E+00  0.20344980251E+00  0.62227181433E+02  0.62672507022E+02  0.74470750000E+01 0. -1.
        -31    1    1    2    0    0 -0.34743264802E+00 -0.20344980251E+00  0.56231866940E+02  0.56724279518E+02  0.74470750000E+01 0.  1.
<mgrwt>
<rscale>  0 0.14934741E+02</rscale>
<asrwt>0</asrwt>
<pdfrwt beam="2">  1        2 0.99579497E+00 0.14934741E+02</pdfrwt>
<pdfrwt beam="1">  1       -2 0.98725617E+00 0.14934741E+02</pdfrwt>
<totfact> 0.20036463E-13</totfact>
</mgrwt>
</event>
<event>
 4    1 -0.5011189E-019  0.1498968E+02  0.7818608E-02  0.1868384E+00
          2   -1    0    0  501    0  0.00000000000E+00  0.00000000000E+00  0.12034241108E+03  0.12034241111E+03  0.25500000000E-02 0.  1.
         -2   -1    0    0    0  501 -0.00000000000E+00 -0.00000000000E+00 -0.46676963413E+00  0.46677659951E+00  0.25500000000E-02 0. -1.
         31    1    1    2    0    0 -0.58361163030E+00 -0.33700525173E+00  0.64043453239E+02  0.64478500323E+02  0.74470750000E+01 0.  1.
        -31    1    1    2    0    0  0.58361163030E+00  0.33700525173E+00  0.55832188207E+02  0.56330687383E+02  0.74470750000E+01 0. -1.
<mgrwt>
<rscale>  0 0.14989677E+02</rscale>
<asrwt>0</asrwt>
<pdfrwt beam="1">  1        2 0.99893489E+00 0.14989677E+02</pdfrwt>
<pdfrwt beam="2">  1       -2 0.99140650E+00 0.14989677E+02</pdfrwt>
<totfact>-0.18916242E-14</totfact>
</mgrwt>
</event>
<event>
 4    1  0.5011189E-019  0.1493095E+02  0.7818608E-02  0.1870183E+00
         -2   -1    0    0    0  501 -0.00000000000E+00  0.00000000000E+00  0.11878075996E+03  0.11878075999E+03  0.25500000000E-02 0.  1.
          2   -1    0    0  501    0  0.00000000000E+00 -0.00000000000E+00 -0.46920811122E+00  0.46921504040E+00  0.25500000000E-02 0. -1.
         31    1    1    2    0    0 -0.28438138255E-01 -0.40307016460E+00  0.61818023129E+02  0.62266284488E+02  0.74470750000E+01 0.  1.
        -31    1    1    2    0    0  0.28438138255E-01  0.40307016460E+00  0.56493528720E+02  0.56983690540E+02  0.74470750000E+01 0. -1.
<mgrwt>
<rscale>  0 0.14930949E+02</rscale>
<asrwt>0</asrwt>
<pdfrwt beam="2">  1        2 0.99651469E+00 0.14930949E+02</pdfrwt>
<pdfrwt beam="1">  1       -2 0.98604223E+00 0.14930949E+02</pdfrwt>
<totfact> 0.28621816E-13</totfact>
</mgrwt>
</event>
<event>
 4    1  0.5011189E-019  0.1493175E+02  0.7818608E-02  0.1870158E+00
         -2   -1    0    0    0  501 -0.00000000000E+00  0.00000000000E+00  0.11906037492E+03  0.11906037495E+03  0.25500000000E-02 0. -1.
          2   -1    0    0  501    0  0.00000000000E+00 -0.00000000000E+00 -0.46815629580E+00  0.46816324054E+00  0.25500000000E-02 0.  1.
         31    1    1    2    0    0  0.21892216357E+00  0.18894063847E+00  0.55745561267E+02  0.56241534052E+02  0.74470750000E+01 0.  1.
        -31    1    1    2    0    0 -0.21892216357E+00 -0.18894063847E+00  0.62846657357E+02  0.63287004136E+02  0.74470750000E+01 0. -1.
<mgrwt>
<rscale>  0 0.14931749E+02</rscale>
<asrwt>0</asrwt>
<pdfrwt beam="2">  1        2 0.99429879E+00 0.14931749E+02</pdfrwt>
<pdfrwt beam="1">  1       -2 0.98834558E+00 0.14931749E+02</pdfrwt>
<totfact> 0.13064918E-13</totfact>
</mgrwt>
</event>
<event>
 4    1  0.5011189E-019  0.1492220E+02  0.7818608E-02  0.1870452E+00
         -2   -1    0    0    0  501 -0.00000000000E+00  0.00000000000E+00  0.11871712888E+03  0.11871712891E+03  0.25500000000E-02 0.  1.
          2   -1    0    0  501    0  0.00000000000E+00 -0.00000000000E+00 -0.46890980571E+00  0.46891673930E+00  0.25500000000E-02 0. -1.
         31    1    1    2    0    0  0.41180418989E+00  0.22828931247E-01  0.57546554050E+02  0.58027880480E+02  0.74470750000E+01 0.  1.
        -31    1    1    2    0    0 -0.41180418989E+00 -0.22828931247E-01  0.60701665028E+02  0.61158165171E+02  0.74470750000E+01 0.  1.
<mgrwt>
<rscale>  0 0.14922204E+02</rscale>
<asrwt>0</asrwt>
<pdfrwt beam="2">  1        2 0.99588154E+00 0.14922204E+02</pdfrwt>
<pdfrwt beam="1">  1       -2 0.98551362E+00 0.14922204E+02</pdfrwt>
<totfact> 0.37504258E-13</totfact>
</mgrwt>
</event>
<event>
 4    1  0.5011189E-019  0.1492763E+02  0.7818608E-02  0.1870285E+00
         -2   -1    0    0    0  501 -0.00000000000E+00  0.00000000000E+00  0.11871191345E+03  0.11871191348E+03  0.25500000000E-02 0.  1.
          2   -1    0    0  501    0  0.00000000000E+00 -0.00000000000E+00 -0.46927180452E+00  0.46927873276E+00  0.25500000000E-02 0. -1.
         31    1    1    2    0    0  0.41819805501E+00  0.27328206856E+00  0.59187916413E+02  0.59656667256E+02  0.74470750000E+01 0.  1.
        -31    1    1    2    0    0 -0.41819805501E+00 -0.27328206856E+00  0.59054725234E+02  0.59524524955E+02  0.74470750000E+01 0. -1.
<mgrwt>
<rscale>  0 0.14927635E+02</rscale>
<asrwt>0</asrwt>
<pdfrwt beam="2">  1        2 0.99664715E+00 0.14927635E+02</pdfrwt>
<pdfrwt beam="1">  1       -2 0.98547348E+00 0.14927635E+02</pdfrwt>
<totfact> 0.33510592E-13</totfact>
</mgrwt>
</event>
<event>
 4    1  0.5011189E-019  0.1490483E+02  0.7818608E-02  0.1870987E+00
         -2   -1    0    0    0  501 -0.00000000000E+00  0.00000000000E+00  0.11829003543E+03  0.11829003545E+03  0.25500000000E-02 0.  1.
          2   -1    0    0  501    0  0.00000000000E+00 -0.00000000000E+00 -0.46950753592E+00  0.46951446068E+00  0.25500000000E-02 0. -1.
         31    1    1    2    0    0 -0.21955433539E+00  0.16535757232E+00  0.59414358727E+02  0.59879883903E+02  0.74470750000E+01 0. -1.
        -31    1    1    2    0    0  0.21955433539E+00 -0.16535757232E+00  0.58406169163E+02  0.58879666012E+02  0.74470750000E+01 0. -1.
<mgrwt>
<rscale>  0 0.14904828E+02</rscale>
<asrwt>0</asrwt>
<pdfrwt beam="2">  1        2 0.99713181E+00 0.14904828E+02</pdfrwt>
<pdfrwt beam="1">  1       -2 0.98198705E+00 0.14904828E+02</pdfrwt>
<totfact> 0.70450660E-13</totfact>
</mgrwt>
</event>
<event>
 4    1 -0.5011189E-019  0.1496065E+02  0.7818608E-02  0.1869272E+00
          2   -1    0    0  501    0  0.00000000000E+00  0.00000000000E+00  0.11938154391E+03  0.11938154394E+03  0.25500000000E-02 0.  1.
         -2   -1    0    0    0  501 -0.00000000000E+00 -0.00000000000E+00 -0.46870575167E+00  0.46871268828E+00  0.25500000000E-02 0. -1.
         31    1    1    2    0    0 -0.97726438471E-01 -0.31102062611E+00  0.54453380402E+02  0.54961221307E+02  0.74470750000E+01 0. -1.
        -31    1    1    2    0    0  0.97726438471E-01  0.31102062611E+00  0.64459457760E+02  0.64889035323E+02  0.74470750000E+01 0.  1.
<mgrwt>
<rscale>  0 0.14960646E+02</rscale>
<asrwt>0</asrwt>
<pdfrwt beam="1">  1        2 0.99100578E+00 0.14960646E+02</pdfrwt>
<pdfrwt beam="2">  1       -2 0.99547166E+00 0.14960646E+02</pdfrwt>
<totfact>-0.16026349E-13</totfact>
</mgrwt>
</event>
<event>
 4    1 -0.5011189E-019  0.1491010E+02  0.7818608E-02  0.1870824E+00
          2   -1    0    0  501    0  0.00000000000E+00  0.00000000000E+00  0.11890234385E+03  0.11890234388E+03  0.25500000000E-02 0.  1.
         -2   -1    0    0    0  501 -0.00000000000E+00 -0.00000000000E+00 -0.46741987025E+00  0.46742682593E+00  0.25500000000E-02 0. -1.
         31    1    1    2    0    0  0.10869036273E+00 -0.77690686450E-01  0.56673636177E+02  0.57160981561E+02  0.74470750000E+01 0. -1.
        -31    1    1    2    0    0 -0.10869036273E+00  0.77690686450E-01  0.61761287801E+02  0.62208789141E+02  0.74470750000E+01 0.  1.
<mgrwt>
<rscale>  0 0.14910095E+02</rscale>
<asrwt>0</asrwt>
<pdfrwt beam="1">  1        2 0.98703278E+00 0.14910095E+02</pdfrwt>
<pdfrwt beam="2">  1       -2 0.99273570E+00 0.14910095E+02</pdfrwt>
<totfact>-0.20930015E-13</totfact>
</mgrwt>
</event>
<event>
 4    1  0.5011189E-019  0.1491513E+02  0.7818608E-02  0.1870669E+00
         -2   -1    0    0    0  501 -0.00000000000E+00  0.00000000000E+00  0.11844944665E+03  0.11844944667E+03  0.25500000000E-02 0. -1.
          2   -1    0    0  501    0  0.00000000000E+00 -0.00000000000E+00 -0.46952418980E+00  0.46953111431E+00  0.25500000000E-02 0.  1.
         31    1    1    2    0    0  0.24181058678E+00  0.25040254336E+00  0.57494213885E+02  0.57975552866E+02  0.74470750000E+01 0.  1.
        -31    1    1    2    0    0 -0.24181058678E+00 -0.25040254336E+00  0.60485708570E+02  0.60943424921E+02  0.74470750000E+01 0. -1.
<mgrwt>
<rscale>  0 0.14915132E+02</rscale>
<asrwt>0</asrwt>
<pdfrwt beam="2">  1        2 0.99717235E+00 0.14915132E+02</pdfrwt>
<pdfrwt beam="1">  1       -2 0.98330531E+00 0.14915132E+02</pdfrwt>
<totfact> 0.52738046E-13</totfact>
</mgrwt>
</event>
<event>
 4    1 -0.5011189E-019  0.1500809E+02  0.7818608E-02  0.1867822E+00
          2   -1    0    0  501    0  0.00000000000E+00  0.00000000000E+00  0.12008660958E+03  0.12008660961E+03  0.25500000000E-02 0. -1.
         -2   -1    0    0    0  501 -0.00000000000E+00 -0.00000000000E+00 -0.46891394861E+00  0.46892088213E+00  0.25500000000E-02 0.  1.
         31    1    1    2    0    0 -0.74252689977E+00 -0.32793653135E-01  0.64203830950E+02  0.64638558588E+02  0.74470750000E+01 0.  1.
        -31    1    1    2    0    0  0.74252689977E+00  0.32793653135E-01  0.55413864684E+02  0.55916971903E+02  0.74470750000E+01 0.  1.
<mgrwt>
<rscale>  0 0.15008092E+02</rscale>
<asrwt>0</asrwt>
<pdfrwt beam="1">  1        2 0.99683747E+00 0.15008092E+02</pdfrwt>
<pdfrwt beam="2">  1       -2 0.99593499E+00 0.15008092E+02</pdfrwt>
<totfact>-0.86180316E-14</totfact>
</mgrwt>
</event>
<event>
 4    1  0.5011189E-019  0.1490937E+02  0.7818608E-02  0.1870847E+00
          2   -1    0    0  501    0  0.00000000000E+00  0.00000000000E+00  0.11939358049E+03  0.11939358052E+03  0.25500000000E-02 0.  1.
         -2   -1    0    0    0  501 -0.00000000000E+00 -0.00000000000E+00 -0.46545110245E+00  0.46545808756E+00  0.25500000000E-02 0. -1.
         31    1    1    2    0    0  0.34972806483E-02  0.20880719916E-01  0.56762618411E+02  0.57249054343E+02  0.74470750000E+01 0. -1.
        -31    1    1    2    0    0 -0.34972806483E-02 -0.20880719916E-01  0.62165510977E+02  0.62609984263E+02  0.74470750000E+01 0.  1.
<mgrwt>
<rscale>  0 0.14909365E+02</rscale>
<asrwt>0</asrwt>
<pdfrwt beam="1">  1        2 0.99107839E+00 0.14909365E+02</pdfrwt>
<pdfrwt beam="2">  1       -2 0.98858654E+00 0.14909365E+02</pdfrwt>
<totfact> 0.14054109E-13</totfact>
</mgrwt>
</event>
<event>
 4    1 -0.5011189E-019  0.1489774E+02  0.7818608E-02  0.1871205E+00
          2   -1    0    0  501    0  0.00000000000E+00  0.00000000000E+00  0.11815591884E+03  0.11815591887E+03  0.25500000000E-02 0. -1.
         -2   -1    0    0    0  501 -0.00000000000E+00 -0.00000000000E+00 -0.46959360844E+00  0.46960053193E+00  0.25500000000E-02 0.  1.
         31    1    1    2    0    0  0.15489760749E+00 -0.15511725637E-01  0.58443707855E+02  0.58916467544E+02  0.74470750000E+01 0.  1.
        -31    1    1    2    0    0 -0.15489760749E+00  0.15511725637E-01  0.59242617377E+02  0.59709051857E+02  0.74470750000E+01 0. -1.
<mgrwt>
<rscale>  0 0.14897742E+02</rscale>
<asrwt>0</asrwt>
<pdfrwt beam="1">  1        2 0.98087879E+00 0.14897742E+02</pdfrwt>
<pdfrwt beam="2">  1       -2 0.99730941E+00 0.14897742E+02</pdfrwt>
<totfact>-0.51502823E-13</totfact>
</mgrwt>
</event>
<event>
 4    1  0.5011189E-019  0.1491966E+02  0.7818608E-02  0.1870530E+00
         -2   -1    0    0    0  501 -0.00000000000E+00  0.00000000000E+00  0.11840547903E+03  0.11840547906E+03  0.25500000000E-02 0.  1.
          2   -1    0    0  501    0  0.00000000000E+00 -0.00000000000E+00 -0.46998394796E+00  0.46999086570E+00  0.25500000000E-02 0. -1.
         31    1    1    2    0    0  0.24961954571E+00 -0.29984045109E+00  0.60519856257E+02  0.60977570808E+02  0.74470750000E+01 0. -1.
        -31    1    1    2    0    0 -0.24961954571E+00  0.29984045109E+00  0.57415638826E+02  0.57897899116E+02  0.74470750000E+01 0. -1.
<mgrwt>
<rscale>  0 0.14919663E+02</rscale>
<asrwt>0</asrwt>
<pdfrwt beam="2">  1        2 0.99814344E+00 0.14919663E+02</pdfrwt>
<pdfrwt beam="1">  1       -2 0.98294556E+00 0.14919663E+02</pdfrwt>
<totfact> 0.41746754E-13</totfact>
</mgrwt>
</event>
<event>
 4    1 -0.5011189E-019  0.1491879E+02  0.7818608E-02  0.1870557E+00
          2   -1    0    0  501    0  0.00000000000E+00  0.00000000000E+00  0.11855160593E+03  0.11855160596E+03  0.25500000000E-02 0. -1.
         -2   -1    0    0    0  501 -0.00000000000E+00 -0.00000000000E+00 -0.46934977098E+00  0.46935669806E+00  0.25500000000E-02 0.  1.
         31    1    1    2    0    0  0.68795821359E-01 -0.35315602250E-01  0.55678295557E+02  0.56174171131E+02  0.74470750000E+01 0.  1.
        -31    1    1    2    0    0 -0.68795821359E-01  0.35315602250E-01  0.62403960600E+02  0.62846791523E+02  0.74470750000E+01 0. -1.
<mgrwt>
<rscale>  0 0.14918791E+02</rscale>
<asrwt>0</asrwt>
<pdfrwt beam="1">  1        2 0.98414859E+00 0.14918791E+02</pdfrwt>
<pdfrwt beam="2">  1       -2 0.99680677E+00 0.14918791E+02</pdfrwt>
<totfact>-0.33264200E-13</totfact>
</mgrwt>
</event>
<event>
 4    1  0.5011189E-019  0.1491825E+02  0.7818608E-02  0.1870573E+00
         -2   -1    0    0    0  501 -0.00000000000E+00  0.00000000000E+00  0.11882771106E+03  0.11882771109E+03  0.25500000000E-02 0. -1.
          2   -1    0    0  501    0  0.00000000000E+00 -0.00000000000E+00 -0.46822509417E+00  0.46823203790E+00  0.25500000000E-02 0.  1.
         31    1    1    2    0    0 -0.14545011124E+00 -0.37319757042E-01  0.62348851635E+02  0.62792203136E+02  0.74470750000E+01 0. -1.
        -31    1    1    2    0    0  0.14545011124E+00  0.37319757042E-01  0.56010634330E+02  0.56503739988E+02  0.74470750000E+01 0.  1.
<mgrwt>
<rscale>  0 0.14918248E+02</rscale>
<asrwt>0</asrwt>
<pdfrwt beam="2">  1        2 0.99443670E+00 0.14918248E+02</pdfrwt>
<pdfrwt beam="1">  1       -2 0.98642232E+00 0.14918248E+02</pdfrwt>
<totfact> 0.32475254E-13</totfact>
</mgrwt>
</event>
<event>
 4    1  0.5011189E-019  0.1495033E+02  0.7818608E-02  0.1869588E+00
          2   -1    0    0  501    0  0.00000000000E+00  0.00000000000E+00  0.12030298626E+03  0.12030298628E+03  0.25500000000E-02 0. -1.
         -2   -1    0    0    0  501 -0.00000000000E+00 -0.00000000000E+00 -0.46447469712E+00  0.46448169691E+00  0.25500000000E-02 0.  1.
         31    1    1    2    0    0 -0.60774210160E+00  0.21704752786E+00  0.59497092195E+02  0.59964817733E+02  0.74470750000E+01 0. -1.
        -31    1    1    2    0    0  0.60774210160E+00 -0.21704752786E+00  0.60341419364E+02  0.60802650247E+02  0.74470750000E+01 0.  1.
<mgrwt>
<rscale>  0 0.14950333E+02</rscale>
<asrwt>0</asrwt>
<pdfrwt beam="1">  1        2 0.99858992E+00 0.14950333E+02</pdfrwt>
<pdfrwt beam="2">  1       -2 0.98654968E+00 0.14950333E+02</pdfrwt>
<totfact> 0.12137799E-13</totfact>
</mgrwt>
</event>
<event>
 4    1 -0.5011189E-019  0.1490901E+02  0.7818608E-02  0.1870858E+00
          2   -1    0    0  501    0  0.00000000000E+00  0.00000000000E+00  0.11839300271E+03  0.11839300273E+03  0.25500000000E-02 0. -1.
         -2   -1    0    0    0  501 -0.00000000000E+00 -0.00000000000E+00 -0.46936254145E+00  0.46936946835E+00  0.25500000000E-02 0.  1.
         31    1    1    2    0    0 -0.52623961082E-01 -0.44018704293E-01  0.61557740789E+02  0.62006605164E+02  0.74470750000E+01 0. -1.
        -31    1    1    2    0    0  0.52623961082E-01  0.44018704293E-01  0.56365899376E+02  0.56855767038E+02  0.74470750000E+01 0.  1.
<mgrwt>
<rscale>  0 0.14909011E+02</rscale>
<asrwt>0</asrwt>
<pdfrwt beam="1">  1        2 0.98283726E+00 0.14909011E+02</pdfrwt>
<pdfrwt beam="2">  1       -2 0.99682852E+00 0.14909011E+02</pdfrwt>
<totfact>-0.41293855E-13</totfact>
</mgrwt>
</event>
<event>
 4    1 -0.5011189E-019  0.1496085E+02  0.7818608E-02  0.1869266E+00
         -2   -1    0    0    0  501 -0.00000000000E+00  0.00000000000E+00  0.11972920586E+03  0.11972920588E+03  0.25500000000E-02 0. -1.
          2   -1    0    0  501    0  0.00000000000E+00 -0.00000000000E+00 -0.46735740078E+00  0.46736435739E+00  0.25500000000E-02 0.  1.
         31    1    1    2    0    0 -0.66340171422E+00 -0.18332355957E+00  0.58383319116E+02  0.58860382147E+02  0.74470750000E+01 0.  1.
        -31    1    1    2    0    0  0.66340171422E+00  0.18332355957E+00  0.60878529341E+02  0.61336188096E+02  0.74470750000E+01 0. -1.
<mgrwt>
<rscale>  0 0.14960849E+02</rscale>
<asrwt>0</asrwt>
<pdfrwt beam="2">  1        2 0.99263039E+00 0.14960849E+02</pdfrwt>
<pdfrwt beam="1">  1       -2 0.99386934E+00 0.14960849E+02</pdfrwt>
<totfact>-0.14018591E-13</totfact>
</mgrwt>
</event>
<event>
 4    1 -0.5011189E-019  0.1492636E+02  0.7818608E-02  0.1870324E+00
          2   -1    0    0  501    0  0.00000000000E+00  0.00000000000E+00  0.11899743893E+03  0.11899743896E+03  0.25500000000E-02 0.  1.
         -2   -1    0    0    0  501 -0.00000000000E+00 -0.00000000000E+00 -0.46806576752E+00  0.46807271361E+00  0.25500000000E-02 0. -1.
         31    1    1    2    0    0 -0.17816236671E+00 -0.28241196116E+00  0.56394286260E+02  0.56884848134E+02  0.74470750000E+01 0. -1.
        -31    1    1    2    0    0  0.17816236671E+00  0.28241196116E+00  0.62135086901E+02  0.62580663536E+02  0.74470750000E+01 0.  1.
<mgrwt>
<rscale>  0 0.14926358E+02</rscale>
<asrwt>0</asrwt>
<pdfrwt beam="1">  1        2 0.98782444E+00 0.14926358E+02</pdfrwt>
<pdfrwt beam="2">  1       -2 0.99410521E+00 0.14926358E+02</pdfrwt>
<totfact>-0.22490164E-13</totfact>
</mgrwt>
</event>
<event>
 4    1  0.5011189E-019  0.1491075E+02  0.7818608E-02  0.1870804E+00
         -2   -1    0    0    0  501 -0.00000000000E+00  0.00000000000E+00  0.11889565503E+03  0.11889565506E+03  0.25500000000E-02 0.  1.
          2   -1    0    0  501    0  0.00000000000E+00 -0.00000000000E+00 -0.46748735311E+00  0.46749430780E+00  0.25500000000E-02 0. -1.
         31    1    1    2    0    0 -0.48785812153E-01 -0.32016661277E+00  0.58115915468E+02  0.58592008358E+02  0.74470750000E+01 0. -1.
        -31    1    1    2    0    0  0.48785812153E-01  0.32016661277E+00  0.60312252210E+02  0.60771141008E+02  0.74470750000E+01 0. -1.
<mgrwt>
<rscale>  0 0.14910752E+02</rscale>
<asrwt>0</asrwt>
<pdfrwt beam="2">  1        2 0.99287824E+00 0.14910752E+02</pdfrwt>
<pdfrwt beam="1">  1       -2 0.98697803E+00 0.14910752E+02</pdfrwt>
<totfact> 0.29542550E-13</totfact>
</mgrwt>
</event>
<event>
 4    1  0.5011189E-019  0.1490685E+02  0.7818608E-02  0.1870924E+00
         -2   -1    0    0    0  501 -0.00000000000E+00  0.00000000000E+00  0.11848987011E+03  0.11848987014E+03  0.25500000000E-02 0.  1.
          2   -1    0    0  501    0  0.00000000000E+00 -0.00000000000E+00 -0.46884292042E+00  0.46884985499E+00  0.25500000000E-02 0. -1.
         31    1    1    2    0    0 -0.88476823718E-01 -0.21041928731E+00  0.57364972091E+02  0.57846789483E+02  0.74470750000E+01 0.  1.
        -31    1    1    2    0    0  0.88476823718E-01  0.21041928731E+00  0.60656055102E+02  0.61111930513E+02  0.74470750000E+01 0.  1.
<mgrwt>
<rscale>  0 0.14906851E+02</rscale>
<asrwt>0</asrwt>
<pdfrwt beam="2">  1        2 0.99573254E+00 0.14906851E+02</pdfrwt>
<pdfrwt beam="1">  1       -2 0.98363393E+00 0.14906851E+02</pdfrwt>
<totfact> 0.63297171E-13</totfact>
</mgrwt>
</event>
<event>
 4    1 -0.5011189E-019  0.1496191E+02  0.7818608E-02  0.1869233E+00
         -2   -1    0    0    0  501 -0.00000000000E+00  0.00000000000E+00  0.12010240127E+03  0.12010240130E+03  0.25500000000E-02 0. -1.
          2   -1    0    0  501    0  0.00000000000E+00 -0.00000000000E+00 -0.46597108939E+00  0.46597806671E+00  0.25500000000E-02 0.  1.
         31    1    1    2    0    0  0.44218331672E+00  0.24059461999E+00  0.63866134424E+02  0.64300820090E+02  0.74470750000E+01 0. -1.
        -31    1    1    2    0    0 -0.44218331672E+00 -0.24059461999E+00  0.55770295759E+02  0.56267559277E+02  0.74470750000E+01 0.  1.
<mgrwt>
<rscale>  0 0.14961908E+02</rscale>
<asrwt>0</asrwt>
<pdfrwt beam="2">  1        2 0.98970935E+00 0.14961908E+02</pdfrwt>
<pdfrwt beam="1">  1       -2 0.99694372E+00 0.14961908E+02</pdfrwt>
<totfact>-0.14893762E-13</totfact>
</mgrwt>
</event>
<event>
 4    1  0.5011189E-019  0.1489866E+02  0.7818608E-02  0.1871177E+00
          2   -1    0    0  501    0  0.00000000000E+00  0.00000000000E+00  0.11936145579E+03  0.11936145582E+03  0.25500000000E-02 0. -1.
         -2   -1    0    0    0  501 -0.00000000000E+00 -0.00000000000E+00 -0.46490812674E+00  0.46491512000E+00  0.25500000000E-02 0.  1.
         31    1    1    2    0    0 -0.60633151635E-01 -0.28648408539E-01  0.58076086685E+02  0.58551646158E+02  0.74470750000E+01 0.  1.
        -31    1    1    2    0    0  0.60633151635E-01  0.28648408539E-01  0.60820460979E+02  0.61274724780E+02  0.74470750000E+01 0. -1.
<mgrwt>
<rscale>  0 0.14898662E+02</rscale>
<asrwt>0</asrwt>
<pdfrwt beam="1">  1        2 0.99080827E+00 0.14898662E+02</pdfrwt>
<pdfrwt beam="2">  1       -2 0.98743675E+00 0.14898662E+02</pdfrwt>
<totfact> 0.28204962E-13</totfact>
</mgrwt>
</event>
<event>
 4    1  0.5011189E-019  0.1490937E+02  0.7818608E-02  0.1870847E+00
          2   -1    0    0  501    0  0.00000000000E+00  0.00000000000E+00  0.11985381233E+03  0.11985381236E+03  0.25500000000E-02 0. -1.
         -2   -1    0    0    0  501 -0.00000000000E+00 -0.00000000000E+00 -0.46366436711E+00  0.46367137914E+00  0.25500000000E-02 0.  1.
         31    1    1    2    0    0 -0.15853741642E+00  0.13234555711E+00  0.61842188664E+02  0.62289307864E+02  0.74470750000E+01 0. -1.
        -31    1    1    2    0    0  0.15853741642E+00 -0.13234555711E+00  0.57547959304E+02  0.58028175876E+02  0.74470750000E+01 0.  1.
<mgrwt>
<rscale>  0 0.14909375E+02</rscale>
<asrwt>0</asrwt>
<pdfrwt beam="1">  1        2 0.99486914E+00 0.14909375E+02</pdfrwt>
<pdfrwt beam="2">  1       -2 0.98482100E+00 0.14909375E+02</pdfrwt>
<totfact> 0.51642961E-13</totfact>
</mgrwt>
</event>
<event>
 4    1  0.5011189E-019  0.1494968E+02  0.7818608E-02  0.1869608E+00
         -2   -1    0    0    0  501 -0.00000000000E+00  0.00000000000E+00  0.11878290436E+03  0.11878290439E+03  0.25500000000E-02 0. -1.
          2   -1    0    0  501    0  0.00000000000E+00 -0.00000000000E+00 -0.47037743065E+00  0.47038434260E+00  0.25500000000E-02 0.  1.
         31    1    1    2    0    0  0.48137933831E+00  0.16555720093E+00  0.56014205532E+02  0.56509373405E+02  0.74470750000E+01 0.  1.
        -31    1    1    2    0    0 -0.48137933831E+00 -0.16555720093E+00  0.62298321401E+02  0.62743915328E+02  0.74470750000E+01 0.  1.
<mgrwt>
<rscale>  0 0.14949677E+02</rscale>
<asrwt>0</asrwt>
<pdfrwt beam="2">  1        2 0.99898835E+00 0.14949677E+02</pdfrwt>
<pdfrwt beam="1">  1       -2 0.98606963E+00 0.14949677E+02</pdfrwt>
<totfact> 0.10799060E-13</totfact>
</mgrwt>
</event>
<event>
 4    1 -0.5011189E-019  0.1497634E+02  0.7818608E-02  0.1868791E+00
         -2   -1    0    0    0  501 -0.00000000000E+00  0.00000000000E+00  0.11954995993E+03  0.11954995996E+03  0.25500000000E-02 0. -1.
          2   -1    0    0  501    0  0.00000000000E+00 -0.00000000000E+00 -0.46902805145E+00  0.46903498328E+00  0.25500000000E-02 0.  1.
         31    1    1    2    0    0 -0.27344723545E+00 -0.44552021525E+00  0.64216871326E+02  0.64649352283E+02  0.74470750000E+01 0. -1.
        -31    1    1    2    0    0  0.27344723545E+00  0.44552021525E+00  0.54864060556E+02  0.55369642660E+02  0.74470750000E+01 0.  1.
<mgrwt>
<rscale>  0 0.14976342E+02</rscale>
<asrwt>0</asrwt>
<pdfrwt beam="2">  1        2 0.99615899E+00 0.14976342E+02</pdfrwt>
<pdfrwt beam="1">  1       -2 0.99240102E+00 0.14976342E+02</pdfrwt>
<totfact>-0.77844257E-14</totfact>
</mgrwt>
</event>
<event>
 4    1 -0.5011189E-019  0.1499125E+02  0.7818608E-02  0.1868336E+00
          2   -1    0    0  501    0  0.00000000000E+00  0.00000000000E+00  0.11994472966E+03  0.11994472968E+03  0.25500000000E-02 0. -1.
         -2   -1    0    0    0  501 -0.00000000000E+00 -0.00000000000E+00 -0.46841526353E+00  0.46842220443E+00  0.25500000000E-02 0.  1.
         31    1    1    2    0    0 -0.41487160366E+00  0.44516555375E-01  0.53774067588E+02  0.54288888101E+02  0.74470750000E+01 0.  1.
        -31    1    1    2    0    0  0.41487160366E+00 -0.44516555375E-01  0.65702246805E+02  0.66124263788E+02  0.74470750000E+01 0. -1.
<mgrwt>
<rscale>  0 0.14991246E+02</rscale>
<asrwt>0</asrwt>
<pdfrwt beam="1">  1        2 0.99566019E+00 0.14991246E+02</pdfrwt>
<pdfrwt beam="2">  1       -2 0.99487538E+00 0.14991246E+02</pdfrwt>
<totfact>-0.11077037E-13</totfact>
</mgrwt>
</event>
<event>
 4    1 -0.5011189E-019  0.1497709E+02  0.7818608E-02  0.1868768E+00
         -2   -1    0    0    0  501 -0.00000000000E+00  0.00000000000E+00  0.12026372416E+03  0.12026372419E+03  0.25500000000E-02 0. -1.
          2   -1    0    0  501    0  0.00000000000E+00 -0.00000000000E+00 -0.46629118277E+00  0.46629815529E+00  0.25500000000E-02 0.  1.
         31    1    1    2    0    0 -0.22211786808E+00  0.33583353432E+00  0.65349810155E+02  0.65773997399E+02  0.74470750000E+01 0. -1.
        -31    1    1    2    0    0  0.22211786808E+00 -0.33583353432E+00  0.54447622823E+02  0.54956024943E+02  0.74470750000E+01 0.  1.
<mgrwt>
<rscale>  0 0.14977094E+02</rscale>
<asrwt>0</asrwt>
<pdfrwt beam="2">  1        2 0.99039172E+00 0.14977094E+02</pdfrwt>
<pdfrwt beam="1">  1       -2 0.99828030E+00 0.14977094E+02</pdfrwt>
<totfact>-0.90414492E-14</totfact>
</mgrwt>
</event>
<event>
 4    1 -0.5011189E-019  0.1491976E+02  0.7818608E-02  0.1870527E+00
          2   -1    0    0  501    0  0.00000000000E+00  0.00000000000E+00  0.11878071618E+03  0.11878071621E+03  0.25500000000E-02 0.  1.
         -2   -1    0    0    0  501 -0.00000000000E+00 -0.00000000000E+00 -0.46850541251E+00  0.46851235208E+00  0.25500000000E-02 0. -1.
         31    1    1    2    0    0  0.32202613191E+00 -0.21399667736E+00  0.60782426490E+02  0.61238156337E+02  0.74470750000E+01 0.  1.
        -31    1    1    2    0    0 -0.32202613191E+00  0.21399667736E+00  0.57529784282E+02  0.58011072228E+02  0.74470750000E+01 0. -1.
<mgrwt>
<rscale>  0 0.14919762E+02</rscale>
<asrwt>0</asrwt>
<pdfrwt beam="1">  1        2 0.98603606E+00 0.14919762E+02</pdfrwt>
<pdfrwt beam="2">  1       -2 0.99502816E+00 0.14919762E+02</pdfrwt>
<totfact>-0.29451780E-13</totfact>
</mgrwt>
</event>
<event>
 4    1 -0.5011189E-019  0.1495833E+02  0.7818608E-02  0.1869343E+00
         -2   -1    0    0    0  501 -0.00000000000E+00  0.00000000000E+00  0.12013431066E+03  0.12013431068E+03  0.25500000000E-02 0.  1.
          2   -1    0    0  501    0  0.00000000000E+00 -0.00000000000E+00 -0.46562446180E+00  0.46563144431E+00  0.25500000000E-02 0. -1.
         31    1    1    2    0    0 -0.68088654845E+00  0.11724344310E+00  0.60158632614E+02  0.60621756463E+02  0.74470750000E+01 0.  1.
        -31    1    1    2    0    0  0.68088654845E+00 -0.11724344310E+00  0.59510053582E+02  0.59978185667E+02  0.74470750000E+01 0. -1.
<mgrwt>
<rscale>  0 0.14958328E+02</rscale>
<asrwt>0</asrwt>
<pdfrwt beam="2">  1        2 0.98897699E+00 0.14958328E+02</pdfrwt>
<pdfrwt beam="1">  1       -2 0.99720470E+00 0.14958328E+02</pdfrwt>
<totfact>-0.15170692E-13</totfact>
</mgrwt>
</event>
<event>
 4    1 -0.5011189E-019  0.1492362E+02  0.7818608E-02  0.1870408E+00
          2   -1    0    0  501    0  0.00000000000E+00  0.00000000000E+00  0.11908536678E+03  0.11908536680E+03  0.25500000000E-02 0.  1.
         -2   -1    0    0    0  501 -0.00000000000E+00 -0.00000000000E+00 -0.46754857985E+00  0.46755553362E+00  0.25500000000E-02 0. -1.
         31    1    1    2    0    0 -0.11908276800E-02  0.36978897522E+00  0.57001799762E+02  0.57487397292E+02  0.74470750000E+01 0. -1.
        -31    1    1    2    0    0  0.11908276800E-02 -0.36978897522E+00  0.61616018434E+02  0.62065525045E+02  0.74470750000E+01 0.  1.
<mgrwt>
<rscale>  0 0.14923620E+02</rscale>
<asrwt>0</asrwt>
<pdfrwt beam="1">  1        2 0.98854721E+00 0.14923620E+02</pdfrwt>
<pdfrwt beam="2">  1       -2 0.99301397E+00 0.14923620E+02</pdfrwt>
<totfact>-0.18153058E-13</totfact>
</mgrwt>
</event>
<event>
 4    1 -0.5011189E-019  0.1492367E+02  0.7818608E-02  0.1870407E+00
         -2   -1    0    0    0  501 -0.00000000000E+00  0.00000000000E+00  0.11988897386E+03  0.11988897389E+03  0.25500000000E-02 0. -1.
          2   -1    0    0  501    0  0.00000000000E+00 -0.00000000000E+00 -0.46441785611E+00  0.46442485675E+00  0.25500000000E-02 0.  1.
         31    1    1    2    0    0  0.35642783977E+00 -0.23568888387E+00  0.58150846154E+02  0.58627318074E+02  0.74470750000E+01 0.  1.
        -31    1    1    2    0    0 -0.35642783977E+00  0.23568888387E+00  0.61273709852E+02  0.61726080673E+02  0.74470750000E+01 0.  1.
<mgrwt>
<rscale>  0 0.14923673E+02</rscale>
<asrwt>0</asrwt>
<pdfrwt beam="2">  1        2 0.98641632E+00 0.14923673E+02</pdfrwt>
<pdfrwt beam="1">  1       -2 0.99516611E+00 0.14923673E+02</pdfrwt>
<totfact>-0.27690967E-13</totfact>
</mgrwt>
</event>
<event>
 4    1 -0.5011189E-019  0.1498241E+02  0.7818608E-02  0.1868606E+00
          2   -1    0    0  501    0  0.00000000000E+00  0.00000000000E+00  0.11957643356E+03  0.11957643358E+03  0.25500000000E-02 0.  1.
         -2   -1    0    0    0  501 -0.00000000000E+00 -0.00000000000E+00 -0.46930411711E+00  0.46931104487E+00  0.25500000000E-02 0. -1.
         31    1    1    2    0    0  0.65770536007E+00 -0.24016729180E+00  0.62846936946E+02  0.63290494280E+02  0.74470750000E+01 0.  1.
        -31    1    1    2    0    0 -0.65770536007E+00  0.24016729180E+00  0.56260192494E+02  0.56755250349E+02  0.74470750000E+01 0. -1.
<mgrwt>
<rscale>  0 0.14982407E+02</rscale>
<asrwt>0</asrwt>
<pdfrwt beam="1">  1        2 0.99262221E+00 0.14982407E+02</pdfrwt>
<pdfrwt beam="2">  1       -2 0.99674388E+00 0.14982407E+02</pdfrwt>
<totfact>-0.12202919E-13</totfact>
</mgrwt>
</event>
<event>
 4    1  0.5011189E-019  0.1492695E+02  0.7818608E-02  0.1870306E+00
         -2   -1    0    0    0  501 -0.00000000000E+00  0.00000000000E+00  0.11859627915E+03  0.11859627917E+03  0.25500000000E-02 0.  1.
          2   -1    0    0  501    0  0.00000000000E+00 -0.00000000000E+00 -0.46968647993E+00  0.46969340205E+00  0.25500000000E-02 0. -1.
         31    1    1    2    0    0  0.17768350532E+00  0.19726160191E+00  0.62391287664E+02  0.62834721182E+02  0.74470750000E+01 0.  1.
        -31    1    1    2    0    0 -0.17768350532E+00 -0.19726160191E+00  0.55735305002E+02  0.56231251393E+02  0.74470750000E+01 0. -1.
<mgrwt>
<rscale>  0 0.14926953E+02</rscale>
<asrwt>0</asrwt>
<pdfrwt beam="2">  1        2 0.99752053E+00 0.14926953E+02</pdfrwt>
<pdfrwt beam="1">  1       -2 0.98452077E+00 0.14926953E+02</pdfrwt>
<totfact> 0.35690370E-13</totfact>
</mgrwt>
</event>
<event>
 4    1 -0.5011189E-019  0.1497614E+02  0.7818608E-02  0.1868797E+00
         -2   -1    0    0    0  501 -0.00000000000E+00  0.00000000000E+00  0.12000686737E+03  0.12000686740E+03  0.25500000000E-02 0. -1.
          2   -1    0    0  501    0  0.00000000000E+00 -0.00000000000E+00 -0.46722967200E+00  0.46723663052E+00  0.25500000000E-02 0.  1.
         31    1    1    2    0    0  0.56319360917E+00 -0.31388597737E+00  0.63336244571E+02  0.63775814490E+02  0.74470750000E+01 0. -1.
        -31    1    1    2    0    0 -0.56319360917E+00  0.31388597737E+00  0.56203393127E+02  0.56698289538E+02  0.74470750000E+01 0. -1.
<mgrwt>
<rscale>  0 0.14976140E+02</rscale>
<asrwt>0</asrwt>
<pdfrwt beam="2">  1        2 0.99236908E+00 0.14976140E+02</pdfrwt>
<pdfrwt beam="1">  1       -2 0.99616418E+00 0.14976140E+02</pdfrwt>
<totfact>-0.13572278E-13</totfact>
</mgrwt>
</event>
<event>
 4    1  0.5011189E-019  0.1489890E+02  0.7818608E-02  0.1871169E+00
          2   -1    0    0  501    0  0.00000000000E+00  0.00000000000E+00  0.11965999987E+03  0.11965999989E+03  0.25500000000E-02 0.  1.
         -2   -1    0    0    0  501 -0.00000000000E+00 -0.00000000000E+00 -0.46376299325E+00  0.46377000378E+00  0.25500000000E-02 0. -1.
         31    1    1    2    0    0  0.15550064225E+00  0.10417879983E+00  0.59448866703E+02  0.59913785659E+02  0.74470750000E+01 0. -1.
        -31    1    1    2    0    0 -0.15550064225E+00 -0.10417879983E+00  0.59747370170E+02  0.60209984238E+02  0.74470750000E+01 0.  1.
<mgrwt>
<rscale>  0 0.14898900E+02</rscale>
<asrwt>0</asrwt>
<pdfrwt beam="1">  1        2 0.99326738E+00 0.14898900E+02</pdfrwt>
<pdfrwt beam="2">  1       -2 0.98502352E+00 0.14898900E+02</pdfrwt>
<totfact> 0.55775014E-13</totfact>
</mgrwt>
</event>
<event>
 4    1 -0.5011189E-019  0.1490611E+02  0.7818608E-02  0.1870947E+00
         -2   -1    0    0    0  501 -0.00000000000E+00  0.00000000000E+00  0.12030586142E+03  0.12030586145E+03  0.25500000000E-02 0.  1.
          2   -1    0    0  501    0  0.00000000000E+00 -0.00000000000E+00 -0.46171955464E+00  0.46172659620E+00  0.25500000000E-02 0. -1.
         31    1    1    2    0    0  0.24116478339E+00  0.54252105733E-01  0.61276947399E+02  0.61728310460E+02  0.74470750000E+01 0.  1.
        -31    1    1    2    0    0 -0.24116478339E+00 -0.54252105733E-01  0.58567194467E+02  0.59039277583E+02  0.74470750000E+01 0. -1.
<mgrwt>
<rscale>  0 0.14906106E+02</rscale>
<asrwt>0</asrwt>
<pdfrwt beam="2">  1        2 0.98072028E+00 0.14906106E+02</pdfrwt>
<pdfrwt beam="1">  1       -2 0.99859091E+00 0.14906106E+02</pdfrwt>
<totfact>-0.31433877E-13</totfact>
</mgrwt>
</event>
<event>
 4    1 -0.5011189E-019  0.1491961E+02  0.7818608E-02  0.1870531E+00
          2   -1    0    0  501    0  0.00000000000E+00  0.00000000000E+00  0.11864961109E+03  0.11864961112E+03  0.25500000000E-02 0. -1.
         -2   -1    0    0    0  501 -0.00000000000E+00 -0.00000000000E+00 -0.46901376816E+00  0.46902070021E+00  0.25500000000E-02 0.  1.
         31    1    1    2    0    0  0.43510725512E+00  0.17647605892E-01  0.59191248661E+02  0.59659470949E+02  0.74470750000E+01 0.  1.
        -31    1    1    2    0    0 -0.43510725512E+00 -0.17647605892E-01  0.58989348660E+02  0.59459160868E+02  0.74470750000E+01 0. -1.
<mgrwt>
<rscale>  0 0.14919613E+02</rscale>
<asrwt>0</asrwt>
<pdfrwt beam="1">  1        2 0.98495619E+00 0.14919613E+02</pdfrwt>
<pdfrwt beam="2">  1       -2 0.99609923E+00 0.14919613E+02</pdfrwt>
<totfact>-0.32446337E-13</totfact>
</mgrwt>
</event>
<event>
 4    1  0.5011189E-019  0.1490379E+02  0.7818608E-02  0.1871019E+00
         -2   -1    0    0    0  501 -0.00000000000E+00  0.00000000000E+00  0.11860517884E+03  0.11860517886E+03  0.25500000000E-02 0. -1.
          2   -1    0    0  501    0  0.00000000000E+00 -0.00000000000E+00 -0.46819446876E+00  0.46820141294E+00  0.25500000000E-02 0.  1.
         31    1    1    2    0    0 -0.76017638773E-01 -0.20505105529E+00  0.60305005719E+02  0.60763479702E+02  0.74470750000E+01 0.  1.
        -31    1    1    2    0    0  0.76017638773E-01  0.20505105529E+00  0.57831978647E+02  0.58309900574E+02  0.74470750000E+01 0. -1.
<mgrwt>
<rscale>  0 0.14903785E+02</rscale>
<asrwt>0</asrwt>
<pdfrwt beam="2">  1        2 0.99436459E+00 0.14903785E+02</pdfrwt>
<pdfrwt beam="1">  1       -2 0.98458202E+00 0.14903785E+02</pdfrwt>
<totfact> 0.57738919E-13</totfact>
</mgrwt>
</event>
<event>
 4    1 -0.5011189E-019  0.1493401E+02  0.7818608E-02  0.1870089E+00
          2   -1    0    0  501    0  0.00000000000E+00  0.00000000000E+00  0.11917593187E+03  0.11917593190E+03  0.25500000000E-02 0. -1.
         -2   -1    0    0    0  501 -0.00000000000E+00 -0.00000000000E+00 -0.46784408224E+00  0.46785103161E+00  0.25500000000E-02 0.  1.
         31    1    1    2    0    0  0.13434471651E+00 -0.25984062170E+00  0.55668057703E+02  0.56164732174E+02  0.74470750000E+01 0.  1.
        -31    1    1    2    0    0 -0.13434471651E+00  0.25984062170E+00  0.63040030086E+02  0.63479050757E+02  0.74470750000E+01 0. -1.
<mgrwt>
<rscale>  0 0.14934011E+02</rscale>
<asrwt>0</asrwt>
<pdfrwt beam="1">  1        2 0.98929851E+00 0.14934011E+02</pdfrwt>
<pdfrwt beam="2">  1       -2 0.99364207E+00 0.14934011E+02</pdfrwt>
<totfact>-0.18201999E-13</totfact>
</mgrwt>
</event>
<event>
 4    1 -0.5011189E-019  0.1492977E+02  0.7818608E-02  0.1870219E+00
          2   -1    0    0  501    0  0.00000000000E+00  0.00000000000E+00  0.11857935343E+03  0.11857935346E+03  0.25500000000E-02 0. -1.
         -2   -1    0    0    0  501 -0.00000000000E+00 -0.00000000000E+00 -0.46993066762E+00  0.46993758615E+00  0.25500000000E-02 0.  1.
         31    1    1    2    0    0  0.47461585063E+00 -0.19512219667E+00  0.58678222072E+02  0.59151128514E+02  0.74470750000E+01 0.  1.
        -31    1    1    2    0    0 -0.47461585063E+00  0.19512219667E+00  0.59431200688E+02  0.59898162528E+02  0.74470750000E+01 0. -1.
<mgrwt>
<rscale>  0 0.14929767E+02</rscale>
<asrwt>0</asrwt>
<pdfrwt beam="1">  1        2 0.98438283E+00 0.14929767E+02</pdfrwt>
<pdfrwt beam="2">  1       -2 0.99803652E+00 0.14929767E+02</pdfrwt>
<totfact>-0.22486148E-13</totfact>
</mgrwt>
</event>
<event>
 4    1 -0.5011189E-019  0.1496225E+02  0.7818608E-02  0.1869223E+00
          2   -1    0    0  501    0  0.00000000000E+00  0.00000000000E+00  0.11911566951E+03  0.11911566954E+03  0.25500000000E-02 0.  1.
         -2   -1    0    0    0  501 -0.00000000000E+00 -0.00000000000E+00 -0.46985290033E+00  0.46985982000E+00  0.25500000000E-02 0. -1.
         31    1    1    2    0    0 -0.26574259704E+00  0.66003505773E+00  0.58959561214E+02  0.59432272799E+02  0.74470750000E+01 0.  1.
        -31    1    1    2    0    0  0.26574259704E+00 -0.66003505773E+00  0.59686255399E+02  0.60153256562E+02  0.74470750000E+01 0.  1.
<mgrwt>
<rscale>  0 0.14962254E+02</rscale>
<asrwt>0</asrwt>
<pdfrwt beam="1">  1        2 0.98881683E+00 0.14962254E+02</pdfrwt>
<pdfrwt beam="2">  1       -2 0.99788974E+00 0.14962254E+02</pdfrwt>
<totfact>-0.12541159E-13</totfact>
</mgrwt>
</event>
<event>
 4    1 -0.5011189E-019  0.1500822E+02  0.7818608E-02  0.1867818E+00
         -2   -1    0    0    0  501 -0.00000000000E+00  0.00000000000E+00  0.12006900915E+03  0.12006900917E+03  0.25500000000E-02 0.  1.
          2   -1    0    0  501    0  0.00000000000E+00 -0.00000000000E+00 -0.46899062605E+00  0.46899755844E+00  0.25500000000E-02 0. -1.
         31    1    1    2    0    0  0.54335241523E+00 -0.31868578697E-02  0.65796730162E+02  0.66219059704E+02  0.74470750000E+01 0.  1.
        -31    1    1    2    0    0 -0.54335241523E+00  0.31868578697E-02  0.53803288357E+02  0.54318947027E+02  0.74470750000E+01 0. -1.
<mgrwt>
<rscale>  0 0.15008219E+02</rscale>
<asrwt>0</asrwt>
<pdfrwt beam="2">  1        2 0.99609664E+00 0.15008219E+02</pdfrwt>
<pdfrwt beam="1">  1       -2 0.99669258E+00 0.15008219E+02</pdfrwt>
<totfact>-0.88547415E-14</totfact>
</mgrwt>
</event>
<event>
 4    1  0.5011189E-019  0.1490683E+02  0.7818608E-02  0.1870925E+00
         -2   -1    0    0    0  501 -0.00000000000E+00  0.00000000000E+00  0.11832500860E+03  0.11832500862E+03  0.25500000000E-02 0.  1.
          2   -1    0    0  501    0  0.00000000000E+00 -0.00000000000E+00 -0.46949474067E+00  0.46950166562E+00  0.25500000000E-02 0. -1.
         31    1    1    2    0    0 -0.18523833794E+00 -0.16229320141E-01  0.60877826820E+02  0.61331910952E+02  0.74470750000E+01 0.  1.
        -31    1    1    2    0    0  0.18523833794E+00  0.16229320141E-01  0.56977687034E+02  0.57462599336E+02  0.74470750000E+01 0. -1.
<mgrwt>
<rscale>  0 0.14906828E+02</rscale>
<asrwt>0</asrwt>
<pdfrwt beam="2">  1        2 0.99710591E+00 0.14906828E+02</pdfrwt>
<pdfrwt beam="1">  1       -2 0.98227613E+00 0.14906828E+02</pdfrwt>
<totfact> 0.66876425E-13</totfact>
</mgrwt>
</event>
<event>
 4    1 -0.5011189E-019  0.1495005E+02  0.7818608E-02  0.1869597E+00
          2   -1    0    0  501    0  0.00000000000E+00  0.00000000000E+00  0.11924262491E+03  0.11924262493E+03  0.25500000000E-02 0.  1.
         -2   -1    0    0    0  501 -0.00000000000E+00 -0.00000000000E+00 -0.46858730656E+00  0.46859424491E+00  0.25500000000E-02 0. -1.
         31    1    1    2    0    0  0.45255325163E+00 -0.26101748303E+00  0.62427060606E+02  0.62871851862E+02  0.74470750000E+01 0.  1.
        -31    1    1    2    0    0 -0.45255325163E+00  0.26101748303E+00  0.56346976995E+02  0.56839367318E+02  0.74470750000E+01 0.  1.
<mgrwt>
<rscale>  0 0.14950050E+02</rscale>
<asrwt>0</asrwt>
<pdfrwt beam="1">  1        2 0.98985612E+00 0.14950050E+02</pdfrwt>
<pdfrwt beam="2">  1       -2 0.99521655E+00 0.14950050E+02</pdfrwt>
<totfact>-0.17986944E-13</totfact>
</mgrwt>
</event>
<event>
 4    1  0.5011189E-019  0.1490551E+02  0.7818608E-02  0.1870966E+00
         -2   -1    0    0    0  501 -0.00000000000E+00  0.00000000000E+00  0.11844065496E+03  0.11844065499E+03  0.25500000000E-02 0. -1.
          2   -1    0    0  501    0  0.00000000000E+00 -0.00000000000E+00 -0.46895322743E+00  0.46896016037E+00  0.25500000000E-02 0.  1.
         31    1    1    2    0    0 -0.55347814076E-01 -0.19401359043E+00  0.60657536023E+02  0.61113307119E+02  0.74470750000E+01 0. -1.
        -31    1    1    2    0    0  0.55347814076E-01  0.19401359043E+00  0.57314165707E+02  0.57796308026E+02  0.74470750000E+01 0.  1.
<mgrwt>
<rscale>  0 0.14905508E+02</rscale>
<asrwt>0</asrwt>
<pdfrwt beam="2">  1        2 0.99596425E+00 0.14905508E+02</pdfrwt>
<pdfrwt beam="1">  1       -2 0.98322789E+00 0.14905508E+02</pdfrwt>
<totfact> 0.67324886E-13</totfact>
</mgrwt>
</event>
<event>
 4    1  0.5011189E-019  0.1493277E+02  0.7818608E-02  0.1870127E+00
          2   -1    0    0  501    0  0.00000000000E+00  0.00000000000E+00  0.12019714101E+03  0.12019714103E+03  0.25500000000E-02 0.  1.
         -2   -1    0    0    0  501 -0.00000000000E+00 -0.00000000000E+00 -0.46379190062E+00  0.46379891072E+00  0.25500000000E-02 0. -1.
         31    1    1    2    0    0 -0.18230725358E+00  0.49791265602E+00  0.60533286769E+02  0.60991957552E+02  0.74470750000E+01 0.  1.
        -31    1    1    2    0    0  0.18230725358E+00 -0.49791265602E+00  0.59200062337E+02  0.59668982392E+02  0.74470750000E+01 0. -1.
<mgrwt>
<rscale>  0 0.14932767E+02</rscale>
<asrwt>0</asrwt>
<pdfrwt beam="1">  1        2 0.99770907E+00 0.14932767E+02</pdfrwt>
<pdfrwt beam="2">  1       -2 0.98510168E+00 0.14932767E+02</pdfrwt>
<totfact> 0.28694031E-13</totfact>
</mgrwt>
</event>
<event>
 4    1 -0.5011189E-019  0.1494263E+02  0.7818608E-02  0.1869824E+00
         -2   -1    0    0    0  501 -0.00000000000E+00  0.00000000000E+00  0.11954487773E+03  0.11954487776E+03  0.25500000000E-02 0.  1.
          2   -1    0    0  501    0  0.00000000000E+00 -0.00000000000E+00 -0.46693842842E+00  0.46694539127E+00  0.25500000000E-02 0. -1.
         31    1    1    2    0    0 -0.12473482205E+00  0.58728153402E+00  0.59809232853E+02  0.60274071697E+02  0.74470750000E+01 0.  1.
        -31    1    1    2    0    0  0.12473482205E+00 -0.58728153402E+00  0.59268706452E+02  0.59737751456E+02  0.74470750000E+01 0. -1.
<mgrwt>
<rscale>  0 0.14942626E+02</rscale>
<asrwt>0</asrwt>
<pdfrwt beam="2">  1        2 0.99173805E+00 0.14942626E+02</pdfrwt>
<pdfrwt beam="1">  1       -2 0.99234172E+00 0.14942626E+02</pdfrwt>
<totfact>-0.11459701E-13</totfact>
</mgrwt>
</event>
<event>
 4    1 -0.5011189E-019  0.1498175E+02  0.7818608E-02  0.1868626E+00
         -2   -1    0    0    0  501 -0.00000000000E+00  0.00000000000E+00  0.11995352226E+03  0.11995352228E+03  0.25500000000E-02 0.  1.
          2   -1    0    0  501    0  0.00000000000E+00 -0.00000000000E+00 -0.46778794875E+00  0.46779489897E+00  0.25500000000E-02 0. -1.
         31    1    1    2    0    0  0.24316058775E+00 -0.10510943857E+00  0.53599649493E+02  0.54115169101E+02  0.74470750000E+01 0. -1.
        -31    1    1    2    0    0 -0.24316058775E+00  0.10510943857E+00  0.65886084815E+02  0.66306148081E+02  0.74470750000E+01 0.  1.
<mgrwt>
<rscale>  0 0.14981753E+02</rscale>
<asrwt>0</asrwt>
<pdfrwt beam="2">  1        2 0.99354849E+00 0.14981753E+02</pdfrwt>
<pdfrwt beam="1">  1       -2 0.99572770E+00 0.14981753E+02</pdfrwt>
<totfact>-0.13029051E-13</totfact>
</mgrwt>
</event>
<event>
 4    1 -0.5011189E-019  0.1496990E+02  0.7818608E-02  0.1868989E+00
          2   -1    0    0  501    0  0.00000000000E+00  0.00000000000E+00  0.11982692754E+03  0.11982692756E+03  0.25500000000E-02 0. -1.
         -2   -1    0    0    0  501 -0.00000000000E+00 -0.00000000000E+00 -0.46754120699E+00  0.46754816087E+00  0.25500000000E-02 0.  1.
         31    1    1    2    0    0  0.15895321961E-01  0.55098823407E+00  0.55569031567E+02  0.56068529819E+02  0.74470750000E+01 0.  1.
        -31    1    1    2    0    0 -0.15895321961E-01 -0.55098823407E+00  0.63790354762E+02  0.64225945905E+02  0.74470750000E+01 0.  1.
<mgrwt>
<rscale>  0 0.14969896E+02</rscale>
<asrwt>0</asrwt>
<pdfrwt beam="1">  1        2 0.99467889E+00 0.14969896E+02</pdfrwt>
<pdfrwt beam="2">  1       -2 0.99302240E+00 0.14969896E+02</pdfrwt>
<totfact>-0.10725033E-13</totfact>
</mgrwt>
</event>
<event>
 4    1 -0.5011189E-019  0.1491854E+02  0.7818608E-02  0.1870565E+00
          2   -1    0    0  501    0  0.00000000000E+00  0.00000000000E+00  0.11826683427E+03  0.11826683430E+03  0.25500000000E-02 0.  1.
         -2   -1    0    0    0  501 -0.00000000000E+00 -0.00000000000E+00 -0.47046379514E+00  0.47047070582E+00  0.25500000000E-02 0. -1.
         31    1    1    2    0    0 -0.14205969027E+00 -0.22327985072E+00  0.56237973835E+02  0.56729521961E+02  0.74470750000E+01 0. -1.
        -31    1    1    2    0    0  0.14205969027E+00  0.22327985072E+00  0.61558396641E+02  0.62007783043E+02  0.74470750000E+01 0.  1.
<mgrwt>
<rscale>  0 0.14918536E+02</rscale>
<asrwt>0</asrwt>
<pdfrwt beam="1">  1        2 0.98180311E+00 0.14918536E+02</pdfrwt>
<pdfrwt beam="2">  1       -2 0.99915385E+00 0.14918536E+02</pdfrwt>
<totfact>-0.16510352E-13</totfact>
</mgrwt>
</event>
<event>
 4    1  0.5011189E-019  0.1491397E+02  0.7818608E-02  0.1870705E+00
         -2   -1    0    0    0  501 -0.00000000000E+00  0.00000000000E+00  0.11837680666E+03  0.11837680669E+03  0.25500000000E-02 0. -1.
          2   -1    0    0  501    0  0.00000000000E+00 -0.00000000000E+00 -0.46973911287E+00  0.46974603422E+00  0.25500000000E-02 0.  1.
         31    1    1    2    0    0 -0.25929782104E+00  0.20591624478E+00  0.57398775818E+02  0.57880808809E+02  0.74470750000E+01 0. -1.
        -31    1    1    2    0    0  0.25929782104E+00 -0.20591624478E+00  0.60508291728E+02  0.60965743912E+02  0.74470750000E+01 0. -1.
<mgrwt>
<rscale>  0 0.14913971E+02</rscale>
<asrwt>0</asrwt>
<pdfrwt beam="2">  1        2 0.99762457E+00 0.14913971E+02</pdfrwt>
<pdfrwt beam="1">  1       -2 0.98270645E+00 0.14913971E+02</pdfrwt>
<totfact> 0.53110812E-13</totfact>
</mgrwt>
</event>
<event>
 4    1 -0.5011189E-019  0.1494250E+02  0.7818608E-02  0.1869828E+00
         -2   -1    0    0    0  501 -0.00000000000E+00  0.00000000000E+00  0.11978812198E+03  0.11978812201E+03  0.25500000000E-02 0. -1.
          2   -1    0    0  501    0  0.00000000000E+00 -0.00000000000E+00 -0.46598220399E+00  0.46598918114E+00  0.25500000000E-02 0.  1.
         31    1    1    2    0    0  0.19714565222E+00 -0.31862724953E+00  0.63437864161E+02  0.63874579648E+02  0.74470750000E+01 0. -1.
        -31    1    1    2    0    0 -0.19714565222E+00  0.31862724953E+00  0.55884275617E+02  0.56379531544E+02  0.74470750000E+01 0.  1.
<mgrwt>
<rscale>  0 0.14942497E+02</rscale>
<asrwt>0</asrwt>
<pdfrwt beam="2">  1        2 0.98972283E+00 0.14942497E+02</pdfrwt>
<pdfrwt beam="1">  1       -2 0.99434513E+00 0.14942497E+02</pdfrwt>
<totfact>-0.18268274E-13</totfact>
</mgrwt>
</event>
<event>
 4    1  0.5011189E-019  0.1494000E+02  0.7818608E-02  0.1869905E+00
         -2   -1    0    0    0  501 -0.00000000000E+00  0.00000000000E+00  0.11899237604E+03  0.11899237607E+03  0.25500000000E-02 0.  1.
          2   -1    0    0  501    0  0.00000000000E+00 -0.00000000000E+00 -0.46894145692E+00  0.46894839004E+00  0.25500000000E-02 0. -1.
         31    1    1    2    0    0  0.56653469748E+00  0.11563261792E+00  0.59959505444E+02  0.60422972052E+02  0.74470750000E+01 0.  1.
        -31    1    1    2    0    0 -0.56653469748E+00 -0.11563261792E+00  0.58563929141E+02  0.59038352407E+02  0.74470750000E+01 0. -1.
<mgrwt>
<rscale>  0 0.14939997E+02</rscale>
<asrwt>0</asrwt>
<pdfrwt beam="2">  1        2 0.99595756E+00 0.14939997E+02</pdfrwt>
<pdfrwt beam="1">  1       -2 0.98778981E+00 0.14939997E+02</pdfrwt>
<totfact> 0.15120091E-13</totfact>
</mgrwt>
</event>
<event>
 4    1 -0.5011189E-019  0.1492877E+02  0.7818608E-02  0.1870250E+00
         -2   -1    0    0    0  501 -0.00000000000E+00  0.00000000000E+00  0.11942644988E+03  0.11942644991E+03  0.25500000000E-02 0. -1.
          2   -1    0    0  501    0  0.00000000000E+00 -0.00000000000E+00 -0.46653530907E+00  0.46654227795E+00  0.25500000000E-02 0.  1.
         31    1    1    2    0    0  0.95841970464E-01 -0.46990111217E+00  0.58132368265E+02  0.58609394800E+02  0.74470750000E+01 0. -1.
        -31    1    1    2    0    0 -0.95841970464E-01  0.46990111217E+00  0.60827546305E+02  0.61283597384E+02  0.74470750000E+01 0. -1.
<mgrwt>
<rscale>  0 0.14928774E+02</rscale>
<asrwt>0</asrwt>
<pdfrwt beam="2">  1        2 0.99088138E+00 0.14928774E+02</pdfrwt>
<pdfrwt beam="1">  1       -2 0.99135914E+00 0.14928774E+02</pdfrwt>
<totfact>-0.78263460E-14</totfact>
</mgrwt>
</event>
<event>
 4    1 -0.5011189E-019  0.1491766E+02  0.7818608E-02  0.1870592E+00
         -2   -1    0    0    0  501 -0.00000000000E+00  0.00000000000E+00  0.11989182813E+03  0.11989182815E+03  0.25500000000E-02 0. -1.
          2   -1    0    0  501    0  0.00000000000E+00 -0.00000000000E+00 -0.46403233138E+00  0.46403933784E+00  0.25500000000E-02 0.  1.
         31    1    1    2    0    0  0.19685871763E+00  0.71656771476E-01  0.56790495353E+02  0.57277073743E+02  0.74470750000E+01 0.  1.
        -31    1    1    2    0    0 -0.19685871763E+00 -0.71656771476E-01  0.62637300441E+02  0.63078793748E+02  0.74470750000E+01 0. -1.
<mgrwt>
<rscale>  0 0.14917655E+02</rscale>
<asrwt>0</asrwt>
<pdfrwt beam="2">  1        2 0.98560073E+00 0.14917655E+02</pdfrwt>
<pdfrwt beam="1">  1       -2 0.99518652E+00 0.14917655E+02</pdfrwt>
<totfact>-0.31364213E-13</totfact>
</mgrwt>
</event>
<event>
 4    1 -0.5011189E-019  0.1496643E+02  0.7818608E-02  0.1869095E+00
         -2   -1    0    0    0  501 -0.00000000000E+00  0.00000000000E+00  0.11988103185E+03  0.11988103187E+03  0.25500000000E-02 0. -1.
          2   -1    0    0  501    0  0.00000000000E+00 -0.00000000000E+00 -0.46711391624E+00  0.46712087648E+00  0.25500000000E-02 0.  1.
         31    1    1    2    0    0  0.62720890450E+00 -0.52996979406E-01  0.62751943627E+02  0.63195423527E+02  0.74470750000E+01 0. -1.
        -31    1    1    2    0    0 -0.62720890450E+00  0.52996979406E-01  0.56661974302E+02  0.57152729222E+02  0.74470750000E+01 0.  1.
<mgrwt>
<rscale>  0 0.14966432E+02</rscale>
<asrwt>0</asrwt>
<pdfrwt beam="2">  1        2 0.99212014E+00 0.14966432E+02</pdfrwt>
<pdfrwt beam="1">  1       -2 0.99512273E+00 0.14966432E+02</pdfrwt>
<totfact>-0.14953557E-13</totfact>
</mgrwt>
</event>
<event>
 4    1 -0.5011189E-019  0.1495135E+02  0.7818608E-02  0.1869557E+00
          2   -1    0    0  501    0  0.00000000000E+00  0.00000000000E+00  0.11947125385E+03  0.11947125388E+03  0.25500000000E-02 0. -1.
         -2   -1    0    0    0  501 -0.00000000000E+00 -0.00000000000E+00 -0.46777177230E+00  0.46777872276E+00  0.25500000000E-02 0.  1.
         31    1    1    2    0    0 -0.52030124280E+00  0.39379744905E+00  0.59250264353E+02  0.59720001187E+02  0.74470750000E+01 0. -1.
        -31    1    1    2    0    0  0.52030124280E+00 -0.39379744905E+00  0.59753217728E+02  0.60219031417E+02  0.74470750000E+01 0. -1.
<mgrwt>
<rscale>  0 0.14951348E+02</rscale>
<asrwt>0</asrwt>
<pdfrwt beam="1">  1        2 0.99173984E+00 0.14951348E+02</pdfrwt>
<pdfrwt beam="2">  1       -2 0.99349869E+00 0.14951348E+02</pdfrwt>
<totfact>-0.14420453E-13</totfact>
</mgrwt>
</event>
<event>
 4    1 -0.5011189E-019  0.1492408E+02  0.7818608E-02  0.1870394E+00
         -2   -1    0    0    0  501 -0.00000000000E+00  0.00000000000E+00  0.11983219821E+03  0.11983219823E+03  0.25500000000E-02 0.  1.
          2   -1    0    0  501    0  0.00000000000E+00 -0.00000000000E+00 -0.46466339172E+00  0.46467038867E+00  0.25500000000E-02 0. -1.
         31    1    1    2    0    0  0.21180038379E+00 -0.31785616260E+00  0.61923974807E+02  0.62371335355E+02  0.74470750000E+01 0.  1.
        -31    1    1    2    0    0 -0.21180038379E+00  0.31785616260E+00  0.57443560007E+02  0.57925533267E+02  0.74470750000E+01 0. -1.
<mgrwt>
<rscale>  0 0.14924082E+02</rscale>
<asrwt>0</asrwt>
<pdfrwt beam="2">  1        2 0.98693401E+00 0.14924082E+02</pdfrwt>
<pdfrwt beam="1">  1       -2 0.99469868E+00 0.14924082E+02</pdfrwt>
<totfact>-0.25859249E-13</totfact>
</mgrwt>
</event>
<event>
 4    1  0.5011189E-019  0.1490513E+02  0.7818608E-02  0.1870978E+00
         -2   -1    0    0    0  501 -0.00000000000E+00  0.00000000000E+00  0.11832125891E+03  0.11832125894E+03  0.25500000000E-02 0.  1.
          2   -1    0    0  501    0  0.00000000000E+00 -0.00000000000E+00 -0.46940235346E+00  0.46940927977E+00  0.25500000000E-02 0. -1.
         31    1    1    2    0    0 -0.35327724028E-03 -0.13917864835E+00  0.56935179224E+02  0.57420318095E+02  0.74470750000E+01 0. -1.
        -31    1    1    2    0    0  0.35327724028E-03  0.13917864835E+00  0.60916677334E+02  0.61370350124E+02  0.74470750000E+01 0.  1.
<mgrwt>
<rscale>  0 0.14905125E+02</rscale>
<asrwt>0</asrwt>
<pdfrwt beam="2">  1        2 0.99691035E+00 0.14905125E+02</pdfrwt>
<pdfrwt beam="1">  1       -2 0.98224436E+00 0.14905125E+02</pdfrwt>
<totfact> 0.70349622E-13</totfact>
</mgrwt>
</event>
<event>
 4    1 -0.5011189E-019  0.1492038E+02  0.7818608E-02  0.1870508E+00
         -2   -1    0    0    0  501 -0.00000000000E+00  0.00000000000E+00  0.11962860631E+03  0.11962860633E+03  0.25500000000E-02 0.  1.
          2   -1    0    0  501    0  0.00000000000E+00 -0.00000000000E+00 -0.46522311955E+00  0.46523010808E+00  0.25500000000E-02 0. -1.
         31    1    1    2    0    0 -0.29750323611E+00  0.32604257405E+00  0.59791072356E+02  0.60254676760E+02  0.74470750000E+01 0.  1.
        -31    1    1    2    0    0  0.29750323611E+00 -0.32604257405E+00  0.59372310830E+02  0.59839159681E+02  0.74470750000E+01 0. -1.
<mgrwt>
<rscale>  0 0.14920377E+02</rscale>
<asrwt>0</asrwt>
<pdfrwt beam="2">  1        2 0.98811174E+00 0.14920377E+02</pdfrwt>
<pdfrwt beam="1">  1       -2 0.99301987E+00 0.14920377E+02</pdfrwt>
<totfact>-0.19168805E-13</totfact>
</mgrwt>
</event>
<event>
 4    1  0.5011189E-019  0.1493030E+02  0.7818608E-02  0.1870203E+00
          2   -1    0    0  501    0  0.00000000000E+00  0.00000000000E+00  0.11963840399E+03  0.11963840402E+03  0.25500000000E-02 0. -1.
         -2   -1    0    0    0  501 -0.00000000000E+00 -0.00000000000E+00 -0.46580421486E+00  0.46581119467E+00  0.25500000000E-02 0.  1.
         31    1    1    2    0    0  0.13887185004E+00  0.39084046746E+00  0.57074126594E+02  0.57559420551E+02  0.74470750000E+01 0.  1.
        -31    1    1    2    0    0 -0.13887185004E+00 -0.39084046746E+00  0.62098473181E+02  0.62544794661E+02  0.74470750000E+01 0. -1.
<mgrwt>
<rscale>  0 0.14930304E+02</rscale>
<asrwt>0</asrwt>
<pdfrwt beam="1">  1        2 0.99310568E+00 0.14930304E+02</pdfrwt>
<pdfrwt beam="2">  1       -2 0.98934146E+00 0.14930304E+02</pdfrwt>
<totfact> 0.57350946E-14</totfact>
</mgrwt>
</event>
<event>
 4    1  0.5011189E-019  0.1489723E+02  0.7818608E-02  0.1871221E+00
          2   -1    0    0  501    0  0.00000000000E+00  0.00000000000E+00  0.11945220917E+03  0.11945220920E+03  0.25500000000E-02 0.  1.
         -2   -1    0    0    0  501 -0.00000000000E+00 -0.00000000000E+00 -0.46446578442E+00  0.46447278434E+00  0.25500000000E-02 0. -1.
         31    1    1    2    0    0  0.49632872834E-01  0.34995110769E-01  0.60611323431E+02  0.61067136351E+02  0.74470750000E+01 0.  1.
        -31    1    1    2    0    0 -0.49632872834E-01 -0.34995110769E-01  0.58376419960E+02  0.58849545635E+02  0.74470750000E+01 0. -1.
<mgrwt>
<rscale>  0 0.14897233E+02</rscale>
<asrwt>0</asrwt>
<pdfrwt beam="1">  1        2 0.99155503E+00 0.14897233E+02</pdfrwt>
<pdfrwt beam="2">  1       -2 0.98650380E+00 0.14897233E+02</pdfrwt>
<totfact> 0.39182791E-13</totfact>
</mgrwt>
</event>
<event>
 4    1 -0.5011189E-019  0.1490144E+02  0.7818608E-02  0.1871091E+00
          2   -1    0    0  501    0  0.00000000000E+00  0.00000000000E+00  0.11882582944E+03  0.11882582947E+03  0.25500000000E-02 0. -1.
         -2   -1    0    0    0  501 -0.00000000000E+00 -0.00000000000E+00 -0.46717798714E+00  0.46718494642E+00  0.25500000000E-02 0.  1.
         31    1    1    2    0    0 -0.19021374618E+00  0.37159067101E-01  0.60215111755E+02  0.60674180437E+02  0.74470750000E+01 0. -1.
        -31    1    1    2    0    0  0.19021374618E+00 -0.37159067101E-01  0.58143539702E+02  0.58618833981E+02  0.74470750000E+01 0.  1.
<mgrwt>
<rscale>  0 0.14901440E+02</rscale>
<asrwt>0</asrwt>
<pdfrwt beam="1">  1        2 0.98639811E+00 0.14901440E+02</pdfrwt>
<pdfrwt beam="2">  1       -2 0.99222149E+00 0.14901440E+02</pdfrwt>
<totfact>-0.19962608E-13</totfact>
</mgrwt>
</event>
<event>
 4    1 -0.5011189E-019  0.1504502E+02  0.7818608E-02  0.1866698E+00
          2   -1    0    0  501    0  0.00000000000E+00  0.00000000000E+00  0.12043977196E+03  0.12043977199E+03  0.25500000000E-02 0.  1.
         -2   -1    0    0    0  501 -0.00000000000E+00 -0.00000000000E+00 -0.46984275907E+00  0.46984967889E+00  0.25500000000E-02 0. -1.
         31    1    1    2    0    0 -0.58748474801E+00  0.72544471457E+00  0.55904182262E+02  0.56405743757E+02  0.74470750000E+01 0. -1.
        -31    1    1    2    0    0  0.58748474801E+00 -0.72544471457E+00  0.64065746941E+02  0.64503877911E+02  0.74470750000E+01 0.  1.
<mgrwt>
<rscale>  0 0.15045022E+02</rscale>
<asrwt>0</asrwt>
<pdfrwt beam="1">  1        2 0.99976535E+00 0.15045022E+02</pdfrwt>
<pdfrwt beam="2">  1       -2 0.99791139E+00 0.15045022E+02</pdfrwt>
<totfact>-0.57492331E-15</totfact>
</mgrwt>
</event>
<event>
 4    1 -0.5011189E-019  0.1500060E+02  0.7818608E-02  0.1868050E+00
          2   -1    0    0  501    0  0.00000000000E+00  0.00000000000E+00  0.11985012102E+03  0.11985012105E+03  0.25500000000E-02 0. -1.
         -2   -1    0    0    0  501 -0.00000000000E+00 -0.00000000000E+00 -0.46936996542E+00  0.46937689220E+00  0.25500000000E-02 0.  1.
         31    1    1    2    0    0 -0.71487073886E+00  0.52670522825E+00  0.59015426366E+02  0.59490065841E+02  0.74470750000E+01 0. -1.
        -31    1    1    2    0    0  0.71487073886E+00 -0.52670522825E+00  0.60365324689E+02  0.60829432099E+02  0.74470750000E+01 0. -1.
<mgrwt>
<rscale>  0 0.15000595E+02</rscale>
<asrwt>0</asrwt>
<pdfrwt beam="1">  1        2 0.99488579E+00 0.15000595E+02</pdfrwt>
<pdfrwt beam="2">  1       -2 0.99689209E+00 0.15000595E+02</pdfrwt>
<totfact>-0.98893383E-14</totfact>
</mgrwt>
</event>
<event>
 4    1 -0.5011189E-019  0.1498480E+02  0.7818608E-02  0.1868533E+00
          2   -1    0    0  501    0  0.00000000000E+00  0.00000000000E+00  0.11980793090E+03  0.11980793092E+03  0.25500000000E-02 0.  1.
         -2   -1    0    0    0  501 -0.00000000000E+00 -0.00000000000E+00 -0.46854700705E+00  0.46855394600E+00  0.25500000000E-02 0. -1.
         31    1    1    2    0    0 -0.56953671704E+00  0.54616475411E+00  0.61543036307E+02  0.61996991152E+02  0.74470750000E+01 0. -1.
        -31    1    1    2    0    0  0.56953671704E+00 -0.54616475411E+00  0.57796347583E+02  0.58279493718E+02  0.74470750000E+01 0. -1.
<mgrwt>
<rscale>  0 0.14984801E+02</rscale>
<asrwt>0</asrwt>
<pdfrwt beam="1">  1        2 0.99453013E+00 0.14984801E+02</pdfrwt>
<pdfrwt beam="2">  1       -2 0.99514968E+00 0.14984801E+02</pdfrwt>
<totfact>-0.12430216E-13</totfact>
</mgrwt>
</event>
<event>
 4    1 -0.5011189E-019  0.1492471E+02  0.7818608E-02  0.1870375E+00
         -2   -1    0    0    0  501 -0.00000000000E+00  0.00000000000E+00  0.11985023113E+03  0.11985023115E+03  0.25500000000E-02 0.  1.
          2   -1    0    0  501    0  0.00000000000E+00 -0.00000000000E+00 -0.46463230426E+00  0.46463930168E+00  0.25500000000E-02 0. -1.
         31    1    1    2    0    0  0.48159703927E-02  0.55816374780E-01  0.55871916267E+02  0.56366063301E+02  0.74470750000E+01 0. -1.
        -31    1    1    2    0    0 -0.48159703927E-02 -0.55816374780E-01  0.63513682554E+02  0.63948807153E+02  0.74470750000E+01 0.  1.
<mgrwt>
<rscale>  0 0.14924706E+02</rscale>
<asrwt>0</asrwt>
<pdfrwt beam="2">  1        2 0.98686881E+00 0.14924706E+02</pdfrwt>
<pdfrwt beam="1">  1       -2 0.99484753E+00 0.14924706E+02</pdfrwt>
<totfact>-0.26093302E-13</totfact>
</mgrwt>
</event>
<event>
 4    1  0.5011189E-019  0.1489983E+02  0.7818608E-02  0.1871141E+00
         -2   -1    0    0    0  501 -0.00000000000E+00  0.00000000000E+00  0.11899439660E+03  0.11899439663E+03  0.25500000000E-02 0. -1.
          2   -1    0    0  501    0  0.00000000000E+00 -0.00000000000E+00 -0.46641520122E+00  0.46642217189E+00  0.25500000000E-02 0.  1.
         31    1    1    2    0    0 -0.15444386523E+00 -0.96871795312E-02  0.60349794392E+02  0.60807734343E+02  0.74470750000E+01 0. -1.
        -31    1    1    2    0    0  0.15444386523E+00  0.96871795312E-02  0.58178187011E+02  0.58653084460E+02  0.74470750000E+01 0.  1.
<mgrwt>
<rscale>  0 0.14899827E+02</rscale>
<asrwt>0</asrwt>
<pdfrwt beam="2">  1        2 0.99061329E+00 0.14899827E+02</pdfrwt>
<pdfrwt beam="1">  1       -2 0.98778563E+00 0.14899827E+02</pdfrwt>
<totfact> 0.24100904E-13</totfact>
</mgrwt>
</event>
<event>
 4    1 -0.5011189E-019  0.1502509E+02  0.7818608E-02  0.1867304E+00
         -2   -1    0    0    0  501 -0.00000000000E+00  0.00000000000E+00  0.12010780091E+03  0.12010780094E+03  0.25500000000E-02 0.  1.
          2   -1    0    0  501    0  0.00000000000E+00 -0.00000000000E+00 -0.46989373844E+00  0.46990065751E+00  0.25500000000E-02 0. -1.
         31    1    1    2    0    0  0.51667994240E-01 -0.70026043377E+00  0.54222282331E+02  0.54735800547E+02  0.74470750000E+01 0. -1.
        -31    1    1    2    0    0 -0.51667994240E-01  0.70026043377E+00  0.65415624844E+02  0.65841901051E+02  0.74470750000E+01 0.  1.
<mgrwt>
<rscale>  0 0.15025089E+02</rscale>
<asrwt>0</asrwt>
<pdfrwt beam="2">  1        2 0.99800853E+00 0.15025089E+02</pdfrwt>
<pdfrwt beam="1">  1       -2 0.99702080E+00 0.15025089E+02</pdfrwt>
<totfact>-0.52070191E-14</totfact>
</mgrwt>
</event>
<event>
 4    1 -0.5011189E-019  0.1493221E+02  0.7818608E-02  0.1870144E+00
         -2   -1    0    0    0  501 -0.00000000000E+00  0.00000000000E+00  0.12024426176E+03  0.12024426178E+03  0.25500000000E-02 0.  1.
          2   -1    0    0  501    0  0.00000000000E+00 -0.00000000000E+00 -0.46357524136E+00  0.46358225474E+00  0.25500000000E-02 0. -1.
         31    1    1    2    0    0  0.13361468909E+00 -0.23949793226E+00  0.56198731681E+02  0.56690665728E+02  0.74470750000E+01 0. -1.
        -31    1    1    2    0    0 -0.13361468909E+00  0.23949793226E+00  0.63581954834E+02  0.64017178309E+02  0.74470750000E+01 0.  1.
<mgrwt>
<rscale>  0 0.14932205E+02</rscale>
<asrwt>0</asrwt>
<pdfrwt beam="2">  1        2 0.98464475E+00 0.14932205E+02</pdfrwt>
<pdfrwt beam="1">  1       -2 0.99809691E+00 0.14932205E+02</pdfrwt>
<totfact>-0.20996314E-13</totfact>
</mgrwt>
</event>
<event>
 4    1  0.5011189E-019  0.1489539E+02  0.7818608E-02  0.1871278E+00
         -2   -1    0    0    0  501 -0.00000000000E+00  0.00000000000E+00  0.11854693482E+03  0.11854693485E+03  0.25500000000E-02 0. -1.
          2   -1    0    0  501    0  0.00000000000E+00 -0.00000000000E+00 -0.46789706296E+00  0.46790401155E+00  0.25500000000E-02 0.  1.
         31    1    1    2    0    0  0.18229095822E-01 -0.92388144544E-01  0.58882981943E+02  0.59352113327E+02  0.74470750000E+01 0.  1.
        -31    1    1    2    0    0 -0.18229095822E-01  0.92388144544E-01  0.59196055817E+02  0.59662725534E+02  0.74470750000E+01 0. -1.
<mgrwt>
<rscale>  0 0.14895392E+02</rscale>
<asrwt>0</asrwt>
<pdfrwt beam="2">  1        2 0.99373353E+00 0.14895392E+02</pdfrwt>
<pdfrwt beam="1">  1       -2 0.98409796E+00 0.14895392E+02</pdfrwt>
<totfact> 0.68878963E-13</totfact>
</mgrwt>
</event>
<event>
 4    1 -0.5011189E-019  0.1494719E+02  0.7818608E-02  0.1869684E+00
         -2   -1    0    0    0  501 -0.00000000000E+00  0.00000000000E+00  0.11963413112E+03  0.11963413115E+03  0.25500000000E-02 0.  1.
          2   -1    0    0  501    0  0.00000000000E+00 -0.00000000000E+00 -0.46687540177E+00  0.46688236557E+00  0.25500000000E-02 0. -1.
         31    1    1    2    0    0  0.45086705717E+00 -0.33795979897E+00  0.57336278965E+02  0.57820630483E+02  0.74470750000E+01 0. -1.
        -31    1    1    2    0    0 -0.45086705717E+00  0.33795979897E+00  0.61830976756E+02  0.62280383032E+02  0.74470750000E+01 0.  1.
<mgrwt>
<rscale>  0 0.14947194E+02</rscale>
<asrwt>0</asrwt>
<pdfrwt beam="2">  1        2 0.99160759E+00 0.14947194E+02</pdfrwt>
<pdfrwt beam="1">  1       -2 0.99307921E+00 0.14947194E+02</pdfrwt>
<totfact>-0.13712767E-13</totfact>
</mgrwt>
</event>
<event>
 4    1 -0.5011189E-019  0.1497686E+02  0.7818608E-02  0.1868775E+00
          2   -1    0    0  501    0  0.00000000000E+00  0.00000000000E+00  0.12003975001E+03  0.12003975004E+03  0.25500000000E-02 0. -1.
         -2   -1    0    0    0  501 -0.00000000000E+00 -0.00000000000E+00 -0.46714690779E+00  0.46715386754E+00  0.25500000000E-02 0.  1.
         31    1    1    2    0    0 -0.46692092288E+00 -0.55088162046E+00  0.57290586988E+02  0.57777086887E+02  0.74470750000E+01 0.  1.
        -31    1    1    2    0    0  0.46692092288E+00  0.55088162046E+00  0.62282016113E+02  0.62729817016E+02  0.74470750000E+01 0. -1.
<mgrwt>
<rscale>  0 0.14976865E+02</rscale>
<asrwt>0</asrwt>
<pdfrwt beam="1">  1        2 0.99643540E+00 0.14976865E+02</pdfrwt>
<pdfrwt beam="2">  1       -2 0.99219504E+00 0.14976865E+02</pdfrwt>
<totfact>-0.69774960E-14</totfact>
</mgrwt>
</event>
<event>
 4    1 -0.5011189E-019  0.1499434E+02  0.7818608E-02  0.1868241E+00
         -2   -1    0    0    0  501 -0.00000000000E+00  0.00000000000E+00  0.11977888437E+03  0.11977888439E+03  0.25500000000E-02 0. -1.
          2   -1    0    0  501    0  0.00000000000E+00 -0.00000000000E+00 -0.46925755102E+00  0.46926447947E+00  0.25500000000E-02 0.  1.
         31    1    1    2    0    0 -0.13599336073E+00  0.83223917057E+00  0.58101378113E+02  0.58582763514E+02  0.74470750000E+01 0.  1.
        -31    1    1    2    0    0  0.13599336073E+00 -0.83223917057E+00  0.61208248704E+02  0.61665385361E+02  0.74470750000E+01 0.  1.
<mgrwt>
<rscale>  0 0.14994341E+02</rscale>
<asrwt>0</asrwt>
<pdfrwt beam="2">  1        2 0.99665195E+00 0.14994341E+02</pdfrwt>
<pdfrwt beam="1">  1       -2 0.99429583E+00 0.14994341E+02</pdfrwt>
<totfact>-0.94060156E-14</totfact>
</mgrwt>
</event>
<event>
 4    1  0.5011189E-019  0.1492488E+02  0.7818608E-02  0.1870369E+00
          2   -1    0    0  501    0  0.00000000000E+00  0.00000000000E+00  0.12027051323E+03  0.12027051326E+03  0.25500000000E-02 0.  1.
         -2   -1    0    0    0  501 -0.00000000000E+00 -0.00000000000E+00 -0.46301959107E+00  0.46302661286E+00  0.25500000000E-02 0. -1.
         31    1    1    2    0    0 -0.54405290371E-01 -0.29140422977E+00  0.62943762389E+02  0.63383468082E+02  0.74470750000E+01 0.  1.
        -31    1    1    2    0    0  0.54405290371E-01  0.29140422977E+00  0.56863731251E+02  0.57350071789E+02  0.74470750000E+01 0. -1.
<mgrwt>
<rscale>  0 0.14924882E+02</rscale>
<asrwt>0</asrwt>
<pdfrwt beam="1">  1        2 0.99830938E+00 0.14924882E+02</pdfrwt>
<pdfrwt beam="2">  1       -2 0.98346990E+00 0.14924882E+02</pdfrwt>
<totfact> 0.34414346E-13</totfact>
</mgrwt>
</event>
<event>
 4    1 -0.5011189E-019  0.1494093E+02  0.7818608E-02  0.1869876E+00
         -2   -1    0    0    0  501 -0.00000000000E+00  0.00000000000E+00  0.12019241262E+03  0.12019241265E+03  0.25500000000E-02 0.  1.
          2   -1    0    0  501    0  0.00000000000E+00 -0.00000000000E+00 -0.46431737460E+00  0.46432437676E+00  0.25500000000E-02 0. -1.
         31    1    1    2    0    0  0.13584506707E+00 -0.55851559144E+00  0.60963334055E+02  0.61419194220E+02  0.74470750000E+01 0.  1.
        -31    1    1    2    0    0 -0.13584506707E+00  0.55851559144E+00  0.58764761194E+02  0.59237542807E+02  0.74470750000E+01 0.  1.
<mgrwt>
<rscale>  0 0.14940930E+02</rscale>
<asrwt>0</asrwt>
<pdfrwt beam="2">  1        2 0.98621333E+00 0.14940930E+02</pdfrwt>
<pdfrwt beam="1">  1       -2 0.99767432E+00 0.14940930E+02</pdfrwt>
<totfact>-0.19184374E-13</totfact>
</mgrwt>
</event>
<event>
 4    1  0.5011189E-019  0.1491633E+02  0.7818608E-02  0.1870633E+00
          2   -1    0    0  501    0  0.00000000000E+00  0.00000000000E+00  0.11997709010E+03  0.11997709013E+03  0.25500000000E-02 0. -1.
         -2   -1    0    0    0  501 -0.00000000000E+00 -0.00000000000E+00 -0.46362009626E+00  0.46362710895E+00  0.25500000000E-02 0.  1.
         31    1    1    2    0    0 -0.23058789456E-01 -0.20325394985E+00  0.62593651207E+02  0.63035434014E+02  0.74470750000E+01 0. -1.
        -31    1    1    2    0    0  0.23058789456E-01  0.20325394985E+00  0.56919818798E+02  0.57405283224E+02  0.74470750000E+01 0. -1.
<mgrwt>
<rscale>  0 0.14916329E+02</rscale>
<asrwt>0</asrwt>
<pdfrwt beam="1">  1        2 0.99588812E+00 0.14916329E+02</pdfrwt>
<pdfrwt beam="2">  1       -2 0.98473123E+00 0.14916329E+02</pdfrwt>
<totfact> 0.46958147E-13</totfact>
</mgrwt>
</event>
<event>
 4    1 -0.5011189E-019  0.1490194E+02  0.7818608E-02  0.1871076E+00
          2   -1    0    0  501    0  0.00000000000E+00  0.00000000000E+00  0.11832211720E+03  0.11832211723E+03  0.25500000000E-02 0. -1.
         -2   -1    0    0    0  501 -0.00000000000E+00 -0.00000000000E+00 -0.46919817999E+00  0.46920510931E+00  0.25500000000E-02 0.  1.
         31    1    1    2    0    0  0.20642054252E+00 -0.47537058197E-01  0.59840234594E+02  0.60302217800E+02  0.74470750000E+01 0. -1.
        -31    1    1    2    0    0 -0.20642054252E+00  0.47537058197E-01  0.58012684427E+02  0.58489104538E+02  0.74470750000E+01 0.  1.
<mgrwt>
<rscale>  0 0.14901937E+02</rscale>
<asrwt>0</asrwt>
<pdfrwt beam="1">  1        2 0.98224977E+00 0.14901937E+02</pdfrwt>
<pdfrwt beam="2">  1       -2 0.99647848E+00 0.14901937E+02</pdfrwt>
<totfact>-0.48470961E-13</totfact>
</mgrwt>
</event>
<event>
 4    1 -0.5011189E-019  0.1492416E+02  0.7818608E-02  0.1870392E+00
          2   -1    0    0  501    0  0.00000000000E+00  0.00000000000E+00  0.11931981214E+03  0.11931981217E+03  0.25500000000E-02 0. -1.
         -2   -1    0    0    0  501 -0.00000000000E+00 -0.00000000000E+00 -0.46666357014E+00  0.46667053710E+00  0.25500000000E-02 0.  1.
         31    1    1    2    0    0 -0.35859511272E+00  0.33424937276E-01  0.61887336333E+02  0.62334830008E+02  0.74470750000E+01 0. -1.
        -31    1    1    2    0    0  0.35859511272E+00 -0.33424937276E-01  0.56965812241E+02  0.57451652701E+02  0.74470750000E+01 0. -1.
<mgrwt>
<rscale>  0 0.14924159E+02</rscale>
<asrwt>0</asrwt>
<pdfrwt beam="1">  1        2 0.99047845E+00 0.14924159E+02</pdfrwt>
<pdfrwt beam="2">  1       -2 0.99114928E+00 0.14924159E+02</pdfrwt>
<totfact>-0.68957814E-14</totfact>
</mgrwt>
</event>
<event>
 4    1  0.5011189E-019  0.1490705E+02  0.7818608E-02  0.1870918E+00
          2   -1    0    0  501    0  0.00000000000E+00  0.00000000000E+00  0.12014292033E+03  0.12014292035E+03  0.25500000000E-02 0. -1.
         -2   -1    0    0    0  501 -0.00000000000E+00 -0.00000000000E+00 -0.46240446809E+00  0.46241149922E+00  0.25500000000E-02 0.  1.
         31    1    1    2    0    0  0.22320486601E+00  0.19047521921E+00  0.60650176813E+02  0.61106374256E+02  0.74470750000E+01 0. -1.
        -31    1    1    2    0    0 -0.22320486601E+00 -0.19047521921E+00  0.59030339045E+02  0.59498957596E+02  0.74470750000E+01 0. -1.
<mgrwt>
<rscale>  0 0.14907052E+02</rscale>
<asrwt>0</asrwt>
<pdfrwt beam="1">  1        2 0.99724927E+00 0.14907052E+02</pdfrwt>
<pdfrwt beam="2">  1       -2 0.98216439E+00 0.14907052E+02</pdfrwt>
<totfact> 0.66047816E-13</totfact>
</mgrwt>
</event>
<event>
 4    1 -0.5011189E-019  0.1491018E+02  0.7818608E-02  0.1870822E+00
         -2   -1    0    0    0  501 -0.00000000000E+00  0.00000000000E+00  0.12044860601E+03  0.12044860603E+03  0.25500000000E-02 0. -1.
          2   -1    0    0  501    0  0.00000000000E+00 -0.00000000000E+00 -0.46142453748E+00  0.46143158354E+00  0.25500000000E-02 0.  1.
         31    1    1    2    0    0 -0.26377197765E+00  0.14043855963E+00  0.58585636074E+02  0.59057810481E+02  0.74470750000E+01 0.  1.
        -31    1    1    2    0    0  0.26377197765E+00 -0.14043855963E+00  0.61401545396E+02  0.61852227136E+02  0.74470750000E+01 0.  1.
<mgrwt>
<rscale>  0 0.14910180E+02</rscale>
<asrwt>0</asrwt>
<pdfrwt beam="2">  1        2 0.98010049E+00 0.14910180E+02</pdfrwt>
<pdfrwt beam="1">  1       -2 0.99976879E+00 0.14910180E+02</pdfrwt>
<totfact>-0.62808017E-14</totfact>
</mgrwt>
</event>
<event>
 4    1  0.5011189E-019  0.1492974E+02  0.7818608E-02  0.1870220E+00
         -2   -1    0    0    0  501 -0.00000000000E+00  0.00000000000E+00  0.11875968659E+03  0.11875968662E+03  0.25500000000E-02 0.  1.
          2   -1    0    0  501    0  0.00000000000E+00 -0.00000000000E+00 -0.46921526519E+00  0.46922219427E+00  0.25500000000E-02 0. -1.
         31    1    1    2    0    0 -0.51402348501E+00 -0.24043543508E-01  0.59332226020E+02  0.59799972983E+02  0.74470750000E+01 0. -1.
        -31    1    1    2    0    0  0.51402348501E+00  0.24043543508E-01  0.58958245304E+02  0.59428935828E+02  0.74470750000E+01 0.  1.
<mgrwt>
<rscale>  0 0.14929738E+02</rscale>
<asrwt>0</asrwt>
<pdfrwt beam="2">  1        2 0.99652912E+00 0.14929738E+02</pdfrwt>
<pdfrwt beam="1">  1       -2 0.98586804E+00 0.14929738E+02</pdfrwt>
<totfact> 0.30246546E-13</totfact>
</mgrwt>
</event>
<event>
 4    1 -0.5011189E-019  0.1490833E+02  0.7818608E-02  0.1870879E+00
          2   -1    0    0  501    0  0.00000000000E+00  0.00000000000E+00  0.11875196081E+03  0.11875196084E+03  0.25500000000E-02 0.  1.
         -2   -1    0    0    0  501 -0.00000000000E+00 -0.00000000000E+00 -0.46790117267E+00  0.46790812120E+00  0.25500000000E-02 0. -1.
         31    1    1    2    0    0  0.75537402797E-01 -0.13160265601E+00  0.56843070080E+02  0.57329020290E+02  0.74470750000E+01 0. -1.
        -31    1    1    2    0    0 -0.75537402797E-01  0.13160265601E+00  0.61440989555E+02  0.61890848667E+02  0.74470750000E+01 0.  1.
<mgrwt>
<rscale>  0 0.14908333E+02</rscale>
<asrwt>0</asrwt>
<pdfrwt beam="1">  1        2 0.98579329E+00 0.14908333E+02</pdfrwt>
<pdfrwt beam="2">  1       -2 0.99374897E+00 0.14908333E+02</pdfrwt>
<totfact>-0.29365613E-13</totfact>
</mgrwt>
</event>
<event>
 4    1 -0.5011189E-019  0.1492396E+02  0.7818608E-02  0.1870398E+00
         -2   -1    0    0    0  501 -0.00000000000E+00  0.00000000000E+00  0.11994028512E+03  0.11994028515E+03  0.25500000000E-02 0.  1.
          2   -1    0    0  501    0  0.00000000000E+00 -0.00000000000E+00 -0.46423700446E+00  0.46424400784E+00  0.25500000000E-02 0. -1.
         31    1    1    2    0    0 -0.32841298629E+00 -0.28855383876E+00  0.58315298053E+02  0.58790509705E+02  0.74470750000E+01 0.  1.
        -31    1    1    2    0    0  0.32841298629E+00  0.28855383876E+00  0.61160750065E+02  0.61614019451E+02  0.74470750000E+01 0.  1.
<mgrwt>
<rscale>  0 0.14923960E+02</rscale>
<asrwt>0</asrwt>
<pdfrwt beam="2">  1        2 0.98603531E+00 0.14923960E+02</pdfrwt>
<pdfrwt beam="1">  1       -2 0.99558889E+00 0.14923960E+02</pdfrwt>
<totfact>-0.28688041E-13</totfact>
</mgrwt>
</event>
<event>
 4    1 -0.5011189E-019  0.1492532E+02  0.7818608E-02  0.1870356E+00
          2   -1    0    0  501    0  0.00000000000E+00  0.00000000000E+00  0.11918123577E+03  0.11918123580E+03  0.25500000000E-02 0. -1.
         -2   -1    0    0    0  501 -0.00000000000E+00 -0.00000000000E+00 -0.46727895063E+00  0.46728590841E+00  0.25500000000E-02 0.  1.
         31    1    1    2    0    0  0.48501932547E-01  0.43073106320E+00  0.61047921976E+02  0.61501996596E+02  0.74470750000E+01 0. -1.
        -31    1    1    2    0    0 -0.48501932547E-01 -0.43073106320E+00  0.57666034844E+02  0.58146525110E+02  0.74470750000E+01 0.  1.
<mgrwt>
<rscale>  0 0.14925321E+02</rscale>
<asrwt>0</asrwt>
<pdfrwt beam="1">  1        2 0.98933769E+00 0.14925321E+02</pdfrwt>
<pdfrwt beam="2">  1       -2 0.99244667E+00 0.14925321E+02</pdfrwt>
<totfact>-0.14613962E-13</totfact>
</mgrwt>
</event>
<event>
 4    1 -0.5011189E-019  0.1498792E+02  0.7818608E-02  0.1868437E+00
         -2   -1    0    0    0  501 -0.00000000000E+00  0.00000000000E+00  0.12003125515E+03  0.12003125518E+03  0.25500000000E-02 0.  1.
          2   -1    0    0  501    0  0.00000000000E+00 -0.00000000000E+00 -0.46786982528E+00  0.46787677428E+00  0.25500000000E-02 0. -1.
         31    1    1    2    0    0 -0.93438504110E-01 -0.82847316612E+00  0.59190998855E+02  0.59663459253E+02  0.74470750000E+01 0.  1.
        -31    1    1    2    0    0  0.93438504110E-01  0.82847316612E+00  0.60372386468E+02  0.60835672697E+02  0.74470750000E+01 0.  1.
<mgrwt>
<rscale>  0 0.14987918E+02</rscale>
<asrwt>0</asrwt>
<pdfrwt beam="2">  1        2 0.99372422E+00 0.14987918E+02</pdfrwt>
<pdfrwt beam="1">  1       -2 0.99637113E+00 0.14987918E+02</pdfrwt>
<totfact>-0.11961510E-13</totfact>
</mgrwt>
</event>
<event>
 4    1 -0.5011189E-019  0.1490051E+02  0.7818608E-02  0.1871120E+00
          2   -1    0    0  501    0  0.00000000000E+00  0.00000000000E+00  0.11806017382E+03  0.11806017385E+03  0.25500000000E-02 0. -1.
         -2   -1    0    0    0  501 -0.00000000000E+00 -0.00000000000E+00 -0.47014890604E+00  0.47015582135E+00  0.25500000000E-02 0.  1.
         31    1    1    2    0    0 -0.20681239039E+00  0.27658324849E-01  0.58303960968E+02  0.58778008872E+02  0.74470750000E+01 0. -1.
        -31    1    1    2    0    0  0.20681239039E+00 -0.27658324849E-01  0.59286063944E+02  0.59752320795E+02  0.74470750000E+01 0. -1.
<mgrwt>
<rscale>  0 0.14900506E+02</rscale>
<asrwt>0</asrwt>
<pdfrwt beam="1">  1        2 0.98009170E+00 0.14900506E+02</pdfrwt>
<pdfrwt beam="2">  1       -2 0.99848083E+00 0.14900506E+02</pdfrwt>
<totfact>-0.37230755E-13</totfact>
</mgrwt>
</event>
<event>
 4    1 -0.5011189E-019  0.1499210E+02  0.7818608E-02  0.1868310E+00
          2   -1    0    0  501    0  0.00000000000E+00  0.00000000000E+00  0.11948102350E+03  0.11948102353E+03  0.25500000000E-02 0.  1.
         -2   -1    0    0    0  501 -0.00000000000E+00 -0.00000000000E+00 -0.47028656023E+00  0.47029347351E+00  0.25500000000E-02 0. -1.
         31    1    1    2    0    0 -0.64512063615E+00  0.55529087231E+00  0.60188089587E+02  0.60653026164E+02  0.74470750000E+01 0. -1.
        -31    1    1    2    0    0  0.64512063615E+00 -0.55529087231E+00  0.58822647356E+02  0.59298290840E+02  0.74470750000E+01 0.  1.
<mgrwt>
<rscale>  0 0.14992096E+02</rscale>
<asrwt>0</asrwt>
<pdfrwt beam="1">  1        2 0.99184141E+00 0.14992096E+02</pdfrwt>
<pdfrwt beam="2">  1       -2 0.99881914E+00 0.14992096E+02</pdfrwt>
<totfact>-0.57929581E-14</totfact>
</mgrwt>
</event>
<event>
 4    1 -0.5011189E-019  0.1493776E+02  0.7818608E-02  0.1869974E+00
         -2   -1    0    0    0  501 -0.00000000000E+00  0.00000000000E+00  0.12007756441E+03  0.12007756444E+03  0.25500000000E-02 0.  1.
          2   -1    0    0  501    0  0.00000000000E+00 -0.00000000000E+00 -0.46456409977E+00  0.46457109821E+00  0.25500000000E-02 0. -1.
         31    1    1    2    0    0 -0.47180671521E+00 -0.31376149908E+00  0.60327921575E+02  0.60788470086E+02  0.74470750000E+01 0.  1.
        -31    1    1    2    0    0  0.47180671521E+00  0.31376149908E+00  0.59285078736E+02  0.59753665449E+02  0.74470750000E+01 0.  1.
<mgrwt>
<rscale>  0 0.14937757E+02</rscale>
<asrwt>0</asrwt>
<pdfrwt beam="2">  1        2 0.98673172E+00 0.14937757E+02</pdfrwt>
<pdfrwt beam="1">  1       -2 0.99672672E+00 0.14937757E+02</pdfrwt>
<totfact>-0.22459372E-13</totfact>
</mgrwt>
</event>
<event>
 4    1 -0.5011189E-019  0.1490099E+02  0.7818608E-02  0.1871105E+00
          2   -1    0    0  501    0  0.00000000000E+00  0.00000000000E+00  0.11857451431E+03  0.11857451434E+03  0.25500000000E-02 0. -1.
         -2   -1    0    0    0  501 -0.00000000000E+00 -0.00000000000E+00 -0.46814005470E+00  0.46814699969E+00  0.25500000000E-02 0.  1.
         31    1    1    2    0    0  0.10885481460E+00  0.18021249468E+00  0.58402071436E+02  0.58875336092E+02  0.74470750000E+01 0. -1.
        -31    1    1    2    0    0 -0.10885481460E+00 -0.18021249468E+00  0.59704302817E+02  0.60167325243E+02  0.74470750000E+01 0. -1.
<mgrwt>
<rscale>  0 0.14900993E+02</rscale>
<asrwt>0</asrwt>
<pdfrwt beam="1">  1        2 0.98432801E+00 0.14900993E+02</pdfrwt>
<pdfrwt beam="2">  1       -2 0.99424847E+00 0.14900993E+02</pdfrwt>
<totfact>-0.38453530E-13</totfact>
</mgrwt>
</event>
<event>
 4    1 -0.5011189E-019  0.1492069E+02  0.7818608E-02  0.1870498E+00
          2   -1    0    0  501    0  0.00000000000E+00  0.00000000000E+00  0.11918872188E+03  0.11918872191E+03  0.25500000000E-02 0.  1.
         -2   -1    0    0    0  501 -0.00000000000E+00 -0.00000000000E+00 -0.46695967135E+00  0.46696663389E+00  0.25500000000E-02 0. -1.
         31    1    1    2    0    0 -0.97107748082E-01  0.38953553977E+00  0.60896153525E+02  0.61351133714E+02  0.74470750000E+01 0.  1.
        -31    1    1    2    0    0  0.97107748082E-01 -0.38953553977E+00  0.57825608682E+02  0.58304554825E+02  0.74470750000E+01 0. -1.
<mgrwt>
<rscale>  0 0.14920690E+02</rscale>
<asrwt>0</asrwt>
<pdfrwt beam="1">  1        2 0.98939695E+00 0.14920690E+02</pdfrwt>
<pdfrwt beam="2">  1       -2 0.99177146E+00 0.14920690E+02</pdfrwt>
<totfact>-0.11366120E-13</totfact>
</mgrwt>
</event>
<event>
 4    1 -0.5011189E-019  0.1489452E+02  0.7818608E-02  0.1871304E+00
         -2   -1    0    0    0  501 -0.00000000000E+00  0.00000000000E+00  0.12003970841E+03  0.12003970844E+03  0.25500000000E-02 0. -1.
          2   -1    0    0  501    0  0.00000000000E+00 -0.00000000000E+00 -0.46202437901E+00  0.46203141592E+00  0.25500000000E-02 0.  1.
         31    1    1    2    0    0 -0.63010731014E-02  0.42401672633E-01  0.60036052811E+02  0.60496185010E+02  0.74470750000E+01 0. -1.
        -31    1    1    2    0    0  0.63010731014E-02 -0.42401672633E-01  0.59541631223E+02  0.60005554846E+02  0.74470750000E+01 0. -1.
<mgrwt>
<rscale>  0 0.14894522E+02</rscale>
<asrwt>0</asrwt>
<pdfrwt beam="2">  1        2 0.98135694E+00 0.14894522E+02</pdfrwt>
<pdfrwt beam="1">  1       -2 0.99639270E+00 0.14894522E+02</pdfrwt>
<totfact>-0.57069886E-13</totfact>
</mgrwt>
</event>
<event>
 4    1  0.5011189E-019  0.1491158E+02  0.7818608E-02  0.1870779E+00
          2   -1    0    0  501    0  0.00000000000E+00  0.00000000000E+00  0.12009065812E+03  0.12009065815E+03  0.25500000000E-02 0. -1.
         -2   -1    0    0    0  501 -0.00000000000E+00 -0.00000000000E+00 -0.46288651207E+00  0.46289353588E+00  0.25500000000E-02 0.  1.
         31    1    1    2    0    0 -0.30198837062E+00  0.17273750216E-01  0.58230684618E+02  0.58705732706E+02  0.74470750000E+01 0. -1.
        -31    1    1    2    0    0  0.30198837062E+00 -0.17273750216E-01  0.61397086990E+02  0.61847818977E+02  0.74470750000E+01 0. -1.
<mgrwt>
<rscale>  0 0.14911575E+02</rscale>
<asrwt>0</asrwt>
<pdfrwt beam="1">  1        2 0.99682111E+00 0.14911575E+02</pdfrwt>
<pdfrwt beam="2">  1       -2 0.98318268E+00 0.14911575E+02</pdfrwt>
<totfact> 0.58672701E-13</totfact>
</mgrwt>
</event>
<event>
 4    1  0.5011189E-019  0.1489735E+02  0.7818608E-02  0.1871217E+00
         -2   -1    0    0    0  501 -0.00000000000E+00  0.00000000000E+00  0.11916494719E+03  0.11916494722E+03  0.25500000000E-02 0.  1.
          2   -1    0    0  501    0  0.00000000000E+00 -0.00000000000E+00 -0.46559270730E+00  0.46559969029E+00  0.25500000000E-02 0. -1.
         31    1    1    2    0    0 -0.11299712050E+00 -0.10461667262E+00  0.59434146703E+02  0.59899085413E+02  0.74470750000E+01 0. -1.
        -31    1    1    2    0    0  0.11299712050E+00  0.10461667262E+00  0.59265207779E+02  0.59731461494E+02  0.74470750000E+01 0. -1.
<mgrwt>
<rscale>  0 0.14897349E+02</rscale>
<asrwt>0</asrwt>
<pdfrwt beam="2">  1        2 0.98887875E+00 0.14897349E+02</pdfrwt>
<pdfrwt beam="1">  1       -2 0.98918906E+00 0.14897349E+02</pdfrwt>
<totfact> 0.99645951E-14</totfact>
</mgrwt>
</event>
<event>
 4    1  0.5011189E-019  0.1491019E+02  0.7818608E-02  0.1870822E+00
         -2   -1    0    0    0  501 -0.00000000000E+00  0.00000000000E+00  0.11823478201E+03  0.11823478204E+03  0.25500000000E-02 0. -1.
          2   -1    0    0  501    0  0.00000000000E+00 -0.00000000000E+00 -0.47006494502E+00  0.47007186156E+00  0.25500000000E-02 0.  1.
         31    1    1    2    0    0  0.13434809228E+00 -0.31595250336E-02  0.56346542391E+02  0.56836694352E+02  0.74470750000E+01 0.  1.
        -31    1    1    2    0    0 -0.13434809228E+00  0.31595250336E-02  0.61418174672E+02  0.61868159545E+02  0.74470750000E+01 0.  1.
<mgrwt>
<rscale>  0 0.14910190E+02</rscale>
<asrwt>0</asrwt>
<pdfrwt beam="2">  1        2 0.99830908E+00 0.14910190E+02</pdfrwt>
<pdfrwt beam="1">  1       -2 0.98153479E+00 0.14910190E+02</pdfrwt>
<totfact> 0.51633935E-13</totfact>
</mgrwt>
</event>
<event>
 4    1  0.5011189E-019  0.1491138E+02  0.7818608E-02  0.1870785E+00
          2   -1    0    0  501    0  0.00000000000E+00  0.00000000000E+00  0.11947558657E+03  0.11947558659E+03  0.25500000000E-02 0.  1.
         -2   -1    0    0    0  501 -0.00000000000E+00 -0.00000000000E+00 -0.46525725663E+00  0.46526424465E+00  0.25500000000E-02 0. -1.
         31    1    1    2    0    0  0.25554077806E+00  0.18278694461E+00  0.60890579387E+02  0.61345091868E+02  0.74470750000E+01 0.  1.
        -31    1    1    2    0    0 -0.25554077806E+00 -0.18278694461E+00  0.58119749922E+02  0.58595758970E+02  0.74470750000E+01 0. -1.
<mgrwt>
<rscale>  0 0.14911379E+02</rscale>
<asrwt>0</asrwt>
<pdfrwt beam="1">  1        2 0.99175487E+00 0.14911379E+02</pdfrwt>
<pdfrwt beam="2">  1       -2 0.98817906E+00 0.14911379E+02</pdfrwt>
<totfact> 0.17579406E-13</totfact>
</mgrwt>
</event>
<event>
 4    1  0.5011189E-019  0.1489928E+02  0.7818608E-02  0.1871158E+00
          2   -1    0    0  501    0  0.00000000000E+00  0.00000000000E+00  0.11997558124E+03  0.11997558127E+03  0.25500000000E-02 0. -1.
         -2   -1    0    0    0  501 -0.00000000000E+00 -0.00000000000E+00 -0.46256642940E+00  0.46257345807E+00  0.25500000000E-02 0.  1.
         31    1    1    2    0    0 -0.62774044322E-01  0.27693915990E-01  0.61235312037E+02  0.61686522627E+02  0.74470750000E+01 0. -1.
        -31    1    1    2    0    0  0.62774044322E-01 -0.27693915990E-01  0.58277702778E+02  0.58751632102E+02  0.74470750000E+01 0.  1.
<mgrwt>
<rscale>  0 0.14899275E+02</rscale>
<asrwt>0</asrwt>
<pdfrwt beam="1">  1        2 0.99586693E+00 0.14899275E+02</pdfrwt>
<pdfrwt beam="2">  1       -2 0.98250182E+00 0.14899275E+02</pdfrwt>
<totfact> 0.79891914E-13</totfact>
</mgrwt>
</event>
<event>
 4    1  0.5011189E-019  0.1489711E+02  0.7818608E-02  0.1871224E+00
         -2   -1    0    0    0  501 -0.00000000000E+00  0.00000000000E+00  0.11810548909E+03  0.11810548912E+03  0.25500000000E-02 0. -1.
          2   -1    0    0  501    0  0.00000000000E+00 -0.00000000000E+00 -0.46975457177E+00  0.46976149288E+00  0.25500000000E-02 0.  1.
         31    1    1    2    0    0 -0.11643605066E+00 -0.10656142784E-01  0.59547744888E+02  0.60011719841E+02  0.74470750000E+01 0. -1.
        -31    1    1    2    0    0  0.11643605066E+00  0.10656142784E-01  0.58087989631E+02  0.58563530771E+02  0.74470750000E+01 0.  1.
<mgrwt>
<rscale>  0 0.14897115E+02</rscale>
<asrwt>0</asrwt>
<pdfrwt beam="2">  1        2 0.99764821E+00 0.14897115E+02</pdfrwt>
<pdfrwt beam="1">  1       -2 0.98046313E+00 0.14897115E+02</pdfrwt>
<totfact> 0.81165801E-13</totfact>
</mgrwt>
</event>
<event>
 4    1 -0.5011189E-019  0.1495914E+02  0.7818608E-02  0.1869318E+00
          2   -1    0    0  501    0  0.00000000000E+00  0.00000000000E+00  0.11952283267E+03  0.11952283270E+03  0.25500000000E-02 0. -1.
         -2   -1    0    0    0  501 -0.00000000000E+00 -0.00000000000E+00 -0.46805715121E+00  0.46806409742E+00  0.25500000000E-02 0.  1.
         31    1    1    2    0    0 -0.31980088647E+00 -0.46417198058E+00  0.56246701898E+02  0.56740357143E+02  0.74470750000E+01 0.  1.
        -31    1    1    2    0    0  0.31980088647E+00  0.46417198058E+00  0.62808073619E+02  0.63250539650E+02  0.74470750000E+01 0. -1.
<mgrwt>
<rscale>  0 0.14959136E+02</rscale>
<asrwt>0</asrwt>
<pdfrwt beam="1">  1        2 0.99216869E+00 0.14959136E+02</pdfrwt>
<pdfrwt beam="2">  1       -2 0.99410411E+00 0.14959136E+02</pdfrwt>
<totfact>-0.14723615E-13</totfact>
</mgrwt>
</event>
<event>
 4    1 -0.5011189E-019  0.1490810E+02  0.7818608E-02  0.1870886E+00
          2   -1    0    0  501    0  0.00000000000E+00  0.00000000000E+00  0.11820947931E+03  0.11820947933E+03  0.25500000000E-02 0. -1.
         -2   -1    0    0    0  501 -0.00000000000E+00 -0.00000000000E+00 -0.47003359000E+00  0.47004050701E+00  0.25500000000E-02 0.  1.
         31    1    1    2    0    0  0.17651218108E+00 -0.45858846496E-01  0.56753716535E+02  0.57240514726E+02  0.74470750000E+01 0.  1.
        -31    1    1    2    0    0 -0.17651218108E+00  0.45858846496E-01  0.60985729181E+02  0.61439005113E+02  0.74470750000E+01 0.  1.
<mgrwt>
<rscale>  0 0.14908097E+02</rscale>
<asrwt>0</asrwt>
<pdfrwt beam="1">  1        2 0.98132531E+00 0.14908097E+02</pdfrwt>
<pdfrwt beam="2">  1       -2 0.99824191E+00 0.14908097E+02</pdfrwt>
<totfact>-0.34342877E-13</totfact>
</mgrwt>
</event>
<event>
 4    1 -0.5011189E-019  0.1496460E+02  0.7818608E-02  0.1869151E+00
         -2   -1    0    0    0  501 -0.00000000000E+00  0.00000000000E+00  0.12009509972E+03  0.12009509975E+03  0.25500000000E-02 0. -1.
          2   -1    0    0  501    0  0.00000000000E+00 -0.00000000000E+00 -0.46616688892E+00  0.46617386330E+00  0.25500000000E-02 0.  1.
         31    1    1    2    0    0 -0.60351524747E+00 -0.40200984225E+00  0.59786049165E+02  0.60252439314E+02  0.74470750000E+01 0. -1.
        -31    1    1    2    0    0  0.60351524747E+00  0.40200984225E+00  0.59842883669E+02  0.60308834298E+02  0.74470750000E+01 0.  1.
<mgrwt>
<rscale>  0 0.14964596E+02</rscale>
<asrwt>0</asrwt>
<pdfrwt beam="2">  1        2 0.99012338E+00 0.14964596E+02</pdfrwt>
<pdfrwt beam="1">  1       -2 0.99688496E+00 0.14964596E+02</pdfrwt>
<totfact>-0.14482671E-13</totfact>
</mgrwt>
</event>
<event>
 4    1 -0.5011189E-019  0.1497325E+02  0.7818608E-02  0.1868886E+00
          2   -1    0    0  501    0  0.00000000000E+00  0.00000000000E+00  0.11931704542E+03  0.11931704545E+03  0.25500000000E-02 0. -1.
         -2   -1    0    0    0  501 -0.00000000000E+00 -0.00000000000E+00 -0.46974969922E+00  0.46975662041E+00  0.25500000000E-02 0.  1.
         31    1    1    2    0    0 -0.75922504339E+00  0.11226715767E+00  0.59744621258E+02  0.60211856988E+02  0.74470750000E+01 0.  1.
        -31    1    1    2    0    0  0.75922504339E+00 -0.11226715767E+00  0.59102674464E+02  0.59574945081E+02  0.74470750000E+01 0. -1.
<mgrwt>
<rscale>  0 0.14973251E+02</rscale>
<asrwt>0</asrwt>
<pdfrwt beam="1">  1        2 0.99048109E+00 0.14973251E+02</pdfrwt>
<pdfrwt beam="2">  1       -2 0.99767804E+00 0.14973251E+02</pdfrwt>
<totfact>-0.11415141E-13</totfact>
</mgrwt>
</event>
<event>
 4    1  0.5011189E-019  0.1494917E+02  0.7818608E-02  0.1869623E+00
         -2   -1    0    0    0  501 -0.00000000000E+00  0.00000000000E+00  0.11889622969E+03  0.11889622971E+03  0.25500000000E-02 0.  1.
          2   -1    0    0  501    0  0.00000000000E+00 -0.00000000000E+00 -0.46989749178E+00  0.46990441079E+00  0.25500000000E-02 0. -1.
         31    1    1    2    0    0 -0.76648565092E-01  0.14486905216E+00  0.64159015724E+02  0.64589976674E+02  0.74470750000E+01 0.  1.
        -31    1    1    2    0    0  0.76648565092E-01 -0.14486905216E+00  0.54267316469E+02  0.54776157449E+02  0.74470750000E+01 0. -1.
<mgrwt>
<rscale>  0 0.14949175E+02</rscale>
<asrwt>0</asrwt>
<pdfrwt beam="2">  1        2 0.99797684E+00 0.14949175E+02</pdfrwt>
<pdfrwt beam="1">  1       -2 0.98700271E+00 0.14949175E+02</pdfrwt>
<totfact> 0.13604656E-13</totfact>
</mgrwt>
</event>
<event>
 4    1  0.5011189E-019  0.1492301E+02  0.7818608E-02  0.1870427E+00
          2   -1    0    0  501    0  0.00000000000E+00  0.00000000000E+00  0.12022192424E+03  0.12022192427E+03  0.25500000000E-02 0.  1.
         -2   -1    0    0    0  501 -0.00000000000E+00 -0.00000000000E+00 -0.46309023926E+00  0.46309725997E+00  0.25500000000E-02 0. -1.
         31    1    1    2    0    0 -0.55875253304E-01 -0.21907407194E+00  0.56604524879E+02  0.57092751539E+02  0.74470750000E+01 0. -1.
        -31    1    1    2    0    0  0.55875253304E-01  0.21907407194E+00  0.63154309122E+02  0.63592269988E+02  0.74470750000E+01 0.  1.
<mgrwt>
<rscale>  0 0.14923006E+02</rscale>
<asrwt>0</asrwt>
<pdfrwt beam="1">  1        2 0.99790820E+00 0.14923006E+02</pdfrwt>
<pdfrwt beam="2">  1       -2 0.98361786E+00 0.14923006E+02</pdfrwt>
<totfact> 0.39348834E-13</totfact>
</mgrwt>
</event>
<event>
 4    1  0.5011189E-019  0.1492701E+02  0.7818608E-02  0.1870304E+00
          2   -1    0    0  501    0  0.00000000000E+00  0.00000000000E+00  0.12020382235E+03  0.12020382238E+03  0.25500000000E-02 0.  1.
         -2   -1    0    0    0  501 -0.00000000000E+00 -0.00000000000E+00 -0.46340850998E+00  0.46341552587E+00  0.25500000000E-02 0. -1.
         31    1    1    2    0    0  0.14119141459E+00  0.44040652098E+00  0.58445064727E+02  0.58919423028E+02  0.74470750000E+01 0. -1.
        -31    1    1    2    0    0 -0.14119141459E+00 -0.44040652098E+00  0.61295349112E+02  0.61747814875E+02  0.74470750000E+01 0.  1.
<mgrwt>
<rscale>  0 0.14927009E+02</rscale>
<asrwt>0</asrwt>
<pdfrwt beam="1">  1        2 0.99776115E+00 0.14927009E+02</pdfrwt>
<pdfrwt beam="2">  1       -2 0.98429070E+00 0.14927009E+02</pdfrwt>
<totfact> 0.35130817E-13</totfact>
</mgrwt>
</event>
<event>
 4    1  0.5011189E-019  0.1495057E+02  0.7818608E-02  0.1869581E+00
          2   -1    0    0  501    0  0.00000000000E+00  0.00000000000E+00  0.12010380772E+03  0.12010380775E+03  0.25500000000E-02 0.  1.
         -2   -1    0    0    0  501 -0.00000000000E+00 -0.00000000000E+00 -0.46525941093E+00  0.46526639892E+00  0.25500000000E-02 0. -1.
         31    1    1    2    0    0  0.63012613136E+00  0.14933128591E+00  0.59500251230E+02  0.59967976297E+02  0.74470750000E+01 0.  1.
        -31    1    1    2    0    0 -0.63012613136E+00 -0.14933128591E+00  0.60138297084E+02  0.60601097853E+02  0.74470750000E+01 0.  1.
<mgrwt>
<rscale>  0 0.14950565E+02</rscale>
<asrwt>0</asrwt>
<pdfrwt beam="1">  1        2 0.99694946E+00 0.14950565E+02</pdfrwt>
<pdfrwt beam="2">  1       -2 0.98820367E+00 0.14950565E+02</pdfrwt>
<totfact> 0.10005633E-13</totfact>
</mgrwt>
</event>
<event>
 4    1 -0.5011189E-019  0.1496611E+02  0.7818608E-02  0.1869104E+00
         -2   -1    0    0    0  501 -0.00000000000E+00  0.00000000000E+00  0.12014354304E+03  0.12014354307E+03  0.25500000000E-02 0.  1.
          2   -1    0    0  501    0  0.00000000000E+00 -0.00000000000E+00 -0.46607348487E+00  0.46608046065E+00  0.25500000000E-02 0. -1.
         31    1    1    2    0    0 -0.39058972404E-01  0.71292913968E+00  0.58504211201E+02  0.58980602302E+02  0.74470750000E+01 0.  1.
        -31    1    1    2    0    0  0.39058972404E-01 -0.71292913968E+00  0.61173258354E+02  0.61629021226E+02  0.74470750000E+01 0.  1.
<mgrwt>
<rscale>  0 0.14966114E+02</rscale>
<asrwt>0</asrwt>
<pdfrwt beam="2">  1        2 0.98992730E+00 0.14966114E+02</pdfrwt>
<pdfrwt beam="1">  1       -2 0.99728475E+00 0.14966114E+02</pdfrwt>
<totfact>-0.13468547E-13</totfact>
</mgrwt>
</event>
<event>
 4    1 -0.5011189E-019  0.1501043E+02  0.7818608E-02  0.1867750E+00
          2   -1    0    0  501    0  0.00000000000E+00  0.00000000000E+00  0.12016603488E+03  0.12016603490E+03  0.25500000000E-02 0.  1.
         -2   -1    0    0    0  501 -0.00000000000E+00 -0.00000000000E+00 -0.46874988057E+00  0.46875681652E+00  0.25500000000E-02 0. -1.
         31    1    1    2    0    0  0.43611387484E+00  0.54945380988E+00  0.64784620354E+02  0.65215014033E+02  0.74470750000E+01 0.  1.
        -31    1    1    2    0    0 -0.43611387484E+00 -0.54945380988E+00  0.54912664643E+02  0.55419777688E+02  0.74470750000E+01 0. -1.
<mgrwt>
<rscale>  0 0.15010428E+02</rscale>
<asrwt>0</asrwt>
<pdfrwt beam="1">  1        2 0.99749286E+00 0.15010428E+02</pdfrwt>
<pdfrwt beam="2">  1       -2 0.99559044E+00 0.15010428E+02</pdfrwt>
<totfact>-0.75573278E-14</totfact>
</mgrwt>
</event>
<event>
 4    1 -0.5011189E-019  0.1493549E+02  0.7818608E-02  0.1870044E+00
          2   -1    0    0  501    0  0.00000000000E+00  0.00000000000E+00  0.11909951574E+03  0.11909951576E+03  0.25500000000E-02 0.  1.
         -2   -1    0    0    0  501 -0.00000000000E+00 -0.00000000000E+00 -0.46823673007E+00  0.46824367362E+00  0.25500000000E-02 0. -1.
         31    1    1    2    0    0 -0.35744708301E-01 -0.15914297976E+00  0.55066970073E+02  0.55568486782E+02  0.74470750000E+01 0. -1.
        -31    1    1    2    0    0  0.35744708301E-01  0.15914297976E+00  0.63564308932E+02  0.63999272654E+02  0.74470750000E+01 0.  1.
<mgrwt>
<rscale>  0 0.14935486E+02</rscale>
<asrwt>0</asrwt>
<pdfrwt beam="1">  1        2 0.98866989E+00 0.14935486E+02</pdfrwt>
<pdfrwt beam="2">  1       -2 0.99447023E+00 0.14935486E+02</pdfrwt>
<totfact>-0.20550390E-13</totfact>
</mgrwt>
</event>
<event>
 4    1  0.5011189E-019  0.1493504E+02  0.7818608E-02  0.1870057E+00
         -2   -1    0    0    0  501 -0.00000000000E+00  0.00000000000E+00  0.11894652321E+03  0.11894652324E+03  0.25500000000E-02 0.  1.
          2   -1    0    0  501    0  0.00000000000E+00 -0.00000000000E+00 -0.46881097145E+00  0.46881790650E+00  0.25500000000E-02 0. -1.
         31    1    1    2    0    0 -0.27848432496E+00 -0.44068722619E+00  0.60694986564E+02  0.61152367729E+02  0.74470750000E+01 0.  1.
        -31    1    1    2    0    0  0.27848432496E+00  0.44068722619E+00  0.57782725674E+02  0.58262973414E+02  0.74470750000E+01 0. -1.
<mgrwt>
<rscale>  0 0.14935039E+02</rscale>
<asrwt>0</asrwt>
<pdfrwt beam="2">  1        2 0.99568002E+00 0.14935039E+02</pdfrwt>
<pdfrwt beam="1">  1       -2 0.98740959E+00 0.14935039E+02</pdfrwt>
<totfact> 0.18965518E-13</totfact>
</mgrwt>
</event>
<event>
 4    1 -0.5011189E-019  0.1497138E+02  0.7818608E-02  0.1868943E+00
         -2   -1    0    0    0  501 -0.00000000000E+00  0.00000000000E+00  0.11985200916E+03  0.11985200919E+03  0.25500000000E-02 0.  1.
          2   -1    0    0  501    0  0.00000000000E+00 -0.00000000000E+00 -0.46753605225E+00  0.46754300621E+00  0.25500000000E-02 0. -1.
         31    1    1    2    0    0  0.63626833945E+00 -0.28731753526E+00  0.62093031502E+02  0.62541912954E+02  0.74470750000E+01 0.  1.
        -31    1    1    2    0    0 -0.63626833945E+00  0.28731753526E+00  0.57291441607E+02  0.57777639241E+02  0.74470750000E+01 0. -1.
<mgrwt>
<rscale>  0 0.14971380E+02</rscale>
<asrwt>0</asrwt>
<pdfrwt beam="2">  1        2 0.99301230E+00 0.14971380E+02</pdfrwt>
<pdfrwt beam="1">  1       -2 0.99488624E+00 0.14971380E+02</pdfrwt>
<totfact>-0.14097353E-13</totfact>
</mgrwt>
</event>
<event>
 4    1 -0.5011189E-019  0.1495440E+02  0.7818608E-02  0.1869463E+00
          2   -1    0    0  501    0  0.00000000000E+00  0.00000000000E+00  0.11901160925E+03  0.11901160928E+03  0.25500000000E-02 0. -1.
         -2   -1    0    0    0  501 -0.00000000000E+00 -0.00000000000E+00 -0.46977038452E+00  0.46977730541E+00  0.25500000000E-02 0.  1.
         31    1    1    2    0    0 -0.63268683118E+00 -0.18958749909E+00  0.60195188938E+02  0.60657694758E+02  0.74470750000E+01 0. -1.
        -31    1    1    2    0    0  0.63268683118E+00  0.18958749909E+00  0.58346649926E+02  0.58823691823E+02  0.74470750000E+01 0.  1.
<mgrwt>
<rscale>  0 0.14954403E+02</rscale>
<asrwt>0</asrwt>
<pdfrwt beam="1">  1        2 0.98795570E+00 0.14954403E+02</pdfrwt>
<pdfrwt beam="2">  1       -2 0.99771176E+00 0.14954403E+02</pdfrwt>
<totfact>-0.14829081E-13</totfact>
</mgrwt>
</event>
<event>
 4    1 -0.5011189E-019  0.1492739E+02  0.7818608E-02  0.1870292E+00
          2   -1    0    0  501    0  0.00000000000E+00  0.00000000000E+00  0.11875705011E+03  0.11875705014E+03  0.25500000000E-02 0.  1.
         -2   -1    0    0    0  501 -0.00000000000E+00 -0.00000000000E+00 -0.46907788258E+00  0.46908481368E+00  0.25500000000E-02 0. -1.
         31    1    1    2    0    0  0.13071192101E+00  0.12686182230E+00  0.62844120937E+02  0.63284086799E+02  0.74470750000E+01 0.  1.
        -31    1    1    2    0    0 -0.13071192101E+00 -0.12686182230E+00  0.55443851292E+02  0.55942048154E+02  0.74470750000E+01 0. -1.
<mgrwt>
<rscale>  0 0.14927387E+02</rscale>
<asrwt>0</asrwt>
<pdfrwt beam="1">  1        2 0.98584510E+00 0.14927387E+02</pdfrwt>
<pdfrwt beam="2">  1       -2 0.99623841E+00 0.14927387E+02</pdfrwt>
<totfact>-0.27691119E-13</totfact>
</mgrwt>
</event>
<event>
 4    1  0.5011189E-019  0.1493356E+02  0.7818608E-02  0.1870103E+00
         -2   -1    0    0    0  501 -0.00000000000E+00  0.00000000000E+00  0.11910166174E+03  0.11910166177E+03  0.25500000000E-02 0.  1.
          2   -1    0    0  501    0  0.00000000000E+00 -0.00000000000E+00 -0.46810765546E+00  0.46811460093E+00  0.25500000000E-02 0. -1.
         31    1    1    2    0    0  0.10476080822E-01  0.11773593764E+00  0.63552954717E+02  0.63987896909E+02  0.74470750000E+01 0.  1.
        -31    1    1    2    0    0 -0.10476080822E-01 -0.11773593764E+00  0.55080599371E+02  0.55581879463E+02  0.74470750000E+01 0. -1.
<mgrwt>
<rscale>  0 0.14933562E+02</rscale>
<asrwt>0</asrwt>
<pdfrwt beam="2">  1        2 0.99419724E+00 0.14933562E+02</pdfrwt>
<pdfrwt beam="1">  1       -2 0.98868657E+00 0.14933562E+02</pdfrwt>
<totfact> 0.10291717E-13</totfact>
</mgrwt>
</event>
<event>
 4    1 -0.5011189E-019  0.1491452E+02  0.7818608E-02  0.1870688E+00
          2   -1    0    0  501    0  0.00000000000E+00  0.00000000000E+00  0.11863961899E+03  0.11863961902E+03  0.25500000000E-02 0.  1.
         -2   -1    0    0    0  501 -0.00000000000E+00 -0.00000000000E+00 -0.46873295619E+00  0.46873989239E+00  0.25500000000E-02 0. -1.
         31    1    1    2    0    0  0.28771128606E+00 -0.16827632705E+00  0.60696438658E+02  0.61152495342E+02  0.74470750000E+01 0.  1.
        -31    1    1    2    0    0 -0.28771128606E+00  0.16827632705E+00  0.57474447378E+02  0.57955863571E+02  0.74470750000E+01 0. -1.
<mgrwt>
<rscale>  0 0.14914518E+02</rscale>
<asrwt>0</asrwt>
<pdfrwt beam="1">  1        2 0.98487125E+00 0.14914518E+02</pdfrwt>
<pdfrwt beam="2">  1       -2 0.99550487E+00 0.14914518E+02</pdfrwt>
<totfact>-0.34696249E-13</totfact>
</mgrwt>
</event>
<event>
 4    1 -0.5011189E-019  0.1502122E+02  0.7818608E-02  0.1867422E+00
          2   -1    0    0  501    0  0.00000000000E+00  0.00000000000E+00  0.12025783055E+03  0.12025783058E+03  0.25500000000E-02 0.  1.
         -2   -1    0    0    0  501 -0.00000000000E+00 -0.00000000000E+00 -0.46906566971E+00  0.46907260099E+00  0.25500000000E-02 0. -1.
         31    1    1    2    0    0  0.83922521488E+00  0.36748243403E+00  0.57217035423E+02  0.57706909560E+02  0.74470750000E+01 0. -1.
        -31    1    1    2    0    0 -0.83922521488E+00 -0.36748243403E+00  0.62571729459E+02  0.63019993620E+02  0.74470750000E+01 0.  1.
<mgrwt>
<rscale>  0 0.15021217E+02</rscale>
<asrwt>0</asrwt>
<pdfrwt beam="1">  1        2 0.99825450E+00 0.15021217E+02</pdfrwt>
<pdfrwt beam="2">  1       -2 0.99626149E+00 0.15021217E+02</pdfrwt>
<totfact>-0.53488140E-14</totfact>
</mgrwt>
</event>
<event>
 4    1 -0.5011189E-019  0.1491534E+02  0.7818608E-02  0.1870663E+00
         -2   -1    0    0    0  501 -0.00000000000E+00  0.00000000000E+00  0.11966726501E+03  0.11966726504E+03  0.25500000000E-02 0.  1.
          2   -1    0    0  501    0  0.00000000000E+00 -0.00000000000E+00 -0.46475913614E+00  0.46476613165E+00  0.25500000000E-02 0. -1.
         31    1    1    2    0    0  0.12735632699E+00  0.18736061220E-01  0.62629694619E+02  0.63071024605E+02  0.74470750000E+01 0.  1.
        -31    1    1    2    0    0 -0.12735632699E+00 -0.18736061220E-01  0.56572811254E+02  0.57061006562E+02  0.74470750000E+01 0. -1.
<mgrwt>
<rscale>  0 0.14915345E+02</rscale>
<asrwt>0</asrwt>
<pdfrwt beam="2">  1        2 0.98713132E+00 0.14915345E+02</pdfrwt>
<pdfrwt beam="1">  1       -2 0.99333569E+00 0.14915345E+02</pdfrwt>
<totfact>-0.22964342E-13</totfact>
</mgrwt>
</event>
<event>
 4    1 -0.5011189E-019  0.1502404E+02  0.7818608E-02  0.1867336E+00
         -2   -1    0    0    0  501 -0.00000000000E+00  0.00000000000E+00  0.12015602766E+03  0.12015602768E+03  0.25500000000E-02 0. -1.
          2   -1    0    0  501    0  0.00000000000E+00 -0.00000000000E+00 -0.46963962884E+00  0.46964655165E+00  0.25500000000E-02 0.  1.
         31    1    1    2    0    0 -0.12096054035E+00  0.96026064825E+00  0.61340812815E+02  0.61798794283E+02  0.74470750000E+01 0.  1.
        -31    1    1    2    0    0  0.12096054035E+00 -0.96026064825E+00  0.58345575211E+02  0.58826879951E+02  0.74470750000E+01 0.  1.
<mgrwt>
<rscale>  0 0.15024041E+02</rscale>
<asrwt>0</asrwt>
<pdfrwt beam="2">  1        2 0.99747249E+00 0.15024041E+02</pdfrwt>
<pdfrwt beam="1">  1       -2 0.99741747E+00 0.15024041E+02</pdfrwt>
<totfact>-0.56471583E-14</totfact>
</mgrwt>
</event>
<event>
 4    1  0.5011189E-019  0.1492848E+02  0.7818608E-02  0.1870259E+00
         -2   -1    0    0    0  501 -0.00000000000E+00  0.00000000000E+00  0.11883179879E+03  0.11883179881E+03  0.25500000000E-02 0.  1.
          2   -1    0    0  501    0  0.00000000000E+00 -0.00000000000E+00 -0.46885174646E+00  0.46885868091E+00  0.25500000000E-02 0. -1.
         31    1    1    2    0    0 -0.42104174245E+00  0.13490018714E+00  0.61147302532E+02  0.61600706223E+02  0.74470750000E+01 0.  1.
        -31    1    1    2    0    0  0.42104174245E+00 -0.13490018714E+00  0.57215644509E+02  0.57699951272E+02  0.74470750000E+01 0. -1.
<mgrwt>
<rscale>  0 0.14928484E+02</rscale>
<asrwt>0</asrwt>
<pdfrwt beam="2">  1        2 0.99576250E+00 0.14928484E+02</pdfrwt>
<pdfrwt beam="1">  1       -2 0.98646131E+00 0.14928484E+02</pdfrwt>
<totfact> 0.27748412E-13</totfact>
</mgrwt>
</event>
<event>
 4    1 -0.5011189E-019  0.1491933E+02  0.7818608E-02  0.1870540E+00
         -2   -1    0    0    0  501 -0.00000000000E+00  0.00000000000E+00  0.12033813955E+03  0.12033813958E+03  0.25500000000E-02 0.  1.
          2   -1    0    0  501    0  0.00000000000E+00 -0.00000000000E+00 -0.46241510169E+00  0.46242213265E+00  0.25500000000E-02 0. -1.
         31    1    1    2    0    0 -0.38409511758E+00  0.16028278948E+00  0.60911300625E+02  0.61366266707E+02  0.74470750000E+01 0.  1.
        -31    1    1    2    0    0  0.38409511758E+00 -0.16028278948E+00  0.58964423825E+02  0.59434295005E+02  0.74470750000E+01 0. -1.
<mgrwt>
<rscale>  0 0.14919330E+02</rscale>
<asrwt>0</asrwt>
<pdfrwt beam="2">  1        2 0.98219300E+00 0.14919330E+02</pdfrwt>
<pdfrwt beam="1">  1       -2 0.99886356E+00 0.14919330E+02</pdfrwt>
<totfact>-0.20271220E-13</totfact>
</mgrwt>
</event>
<event>
 4    1 -0.5011189E-019  0.1495473E+02  0.7818608E-02  0.1869453E+00
          2   -1    0    0  501    0  0.00000000000E+00  0.00000000000E+00  0.11899219867E+03  0.11899219870E+03  0.25500000000E-02 0. -1.
         -2   -1    0    0    0  501 -0.00000000000E+00 -0.00000000000E+00 -0.46986724761E+00  0.46987416707E+00  0.25500000000E-02 0.  1.
         31    1    1    2    0    0 -0.15953897537E+00  0.38903558870E-02  0.54043928029E+02  0.54554839847E+02  0.74470750000E+01 0.  1.
        -31    1    1    2    0    0  0.15953897537E+00 -0.38903558870E-02  0.64478403391E+02  0.64907233016E+02  0.74470750000E+01 0. -1.
<mgrwt>
<rscale>  0 0.14954725E+02</rscale>
<asrwt>0</asrwt>
<pdfrwt beam="1">  1        2 0.98779600E+00 0.14954725E+02</pdfrwt>
<pdfrwt beam="2">  1       -2 0.99791602E+00 0.14954725E+02</pdfrwt>
<totfact>-0.14075268E-13</totfact>
</mgrwt>
</event>
<event>
 4    1  0.5011189E-019  0.1490918E+02  0.7818608E-02  0.1870853E+00
          2   -1    0    0  501    0  0.00000000000E+00  0.00000000000E+00  0.11975113037E+03  0.11975113040E+03  0.25500000000E-02 0. -1.
         -2   -1    0    0    0  501 -0.00000000000E+00 -0.00000000000E+00 -0.46404978198E+00  0.46405678818E+00  0.25500000000E-02 0.  1.
         31    1    1    2    0    0 -0.27335925238E+00  0.13981039395E+00  0.58570490330E+02  0.59042827979E+02  0.74470750000E+01 0.  1.
        -31    1    1    2    0    0  0.27335925238E+00 -0.13981039395E+00  0.60716590256E+02  0.61172359204E+02  0.74470750000E+01 0. -1.
<mgrwt>
<rscale>  0 0.14909180E+02</rscale>
<asrwt>0</asrwt>
<pdfrwt beam="1">  1        2 0.99402328E+00 0.14909180E+02</pdfrwt>
<pdfrwt beam="2">  1       -2 0.98563319E+00 0.14909180E+02</pdfrwt>
<totfact> 0.43890084E-13</totfact>
</mgrwt>
</event>
<event>
 4    1 -0.5011189E-019  0.1497273E+02  0.7818608E-02  0.1868902E+00
         -2   -1    0    0    0  501 -0.00000000000E+00  0.00000000000E+00  0.12015614484E+03  0.12015614487E+03  0.25500000000E-02 0. -1.
          2   -1    0    0  501    0  0.00000000000E+00 -0.00000000000E+00 -0.46643676498E+00  0.46644373532E+00  0.25500000000E-02 0.  1.
         31    1    1    2    0    0 -0.38687414901E+00 -0.65708517322E+00  0.59257974143E+02  0.59728953264E+02  0.74470750000E+01 0.  1.
        -31    1    1    2    0    0  0.38687414901E+00  0.65708517322E+00  0.60431733936E+02  0.60893635342E+02  0.74470750000E+01 0.  1.
<mgrwt>
<rscale>  0 0.14972731E+02</rscale>
<asrwt>0</asrwt>
<pdfrwt beam="2">  1        2 0.99069631E+00 0.14972731E+02</pdfrwt>
<pdfrwt beam="1">  1       -2 0.99739196E+00 0.14972731E+02</pdfrwt>
<totfact>-0.12207170E-13</totfact>
</mgrwt>
</event>
<event>
 4    1  0.5011189E-019  0.1490641E+02  0.7818608E-02  0.1870938E+00
         -2   -1    0    0    0  501 -0.00000000000E+00  0.00000000000E+00  0.11813633339E+03  0.11813633341E+03  0.25500000000E-02 0. -1.
          2   -1    0    0  501    0  0.00000000000E+00 -0.00000000000E+00 -0.47021835226E+00  0.47022526655E+00  0.25500000000E-02 0.  1.
         31    1    1    2    0    0 -0.14649359573E+00 -0.18427080355E+00  0.57324597094E+02  0.57806779656E+02  0.74470750000E+01 0.  1.
        -31    1    1    2    0    0  0.14649359573E+00  0.18427080355E+00  0.60341517941E+02  0.60799779025E+02  0.74470750000E+01 0. -1.
<mgrwt>
<rscale>  0 0.14906413E+02</rscale>
<asrwt>0</asrwt>
<pdfrwt beam="2">  1        2 0.99863029E+00 0.14906413E+02</pdfrwt>
<pdfrwt beam="1">  1       -2 0.98072201E+00 0.14906413E+02</pdfrwt>
<totfact> 0.50346265E-13</totfact>
</mgrwt>
</event>
<event>
 4    1 -0.5011189E-019  0.1491778E+02  0.7818608E-02  0.1870588E+00
         -2   -1    0    0    0  501 -0.00000000000E+00  0.00000000000E+00  0.11980756363E+03  0.11980756366E+03  0.25500000000E-02 0. -1.
          2   -1    0    0  501    0  0.00000000000E+00 -0.00000000000E+00 -0.46436624868E+00  0.46437325011E+00  0.25500000000E-02 0.  1.
         31    1    1    2    0    0 -0.15682789766E+00 -0.38885781615E+00  0.59536663832E+02  0.60002075561E+02  0.74470750000E+01 0. -1.
        -31    1    1    2    0    0  0.15682789766E+00  0.38885781615E+00  0.59806533549E+02  0.60269861345E+02  0.74470750000E+01 0.  1.
<mgrwt>
<rscale>  0 0.14917776E+02</rscale>
<asrwt>0</asrwt>
<pdfrwt beam="2">  1        2 0.98630455E+00 0.14917776E+02</pdfrwt>
<pdfrwt beam="1">  1       -2 0.99449252E+00 0.14917776E+02</pdfrwt>
<totfact>-0.28291877E-13</totfact>
</mgrwt>
</event>
<event>
 4    1  0.5011189E-019  0.1491838E+02  0.7818608E-02  0.1870569E+00
          2   -1    0    0  501    0  0.00000000000E+00  0.00000000000E+00  0.12039187812E+03  0.12039187814E+03  0.25500000000E-02 0.  1.
         -2   -1    0    0    0  501 -0.00000000000E+00 -0.00000000000E+00 -0.46214972761E+00  0.46215676261E+00  0.25500000000E-02 0. -1.
         31    1    1    2    0    0 -0.72201160692E-01  0.27032582602E+00  0.57373991007E+02  0.57855959583E+02  0.74470750000E+01 0. -1.
        -31    1    1    2    0    0  0.72201160692E-01 -0.27032582602E+00  0.62555737382E+02  0.62998075324E+02  0.74470750000E+01 0.  1.
<mgrwt>
<rscale>  0 0.14918378E+02</rscale>
<asrwt>0</asrwt>
<pdfrwt beam="1">  1        2 0.99930572E+00 0.14918378E+02</pdfrwt>
<pdfrwt beam="2">  1       -2 0.98163317E+00 0.14918378E+02</pdfrwt>
<totfact> 0.23234572E-13</totfact>
</mgrwt>
</event>
<event>
 4    1 -0.5011189E-019  0.1496748E+02  0.7818608E-02  0.1869062E+00
         -2   -1    0    0    0  501 -0.00000000000E+00  0.00000000000E+00  0.11964001592E+03  0.11964001595E+03  0.25500000000E-02 0.  1.
          2   -1    0    0  501    0  0.00000000000E+00 -0.00000000000E+00 -0.46812055098E+00  0.46812749626E+00  0.25500000000E-02 0. -1.
         31    1    1    2    0    0  0.22840541448E+00 -0.36741003428E+00  0.54769287130E+02  0.55274957240E+02  0.74470750000E+01 0. -1.
        -31    1    1    2    0    0 -0.22840541448E+00  0.36741003428E+00  0.64402608240E+02  0.64833186204E+02  0.74470750000E+01 0.  1.
<mgrwt>
<rscale>  0 0.14967481E+02</rscale>
<asrwt>0</asrwt>
<pdfrwt beam="2">  1        2 0.99424203E+00 0.14967481E+02</pdfrwt>
<pdfrwt beam="1">  1       -2 0.99313817E+00 0.14967481E+02</pdfrwt>
<totfact>-0.11374449E-13</totfact>
</mgrwt>
</event>
<event>
 4    1  0.5011189E-019  0.1489730E+02  0.7818608E-02  0.1871219E+00
         -2   -1    0    0    0  501 -0.00000000000E+00  0.00000000000E+00  0.11812178583E+03  0.11812178586E+03  0.25500000000E-02 0.  1.
          2   -1    0    0  501    0  0.00000000000E+00 -0.00000000000E+00 -0.46970153617E+00  0.46970845807E+00  0.25500000000E-02 0. -1.
         31    1    1    2    0    0  0.54141867796E-02 -0.28600569957E-01  0.60023391088E+02  0.60483611426E+02  0.74470750000E+01 0.  1.
        -31    1    1    2    0    0 -0.54141867796E-02  0.28600569957E-01  0.57628693205E+02  0.58107882889E+02  0.74470750000E+01 0. -1.
<mgrwt>
<rscale>  0 0.14897301E+02</rscale>
<asrwt>0</asrwt>
<pdfrwt beam="2">  1        2 0.99753657E+00 0.14897301E+02</pdfrwt>
<pdfrwt beam="1">  1       -2 0.98059745E+00 0.14897301E+02</pdfrwt>
<totfact> 0.82024735E-13</totfact>
</mgrwt>
</event>
<event>
 4    1 -0.5011189E-019  0.1491358E+02  0.7818608E-02  0.1870717E+00
          2   -1    0    0  501    0  0.00000000000E+00  0.00000000000E+00  0.11872288656E+03  0.11872288659E+03  0.25500000000E-02 0.  1.
         -2   -1    0    0    0  501 -0.00000000000E+00 -0.00000000000E+00 -0.46834540073E+00  0.46835234267E+00  0.25500000000E-02 0. -1.
         31    1    1    2    0    0  0.30779196602E+00 -0.18963127686E+00  0.58177879475E+02  0.58653689416E+02  0.74470750000E+01 0.  1.
        -31    1    1    2    0    0 -0.30779196602E+00  0.18963127686E+00  0.60076661688E+02  0.60537549517E+02  0.74470750000E+01 0. -1.
<mgrwt>
<rscale>  0 0.14913582E+02</rscale>
<asrwt>0</asrwt>
<pdfrwt beam="1">  1        2 0.98555656E+00 0.14913582E+02</pdfrwt>
<pdfrwt beam="2">  1       -2 0.99468776E+00 0.14913582E+02</pdfrwt>
<totfact>-0.31837463E-13</totfact>
</mgrwt>
</event>
<event>
 4    1 -0.5011189E-019  0.1493823E+02  0.7818608E-02  0.1869959E+00
         -2   -1    0    0    0  501 -0.00000000000E+00  0.00000000000E+00  0.11938297166E+03  0.11938297169E+03  0.25500000000E-02 0.  1.
          2   -1    0    0  501    0  0.00000000000E+00 -0.00000000000E+00 -0.46729658475E+00  0.46730354227E+00  0.25500000000E-02 0. -1.
         31    1    1    2    0    0 -0.39295082532E+00  0.38288349057E+00  0.60794039778E+02  0.61250920064E+02  0.74470750000E+01 0.  1.
        -31    1    1    2    0    0  0.39295082532E+00 -0.38288349057E+00  0.58121635301E+02  0.58599355169E+02  0.74470750000E+01 0.  1.
<mgrwt>
<rscale>  0 0.14938229E+02</rscale>
<asrwt>0</asrwt>
<pdfrwt beam="2">  1        2 0.99249053E+00 0.14938229E+02</pdfrwt>
<pdfrwt beam="1">  1       -2 0.99100593E+00 0.14938229E+02</pdfrwt>
<totfact>-0.51477983E-14</totfact>
</mgrwt>
</event>
<event>
 4    1 -0.5011189E-019  0.1497053E+02  0.7818608E-02  0.1868969E+00
          2   -1    0    0  501    0  0.00000000000E+00  0.00000000000E+00  0.11919055438E+03  0.11919055441E+03  0.25500000000E-02 0.  1.
         -2   -1    0    0    0  501 -0.00000000000E+00 -0.00000000000E+00 -0.47007714008E+00  0.47008405645E+00  0.25500000000E-02 0. -1.
         31    1    1    2    0    0  0.23306339780E+00 -0.71169904946E+00  0.60135618176E+02  0.60599606712E+02  0.74470750000E+01 0.  1.
        -31    1    1    2    0    0 -0.23306339780E+00  0.71169904946E+00  0.58584859067E+02  0.59061031756E+02  0.74470750000E+01 0.  1.
<mgrwt>
<rscale>  0 0.14970527E+02</rscale>
<asrwt>0</asrwt>
<pdfrwt beam="1">  1        2 0.98943788E+00 0.14970527E+02</pdfrwt>
<pdfrwt beam="2">  1       -2 0.99836658E+00 0.14970527E+02</pdfrwt>
<totfact>-0.94935215E-14</totfact>
</mgrwt>
</event>
<event>
 4    1  0.5011189E-019  0.1491521E+02  0.7818608E-02  0.1870667E+00
          2   -1    0    0  501    0  0.00000000000E+00  0.00000000000E+00  0.12035427686E+03  0.12035427689E+03  0.25500000000E-02 0.  1.
         -2   -1    0    0    0  501 -0.00000000000E+00 -0.00000000000E+00 -0.46209789233E+00  0.46210492812E+00  0.25500000000E-02 0. -1.
         31    1    1    2    0    0 -0.12855458785E+00  0.35449802548E+00  0.58961884254E+02  0.59431514501E+02  0.74470750000E+01 0. -1.
        -31    1    1    2    0    0  0.12855458785E+00 -0.35449802548E+00  0.60930294713E+02  0.61384867313E+02  0.74470750000E+01 0.  1.
<mgrwt>
<rscale>  0 0.14915212E+02</rscale>
<asrwt>0</asrwt>
<pdfrwt beam="1">  1        2 0.99899438E+00 0.14915212E+02</pdfrwt>
<pdfrwt beam="2">  1       -2 0.98152232E+00 0.14915212E+02</pdfrwt>
<totfact> 0.33210864E-13</totfact>
</mgrwt>
</event>
<event>
 4    1 -0.5011189E-019  0.1491602E+02  0.7818608E-02  0.1870642E+00
          2   -1    0    0  501    0  0.00000000000E+00  0.00000000000E+00  0.11881430886E+03  0.11881430888E+03  0.25500000000E-02 0. -1.
         -2   -1    0    0    0  501 -0.00000000000E+00 -0.00000000000E+00 -0.46813827432E+00  0.46814521933E+00  0.25500000000E-02 0.  1.
         31    1    1    2    0    0  0.76977188451E-01 -0.26542517699E+00  0.61526946936E+02  0.61976612535E+02  0.74470750000E+01 0. -1.
        -31    1    1    2    0    0 -0.76977188451E-01  0.26542517699E+00  0.56819223647E+02  0.57305841569E+02  0.74470750000E+01 0.  1.
<mgrwt>
<rscale>  0 0.14916024E+02</rscale>
<asrwt>0</asrwt>
<pdfrwt beam="1">  1        2 0.98631079E+00 0.14916024E+02</pdfrwt>
<pdfrwt beam="2">  1       -2 0.99425260E+00 0.14916024E+02</pdfrwt>
<totfact>-0.28048688E-13</totfact>
</mgrwt>
</event>
<event>
 4    1  0.5011189E-019  0.1490096E+02  0.7818608E-02  0.1871106E+00
          2   -1    0    0  501    0  0.00000000000E+00  0.00000000000E+00  0.11930795888E+03  0.11930795891E+03  0.25500000000E-02 0.  1.
         -2   -1    0    0    0  501 -0.00000000000E+00 -0.00000000000E+00 -0.46526002691E+00  0.46526701488E+00  0.25500000000E-02 0. -1.
         31    1    1    2    0    0 -0.97585379522E-01  0.18917440141E+00  0.60012473230E+02  0.60473144280E+02  0.74470750000E+01 0. -1.
        -31    1    1    2    0    0  0.97585379522E-01 -0.18917440141E+00  0.58830225628E+02  0.59300081647E+02  0.74470750000E+01 0. -1.
<mgrwt>
<rscale>  0 0.14900959E+02</rscale>
<asrwt>0</asrwt>
<pdfrwt beam="1">  1        2 0.99036883E+00 0.14900959E+02</pdfrwt>
<pdfrwt beam="2">  1       -2 0.98817953E+00 0.14900959E+02</pdfrwt>
<totfact> 0.19679519E-13</totfact>
</mgrwt>
</event>
<event>
 4    1  0.5011189E-019  0.1494379E+02  0.7818608E-02  0.1869789E+00
         -2   -1    0    0    0  501 -0.00000000000E+00  0.00000000000E+00  0.11862968101E+03  0.11862968104E+03  0.25500000000E-02 0.  1.
          2   -1    0    0  501    0  0.00000000000E+00 -0.00000000000E+00 -0.47061390060E+00  0.47062080908E+00  0.25500000000E-02 0. -1.
         31    1    1    2    0    0 -0.52872776772E+00 -0.17275539110E+00  0.61045793965E+02  0.61500872224E+02  0.74470750000E+01 0.  1.
        -31    1    1    2    0    0  0.52872776772E+00  0.17275539110E+00  0.57113273144E+02  0.57599429622E+02  0.74470750000E+01 0.  1.
<mgrwt>
<rscale>  0 0.14943787E+02</rscale>
<asrwt>0</asrwt>
<pdfrwt beam="2">  1        2 0.99948348E+00 0.14943787E+02</pdfrwt>
<pdfrwt beam="1">  1       -2 0.98480463E+00 0.14943787E+02</pdfrwt>
<totfact> 0.85585930E-14</totfact>
</mgrwt>
</event>
<event>
 4    1  0.5011189E-019  0.1489878E+02  0.7818608E-02  0.1871173E+00
          2   -1    0    0  501    0  0.00000000000E+00  0.00000000000E+00  0.11922317014E+03  0.11922317016E+03  0.25500000000E-02 0.  1.
         -2   -1    0    0    0  501 -0.00000000000E+00 -0.00000000000E+00 -0.46545444689E+00  0.46546143194E+00  0.25500000000E-02 0. -1.
         31    1    1    2    0    0  0.18076146252E+00 -0.18814345975E-01  0.59681540826E+02  0.60144644567E+02  0.74470750000E+01 0.  1.
        -31    1    1    2    0    0 -0.18076146252E+00  0.18814345975E-01  0.59076174862E+02  0.59543987027E+02  0.74470750000E+01 0. -1.
<mgrwt>
<rscale>  0 0.14898775E+02</rscale>
<asrwt>0</asrwt>
<pdfrwt beam="1">  1        2 0.98966935E+00 0.14898775E+02</pdfrwt>
<pdfrwt beam="2">  1       -2 0.98858812E+00 0.14898775E+02</pdfrwt>
<totfact> 0.15941588E-13</totfact>
</mgrwt>
</event>
<event>
 4    1 -0.5011189E-019  0.1491744E+02  0.7818608E-02  0.1870598E+00
          2   -1    0    0  501    0  0.00000000000E+00  0.00000000000E+00  0.11911226244E+03  0.11911226247E+03  0.25500000000E-02 0. -1.
         -2   -1    0    0    0  501 -0.00000000000E+00 -0.00000000000E+00 -0.46705564654E+00  0.46706260765E+00  0.25500000000E-02 0.  1.
         31    1    1    2    0    0 -0.38539961629E-01 -0.38331713909E+00  0.58051880212E+02  0.58528865866E+02  0.74470750000E+01 0. -1.
        -31    1    1    2    0    0  0.38539961629E-01  0.38331713909E+00  0.60593326582E+02  0.61050459209E+02  0.74470750000E+01 0. -1.
<mgrwt>
<rscale>  0 0.14917436E+02</rscale>
<asrwt>0</asrwt>
<pdfrwt beam="1">  1        2 0.98876553E+00 0.14917436E+02</pdfrwt>
<pdfrwt beam="2">  1       -2 0.99197202E+00 0.14917436E+02</pdfrwt>
<totfact>-0.13290951E-13</totfact>
</mgrwt>
</event>
<event>
 4    1 -0.5011189E-019  0.1497406E+02  0.7818608E-02  0.1868861E+00
         -2   -1    0    0    0  501 -0.00000000000E+00  0.00000000000E+00  0.12003044921E+03  0.12003044924E+03  0.25500000000E-02 0. -1.
          2   -1    0    0  501    0  0.00000000000E+00 -0.00000000000E+00 -0.46700834233E+00  0.46701530414E+00  0.25500000000E-02 0.  1.
         31    1    1    2    0    0 -0.32791638315E+00 -0.64988326511E+00  0.61862146624E+02  0.62313032252E+02  0.74470750000E+01 0. -1.
        -31    1    1    2    0    0  0.32791638315E+00  0.64988326511E+00  0.57701294248E+02  0.58184432294E+02  0.74470750000E+01 0.  1.
<mgrwt>
<rscale>  0 0.14974063E+02</rscale>
<asrwt>0</asrwt>
<pdfrwt beam="2">  1        2 0.99190158E+00 0.14974063E+02</pdfrwt>
<pdfrwt beam="1">  1       -2 0.99635734E+00 0.14974063E+02</pdfrwt>
<totfact>-0.13687494E-13</totfact>
</mgrwt>
</event>
<event>
 4    1 -0.5011189E-019  0.1494748E+02  0.7818608E-02  0.1869676E+00
          2   -1    0    0  501    0  0.00000000000E+00  0.00000000000E+00  0.11909442223E+03  0.11909442226E+03  0.25500000000E-02 0.  1.
         -2   -1    0    0    0  501 -0.00000000000E+00 -0.00000000000E+00 -0.46900889077E+00  0.46901582289E+00  0.25500000000E-02 0. -1.
         31    1    1    2    0    0 -0.24360025445E+00  0.52019906716E+00  0.57228616532E+02  0.57713979454E+02  0.74470750000E+01 0. -1.
        -31    1    1    2    0    0  0.24360025445E+00 -0.52019906716E+00  0.61396796809E+02  0.61849458629E+02  0.74470750000E+01 0.  1.
<mgrwt>
<rscale>  0 0.14947476E+02</rscale>
<asrwt>0</asrwt>
<pdfrwt beam="1">  1        2 0.98863416E+00 0.14947476E+02</pdfrwt>
<pdfrwt beam="2">  1       -2 0.99610357E+00 0.14947476E+02</pdfrwt>
<totfact>-0.19154886E-13</totfact>
</mgrwt>
</event>
<event>
 4    1  0.5011189E-019  0.1491612E+02  0.7818608E-02  0.1870639E+00
         -2   -1    0    0    0  501 -0.00000000000E+00  0.00000000000E+00  0.11863794898E+03  0.11863794901E+03  0.25500000000E-02 0. -1.
          2   -1    0    0  501    0  0.00000000000E+00 -0.00000000000E+00 -0.46884034400E+00  0.46884727861E+00  0.25500000000E-02 0.  1.
         31    1    1    2    0    0  0.29856800003E+00 -0.25804876482E+00  0.59799359625E+02  0.60262576028E+02  0.74470750000E+01 0. -1.
        -31    1    1    2    0    0 -0.29856800003E+00  0.25804876482E+00  0.58369749014E+02  0.58844220260E+02  0.74470750000E+01 0.  1.
<mgrwt>
<rscale>  0 0.14916122E+02</rscale>
<asrwt>0</asrwt>
<pdfrwt beam="2">  1        2 0.99573198E+00 0.14916122E+02</pdfrwt>
<pdfrwt beam="1">  1       -2 0.98485833E+00 0.14916122E+02</pdfrwt>
<totfact> 0.46319892E-13</totfact>
</mgrwt>
</event>
<event>
 4    1 -0.5011189E-019  0.1498762E+02  0.7818608E-02  0.1868446E+00
          2   -1    0    0  501    0  0.00000000000E+00  0.00000000000E+00  0.11985300760E+03  0.11985300762E+03  0.25500000000E-02 0.  1.
         -2   -1    0    0    0  501 -0.00000000000E+00 -0.00000000000E+00 -0.46854713802E+00  0.46855407697E+00  0.25500000000E-02 0. -1.
         31    1    1    2    0    0  0.13594357486E+00 -0.56624228593E-01  0.66295718974E+02  0.66712839598E+02  0.74470750000E+01 0.  1.
        -31    1    1    2    0    0 -0.13594357486E+00  0.56624228593E-01  0.53088741484E+02  0.53608722101E+02  0.74470750000E+01 0. -1.
<mgrwt>
<rscale>  0 0.14987622E+02</rscale>
<asrwt>0</asrwt>
<pdfrwt beam="1">  1        2 0.99490286E+00 0.14987622E+02</pdfrwt>
<pdfrwt beam="2">  1       -2 0.99515141E+00 0.14987622E+02</pdfrwt>
<totfact>-0.11995680E-13</totfact>
</mgrwt>
</event>
<event>
 4    1  0.5011189E-019  0.1495998E+02  0.7818608E-02  0.1869292E+00
         -2   -1    0    0    0  501 -0.00000000000E+00  0.00000000000E+00  0.11912169873E+03  0.11912169876E+03  0.25500000000E-02 0.  1.
          2   -1    0    0  501    0  0.00000000000E+00 -0.00000000000E+00 -0.46968661426E+00  0.46969353637E+00  0.25500000000E-02 0. -1.
         31    1    1    2    0    0  0.37789026496E+00  0.32602828060E+00  0.55391313027E+02  0.55891909794E+02  0.74470750000E+01 0.  1.
        -31    1    1    2    0    0 -0.37789026496E+00 -0.32602828060E+00  0.63260699087E+02  0.63699482498E+02  0.74470750000E+01 0.  1.
<mgrwt>
<rscale>  0 0.14959984E+02</rscale>
<asrwt>0</asrwt>
<pdfrwt beam="2">  1        2 0.99753817E+00 0.14959984E+02</pdfrwt>
<pdfrwt beam="1">  1       -2 0.98886531E+00 0.14959984E+02</pdfrwt>
<totfact> 0.52822865E-14</totfact>
</mgrwt>
</event>
<event>
 4    1  0.5011189E-019  0.1490648E+02  0.7818608E-02  0.1870936E+00
         -2   -1    0    0    0  501 -0.00000000000E+00  0.00000000000E+00  0.11839096632E+03  0.11839096635E+03  0.25500000000E-02 0. -1.
          2   -1    0    0  501    0  0.00000000000E+00 -0.00000000000E+00 -0.46921100400E+00  0.46921793313E+00  0.25500000000E-02 0.  1.
         31    1    1    2    0    0 -0.41090751300E-02  0.21514755294E+00  0.60662221447E+02  0.61118003422E+02  0.74470750000E+01 0. -1.
        -31    1    1    2    0    0  0.41090751300E-02 -0.21514755294E+00  0.57259533871E+02  0.57742180860E+02  0.74470750000E+01 0.  1.
<mgrwt>
<rscale>  0 0.14906476E+02</rscale>
<asrwt>0</asrwt>
<pdfrwt beam="2">  1        2 0.99650790E+00 0.14906476E+02</pdfrwt>
<pdfrwt beam="1">  1       -2 0.98281917E+00 0.14906476E+02</pdfrwt>
<totfact> 0.67506778E-13</totfact>
</mgrwt>
</event>
<event>
 4    1 -0.5011189E-019  0.1493812E+02  0.7818608E-02  0.1869963E+00
         -2   -1    0    0    0  501 -0.00000000000E+00  0.00000000000E+00  0.12004594934E+03  0.12004594937E+03  0.25500000000E-02 0.  1.
          2   -1    0    0  501    0  0.00000000000E+00 -0.00000000000E+00 -0.46470904755E+00  0.46471604381E+00  0.25500000000E-02 0. -1.
         31    1    1    2    0    0 -0.13305569848E+00  0.48874141497E+00  0.61945727429E+02  0.62393818963E+02  0.74470750000E+01 0.  1.
        -31    1    1    2    0    0  0.13305569848E+00 -0.48874141497E+00  0.57635512861E+02  0.58116846446E+02  0.74470750000E+01 0. -1.
<mgrwt>
<rscale>  0 0.14938121E+02</rscale>
<asrwt>0</asrwt>
<pdfrwt beam="2">  1        2 0.98703739E+00 0.14938121E+02</pdfrwt>
<pdfrwt beam="1">  1       -2 0.99646650E+00 0.14938121E+02</pdfrwt>
<totfact>-0.22451192E-13</totfact>
</mgrwt>
</event>
<event>
 4    1 -0.5011189E-019  0.1496882E+02  0.7818608E-02  0.1869022E+00
         -2   -1    0    0    0  501 -0.00000000000E+00  0.00000000000E+00  0.12000854909E+03  0.12000854912E+03  0.25500000000E-02 0.  1.
          2   -1    0    0  501    0  0.00000000000E+00 -0.00000000000E+00 -0.46676624468E+00  0.46677321011E+00  0.25500000000E-02 0. -1.
         31    1    1    2    0    0 -0.43557097734E+00 -0.33644153487E+00  0.55710465586E+02  0.56208698765E+02  0.74470750000E+01 0. -1.
        -31    1    1    2    0    0  0.43557097734E+00  0.33644153487E+00  0.63831317264E+02  0.64266623567E+02  0.74470750000E+01 0.  1.
<mgrwt>
<rscale>  0 0.14968816E+02</rscale>
<asrwt>0</asrwt>
<pdfrwt beam="2">  1        2 0.99138867E+00 0.14968816E+02</pdfrwt>
<pdfrwt beam="1">  1       -2 0.99617426E+00 0.14968816E+02</pdfrwt>
<totfact>-0.14578174E-13</totfact>
</mgrwt>
</event>
<event>
 4    1  0.5011189E-019  0.1493403E+02  0.7818608E-02  0.1870088E+00
         -2   -1    0    0    0  501 -0.00000000000E+00  0.00000000000E+00  0.11911919335E+03  0.11911919338E+03  0.25500000000E-02 0. -1.
          2   -1    0    0  501    0  0.00000000000E+00 -0.00000000000E+00 -0.46806838197E+00  0.46807532801E+00  0.25500000000E-02 0.  1.
         31    1    1    2    0    0  0.43394029183E+00 -0.16230550005E+00  0.57021740787E+02  0.57507847253E+02  0.74470750000E+01 0.  1.
        -31    1    1    2    0    0 -0.43394029183E+00  0.16230550005E+00  0.61629384184E+02  0.62079421455E+02  0.74470750000E+01 0. -1.
<mgrwt>
<rscale>  0 0.14934034E+02</rscale>
<asrwt>0</asrwt>
<pdfrwt beam="2">  1        2 0.99411473E+00 0.14934034E+02</pdfrwt>
<pdfrwt beam="1">  1       -2 0.98883121E+00 0.14934034E+02</pdfrwt>
<totfact> 0.91873652E-14</totfact>
</mgrwt>
</event>
<event>
 4    1 -0.5011189E-019  0.1489646E+02  0.7818608E-02  0.1871245E+00
         -2   -1    0    0    0  501 -0.00000000000E+00  0.00000000000E+00  0.12008932374E+03  0.12008932377E+03  0.25500000000E-02 0. -1.
          2   -1    0    0  501    0  0.00000000000E+00 -0.00000000000E+00 -0.46195378790E+00  0.46196082589E+00  0.25500000000E-02 0.  1.
         31    1    1    2    0    0  0.35584803390E-01 -0.10720674073E+00  0.59273342002E+02  0.59739440554E+02  0.74470750000E+01 0.  1.
        -31    1    1    2    0    0 -0.35584803390E-01  0.10720674073E+00  0.60354027952E+02  0.60811844041E+02  0.74470750000E+01 0. -1.
<mgrwt>
<rscale>  0 0.14896462E+02</rscale>
<asrwt>0</asrwt>
<pdfrwt beam="2">  1        2 0.98120913E+00 0.14896462E+02</pdfrwt>
<pdfrwt beam="1">  1       -2 0.99680237E+00 0.14896462E+02</pdfrwt>
<totfact>-0.54616421E-13</totfact>
</mgrwt>
</event>
<event>
 4    1 -0.5011189E-019  0.1491513E+02  0.7818608E-02  0.1870669E+00
         -2   -1    0    0    0  501 -0.00000000000E+00  0.00000000000E+00  0.11958009682E+03  0.11958009685E+03  0.25500000000E-02 0. -1.
          2   -1    0    0  501    0  0.00000000000E+00 -0.00000000000E+00 -0.46508466766E+00  0.46509165827E+00  0.25500000000E-02 0.  1.
         31    1    1    2    0    0 -0.41294319518E-01  0.37837286594E+00  0.58694638645E+02  0.59166412795E+02  0.74470750000E+01 0. -1.
        -31    1    1    2    0    0  0.41294319518E-01 -0.37837286594E+00  0.60420373510E+02  0.60878775713E+02  0.74470750000E+01 0.  1.
<mgrwt>
<rscale>  0 0.14915132E+02</rscale>
<asrwt>0</asrwt>
<pdfrwt beam="2">  1        2 0.98781726E+00 0.14915132E+02</pdfrwt>
<pdfrwt beam="1">  1       -2 0.99261761E+00 0.14915132E+02</pdfrwt>
<totfact>-0.18295152E-13</totfact>
</mgrwt>
</event>
<event>
 4    1 -0.5011189E-019  0.1495695E+02  0.7818608E-02  0.1869385E+00
          2   -1    0    0  501    0  0.00000000000E+00  0.00000000000E+00  0.11945989605E+03  0.11945989608E+03  0.25500000000E-02 0.  1.
         -2   -1    0    0    0  501 -0.00000000000E+00 -0.00000000000E+00 -0.46816688059E+00  0.46817382518E+00  0.25500000000E-02 0. -1.
         31    1    1    2    0    0  0.27419295042E+00  0.59729507924E+00  0.57959466518E+02  0.58439632343E+02  0.74470750000E+01 0. -1.
        -31    1    1    2    0    0 -0.27419295042E+00 -0.59729507924E+00  0.61032262649E+02  0.61488437558E+02  0.74470750000E+01 0. -1.
<mgrwt>
<rscale>  0 0.14956950E+02</rscale>
<asrwt>0</asrwt>
<pdfrwt beam="1">  1        2 0.99164919E+00 0.14956950E+02</pdfrwt>
<pdfrwt beam="2">  1       -2 0.99433420E+00 0.14956950E+02</pdfrwt>
<totfact>-0.15462224E-13</totfact>
</mgrwt>
</event>
<event>
 4    1 -0.5011189E-019  0.1498464E+02  0.7818608E-02  0.1868538E+00
         -2   -1    0    0    0  501 -0.00000000000E+00  0.00000000000E+00  0.11984207943E+03  0.11984207946E+03  0.25500000000E-02 0.  1.
          2   -1    0    0  501    0  0.00000000000E+00 -0.00000000000E+00 -0.46840349163E+00  0.46841043271E+00  0.25500000000E-02 0. -1.
         31    1    1    2    0    0  0.41437596567E+00  0.59093043993E+00  0.56525488524E+02  0.57018511777E+02  0.74470750000E+01 0.  1.
        -31    1    1    2    0    0 -0.41437596567E+00 -0.59093043993E+00  0.62848187412E+02  0.63291978112E+02  0.74470750000E+01 0.  1.
<mgrwt>
<rscale>  0 0.14984641E+02</rscale>
<asrwt>0</asrwt>
<pdfrwt beam="2">  1        2 0.99484716E+00 0.14984641E+02</pdfrwt>
<pdfrwt beam="1">  1       -2 0.99481131E+00 0.14984641E+02</pdfrwt>
<totfact>-0.12142731E-13</totfact>
</mgrwt>
</event>
<event>
 4    1  0.5011189E-019  0.1490035E+02  0.7818608E-02  0.1871125E+00
         -2   -1    0    0    0  501 -0.00000000000E+00  0.00000000000E+00  0.11801209132E+03  0.11801209135E+03  0.25500000000E-02 0.  1.
          2   -1    0    0  501    0  0.00000000000E+00 -0.00000000000E+00 -0.47033067013E+00  0.47033758277E+00  0.25500000000E-02 0. -1.
         31    1    1    2    0    0  0.13838546045E+00 -0.80898414093E-02  0.60076867768E+02  0.60536833274E+02  0.74470750000E+01 0.  1.
        -31    1    1    2    0    0 -0.13838546045E+00  0.80898414093E-02  0.57464892884E+02  0.57945595659E+02  0.74470750000E+01 0. -1.
<mgrwt>
<rscale>  0 0.14900351E+02</rscale>
<asrwt>0</asrwt>
<pdfrwt beam="2">  1        2 0.99886370E+00 0.14900351E+02</pdfrwt>
<pdfrwt beam="1">  1       -2 0.97969562E+00 0.14900351E+02</pdfrwt>
<totfact> 0.51100335E-13</totfact>
</mgrwt>
</event>
<event>
 4    1 -0.5011189E-019  0.1495371E+02  0.7818608E-02  0.1869484E+00
          2   -1    0    0  501    0  0.00000000000E+00  0.00000000000E+00  0.11965802104E+03  0.11965802106E+03  0.25500000000E-02 0. -1.
         -2   -1    0    0    0  501 -0.00000000000E+00 -0.00000000000E+00 -0.46718946619E+00  0.46719642531E+00  0.25500000000E-02 0.  1.
         31    1    1    2    0    0 -0.52531546885E+00 -0.39005773558E+00  0.60622877289E+02  0.61082078208E+02  0.74470750000E+01 0. -1.
        -31    1    1    2    0    0  0.52531546885E+00  0.39005773558E+00  0.58567954282E+02  0.59043139282E+02  0.74470750000E+01 0.  1.
<mgrwt>
<rscale>  0 0.14953713E+02</rscale>
<asrwt>0</asrwt>
<pdfrwt beam="1">  1        2 0.99327935E+00 0.14953713E+02</pdfrwt>
<pdfrwt beam="2">  1       -2 0.99227280E+00 0.14953713E+02</pdfrwt>
<totfact>-0.10033136E-13</totfact>
</mgrwt>
</event>
<event>
 4    1 -0.5011189E-019  0.1494361E+02  0.7818608E-02  0.1869794E+00
          2   -1    0    0  501    0  0.00000000000E+00  0.00000000000E+00  0.11911744143E+03  0.11911744146E+03  0.25500000000E-02 0.  1.
         -2   -1    0    0    0  501 -0.00000000000E+00 -0.00000000000E+00 -0.46867579780E+00  0.46868273485E+00  0.25500000000E-02 0. -1.
         31    1    1    2    0    0 -0.37776803732E+00  0.35957162312E+00  0.56832640054E+02  0.57320850499E+02  0.74470750000E+01 0. -1.
        -31    1    1    2    0    0  0.37776803732E+00 -0.35957162312E+00  0.61816125577E+02  0.62265273691E+02  0.74470750000E+01 0.  1.
<mgrwt>
<rscale>  0 0.14943611E+02</rscale>
<asrwt>0</asrwt>
<pdfrwt beam="1">  1        2 0.98882174E+00 0.14943611E+02</pdfrwt>
<pdfrwt beam="2">  1       -2 0.99539966E+00 0.14943611E+02</pdfrwt>
<totfact>-0.19899510E-13</totfact>
</mgrwt>
</event>
<event>
 4    1 -0.5011189E-019  0.1491180E+02  0.7818608E-02  0.1870772E+00
         -2   -1    0    0    0  501 -0.00000000000E+00  0.00000000000E+00  0.11978719586E+03  0.11978719589E+03  0.25500000000E-02 0.  1.
          2   -1    0    0  501    0  0.00000000000E+00 -0.00000000000E+00 -0.46407338107E+00  0.46408038691E+00  0.25500000000E-02 0. -1.
         31    1    1    2    0    0  0.20584513403E+00  0.27235132388E+00  0.58673961303E+02  0.59145660944E+02  0.74470750000E+01 0. -1.
        -31    1    1    2    0    0 -0.20584513403E+00 -0.27235132388E+00  0.60649161176E+02  0.61105615330E+02  0.74470750000E+01 0.  1.
<mgrwt>
<rscale>  0 0.14911804E+02</rscale>
<asrwt>0</asrwt>
<pdfrwt beam="2">  1        2 0.98568426E+00 0.14911804E+02</pdfrwt>
<pdfrwt beam="1">  1       -2 0.99432169E+00 0.14911804E+02</pdfrwt>
<totfact>-0.30970486E-13</totfact>
</mgrwt>
</event>
<event>
 4    1 -0.5011189E-019  0.1490781E+02  0.7818608E-02  0.1870895E+00
          2   -1    0    0  501    0  0.00000000000E+00  0.00000000000E+00  0.11844733477E+03  0.11844733479E+03  0.25500000000E-02 0.  1.
         -2   -1    0    0    0  501 -0.00000000000E+00 -0.00000000000E+00 -0.46907195546E+00  0.46907888665E+00  0.25500000000E-02 0. -1.
         31    1    1    2    0    0  0.30824520728E+00 -0.35682265843E-01  0.58396359321E+02  0.58870111231E+02  0.74470750000E+01 0. -1.
        -31    1    1    2    0    0 -0.30824520728E+00  0.35682265843E-01  0.59581903490E+02  0.60046302449E+02  0.74470750000E+01 0.  1.
<mgrwt>
<rscale>  0 0.14907815E+02</rscale>
<asrwt>0</asrwt>
<pdfrwt beam="1">  1        2 0.98328411E+00 0.14907815E+02</pdfrwt>
<pdfrwt beam="2">  1       -2 0.99621563E+00 0.14907815E+02</pdfrwt>
<totfact>-0.42231487E-13</totfact>
</mgrwt>
</event>
<event>
 4    1 -0.5011189E-019  0.1493785E+02  0.7818608E-02  0.1869971E+00
          2   -1    0    0  501    0  0.00000000000E+00  0.00000000000E+00  0.11908463341E+03  0.11908463344E+03  0.25500000000E-02 0. -1.
         -2   -1    0    0    0  501 -0.00000000000E+00 -0.00000000000E+00 -0.46844354239E+00  0.46845048288E+00  0.25500000000E-02 0.  1.
         31    1    1    2    0    0  0.52998670233E+00 -0.20705860423E+00  0.58936234947E+02  0.59407596105E+02  0.74470750000E+01 0. -1.
        -31    1    1    2    0    0 -0.52998670233E+00  0.20705860423E+00  0.59679954924E+02  0.60145487819E+02  0.74470750000E+01 0.  1.
<mgrwt>
<rscale>  0 0.14937850E+02</rscale>
<asrwt>0</asrwt>
<pdfrwt beam="1">  1        2 0.98854854E+00 0.14937850E+02</pdfrwt>
<pdfrwt beam="2">  1       -2 0.99490725E+00 0.14937850E+02</pdfrwt>
<totfact>-0.20891305E-13</totfact>
</mgrwt>
</event>
<event>
 4    1  0.5011189E-019  0.1490552E+02  0.7818608E-02  0.1870965E+00
         -2   -1    0    0    0  501 -0.00000000000E+00  0.00000000000E+00  0.11836295938E+03  0.11836295940E+03  0.25500000000E-02 0. -1.
          2   -1    0    0  501    0  0.00000000000E+00 -0.00000000000E+00 -0.46926189597E+00  0.46926882436E+00  0.25500000000E-02 0.  1.
         31    1    1    2    0    0  0.54686603738E-01  0.21040275482E+00  0.57403954008E+02  0.57885405084E+02  0.74470750000E+01 0.  1.
        -31    1    1    2    0    0 -0.54686603738E-01 -0.21040275482E+00  0.60489743472E+02  0.60946823144E+02  0.74470750000E+01 0.  1.
<mgrwt>
<rscale>  0 0.14905521E+02</rscale>
<asrwt>0</asrwt>
<pdfrwt beam="2">  1        2 0.99661462E+00 0.14905521E+02</pdfrwt>
<pdfrwt beam="1">  1       -2 0.98258801E+00 0.14905521E+02</pdfrwt>
<totfact> 0.69537430E-13</totfact>
</mgrwt>
</event>
<event>
 4    1 -0.5011189E-019  0.1493998E+02  0.7818608E-02  0.1869906E+00
          2   -1    0    0  501    0  0.00000000000E+00  0.00000000000E+00  0.11914566501E+03  0.11914566504E+03  0.25500000000E-02 0. -1.
         -2   -1    0    0    0  501 -0.00000000000E+00 -0.00000000000E+00 -0.46833705751E+00  0.46834399957E+00  0.25500000000E-02 0.  1.
         31    1    1    2    0    0  0.41408355325E+00  0.34402536711E+00  0.57512905822E+02  0.57995543629E+02  0.74470750000E+01 0.  1.
        -31    1    1    2    0    0 -0.41408355325E+00 -0.34402536711E+00  0.61164422128E+02  0.61618465406E+02  0.74470750000E+01 0. -1.
<mgrwt>
<rscale>  0 0.14939980E+02</rscale>
<asrwt>0</asrwt>
<pdfrwt beam="1">  1        2 0.98905232E+00 0.14939980E+02</pdfrwt>
<pdfrwt beam="2">  1       -2 0.99468398E+00 0.14939980E+02</pdfrwt>
<totfact>-0.19735314E-13</totfact>
</mgrwt>
</event>
<event>
 4    1 -0.5011189E-019  0.1500083E+02  0.7818608E-02  0.1868043E+00
          2   -1    0    0  501    0  0.00000000000E+00  0.00000000000E+00  0.11979089388E+03  0.11979089391E+03  0.25500000000E-02 0. -1.
         -2   -1    0    0    0  501 -0.00000000000E+00 -0.00000000000E+00 -0.46961664787E+00  0.46962357102E+00  0.25500000000E-02 0.  1.
         31    1    1    2    0    0  0.55624432143E+00 -0.47434733389E+00  0.55550240290E+02  0.56051962816E+02  0.74470750000E+01 0.  1.
        -31    1    1    2    0    0 -0.55624432143E+00  0.47434733389E+00  0.63771036943E+02  0.64208554663E+02  0.74470750000E+01 0. -1.
<mgrwt>
<rscale>  0 0.15000829E+02</rscale>
<asrwt>0</asrwt>
<pdfrwt beam="1">  1        2 0.99439810E+00 0.15000829E+02</pdfrwt>
<pdfrwt beam="2">  1       -2 0.99741204E+00 0.15000829E+02</pdfrwt>
<totfact>-0.91457232E-14</totfact>
</mgrwt>
</event>
<event>
 4    1 -0.5011189E-019  0.1496505E+02  0.7818608E-02  0.1869137E+00
          2   -1    0    0  501    0  0.00000000000E+00  0.00000000000E+00  0.11950196007E+03  0.11950196010E+03  0.25500000000E-02 0.  1.
         -2   -1    0    0    0  501 -0.00000000000E+00 -0.00000000000E+00 -0.46850934626E+00  0.46851628577E+00  0.25500000000E-02 0. -1.
         31    1    1    2    0    0 -0.33638509331E+00 -0.59575895599E+00  0.61499842229E+02  0.61952865986E+02  0.74470750000E+01 0.  1.
        -31    1    1    2    0    0  0.33638509331E+00  0.59575895599E+00  0.57533608497E+02  0.58017610399E+02  0.74470750000E+01 0. -1.
<mgrwt>
<rscale>  0 0.14965053E+02</rscale>
<asrwt>0</asrwt>
<pdfrwt beam="1">  1        2 0.99199984E+00 0.14965053E+02</pdfrwt>
<pdfrwt beam="2">  1       -2 0.99506008E+00 0.14965053E+02</pdfrwt>
<totfact>-0.15112521E-13</totfact>
</mgrwt>
</event>
<event>
 4    1  0.5011189E-019  0.1492058E+02  0.7818608E-02  0.1870502E+00
          2   -1    0    0  501    0  0.00000000000E+00  0.00000000000E+00  0.12018887661E+03  0.12018887663E+03  0.25500000000E-02 0. -1.
         -2   -1    0    0    0  501 -0.00000000000E+00 -0.00000000000E+00 -0.46306725775E+00  0.46307427882E+00  0.25500000000E-02 0.  1.
         31    1    1    2    0    0 -0.10678863019E-01 -0.41151810725E+00  0.58520206971E+02  0.58993584492E+02  0.74470750000E+01 0.  1.
        -31    1    1    2    0    0  0.10678863019E-01  0.41151810725E+00  0.61205602377E+02  0.61658366420E+02  0.74470750000E+01 0.  1.
<mgrwt>
<rscale>  0 0.14920584E+02</rscale>
<asrwt>0</asrwt>
<pdfrwt beam="1">  1        2 0.99763475E+00 0.14920584E+02</pdfrwt>
<pdfrwt beam="2">  1       -2 0.98356819E+00 0.14920584E+02</pdfrwt>
<totfact> 0.43677315E-13</totfact>
</mgrwt>
</event>
<event>
 4    1 -0.5011189E-019  0.1494678E+02  0.7818608E-02  0.1869697E+00
         -2   -1    0    0    0  501 -0.00000000000E+00  0.00000000000E+00  0.11997382316E+03  0.11997382318E+03  0.25500000000E-02 0. -1.
          2   -1    0    0  501    0  0.00000000000E+00 -0.00000000000E+00 -0.46552790324E+00  0.46553488720E+00  0.25500000000E-02 0.  1.
         31    1    1    2    0    0  0.40971864624E+00 -0.40717513128E+00  0.61711358410E+02  0.62161759497E+02  0.74470750000E+01 0. -1.
        -31    1    1    2    0    0 -0.40971864624E+00  0.40717513128E+00  0.57796936844E+02  0.58277598574E+02  0.74470750000E+01 0.  1.
<mgrwt>
<rscale>  0 0.14946784E+02</rscale>
<asrwt>0</asrwt>
<pdfrwt beam="2">  1        2 0.98876759E+00 0.14946784E+02</pdfrwt>
<pdfrwt beam="1">  1       -2 0.99587688E+00 0.14946784E+02</pdfrwt>
<totfact>-0.19319538E-13</totfact>
</mgrwt>
</event>
<event>
 4    1 -0.5011189E-019  0.1491818E+02  0.7818608E-02  0.1870576E+00
          2   -1    0    0  501    0  0.00000000000E+00  0.00000000000E+00  0.11863210652E+03  0.11863210655E+03  0.25500000000E-02 0. -1.
         -2   -1    0    0    0  501 -0.00000000000E+00 -0.00000000000E+00 -0.46899270913E+00  0.46899964149E+00  0.25500000000E-02 0.  1.
         31    1    1    2    0    0 -0.18916036392E+00 -0.35087737162E+00  0.57947296346E+02  0.58425225515E+02  0.74470750000E+01 0. -1.
        -31    1    1    2    0    0  0.18916036392E+00  0.35087737162E+00  0.60215817464E+02  0.60675880673E+02  0.74470750000E+01 0.  1.
<mgrwt>
<rscale>  0 0.14918178E+02</rscale>
<asrwt>0</asrwt>
<pdfrwt beam="1">  1        2 0.98481128E+00 0.14918178E+02</pdfrwt>
<pdfrwt beam="2">  1       -2 0.99605411E+00 0.14918178E+02</pdfrwt>
<totfact>-0.33392434E-13</totfact>
</mgrwt>
</event>
<event>
 4    1 -0.5011189E-019  0.1489865E+02  0.7818608E-02  0.1871177E+00
          2   -1    0    0  501    0  0.00000000000E+00  0.00000000000E+00  0.11797605039E+03  0.11797605041E+03  0.25500000000E-02 0. -1.
         -2   -1    0    0    0  501 -0.00000000000E+00 -0.00000000000E+00 -0.47036711900E+00  0.47037403110E+00  0.25500000000E-02 0.  1.
         31    1    1    2    0    0  0.54820143220E-01  0.15976073162E-01  0.57369439465E+02  0.57850797498E+02  0.74470750000E+01 0.  1.
        -31    1    1    2    0    0 -0.54820143220E-01 -0.15976073162E-01  0.60136243803E+02  0.60595626948E+02  0.74470750000E+01 0. -1.
<mgrwt>
<rscale>  0 0.14898653E+02</rscale>
<asrwt>0</asrwt>
<pdfrwt beam="1">  1        2 0.97939791E+00 0.14898653E+02</pdfrwt>
<pdfrwt beam="2">  1       -2 0.99893959E+00 0.14898653E+02</pdfrwt>
<totfact>-0.30276931E-13</totfact>
</mgrwt>
</event>
<event>
 4    1 -0.5011189E-019  0.1500541E+02  0.7818608E-02  0.1867903E+00
         -2   -1    0    0    0  501 -0.00000000000E+00  0.00000000000E+00  0.12014089346E+03  0.12014089349E+03  0.25500000000E-02 0. -1.
          2   -1    0    0  501    0  0.00000000000E+00 -0.00000000000E+00 -0.46853481590E+00  0.46854175503E+00  0.25500000000E-02 0.  1.
         31    1    1    2    0    0  0.13202243963E+00  0.74875675390E+00  0.63884026028E+02  0.64321114529E+02  0.74470750000E+01 0. -1.
        -31    1    1    2    0    0 -0.13202243963E+00 -0.74875675390E+00  0.55788332614E+02  0.56288320712E+02  0.74470750000E+01 0.  1.
<mgrwt>
<rscale>  0 0.15005414E+02</rscale>
<asrwt>0</asrwt>
<pdfrwt beam="2">  1        2 0.99513463E+00 0.15005414E+02</pdfrwt>
<pdfrwt beam="1">  1       -2 0.99728320E+00 0.15005414E+02</pdfrwt>
<totfact>-0.88138849E-14</totfact>
</mgrwt>
</event>
<event>
 4    1  0.5011189E-019  0.1490369E+02  0.7818608E-02  0.1871022E+00
          2   -1    0    0  501    0  0.00000000000E+00  0.00000000000E+00  0.12032986311E+03  0.12032986314E+03  0.25500000000E-02 0. -1.
         -2   -1    0    0    0  501 -0.00000000000E+00 -0.00000000000E+00 -0.46147772362E+00  0.46148476887E+00  0.25500000000E-02 0.  1.
         31    1    1    2    0    0 -0.76048427631E-01 -0.12466878408E+00  0.61741520765E+02  0.62189192293E+02  0.74470750000E+01 0. -1.
        -31    1    1    2    0    0  0.76048427631E-01  0.12466878408E+00  0.58126864622E+02  0.58602155613E+02  0.74470750000E+01 0.  1.
<mgrwt>
<rscale>  0 0.14903688E+02</rscale>
<asrwt>0</asrwt>
<pdfrwt beam="1">  1        2 0.99878738E+00 0.14903688E+02</pdfrwt>
<pdfrwt beam="2">  1       -2 0.98020934E+00 0.14903688E+02</pdfrwt>
<totfact> 0.49603530E-13</totfact>
</mgrwt>
</event>
<event>
 4    1 -0.5011189E-019  0.1494540E+02  0.7818608E-02  0.1869739E+00
         -2   -1    0    0    0  501 -0.00000000000E+00  0.00000000000E+00  0.12012136397E+03  0.12012136400E+03  0.25500000000E-02 0.  1.
          2   -1    0    0  501    0  0.00000000000E+00 -0.00000000000E+00 -0.46486999679E+00  0.46487699063E+00  0.25500000000E-02 0. -1.
         31    1    1    2    0    0 -0.34126879525E+00 -0.37806789749E+00  0.62656991705E+02  0.63100054954E+02  0.74470750000E+01 0.  1.
        -31    1    1    2    0    0  0.34126879525E+00  0.37806789749E+00  0.56999502267E+02  0.57486186032E+02  0.74470750000E+01 0. -1.
<mgrwt>
<rscale>  0 0.14945399E+02</rscale>
<asrwt>0</asrwt>
<pdfrwt beam="2">  1        2 0.98738031E+00 0.14945399E+02</pdfrwt>
<pdfrwt beam="1">  1       -2 0.99709141E+00 0.14945399E+02</pdfrwt>
<totfact>-0.19017038E-13</totfact>
</mgrwt>
</event>
<event>
 4    1 -0.5011189E-019  0.1499406E+02  0.7818608E-02  0.1868250E+00
          2   -1    0    0  501    0  0.00000000000E+00  0.00000000000E+00  0.11973881957E+03  0.11973881960E+03  0.25500000000E-02 0. -1.
         -2   -1    0    0    0  501 -0.00000000000E+00 -0.00000000000E+00 -0.46939672944E+00  0.46940365584E+00  0.25500000000E-02 0.  1.
         31    1    1    2    0    0 -0.48702666251E+00 -0.64326074936E+00  0.62112524867E+02  0.62562573883E+02  0.74470750000E+01 0.  1.
        -31    1    1    2    0    0  0.48702666251E+00  0.64326074936E+00  0.57156897975E+02  0.57645649372E+02  0.74470750000E+01 0. -1.
<mgrwt>
<rscale>  0 0.14994056E+02</rscale>
<asrwt>0</asrwt>
<pdfrwt beam="1">  1        2 0.99396570E+00 0.14994056E+02</pdfrwt>
<pdfrwt beam="2">  1       -2 0.99694509E+00 0.14994056E+02</pdfrwt>
<totfact>-0.10616758E-13</totfact>
</mgrwt>
</event>
<event>
 4    1  0.5011189E-019  0.1492178E+02  0.7818608E-02  0.1870465E+00
          2   -1    0    0  501    0  0.00000000000E+00  0.00000000000E+00  0.11966119499E+03  0.11966119501E+03  0.25500000000E-02 0. -1.
         -2   -1    0    0    0  501 -0.00000000000E+00 -0.00000000000E+00 -0.46518407327E+00  0.46519106238E+00  0.25500000000E-02 0.  1.
         31    1    1    2    0    0 -0.61106184026E-01 -0.42509931109E+00  0.60779361360E+02  0.61235399376E+02  0.74470750000E+01 0.  1.
        -31    1    1    2    0    0  0.61106184026E-01  0.42509931109E+00  0.58416649553E+02  0.58890986700E+02  0.74470750000E+01 0. -1.
<mgrwt>
<rscale>  0 0.14921783E+02</rscale>
<asrwt>0</asrwt>
<pdfrwt beam="1">  1        2 0.99328901E+00 0.14921783E+02</pdfrwt>
<pdfrwt beam="2">  1       -2 0.98803017E+00 0.14921783E+02</pdfrwt>
<totfact> 0.17192567E-13</totfact>
</mgrwt>
</event>
<event>
 4    1 -0.5011189E-019  0.1489830E+02  0.7818608E-02  0.1871188E+00
          2   -1    0    0  501    0  0.00000000000E+00  0.00000000000E+00  0.11845576196E+03  0.11845576199E+03  0.25500000000E-02 0.  1.
         -2   -1    0    0    0  501 -0.00000000000E+00 -0.00000000000E+00 -0.46843985903E+00  0.46844679957E+00  0.25500000000E-02 0. -1.
         31    1    1    2    0    0 -0.12865648734E+00 -0.82235133005E-01  0.58298980975E+02  0.58772897018E+02  0.74470750000E+01 0. -1.
        -31    1    1    2    0    0  0.12865648734E+00  0.82235133005E-01  0.59688341126E+02  0.60151311769E+02  0.74470750000E+01 0.  1.
<mgrwt>
<rscale>  0 0.14898297E+02</rscale>
<asrwt>0</asrwt>
<pdfrwt beam="1">  1        2 0.98334857E+00 0.14898297E+02</pdfrwt>
<pdfrwt beam="2">  1       -2 0.99487877E+00 0.14898297E+02</pdfrwt>
<totfact>-0.45747399E-13</totfact>
</mgrwt>
</event>
<event>
 4    1 -0.5011189E-019  0.1493463E+02  0.7818608E-02  0.1870070E+00
         -2   -1    0    0    0  501 -0.00000000000E+00  0.00000000000E+00  0.11996015463E+03  0.11996015466E+03  0.25500000000E-02 0. -1.
          2   -1    0    0  501    0  0.00000000000E+00 -0.00000000000E+00 -0.46482385238E+00  0.46483084691E+00  0.25500000000E-02 0.  1.
         31    1    1    2    0    0 -0.85866556307E-01  0.53491637544E+00  0.60483580556E+02  0.60942726814E+02  0.74470750000E+01 0. -1.
        -31    1    1    2    0    0  0.85866556307E-01 -0.53491637544E+00  0.59011750224E+02  0.59482258693E+02  0.74470750000E+01 0. -1.
<mgrwt>
<rscale>  0 0.14934626E+02</rscale>
<asrwt>0</asrwt>
<pdfrwt beam="2">  1        2 0.98727757E+00 0.14934626E+02</pdfrwt>
<pdfrwt beam="1">  1       -2 0.99575804E+00 0.14934626E+02</pdfrwt>
<totfact>-0.23605036E-13</totfact>
</mgrwt>
</event>
<event>
 4    1  0.5011189E-019  0.1491348E+02  0.7818608E-02  0.1870720E+00
         -2   -1    0    0    0  501 -0.00000000000E+00  0.00000000000E+00  0.11828433812E+03  0.11828433815E+03  0.25500000000E-02 0. -1.
          2   -1    0    0  501    0  0.00000000000E+00 -0.00000000000E+00 -0.47007512758E+00  0.47008204397E+00  0.25500000000E-02 0.  1.
         31    1    1    2    0    0  0.58954953794E-01  0.36331684921E+00  0.59642859972E+02  0.60107113943E+02  0.74470750000E+01 0. -1.
        -31    1    1    2    0    0 -0.58954953794E-01 -0.36331684921E+00  0.58171403018E+02  0.58647306246E+02  0.74470750000E+01 0.  1.
<mgrwt>
<rscale>  0 0.14913475E+02</rscale>
<asrwt>0</asrwt>
<pdfrwt beam="2">  1        2 0.99833227E+00 0.14913475E+02</pdfrwt>
<pdfrwt beam="1">  1       -2 0.98194463E+00 0.14913475E+02</pdfrwt>
<totfact> 0.47148403E-13</totfact>
</mgrwt>
</event>
<event>
 4    1  0.5011189E-019  0.1492948E+02  0.7818608E-02  0.1870228E+00
         -2   -1    0    0    0  501 -0.00000000000E+00  0.00000000000E+00  0.11864688478E+03  0.11864688481E+03  0.25500000000E-02 0. -1.
          2   -1    0    0  501    0  0.00000000000E+00 -0.00000000000E+00 -0.46964523603E+00  0.46965215876E+00  0.25500000000E-02 0.  1.
         31    1    1    2    0    0 -0.82516142097E-01 -0.50017620520E+00  0.58447994420E+02  0.58922694803E+02  0.74470750000E+01 0.  1.
        -31    1    1    2    0    0  0.82516142097E-01  0.50017620520E+00  0.59729245126E+02  0.60193842165E+02  0.74470750000E+01 0. -1.
<mgrwt>
<rscale>  0 0.14929482E+02</rscale>
<asrwt>0</asrwt>
<pdfrwt beam="2">  1        2 0.99743496E+00 0.14929482E+02</pdfrwt>
<pdfrwt beam="1">  1       -2 0.98493887E+00 0.14929482E+02</pdfrwt>
<totfact> 0.32646758E-13</totfact>
</mgrwt>
</event>
<event>
 4    1  0.5011189E-019  0.1489933E+02  0.7818608E-02  0.1871156E+00
          2   -1    0    0  501    0  0.00000000000E+00  0.00000000000E+00  0.12015215793E+03  0.12015215796E+03  0.25500000000E-02 0.  1.
         -2   -1    0    0    0  501 -0.00000000000E+00 -0.00000000000E+00 -0.46189002761E+00  0.46189706657E+00  0.25500000000E-02 0. -1.
         31    1    1    2    0    0  0.34825455851E-01  0.11298349096E+00  0.61114969871E+02  0.61567137715E+02  0.74470750000E+01 0.  1.
        -31    1    1    2    0    0 -0.34825455851E-01 -0.11298349096E+00  0.58575298033E+02  0.59046917310E+02  0.74470750000E+01 0. -1.
<mgrwt>
<rscale>  0 0.14899330E+02</rscale>
<asrwt>0</asrwt>
<pdfrwt beam="1">  1        2 0.99732140E+00 0.14899330E+02</pdfrwt>
<pdfrwt beam="2">  1       -2 0.98107619E+00 0.14899330E+02</pdfrwt>
<totfact> 0.79922149E-13</totfact>
</mgrwt>
</event>
<event>
 4    1 -0.5011189E-019  0.1497259E+02  0.7818608E-02  0.1868906E+00
         -2   -1    0    0    0  501 -0.00000000000E+00  0.00000000000E+00  0.11955448556E+03  0.11955448559E+03  0.25500000000E-02 0. -1.
          2   -1    0    0  501    0  0.00000000000E+00 -0.00000000000E+00 -0.46877510295E+00  0.46878203852E+00  0.25500000000E-02 0.  1.
         31    1    1    2    0    0 -0.29778874913E+00  0.13448714787E+00  0.53995475039E+02  0.54507586771E+02  0.74470750000E+01 0.  1.
        -31    1    1    2    0    0  0.29778874913E+00 -0.13448714787E+00  0.65090235419E+02  0.65515680855E+02  0.74470750000E+01 0. -1.
<mgrwt>
<rscale>  0 0.14972586E+02</rscale>
<asrwt>0</asrwt>
<pdfrwt beam="2">  1        2 0.99562401E+00 0.14972586E+02</pdfrwt>
<pdfrwt beam="1">  1       -2 0.99243635E+00 0.14972586E+02</pdfrwt>
<totfact>-0.84757176E-14</totfact>
</mgrwt>
</event>
<event>
 4    1  0.5011189E-019  0.1493317E+02  0.7818608E-02  0.1870115E+00
         -2   -1    0    0    0  501 -0.00000000000E+00  0.00000000000E+00  0.11895144506E+03  0.11895144509E+03  0.25500000000E-02 0. -1.
          2   -1    0    0  501    0  0.00000000000E+00 -0.00000000000E+00 -0.46867391426E+00  0.46868085134E+00  0.25500000000E-02 0.  1.
         31    1    1    2    0    0 -0.42854624301E+00  0.21921755354E+00  0.57295293917E+02  0.57779246614E+02  0.74470750000E+01 0.  1.
        -31    1    1    2    0    0  0.42854624301E+00 -0.21921755354E+00  0.61187477232E+02  0.61640879327E+02  0.74470750000E+01 0.  1.
<mgrwt>
<rscale>  0 0.14933165E+02</rscale>
<asrwt>0</asrwt>
<pdfrwt beam="2">  1        2 0.99539024E+00 0.14933165E+02</pdfrwt>
<pdfrwt beam="1">  1       -2 0.98744916E+00 0.14933165E+02</pdfrwt>
<totfact> 0.19290769E-13</totfact>
</mgrwt>
</event>
<event>
 4    1 -0.5011189E-019  0.1490445E+02  0.7818608E-02  0.1870998E+00
          2   -1    0    0  501    0  0.00000000000E+00  0.00000000000E+00  0.11841410271E+03  0.11841410274E+03  0.25500000000E-02 0.  1.
         -2   -1    0    0    0  501 -0.00000000000E+00 -0.00000000000E+00 -0.46899188379E+00  0.46899881617E+00  0.25500000000E-02 0. -1.
         31    1    1    2    0    0 -0.98640070447E-02  0.21417404041E+00  0.60371783567E+02  0.60829738985E+02  0.74470750000E+01 0.  1.
        -31    1    1    2    0    0  0.98640070447E-02 -0.21417404041E+00  0.57573327258E+02  0.58053362568E+02  0.74470750000E+01 0. -1.
<mgrwt>
<rscale>  0 0.14904451E+02</rscale>
<asrwt>0</asrwt>
<pdfrwt beam="1">  1        2 0.98300866E+00 0.14904451E+02</pdfrwt>
<pdfrwt beam="2">  1       -2 0.99604514E+00 0.14904451E+02</pdfrwt>
<totfact>-0.45152685E-13</totfact>
</mgrwt>
</event>
<event>
 4    1  0.5011189E-019  0.1489579E+02  0.7818608E-02  0.1871265E+00
         -2   -1    0    0    0  501 -0.00000000000E+00  0.00000000000E+00  0.11851920207E+03  0.11851920209E+03  0.25500000000E-02 0. -1.
          2   -1    0    0  501    0  0.00000000000E+00 -0.00000000000E+00 -0.46803156042E+00  0.46803850702E+00  0.25500000000E-02 0.  1.
         31    1    1    2    0    0  0.62771852434E-01 -0.90214026921E-01  0.59119102940E+02  0.59586402285E+02  0.74470750000E+01 0. -1.
        -31    1    1    2    0    0 -0.62771852434E-01  0.90214026921E-01  0.58932067565E+02  0.59400838314E+02  0.74470750000E+01 0.  1.
<mgrwt>
<rscale>  0 0.14895790E+02</rscale>
<asrwt>0</asrwt>
<pdfrwt beam="2">  1        2 0.99401714E+00 0.14895790E+02</pdfrwt>
<pdfrwt beam="1">  1       -2 0.98386976E+00 0.14895790E+02</pdfrwt>
<totfact> 0.71240166E-13</totfact>
</mgrwt>
</event>
<event>
 4    1 -0.5011189E-019  0.1497167E+02  0.7818608E-02  0.1868934E+00
         -2   -1    0    0    0  501 -0.00000000000E+00  0.00000000000E+00  0.12018241722E+03  0.12018241725E+03  0.25500000000E-02 0. -1.
          2   -1    0    0  501    0  0.00000000000E+00 -0.00000000000E+00 -0.46626875500E+00  0.46627572786E+00  0.25500000000E-02 0.  1.
         31    1    1    2    0    0 -0.70709418816E+00  0.89737304898E-01  0.57714351394E+02  0.58197193385E+02  0.74470750000E+01 0.  1.
        -31    1    1    2    0    0  0.70709418816E+00 -0.89737304898E-01  0.62001797073E+02  0.62451499592E+02  0.74470750000E+01 0.  1.
<mgrwt>
<rscale>  0 0.14971670E+02</rscale>
<asrwt>0</asrwt>
<pdfrwt beam="2">  1        2 0.99034168E+00 0.14971670E+02</pdfrwt>
<pdfrwt beam="1">  1       -2 0.99760781E+00 0.14971670E+02</pdfrwt>
<totfact>-0.11820967E-13</totfact>
</mgrwt>
</event>
<event>
 4    1  0.5011189E-019  0.1489803E+02  0.7818608E-02  0.1871196E+00
          2   -1    0    0  501    0  0.00000000000E+00  0.00000000000E+00  0.11959668956E+03  0.11959668959E+03  0.25500000000E-02 0.  1.
         -2   -1    0    0    0  501 -0.00000000000E+00 -0.00000000000E+00 -0.46395437654E+00  0.46396138418E+00  0.25500000000E-02 0. -1.
         31    1    1    2    0    0  0.74913517067E-01  0.91044645049E-01  0.58579280489E+02  0.59050867308E+02  0.74470750000E+01 0. -1.
        -31    1    1    2    0    0 -0.74913517067E-01 -0.91044645049E-01  0.60553454697E+02  0.61009783665E+02  0.74470750000E+01 0. -1.
<mgrwt>
<rscale>  0 0.14898031E+02</rscale>
<asrwt>0</asrwt>
<pdfrwt beam="1">  1        2 0.99274546E+00 0.14898031E+02</pdfrwt>
<pdfrwt beam="2">  1       -2 0.98542642E+00 0.14898031E+02</pdfrwt>
<totfact> 0.51471942E-13</totfact>
</mgrwt>
</event>
<event>
 4    1 -0.5011189E-019  0.1492846E+02  0.7818608E-02  0.1870259E+00
         -2   -1    0    0    0  501 -0.00000000000E+00  0.00000000000E+00  0.12009123617E+03  0.12009123619E+03  0.25500000000E-02 0.  1.
          2   -1    0    0  501    0  0.00000000000E+00 -0.00000000000E+00 -0.46393307172E+00  0.46394007969E+00  0.25500000000E-02 0. -1.
         31    1    1    2    0    0 -0.40408504823E-01 -0.29650173047E+00  0.56520975154E+02  0.57010254381E+02  0.74470750000E+01 0. -1.
        -31    1    1    2    0    0  0.40408504823E-01  0.29650173047E+00  0.63106327941E+02  0.63544921893E+02  0.74470750000E+01 0.  1.
<mgrwt>
<rscale>  0 0.14928459E+02</rscale>
<asrwt>0</asrwt>
<pdfrwt beam="2">  1        2 0.98539703E+00 0.14928459E+02</pdfrwt>
<pdfrwt beam="1">  1       -2 0.99683455E+00 0.14928459E+02</pdfrwt>
<totfact>-0.26988740E-13</totfact>
</mgrwt>
</event>
<event>
 4    1 -0.5011189E-019  0.1493829E+02  0.7818608E-02  0.1869958E+00
          2   -1    0    0  501    0  0.00000000000E+00  0.00000000000E+00  0.11864926420E+03  0.11864926422E+03  0.25500000000E-02 0.  1.
         -2   -1    0    0    0  501 -0.00000000000E+00 -0.00000000000E+00 -0.47018998702E+00  0.47019690173E+00  0.25500000000E-02 0. -1.
         31    1    1    2    0    0 -0.10607070785E-01  0.45234704078E+00  0.61902633906E+02  0.62350619410E+02  0.74470750000E+01 0.  1.
        -31    1    1    2    0    0  0.10607070785E-01 -0.45234704078E+00  0.56276440303E+02  0.56768841715E+02  0.74470750000E+01 0.  1.
<mgrwt>
<rscale>  0 0.14938288E+02</rscale>
<asrwt>0</asrwt>
<pdfrwt beam="1">  1        2 0.98496305E+00 0.14938288E+02</pdfrwt>
<pdfrwt beam="2">  1       -2 0.99858740E+00 0.14938288E+02</pdfrwt>
<totfact>-0.15480465E-13</totfact>
</mgrwt>
</event>
<event>
 4    1 -0.5011189E-019  0.1500229E+02  0.7818608E-02  0.1867998E+00
          2   -1    0    0  501    0  0.00000000000E+00  0.00000000000E+00  0.12036509405E+03  0.12036509408E+03  0.25500000000E-02 0.  1.
         -2   -1    0    0    0  501 -0.00000000000E+00 -0.00000000000E+00 -0.46746763193E+00  0.46747458691E+00  0.25500000000E-02 0. -1.
         31    1    1    2    0    0  0.85659560667E+00  0.26745956434E+00  0.59508354036E+02  0.59979233212E+02  0.74470750000E+01 0.  1.
        -31    1    1    2    0    0 -0.85659560667E+00 -0.26745956434E+00  0.60389272385E+02  0.60853335454E+02  0.74470750000E+01 0.  1.
<mgrwt>
<rscale>  0 0.15002294E+02</rscale>
<asrwt>0</asrwt>
<pdfrwt beam="1">  1        2 0.99912822E+00 0.15002294E+02</pdfrwt>
<pdfrwt beam="2">  1       -2 0.99288399E+00 0.15002294E+02</pdfrwt>
<totfact>-0.27449859E-14</totfact>
</mgrwt>
</event>
<event>
 4    1  0.5011189E-019  0.1491669E+02  0.7818608E-02  0.1870621E+00
          2   -1    0    0  501    0  0.00000000000E+00  0.00000000000E+00  0.12009712247E+03  0.12009712250E+03  0.25500000000E-02 0. -1.
         -2   -1    0    0    0  501 -0.00000000000E+00 -0.00000000000E+00 -0.46317918025E+00  0.46318619962E+00  0.25500000000E-02 0.  1.
         31    1    1    2    0    0  0.28551772814E+00  0.27260418443E+00  0.58926015658E+02  0.59396044319E+02  0.74470750000E+01 0.  1.
        -31    1    1    2    0    0 -0.28551772814E+00 -0.27260418443E+00  0.60707927635E+02  0.61164264380E+02  0.74470750000E+01 0. -1.
<mgrwt>
<rscale>  0 0.14916690E+02</rscale>
<asrwt>0</asrwt>
<pdfrwt beam="1">  1        2 0.99687698E+00 0.14916690E+02</pdfrwt>
<pdfrwt beam="2">  1       -2 0.98380212E+00 0.14916690E+02</pdfrwt>
<totfact> 0.50222054E-13</totfact>
</mgrwt>
</event>
<event>
 4    1 -0.5011189E-019  0.1492838E+02  0.7818608E-02  0.1870262E+00
         -2   -1    0    0    0  501 -0.00000000000E+00  0.00000000000E+00  0.12025100773E+03  0.12025100776E+03  0.25500000000E-02 0. -1.
          2   -1    0    0  501    0  0.00000000000E+00 -0.00000000000E+00 -0.46331177595E+00  0.46331879331E+00  0.25500000000E-02 0.  1.
         31    1    1    2    0    0  0.18349974773E+00  0.30661363534E+00  0.62781470292E+02  0.63222619545E+02  0.74470750000E+01 0. -1.
        -31    1    1    2    0    0 -0.18349974773E+00 -0.30661363534E+00  0.57006225667E+02  0.57491707010E+02  0.74470750000E+01 0.  1.
<mgrwt>
<rscale>  0 0.14928380E+02</rscale>
<asrwt>0</asrwt>
<pdfrwt beam="2">  1        2 0.98408751E+00 0.14928380E+02</pdfrwt>
<pdfrwt beam="1">  1       -2 0.99815051E+00 0.14928380E+02</pdfrwt>
<totfact>-0.22490027E-13</totfact>
</mgrwt>
</event>
<event>
 4    1 -0.5011189E-019  0.1499601E+02  0.7818608E-02  0.1868190E+00
          2   -1    0    0  501    0  0.00000000000E+00  0.00000000000E+00  0.11981429608E+03  0.11981429611E+03  0.25500000000E-02 0.  1.
         -2   -1    0    0    0  501 -0.00000000000E+00 -0.00000000000E+00 -0.46922337699E+00  0.46923030594E+00  0.25500000000E-02 0. -1.
         31    1    1    2    0    0 -0.52980838131E+00  0.42236440644E+00  0.64080985675E+02  0.64515817749E+02  0.74470750000E+01 0. -1.
        -31    1    1    2    0    0  0.52980838131E+00 -0.42236440644E+00  0.55264087030E+02  0.55767708667E+02  0.74470750000E+01 0. -1.
<mgrwt>
<rscale>  0 0.14996011E+02</rscale>
<asrwt>0</asrwt>
<pdfrwt beam="1">  1        2 0.99458835E+00 0.14996011E+02</pdfrwt>
<pdfrwt beam="2">  1       -2 0.99658081E+00 0.14996011E+02</pdfrwt>
<totfact>-0.10772599E-13</totfact>
</mgrwt>
</event>
<event>
 4    1 -0.5011189E-019  0.1495559E+02  0.7818608E-02  0.1869427E+00
          2   -1    0    0  501    0  0.00000000000E+00  0.00000000000E+00  0.11923032612E+03  0.11923032614E+03  0.25500000000E-02 0. -1.
         -2   -1    0    0    0  501 -0.00000000000E+00 -0.00000000000E+00 -0.46898288948E+00  0.46898982198E+00  0.25500000000E-02 0.  1.
         31    1    1    2    0    0 -0.25605240210E+00 -0.59728619282E+00  0.60902622604E+02  0.61359682852E+02  0.74470750000E+01 0. -1.
        -31    1    1    2    0    0  0.25605240210E+00  0.59728619282E+00  0.57858720623E+02  0.58339633113E+02  0.74470750000E+01 0.  1.
<mgrwt>
<rscale>  0 0.14955588E+02</rscale>
<asrwt>0</asrwt>
<pdfrwt beam="1">  1        2 0.98975769E+00 0.14955588E+02</pdfrwt>
<pdfrwt beam="2">  1       -2 0.99605301E+00 0.14955588E+02</pdfrwt>
<totfact>-0.17058738E-13</totfact>
</mgrwt>
</event>
<event>
 4    1  0.5011189E-019  0.1491237E+02  0.7818608E-02  0.1870754E+00
         -2   -1    0    0    0  501 -0.00000000000E+00  0.00000000000E+00  0.11887982426E+03  0.11887982429E+03  0.25500000000E-02 0. -1.
          2   -1    0    0  501    0  0.00000000000E+00 -0.00000000000E+00 -0.46765138347E+00  0.46765833571E+00  0.25500000000E-02 0.  1.
         31    1    1    2    0    0  0.12271962363E+00 -0.30394160781E+00  0.57858206898E+02  0.58336424917E+02  0.74470750000E+01 0. -1.
        -31    1    1    2    0    0 -0.12271962363E+00  0.30394160781E+00  0.60553965977E+02  0.61011057704E+02  0.74470750000E+01 0. -1.
<mgrwt>
<rscale>  0 0.14912375E+02</rscale>
<asrwt>0</asrwt>
<pdfrwt beam="2">  1        2 0.99322473E+00 0.14912375E+02</pdfrwt>
<pdfrwt beam="1">  1       -2 0.98684849E+00 0.14912375E+02</pdfrwt>
<totfact> 0.30376064E-13</totfact>
</mgrwt>
</event>
<event>
 4    1  0.5011189E-019  0.1490571E+02  0.7818608E-02  0.1870960E+00
         -2   -1    0    0    0  501 -0.00000000000E+00  0.00000000000E+00  0.11847217705E+03  0.11847217708E+03  0.25500000000E-02 0.  1.
          2   -1    0    0  501    0  0.00000000000E+00 -0.00000000000E+00 -0.46884115160E+00  0.46884808620E+00  0.25500000000E-02 0. -1.
         31    1    1    2    0    0  0.42998186560E-01  0.26988156542E+00  0.59854958792E+02  0.60317076379E+02  0.74470750000E+01 0.  1.
        -31    1    1    2    0    0 -0.42998186560E-01 -0.26988156542E+00  0.58148377110E+02  0.58623948788E+02  0.74470750000E+01 0.  1.
<mgrwt>
<rscale>  0 0.14905710E+02</rscale>
<asrwt>0</asrwt>
<pdfrwt beam="2">  1        2 0.99572821E+00 0.14905710E+02</pdfrwt>
<pdfrwt beam="1">  1       -2 0.98348761E+00 0.14905710E+02</pdfrwt>
<totfact> 0.65538380E-13</totfact>
</mgrwt>
</event>
<event>
 4    1 -0.5011189E-019  0.1497618E+02  0.7818608E-02  0.1868796E+00
         -2   -1    0    0    0  501 -0.00000000000E+00  0.00000000000E+00  0.11985544710E+03  0.11985544713E+03  0.25500000000E-02 0. -1.
          2   -1    0    0  501    0  0.00000000000E+00 -0.00000000000E+00 -0.46782254715E+00  0.46782949685E+00  0.25500000000E-02 0.  1.
         31    1    1    2    0    0 -0.53388742290E+00  0.35975275083E+00  0.63269905185E+02  0.63709922979E+02  0.74470750000E+01 0. -1.
        -31    1    1    2    0    0  0.53388742290E+00 -0.35975275083E+00  0.56117719368E+02  0.56613353645E+02  0.74470750000E+01 0.  1.
<mgrwt>
<rscale>  0 0.14976181E+02</rscale>
<asrwt>0</asrwt>
<pdfrwt beam="2">  1        2 0.99361853E+00 0.14976181E+02</pdfrwt>
<pdfrwt beam="1">  1       -2 0.99491704E+00 0.14976181E+02</pdfrwt>
<totfact>-0.13475366E-13</totfact>
</mgrwt>
</event>
<event>
 4    1  0.5011189E-019  0.1494743E+02  0.7818608E-02  0.1869677E+00
          2   -1    0    0  501    0  0.00000000000E+00  0.00000000000E+00  0.11995681149E+03  0.11995681152E+03  0.25500000000E-02 0. -1.
         -2   -1    0    0    0  501 -0.00000000000E+00 -0.00000000000E+00 -0.46563420490E+00  0.46564118726E+00  0.25500000000E-02 0.  1.
         31    1    1    2    0    0  0.57987097444E+00  0.14314993820E+00  0.61371869662E+02  0.61824930684E+02  0.74470750000E+01 0. -1.
        -31    1    1    2    0    0 -0.57987097444E+00 -0.14314993820E+00  0.58119307625E+02  0.58597522022E+02  0.74470750000E+01 0.  1.
<mgrwt>
<rscale>  0 0.14947430E+02</rscale>
<asrwt>0</asrwt>
<pdfrwt beam="1">  1        2 0.99573709E+00 0.14947430E+02</pdfrwt>
<pdfrwt beam="2">  1       -2 0.98899196E+00 0.14947430E+02</pdfrwt>
<totfact> 0.67022784E-14</totfact>
</mgrwt>
</event>
<event>
 4    1 -0.5011189E-019  0.1497103E+02  0.7818608E-02  0.1868954E+00
          2   -1    0    0  501    0  0.00000000000E+00  0.00000000000E+00  0.11988077746E+03  0.11988077749E+03  0.25500000000E-02 0.  1.
         -2   -1    0    0    0  501 -0.00000000000E+00 -0.00000000000E+00 -0.46740219237E+00  0.46740914831E+00  0.25500000000E-02 0. -1.
         31    1    1    2    0    0  0.17214261009E+00 -0.73651070104E+00  0.59351591975E+02  0.59821755884E+02  0.74470750000E+01 0.  1.
        -31    1    1    2    0    0 -0.17214261009E+00  0.73651070104E+00  0.60061783292E+02  0.60526430750E+02  0.74470750000E+01 0.  1.
<mgrwt>
<rscale>  0 0.14971033E+02</rscale>
<asrwt>0</asrwt>
<pdfrwt beam="1">  1        2 0.99512301E+00 0.14971033E+02</pdfrwt>
<pdfrwt beam="2">  1       -2 0.99273003E+00 0.14971033E+02</pdfrwt>
<totfact>-0.96722066E-14</totfact>
</mgrwt>
</event>
<event>
 4    1  0.5011189E-019  0.1494476E+02  0.7818608E-02  0.1869759E+00
          2   -1    0    0  501    0  0.00000000000E+00  0.00000000000E+00  0.11995692929E+03  0.11995692931E+03  0.25500000000E-02 0.  1.
         -2   -1    0    0    0  501 -0.00000000000E+00 -0.00000000000E+00 -0.46546721722E+00  0.46547420208E+00  0.25500000000E-02 0. -1.
         31    1    1    2    0    0  0.35366725416E+00 -0.30027116534E+00  0.62991658145E+02  0.63432035796E+02  0.74470750000E+01 0.  1.
        -31    1    1    2    0    0 -0.35366725416E+00  0.30027116534E+00  0.56499803925E+02  0.56990367720E+02  0.74470750000E+01 0. -1.
<mgrwt>
<rscale>  0 0.14944757E+02</rscale>
<asrwt>0</asrwt>
<pdfrwt beam="1">  1        2 0.99573669E+00 0.14944757E+02</pdfrwt>
<pdfrwt beam="2">  1       -2 0.98863866E+00 0.14944757E+02</pdfrwt>
<totfact> 0.91042564E-14</totfact>
</mgrwt>
</event>
<event>
 4    1 -0.5011189E-019  0.1497694E+02  0.7818608E-02  0.1868773E+00
          2   -1    0    0  501    0  0.00000000000E+00  0.00000000000E+00  0.11963438410E+03  0.11963438412E+03  0.25500000000E-02 0. -1.
         -2   -1    0    0    0  501 -0.00000000000E+00 -0.00000000000E+00 -0.46873465899E+00  0.46874159516E+00  0.25500000000E-02 0.  1.
         31    1    1    2    0    0  0.67060792182E+00 -0.39350018220E+00  0.60522029028E+02  0.60983436121E+02  0.74470750000E+01 0.  1.
        -31    1    1    2    0    0 -0.67060792182E+00  0.39350018220E+00  0.58643620410E+02  0.59119689599E+02  0.74470750000E+01 0.  1.
<mgrwt>
<rscale>  0 0.14976942E+02</rscale>
<asrwt>0</asrwt>
<pdfrwt beam="1">  1        2 0.99309668E+00 0.14976942E+02</pdfrwt>
<pdfrwt beam="2">  1       -2 0.99554105E+00 0.14976942E+02</pdfrwt>
<totfact>-0.13658996E-13</totfact>
</mgrwt>
</event>
<event>
 4    1  0.5011189E-019  0.1490438E+02  0.7818608E-02  0.1871001E+00
         -2   -1    0    0    0  501 -0.00000000000E+00  0.00000000000E+00  0.11836541106E+03  0.11836541108E+03  0.25500000000E-02 0.  1.
          2   -1    0    0  501    0  0.00000000000E+00 -0.00000000000E+00 -0.46918022802E+00  0.46918715761E+00  0.25500000000E-02 0. -1.
         31    1    1    2    0    0  0.25384190665E+00  0.29050401545E-01  0.59781230576E+02  0.60243835659E+02  0.74470750000E+01 0.  1.
        -31    1    1    2    0    0 -0.25384190665E+00 -0.29050401545E-01  0.58115000252E+02  0.58590762583E+02  0.74470750000E+01 0. -1.
<mgrwt>
<rscale>  0 0.14904378E+02</rscale>
<asrwt>0</asrwt>
<pdfrwt beam="2">  1        2 0.99644194E+00 0.14904378E+02</pdfrwt>
<pdfrwt beam="1">  1       -2 0.98260760E+00 0.14904378E+02</pdfrwt>
<totfact> 0.71452756E-13</totfact>
</mgrwt>
</event>
<event>
 4    1  0.5011189E-019  0.1490971E+02  0.7818608E-02  0.1870836E+00
         -2   -1    0    0    0  501 -0.00000000000E+00  0.00000000000E+00  0.11887963032E+03  0.11887963035E+03  0.25500000000E-02 0.  1.
          2   -1    0    0  501    0  0.00000000000E+00 -0.00000000000E+00 -0.46748526440E+00  0.46749221912E+00  0.25500000000E-02 0. -1.
         31    1    1    2    0    0 -0.17557515104E+00 -0.27378436487E+00  0.58398375881E+02  0.58872192214E+02  0.74470750000E+01 0.  1.
        -31    1    1    2    0    0  0.17557515104E+00  0.27378436487E+00  0.60013769173E+02  0.60474930351E+02  0.74470750000E+01 0.  1.
<mgrwt>
<rscale>  0 0.14909714E+02</rscale>
<asrwt>0</asrwt>
<pdfrwt beam="2">  1        2 0.99287330E+00 0.14909714E+02</pdfrwt>
<pdfrwt beam="1">  1       -2 0.98684551E+00 0.14909714E+02</pdfrwt>
<totfact> 0.31195259E-13</totfact>
</mgrwt>
</event>
<event>
 4    1 -0.5011189E-019  0.1493286E+02  0.7818608E-02  0.1870124E+00
         -2   -1    0    0    0  501 -0.00000000000E+00  0.00000000000E+00  0.11978372656E+03  0.11978372659E+03  0.25500000000E-02 0. -1.
          2   -1    0    0  501    0  0.00000000000E+00 -0.00000000000E+00 -0.46539826062E+00  0.46540524652E+00  0.25500000000E-02 0.  1.
         31    1    1    2    0    0 -0.22080402094E+00 -0.46620144524E+00  0.58450316564E+02  0.58925075568E+02  0.74470750000E+01 0.  1.
        -31    1    1    2    0    0  0.22080402094E+00  0.46620144524E+00  0.60868011734E+02  0.61324056265E+02  0.74470750000E+01 0. -1.
<mgrwt>
<rscale>  0 0.14932858E+02</rscale>
<asrwt>0</asrwt>
<pdfrwt beam="2">  1        2 0.98848724E+00 0.14932858E+02</pdfrwt>
<pdfrwt beam="1">  1       -2 0.99430396E+00 0.14932858E+02</pdfrwt>
<totfact>-0.20892668E-13</totfact>
</mgrwt>
</event>
<event>
 4    1 -0.5011189E-019  0.1500283E+02  0.7818608E-02  0.1867982E+00
          2   -1    0    0  501    0  0.00000000000E+00  0.00000000000E+00  0.11992208488E+03  0.11992208490E+03  0.25500000000E-02 0.  1.
         -2   -1    0    0    0  501 -0.00000000000E+00 -0.00000000000E+00 -0.46922786712E+00  0.46923479601E+00  0.25500000000E-02 0. -1.
         31    1    1    2    0    0 -0.65742723231E+00  0.35732022333E+00  0.63757837236E+02  0.64195643336E+02  0.74470750000E+01 0.  1.
        -31    1    1    2    0    0  0.65742723231E+00 -0.35732022333E+00  0.55695019775E+02  0.56195676365E+02  0.74470750000E+01 0.  1.
<mgrwt>
<rscale>  0 0.15002827E+02</rscale>
<asrwt>0</asrwt>
<pdfrwt beam="1">  1        2 0.99547966E+00 0.15002827E+02</pdfrwt>
<pdfrwt beam="2">  1       -2 0.99659380E+00 0.15002827E+02</pdfrwt>
<totfact>-0.97894819E-14</totfact>
</mgrwt>
</event>
<event>
 4    1  0.5011189E-019  0.1490324E+02  0.7818608E-02  0.1871036E+00
          2   -1    0    0  501    0  0.00000000000E+00  0.00000000000E+00  0.11997734024E+03  0.11997734027E+03  0.25500000000E-02 0. -1.
         -2   -1    0    0    0  501 -0.00000000000E+00 -0.00000000000E+00 -0.46280559976E+00  0.46281262480E+00  0.25500000000E-02 0.  1.
         31    1    1    2    0    0 -0.23751217254E-01 -0.18945874287E+00  0.61185307827E+02  0.61637142039E+02  0.74470750000E+01 0. -1.
        -31    1    1    2    0    0  0.23751217254E-01  0.18945874287E+00  0.58329226812E+02  0.58803010852E+02  0.74470750000E+01 0.  1.
<mgrwt>
<rscale>  0 0.14903236E+02</rscale>
<asrwt>0</asrwt>
<pdfrwt beam="1">  1        2 0.99588345E+00 0.14903236E+02</pdfrwt>
<pdfrwt beam="2">  1       -2 0.98300792E+00 0.14903236E+02</pdfrwt>
<totfact> 0.71517131E-13</totfact>
</mgrwt>
</event>
<event>
 4    1  0.5011189E-019  0.1491212E+02  0.7818608E-02  0.1870762E+00
          2   -1    0    0  501    0  0.00000000000E+00  0.00000000000E+00  0.12031021897E+03  0.12031021900E+03  0.25500000000E-02 0. -1.
         -2   -1    0    0    0  501 -0.00000000000E+00 -0.00000000000E+00 -0.46207563632E+00  0.46208267245E+00  0.25500000000E-02 0.  1.
         31    1    1    2    0    0 -0.10759922070E+00  0.30218766612E+00  0.58497498392E+02  0.58970493801E+02  0.74470750000E+01 0.  1.
        -31    1    1    2    0    0  0.10759922070E+00 -0.30218766612E+00  0.61350644947E+02  0.61801807873E+02  0.74470750000E+01 0. -1.
<mgrwt>
<rscale>  0 0.14912122E+02</rscale>
<asrwt>0</asrwt>
<pdfrwt beam="1">  1        2 0.99862989E+00 0.14912122E+02</pdfrwt>
<pdfrwt beam="2">  1       -2 0.98147385E+00 0.14912122E+02</pdfrwt>
<totfact> 0.43858121E-13</totfact>
</mgrwt>
</event>
<event>
 4    1  0.5011189E-019  0.1490710E+02  0.7818608E-02  0.1870917E+00
         -2   -1    0    0    0  501 -0.00000000000E+00  0.00000000000E+00  0.11868987530E+03  0.11868987533E+03  0.25500000000E-02 0.  1.
          2   -1    0    0  501    0  0.00000000000E+00 -0.00000000000E+00 -0.46806828830E+00  0.46807523435E+00  0.25500000000E-02 0. -1.
         31    1    1    2    0    0  0.27515014778E+00 -0.32903228204E-01  0.60231856875E+02  0.60691122076E+02  0.74470750000E+01 0.  1.
        -31    1    1    2    0    0 -0.27515014778E+00  0.32903228204E-01  0.57989950141E+02  0.58466828490E+02  0.74470750000E+01 0. -1.
<mgrwt>
<rscale>  0 0.14907097E+02</rscale>
<asrwt>0</asrwt>
<pdfrwt beam="2">  1        2 0.99410045E+00 0.14907097E+02</pdfrwt>
<pdfrwt beam="1">  1       -2 0.98528131E+00 0.14907097E+02</pdfrwt>
<totfact> 0.48539479E-13</totfact>
</mgrwt>
</event>
<event>
 4    1 -0.5011189E-019  0.1495584E+02  0.7818608E-02  0.1869419E+00
         -2   -1    0    0    0  501 -0.00000000000E+00  0.00000000000E+00  0.11957633594E+03  0.11957633597E+03  0.25500000000E-02 0. -1.
          2   -1    0    0  501    0  0.00000000000E+00 -0.00000000000E+00 -0.46764188890E+00  0.46764884129E+00  0.25500000000E-02 0.  1.
         31    1    1    2    0    0 -0.26928428588E+00  0.59933202839E+00  0.60913743365E+02  0.61370797369E+02  0.74470750000E+01 0.  1.
        -31    1    1    2    0    0  0.26928428588E+00 -0.59933202839E+00  0.58194950691E+02  0.58673187444E+02  0.74470750000E+01 0.  1.
<mgrwt>
<rscale>  0 0.14955845E+02</rscale>
<asrwt>0</asrwt>
<pdfrwt beam="2">  1        2 0.99322732E+00 0.14955845E+02</pdfrwt>
<pdfrwt beam="1">  1       -2 0.99260766E+00 0.14955845E+02</pdfrwt>
<totfact>-0.11059111E-13</totfact>
</mgrwt>
</event>
<event>
 4    1  0.5011189E-019  0.1489521E+02  0.7818608E-02  0.1871283E+00
         -2   -1    0    0    0  501 -0.00000000000E+00  0.00000000000E+00  0.11802663797E+03  0.11802663799E+03  0.25500000000E-02 0.  1.
          2   -1    0    0  501    0  0.00000000000E+00 -0.00000000000E+00 -0.46994844696E+00  0.46995536522E+00  0.25500000000E-02 0. -1.
         31    1    1    2    0    0  0.62128323562E-01 -0.17135868350E-01  0.58290070619E+02  0.58763895484E+02  0.74470750000E+01 0. -1.
        -31    1    1    2    0    0 -0.62128323562E-01  0.17135868350E-01  0.59266618901E+02  0.59732697876E+02  0.74470750000E+01 0.  1.
<mgrwt>
<rscale>  0 0.14895214E+02</rscale>
<asrwt>0</asrwt>
<pdfrwt beam="2">  1        2 0.99805568E+00 0.14895214E+02</pdfrwt>
<pdfrwt beam="1">  1       -2 0.97981274E+00 0.14895214E+02</pdfrwt>
<totfact> 0.78412164E-13</totfact>
</mgrwt>
</event>
<event>
 4    1 -0.5011189E-019  0.1491264E+02  0.7818608E-02  0.1870746E+00
         -2   -1    0    0    0  501 -0.00000000000E+00  0.00000000000E+00  0.11969426601E+03  0.11969426603E+03  0.25500000000E-02 0. -1.
          2   -1    0    0  501    0  0.00000000000E+00 -0.00000000000E+00 -0.46448577244E+00  0.46449277207E+00  0.25500000000E-02 0.  1.
         31    1    1    2    0    0 -0.27558876463E+00  0.12641553071E+00  0.57889572876E+02  0.58367401037E+02  0.74470750000E+01 0.  1.
        -31    1    1    2    0    0  0.27558876463E+00 -0.12641553071E+00  0.61340207359E+02  0.61791357769E+02  0.74470750000E+01 0. -1.
<mgrwt>
<rscale>  0 0.14912640E+02</rscale>
<asrwt>0</asrwt>
<pdfrwt beam="2">  1        2 0.98655382E+00 0.14912640E+02</pdfrwt>
<pdfrwt beam="1">  1       -2 0.99355669E+00 0.14912640E+02</pdfrwt>
<totfact>-0.25655267E-13</totfact>
</mgrwt>
</event>
<event>
 4    1 -0.5011189E-019  0.1491225E+02  0.7818608E-02  0.1870758E+00
         -2   -1    0    0    0  501 -0.00000000000E+00  0.00000000000E+00  0.11960363817E+03  0.11960363819E+03  0.25500000000E-02 0. -1.
          2   -1    0    0  501    0  0.00000000000E+00 -0.00000000000E+00 -0.46481366469E+00  0.46482065938E+00  0.25500000000E-02 0.  1.
         31    1    1    2    0    0  0.22636390386E+00  0.11393326595E+00  0.57428828323E+02  0.57910219046E+02  0.74470750000E+01 0.  1.
        -31    1    1    2    0    0 -0.22636390386E+00 -0.11393326595E+00  0.61709996180E+02  0.62158239807E+02  0.74470750000E+01 0. -1.
<mgrwt>
<rscale>  0 0.14912254E+02</rscale>
<asrwt>0</asrwt>
<pdfrwt beam="2">  1        2 0.98724466E+00 0.14912254E+02</pdfrwt>
<pdfrwt beam="1">  1       -2 0.99281003E+00 0.14912254E+02</pdfrwt>
<totfact>-0.20646219E-13</totfact>
</mgrwt>
</event>
<event>
 4    1  0.5011189E-019  0.1492323E+02  0.7818608E-02  0.1870420E+00
         -2   -1    0    0    0  501 -0.00000000000E+00  0.00000000000E+00  0.11857126869E+03  0.11857126871E+03  0.25500000000E-02 0.  1.
          2   -1    0    0  501    0  0.00000000000E+00 -0.00000000000E+00 -0.46955137728E+00  0.46955830139E+00  0.25500000000E-02 0. -1.
         31    1    1    2    0    0 -0.14758906828E+00 -0.27142080137E+00  0.61829498311E+02  0.62277132555E+02  0.74470750000E+01 0.  1.
        -31    1    1    2    0    0  0.14758906828E+00  0.27142080137E+00  0.56272218999E+02  0.56763694461E+02  0.74470750000E+01 0. -1.
<mgrwt>
<rscale>  0 0.14923232E+02</rscale>
<asrwt>0</asrwt>
<pdfrwt beam="2">  1        2 0.99723390E+00 0.14923232E+02</pdfrwt>
<pdfrwt beam="1">  1       -2 0.98431285E+00 0.14923232E+02</pdfrwt>
<totfact> 0.40730986E-13</totfact>
</mgrwt>
</event>
<event>
 4    1 -0.5011189E-019  0.1491286E+02  0.7818608E-02  0.1870739E+00
         -2   -1    0    0    0  501 -0.00000000000E+00  0.00000000000E+00  0.11990643866E+03  0.11990643868E+03  0.25500000000E-02 0.  1.
          2   -1    0    0  501    0  0.00000000000E+00 -0.00000000000E+00 -0.46367767999E+00  0.46368469181E+00  0.25500000000E-02 0. -1.
         31    1    1    2    0    0  0.16306203661E+00 -0.16163060244E+00  0.57344401488E+02  0.57826395545E+02  0.74470750000E+01 0. -1.
        -31    1    1    2    0    0 -0.16306203661E+00  0.16163060244E+00  0.62098359488E+02  0.62543727830E+02  0.74470750000E+01 0.  1.
<mgrwt>
<rscale>  0 0.14912862E+02</rscale>
<asrwt>0</asrwt>
<pdfrwt beam="2">  1        2 0.98485083E+00 0.14912862E+02</pdfrwt>
<pdfrwt beam="1">  1       -2 0.99530440E+00 0.14912862E+02</pdfrwt>
<totfact>-0.35198443E-13</totfact>
</mgrwt>
</event>
<event>
 4    1 -0.5011189E-019  0.1491399E+02  0.7818608E-02  0.1870705E+00
         -2   -1    0    0    0  501 -0.00000000000E+00  0.00000000000E+00  0.11970206664E+03  0.11970206666E+03  0.25500000000E-02 0.  1.
          2   -1    0    0  501    0  0.00000000000E+00 -0.00000000000E+00 -0.46453936412E+00  0.46454636294E+00  0.25500000000E-02 0. -1.
         31    1    1    2    0    0 -0.37135154130E+00 -0.99009774049E-01  0.59533073729E+02  0.59998279130E+02  0.74470750000E+01 0. -1.
        -31    1    1    2    0    0  0.37135154130E+00  0.99009774049E-01  0.59704453542E+02  0.60168333895E+02  0.74470750000E+01 0. -1.
<mgrwt>
<rscale>  0 0.14913986E+02</rscale>
<asrwt>0</asrwt>
<pdfrwt beam="2">  1        2 0.98666746E+00 0.14913986E+02</pdfrwt>
<pdfrwt beam="1">  1       -2 0.99362163E+00 0.14913986E+02</pdfrwt>
<totfact>-0.25407630E-13</totfact>
</mgrwt>
</event>
<event>
 4    1 -0.5011189E-019  0.1497994E+02  0.7818608E-02  0.1868681E+00
         -2   -1    0    0    0  501 -0.00000000000E+00  0.00000000000E+00  0.11984718060E+03  0.11984718063E+03  0.25500000000E-02 0. -1.
          2   -1    0    0  501    0  0.00000000000E+00 -0.00000000000E+00 -0.46808943860E+00  0.46809638434E+00  0.25500000000E-02 0.  1.
         31    1    1    2    0    0  0.35169111995E+00  0.56618215196E+00  0.56129707539E+02  0.56625499939E+02  0.74470750000E+01 0.  1.
        -31    1    1    2    0    0 -0.35169111995E+00 -0.56618215196E+00  0.63249383626E+02  0.63689777076E+02  0.74470750000E+01 0. -1.
<mgrwt>
<rscale>  0 0.14979936E+02</rscale>
<asrwt>0</asrwt>
<pdfrwt beam="2">  1        2 0.99418291E+00 0.14979936E+02</pdfrwt>
<pdfrwt beam="1">  1       -2 0.99485089E+00 0.14979936E+02</pdfrwt>
<totfact>-0.12892977E-13</totfact>
</mgrwt>
</event>
<event>
 4    1 -0.5011189E-019  0.1492419E+02  0.7818608E-02  0.1870391E+00
         -2   -1    0    0    0  501 -0.00000000000E+00  0.00000000000E+00  0.12003718412E+03  0.12003718415E+03  0.25500000000E-02 0.  1.
          2   -1    0    0  501    0  0.00000000000E+00 -0.00000000000E+00 -0.46387639939E+00  0.46388340821E+00  0.25500000000E-02 0. -1.
         31    1    1    2    0    0  0.18057381346E+00  0.43737731743E+00  0.59762696248E+02  0.60226760619E+02  0.74470750000E+01 0. -1.
        -31    1    1    2    0    0 -0.18057381346E+00 -0.43737731743E+00  0.59810611474E+02  0.60274306937E+02  0.74470750000E+01 0. -1.
<mgrwt>
<rscale>  0 0.14924187E+02</rscale>
<asrwt>0</asrwt>
<pdfrwt beam="2">  1        2 0.98527541E+00 0.14924187E+02</pdfrwt>
<pdfrwt beam="1">  1       -2 0.99638714E+00 0.14924187E+02</pdfrwt>
<totfact>-0.29682460E-13</totfact>
</mgrwt>
</event>
<event>
 4    1 -0.5011189E-019  0.1494740E+02  0.7818608E-02  0.1869678E+00
         -2   -1    0    0    0  501 -0.00000000000E+00  0.00000000000E+00  0.11959721579E+03  0.11959721582E+03  0.25500000000E-02 0. -1.
          2   -1    0    0  501    0  0.00000000000E+00 -0.00000000000E+00 -0.46703213439E+00  0.46703909585E+00  0.25500000000E-02 0.  1.
         31    1    1    2    0    0 -0.14101074886E+00  0.49793146169E-01  0.54647071706E+02  0.55152368358E+02  0.74470750000E+01 0.  1.
        -31    1    1    2    0    0  0.14101074886E+00 -0.49793146169E-01  0.64483111952E+02  0.64911886558E+02  0.74470750000E+01 0. -1.
<mgrwt>
<rscale>  0 0.14947396E+02</rscale>
<asrwt>0</asrwt>
<pdfrwt beam="2">  1        2 0.99193799E+00 0.14947396E+02</pdfrwt>
<pdfrwt beam="1">  1       -2 0.99277526E+00 0.14947396E+02</pdfrwt>
<totfact>-0.12616297E-13</totfact>
</mgrwt>
</event>
<event>
 4    1  0.5011189E-019  0.1491437E+02  0.7818608E-02  0.1870693E+00
         -2   -1    0    0    0  501 -0.00000000000E+00  0.00000000000E+00  0.11864909221E+03  0.11864909223E+03  0.25500000000E-02 0. -1.
          2   -1    0    0  501    0  0.00000000000E+00 -0.00000000000E+00 -0.46868621639E+00  0.46869315328E+00  0.25500000000E-02 0.  1.
         31    1    1    2    0    0 -0.21316241910E+00 -0.70814006031E-02  0.56499795124E+02  0.56988869645E+02  0.74470750000E+01 0.  1.
        -31    1    1    2    0    0  0.21316241910E+00  0.70814006031E-02  0.61680610866E+02  0.62128915741E+02  0.74470750000E+01 0. -1.
<mgrwt>
<rscale>  0 0.14914370E+02</rscale>
<asrwt>0</asrwt>
<pdfrwt beam="2">  1        2 0.99540631E+00 0.14914370E+02</pdfrwt>
<pdfrwt beam="1">  1       -2 0.98494919E+00 0.14914370E+02</pdfrwt>
<totfact> 0.47028689E-13</totfact>
</mgrwt>
</event>
<event>
 4    1  0.5011189E-019  0.1491647E+02  0.7818608E-02  0.1870628E+00
          2   -1    0    0  501    0  0.00000000000E+00  0.00000000000E+00  0.12035120028E+03  0.12035120031E+03  0.25500000000E-02 0. -1.
         -2   -1    0    0    0  501 -0.00000000000E+00 -0.00000000000E+00 -0.46218791621E+00  0.46219495063E+00  0.25500000000E-02 0.  1.
         31    1    1    2    0    0  0.13103244673E+00 -0.38547885995E+00  0.60144137963E+02  0.60604801962E+02  0.74470750000E+01 0. -1.
        -31    1    1    2    0    0 -0.13103244673E+00  0.38547885995E+00  0.59744874405E+02  0.60208593300E+02  0.74470750000E+01 0. -1.
<mgrwt>
<rscale>  0 0.14916474E+02</rscale>
<asrwt>0</asrwt>
<pdfrwt beam="1">  1        2 0.99896968E+00 0.14916474E+02</pdfrwt>
<pdfrwt beam="2">  1       -2 0.98171270E+00 0.14916474E+02</pdfrwt>
<totfact> 0.32714294E-13</totfact>
</mgrwt>
</event>
<event>
 4    1 -0.5011189E-019  0.1499502E+02  0.7818608E-02  0.1868220E+00
         -2   -1    0    0    0  501 -0.00000000000E+00  0.00000000000E+00  0.11987005845E+03  0.11987005848E+03  0.25500000000E-02 0. -1.
          2   -1    0    0  501    0  0.00000000000E+00 -0.00000000000E+00 -0.46894311744E+00  0.46895005053E+00  0.25500000000E-02 0.  1.
         31    1    1    2    0    0 -0.10363495067E+00 -0.86154787150E+00  0.59484217955E+02  0.59954850652E+02  0.74470750000E+01 0. -1.
        -31    1    1    2    0    0  0.10363495067E+00  0.86154787150E+00  0.59916897379E+02  0.60384157877E+02  0.74470750000E+01 0.  1.
<mgrwt>
<rscale>  0 0.14995020E+02</rscale>
<asrwt>0</asrwt>
<pdfrwt beam="2">  1        2 0.99598970E+00 0.14995020E+02</pdfrwt>
<pdfrwt beam="1">  1       -2 0.99504712E+00 0.14995020E+02</pdfrwt>
<totfact>-0.10557109E-13</totfact>
</mgrwt>
</event>
<event>
 4    1  0.5011189E-019  0.1494322E+02  0.7818608E-02  0.1869806E+00
          2   -1    0    0  501    0  0.00000000000E+00  0.00000000000E+00  0.12006619748E+03  0.12006619751E+03  0.25500000000E-02 0.  1.
         -2   -1    0    0    0  501 -0.00000000000E+00 -0.00000000000E+00 -0.46494808291E+00  0.46495507557E+00  0.25500000000E-02 0. -1.
         31    1    1    2    0    0  0.11512636344E+00 -0.33369568571E+00  0.55837312624E+02  0.56332841345E+02  0.74470750000E+01 0. -1.
        -31    1    1    2    0    0 -0.11512636344E+00  0.33369568571E+00  0.63763936773E+02  0.64198311238E+02  0.74470750000E+01 0.  1.
<mgrwt>
<rscale>  0 0.14943222E+02</rscale>
<asrwt>0</asrwt>
<pdfrwt beam="1">  1        2 0.99663590E+00 0.14943222E+02</pdfrwt>
<pdfrwt beam="2">  1       -2 0.98754378E+00 0.14943222E+02</pdfrwt>
<totfact> 0.15315432E-13</totfact>
</mgrwt>
</event>
<event>
 4    1  0.5011189E-019  0.1491713E+02  0.7818608E-02  0.1870608E+00
          2   -1    0    0  501    0  0.00000000000E+00  0.00000000000E+00  0.11982793492E+03  0.11982793495E+03  0.25500000000E-02 0. -1.
         -2   -1    0    0    0  501 -0.00000000000E+00 -0.00000000000E+00 -0.46424699020E+00  0.46425399342E+00  0.25500000000E-02 0.  1.
         31    1    1    2    0    0 -0.12143297526E+00  0.15085437956E+00  0.62631030182E+02  0.63072516762E+02  0.74470750000E+01 0. -1.
        -31    1    1    2    0    0  0.12143297526E+00 -0.15085437956E+00  0.56732657752E+02  0.57219672183E+02  0.74470750000E+01 0.  1.
<mgrwt>
<rscale>  0 0.14917129E+02</rscale>
<asrwt>0</asrwt>
<pdfrwt beam="1">  1        2 0.99465998E+00 0.14917129E+02</pdfrwt>
<pdfrwt beam="2">  1       -2 0.98605287E+00 0.14917129E+02</pdfrwt>
<totfact> 0.36226019E-13</totfact>
</mgrwt>
</event>
<event>
 4    1 -0.5011189E-019  0.1493559E+02  0.7818608E-02  0.1870040E+00
          2   -1    0    0  501    0  0.00000000000E+00  0.00000000000E+00  0.11949896747E+03  0.11949896749E+03  0.25500000000E-02 0.  1.
         -2   -1    0    0    0  501 -0.00000000000E+00 -0.00000000000E+00 -0.46667809854E+00  0.46668506528E+00  0.25500000000E-02 0. -1.
         31    1    1    2    0    0 -0.26028144996E-01 -0.26273115082E+00  0.63445682494E+02  0.63881791289E+02  0.74470750000E+01 0.  1.
        -31    1    1    2    0    0  0.26028144996E-01  0.26273115082E+00  0.55586606875E+02  0.56083861271E+02  0.74470750000E+01 0.  1.
<mgrwt>
<rscale>  0 0.14935591E+02</rscale>
<asrwt>0</asrwt>
<pdfrwt beam="1">  1        2 0.99195995E+00 0.14935591E+02</pdfrwt>
<pdfrwt beam="2">  1       -2 0.99118581E+00 0.14935591E+02</pdfrwt>
<totfact>-0.63154008E-14</totfact>
</mgrwt>
</event>
<event>
 4    1  0.5011189E-019  0.1490655E+02  0.7818608E-02  0.1870934E+00
         -2   -1    0    0    0  501 -0.00000000000E+00  0.00000000000E+00  0.11859365149E+03  0.11859365152E+03  0.25500000000E-02 0.  1.
          2   -1    0    0  501    0  0.00000000000E+00 -0.00000000000E+00 -0.46841346070E+00  0.46842040163E+00  0.25500000000E-02 0. -1.
         31    1    1    2    0    0 -0.25690388543E+00  0.47560757007E-02  0.60358651119E+02  0.60816870301E+02  0.74470750000E+01 0.  1.
        -31    1    1    2    0    0  0.25690388543E+00 -0.47560757007E-02  0.57766586910E+02  0.58245201618E+02  0.74470750000E+01 0.  1.
<mgrwt>
<rscale>  0 0.14906546E+02</rscale>
<asrwt>0</asrwt>
<pdfrwt beam="2">  1        2 0.99482748E+00 0.14906546E+02</pdfrwt>
<pdfrwt beam="1">  1       -2 0.98448851E+00 0.14906546E+02</pdfrwt>
<totfact> 0.56706984E-13</totfact>
</mgrwt>
</event>
<event>
 4    1 -0.5011189E-019  0.1493317E+02  0.7818608E-02  0.1870115E+00
         -2   -1    0    0    0  501 -0.00000000000E+00  0.00000000000E+00  0.12038920914E+03  0.12038920917E+03  0.25500000000E-02 0.  1.
          2   -1    0    0  501    0  0.00000000000E+00 -0.00000000000E+00 -0.46307680474E+00  0.46308382566E+00  0.25500000000E-02 0. -1.
         31    1    1    2    0    0  0.38170569115E+00 -0.32038083490E+00  0.61633554508E+02  0.62083832924E+02  0.74470750000E+01 0. -1.
        -31    1    1    2    0    0 -0.38170569115E+00  0.32038083490E+00  0.58292577831E+02  0.58768460073E+02  0.74470750000E+01 0. -1.
<mgrwt>
<rscale>  0 0.14933168E+02</rscale>
<asrwt>0</asrwt>
<pdfrwt beam="2">  1        2 0.98359468E+00 0.14933168E+02</pdfrwt>
<pdfrwt beam="1">  1       -2 0.99929131E+00 0.14933168E+02</pdfrwt>
<totfact>-0.10330504E-13</totfact>
</mgrwt>
</event>
<event>
 4    1  0.5011189E-019  0.1489818E+02  0.7818608E-02  0.1871192E+00
         -2   -1    0    0    0  501 -0.00000000000E+00  0.00000000000E+00  0.11862372851E+03  0.11862372854E+03  0.25500000000E-02 0.  1.
          2   -1    0    0  501    0  0.00000000000E+00 -0.00000000000E+00 -0.46776909886E+00  0.46777604936E+00  0.25500000000E-02 0. -1.
         31    1    1    2    0    0  0.26306596952E-01  0.68670488406E-01  0.57824310163E+02  0.58301931182E+02  0.74470750000E+01 0. -1.
        -31    1    1    2    0    0 -0.26306596952E-01 -0.68670488406E-01  0.60331649249E+02  0.60789573406E+02  0.74470750000E+01 0.  1.
<mgrwt>
<rscale>  0 0.14898178E+02</rscale>
<asrwt>0</asrwt>
<pdfrwt beam="2">  1        2 0.99346535E+00 0.14898178E+02</pdfrwt>
<pdfrwt beam="1">  1       -2 0.98473188E+00 0.14898178E+02</pdfrwt>
<totfact> 0.59600501E-13</totfact>
</mgrwt>
</event>
<event>
 4    1 -0.5011189E-019  0.1496393E+02  0.7818608E-02  0.1869171E+00
         -2   -1    0    0    0  501 -0.00000000000E+00  0.00000000000E+00  0.11960650627E+03  0.11960650630E+03  0.25500000000E-02 0.  1.
          2   -1    0    0  501    0  0.00000000000E+00 -0.00000000000E+00 -0.46802970297E+00  0.46803664959E+00  0.25500000000E-02 0. -1.
         31    1    1    2    0    0 -0.63751320130E+00 -0.23119109948E+00  0.61551374961E+02  0.62003955988E+02  0.74470750000E+01 0.  1.
        -31    1    1    2    0    0  0.63751320130E+00  0.23119109948E+00  0.57587101611E+02  0.58070586964E+02  0.74470750000E+01 0. -1.
<mgrwt>
<rscale>  0 0.14963932E+02</rscale>
<asrwt>0</asrwt>
<pdfrwt beam="2">  1        2 0.99404875E+00 0.14963932E+02</pdfrwt>
<pdfrwt beam="1">  1       -2 0.99286033E+00 0.14963932E+02</pdfrwt>
<totfact>-0.10987817E-13</totfact>
</mgrwt>
</event>
<event>
 4    1  0.5011189E-019  0.1492665E+02  0.7818608E-02  0.1870315E+00
         -2   -1    0    0    0  501 -0.00000000000E+00  0.00000000000E+00  0.11862187970E+03  0.11862187973E+03  0.25500000000E-02 0. -1.
          2   -1    0    0  501    0  0.00000000000E+00 -0.00000000000E+00 -0.46956577642E+00  0.46957270032E+00  0.25500000000E-02 0.  1.
         31    1    1    2    0    0 -0.37081388454E-01  0.48648756739E+00  0.59594309380E+02  0.60059792554E+02  0.74470750000E+01 0.  1.
        -31    1    1    2    0    0  0.37081388454E-01 -0.48648756739E+00  0.58558004547E+02  0.59031659877E+02  0.74470750000E+01 0. -1.
<mgrwt>
<rscale>  0 0.14926646E+02</rscale>
<asrwt>0</asrwt>
<pdfrwt beam="2">  1        2 0.99726604E+00 0.14926646E+02</pdfrwt>
<pdfrwt beam="1">  1       -2 0.98473145E+00 0.14926646E+02</pdfrwt>
<totfact> 0.36171225E-13</totfact>
</mgrwt>
</event>
<event>
 4    1  0.5011189E-019  0.1491469E+02  0.7818608E-02  0.1870683E+00
          2   -1    0    0  501    0  0.00000000000E+00  0.00000000000E+00  0.11986892753E+03  0.11986892756E+03  0.25500000000E-02 0. -1.
         -2   -1    0    0    0  501 -0.00000000000E+00 -0.00000000000E+00 -0.46393674235E+00  0.46394375025E+00  0.25500000000E-02 0.  1.
         31    1    1    2    0    0 -0.26052715668E+00 -0.29128314478E+00  0.59545905220E+02  0.60011052939E+02  0.74470750000E+01 0.  1.
        -31    1    1    2    0    0  0.26052715668E+00  0.29128314478E+00  0.59859085568E+02  0.60321818369E+02  0.74470750000E+01 0. -1.
<mgrwt>
<rscale>  0 0.14914694E+02</rscale>
<asrwt>0</asrwt>
<pdfrwt beam="1">  1        2 0.99499637E+00 0.14914694E+02</pdfrwt>
<pdfrwt beam="2">  1       -2 0.98539776E+00 0.14914694E+02</pdfrwt>
<totfact> 0.43186315E-13</totfact>
</mgrwt>
</event>
<event>
 4    1  0.5011189E-019  0.1494976E+02  0.7818608E-02  0.1869605E+00
         -2   -1    0    0    0  501 -0.00000000000E+00  0.00000000000E+00  0.11871460350E+03  0.11871460353E+03  0.25500000000E-02 0. -1.
          2   -1    0    0  501    0  0.00000000000E+00 -0.00000000000E+00 -0.47065335833E+00  0.47066026623E+00  0.25500000000E-02 0.  1.
         31    1    1    2    0    0 -0.24541173717E+00 -0.65957499783E-01  0.54403179635E+02  0.54911105049E+02  0.74470750000E+01 0.  1.
        -31    1    1    2    0    0  0.24541173717E+00  0.65957499783E-01  0.63840770507E+02  0.64274158745E+02  0.74470750000E+01 0. -1.
<mgrwt>
<rscale>  0 0.14949761E+02</rscale>
<asrwt>0</asrwt>
<pdfrwt beam="2">  1        2 0.99956978E+00 0.14949761E+02</pdfrwt>
<pdfrwt beam="1">  1       -2 0.98550715E+00 0.14949761E+02</pdfrwt>
<totfact> 0.58707379E-14</totfact>
</mgrwt>
</event>
<event>
 4    1 -0.5011189E-019  0.1497708E+02  0.7818608E-02  0.1868769E+00
          2   -1    0    0  501    0  0.00000000000E+00  0.00000000000E+00  0.11987285321E+03  0.11987285323E+03  0.25500000000E-02 0.  1.
         -2   -1    0    0    0  501 -0.00000000000E+00 -0.00000000000E+00 -0.46781052120E+00  0.46781747108E+00  0.25500000000E-02 0. -1.
         31    1    1    2    0    0 -0.58665051564E+00 -0.17549932181E+00  0.63674090257E+02  0.64111026001E+02  0.74470750000E+01 0.  1.
        -31    1    1    2    0    0  0.58665051564E+00  0.17549932181E+00  0.55730952429E+02  0.56229644704E+02  0.74470750000E+01 0. -1.
<mgrwt>
<rscale>  0 0.14977076E+02</rscale>
<asrwt>0</asrwt>
<pdfrwt beam="1">  1        2 0.99506086E+00 0.14977076E+02</pdfrwt>
<pdfrwt beam="2">  1       -2 0.99359365E+00 0.14977076E+02</pdfrwt>
<totfact>-0.11196265E-13</totfact>
</mgrwt>
</event>
<event>
 4    1 -0.5011189E-019  0.1492253E+02  0.7818608E-02  0.1870442E+00
         -2   -1    0    0    0  501 -0.00000000000E+00  0.00000000000E+00  0.11987861408E+03  0.11987861410E+03  0.25500000000E-02 0.  1.
          2   -1    0    0  501    0  0.00000000000E+00 -0.00000000000E+00 -0.46438702507E+00  0.46439402618E+00  0.25500000000E-02 0. -1.
         31    1    1    2    0    0 -0.36706185153E+00 -0.27701904798E+00  0.59786066926E+02  0.60249848120E+02  0.74470750000E+01 0.  1.
        -31    1    1    2    0    0  0.36706185153E+00  0.27701904798E+00  0.59628160126E+02  0.60093160010E+02  0.74470750000E+01 0. -1.
<mgrwt>
<rscale>  0 0.14922533E+02</rscale>
<asrwt>0</asrwt>
<pdfrwt beam="2">  1        2 0.98635076E+00 0.14922533E+02</pdfrwt>
<pdfrwt beam="1">  1       -2 0.99508019E+00 0.14922533E+02</pdfrwt>
<totfact>-0.28040063E-13</totfact>
</mgrwt>
</event>
<event>
 4    1  0.5011189E-019  0.1491565E+02  0.7818608E-02  0.1870653E+00
          2   -1    0    0  501    0  0.00000000000E+00  0.00000000000E+00  0.12010541756E+03  0.12010541759E+03  0.25500000000E-02 0. -1.
         -2   -1    0    0    0  501 -0.00000000000E+00 -0.00000000000E+00 -0.46308272432E+00  0.46308974515E+00  0.25500000000E-02 0.  1.
         31    1    1    2    0    0 -0.33073795635E+00 -0.47335664853E-01  0.61603442329E+02  0.62052837655E+02  0.74470750000E+01 0.  1.
        -31    1    1    2    0    0  0.33073795635E+00  0.47335664853E-01  0.58038892511E+02  0.58515669681E+02  0.74470750000E+01 0.  1.
<mgrwt>
<rscale>  0 0.14915652E+02</rscale>
<asrwt>0</asrwt>
<pdfrwt beam="1">  1        2 0.99694478E+00 0.14915652E+02</pdfrwt>
<pdfrwt beam="2">  1       -2 0.98359830E+00 0.14915652E+02</pdfrwt>
<totfact> 0.51951632E-13</totfact>
</mgrwt>
</event>
<event>
 4    1 -0.5011189E-019  0.1492674E+02  0.7818608E-02  0.1870312E+00
          2   -1    0    0  501    0  0.00000000000E+00  0.00000000000E+00  0.11922850079E+03  0.11922850081E+03  0.25500000000E-02 0. -1.
         -2   -1    0    0    0  501 -0.00000000000E+00 -0.00000000000E+00 -0.46718236206E+00  0.46718932128E+00  0.25500000000E-02 0.  1.
         31    1    1    2    0    0 -0.30549524392E+00 -0.16676765290E+00  0.62179304041E+02  0.62624643040E+02  0.74470750000E+01 0.  1.
        -31    1    1    2    0    0  0.30549524392E+00  0.16676765290E+00  0.56582014383E+02  0.57071047095E+02  0.74470750000E+01 0.  1.
<mgrwt>
<rscale>  0 0.14926737E+02</rscale>
<asrwt>0</asrwt>
<pdfrwt beam="1">  1        2 0.98972771E+00 0.14926737E+02</pdfrwt>
<pdfrwt beam="2">  1       -2 0.99224387E+00 0.14926737E+02</pdfrwt>
<totfact>-0.13212077E-13</totfact>
</mgrwt>
</event>
<event>
 4    1  0.5011189E-019  0.1494540E+02  0.7818608E-02  0.1869739E+00
          2   -1    0    0  501    0  0.00000000000E+00  0.00000000000E+00  0.12027180269E+03  0.12027180272E+03  0.25500000000E-02 0. -1.
         -2   -1    0    0    0  501 -0.00000000000E+00 -0.00000000000E+00 -0.46428840335E+00  0.46429540595E+00  0.25500000000E-02 0.  1.
         31    1    1    2    0    0 -0.34353287299E+00  0.21442264881E+00  0.63678315288E+02  0.64113577001E+02  0.74470750000E+01 0. -1.
        -31    1    1    2    0    0  0.34353287299E+00 -0.21442264881E+00  0.56129198998E+02  0.56622521121E+02  0.74470750000E+01 0.  1.
<mgrwt>
<rscale>  0 0.14945398E+02</rscale>
<asrwt>0</asrwt>
<pdfrwt beam="1">  1        2 0.99833053E+00 0.14945398E+02</pdfrwt>
<pdfrwt beam="2">  1       -2 0.98615454E+00 0.14945398E+02</pdfrwt>
<totfact> 0.16093370E-13</totfact>
</mgrwt>
</event>
<event>
 4    1 -0.5011189E-019  0.1496433E+02  0.7818608E-02  0.1869159E+00
          2   -1    0    0  501    0  0.00000000000E+00  0.00000000000E+00  0.11930900016E+03  0.11930900019E+03  0.25500000000E-02 0.  1.
         -2   -1    0    0    0  501 -0.00000000000E+00 -0.00000000000E+00 -0.46922146151E+00  0.46922839049E+00  0.25500000000E-02 0. -1.
         31    1    1    2    0    0  0.66136361683E+00  0.69475810648E-01  0.57133344134E+02  0.57620483916E+02  0.74470750000E+01 0.  1.
        -31    1    1    2    0    0 -0.66136361683E+00 -0.69475810648E-01  0.61706434567E+02  0.62157744665E+02  0.74470750000E+01 0.  1.
<mgrwt>
<rscale>  0 0.14964326E+02</rscale>
<asrwt>0</asrwt>
<pdfrwt beam="1">  1        2 0.99041020E+00 0.14964326E+02</pdfrwt>
<pdfrwt beam="2">  1       -2 0.99656029E+00 0.14964326E+02</pdfrwt>
<totfact>-0.14965404E-13</totfact>
</mgrwt>
</event>
<event>
 4    1 -0.5011189E-019  0.1489983E+02  0.7818608E-02  0.1871141E+00
          2   -1    0    0  501    0  0.00000000000E+00  0.00000000000E+00  0.11891234819E+03  0.11891234821E+03  0.25500000000E-02 0. -1.
         -2   -1    0    0    0  501 -0.00000000000E+00 -0.00000000000E+00 -0.46673717581E+00  0.46674414167E+00  0.25500000000E-02 0.  1.
         31    1    1    2    0    0 -0.81140296353E-01 -0.19105565579E-01  0.57716269568E+02  0.58194790554E+02  0.74470750000E+01 0.  1.
        -31    1    1    2    0    0  0.81140296353E-01  0.19105565579E-01  0.60729341443E+02  0.61184301802E+02  0.74470750000E+01 0. -1.
<mgrwt>
<rscale>  0 0.14899830E+02</rscale>
<asrwt>0</asrwt>
<pdfrwt beam="1">  1        2 0.98710986E+00 0.14899830E+02</pdfrwt>
<pdfrwt beam="2">  1       -2 0.99129177E+00 0.14899830E+02</pdfrwt>
<totfact>-0.11378288E-13</totfact>
</mgrwt>
</event>
<event>
 4    1 -0.5011189E-019  0.1496402E+02  0.7818608E-02  0.1869168E+00
         -2   -1    0    0    0  501 -0.00000000000E+00  0.00000000000E+00  0.11961872990E+03  0.11961872992E+03  0.25500000000E-02 0.  1.
          2   -1    0    0  501    0  0.00000000000E+00 -0.00000000000E+00 -0.46798748177E+00  0.46799442902E+00  0.25500000000E-02 0. -1.
         31    1    1    2    0    0 -0.27612641807E+00  0.63908364636E+00  0.61116661402E+02  0.61572639221E+02  0.74470750000E+01 0.  1.
        -31    1    1    2    0    0  0.27612641807E+00 -0.63908364636E+00  0.58034081013E+02  0.58514085132E+02  0.74470750000E+01 0.  1.
<mgrwt>
<rscale>  0 0.14964022E+02</rscale>
<asrwt>0</asrwt>
<pdfrwt beam="2">  1        2 0.99395982E+00 0.14964022E+02</pdfrwt>
<pdfrwt beam="1">  1       -2 0.99296106E+00 0.14964022E+02</pdfrwt>
<totfact>-0.11286995E-13</totfact>
</mgrwt>
</event>
<event>
 4    1  0.5011189E-019  0.1492507E+02  0.7818608E-02  0.1870364E+00
          2   -1    0    0  501    0  0.00000000000E+00  0.00000000000E+00  0.11984067453E+03  0.11984067455E+03  0.25500000000E-02 0.  1.
         -2   -1    0    0    0  501 -0.00000000000E+00 -0.00000000000E+00 -0.46469181254E+00  0.46469880906E+00  0.25500000000E-02 0. -1.
         31    1    1    2    0    0 -0.53055693259E-01 -0.39825683868E+00  0.61806161843E+02  0.62254493743E+02  0.74470750000E+01 0. -1.
        -31    1    1    2    0    0  0.53055693259E-01  0.39825683868E+00  0.57569820872E+02  0.58050879620E+02  0.74470750000E+01 0. -1.
<mgrwt>
<rscale>  0 0.14925067E+02</rscale>
<asrwt>0</asrwt>
<pdfrwt beam="1">  1        2 0.99476900E+00 0.14925067E+02</pdfrwt>
<pdfrwt beam="2">  1       -2 0.98699441E+00 0.14925067E+02</pdfrwt>
<totfact> 0.25206988E-13</totfact>
</mgrwt>
</event>
<event>
 4    1 -0.5011189E-019  0.1494295E+02  0.7818608E-02  0.1869815E+00
         -2   -1    0    0    0  501 -0.00000000000E+00  0.00000000000E+00  0.12019241881E+03  0.12019241883E+03  0.25500000000E-02 0. -1.
          2   -1    0    0  501    0  0.00000000000E+00 -0.00000000000E+00 -0.46444261097E+00  0.46444961125E+00  0.25500000000E-02 0.  1.
         31    1    1    2    0    0 -0.13487868211E+00  0.51863022346E+00  0.62101793265E+02  0.62549011362E+02  0.74470750000E+01 0. -1.
        -31    1    1    2    0    0  0.13487868211E+00 -0.51863022346E+00  0.57626182931E+02  0.58107857084E+02  0.74470750000E+01 0. -1.
<mgrwt>
<rscale>  0 0.14942945E+02</rscale>
<asrwt>0</asrwt>
<pdfrwt beam="2">  1        2 0.98647831E+00 0.14942945E+02</pdfrwt>
<pdfrwt beam="1">  1       -2 0.99767541E+00 0.14942945E+02</pdfrwt>
<totfact>-0.18429706E-13</totfact>
</mgrwt>
</event>
<event>
 4    1 -0.5011189E-019  0.1496148E+02  0.7818608E-02  0.1869246E+00
          2   -1    0    0  501    0  0.00000000000E+00  0.00000000000E+00  0.11937429030E+03  0.11937429032E+03  0.25500000000E-02 0. -1.
         -2   -1    0    0    0  501 -0.00000000000E+00 -0.00000000000E+00 -0.46878679507E+00  0.46879373047E+00  0.25500000000E-02 0.  1.
         31    1    1    2    0    0 -0.65633718796E+00  0.26782527307E+00  0.59384202487E+02  0.59853529052E+02  0.74470750000E+01 0.  1.
        -31    1    1    2    0    0  0.65633718796E+00 -0.26782527307E+00  0.59521301013E+02  0.59989555001E+02  0.74470750000E+01 0. -1.
<mgrwt>
<rscale>  0 0.14961485E+02</rscale>
<asrwt>0</asrwt>
<pdfrwt beam="1">  1        2 0.99094647E+00 0.14961485E+02</pdfrwt>
<pdfrwt beam="2">  1       -2 0.99564288E+00 0.14961485E+02</pdfrwt>
<totfact>-0.15918485E-13</totfact>
</mgrwt>
</event>
<event>
 4    1 -0.5011189E-019  0.1499678E+02  0.7818608E-02  0.1868167E+00
          2   -1    0    0  501    0  0.00000000000E+00  0.00000000000E+00  0.11975371196E+03  0.11975371199E+03  0.25500000000E-02 0.  1.
         -2   -1    0    0    0  501 -0.00000000000E+00 -0.00000000000E+00 -0.46950893158E+00  0.46951585632E+00  0.25500000000E-02 0. -1.
         31    1    1    2    0    0 -0.10154670434E+00  0.80661281333E+00  0.57032168235E+02  0.57522065989E+02  0.74470750000E+01 0. -1.
        -31    1    1    2    0    0  0.10154670434E+00 -0.80661281333E+00  0.62252034792E+02  0.62701161854E+02  0.74470750000E+01 0.  1.
<mgrwt>
<rscale>  0 0.14996780E+02</rscale>
<asrwt>0</asrwt>
<pdfrwt beam="1">  1        2 0.99408976E+00 0.14996780E+02</pdfrwt>
<pdfrwt beam="2">  1       -2 0.99718295E+00 0.14996780E+02</pdfrwt>
<totfact>-0.99628345E-14</totfact>
</mgrwt>
</event>
<event>
 4    1 -0.5011189E-019  0.1494249E+02  0.7818608E-02  0.1869828E+00
          2   -1    0    0  501    0  0.00000000000E+00  0.00000000000E+00  0.11869494197E+03  0.11869494200E+03  0.25500000000E-02 0. -1.
         -2   -1    0    0    0  501 -0.00000000000E+00 -0.00000000000E+00 -0.47027371139E+00  0.47028062486E+00  0.25500000000E-02 0.  1.
         31    1    1    2    0    0  0.54705734273E+00 -0.13692272966E+00  0.57466738080E+02  0.57950003720E+02  0.74470750000E+01 0.  1.
        -31    1    1    2    0    0 -0.54705734273E+00  0.13692272966E+00  0.60757930178E+02  0.61215218901E+02  0.74470750000E+01 0. -1.
<mgrwt>
<rscale>  0 0.14942493E+02</rscale>
<asrwt>0</asrwt>
<pdfrwt beam="1">  1        2 0.98534144E+00 0.14942493E+02</pdfrwt>
<pdfrwt beam="2">  1       -2 0.99876603E+00 0.14942493E+02</pdfrwt>
<totfact>-0.12923672E-13</totfact>
</mgrwt>
</event>
<event>
 4    1 -0.5011189E-019  0.1495268E+02  0.7818608E-02  0.1869516E+00
          2   -1    0    0  501    0  0.00000000000E+00  0.00000000000E+00  0.11908479319E+03  0.11908479322E+03  0.25500000000E-02 0.  1.
         -2   -1    0    0    0  501 -0.00000000000E+00 -0.00000000000E+00 -0.46937324478E+00  0.46938017152E+00  0.25500000000E-02 0. -1.
         31    1    1    2    0    0  0.58895297237E+00 -0.25378035224E+00  0.60582869904E+02  0.61042233920E+02  0.74470750000E+01 0. -1.
        -31    1    1    2    0    0 -0.58895297237E+00  0.25378035224E+00  0.58032550040E+02  0.58511939467E+02  0.74470750000E+01 0. -1.
<mgrwt>
<rscale>  0 0.14952676E+02</rscale>
<asrwt>0</asrwt>
<pdfrwt beam="1">  1        2 0.98855755E+00 0.14952676E+02</pdfrwt>
<pdfrwt beam="2">  1       -2 0.99687403E+00 0.14952676E+02</pdfrwt>
<totfact>-0.17134102E-13</totfact>
</mgrwt>
</event>
<event>
 4    1 -0.5011189E-019  0.1493044E+02  0.7818608E-02  0.1870199E+00
         -2   -1    0    0    0  501 -0.00000000000E+00  0.00000000000E+00  0.12016290221E+03  0.12016290224E+03  0.25500000000E-02 0. -1.
          2   -1    0    0  501    0  0.00000000000E+00 -0.00000000000E+00 -0.46377956514E+00  0.46378657542E+00  0.25500000000E-02 0.  1.
         31    1    1    2    0    0  0.39272547069E+00 -0.20530044917E+00  0.62050549120E+02  0.62497407576E+02  0.74470750000E+01 0. -1.
        -31    1    1    2    0    0 -0.39272547069E+00  0.20530044917E+00  0.57648573530E+02  0.58129281241E+02  0.74470750000E+01 0.  1.
<mgrwt>
<rscale>  0 0.14930442E+02</rscale>
<asrwt>0</asrwt>
<pdfrwt beam="2">  1        2 0.98507450E+00 0.14930442E+02</pdfrwt>
<pdfrwt beam="1">  1       -2 0.99742586E+00 0.14930442E+02</pdfrwt>
<totfact>-0.24728804E-13</totfact>
</mgrwt>
</event>
<event>
 4    1  0.5011189E-019  0.1492185E+02  0.7818608E-02  0.1870463E+00
          2   -1    0    0  501    0  0.00000000000E+00  0.00000000000E+00  0.11980364631E+03  0.11980364634E+03  0.25500000000E-02 0.  1.
         -2   -1    0    0    0  501 -0.00000000000E+00 -0.00000000000E+00 -0.46463491112E+00  0.46464190849E+00  0.25500000000E-02 0. -1.
         31    1    1    2    0    0  0.11231447747E+00  0.29296283970E+00  0.62318389046E+02  0.62762560346E+02  0.74470750000E+01 0.  1.
        -31    1    1    2    0    0 -0.11231447747E+00 -0.29296283970E+00  0.57020622352E+02  0.57505727899E+02  0.74470750000E+01 0. -1.
<mgrwt>
<rscale>  0 0.14921847E+02</rscale>
<asrwt>0</asrwt>
<pdfrwt beam="1">  1        2 0.99446235E+00 0.14921847E+02</pdfrwt>
<pdfrwt beam="2">  1       -2 0.98687284E+00 0.14921847E+02</pdfrwt>
<totfact> 0.27260415E-13</totfact>
</mgrwt>
</event>
<event>
 4    1 -0.5011189E-019  0.1493560E+02  0.7818608E-02  0.1870040E+00
         -2   -1    0    0    0  501 -0.00000000000E+00  0.00000000000E+00  0.11963558899E+03  0.11963558902E+03  0.25500000000E-02 0. -1.
          2   -1    0    0  501    0  0.00000000000E+00 -0.00000000000E+00 -0.46614593047E+00  0.46615290517E+00  0.25500000000E-02 0.  1.
         31    1    1    2    0    0  0.52946718474E+00 -0.14001772657E+00  0.60355886335E+02  0.60816049541E+02  0.74470750000E+01 0.  1.
        -31    1    1    2    0    0 -0.52946718474E+00  0.14001772657E+00  0.58813556726E+02  0.59285692383E+02  0.74470750000E+01 0. -1.
<mgrwt>
<rscale>  0 0.14935604E+02</rscale>
<asrwt>0</asrwt>
<pdfrwt beam="2">  1        2 0.99006433E+00 0.14935604E+02</pdfrwt>
<pdfrwt beam="1">  1       -2 0.99308523E+00 0.14935604E+02</pdfrwt>
<totfact>-0.15634644E-13</totfact>
</mgrwt>
</event>
<event>
 4    1 -0.5011189E-019  0.1490140E+02  0.7818608E-02  0.1871092E+00
          2   -1    0    0  501    0  0.00000000000E+00  0.00000000000E+00  0.11824771373E+03  0.11824771376E+03  0.25500000000E-02 0.  1.
         -2   -1    0    0    0  501 -0.00000000000E+00 -0.00000000000E+00 -0.46945945065E+00  0.46946637611E+00  0.25500000000E-02 0. -1.
         31    1    1    2    0    0 -0.83076558924E-01  0.14774698314E+00  0.60155392562E+02  0.60614840685E+02  0.74470750000E+01 0.  1.
        -31    1    1    2    0    0  0.83076558924E-01 -0.14774698314E+00  0.57622861718E+02  0.58102339450E+02  0.74470750000E+01 0. -1.
<mgrwt>
<rscale>  0 0.14901399E+02</rscale>
<asrwt>0</asrwt>
<pdfrwt beam="1">  1        2 0.98163671E+00 0.14901399E+02</pdfrwt>
<pdfrwt beam="2">  1       -2 0.99702868E+00 0.14901399E+02</pdfrwt>
<totfact>-0.48524508E-13</totfact>
</mgrwt>
</event>
<event>
 4    1  0.5011189E-019  0.1492743E+02  0.7818608E-02  0.1870291E+00
          2   -1    0    0  501    0  0.00000000000E+00  0.00000000000E+00  0.11991332267E+03  0.11991332270E+03  0.25500000000E-02 0.  1.
         -2   -1    0    0    0  501 -0.00000000000E+00 -0.00000000000E+00 -0.46455708748E+00  0.46456408603E+00  0.25500000000E-02 0. -1.
         31    1    1    2    0    0 -0.17130012505E-01 -0.71334483682E-01  0.55751593520E+02  0.56246817582E+02  0.74470750000E+01 0. -1.
        -31    1    1    2    0    0  0.17130012505E-01  0.71334483682E-01  0.63697172065E+02  0.64131069204E+02  0.74470750000E+01 0.  1.
<mgrwt>
<rscale>  0 0.14927425E+02</rscale>
<asrwt>0</asrwt>
<pdfrwt beam="1">  1        2 0.99536859E+00 0.14927425E+02</pdfrwt>
<pdfrwt beam="2">  1       -2 0.98671167E+00 0.14927425E+02</pdfrwt>
<totfact> 0.26509866E-13</totfact>
</mgrwt>
</event>
<event>
 4    1  0.5011189E-019  0.1492462E+02  0.7818608E-02  0.1870377E+00
          2   -1    0    0  501    0  0.00000000000E+00  0.00000000000E+00  0.11982033583E+03  0.11982033586E+03  0.25500000000E-02 0. -1.
         -2   -1    0    0    0  501 -0.00000000000E+00 -0.00000000000E+00 -0.46474287560E+00  0.46474987135E+00  0.25500000000E-02 0.  1.
         31    1    1    2    0    0 -0.36814598171E+00 -0.18895034001E+00  0.57772101207E+02  0.58251573692E+02  0.74470750000E+01 0.  1.
        -31    1    1    2    0    0  0.36814598171E+00  0.18895034001E+00  0.61583491750E+02  0.62033512038E+02  0.74470750000E+01 0.  1.
<mgrwt>
<rscale>  0 0.14924620E+02</rscale>
<asrwt>0</asrwt>
<pdfrwt beam="1">  1        2 0.99460125E+00 0.14924620E+02</pdfrwt>
<pdfrwt beam="2">  1       -2 0.98710180E+00 0.14924620E+02</pdfrwt>
<totfact> 0.24473426E-13</totfact>
</mgrwt>
</event>
<event>
 4    1  0.5011189E-019  0.1489864E+02  0.7818608E-02  0.1871177E+00
         -2   -1    0    0    0  501 -0.00000000000E+00  0.00000000000E+00  0.11800488976E+03  0.11800488979E+03  0.25500000000E-02 0.  1.
          2   -1    0    0  501    0  0.00000000000E+00 -0.00000000000E+00 -0.47025159723E+00  0.47025851103E+00  0.25500000000E-02 0. -1.
         31    1    1    2    0    0  0.35328044624E-01  0.16501194446E+00  0.59329391430E+02  0.59795184509E+02  0.74470750000E+01 0.  1.
        -31    1    1    2    0    0 -0.35328044624E-01 -0.16501194446E+00  0.58205246734E+02  0.58679963790E+02  0.74470750000E+01 0. -1.
<mgrwt>
<rscale>  0 0.14898644E+02</rscale>
<asrwt>0</asrwt>
<pdfrwt beam="2">  1        2 0.99869620E+00 0.14898644E+02</pdfrwt>
<pdfrwt beam="1">  1       -2 0.97963542E+00 0.14898644E+02</pdfrwt>
<totfact> 0.58126510E-13</totfact>
</mgrwt>
</event>
<event>
 4    1 -0.5011189E-019  0.1499223E+02  0.7818608E-02  0.1868306E+00
          2   -1    0    0  501    0  0.00000000000E+00  0.00000000000E+00  0.11985635933E+03  0.11985635935E+03  0.25500000000E-02 0.  1.
         -2   -1    0    0    0  501 -0.00000000000E+00 -0.00000000000E+00 -0.46882231299E+00  0.46882924787E+00  0.25500000000E-02 0. -1.
         31    1    1    2    0    0 -0.29546603712E+00  0.70774408467E+00  0.56641559642E+02  0.57134170219E+02  0.74470750000E+01 0. -1.
        -31    1    1    2    0    0  0.29546603712E+00 -0.70774408467E+00  0.62745977372E+02  0.63191018383E+02  0.74470750000E+01 0. -1.
<mgrwt>
<rscale>  0 0.14992232E+02</rscale>
<asrwt>0</asrwt>
<pdfrwt beam="1">  1        2 0.99493285E+00 0.14992232E+02</pdfrwt>
<pdfrwt beam="2">  1       -2 0.99573368E+00 0.14992232E+02</pdfrwt>
<totfact>-0.11561276E-13</totfact>
</mgrwt>
</event>
<event>
 4    1 -0.5011189E-019  0.1501041E+02  0.7818608E-02  0.1867751E+00
         -2   -1    0    0    0  501 -0.00000000000E+00  0.00000000000E+00  0.12045966385E+03  0.12045966387E+03  0.25500000000E-02 0.  1.
          2   -1    0    0  501    0  0.00000000000E+00 -0.00000000000E+00 -0.46760630998E+00  0.46761326289E+00  0.25500000000E-02 0. -1.
         31    1    1    2    0    0 -0.79195300697E+00 -0.28548812123E+00  0.63223569061E+02  0.63666217917E+02  0.74470750000E+01 0.  1.
        -31    1    1    2    0    0  0.79195300697E+00  0.28548812123E+00  0.56768488474E+02  0.57261059218E+02  0.74470750000E+01 0. -1.
<mgrwt>
<rscale>  0 0.15010413E+02</rscale>
<asrwt>0</asrwt>
<pdfrwt beam="2">  1        2 0.99318041E+00 0.15010413E+02</pdfrwt>
<pdfrwt beam="1">  1       -2 0.99991134E+00 0.15010413E+02</pdfrwt>
<totfact>-0.43005647E-15</totfact>
</mgrwt>
</event>
<event>
 4    1  0.5011189E-019  0.1493885E+02  0.7818608E-02  0.1869940E+00
          2   -1    0    0  501    0  0.00000000000E+00  0.00000000000E+00  0.12026041881E+03  0.12026041884E+03  0.25500000000E-02 0.  1.
         -2   -1    0    0    0  501 -0.00000000000E+00 -0.00000000000E+00 -0.46392571054E+00  0.46393271862E+00  0.25500000000E-02 0. -1.
         31    1    1    2    0    0 -0.50985791659E+00  0.25649284796E+00  0.60605304661E+02  0.61063799610E+02  0.74470750000E+01 0. -1.
        -31    1    1    2    0    0  0.50985791659E+00 -0.25649284796E+00  0.59191188443E+02  0.59660551950E+02  0.74470750000E+01 0. -1.
<mgrwt>
<rscale>  0 0.14938852E+02</rscale>
<asrwt>0</asrwt>
<pdfrwt beam="1">  1        2 0.99823341E+00 0.14938852E+02</pdfrwt>
<pdfrwt beam="2">  1       -2 0.98538679E+00 0.14938852E+02</pdfrwt>
<totfact> 0.21563510E-13</totfact>
</mgrwt>
</event>
<event>
 4    1 -0.5011189E-019  0.1494778E+02  0.7818608E-02  0.1869666E+00
         -2   -1    0    0    0  501 -0.00000000000E+00  0.00000000000E+00  0.12003612250E+03  0.12003612253E+03  0.25500000000E-02 0.  1.
          2   -1    0    0  501    0  0.00000000000E+00 -0.00000000000E+00 -0.46534831174E+00  0.46535529839E+00  0.25500000000E-02 0. -1.
         31    1    1    2    0    0 -0.62425018599E+00  0.98174840911E-01  0.59560691437E+02  0.60027778712E+02  0.74470750000E+01 0. -1.
        -31    1    1    2    0    0  0.62425018599E+00 -0.98174840911E-01  0.60010082754E+02  0.60473699117E+02  0.74470750000E+01 0. -1.
<mgrwt>
<rscale>  0 0.14947780E+02</rscale>
<asrwt>0</asrwt>
<pdfrwt beam="2">  1        2 0.98838961E+00 0.14947780E+02</pdfrwt>
<pdfrwt beam="1">  1       -2 0.99639053E+00 0.14947780E+02</pdfrwt>
<totfact>-0.18996401E-13</totfact>
</mgrwt>
</event>
<event>
 4    1 -0.5011189E-019  0.1489548E+02  0.7818608E-02  0.1871275E+00
          2   -1    0    0  501    0  0.00000000000E+00  0.00000000000E+00  0.11834609815E+03  0.11834609818E+03  0.25500000000E-02 0. -1.
         -2   -1    0    0    0  501 -0.00000000000E+00 -0.00000000000E+00 -0.46869684588E+00  0.46870378262E+00  0.25500000000E-02 0.  1.
         31    1    1    2    0    0  0.69214329638E-01  0.69826585011E-01  0.59068358328E+02  0.59536035709E+02  0.74470750000E+01 0.  1.
        -31    1    1    2    0    0 -0.69214329638E-01 -0.69826585011E-01  0.58809042975E+02  0.59278766249E+02  0.74470750000E+01 0. -1.
<mgrwt>
<rscale>  0 0.14895483E+02</rscale>
<asrwt>0</asrwt>
<pdfrwt beam="1">  1        2 0.98244391E+00 0.14895483E+02</pdfrwt>
<pdfrwt beam="2">  1       -2 0.99541876E+00 0.14895483E+02</pdfrwt>
<totfact>-0.52342117E-13</totfact>
</mgrwt>
</event>
<event>
 4    1 -0.5011189E-019  0.1495776E+02  0.7818608E-02  0.1869360E+00
          2   -1    0    0  501    0  0.00000000000E+00  0.00000000000E+00  0.11919906160E+03  0.11919906163E+03  0.25500000000E-02 0. -1.
         -2   -1    0    0    0  501 -0.00000000000E+00 -0.00000000000E+00 -0.46924239597E+00  0.46924932464E+00  0.25500000000E-02 0.  1.
         31    1    1    2    0    0  0.17855222315E+00  0.14888866228E+00  0.64554057166E+02  0.64982607453E+02  0.74470750000E+01 0. -1.
        -31    1    1    2    0    0 -0.17855222315E+00 -0.14888866228E+00  0.54175762041E+02  0.54685703502E+02  0.74470750000E+01 0.  1.
<mgrwt>
<rscale>  0 0.14957763E+02</rscale>
<asrwt>0</asrwt>
<pdfrwt beam="1">  1        2 0.98950132E+00 0.14957763E+02</pdfrwt>
<pdfrwt beam="2">  1       -2 0.99660097E+00 0.14957763E+02</pdfrwt>
<totfact>-0.16222646E-13</totfact>
</mgrwt>
</event>
<event>
 4    1 -0.5011189E-019  0.1495326E+02  0.7818608E-02  0.1869498E+00
          2   -1    0    0  501    0  0.00000000000E+00  0.00000000000E+00  0.11936879837E+03  0.11936879840E+03  0.25500000000E-02 0.  1.
         -2   -1    0    0    0  501 -0.00000000000E+00 -0.00000000000E+00 -0.46829303890E+00  0.46829998161E+00  0.25500000000E-02 0. -1.
         31    1    1    2    0    0 -0.38067696480E+00  0.35005766184E+00  0.62789489865E+02  0.63231688408E+02  0.74470750000E+01 0.  1.
        -31    1    1    2    0    0  0.38067696480E+00 -0.35005766184E+00  0.56111015468E+02  0.56605409973E+02  0.74470750000E+01 0. -1.
<mgrwt>
<rscale>  0 0.14953260E+02</rscale>
<asrwt>0</asrwt>
<pdfrwt beam="1">  1        2 0.99089698E+00 0.14953260E+02</pdfrwt>
<pdfrwt beam="2">  1       -2 0.99459814E+00 0.14953260E+02</pdfrwt>
<totfact>-0.16513883E-13</totfact>
</mgrwt>
</event>
<event>
 4    1  0.5011189E-019  0.1493520E+02  0.7818608E-02  0.1870052E+00
         -2   -1    0    0    0  501 -0.00000000000E+00  0.00000000000E+00  0.11850069311E+03  0.11850069313E+03  0.25500000000E-02 0. -1.
          2   -1    0    0  501    0  0.00000000000E+00 -0.00000000000E+00 -0.47058476506E+00  0.47059167397E+00  0.25500000000E-02 0.  1.
         31    1    1    2    0    0  0.38097094866E+00 -0.27401611690E+00  0.61349514576E+02  0.61801634998E+02  0.74470750000E+01 0. -1.
        -31    1    1    2    0    0 -0.38097094866E+00  0.27401611690E+00  0.56680593766E+02  0.57169649811E+02  0.74470750000E+01 0.  1.
<mgrwt>
<rscale>  0 0.14935198E+02</rscale>
<asrwt>0</asrwt>
<pdfrwt beam="2">  1        2 0.99941755E+00 0.14935198E+02</pdfrwt>
<pdfrwt beam="1">  1       -2 0.98373782E+00 0.14935198E+02</pdfrwt>
<totfact> 0.12586895E-13</totfact>
</mgrwt>
</event>
<event>
 4    1 -0.5011189E-019  0.1499909E+02  0.7818608E-02  0.1868096E+00
          2   -1    0    0  501    0  0.00000000000E+00  0.00000000000E+00  0.12005035406E+03  0.12005035409E+03  0.25500000000E-02 0. -1.
         -2   -1    0    0    0  501 -0.00000000000E+00 -0.00000000000E+00 -0.46849317979E+00  0.46850011954E+00  0.25500000000E-02 0.  1.
         31    1    1    2    0    0  0.48297775491E+00  0.46834934628E+00  0.64418236421E+02  0.64850757345E+02  0.74470750000E+01 0.  1.
        -31    1    1    2    0    0 -0.48297775491E+00 -0.46834934628E+00  0.55163624461E+02  0.55668096863E+02  0.74470750000E+01 0.  1.
<mgrwt>
<rscale>  0 0.14999092E+02</rscale>
<asrwt>0</asrwt>
<pdfrwt beam="1">  1        2 0.99653421E+00 0.14999092E+02</pdfrwt>
<pdfrwt beam="2">  1       -2 0.99504363E+00 0.14999092E+02</pdfrwt>
<totfact>-0.96638878E-14</totfact>
</mgrwt>
</event>
<event>
 4    1  0.5011189E-019  0.1490972E+02  0.7818608E-02  0.1870836E+00
          2   -1    0    0  501    0  0.00000000000E+00  0.00000000000E+00  0.11954676256E+03  0.11954676258E+03  0.25500000000E-02 0.  1.
         -2   -1    0    0    0  501 -0.00000000000E+00 -0.00000000000E+00 -0.46487699566E+00  0.46488398939E+00  0.25500000000E-02 0. -1.
         31    1    1    2    0    0  0.81578749564E-01 -0.32579612634E-01  0.56891800983E+02  0.57377205070E+02  0.74470750000E+01 0. -1.
        -31    1    1    2    0    0 -0.81578749564E-01  0.32579612634E-01  0.62190084579E+02  0.62634441504E+02  0.74470750000E+01 0.  1.
<mgrwt>
<rscale>  0 0.14909723E+02</rscale>
<asrwt>0</asrwt>
<pdfrwt beam="1">  1        2 0.99234026E+00 0.14909723E+02</pdfrwt>
<pdfrwt beam="2">  1       -2 0.98737683E+00 0.14909723E+02</pdfrwt>
<totfact> 0.25783851E-13</totfact>
</mgrwt>
</event>
<event>
 4    1  0.5011189E-019  0.1493547E+02  0.7818608E-02  0.1870044E+00
          2   -1    0    0  501    0  0.00000000000E+00  0.00000000000E+00  0.12006874740E+03  0.12006874742E+03  0.25500000000E-02 0.  1.
         -2   -1    0    0    0  501 -0.00000000000E+00 -0.00000000000E+00 -0.46445605008E+00  0.46446305015E+00  0.25500000000E-02 0. -1.
         31    1    1    2    0    0  0.27656000545E+00  0.36763548002E+00  0.57295002411E+02  0.57778783897E+02  0.74470750000E+01 0. -1.
        -31    1    1    2    0    0 -0.27656000545E+00 -0.36763548002E+00  0.62309288935E+02  0.62754426577E+02  0.74470750000E+01 0.  1.
<mgrwt>
<rscale>  0 0.14935472E+02</rscale>
<asrwt>0</asrwt>
<pdfrwt beam="1">  1        2 0.99665292E+00 0.14935472E+02</pdfrwt>
<pdfrwt beam="2">  1       -2 0.98650283E+00 0.14935472E+02</pdfrwt>
<totfact> 0.23704553E-13</totfact>
</mgrwt>
</event>
<event>
 4    1  0.5011189E-019  0.1491096E+02  0.7818608E-02  0.1870798E+00
          2   -1    0    0  501    0  0.00000000000E+00  0.00000000000E+00  0.12046097754E+03  0.12046097757E+03  0.25500000000E-02 0.  1.
         -2   -1    0    0    0  501 -0.00000000000E+00 -0.00000000000E+00 -0.46142524434E+00  0.46143229039E+00  0.25500000000E-02 0. -1.
         31    1    1    2    0    0 -0.64248489711E-01  0.16629485876E+00  0.57520617943E+02  0.58000967203E+02  0.74470750000E+01 0. -1.
        -31    1    1    2    0    0  0.64248489711E-01 -0.16629485876E+00  0.62478934354E+02  0.62921442656E+02  0.74470750000E+01 0.  1.
<mgrwt>
<rscale>  0 0.14910958E+02</rscale>
<asrwt>0</asrwt>
<pdfrwt beam="1">  1        2 0.99987109E+00 0.14910958E+02</pdfrwt>
<pdfrwt beam="2">  1       -2 0.98010237E+00 0.14910958E+02</pdfrwt>
<totfact> 0.60538437E-14</totfact>
</mgrwt>
</event>
<event>
 4    1  0.5011189E-019  0.1491751E+02  0.7818608E-02  0.1870596E+00
          2   -1    0    0  501    0  0.00000000000E+00  0.00000000000E+00  0.11991823456E+03  0.11991823459E+03  0.25500000000E-02 0.  1.
         -2   -1    0    0    0  501 -0.00000000000E+00 -0.00000000000E+00 -0.46392122225E+00  0.46392823039E+00  0.25500000000E-02 0. -1.
         31    1    1    2    0    0  0.28783720777E+00  0.29000265178E+00  0.59044332707E+02  0.59513520335E+02  0.74470750000E+01 0. -1.
        -31    1    1    2    0    0 -0.28783720777E+00 -0.29000265178E+00  0.60409980629E+02  0.60868642481E+02  0.74470750000E+01 0. -1.
<mgrwt>
<rscale>  0 0.14917512E+02</rscale>
<asrwt>0</asrwt>
<pdfrwt beam="1">  1        2 0.99540395E+00 0.14917512E+02</pdfrwt>
<pdfrwt beam="2">  1       -2 0.98536649E+00 0.14917512E+02</pdfrwt>
<totfact> 0.41683474E-13</totfact>
</mgrwt>
</event>
<event>
 4    1  0.5011189E-019  0.1490595E+02  0.7818608E-02  0.1870952E+00
          2   -1    0    0  501    0  0.00000000000E+00  0.00000000000E+00  0.12001767087E+03  0.12001767089E+03  0.25500000000E-02 0.  1.
         -2   -1    0    0    0  501 -0.00000000000E+00 -0.00000000000E+00 -0.46281885930E+00  0.46282588413E+00  0.25500000000E-02 0. -1.
         31    1    1    2    0    0  0.20001949495E+00 -0.79151713417E-01  0.61427318433E+02  0.61877464789E+02  0.74470750000E+01 0.  1.
        -31    1    1    2    0    0 -0.20001949495E+00  0.79151713417E-01  0.58127533573E+02  0.58603031988E+02  0.74470750000E+01 0. -1.
<mgrwt>
<rscale>  0 0.14905954E+02</rscale>
<asrwt>0</asrwt>
<pdfrwt beam="1">  1        2 0.99621704E+00 0.14905954E+02</pdfrwt>
<pdfrwt beam="2">  1       -2 0.98303724E+00 0.14905954E+02</pdfrwt>
<totfact> 0.67613751E-13</totfact>
</mgrwt>
</event>
<event>
 4    1 -0.5011189E-019  0.1490246E+02  0.7818608E-02  0.1871060E+00
         -2   -1    0    0    0  501 -0.00000000000E+00  0.00000000000E+00  0.11978861456E+03  0.11978861459E+03  0.25500000000E-02 0.  1.
          2   -1    0    0  501    0  0.00000000000E+00 -0.00000000000E+00 -0.46348656949E+00  0.46349358420E+00  0.25500000000E-02 0. -1.
         31    1    1    2    0    0  0.43195404974E-02 -0.12141898401E+00  0.61414733857E+02  0.61864717101E+02  0.74470750000E+01 0.  1.
        -31    1    1    2    0    0 -0.43195404974E-02  0.12141898401E+00  0.57910394137E+02  0.58387391074E+02  0.74470750000E+01 0. -1.
<mgrwt>
<rscale>  0 0.14902461E+02</rscale>
<asrwt>0</asrwt>
<pdfrwt beam="2">  1        2 0.98444275E+00 0.14902461E+02</pdfrwt>
<pdfrwt beam="1">  1       -2 0.99432857E+00 0.14902461E+02</pdfrwt>
<totfact>-0.37850131E-13</totfact>
</mgrwt>
</event>
<event>
 4    1 -0.5011189E-019  0.1495721E+02  0.7818608E-02  0.1869377E+00
         -2   -1    0    0    0  501 -0.00000000000E+00  0.00000000000E+00  0.11978571674E+03  0.11978571677E+03  0.25500000000E-02 0. -1.
          2   -1    0    0  501    0  0.00000000000E+00 -0.00000000000E+00 -0.46690938373E+00  0.46691634702E+00  0.25500000000E-02 0.  1.
         31    1    1    2    0    0  0.23502149745E+00 -0.56252481341E-01  0.64820979761E+02  0.65247810252E+02  0.74470750000E+01 0. -1.
        -31    1    1    2    0    0 -0.23502149745E+00  0.56252481341E-01  0.54497827599E+02  0.55004822866E+02  0.74470750000E+01 0.  1.
<mgrwt>
<rscale>  0 0.14957205E+02</rscale>
<asrwt>0</asrwt>
<pdfrwt beam="2">  1        2 0.99168436E+00 0.14957205E+02</pdfrwt>
<pdfrwt beam="1">  1       -2 0.99433291E+00 0.14957205E+02</pdfrwt>
<totfact>-0.15420553E-13</totfact>
</mgrwt>
</event>
<event>
 4    1 -0.5011189E-019  0.1492432E+02  0.7818608E-02  0.1870387E+00
         -2   -1    0    0    0  501 -0.00000000000E+00  0.00000000000E+00  0.12001547692E+03  0.12001547695E+03  0.25500000000E-02 0. -1.
          2   -1    0    0  501    0  0.00000000000E+00 -0.00000000000E+00 -0.46396870130E+00  0.46397570872E+00  0.25500000000E-02 0.  1.
         31    1    1    2    0    0 -0.43016395556E+00  0.83566361359E-01  0.61239969892E+02  0.61692664579E+02  0.74470750000E+01 0. -1.
        -31    1    1    2    0    0  0.43016395556E+00 -0.83566361359E-01  0.58311538326E+02  0.58786788077E+02  0.74470750000E+01 0. -1.
<mgrwt>
<rscale>  0 0.14924322E+02</rscale>
<asrwt>0</asrwt>
<pdfrwt beam="2">  1        2 0.98547002E+00 0.14924322E+02</pdfrwt>
<pdfrwt beam="1">  1       -2 0.99620841E+00 0.14924322E+02</pdfrwt>
<totfact>-0.29483687E-13</totfact>
</mgrwt>
</event>
<event>
 4    1 -0.5011189E-019  0.1496736E+02  0.7818608E-02  0.1869066E+00
          2   -1    0    0  501    0  0.00000000000E+00  0.00000000000E+00  0.11997643142E+03  0.11997643145E+03  0.25500000000E-02 0. -1.
         -2   -1    0    0    0  501 -0.00000000000E+00 -0.00000000000E+00 -0.46680064651E+00  0.46680761142E+00  0.25500000000E-02 0.  1.
         31    1    1    2    0    0 -0.16463331174E+00  0.54880592938E+00  0.55995205574E+02  0.56491152098E+02  0.74470750000E+01 0.  1.
        -31    1    1    2    0    0  0.16463331174E+00 -0.54880592938E+00  0.63514425199E+02  0.63952086960E+02  0.74470750000E+01 0. -1.
<mgrwt>
<rscale>  0 0.14967364E+02</rscale>
<asrwt>0</asrwt>
<pdfrwt beam="1">  1        2 0.99590897E+00 0.14967364E+02</pdfrwt>
<pdfrwt beam="2">  1       -2 0.99146043E+00 0.14967364E+02</pdfrwt>
<totfact>-0.54121865E-14</totfact>
</mgrwt>
</event>
<event>
 4    1 -0.5011189E-019  0.1499094E+02  0.7818608E-02  0.1868345E+00
         -2   -1    0    0    0  501 -0.00000000000E+00  0.00000000000E+00  0.12036529139E+03  0.12036529142E+03  0.25500000000E-02 0.  1.
          2   -1    0    0  501    0  0.00000000000E+00 -0.00000000000E+00 -0.46675968356E+00  0.46676664909E+00  0.25500000000E-02 0. -1.
         31    1    1    2    0    0 -0.58487601615E+00  0.21407655667E+00  0.64616284936E+02  0.65046991581E+02  0.74470750000E+01 0.  1.
        -31    1    1    2    0    0  0.58487601615E+00 -0.21407655667E+00  0.55282246770E+02  0.55785066485E+02  0.74470750000E+01 0. -1.
<mgrwt>
<rscale>  0 0.14990942E+02</rscale>
<asrwt>0</asrwt>
<pdfrwt beam="2">  1        2 0.99138618E+00 0.14990942E+02</pdfrwt>
<pdfrwt beam="1">  1       -2 0.99912400E+00 0.14990942E+02</pdfrwt>
<totfact>-0.45623449E-14</totfact>
</mgrwt>
</event>
<event>
 4    1 -0.5011189E-019  0.1497660E+02  0.7818608E-02  0.1868783E+00
         -2   -1    0    0    0  501 -0.00000000000E+00  0.00000000000E+00  0.11981645031E+03  0.11981645034E+03  0.25500000000E-02 0.  1.
          2   -1    0    0  501    0  0.00000000000E+00 -0.00000000000E+00 -0.46800127630E+00  0.46800822335E+00  0.25500000000E-02 0. -1.
         31    1    1    2    0    0 -0.75393053609E+00 -0.66299179239E-01  0.61338473024E+02  0.61793527216E+02  0.74470750000E+01 0.  1.
        -31    1    1    2    0    0  0.75393053609E+00  0.66299179239E-01  0.58009976012E+02  0.58490931347E+02  0.74470750000E+01 0.  1.
<mgrwt>
<rscale>  0 0.14976605E+02</rscale>
<asrwt>0</asrwt>
<pdfrwt beam="2">  1        2 0.99399540E+00 0.14976605E+02</pdfrwt>
<pdfrwt beam="1">  1       -2 0.99459606E+00 0.14976605E+02</pdfrwt>
<totfact>-0.13086526E-13</totfact>
</mgrwt>
</event>
<event>
 4    1 -0.5011189E-019  0.1495540E+02  0.7818608E-02  0.1869433E+00
          2   -1    0    0  501    0  0.00000000000E+00  0.00000000000E+00  0.11911275141E+03  0.11911275144E+03  0.25500000000E-02 0. -1.
         -2   -1    0    0    0  501 -0.00000000000E+00 -0.00000000000E+00 -0.46943377477E+00  0.46944070061E+00  0.25500000000E-02 0.  1.
         31    1    1    2    0    0  0.24558306429E+00  0.40346939906E+00  0.63189071151E+02  0.63628144226E+02  0.74470750000E+01 0.  1.
        -31    1    1    2    0    0 -0.24558306429E+00 -0.40346939906E+00  0.55454246485E+02  0.55954047913E+02  0.74470750000E+01 0.  1.
<mgrwt>
<rscale>  0 0.14955396E+02</rscale>
<asrwt>0</asrwt>
<pdfrwt beam="1">  1        2 0.98878923E+00 0.14955396E+02</pdfrwt>
<pdfrwt beam="2">  1       -2 0.99700300E+00 0.14955396E+02</pdfrwt>
<totfact>-0.16234692E-13</totfact>
</mgrwt>
</event>
<event>
 4    1  0.5011189E-019  0.1489568E+02  0.7818608E-02  0.1871269E+00
          2   -1    0    0  501    0  0.00000000000E+00  0.00000000000E+00  0.12028173517E+03  0.12028173520E+03  0.25500000000E-02 0.  1.
         -2   -1    0    0    0  501 -0.00000000000E+00 -0.00000000000E+00 -0.46116608250E+00  0.46117313251E+00  0.25500000000E-02 0. -1.
         31    1    1    2    0    0  0.81145500481E-01  0.27645594491E-01  0.60423518768E+02  0.60880767860E+02  0.74470750000E+01 0.  1.
        -31    1    1    2    0    0 -0.81145500481E-01 -0.27645594491E-01  0.59397050319E+02  0.59862140469E+02  0.74470750000E+01 0. -1.
<mgrwt>
<rscale>  0 0.14895675E+02</rscale>
<asrwt>0</asrwt>
<pdfrwt beam="1">  1        2 0.99838685E+00 0.14895675E+02</pdfrwt>
<pdfrwt beam="2">  1       -2 0.97954843E+00 0.14895675E+02</pdfrwt>
<totfact> 0.70488503E-13</totfact>
</mgrwt>
</event>
<event>
 4    1 -0.5011189E-019  0.1490025E+02  0.7818608E-02  0.1871128E+00
          2   -1    0    0  501    0  0.00000000000E+00  0.00000000000E+00  0.11852753051E+03  0.11852753054E+03  0.25500000000E-02 0.  1.
         -2   -1    0    0    0  501 -0.00000000000E+00 -0.00000000000E+00 -0.46827925188E+00  0.46828619480E+00  0.25500000000E-02 0. -1.
         31    1    1    2    0    0 -0.51070091838E-01  0.15602949192E+00  0.57942843850E+02  0.58419680185E+02  0.74470750000E+01 0.  1.
        -31    1    1    2    0    0  0.51070091838E-01 -0.15602949192E+00  0.60116407408E+02  0.60576136548E+02  0.74470750000E+01 0.  1.
<mgrwt>
<rscale>  0 0.14900255E+02</rscale>
<asrwt>0</asrwt>
<pdfrwt beam="1">  1        2 0.98394067E+00 0.14900255E+02</pdfrwt>
<pdfrwt beam="2">  1       -2 0.99454139E+00 0.14900255E+02</pdfrwt>
<totfact>-0.41376745E-13</totfact>
</mgrwt>
</event>
<event>
 4    1 -0.5011189E-019  0.1490112E+02  0.7818608E-02  0.1871101E+00
         -2   -1    0    0    0  501 -0.00000000000E+00  0.00000000000E+00  0.11988520597E+03  0.11988520599E+03  0.25500000000E-02 0. -1.
          2   -1    0    0  501    0  0.00000000000E+00 -0.00000000000E+00 -0.46302973793E+00  0.46303675957E+00  0.25500000000E-02 0.  1.
         31    1    1    2    0    0  0.21937929366E+00  0.31183928814E-01  0.60139512431E+02  0.60599249016E+02  0.74470750000E+01 0. -1.
        -31    1    1    2    0    0 -0.21937929366E+00 -0.31183928814E-01  0.59282663798E+02  0.59748993738E+02  0.74470750000E+01 0. -1.
<mgrwt>
<rscale>  0 0.14901119E+02</rscale>
<asrwt>0</asrwt>
<pdfrwt beam="2">  1        2 0.98347925E+00 0.14901119E+02</pdfrwt>
<pdfrwt beam="1">  1       -2 0.99512347E+00 0.14901119E+02</pdfrwt>
<totfact>-0.44517208E-13</totfact>
</mgrwt>
</event>
<event>
 4    1  0.5011189E-019  0.1490430E+02  0.7818608E-02  0.1871003E+00
         -2   -1    0    0    0  501 -0.00000000000E+00  0.00000000000E+00  0.11817680046E+03  0.11817680049E+03  0.25500000000E-02 0.  1.
          2   -1    0    0  501    0  0.00000000000E+00 -0.00000000000E+00 -0.46992396765E+00  0.46993088628E+00  0.25500000000E-02 0. -1.
         31    1    1    2    0    0  0.11265039770E+00 -0.21527240419E+00  0.59877993492E+02  0.60339804963E+02  0.74470750000E+01 0.  1.
        -31    1    1    2    0    0 -0.11265039770E+00  0.21527240419E+00  0.57828883001E+02  0.58306926411E+02  0.74470750000E+01 0.  1.
<mgrwt>
<rscale>  0 0.14904298E+02</rscale>
<asrwt>0</asrwt>
<pdfrwt beam="2">  1        2 0.99800893E+00 0.14904298E+02</pdfrwt>
<pdfrwt beam="1">  1       -2 0.98105419E+00 0.14904298E+02</pdfrwt>
<totfact> 0.64338261E-13</totfact>
</mgrwt>
</event>
<event>
 4    1  0.5011189E-019  0.1493445E+02  0.7818608E-02  0.1870075E+00
          2   -1    0    0  501    0  0.00000000000E+00  0.00000000000E+00  0.11991169269E+03  0.11991169272E+03  0.25500000000E-02 0.  1.
         -2   -1    0    0    0  501 -0.00000000000E+00 -0.00000000000E+00 -0.46500079848E+00  0.46500779035E+00  0.25500000000E-02 0. -1.
         31    1    1    2    0    0 -0.14860731065E+00 -0.41655974188E+00  0.62334236938E+02  0.62779069975E+02  0.74470750000E+01 0.  1.
        -31    1    1    2    0    0  0.14860731065E+00  0.41655974188E+00  0.57112454954E+02  0.57597630534E+02  0.74470750000E+01 0. -1.
<mgrwt>
<rscale>  0 0.14934451E+02</rscale>
<asrwt>0</asrwt>
<pdfrwt beam="1">  1        2 0.99535878E+00 0.14934451E+02</pdfrwt>
<pdfrwt beam="2">  1       -2 0.98765040E+00 0.14934451E+02</pdfrwt>
<totfact> 0.17549726E-13</totfact>
</mgrwt>
</event>
<event>
 4    1 -0.5011189E-019  0.1491671E+02  0.7818608E-02  0.1870621E+00
          2   -1    0    0  501    0  0.00000000000E+00  0.00000000000E+00  0.11825587094E+03  0.11825587097E+03  0.25500000000E-02 0. -1.
         -2   -1    0    0    0  501 -0.00000000000E+00 -0.00000000000E+00 -0.47039230633E+00  0.47039921806E+00  0.25500000000E-02 0.  1.
         31    1    1    2    0    0  0.27561338401E+00 -0.30327572904E+00  0.58780504588E+02  0.59251789716E+02  0.74470750000E+01 0.  1.
        -31    1    1    2    0    0 -0.27561338401E+00  0.30327572904E+00  0.59004974045E+02  0.59474480468E+02  0.74470750000E+01 0.  1.
<mgrwt>
<rscale>  0 0.14916711E+02</rscale>
<asrwt>0</asrwt>
<pdfrwt beam="1">  1        2 0.98171187E+00 0.14916711E+02</pdfrwt>
<pdfrwt beam="2">  1       -2 0.99900226E+00 0.14916711E+02</pdfrwt>
<totfact>-0.19527134E-13</totfact>
</mgrwt>
</event>
<event>
 4    1 -0.5011189E-019  0.1497612E+02  0.7818608E-02  0.1868798E+00
          2   -1    0    0  501    0  0.00000000000E+00  0.00000000000E+00  0.11932985000E+03  0.11932985003E+03  0.25500000000E-02 0. -1.
         -2   -1    0    0    0  501 -0.00000000000E+00 -0.00000000000E+00 -0.46987941954E+00  0.46988633881E+00  0.25500000000E-02 0.  1.
         31    1    1    2    0    0 -0.51244353631E+00  0.51792157359E+00  0.61710715290E+02  0.62162707058E+02  0.74470750000E+01 0.  1.
        -31    1    1    2    0    0  0.51244353631E+00 -0.51792157359E+00  0.57149255290E+02  0.57637029308E+02  0.74470750000E+01 0.  1.
<mgrwt>
<rscale>  0 0.14976122E+02</rscale>
<asrwt>0</asrwt>
<pdfrwt beam="1">  1        2 0.99058804E+00 0.14976122E+02</pdfrwt>
<pdfrwt beam="2">  1       -2 0.99795288E+00 0.14976122E+02</pdfrwt>
<totfact>-0.10250969E-13</totfact>
</mgrwt>
</event>
<event>
 4    1 -0.5011189E-019  0.1503153E+02  0.7818608E-02  0.1867108E+00
         -2   -1    0    0    0  501 -0.00000000000E+00  0.00000000000E+00  0.12002574520E+03  0.12002574523E+03  0.25500000000E-02 0.  1.
          2   -1    0    0  501    0  0.00000000000E+00 -0.00000000000E+00 -0.47061831410E+00  0.47062522252E+00  0.25500000000E-02 0. -1.
         31    1    1    2    0    0 -0.31750466595E+00 -0.95093180770E+00  0.60986000346E+02  0.61447182562E+02  0.74470750000E+01 0.  1.
        -31    1    1    2    0    0  0.31750466595E+00  0.95093180770E+00  0.58569126539E+02  0.59049187887E+02  0.74470750000E+01 0. -1.
<mgrwt>
<rscale>  0 0.15031531E+02</rscale>
<asrwt>0</asrwt>
<pdfrwt beam="2">  1        2 0.99953876E+00 0.15031531E+02</pdfrwt>
<pdfrwt beam="1">  1       -2 0.99634830E+00 0.15031531E+02</pdfrwt>
<totfact>-0.16099614E-14</totfact>
</mgrwt>
</event>
<event>
 4    1  0.5011189E-019  0.1489778E+02  0.7818608E-02  0.1871204E+00
          2   -1    0    0  501    0  0.00000000000E+00  0.00000000000E+00  0.11990588078E+03  0.11990588081E+03  0.25500000000E-02 0.  1.
         -2   -1    0    0    0  501 -0.00000000000E+00 -0.00000000000E+00 -0.46274240341E+00  0.46274942941E+00  0.25500000000E-02 0. -1.
         31    1    1    2    0    0 -0.15875517248E+00  0.30859679296E-01  0.59482111599E+02  0.59946698673E+02  0.74470750000E+01 0. -1.
        -31    1    1    2    0    0  0.15875517248E+00 -0.30859679296E-01  0.59961026778E+02  0.60421931564E+02  0.74470750000E+01 0.  1.
<mgrwt>
<rscale>  0 0.14897780E+02</rscale>
<asrwt>0</asrwt>
<pdfrwt beam="1">  1        2 0.99529205E+00 0.14897780E+02</pdfrwt>
<pdfrwt beam="2">  1       -2 0.98287195E+00 0.14897780E+02</pdfrwt>
<totfact> 0.79348559E-13</totfact>
</mgrwt>
</event>
<event>
 4    1 -0.5011189E-019  0.1500103E+02  0.7818608E-02  0.1868037E+00
         -2   -1    0    0    0  501 -0.00000000000E+00  0.00000000000E+00  0.11984699382E+03  0.11984699385E+03  0.25500000000E-02 0. -1.
          2   -1    0    0  501    0  0.00000000000E+00 -0.00000000000E+00 -0.46940941638E+00  0.46941634258E+00  0.25500000000E-02 0.  1.
         31    1    1    2    0    0  0.42534761161E+00  0.78498736042E+00  0.59360642935E+02  0.59832616368E+02  0.74470750000E+01 0. -1.
        -31    1    1    2    0    0 -0.42534761161E+00 -0.78498736042E+00  0.60016941470E+02  0.60483793823E+02  0.74470750000E+01 0.  1.
<mgrwt>
<rscale>  0 0.15001030E+02</rscale>
<asrwt>0</asrwt>
<pdfrwt beam="2">  1        2 0.99697545E+00 0.15001030E+02</pdfrwt>
<pdfrwt beam="1">  1       -2 0.99486026E+00 0.15001030E+02</pdfrwt>
<totfact>-0.88713990E-14</totfact>
</mgrwt>
</event>
<event>
 4    1 -0.5011189E-019  0.1502266E+02  0.7818608E-02  0.1867378E+00
          2   -1    0    0  501    0  0.00000000000E+00  0.00000000000E+00  0.12023322785E+03  0.12023322788E+03  0.25500000000E-02 0.  1.
         -2   -1    0    0    0  501 -0.00000000000E+00 -0.00000000000E+00 -0.46925170531E+00  0.46925863385E+00  0.25500000000E-02 0. -1.
         31    1    1    2    0    0  0.47625403100E-01 -0.97917913145E+00  0.59809686956E+02  0.60279504309E+02  0.74470750000E+01 0. -1.
        -31    1    1    2    0    0 -0.47625403100E-01  0.97917913145E+00  0.59954289188E+02  0.60422982201E+02  0.74470750000E+01 0.  1.
<mgrwt>
<rscale>  0 0.15022658E+02</rscale>
<asrwt>0</asrwt>
<pdfrwt beam="1">  1        2 0.99805261E+00 0.15022658E+02</pdfrwt>
<pdfrwt beam="2">  1       -2 0.99665428E+00 0.15022658E+02</pdfrwt>
<totfact>-0.54968393E-14</totfact>
</mgrwt>
</event>
<event>
 4    1 -0.5011189E-019  0.1496035E+02  0.7818608E-02  0.1869281E+00
          2   -1    0    0  501    0  0.00000000000E+00  0.00000000000E+00  0.11988136149E+03  0.11988136151E+03  0.25500000000E-02 0. -1.
         -2   -1    0    0    0  501 -0.00000000000E+00 -0.00000000000E+00 -0.46673311480E+00  0.46674008072E+00  0.25500000000E-02 0.  1.
         31    1    1    2    0    0 -0.56007145095E+00  0.42069062550E+00  0.59235811872E+02  0.59706205664E+02  0.74470750000E+01 0. -1.
        -31    1    1    2    0    0  0.56007145095E+00 -0.42069062550E+00  0.60178816499E+02  0.60641895930E+02  0.74470750000E+01 0. -1.
<mgrwt>
<rscale>  0 0.14960351E+02</rscale>
<asrwt>0</asrwt>
<pdfrwt beam="1">  1        2 0.99512231E+00 0.14960351E+02</pdfrwt>
<pdfrwt beam="2">  1       -2 0.99131451E+00 0.14960351E+02</pdfrwt>
<totfact>-0.54074710E-14</totfact>
</mgrwt>
</event>
<event>
 4    1  0.5011189E-019  0.1490528E+02  0.7818608E-02  0.1870973E+00
          2   -1    0    0  501    0  0.00000000000E+00  0.00000000000E+00  0.11964784416E+03  0.11964784418E+03  0.25500000000E-02 0.  1.
         -2   -1    0    0    0  501 -0.00000000000E+00 -0.00000000000E+00 -0.46420761023E+00  0.46421461404E+00  0.25500000000E-02 0. -1.
         31    1    1    2    0    0  0.12222282185E+00  0.24309767251E+00  0.60352089186E+02  0.60810423696E+02  0.74470750000E+01 0. -1.
        -31    1    1    2    0    0 -0.12222282185E+00 -0.24309767251E+00  0.58831547359E+02  0.59301635101E+02  0.74470750000E+01 0. -1.
<mgrwt>
<rscale>  0 0.14905283E+02</rscale>
<asrwt>0</asrwt>
<pdfrwt beam="1">  1        2 0.99317054E+00 0.14905283E+02</pdfrwt>
<pdfrwt beam="2">  1       -2 0.98596383E+00 0.14905283E+02</pdfrwt>
<totfact> 0.42101768E-13</totfact>
</mgrwt>
</event>
<event>
 4    1 -0.5011189E-019  0.1493362E+02  0.7818608E-02  0.1870101E+00
          2   -1    0    0  501    0  0.00000000000E+00  0.00000000000E+00  0.11884766858E+03  0.11884766860E+03  0.25500000000E-02 0.  1.
         -2   -1    0    0    0  501 -0.00000000000E+00 -0.00000000000E+00 -0.46911190327E+00  0.46911883386E+00  0.25500000000E-02 0. -1.
         31    1    1    2    0    0  0.10120597158E+00  0.31400937990E+00  0.62630470568E+02  0.63072526619E+02  0.74470750000E+01 0. -1.
        -31    1    1    2    0    0 -0.10120597158E+00 -0.31400937990E+00  0.55748086106E+02  0.56244260819E+02  0.74470750000E+01 0. -1.
<mgrwt>
<rscale>  0 0.14933623E+02</rscale>
<asrwt>0</asrwt>
<pdfrwt beam="1">  1        2 0.98659468E+00 0.14933623E+02</pdfrwt>
<pdfrwt beam="2">  1       -2 0.99631337E+00 0.14933623E+02</pdfrwt>
<totfact>-0.24473116E-13</totfact>
</mgrwt>
</event>
<event>
 4    1 -0.5011189E-019  0.1495402E+02  0.7818608E-02  0.1869475E+00
         -2   -1    0    0    0  501 -0.00000000000E+00  0.00000000000E+00  0.12008319172E+03  0.12008319174E+03  0.25500000000E-02 0.  1.
          2   -1    0    0  501    0  0.00000000000E+00 -0.00000000000E+00 -0.46555444125E+00  0.46556142481E+00  0.25500000000E-02 0. -1.
         31    1    1    2    0    0  0.27735429211E+00 -0.60059943765E+00  0.59039201843E+02  0.59510704293E+02  0.74470750000E+01 0. -1.
        -31    1    1    2    0    0 -0.27735429211E+00  0.60059943765E+00  0.60578435433E+02  0.61038048877E+02  0.74470750000E+01 0. -1.
<mgrwt>
<rscale>  0 0.14954021E+02</rscale>
<asrwt>0</asrwt>
<pdfrwt beam="2">  1        2 0.98882722E+00 0.14954021E+02</pdfrwt>
<pdfrwt beam="1">  1       -2 0.99678143E+00 0.14954021E+02</pdfrwt>
<totfact>-0.16905181E-13</totfact>
</mgrwt>
</event>
<event>
 4    1  0.5011189E-019  0.1490568E+02  0.7818608E-02  0.1870960E+00
         -2   -1    0    0    0  501 -0.00000000000E+00  0.00000000000E+00  0.11828587934E+03  0.11828587937E+03  0.25500000000E-02 0.  1.
          2   -1    0    0  501    0  0.00000000000E+00 -0.00000000000E+00 -0.46957789038E+00  0.46958481410E+00  0.25500000000E-02 0. -1.
         31    1    1    2    0    0 -0.29083377207E+00 -0.69308321437E-02  0.59194086945E+02  0.59661407020E+02  0.74470750000E+01 0.  1.
        -31    1    1    2    0    0  0.29083377207E+00  0.69308321437E-02  0.58622214509E+02  0.59094057166E+02  0.74470750000E+01 0.  1.
<mgrwt>
<rscale>  0 0.14905683E+02</rscale>
<asrwt>0</asrwt>
<pdfrwt beam="2">  1        2 0.99728050E+00 0.14905683E+02</pdfrwt>
<pdfrwt beam="1">  1       -2 0.98195327E+00 0.14905683E+02</pdfrwt>
<totfact> 0.68348027E-13</totfact>
</mgrwt>
</event>
<event>
 4    1 -0.5011189E-019  0.1492615E+02  0.7818608E-02  0.1870330E+00
          2   -1    0    0  501    0  0.00000000000E+00  0.00000000000E+00  0.11839596848E+03  0.11839596850E+03  0.25500000000E-02 0.  1.
         -2   -1    0    0    0  501 -0.00000000000E+00 -0.00000000000E+00 -0.47043058483E+00  0.47043749600E+00  0.25500000000E-02 0. -1.
         31    1    1    2    0    0 -0.38730779457E+00  0.29577990551E+00  0.58701306870E+02  0.59173810485E+02  0.74470750000E+01 0. -1.
        -31    1    1    2    0    0  0.38730779457E+00 -0.29577990551E+00  0.59224231021E+02  0.59692595514E+02  0.74470750000E+01 0. -1.
<mgrwt>
<rscale>  0 0.14926151E+02</rscale>
<asrwt>0</asrwt>
<pdfrwt beam="1">  1        2 0.98287061E+00 0.14926151E+02</pdfrwt>
<pdfrwt beam="2">  1       -2 0.99908791E+00 0.14926151E+02</pdfrwt>
<totfact>-0.14780071E-13</totfact>
</mgrwt>
</event>
<event>
 4    1  0.5011189E-019  0.1490620E+02  0.7818608E-02  0.1870944E+00
          2   -1    0    0  501    0  0.00000000000E+00  0.00000000000E+00  0.11989569653E+03  0.11989569656E+03  0.25500000000E-02 0. -1.
         -2   -1    0    0    0  501 -0.00000000000E+00 -0.00000000000E+00 -0.46330519379E+00  0.46331221125E+00  0.25500000000E-02 0.  1.
         31    1    1    2    0    0 -0.11458408396E-01 -0.23167507016E+00  0.61248043255E+02  0.61699558615E+02  0.74470750000E+01 0.  1.
        -31    1    1    2    0    0  0.11458408396E-01  0.23167507016E+00  0.58184348082E+02  0.58659450155E+02  0.74470750000E+01 0.  1.
<mgrwt>
<rscale>  0 0.14906203E+02</rscale>
<asrwt>0</asrwt>
<pdfrwt beam="1">  1        2 0.99521250E+00 0.14906203E+02</pdfrwt>
<pdfrwt beam="2">  1       -2 0.98406239E+00 0.14906203E+02</pdfrwt>
<totfact> 0.60749212E-13</totfact>
</mgrwt>
</event>
<event>
 4    1  0.5011189E-019  0.1489624E+02  0.7818608E-02  0.1871251E+00
         -2   -1    0    0    0  501 -0.00000000000E+00  0.00000000000E+00  0.11821726248E+03  0.11821726251E+03  0.25500000000E-02 0.  1.
          2   -1    0    0  501    0  0.00000000000E+00 -0.00000000000E+00 -0.46925519824E+00  0.46926212672E+00  0.25500000000E-02 0. -1.
         31    1    1    2    0    0 -0.86768330184E-01  0.85497945124E-01  0.58661248383E+02  0.59132189428E+02  0.74470750000E+01 0. -1.
        -31    1    1    2    0    0  0.86768330184E-01 -0.85497945124E-01  0.59086758902E+02  0.59554335210E+02  0.74470750000E+01 0.  1.
<mgrwt>
<rscale>  0 0.14896238E+02</rscale>
<asrwt>0</asrwt>
<pdfrwt beam="2">  1        2 0.99659560E+00 0.14896238E+02</pdfrwt>
<pdfrwt beam="1">  1       -2 0.98138323E+00 0.14896238E+02</pdfrwt>
<totfact> 0.88686916E-13</totfact>
</mgrwt>
</event>
<event>
 4    1 -0.5011189E-019  0.1495284E+02  0.7818608E-02  0.1869511E+00
          2   -1    0    0  501    0  0.00000000000E+00  0.00000000000E+00  0.11892560216E+03  0.11892560219E+03  0.25500000000E-02 0. -1.
         -2   -1    0    0    0  501 -0.00000000000E+00 -0.00000000000E+00 -0.47001187201E+00  0.47001878934E+00  0.25500000000E-02 0.  1.
         31    1    1    2    0    0 -0.55859932565E+00 -0.12471977497E-01  0.62059249053E+02  0.62506971674E+02  0.74470750000E+01 0.  1.
        -31    1    1    2    0    0  0.55859932565E+00  0.12471977497E-01  0.56396341240E+02  0.56888649308E+02  0.74470750000E+01 0.  1.
<mgrwt>
<rscale>  0 0.14952840E+02</rscale>
<asrwt>0</asrwt>
<pdfrwt beam="1">  1        2 0.98724653E+00 0.14952840E+02</pdfrwt>
<pdfrwt beam="2">  1       -2 0.99821977E+00 0.14952840E+02</pdfrwt>
<totfact>-0.13334592E-13</totfact>
</mgrwt>
</event>
<event>
 4    1 -0.5011189E-019  0.1496711E+02  0.7818608E-02  0.1869074E+00
          2   -1    0    0  501    0  0.00000000000E+00  0.00000000000E+00  0.11911558823E+03  0.11911558826E+03  0.25500000000E-02 0. -1.
         -2   -1    0    0    0  501 -0.00000000000E+00 -0.00000000000E+00 -0.47015842608E+00  0.47016534125E+00  0.25500000000E-02 0.  1.
         31    1    1    2    0    0  0.62134428852E+00  0.14934144124E+00  0.56372774995E+02  0.56866132789E+02  0.74470750000E+01 0. -1.
        -31    1    1    2    0    0 -0.62134428852E+00 -0.14934144124E+00  0.62272654810E+02  0.62719620811E+02  0.74470750000E+01 0.  1.
<mgrwt>
<rscale>  0 0.14967112E+02</rscale>
<asrwt>0</asrwt>
<pdfrwt beam="1">  1        2 0.98881868E+00 0.14967112E+02</pdfrwt>
<pdfrwt beam="2">  1       -2 0.99853607E+00 0.14967112E+02</pdfrwt>
<totfact>-0.92451499E-14</totfact>
</mgrwt>
</event>
<event>
 4    1 -0.5011189E-019  0.1494151E+02  0.7818608E-02  0.1869858E+00
         -2   -1    0    0    0  501 -0.00000000000E+00  0.00000000000E+00  0.11996951500E+03  0.11996951503E+03  0.25500000000E-02 0.  1.
          2   -1    0    0  501    0  0.00000000000E+00 -0.00000000000E+00 -0.46521646027E+00  0.46522344890E+00  0.25500000000E-02 0. -1.
         31    1    1    2    0    0  0.46480957481E+00 -0.54858316603E-01  0.56798999897E+02  0.57287034945E+02  0.74470750000E+01 0. -1.
        -31    1    1    2    0    0 -0.46480957481E+00  0.54858316603E-01  0.62705298644E+02  0.63147703533E+02  0.74470750000E+01 0.  1.
<mgrwt>
<rscale>  0 0.14941515E+02</rscale>
<asrwt>0</asrwt>
<pdfrwt beam="2">  1        2 0.98810853E+00 0.14941515E+02</pdfrwt>
<pdfrwt beam="1">  1       -2 0.99583868E+00 0.14941515E+02</pdfrwt>
<totfact>-0.20995036E-13</totfact>
</mgrwt>
</event>
<event>
 4    1 -0.5011189E-019  0.1491603E+02  0.7818608E-02  0.1870642E+00
         -2   -1    0    0    0  501 -0.00000000000E+00  0.00000000000E+00  0.12018501763E+03  0.12018501766E+03  0.25500000000E-02 0.  1.
          2   -1    0    0  501    0  0.00000000000E+00 -0.00000000000E+00 -0.46279955458E+00  0.46280657970E+00  0.25500000000E-02 0. -1.
         31    1    1    2    0    0  0.26797180022E+00  0.13376326115E+00  0.62052031043E+02  0.62498025442E+02  0.74470750000E+01 0.  1.
        -31    1    1    2    0    0 -0.26797180022E+00 -0.13376326115E+00  0.57670187034E+02  0.58149798797E+02  0.74470750000E+01 0. -1.
<mgrwt>
<rscale>  0 0.14916031E+02</rscale>
<asrwt>0</asrwt>
<pdfrwt beam="2">  1        2 0.98300165E+00 0.14916031E+02</pdfrwt>
<pdfrwt beam="1">  1       -2 0.99760062E+00 0.14916031E+02</pdfrwt>
<totfact>-0.33144892E-13</totfact>
</mgrwt>
</event>
<event>
 4    1 -0.5011189E-019  0.1497696E+02  0.7818608E-02  0.1868773E+00
          2   -1    0    0  501    0  0.00000000000E+00  0.00000000000E+00  0.12002821341E+03  0.12002821344E+03  0.25500000000E-02 0. -1.
         -2   -1    0    0    0  501 -0.00000000000E+00 -0.00000000000E+00 -0.46719744475E+00  0.46720440375E+00  0.25500000000E-02 0.  1.
         31    1    1    2    0    0  0.46944355551E+00 -0.31973410660E+00  0.55405101467E+02  0.55906232227E+02  0.74470750000E+01 0.  1.
        -31    1    1    2    0    0 -0.46944355551E+00  0.31973410660E+00  0.64155914502E+02  0.64589185618E+02  0.74470750000E+01 0. -1.
<mgrwt>
<rscale>  0 0.14976955E+02</rscale>
<asrwt>0</asrwt>
<pdfrwt beam="1">  1        2 0.99634042E+00 0.14976955E+02</pdfrwt>
<pdfrwt beam="2">  1       -2 0.99230159E+00 0.14976955E+02</pdfrwt>
<totfact>-0.73392181E-14</totfact>
</mgrwt>
</event>
<event>
 4    1 -0.5011189E-019  0.1497652E+02  0.7818608E-02  0.1868786E+00
          2   -1    0    0  501    0  0.00000000000E+00  0.00000000000E+00  0.11927263903E+03  0.11927263906E+03  0.25500000000E-02 0. -1.
         -2   -1    0    0    0  501 -0.00000000000E+00 -0.00000000000E+00 -0.47012978055E+00  0.47013669614E+00  0.25500000000E-02 0.  1.
         31    1    1    2    0    0  0.63163323514E+00  0.42727329768E+00  0.57935980084E+02  0.58417619237E+02  0.74470750000E+01 0.  1.
        -31    1    1    2    0    0 -0.63163323514E+00 -0.42727329768E+00  0.60866529170E+02  0.61325156521E+02  0.74470750000E+01 0. -1.
<mgrwt>
<rscale>  0 0.14976520E+02</rscale>
<asrwt>0</asrwt>
<pdfrwt beam="1">  1        2 0.99011705E+00 0.14976520E+02</pdfrwt>
<pdfrwt beam="2">  1       -2 0.99848064E+00 0.14976520E+02</pdfrwt>
<totfact>-0.83434248E-14</totfact>
</mgrwt>
</event>
<event>
 4    1  0.5011189E-019  0.1493182E+02  0.7818608E-02  0.1870156E+00
         -2   -1    0    0    0  501 -0.00000000000E+00  0.00000000000E+00  0.11859618726E+03  0.11859618729E+03  0.25500000000E-02 0. -1.
          2   -1    0    0  501    0  0.00000000000E+00 -0.00000000000E+00 -0.46999314306E+00  0.47000006066E+00  0.25500000000E-02 0.  1.
         31    1    1    2    0    0  0.37270169996E+00  0.37124784984E+00  0.58549366219E+02  0.59023418591E+02  0.74470750000E+01 0.  1.
        -31    1    1    2    0    0 -0.37270169996E+00 -0.37124784984E+00  0.59576827900E+02  0.60042768759E+02  0.74470750000E+01 0. -1.
<mgrwt>
<rscale>  0 0.14931819E+02</rscale>
<asrwt>0</asrwt>
<pdfrwt beam="2">  1        2 0.99816924E+00 0.14931819E+02</pdfrwt>
<pdfrwt beam="1">  1       -2 0.98452254E+00 0.14931819E+02</pdfrwt>
<totfact> 0.28295099E-13</totfact>
</mgrwt>
</event>
<event>
 4    1 -0.5011189E-019  0.1501816E+02  0.7818608E-02  0.1867515E+00
          2   -1    0    0  501    0  0.00000000000E+00  0.00000000000E+00  0.12038954198E+03  0.12038954201E+03  0.25500000000E-02 0. -1.
         -2   -1    0    0    0  501 -0.00000000000E+00 -0.00000000000E+00 -0.46836195864E+00  0.46836890033E+00  0.25500000000E-02 0.  1.
         31    1    1    2    0    0  0.32210158239E+00 -0.87345656675E+00  0.61943285242E+02  0.62396283450E+02  0.74470750000E+01 0. -1.
        -31    1    1    2    0    0 -0.32210158239E+00  0.87345656675E+00  0.57977894779E+02  0.58461627456E+02  0.74470750000E+01 0.  1.
<mgrwt>
<rscale>  0 0.15018163E+02</rscale>
<asrwt>0</asrwt>
<pdfrwt beam="1">  1        2 0.99933777E+00 0.15018163E+02</pdfrwt>
<pdfrwt beam="2">  1       -2 0.99477690E+00 0.15018163E+02</pdfrwt>
<totfact>-0.25211648E-14</totfact>
</mgrwt>
</event>
<event>
 4    1 -0.5011189E-019  0.1496838E+02  0.7818608E-02  0.1869035E+00
          2   -1    0    0  501    0  0.00000000000E+00  0.00000000000E+00  0.11941582418E+03  0.11941582421E+03  0.25500000000E-02 0.  1.
         -2   -1    0    0    0  501 -0.00000000000E+00 -0.00000000000E+00 -0.46905577807E+00  0.46906270950E+00  0.25500000000E-02 0. -1.
         31    1    1    2    0    0  0.22091468156E+00  0.65926823339E+00  0.57343243351E+02  0.57828971303E+02  0.74470750000E+01 0. -1.
        -31    1    1    2    0    0 -0.22091468156E+00 -0.65926823339E+00  0.61603525055E+02  0.62055915618E+02  0.74470750000E+01 0.  1.
<mgrwt>
<rscale>  0 0.14968380E+02</rscale>
<asrwt>0</asrwt>
<pdfrwt beam="1">  1        2 0.99129212E+00 0.14968380E+02</pdfrwt>
<pdfrwt beam="2">  1       -2 0.99621327E+00 0.14968380E+02</pdfrwt>
<totfact>-0.14616957E-13</totfact>
</mgrwt>
</event>
<event>
 4    1  0.5011189E-019  0.1492509E+02  0.7818608E-02  0.1870363E+00
          2   -1    0    0  501    0  0.00000000000E+00  0.00000000000E+00  0.12038281261E+03  0.12038281264E+03  0.25500000000E-02 0.  1.
         -2   -1    0    0    0  501 -0.00000000000E+00 -0.00000000000E+00 -0.46260039546E+00  0.46260742361E+00  0.25500000000E-02 0. -1.
         31    1    1    2    0    0 -0.66819678747E-02  0.47377261451E+00  0.59326078781E+02  0.59793536897E+02  0.74470750000E+01 0.  1.
        -31    1    1    2    0    0  0.66819678747E-02 -0.47377261451E+00  0.60594133438E+02  0.61051883168E+02  0.74470750000E+01 0.  1.
<mgrwt>
<rscale>  0 0.14925088E+02</rscale>
<asrwt>0</asrwt>
<pdfrwt beam="1">  1        2 0.99923448E+00 0.14925088E+02</pdfrwt>
<pdfrwt beam="2">  1       -2 0.98258645E+00 0.14925088E+02</pdfrwt>
<totfact> 0.20981429E-13</totfact>
</mgrwt>
</event>
<event>
 4    1 -0.5011189E-019  0.1491521E+02  0.7818608E-02  0.1870667E+00
         -2   -1    0    0    0  501 -0.00000000000E+00  0.00000000000E+00  0.11987905257E+03  0.11987905259E+03  0.25500000000E-02 0.  1.
          2   -1    0    0  501    0  0.00000000000E+00 -0.00000000000E+00 -0.46392944370E+00  0.46393645171E+00  0.25500000000E-02 0. -1.
         31    1    1    2    0    0  0.12869943061E+00  0.34707122237E+00  0.60845687277E+02  0.61300845086E+02  0.74470750000E+01 0. -1.
        -31    1    1    2    0    0 -0.12869943061E+00 -0.34707122237E+00  0.58569435845E+02  0.59042143958E+02  0.74470750000E+01 0.  1.
<mgrwt>
<rscale>  0 0.14915206E+02</rscale>
<asrwt>0</asrwt>
<pdfrwt beam="2">  1        2 0.98538264E+00 0.14915206E+02</pdfrwt>
<pdfrwt beam="1">  1       -2 0.99508003E+00 0.14915206E+02</pdfrwt>
<totfact>-0.32578768E-13</totfact>
</mgrwt>
</event>
<event>
 4    1 -0.5011189E-019  0.1494035E+02  0.7818608E-02  0.1869894E+00
          2   -1    0    0  501    0  0.00000000000E+00  0.00000000000E+00  0.11872661926E+03  0.11872661929E+03  0.25500000000E-02 0.  1.
         -2   -1    0    0    0  501 -0.00000000000E+00 -0.00000000000E+00 -0.47001366658E+00  0.47002058388E+00  0.25500000000E-02 0. -1.
         31    1    1    2    0    0  0.46320383109E+00 -0.27749141115E+00  0.57290513345E+02  0.57775024056E+02  0.74470750000E+01 0. -1.
        -31    1    1    2    0    0 -0.46320383109E+00  0.27749141115E+00  0.60966092251E+02  0.61421615818E+02  0.74470750000E+01 0. -1.
<mgrwt>
<rscale>  0 0.14940354E+02</rscale>
<asrwt>0</asrwt>
<pdfrwt beam="1">  1        2 0.98560122E+00 0.14940354E+02</pdfrwt>
<pdfrwt beam="2">  1       -2 0.99821698E+00 0.14940354E+02</pdfrwt>
<totfact>-0.17057730E-13</totfact>
</mgrwt>
</event>
<event>
 4    1 -0.5011189E-019  0.1490850E+02  0.7818608E-02  0.1870874E+00
         -2   -1    0    0    0  501 -0.00000000000E+00  0.00000000000E+00  0.11958230544E+03  0.11958230547E+03  0.25500000000E-02 0.  1.
          2   -1    0    0  501    0  0.00000000000E+00 -0.00000000000E+00 -0.46466233187E+00  0.46466932883E+00  0.25500000000E-02 0. -1.
         31    1    1    2    0    0  0.19057918977E+00  0.25939302431E+00  0.60020215318E+02  0.60481309328E+02  0.74470750000E+01 0.  1.
        -31    1    1    2    0    0 -0.19057918977E+00 -0.25939302431E+00  0.59097427791E+02  0.59565665468E+02  0.74470750000E+01 0. -1.
<mgrwt>
<rscale>  0 0.14908496E+02</rscale>
<asrwt>0</asrwt>
<pdfrwt beam="2">  1        2 0.98692380E+00 0.14908496E+02</pdfrwt>
<pdfrwt beam="1">  1       -2 0.99263238E+00 0.14908496E+02</pdfrwt>
<totfact>-0.20754697E-13</totfact>
</mgrwt>
</event>
<event>
 4    1 -0.5011189E-019  0.1498502E+02  0.7818608E-02  0.1868526E+00
         -2   -1    0    0    0  501 -0.00000000000E+00  0.00000000000E+00  0.11955745222E+03  0.11955745225E+03  0.25500000000E-02 0.  1.
          2   -1    0    0  501    0  0.00000000000E+00 -0.00000000000E+00 -0.46954260583E+00  0.46954953007E+00  0.25500000000E-02 0. -1.
         31    1    1    2    0    0 -0.60003513285E+00  0.48370040998E+00  0.57211459231E+02  0.57699254775E+02  0.74470750000E+01 0. -1.
        -31    1    1    2    0    0  0.60003513285E+00 -0.48370040998E+00  0.61876450388E+02  0.62327747006E+02  0.74470750000E+01 0.  1.
<mgrwt>
<rscale>  0 0.14985024E+02</rscale>
<asrwt>0</asrwt>
<pdfrwt beam="2">  1        2 0.99724779E+00 0.14985024E+02</pdfrwt>
<pdfrwt beam="1">  1       -2 0.99246723E+00 0.14985024E+02</pdfrwt>
<totfact>-0.63863143E-14</totfact>
</mgrwt>
</event>
<event>
 4    1 -0.5011189E-019  0.1493473E+02  0.7818608E-02  0.1870067E+00
          2   -1    0    0  501    0  0.00000000000E+00  0.00000000000E+00  0.11940378548E+03  0.11940378550E+03  0.25500000000E-02 0.  1.
         -2   -1    0    0    0  501 -0.00000000000E+00 -0.00000000000E+00 -0.46699644476E+00  0.46700340676E+00  0.25500000000E-02 0. -1.
         31    1    1    2    0    0 -0.73857204882E-01 -0.14958203743E+00  0.55260843527E+02  0.55760627535E+02  0.74470750000E+01 0. -1.
        -31    1    1    2    0    0  0.73857204882E-01  0.14958203743E+00  0.63675945503E+02  0.64110161374E+02  0.74470750000E+01 0.  1.
<mgrwt>
<rscale>  0 0.14934733E+02</rscale>
<asrwt>0</asrwt>
<pdfrwt beam="1">  1        2 0.99117555E+00 0.14934733E+02</pdfrwt>
<pdfrwt beam="2">  1       -2 0.99185623E+00 0.14934733E+02</pdfrwt>
<totfact>-0.10032905E-13</totfact>
</mgrwt>
</event>
<event>
 4    1 -0.5011189E-019  0.1494132E+02  0.7818608E-02  0.1869864E+00
         -2   -1    0    0    0  501 -0.00000000000E+00  0.00000000000E+00  0.11952169185E+03  0.11952169187E+03  0.25500000000E-02 0. -1.
          2   -1    0    0  501    0  0.00000000000E+00 -0.00000000000E+00 -0.46694769288E+00  0.46695465560E+00  0.25500000000E-02 0.  1.
         31    1    1    2    0    0 -0.22834302960E+00  0.24583973188E+00  0.63455782071E+02  0.63892157437E+02  0.74470750000E+01 0. -1.
        -31    1    1    2    0    0  0.22834302960E+00 -0.24583973188E+00  0.55598962082E+02  0.56096489091E+02  0.74470750000E+01 0.  1.
<mgrwt>
<rscale>  0 0.14941325E+02</rscale>
<asrwt>0</asrwt>
<pdfrwt beam="2">  1        2 0.99175690E+00 0.14941325E+02</pdfrwt>
<pdfrwt beam="1">  1       -2 0.99215008E+00 0.14941325E+02</pdfrwt>
<totfact>-0.10757143E-13</totfact>
</mgrwt>
</event>
<event>
 4    1 -0.5011189E-019  0.1492836E+02  0.7818608E-02  0.1870262E+00
         -2   -1    0    0    0  501 -0.00000000000E+00  0.00000000000E+00  0.11979079454E+03  0.11979079457E+03  0.25500000000E-02 0.  1.
          2   -1    0    0  501    0  0.00000000000E+00 -0.00000000000E+00 -0.46509077014E+00  0.46509776066E+00  0.25500000000E-02 0. -1.
         31    1    1    2    0    0  0.34507946266E+00  0.26813002178E+00  0.57623111926E+02  0.58103983750E+02  0.74470750000E+01 0. -1.
        -31    1    1    2    0    0 -0.34507946266E+00 -0.26813002178E+00  0.61702591848E+02  0.62151908582E+02  0.74470750000E+01 0.  1.
<mgrwt>
<rscale>  0 0.14928364E+02</rscale>
<asrwt>0</asrwt>
<pdfrwt beam="2">  1        2 0.98783691E+00 0.14928364E+02</pdfrwt>
<pdfrwt beam="1">  1       -2 0.99435986E+00 0.14928364E+02</pdfrwt>
<totfact>-0.22710340E-13</totfact>
</mgrwt>
</event>
<event>
 4    1  0.5011189E-019  0.1495203E+02  0.7818608E-02  0.1869536E+00
         -2   -1    0    0    0  501 -0.00000000000E+00  0.00000000000E+00  0.11911882975E+03  0.11911882977E+03  0.25500000000E-02 0.  1.
          2   -1    0    0  501    0  0.00000000000E+00 -0.00000000000E+00 -0.46919837723E+00  0.46920530655E+00  0.25500000000E-02 0. -1.
         31    1    1    2    0    0  0.22808044989E+00 -0.61479878360E+00  0.58980498278E+02  0.59452401982E+02  0.74470750000E+01 0. -1.
        -31    1    1    2    0    0 -0.22808044989E+00  0.61479878360E+00  0.59669133091E+02  0.60135633098E+02  0.74470750000E+01 0.  1.
<mgrwt>
<rscale>  0 0.14952027E+02</rscale>
<asrwt>0</asrwt>
<pdfrwt beam="2">  1        2 0.99650522E+00 0.14952027E+02</pdfrwt>
<pdfrwt beam="1">  1       -2 0.98883755E+00 0.14952027E+02</pdfrwt>
<totfact> 0.68694664E-14</totfact>
</mgrwt>
</event>
<event>
 4    1  0.5011189E-019  0.1490808E+02  0.7818608E-02  0.1870886E+00
          2   -1    0    0  501    0  0.00000000000E+00  0.00000000000E+00  0.11937581646E+03  0.11937581649E+03  0.25500000000E-02 0.  1.
         -2   -1    0    0    0  501 -0.00000000000E+00 -0.00000000000E+00 -0.46544009585E+00  0.46544708112E+00  0.25500000000E-02 0. -1.
         31    1    1    2    0    0 -0.36329339720E-01 -0.30543402109E+00  0.58685158579E+02  0.59156583516E+02  0.74470750000E+01 0. -1.
        -31    1    1    2    0    0  0.36329339720E-01  0.30543402109E+00  0.60225217789E+02  0.60684680057E+02  0.74470750000E+01 0. -1.
<mgrwt>
<rscale>  0 0.14908080E+02</rscale>
<asrwt>0</asrwt>
<pdfrwt beam="1">  1        2 0.99093142E+00 0.14908080E+02</pdfrwt>
<pdfrwt beam="2">  1       -2 0.98856268E+00 0.14908080E+02</pdfrwt>
<totfact> 0.14479688E-13</totfact>
</mgrwt>
</event>
<event>
 4    1 -0.5011189E-019  0.1491614E+02  0.7818608E-02  0.1870638E+00
         -2   -1    0    0    0  501 -0.00000000000E+00  0.00000000000E+00  0.12001802854E+03  0.12001802856E+03  0.25500000000E-02 0.  1.
          2   -1    0    0  501    0  0.00000000000E+00 -0.00000000000E+00 -0.46345030737E+00  0.46345732264E+00  0.25500000000E-02 0. -1.
         31    1    1    2    0    0  0.15946631052E+00 -0.97557450508E-01  0.62677726211E+02  0.63118865928E+02  0.74470750000E+01 0.  1.
        -31    1    1    2    0    0 -0.15946631052E+00  0.97557450508E-01  0.56876852018E+02  0.57362619958E+02  0.74470750000E+01 0. -1.
<mgrwt>
<rscale>  0 0.14916141E+02</rscale>
<asrwt>0</asrwt>
<pdfrwt beam="2">  1        2 0.98437328E+00 0.14916141E+02</pdfrwt>
<pdfrwt beam="1">  1       -2 0.99622522E+00 0.14916141E+02</pdfrwt>
<totfact>-0.35152820E-13</totfact>
</mgrwt>
</event>
<event>
 4    1 -0.5011189E-019  0.1496027E+02  0.7818608E-02  0.1869283E+00
          2   -1    0    0  501    0  0.00000000000E+00  0.00000000000E+00  0.11922603865E+03  0.11922603867E+03  0.25500000000E-02 0. -1.
         -2   -1    0    0    0  501 -0.00000000000E+00 -0.00000000000E+00 -0.46929379586E+00  0.46930072377E+00  0.25500000000E-02 0.  1.
         31    1    1    2    0    0 -0.13052272515E+00  0.68871771052E+00  0.59006338422E+02  0.59478553011E+02  0.74470750000E+01 0. -1.
        -31    1    1    2    0    0  0.13052272515E+00 -0.68871771052E+00  0.59750406429E+02  0.60216786387E+02  0.74470750000E+01 0. -1.
<mgrwt>
<rscale>  0 0.14960275E+02</rscale>
<asrwt>0</asrwt>
<pdfrwt beam="1">  1        2 0.98972481E+00 0.14960275E+02</pdfrwt>
<pdfrwt beam="2">  1       -2 0.99671060E+00 0.14960275E+02</pdfrwt>
<totfact>-0.15559494E-13</totfact>
</mgrwt>
</event>
<event>
 4    1  0.5011189E-019  0.1490813E+02  0.7818608E-02  0.1870885E+00
          2   -1    0    0  501    0  0.00000000000E+00  0.00000000000E+00  0.12014504140E+03  0.12014504143E+03  0.25500000000E-02 0.  1.
         -2   -1    0    0    0  501 -0.00000000000E+00 -0.00000000000E+00 -0.46246310683E+00  0.46247013707E+00  0.25500000000E-02 0. -1.
         31    1    1    2    0    0  0.30691157859E-01  0.32121560127E+00  0.59799071510E+02  0.60261861911E+02  0.74470750000E+01 0. -1.
        -31    1    1    2    0    0 -0.30691157859E-01 -0.32121560127E+00  0.59883506782E+02  0.60345649653E+02  0.74470750000E+01 0.  1.
<mgrwt>
<rscale>  0 0.14908129E+02</rscale>
<asrwt>0</asrwt>
<pdfrwt beam="1">  1        2 0.99726729E+00 0.14908129E+02</pdfrwt>
<pdfrwt beam="2">  1       -2 0.98228852E+00 0.14908129E+02</pdfrwt>
<totfact> 0.64106228E-13</totfact>
</mgrwt>
</event>
<event>
 4    1 -0.5011189E-019  0.1491161E+02  0.7818608E-02  0.1870778E+00
          2   -1    0    0  501    0  0.00000000000E+00  0.00000000000E+00  0.11821982400E+03  0.11821982403E+03  0.25500000000E-02 0.  1.
         -2   -1    0    0    0  501 -0.00000000000E+00 -0.00000000000E+00 -0.47021385991E+00  0.47022077426E+00  0.25500000000E-02 0. -1.
         31    1    1    2    0    0 -0.25443758484E+00 -0.16088132299E+00  0.57293584337E+02  0.57776330391E+02  0.74470750000E+01 0.  1.
        -31    1    1    2    0    0  0.25443758484E+00  0.16088132299E+00  0.60456025807E+02  0.60913714414E+02  0.74470750000E+01 0. -1.
<mgrwt>
<rscale>  0 0.14911608E+02</rscale>
<asrwt>0</asrwt>
<pdfrwt beam="1">  1        2 0.98141233E+00 0.14911608E+02</pdfrwt>
<pdfrwt beam="2">  1       -2 0.99862358E+00 0.14911608E+02</pdfrwt>
<totfact>-0.27431252E-13</totfact>
</mgrwt>
</event>
<event>
 4    1 -0.5011189E-019  0.1495241E+02  0.7818608E-02  0.1869524E+00
          2   -1    0    0  501    0  0.00000000000E+00  0.00000000000E+00  0.11918103845E+03  0.11918103848E+03  0.25500000000E-02 0.  1.
         -2   -1    0    0    0  501 -0.00000000000E+00 -0.00000000000E+00 -0.46897731909E+00  0.46898425168E+00  0.25500000000E-02 0. -1.
         31    1    1    2    0    0 -0.46835960954E+00 -0.17880112137E+00  0.62782590216E+02  0.63224709496E+02  0.74470750000E+01 0. -1.
        -31    1    1    2    0    0  0.46835960954E+00  0.17880112137E+00  0.55929470916E+02  0.56425313234E+02  0.74470750000E+01 0. -1.
<mgrwt>
<rscale>  0 0.14952407E+02</rscale>
<asrwt>0</asrwt>
<pdfrwt beam="1">  1        2 0.98935010E+00 0.14952407E+02</pdfrwt>
<pdfrwt beam="2">  1       -2 0.99603962E+00 0.14952407E+02</pdfrwt>
<totfact>-0.17812681E-13</totfact>
</mgrwt>
</event>
<event>
 4    1  0.5011189E-019  0.1491978E+02  0.7818608E-02  0.1870526E+00
         -2   -1    0    0    0  501 -0.00000000000E+00  0.00000000000E+00  0.11863877736E+03  0.11863877739E+03  0.25500000000E-02 0.  1.
          2   -1    0    0  501    0  0.00000000000E+00 -0.00000000000E+00 -0.46906712321E+00  0.46907405447E+00  0.25500000000E-02 0. -1.
         31    1    1    2    0    0  0.15771948519E-01  0.20496772971E+00  0.62164120097E+02  0.62608937173E+02  0.74470750000E+01 0. -1.
        -31    1    1    2    0    0 -0.15771948519E-01 -0.20496772971E+00  0.56005590139E+02  0.56498914268E+02  0.74470750000E+01 0.  1.
<mgrwt>
<rscale>  0 0.14919781E+02</rscale>
<asrwt>0</asrwt>
<pdfrwt beam="2">  1        2 0.99621175E+00 0.14919781E+02</pdfrwt>
<pdfrwt beam="1">  1       -2 0.98486705E+00 0.14919781E+02</pdfrwt>
<totfact> 0.43112024E-13</totfact>
</mgrwt>
</event>
<event>
 4    1 -0.5011189E-019  0.1497595E+02  0.7818608E-02  0.1868803E+00
         -2   -1    0    0    0  501 -0.00000000000E+00  0.00000000000E+00  0.12029755680E+03  0.12029755682E+03  0.25500000000E-02 0. -1.
          2   -1    0    0  501    0  0.00000000000E+00 -0.00000000000E+00 -0.46608854161E+00  0.46609551717E+00  0.25500000000E-02 0.  1.
         31    1    1    2    0    0 -0.70466951922E+00  0.11195913217E+00  0.62487525730E+02  0.62933765912E+02  0.74470750000E+01 0. -1.
        -31    1    1    2    0    0  0.70466951922E+00 -0.11195913217E+00  0.57343942524E+02  0.57829886428E+02  0.74470750000E+01 0. -1.
<mgrwt>
<rscale>  0 0.14975945E+02</rscale>
<asrwt>0</asrwt>
<pdfrwt beam="2">  1        2 0.98996406E+00 0.14975945E+02</pdfrwt>
<pdfrwt beam="1">  1       -2 0.99855837E+00 0.14975945E+02</pdfrwt>
<totfact>-0.80882114E-14</totfact>
</mgrwt>
</event>
<event>
 4    1 -0.5011189E-019  0.1495525E+02  0.7818608E-02  0.1869437E+00
          2   -1    0    0  501    0  0.00000000000E+00  0.00000000000E+00  0.11938691457E+03  0.11938691460E+03  0.25500000000E-02 0.  1.
         -2   -1    0    0    0  501 -0.00000000000E+00 -0.00000000000E+00 -0.46834692106E+00  0.46835386298E+00  0.25500000000E-02 0. -1.
         31    1    1    2    0    0 -0.64571553143E-01 -0.78253031453E-01  0.64809618341E+02  0.65236154459E+02  0.74470750000E+01 0.  1.
        -31    1    1    2    0    0  0.64571553143E-01  0.78253031453E-01  0.54108949306E+02  0.54619113999E+02  0.74470750000E+01 0. -1.
<mgrwt>
<rscale>  0 0.14955255E+02</rscale>
<asrwt>0</asrwt>
<pdfrwt beam="1">  1        2 0.99104722E+00 0.14955255E+02</pdfrwt>
<pdfrwt beam="2">  1       -2 0.99471272E+00 0.14955255E+02</pdfrwt>
<totfact>-0.16325674E-13</totfact>
</mgrwt>
</event>
<event>
 4    1  0.5011189E-019  0.1491682E+02  0.7818608E-02  0.1870617E+00
          2   -1    0    0  501    0  0.00000000000E+00  0.00000000000E+00  0.11937825166E+03  0.11937825169E+03  0.25500000000E-02 0.  1.
         -2   -1    0    0    0  501 -0.00000000000E+00 -0.00000000000E+00 -0.46597655504E+00  0.46598353227E+00  0.25500000000E-02 0. -1.
         31    1    1    2    0    0 -0.20470807887E+00 -0.18429640138E+00  0.61907408762E+02  0.62354326684E+02  0.74470750000E+01 0.  1.
        -31    1    1    2    0    0  0.20470807887E+00  0.18429640138E+00  0.57004866344E+02  0.57489908536E+02  0.74470750000E+01 0. -1.
<mgrwt>
<rscale>  0 0.14916821E+02</rscale>
<asrwt>0</asrwt>
<pdfrwt beam="1">  1        2 0.99095599E+00 0.14916821E+02</pdfrwt>
<pdfrwt beam="2">  1       -2 0.98969771E+00 0.14916821E+02</pdfrwt>
<totfact> 0.36051914E-14</totfact>
</mgrwt>
</event>
<event>
 4    1 -0.5011189E-019  0.1499668E+02  0.7818608E-02  0.1868170E+00
          2   -1    0    0  501    0  0.00000000000E+00  0.00000000000E+00  0.12013469552E+03  0.12013469555E+03  0.25500000000E-02 0.  1.
         -2   -1    0    0    0  501 -0.00000000000E+00 -0.00000000000E+00 -0.46801366714E+00  0.46802061400E+00  0.25500000000E-02 0. -1.
         31    1    1    2    0    0  0.28450794142E-01 -0.86616658355E+00  0.60822204125E+02  0.61282546412E+02  0.74470750000E+01 0.  1.
        -31    1    1    2    0    0 -0.28450794142E-01  0.86616658355E+00  0.58844477729E+02  0.59320169751E+02  0.74470750000E+01 0.  1.
<mgrwt>
<rscale>  0 0.14996680E+02</rscale>
<asrwt>0</asrwt>
<pdfrwt beam="1">  1        2 0.99722764E+00 0.14996680E+02</pdfrwt>
<pdfrwt beam="2">  1       -2 0.99403186E+00 0.14996680E+02</pdfrwt>
<totfact>-0.81782669E-14</totfact>
</mgrwt>
</event>
<event>
 4    1 -0.5011189E-019  0.1491597E+02  0.7818608E-02  0.1870644E+00
         -2   -1    0    0    0  501 -0.00000000000E+00  0.00000000000E+00  0.12009932153E+03  0.12009932155E+03  0.25500000000E-02 0.  1.
          2   -1    0    0  501    0  0.00000000000E+00 -0.00000000000E+00 -0.46312573517E+00  0.46313275534E+00  0.25500000000E-02 0. -1.
         31    1    1    2    0    0 -0.12389164701E+00 -0.35990084985E+00  0.58742524062E+02  0.59213916751E+02  0.74470750000E+01 0.  1.
        -31    1    1    2    0    0  0.12389164701E+00  0.35990084985E+00  0.60893671730E+02  0.61348537559E+02  0.74470750000E+01 0. -1.
<mgrwt>
<rscale>  0 0.14915966E+02</rscale>
<asrwt>0</asrwt>
<pdfrwt beam="2">  1        2 0.98368911E+00 0.14915966E+02</pdfrwt>
<pdfrwt beam="1">  1       -2 0.99689473E+00 0.14915966E+02</pdfrwt>
<totfact>-0.35302174E-13</totfact>
</mgrwt>
</event>
<event>
 4    1 -0.5011189E-019  0.1491841E+02  0.7818608E-02  0.1870569E+00
         -2   -1    0    0    0  501 -0.00000000000E+00  0.00000000000E+00  0.11972999612E+03  0.11972999615E+03  0.25500000000E-02 0. -1.
          2   -1    0    0  501    0  0.00000000000E+00 -0.00000000000E+00 -0.46470654911E+00  0.46471354541E+00  0.25500000000E-02 0.  1.
         31    1    1    2    0    0  0.92428816070E-01  0.41495868535E+00  0.59562609654E+02  0.60027861270E+02  0.74470750000E+01 0. -1.
        -31    1    1    2    0    0 -0.92428816070E-01 -0.41495868535E+00  0.59702679921E+02  0.60166848427E+02  0.74470750000E+01 0. -1.
<mgrwt>
<rscale>  0 0.14918409E+02</rscale>
<asrwt>0</asrwt>
<pdfrwt beam="2">  1        2 0.98702206E+00 0.14918409E+02</pdfrwt>
<pdfrwt beam="1">  1       -2 0.99385396E+00 0.14918409E+02</pdfrwt>
<totfact>-0.24664330E-13</totfact>
</mgrwt>
</event>
<event>
 4    1  0.5011189E-019  0.1492379E+02  0.7818608E-02  0.1870403E+00
          2   -1    0    0  501    0  0.00000000000E+00  0.00000000000E+00  0.12010075966E+03  0.12010075968E+03  0.25500000000E-02 0.  1.
         -2   -1    0    0    0  501 -0.00000000000E+00 -0.00000000000E+00 -0.46360625481E+00  0.46361326771E+00  0.25500000000E-02 0. -1.
         31    1    1    2    0    0  0.11867306110E+00  0.99000156277E-01  0.56232180896E+02  0.56723372420E+02  0.74470750000E+01 0. -1.
        -31    1    1    2    0    0 -0.11867306110E+00 -0.99000156277E-01  0.63404972505E+02  0.63841000530E+02  0.74470750000E+01 0.  1.
<mgrwt>
<rscale>  0 0.14923791E+02</rscale>
<asrwt>0</asrwt>
<pdfrwt beam="1">  1        2 0.99691059E+00 0.14923791E+02</pdfrwt>
<pdfrwt beam="2">  1       -2 0.98470585E+00 0.14923791E+02</pdfrwt>
<totfact> 0.39597445E-13</totfact>
</mgrwt>
</event>
<event>
 4    1 -0.5011189E-019  0.1489915E+02  0.7818608E-02  0.1871162E+00
          2   -1    0    0  501    0  0.00000000000E+00  0.00000000000E+00  0.11842583834E+03  0.11842583837E+03  0.25500000000E-02 0.  1.
         -2   -1    0    0    0  501 -0.00000000000E+00 -0.00000000000E+00 -0.46861174606E+00  0.46861868405E+00  0.25500000000E-02 0. -1.
         31    1    1    2    0    0  0.37427570081E-01  0.18895517478E+00  0.58890463197E+02  0.59359773302E+02  0.74470750000E+01 0. -1.
        -31    1    1    2    0    0 -0.37427570081E-01 -0.18895517478E+00  0.59066763399E+02  0.59534683751E+02  0.74470750000E+01 0.  1.
<mgrwt>
<rscale>  0 0.14899148E+02</rscale>
<asrwt>0</asrwt>
<pdfrwt beam="1">  1        2 0.98310256E+00 0.14899148E+02</pdfrwt>
<pdfrwt beam="2">  1       -2 0.99524139E+00 0.14899148E+02</pdfrwt>
<totfact>-0.47233036E-13</totfact>
</mgrwt>
</event>
<event>
 4    1 -0.5011189E-019  0.1492235E+02  0.7818608E-02  0.1870447E+00
         -2   -1    0    0    0  501 -0.00000000000E+00  0.00000000000E+00  0.11967604933E+03  0.11967604936E+03  0.25500000000E-02 0. -1.
          2   -1    0    0  501    0  0.00000000000E+00 -0.00000000000E+00 -0.46516168962E+00  0.46516867907E+00  0.25500000000E-02 0.  1.
         31    1    1    2    0    0 -0.17032604383E+00  0.42510473481E+00  0.59428364992E+02  0.59894901425E+02  0.74470750000E+01 0.  1.
        -31    1    1    2    0    0  0.17032604383E+00 -0.42510473481E+00  0.59782522647E+02  0.60246316610E+02  0.74470750000E+01 0. -1.
<mgrwt>
<rscale>  0 0.14922350E+02</rscale>
<asrwt>0</asrwt>
<pdfrwt beam="2">  1        2 0.98798329E+00 0.14922350E+02</pdfrwt>
<pdfrwt beam="1">  1       -2 0.99341165E+00 0.14922350E+02</pdfrwt>
<totfact>-0.20686432E-13</totfact>
</mgrwt>
</event>
<event>
 4    1 -0.5011189E-019  0.1498702E+02  0.7818608E-02  0.1868465E+00
         -2   -1    0    0    0  501 -0.00000000000E+00  0.00000000000E+00  0.12000525026E+03  0.12000525029E+03  0.25500000000E-02 0.  1.
          2   -1    0    0  501    0  0.00000000000E+00 -0.00000000000E+00 -0.46791517208E+00  0.46792212041E+00  0.25500000000E-02 0. -1.
         31    1    1    2    0    0  0.73236972749E+00 -0.28295733350E+00  0.57533137951E+02  0.58018422237E+02  0.74470750000E+01 0. -1.
        -31    1    1    2    0    0 -0.73236972749E+00  0.28295733350E+00  0.62004197136E+02  0.62454750170E+02  0.74470750000E+01 0. -1.
<mgrwt>
<rscale>  0 0.14987021E+02</rscale>
<asrwt>0</asrwt>
<pdfrwt beam="2">  1        2 0.99381932E+00 0.14987021E+02</pdfrwt>
<pdfrwt beam="1">  1       -2 0.99615648E+00 0.14987021E+02</pdfrwt>
<totfact>-0.12215368E-13</totfact>
</mgrwt>
</event>
<event>
 4    1  0.5011189E-019  0.1492750E+02  0.7818608E-02  0.1870289E+00
          2   -1    0    0  501    0  0.00000000000E+00  0.00000000000E+00  0.12027480235E+03  0.12027480237E+03  0.25500000000E-02 0.  1.
         -2   -1    0    0    0  501 -0.00000000000E+00 -0.00000000000E+00 -0.46316579147E+00  0.46317281104E+00  0.25500000000E-02 0. -1.
         31    1    1    2    0    0  0.11303804682E+00 -0.17530447760E+00  0.56242224102E+02  0.56733501631E+02  0.74470750000E+01 0. -1.
        -31    1    1    2    0    0 -0.11303804682E+00  0.17530447760E+00  0.63569412454E+02  0.64004473555E+02  0.74470750000E+01 0.  1.
<mgrwt>
<rscale>  0 0.14927505E+02</rscale>
<asrwt>0</asrwt>
<pdfrwt beam="1">  1        2 0.99834605E+00 0.14927505E+02</pdfrwt>
<pdfrwt beam="2">  1       -2 0.98377937E+00 0.14927505E+02</pdfrwt>
<totfact> 0.31426967E-13</totfact>
</mgrwt>
</event>
<event>
 4    1  0.5011189E-019  0.1493927E+02  0.7818608E-02  0.1869927E+00
          2   -1    0    0  501    0  0.00000000000E+00  0.00000000000E+00  0.12023684347E+03  0.12023684349E+03  0.25500000000E-02 0.  1.
         -2   -1    0    0    0  501 -0.00000000000E+00 -0.00000000000E+00 -0.46404242901E+00  0.46404943532E+00  0.25500000000E-02 0. -1.
         31    1    1    2    0    0 -0.52708831971E+00  0.91843172231E-01  0.58075487607E+02  0.58553458003E+02  0.74470750000E+01 0. -1.
        -31    1    1    2    0    0  0.52708831971E+00 -0.91843172231E-01  0.61697313431E+02  0.62147434926E+02  0.74470750000E+01 0.  1.
<mgrwt>
<rscale>  0 0.14939267E+02</rscale>
<asrwt>0</asrwt>
<pdfrwt beam="1">  1        2 0.99803943E+00 0.14939267E+02</pdfrwt>
<pdfrwt beam="2">  1       -2 0.98563300E+00 0.14939267E+02</pdfrwt>
<totfact> 0.21719209E-13</totfact>
</mgrwt>
</event>
<event>
 4    1 -0.5011189E-019  0.1494367E+02  0.7818608E-02  0.1869792E+00
          2   -1    0    0  501    0  0.00000000000E+00  0.00000000000E+00  0.11899209322E+03  0.11899209325E+03  0.25500000000E-02 0. -1.
         -2   -1    0    0    0  501 -0.00000000000E+00 -0.00000000000E+00 -0.46917342842E+00  0.46918035811E+00  0.25500000000E-02 0.  1.
         31    1    1    2    0    0 -0.60240772285E+00 -0.73763216738E-02  0.59904394046E+02  0.60368520783E+02  0.74470750000E+01 0. -1.
        -31    1    1    2    0    0  0.60240772285E+00  0.73763216738E-02  0.58618525750E+02  0.59092752827E+02  0.74470750000E+01 0.  1.
<mgrwt>
<rscale>  0 0.14943673E+02</rscale>
<asrwt>0</asrwt>
<pdfrwt beam="1">  1        2 0.98778939E+00 0.14943673E+02</pdfrwt>
<pdfrwt beam="2">  1       -2 0.99644828E+00 0.14943673E+02</pdfrwt>
<totfact>-0.20317756E-13</totfact>
</mgrwt>
</event>
<event>
 4    1 -0.5011189E-019  0.1493717E+02  0.7818608E-02  0.1869992E+00
          2   -1    0    0  501    0  0.00000000000E+00  0.00000000000E+00  0.11896267063E+03  0.11896267066E+03  0.25500000000E-02 0.  1.
         -2   -1    0    0    0  501 -0.00000000000E+00 -0.00000000000E+00 -0.46888120366E+00  0.46888813766E+00  0.25500000000E-02 0. -1.
         31    1    1    2    0    0  0.38485396914E-01 -0.12702757851E+00  0.63649793936E+02  0.64084107322E+02  0.74470750000E+01 0.  1.
        -31    1    1    2    0    0 -0.38485396914E-01  0.12702757851E+00  0.54843995488E+02  0.55347451471E+02  0.74470750000E+01 0. -1.
<mgrwt>
<rscale>  0 0.14937172E+02</rscale>
<asrwt>0</asrwt>
<pdfrwt beam="1">  1        2 0.98754369E+00 0.14937172E+02</pdfrwt>
<pdfrwt beam="2">  1       -2 0.99582912E+00 0.14937172E+02</pdfrwt>
<totfact>-0.22619705E-13</totfact>
</mgrwt>
</event>
<event>
 4    1  0.5011189E-019  0.1491557E+02  0.7818608E-02  0.1870656E+00
          2   -1    0    0  501    0  0.00000000000E+00  0.00000000000E+00  0.12008367267E+03  0.12008367270E+03  0.25500000000E-02 0.  1.
         -2   -1    0    0    0  501 -0.00000000000E+00 -0.00000000000E+00 -0.46316129791E+00  0.46316831755E+00  0.25500000000E-02 0. -1.
         31    1    1    2    0    0 -0.16619040765E-01  0.42414606980E-01  0.63018017283E+02  0.63456532394E+02  0.74470750000E+01 0.  1.
        -31    1    1    2    0    0  0.16619040765E-01 -0.42414606980E-01  0.56602494094E+02  0.57090308625E+02  0.74470750000E+01 0. -1.
<mgrwt>
<rscale>  0 0.14915567E+02</rscale>
<asrwt>0</asrwt>
<pdfrwt beam="1">  1        2 0.99676562E+00 0.14915567E+02</pdfrwt>
<pdfrwt beam="2">  1       -2 0.98376386E+00 0.14915567E+02</pdfrwt>
<totfact> 0.51865565E-13</totfact>
</mgrwt>
</event>
<event>
 4    1 -0.5011189E-019  0.1501927E+02  0.7818608E-02  0.1867481E+00
         -2   -1    0    0    0  501 -0.00000000000E+00  0.00000000000E+00  0.11984573280E+03  0.11984573282E+03  0.25500000000E-02 0. -1.
          2   -1    0    0  501    0  0.00000000000E+00 -0.00000000000E+00 -0.47055632951E+00  0.47056323883E+00  0.25500000000E-02 0.  1.
         31    1    1    2    0    0  0.64289880470E-01 -0.91624579785E+00  0.57257531467E+02  0.57747099280E+02  0.74470750000E+01 0. -1.
        -31    1    1    2    0    0 -0.64289880470E-01  0.91624579785E+00  0.62117645001E+02  0.62569196783E+02  0.74470750000E+01 0. -1.
<mgrwt>
<rscale>  0 0.15019266E+02</rscale>
<asrwt>0</asrwt>
<pdfrwt beam="2">  1        2 0.99940176E+00 0.15019266E+02</pdfrwt>
<pdfrwt beam="1">  1       -2 0.99485932E+00 0.15019266E+02</pdfrwt>
<totfact>-0.22925544E-14</totfact>
</mgrwt>
</event>
<event>
 4    1 -0.5011189E-019  0.1496261E+02  0.7818608E-02  0.1869212E+00
          2   -1    0    0  501    0  0.00000000000E+00  0.00000000000E+00  0.12002595815E+03  0.12002595817E+03  0.25500000000E-02 0. -1.
         -2   -1    0    0    0  501 -0.00000000000E+00 -0.00000000000E+00 -0.46631177695E+00  0.46631874917E+00  0.25500000000E-02 0.  1.
         31    1    1    2    0    0  0.52220690554E+00 -0.29937942445E-01  0.63703631744E+02  0.64139576080E+02  0.74470750000E+01 0. -1.
        -31    1    1    2    0    0 -0.52220690554E+00  0.29937942445E-01  0.55856014627E+02  0.56352700844E+02  0.74470750000E+01 0. -1.
<mgrwt>
<rscale>  0 0.14962612E+02</rscale>
<asrwt>0</asrwt>
<pdfrwt beam="1">  1        2 0.99631445E+00 0.14962612E+02</pdfrwt>
<pdfrwt beam="2">  1       -2 0.99042771E+00 0.14962612E+02</pdfrwt>
<totfact>-0.12399407E-14</totfact>
</mgrwt>
</event>
<event>
 4    1 -0.5011189E-019  0.1498895E+02  0.7818608E-02  0.1868406E+00
          2   -1    0    0  501    0  0.00000000000E+00  0.00000000000E+00  0.11991019030E+03  0.11991019033E+03  0.25500000000E-02 0.  1.
         -2   -1    0    0    0  501 -0.00000000000E+00 -0.00000000000E+00 -0.46840647989E+00  0.46841342093E+00  0.25500000000E-02 0. -1.
         31    1    1    2    0    0  0.21707594960E+00  0.65932303110E+00  0.63542024473E+02  0.63980697316E+02  0.74470750000E+01 0. -1.
        -31    1    1    2    0    0 -0.21707594960E+00 -0.65932303110E+00  0.55899759349E+02  0.56397906434E+02  0.74470750000E+01 0.  1.
<mgrwt>
<rscale>  0 0.14988947E+02</rscale>
<asrwt>0</asrwt>
<pdfrwt beam="1">  1        2 0.99537452E+00 0.14988947E+02</pdfrwt>
<pdfrwt beam="2">  1       -2 0.99485568E+00 0.14988947E+02</pdfrwt>
<totfact>-0.11472727E-13</totfact>
</mgrwt>
</event>
<event>
 4    1 -0.5011189E-019  0.1491565E+02  0.7818608E-02  0.1870653E+00
         -2   -1    0    0    0  501 -0.00000000000E+00  0.00000000000E+00  0.11996931289E+03  0.11996931291E+03  0.25500000000E-02 0. -1.
          2   -1    0    0  501    0  0.00000000000E+00 -0.00000000000E+00 -0.46360787564E+00  0.46361488852E+00  0.25500000000E-02 0.  1.
         31    1    1    2    0    0  0.26019726420E+00  0.36505114009E-01  0.62190972550E+02  0.62635812663E+02  0.74470750000E+01 0. -1.
        -31    1    1    2    0    0 -0.26019726420E+00 -0.36505114009E-01  0.57314732462E+02  0.57797115140E+02  0.74470750000E+01 0.  1.
<mgrwt>
<rscale>  0 0.14915648E+02</rscale>
<asrwt>0</asrwt>
<pdfrwt beam="2">  1        2 0.98470513E+00 0.14915648E+02</pdfrwt>
<pdfrwt beam="1">  1       -2 0.99582371E+00 0.14915648E+02</pdfrwt>
<totfact>-0.34782279E-13</totfact>
</mgrwt>
</event>
<event>
 4    1 -0.5011189E-019  0.1495182E+02  0.7818608E-02  0.1869542E+00
         -2   -1    0    0    0  501 -0.00000000000E+00  0.00000000000E+00  0.12023344176E+03  0.12023344179E+03  0.25500000000E-02 0.  1.
          2   -1    0    0  501    0  0.00000000000E+00 -0.00000000000E+00 -0.46483560394E+00  0.46484259829E+00  0.25500000000E-02 0. -1.
         31    1    1    2    0    0 -0.34281191902E+00 -0.51103008268E+00  0.58050402042E+02  0.58529366774E+02  0.74470750000E+01 0.  1.
        -31    1    1    2    0    0  0.34281191902E+00  0.51103008268E+00  0.61718204119E+02  0.62168917616E+02  0.74470750000E+01 0.  1.
<mgrwt>
<rscale>  0 0.14951817E+02</rscale>
<asrwt>0</asrwt>
<pdfrwt beam="2">  1        2 0.98731110E+00 0.14951817E+02</pdfrwt>
<pdfrwt beam="1">  1       -2 0.99801786E+00 0.14951817E+02</pdfrwt>
<totfact>-0.14433033E-13</totfact>
</mgrwt>
</event>
<event>
 4    1  0.5011189E-019  0.1490667E+02  0.7818608E-02  0.1870930E+00
          2   -1    0    0  501    0  0.00000000000E+00  0.00000000000E+00  0.12029391176E+03  0.12029391179E+03  0.25500000000E-02 0. -1.
         -2   -1    0    0    0  501 -0.00000000000E+00 -0.00000000000E+00 -0.46180028912E+00  0.46180732945E+00  0.25500000000E-02 0.  1.
         31    1    1    2    0    0 -0.27212746390E-01  0.22025240116E+00  0.58216584480E+02  0.58691386815E+02  0.74470750000E+01 0.  1.
        -31    1    1    2    0    0  0.27212746390E-01 -0.22025240116E+00  0.61615526993E+02  0.62064332304E+02  0.74470750000E+01 0. -1.
<mgrwt>
<rscale>  0 0.14906668E+02</rscale>
<asrwt>0</asrwt>
<pdfrwt beam="1">  1        2 0.99849277E+00 0.14906668E+02</pdfrwt>
<pdfrwt beam="2">  1       -2 0.98089074E+00 0.14906668E+02</pdfrwt>
<totfact> 0.52935439E-13</totfact>
</mgrwt>
</event>
<event>
 4    1  0.5011189E-019  0.1491872E+02  0.7818608E-02  0.1870559E+00
         -2   -1    0    0    0  501 -0.00000000000E+00  0.00000000000E+00  0.11900017588E+03  0.11900017591E+03  0.25500000000E-02 0. -1.
          2   -1    0    0  501    0  0.00000000000E+00 -0.00000000000E+00 -0.46757578286E+00  0.46758273623E+00  0.25500000000E-02 0.  1.
         31    1    1    2    0    0  0.32683899589E+00  0.25475098041E+00  0.60120167904E+02  0.60581063350E+02  0.74470750000E+01 0. -1.
        -31    1    1    2    0    0 -0.32683899589E+00 -0.25475098041E+00  0.58412432198E+02  0.58886695298E+02  0.74470750000E+01 0. -1.
<mgrwt>
<rscale>  0 0.14918715E+02</rscale>
<asrwt>0</asrwt>
<pdfrwt beam="2">  1        2 0.99306873E+00 0.14918715E+02</pdfrwt>
<pdfrwt beam="1">  1       -2 0.98784302E+00 0.14918715E+02</pdfrwt>
<totfact> 0.19394889E-13</totfact>
</mgrwt>
</event>
<event>
 4    1 -0.5011189E-019  0.1498532E+02  0.7818608E-02  0.1868517E+00
          2   -1    0    0  501    0  0.00000000000E+00  0.00000000000E+00  0.11969057628E+03  0.11969057631E+03  0.25500000000E-02 0.  1.
         -2   -1    0    0    0  501 -0.00000000000E+00 -0.00000000000E+00 -0.46903874128E+00  0.46904567296E+00  0.25500000000E-02 0. -1.
         31    1    1    2    0    0  0.13245551945E+00 -0.11856031523E+00  0.53148998592E+02  0.53668487759E+02  0.74470750000E+01 0. -1.
        -31    1    1    2    0    0 -0.13245551945E+00  0.11856031523E+00  0.66072538948E+02  0.66491134222E+02  0.74470750000E+01 0.  1.
<mgrwt>
<rscale>  0 0.14985318E+02</rscale>
<asrwt>0</asrwt>
<pdfrwt beam="1">  1        2 0.99356383E+00 0.14985318E+02</pdfrwt>
<pdfrwt beam="2">  1       -2 0.99618618E+00 0.14985318E+02</pdfrwt>
<totfact>-0.12412276E-13</totfact>
</mgrwt>
</event>
<event>
 4    1  0.5011189E-019  0.1491156E+02  0.7818608E-02  0.1870779E+00
         -2   -1    0    0    0  501 -0.00000000000E+00  0.00000000000E+00  0.11885891745E+03  0.11885891747E+03  0.25500000000E-02 0.  1.
          2   -1    0    0  501    0  0.00000000000E+00 -0.00000000000E+00 -0.46768274326E+00  0.46768969504E+00  0.25500000000E-02 0. -1.
         31    1    1    2    0    0  0.33913915283E+00  0.61277864941E-01  0.58356919152E+02  0.58831179737E+02  0.74470750000E+01 0. -1.
        -31    1    1    2    0    0 -0.33913915283E+00 -0.61277864941E-01  0.60034315553E+02  0.60495427433E+02  0.74470750000E+01 0. -1.
<mgrwt>
<rscale>  0 0.14911563E+02</rscale>
<asrwt>0</asrwt>
<pdfrwt beam="2">  1        2 0.99329039E+00 0.14911563E+02</pdfrwt>
<pdfrwt beam="1">  1       -2 0.98667588E+00 0.14911563E+02</pdfrwt>
<totfact> 0.32355068E-13</totfact>
</mgrwt>
</event>
<event>
 4    1  0.5011189E-019  0.1490316E+02  0.7818608E-02  0.1871038E+00
          2   -1    0    0  501    0  0.00000000000E+00  0.00000000000E+00  0.11987943902E+03  0.11987943905E+03  0.25500000000E-02 0. -1.
         -2   -1    0    0    0  501 -0.00000000000E+00 -0.00000000000E+00 -0.46317893065E+00  0.46318595002E+00  0.25500000000E-02 0.  1.
         31    1    1    2    0    0  0.17284850774E+00  0.14248991792E+00  0.58656883597E+02  0.59128158261E+02  0.74470750000E+01 0.  1.
        -31    1    1    2    0    0 -0.17284850774E+00 -0.14248991792E+00  0.60759376493E+02  0.61214466736E+02  0.74470750000E+01 0. -1.
<mgrwt>
<rscale>  0 0.14903161E+02</rscale>
<asrwt>0</asrwt>
<pdfrwt beam="1">  1        2 0.99507702E+00 0.14903161E+02</pdfrwt>
<pdfrwt beam="2">  1       -2 0.98379473E+00 0.14903161E+02</pdfrwt>
<totfact> 0.65812098E-13</totfact>
</mgrwt>
</event>
<event>
 4    1 -0.5011189E-019  0.1498627E+02  0.7818608E-02  0.1868488E+00
         -2   -1    0    0    0  501 -0.00000000000E+00  0.00000000000E+00  0.11993696013E+03  0.11993696016E+03  0.25500000000E-02 0.  1.
          2   -1    0    0  501    0  0.00000000000E+00 -0.00000000000E+00 -0.46813452128E+00  0.46814146635E+00  0.25500000000E-02 0. -1.
         31    1    1    2    0    0 -0.41764147038E+00  0.41582590598E+00  0.55044178575E+02  0.55548788076E+02  0.74470750000E+01 0. -1.
        -31    1    1    2    0    0  0.41764147038E+00 -0.41582590598E+00  0.64424647032E+02  0.64856313547E+02  0.74470750000E+01 0.  1.
<mgrwt>
<rscale>  0 0.14986267E+02</rscale>
<asrwt>0</asrwt>
<pdfrwt beam="2">  1        2 0.99428118E+00 0.14986267E+02</pdfrwt>
<pdfrwt beam="1">  1       -2 0.99559362E+00 0.14986267E+02</pdfrwt>
<totfact>-0.12415060E-13</totfact>
</mgrwt>
</event>
<event>
 4    1 -0.5011189E-019  0.1491621E+02  0.7818608E-02  0.1870636E+00
         -2   -1    0    0    0  501 -0.00000000000E+00  0.00000000000E+00  0.12016862071E+03  0.12016862074E+03  0.25500000000E-02 0.  1.
          2   -1    0    0  501    0  0.00000000000E+00 -0.00000000000E+00 -0.46287398236E+00  0.46288100636E+00  0.25500000000E-02 0. -1.
         31    1    1    2    0    0 -0.35803088141E+00 -0.18896388526E+00  0.60039721914E+02  0.60501165502E+02  0.74470750000E+01 0. -1.
        -31    1    1    2    0    0  0.35803088141E+00  0.18896388526E+00  0.59666024816E+02  0.60130336244E+02  0.74470750000E+01 0. -1.
<mgrwt>
<rscale>  0 0.14916213E+02</rscale>
<asrwt>0</asrwt>
<pdfrwt beam="2">  1        2 0.98315862E+00 0.14916213E+02</pdfrwt>
<pdfrwt beam="1">  1       -2 0.99746566E+00 0.14916213E+02</pdfrwt>
<totfact>-0.33608409E-13</totfact>
</mgrwt>
</event>
<event>
 4    1  0.5011189E-019  0.1495408E+02  0.7818608E-02  0.1869473E+00
         -2   -1    0    0    0  501 -0.00000000000E+00  0.00000000000E+00  0.11889116096E+03  0.11889116099E+03  0.25500000000E-02 0. -1.
          2   -1    0    0  501    0  0.00000000000E+00 -0.00000000000E+00 -0.47022595961E+00  0.47023287379E+00  0.25500000000E-02 0.  1.
         31    1    1    2    0    0  0.14410149318E+00 -0.12034518162E+00  0.64333493822E+02  0.64763358480E+02  0.74470750000E+01 0. -1.
        -31    1    1    2    0    0 -0.14410149318E+00  0.12034518162E+00  0.54087441179E+02  0.54598035381E+02  0.74470750000E+01 0.  1.
<mgrwt>
<rscale>  0 0.14954080E+02</rscale>
<asrwt>0</asrwt>
<pdfrwt beam="2">  1        2 0.99867152E+00 0.14954080E+02</pdfrwt>
<pdfrwt beam="1">  1       -2 0.98696352E+00 0.14954080E+02</pdfrwt>
<totfact> 0.98063423E-14</totfact>
</mgrwt>
</event>
<event>
 4    1  0.5011189E-019  0.1491127E+02  0.7818608E-02  0.1870788E+00
          2   -1    0    0  501    0  0.00000000000E+00  0.00000000000E+00  0.11991187152E+03  0.11991187154E+03  0.25500000000E-02 0. -1.
         -2   -1    0    0    0  501 -0.00000000000E+00 -0.00000000000E+00 -0.46355759112E+00  0.46356460476E+00  0.25500000000E-02 0.  1.
         31    1    1    2    0    0 -0.80026856741E-02 -0.18024339821E+00  0.57235901903E+02  0.57718627361E+02  0.74470750000E+01 0.  1.
        -31    1    1    2    0    0  0.80026856741E-02  0.18024339821E+00  0.62212412021E+02  0.62656808786E+02  0.74470750000E+01 0. -1.
<mgrwt>
<rscale>  0 0.14911269E+02</rscale>
<asrwt>0</asrwt>
<pdfrwt beam="1">  1        2 0.99534833E+00 0.14911269E+02</pdfrwt>
<pdfrwt beam="2">  1       -2 0.98459692E+00 0.14911269E+02</pdfrwt>
<totfact> 0.52136450E-13</totfact>
</mgrwt>
</event>
<event>
 4    1 -0.5011189E-019  0.1497442E+02  0.7818608E-02  0.1868850E+00
          2   -1    0    0  501    0  0.00000000000E+00  0.00000000000E+00  0.11981775440E+03  0.11981775443E+03  0.25500000000E-02 0.  1.
         -2   -1    0    0    0  501 -0.00000000000E+00 -0.00000000000E+00 -0.46785973701E+00  0.46786668616E+00  0.25500000000E-02 0. -1.
         31    1    1    2    0    0 -0.19110478524E+00  0.65383173960E+00  0.56719383919E+02  0.57210239076E+02  0.74470750000E+01 0. -1.
        -31    1    1    2    0    0  0.19110478524E+00 -0.65383173960E+00  0.62630510747E+02  0.63075382040E+02  0.74470750000E+01 0.  1.
<mgrwt>
<rscale>  0 0.14974421E+02</rscale>
<asrwt>0</asrwt>
<pdfrwt beam="1">  1        2 0.99460567E+00 0.14974421E+02</pdfrwt>
<pdfrwt beam="2">  1       -2 0.99369600E+00 0.14974421E+02</pdfrwt>
<totfact>-0.11833093E-13</totfact>
</mgrwt>
</event>
<event>
 4    1 -0.5011189E-019  0.1497223E+02  0.7818608E-02  0.1868917E+00
          2   -1    0    0  501    0  0.00000000000E+00  0.00000000000E+00  0.11978483393E+03  0.11978483396E+03  0.25500000000E-02 0. -1.
         -2   -1    0    0    0  501 -0.00000000000E+00 -0.00000000000E+00 -0.46785122512E+00  0.46785817439E+00  0.25500000000E-02 0.  1.
         31    1    1    2    0    0  0.72732889246E+00  0.22782496461E+00  0.60023310342E+02  0.60488326328E+02  0.74470750000E+01 0.  1.
        -31    1    1    2    0    0 -0.72732889246E+00 -0.22782496461E+00  0.59293672366E+02  0.59764365806E+02  0.74470750000E+01 0.  1.
<mgrwt>
<rscale>  0 0.14972228E+02</rscale>
<asrwt>0</asrwt>
<pdfrwt beam="1">  1        2 0.99433340E+00 0.14972228E+02</pdfrwt>
<pdfrwt beam="2">  1       -2 0.99367693E+00 0.14972228E+02</pdfrwt>
<totfact>-0.12102173E-13</totfact>
</mgrwt>
</event>
<event>
 4    1 -0.5011189E-019  0.1498665E+02  0.7818608E-02  0.1868476E+00
         -2   -1    0    0    0  501 -0.00000000000E+00  0.00000000000E+00  0.12005437647E+03  0.12005437650E+03  0.25500000000E-02 0.  1.
          2   -1    0    0  501    0  0.00000000000E+00 -0.00000000000E+00 -0.46770079088E+00  0.46770774239E+00  0.25500000000E-02 0. -1.
         31    1    1    2    0    0 -0.18574987647E+00 -0.16564230209E+00  0.66171788736E+02  0.66589987918E+02  0.74470750000E+01 0.  1.
        -31    1    1    2    0    0  0.18574987647E+00  0.16564230209E+00  0.53414886944E+02  0.53932096322E+02  0.74470750000E+01 0. -1.
<mgrwt>
<rscale>  0 0.14986654E+02</rscale>
<asrwt>0</asrwt>
<pdfrwt beam="2">  1        2 0.99336734E+00 0.14986654E+02</pdfrwt>
<pdfrwt beam="1">  1       -2 0.99656092E+00 0.14986654E+02</pdfrwt>
<totfact>-0.11936356E-13</totfact>
</mgrwt>
</event>
<event>
 4    1  0.5011189E-019  0.1490222E+02  0.7818608E-02  0.1871067E+00
         -2   -1    0    0    0  501 -0.00000000000E+00  0.00000000000E+00  0.11836109857E+03  0.11836109860E+03  0.25500000000E-02 0.  1.
          2   -1    0    0  501    0  0.00000000000E+00 -0.00000000000E+00 -0.46906153748E+00  0.46906846883E+00  0.25500000000E-02 0. -1.
         31    1    1    2    0    0 -0.11942909725E+00 -0.17650129335E+00  0.59913150747E+02  0.60374580533E+02  0.74470750000E+01 0.  1.
        -31    1    1    2    0    0  0.11942909725E+00  0.17650129335E+00  0.57978886284E+02  0.58455586532E+02  0.74470750000E+01 0. -1.
<mgrwt>
<rscale>  0 0.14902222E+02</rscale>
<asrwt>0</asrwt>
<pdfrwt beam="2">  1        2 0.99619073E+00 0.14902222E+02</pdfrwt>
<pdfrwt beam="1">  1       -2 0.98257096E+00 0.14902222E+02</pdfrwt>
<totfact> 0.75067441E-13</totfact>
</mgrwt>
</event>
<event>
 4    1 -0.5011189E-019  0.1503108E+02  0.7818608E-02  0.1867122E+00
          2   -1    0    0  501    0  0.00000000000E+00  0.00000000000E+00  0.12012875705E+03  0.12012875708E+03  0.25500000000E-02 0.  1.
         -2   -1    0    0    0  501 -0.00000000000E+00 -0.00000000000E+00 -0.47018660361E+00  0.47019351836E+00  0.25500000000E-02 0. -1.
         31    1    1    2    0    0 -0.96059610870E+00  0.26269001800E+00  0.58378999249E+02  0.58860498047E+02  0.74470750000E+01 0.  1.
        -31    1    1    2    0    0  0.96059610870E+00 -0.26269001800E+00  0.61279571202E+02  0.61738452554E+02  0.74470750000E+01 0. -1.
<mgrwt>
<rscale>  0 0.15031081E+02</rscale>
<asrwt>0</asrwt>
<pdfrwt beam="1">  1        2 0.99719650E+00 0.15031081E+02</pdfrwt>
<pdfrwt beam="2">  1       -2 0.99862879E+00 0.15031081E+02</pdfrwt>
<totfact>-0.36327004E-14</totfact>
</mgrwt>
</event>
<event>
 4    1 -0.5011189E-019  0.1491095E+02  0.7818608E-02  0.1870798E+00
          2   -1    0    0  501    0  0.00000000000E+00  0.00000000000E+00  0.11870463696E+03  0.11870463699E+03  0.25500000000E-02 0. -1.
         -2   -1    0    0    0  501 -0.00000000000E+00 -0.00000000000E+00 -0.46825232746E+00  0.46825927078E+00  0.25500000000E-02 0.  1.
         31    1    1    2    0    0  0.24403708180E+00 -0.14922235000E+00  0.57453365518E+02  0.57934704253E+02  0.74470750000E+01 0.  1.
        -31    1    1    2    0    0 -0.24403708180E+00  0.14922235000E+00  0.60783019113E+02  0.61238192004E+02  0.74470750000E+01 0. -1.
<mgrwt>
<rscale>  0 0.14910954E+02</rscale>
<asrwt>0</asrwt>
<pdfrwt beam="1">  1        2 0.98540489E+00 0.14910954E+02</pdfrwt>
<pdfrwt beam="2">  1       -2 0.99449027E+00 0.14910954E+02</pdfrwt>
<totfact>-0.32526929E-13</totfact>
</mgrwt>
</event>
<event>
 4    1 -0.5011189E-019  0.1497820E+02  0.7818608E-02  0.1868734E+00
         -2   -1    0    0    0  501 -0.00000000000E+00  0.00000000000E+00  0.12041283513E+03  0.12041283516E+03  0.25500000000E-02 0. -1.
          2   -1    0    0  501    0  0.00000000000E+00 -0.00000000000E+00 -0.46578247717E+00  0.46578945731E+00  0.25500000000E-02 0.  1.
         31    1    1    2    0    0 -0.58356111433E-01 -0.69472834010E-01  0.53621760161E+02  0.54136497123E+02  0.74470750000E+01 0.  1.
        -31    1    1    2    0    0  0.58356111433E-01  0.69472834010E-01  0.66325292495E+02  0.66742127495E+02  0.74470750000E+01 0. -1.
<mgrwt>
<rscale>  0 0.14978199E+02</rscale>
<asrwt>0</asrwt>
<pdfrwt beam="2">  1        2 0.98932015E+00 0.14978199E+02</pdfrwt>
<pdfrwt beam="1">  1       -2 0.99950904E+00 0.14978199E+02</pdfrwt>
<totfact>-0.31786752E-14</totfact>
</mgrwt>
</event>
<event>
 4    1  0.5011189E-019  0.1490491E+02  0.7818608E-02  0.1870984E+00
         -2   -1    0    0    0  501 -0.00000000000E+00  0.00000000000E+00  0.11851679839E+03  0.11851679842E+03  0.25500000000E-02 0.  1.
          2   -1    0    0  501    0  0.00000000000E+00 -0.00000000000E+00 -0.46861456161E+00  0.46862149956E+00  0.25500000000E-02 0. -1.
         31    1    1    2    0    0 -0.24499525248E-01  0.27890922490E+00  0.59362335593E+02  0.59828289326E+02  0.74470750000E+01 0.  1.
        -31    1    1    2    0    0  0.24499525248E-01 -0.27890922490E+00  0.58685848239E+02  0.59157130595E+02  0.74470750000E+01 0. -1.
<mgrwt>
<rscale>  0 0.14904914E+02</rscale>
<asrwt>0</asrwt>
<pdfrwt beam="2">  1        2 0.99525035E+00 0.14904914E+02</pdfrwt>
<pdfrwt beam="1">  1       -2 0.98385470E+00 0.14904914E+02</pdfrwt>
<totfact> 0.63657127E-13</totfact>
</mgrwt>
</event>
<event>
 4    1 -0.5011189E-019  0.1490869E+02  0.7818608E-02  0.1870868E+00
          2   -1    0    0  501    0  0.00000000000E+00  0.00000000000E+00  0.11820846231E+03  0.11820846233E+03  0.25500000000E-02 0.  1.
         -2   -1    0    0    0  501 -0.00000000000E+00 -0.00000000000E+00 -0.47007480451E+00  0.47008172091E+00  0.25500000000E-02 0. -1.
         31    1    1    2    0    0  0.22509386694E-01  0.30299915707E+00  0.59875814158E+02  0.60337918114E+02  0.74470750000E+01 0.  1.
        -31    1    1    2    0    0 -0.22509386694E-01 -0.30299915707E+00  0.57862573343E+02  0.58340625940E+02  0.74470750000E+01 0. -1.
<mgrwt>
<rscale>  0 0.14908686E+02</rscale>
<asrwt>0</asrwt>
<pdfrwt beam="1">  1        2 0.98131724E+00 0.14908686E+02</pdfrwt>
<pdfrwt beam="2">  1       -2 0.99832905E+00 0.14908686E+02</pdfrwt>
<totfact>-0.32950771E-13</totfact>
</mgrwt>
</event>
<event>
 4    1 -0.5011189E-019  0.1492464E+02  0.7818608E-02  0.1870377E+00
          2   -1    0    0  501    0  0.00000000000E+00  0.00000000000E+00  0.11861502580E+03  0.11861502583E+03  0.25500000000E-02 0. -1.
         -2   -1    0    0    0  501 -0.00000000000E+00 -0.00000000000E+00 -0.46946676574E+00  0.46947369110E+00  0.25500000000E-02 0.  1.
         31    1    1    2    0    0 -0.17828640407E+00 -0.31411311741E+00  0.61555885469E+02  0.62005777272E+02  0.74470750000E+01 0. -1.
        -31    1    1    2    0    0  0.17828640407E+00  0.31411311741E+00  0.56589673564E+02  0.57078722246E+02  0.74470750000E+01 0.  1.
<mgrwt>
<rscale>  0 0.14924641E+02</rscale>
<asrwt>0</asrwt>
<pdfrwt beam="1">  1        2 0.98467396E+00 0.14924641E+02</pdfrwt>
<pdfrwt beam="2">  1       -2 0.99705637E+00 0.14924641E+02</pdfrwt>
<totfact>-0.28959734E-13</totfact>
</mgrwt>
</event>
<event>
 4    1  0.5011189E-019  0.1490536E+02  0.7818608E-02  0.1870970E+00
          2   -1    0    0  501    0  0.00000000000E+00  0.00000000000E+00  0.11966186785E+03  0.11966186788E+03  0.25500000000E-02 0.  1.
         -2   -1    0    0    0  501 -0.00000000000E+00 -0.00000000000E+00 -0.46415822029E+00  0.46416522485E+00  0.25500000000E-02 0. -1.
         31    1    1    2    0    0  0.20407362293E+00 -0.37501613205E-01  0.57977292722E+02  0.58453985748E+02  0.74470750000E+01 0.  1.
        -31    1    1    2    0    0 -0.20407362293E+00  0.37501613205E-01  0.61220416912E+02  0.61672047358E+02  0.74470750000E+01 0. -1.
<mgrwt>
<rscale>  0 0.14905363E+02</rscale>
<asrwt>0</asrwt>
<pdfrwt beam="1">  1        2 0.99328609E+00 0.14905363E+02</pdfrwt>
<pdfrwt beam="2">  1       -2 0.98585978E+00 0.14905363E+02</pdfrwt>
<totfact> 0.43202614E-13</totfact>
</mgrwt>
</event>
<event>
 4    1  0.5011189E-019  0.1492487E+02  0.7818608E-02  0.1870370E+00
          2   -1    0    0  501    0  0.00000000000E+00  0.00000000000E+00  0.12002043548E+03  0.12002043550E+03  0.25500000000E-02 0.  1.
         -2   -1    0    0    0  501 -0.00000000000E+00 -0.00000000000E+00 -0.46398336926E+00  0.46399037646E+00  0.25500000000E-02 0. -1.
         31    1    1    2    0    0 -0.40507574312E-01  0.46238263340E+00  0.58838691480E+02  0.59309914683E+02  0.74470750000E+01 0. -1.
        -31    1    1    2    0    0  0.40507574312E-01 -0.46238263340E+00  0.60717760628E+02  0.61174511197E+02  0.74470750000E+01 0.  1.
<mgrwt>
<rscale>  0 0.14924866E+02</rscale>
<asrwt>0</asrwt>
<pdfrwt beam="1">  1        2 0.99624953E+00 0.14924866E+02</pdfrwt>
<pdfrwt beam="2">  1       -2 0.98550121E+00 0.14924866E+02</pdfrwt>
<totfact> 0.35627911E-13</totfact>
</mgrwt>
</event>
<event>
 4    1  0.5011189E-019  0.1493641E+02  0.7818608E-02  0.1870015E+00
          2   -1    0    0  501    0  0.00000000000E+00  0.00000000000E+00  0.12036514578E+03  0.12036514580E+03  0.25500000000E-02 0. -1.
         -2   -1    0    0    0  501 -0.00000000000E+00 -0.00000000000E+00 -0.46337029324E+00  0.46337730972E+00  0.25500000000E-02 0.  1.
         31    1    1    2    0    0 -0.11228938638E-02 -0.41179207450E+00  0.63037214985E+02  0.63476916853E+02  0.74470750000E+01 0. -1.
        -31    1    1    2    0    0  0.11228938638E-02  0.41179207450E+00  0.56864560497E+02  0.57351606260E+02  0.74470750000E+01 0.  1.
<mgrwt>
<rscale>  0 0.14936406E+02</rscale>
<asrwt>0</asrwt>
<pdfrwt beam="1">  1        2 0.99909477E+00 0.14936406E+02</pdfrwt>
<pdfrwt beam="2">  1       -2 0.98421490E+00 0.14936406E+02</pdfrwt>
<totfact> 0.16786044E-13</totfact>
</mgrwt>
</event>
<event>
 4    1  0.5011189E-019  0.1490028E+02  0.7818608E-02  0.1871127E+00
          2   -1    0    0  501    0  0.00000000000E+00  0.00000000000E+00  0.12028470350E+03  0.12028470353E+03  0.25500000000E-02 0. -1.
         -2   -1    0    0    0  501 -0.00000000000E+00 -0.00000000000E+00 -0.46144007300E+00  0.46144711883E+00  0.25500000000E-02 0.  1.
         31    1    1    2    0    0  0.12894172799E+00 -0.17011826486E+00  0.59823930864E+02  0.60286044789E+02  0.74470750000E+01 0. -1.
        -31    1    1    2    0    0 -0.12894172799E+00  0.17011826486E+00  0.59999332563E+02  0.60460105857E+02  0.74470750000E+01 0. -1.
<mgrwt>
<rscale>  0 0.14900283E+02</rscale>
<asrwt>0</asrwt>
<pdfrwt beam="1">  1        2 0.99841366E+00 0.14900283E+02</pdfrwt>
<pdfrwt beam="2">  1       -2 0.98012826E+00 0.14900283E+02</pdfrwt>
<totfact> 0.63123776E-13</totfact>
</mgrwt>
</event>
<event>
 4    1 -0.5011189E-019  0.1491831E+02  0.7818608E-02  0.1870572E+00
          2   -1    0    0  501    0  0.00000000000E+00  0.00000000000E+00  0.11880965580E+03  0.11880965582E+03  0.25500000000E-02 0. -1.
         -2   -1    0    0    0  501 -0.00000000000E+00 -0.00000000000E+00 -0.46830003894E+00  0.46830698155E+00  0.25500000000E-02 0.  1.
         31    1    1    2    0    0 -0.45778832523E-02 -0.99384907582E-02  0.62562242224E+02  0.63003914147E+02  0.74470750000E+01 0. -1.
        -31    1    1    2    0    0  0.45778832523E-02  0.99384907582E-02  0.55779113534E+02  0.56274048659E+02  0.74470750000E+01 0.  1.
<mgrwt>
<rscale>  0 0.14918308E+02</rscale>
<asrwt>0</asrwt>
<pdfrwt beam="1">  1        2 0.98627365E+00 0.14918308E+02</pdfrwt>
<pdfrwt beam="2">  1       -2 0.99459465E+00 0.14918308E+02</pdfrwt>
<totfact>-0.28473798E-13</totfact>
</mgrwt>
</event>
<event>
 4    1  0.5011189E-019  0.1489492E+02  0.7818608E-02  0.1871292E+00
         -2   -1    0    0    0  501 -0.00000000000E+00  0.00000000000E+00  0.11845642219E+03  0.11845642221E+03  0.25500000000E-02 0. -1.
          2   -1    0    0  501    0  0.00000000000E+00 -0.00000000000E+00 -0.46822490314E+00  0.46823184686E+00  0.25500000000E-02 0.  1.
         31    1    1    2    0    0 -0.59210882531E-01 -0.32035195771E-01  0.59271036635E+02  0.59737084312E+02  0.74470750000E+01 0.  1.
        -31    1    1    2    0    0  0.59210882531E-01  0.32035195771E-01  0.58717160649E+02  0.59187569750E+02  0.74470750000E+01 0.  1.
<mgrwt>
<rscale>  0 0.14894920E+02</rscale>
<asrwt>0</asrwt>
<pdfrwt beam="2">  1        2 0.99442407E+00 0.14894920E+02</pdfrwt>
<pdfrwt beam="1">  1       -2 0.98335225E+00 0.14894920E+02</pdfrwt>
<totfact> 0.77745679E-13</totfact>
</mgrwt>
</event>
<event>
 4    1  0.5011189E-019  0.1491274E+02  0.7818608E-02  0.1870743E+00
          2   -1    0    0  501    0  0.00000000000E+00  0.00000000000E+00  0.11995339827E+03  0.11995339829E+03  0.25500000000E-02 0.  1.
         -2   -1    0    0    0  501 -0.00000000000E+00 -0.00000000000E+00 -0.46348868226E+00  0.46349569694E+00  0.25500000000E-02 0. -1.
         31    1    1    2    0    0 -0.12096723800E+00  0.15170990039E+00  0.62309776040E+02  0.62753523926E+02  0.74470750000E+01 0.  1.
        -31    1    1    2    0    0  0.12096723800E+00 -0.15170990039E+00  0.57180133545E+02  0.57663370065E+02  0.74470750000E+01 0. -1.
<mgrwt>
<rscale>  0 0.14912742E+02</rscale>
<asrwt>0</asrwt>
<pdfrwt beam="1">  1        2 0.99569113E+00 0.14912742E+02</pdfrwt>
<pdfrwt beam="2">  1       -2 0.98445244E+00 0.14912742E+02</pdfrwt>
<totfact> 0.51940960E-13</totfact>
</mgrwt>
</event>
<event>
 4    1 -0.5011189E-019  0.1492003E+02  0.7818608E-02  0.1870519E+00
         -2   -1    0    0    0  501 -0.00000000000E+00  0.00000000000E+00  0.12016402818E+03  0.12016402820E+03  0.25500000000E-02 0. -1.
          2   -1    0    0  501    0  0.00000000000E+00 -0.00000000000E+00 -0.46312868959E+00  0.46313570973E+00  0.25500000000E-02 0.  1.
         31    1    1    2    0    0  0.29846871071E+00 -0.31588548489E+00  0.59336521316E+02  0.59803599851E+02  0.74470750000E+01 0.  1.
        -31    1    1    2    0    0 -0.29846871071E+00  0.31588548489E+00  0.60364378171E+02  0.60823564062E+02  0.74470750000E+01 0. -1.
<mgrwt>
<rscale>  0 0.14920031E+02</rscale>
<asrwt>0</asrwt>
<pdfrwt beam="2">  1        2 0.98369739E+00 0.14920031E+02</pdfrwt>
<pdfrwt beam="1">  1       -2 0.99742979E+00 0.14920031E+02</pdfrwt>
<totfact>-0.31008093E-13</totfact>
</mgrwt>
</event>
<event>
 4    1 -0.5011189E-019  0.1493102E+02  0.7818608E-02  0.1870181E+00
         -2   -1    0    0    0  501 -0.00000000000E+00  0.00000000000E+00  0.12004003068E+03  0.12004003071E+03  0.25500000000E-02 0.  1.
          2   -1    0    0  501    0  0.00000000000E+00 -0.00000000000E+00 -0.46429045572E+00  0.46429745829E+00  0.25500000000E-02 0. -1.
         31    1    1    2    0    0 -0.47197324864E+00 -0.22805456855E+00  0.59682513427E+02  0.60147619260E+02  0.74470750000E+01 0.  1.
        -31    1    1    2    0    0  0.47197324864E+00  0.22805456855E+00  0.59893226796E+02  0.60356708904E+02  0.74470750000E+01 0.  1.
<mgrwt>
<rscale>  0 0.14931023E+02</rscale>
<asrwt>0</asrwt>
<pdfrwt beam="2">  1        2 0.98615156E+00 0.14931023E+02</pdfrwt>
<pdfrwt beam="1">  1       -2 0.99641410E+00 0.14931023E+02</pdfrwt>
<totfact>-0.25780301E-13</totfact>
</mgrwt>
</event>
<event>
 4    1 -0.5011189E-019  0.1491825E+02  0.7818608E-02  0.1870573E+00
          2   -1    0    0  501    0  0.00000000000E+00  0.00000000000E+00  0.11824003490E+03  0.11824003492E+03  0.25500000000E-02 0. -1.
         -2   -1    0    0    0  501 -0.00000000000E+00 -0.00000000000E+00 -0.47055258746E+00  0.47055949684E+00  0.25500000000E-02 0.  1.
         31    1    1    2    0    0 -0.31817346167E+00 -0.27952160830E+00  0.59016307065E+02  0.59485820095E+02  0.74470750000E+01 0.  1.
        -31    1    1    2    0    0  0.31817346167E+00  0.27952160830E+00  0.58753175245E+02  0.59224774327E+02  0.74470750000E+01 0.  1.
<mgrwt>
<rscale>  0 0.14918253E+02</rscale>
<asrwt>0</asrwt>
<pdfrwt beam="1">  1        2 0.98158225E+00 0.14918253E+02</pdfrwt>
<pdfrwt beam="2">  1       -2 0.99934077E+00 0.14918253E+02</pdfrwt>
<totfact>-0.13549652E-13</totfact>
</mgrwt>
</event>
<event>
 4    1  0.5011189E-019  0.1495031E+02  0.7818608E-02  0.1869589E+00
         -2   -1    0    0    0  501 -0.00000000000E+00  0.00000000000E+00  0.11899563421E+03  0.11899563424E+03  0.25500000000E-02 0. -1.
          2   -1    0    0  501    0  0.00000000000E+00 -0.00000000000E+00 -0.46957624091E+00  0.46958316465E+00  0.25500000000E-02 0.  1.
         31    1    1    2    0    0  0.29942916974E+00  0.15780289510E+00  0.54853920023E+02  0.55358161345E+02  0.74470750000E+01 0.  1.
        -31    1    1    2    0    0 -0.29942916974E+00 -0.15780289510E+00  0.63672137949E+02  0.64107056060E+02  0.74470750000E+01 0. -1.
<mgrwt>
<rscale>  0 0.14950309E+02</rscale>
<asrwt>0</asrwt>
<pdfrwt beam="2">  1        2 0.99730053E+00 0.14950309E+02</pdfrwt>
<pdfrwt beam="1">  1       -2 0.98782200E+00 0.14950309E+02</pdfrwt>
<totfact> 0.11460570E-13</totfact>
</mgrwt>
</event>
<event>
 4    1 -0.5011189E-019  0.1489612E+02  0.7818608E-02  0.1871255E+00
         -2   -1    0    0    0  501 -0.00000000000E+00  0.00000000000E+00  0.11977439607E+03  0.11977439609E+03  0.25500000000E-02 0. -1.
          2   -1    0    0  501    0  0.00000000000E+00 -0.00000000000E+00 -0.46314687338E+00  0.46315389324E+00  0.25500000000E-02 0.  1.
         31    1    1    2    0    0  0.70420025059E-01  0.25847967812E-01  0.60421698222E+02  0.60878946847E+02  0.74470750000E+01 0. -1.
        -31    1    1    2    0    0 -0.70420025059E-01 -0.25847967812E-01  0.58889550970E+02  0.59358603139E+02  0.74470750000E+01 0.  1.
<mgrwt>
<rscale>  0 0.14896115E+02</rscale>
<asrwt>0</asrwt>
<pdfrwt beam="2">  1        2 0.98372358E+00 0.14896115E+02</pdfrwt>
<pdfrwt beam="1">  1       -2 0.99420819E+00 0.14896115E+02</pdfrwt>
<totfact>-0.42455519E-13</totfact>
</mgrwt>
</event>
<event>
 4    1 -0.5011189E-019  0.1495063E+02  0.7818608E-02  0.1869579E+00
         -2   -1    0    0    0  501 -0.00000000000E+00  0.00000000000E+00  0.11963847316E+03  0.11963847319E+03  0.25500000000E-02 0.  1.
          2   -1    0    0  501    0  0.00000000000E+00 -0.00000000000E+00 -0.46707315661E+00  0.46708011746E+00  0.25500000000E-02 0. -1.
         31    1    1    2    0    0  0.39816706691E+00  0.20991073262E+00  0.55827840733E+02  0.56324145146E+02  0.74470750000E+01 0. -1.
        -31    1    1    2    0    0 -0.39816706691E+00 -0.20991073262E+00  0.63343559272E+02  0.63781408160E+02  0.74470750000E+01 0.  1.
<mgrwt>
<rscale>  0 0.14950631E+02</rscale>
<asrwt>0</asrwt>
<pdfrwt beam="2">  1        2 0.99202611E+00 0.14950631E+02</pdfrwt>
<pdfrwt beam="1">  1       -2 0.99311675E+00 0.14950631E+02</pdfrwt>
<totfact>-0.13376341E-13</totfact>
</mgrwt>
</event>
<event>
 4    1 -0.5011189E-019  0.1496647E+02  0.7818608E-02  0.1869094E+00
         -2   -1    0    0    0  501 -0.00000000000E+00  0.00000000000E+00  0.12037856169E+03  0.12037856172E+03  0.25500000000E-02 0. -1.
          2   -1    0    0  501    0  0.00000000000E+00 -0.00000000000E+00 -0.46518540639E+00  0.46519239549E+00  0.25500000000E-02 0.  1.
         31    1    1    2    0    0 -0.96228859971E-02 -0.71357102667E+00  0.58544913208E+02  0.59020971399E+02  0.74470750000E+01 0.  1.
        -31    1    1    2    0    0  0.96228859971E-02  0.71357102667E+00  0.61368463074E+02  0.61822782713E+02  0.74470750000E+01 0. -1.
<mgrwt>
<rscale>  0 0.14966466E+02</rscale>
<asrwt>0</asrwt>
<pdfrwt beam="2">  1        2 0.98805579E+00 0.14966466E+02</pdfrwt>
<pdfrwt beam="1">  1       -2 0.99922071E+00 0.14966466E+02</pdfrwt>
<totfact>-0.57166444E-14</totfact>
</mgrwt>
</event>
<event>
 4    1 -0.5011189E-019  0.1490935E+02  0.7818608E-02  0.1870847E+00
         -2   -1    0    0    0  501 -0.00000000000E+00  0.00000000000E+00  0.12028504528E+03  0.12028504531E+03  0.25500000000E-02 0. -1.
          2   -1    0    0  501    0  0.00000000000E+00 -0.00000000000E+00 -0.46200044543E+00  0.46200748270E+00  0.25500000000E-02 0.  1.
         31    1    1    2    0    0  0.13335224037E+00 -0.25573264673E+00  0.61315737202E+02  0.61766995530E+02  0.74470750000E+01 0. -1.
        -31    1    1    2    0    0 -0.13335224037E+00  0.25573264673E+00  0.58507307635E+02  0.58980057263E+02  0.74470750000E+01 0. -1.
<mgrwt>
<rscale>  0 0.14909349E+02</rscale>
<asrwt>0</asrwt>
<pdfrwt beam="2">  1        2 0.98131397E+00 0.14909349E+02</pdfrwt>
<pdfrwt beam="1">  1       -2 0.99842111E+00 0.14909349E+02</pdfrwt>
<totfact>-0.31416263E-13</totfact>
</mgrwt>
</event>
<event>
 4    1 -0.5011189E-019  0.1497744E+02  0.7818608E-02  0.1868758E+00
         -2   -1    0    0    0  501 -0.00000000000E+00  0.00000000000E+00  0.12007913335E+03  0.12007913337E+03  0.25500000000E-02 0.  1.
          2   -1    0    0  501    0  0.00000000000E+00 -0.00000000000E+00 -0.46702937635E+00  0.46703633785E+00  0.25500000000E-02 0. -1.
         31    1    1    2    0    0  0.78330232405E+00  0.90979305613E-01  0.59711447724E+02  0.60179213647E+02  0.74470750000E+01 0.  1.
        -31    1    1    2    0    0 -0.78330232405E+00 -0.90979305613E-01  0.59900656246E+02  0.60366956064E+02  0.74470750000E+01 0.  1.
<mgrwt>
<rscale>  0 0.14977437E+02</rscale>
<asrwt>0</asrwt>
<pdfrwt beam="2">  1        2 0.99194764E+00 0.14977437E+02</pdfrwt>
<pdfrwt beam="1">  1       -2 0.99676007E+00 0.14977437E+02</pdfrwt>
<totfact>-0.12773230E-13</totfact>
</mgrwt>
</event>
<event>
 4    1  0.5011189E-019  0.1491059E+02  0.7818608E-02  0.1870809E+00
         -2   -1    0    0    0  501 -0.00000000000E+00  0.00000000000E+00  0.11832158515E+03  0.11832158518E+03  0.25500000000E-02 0.  1.
          2   -1    0    0  501    0  0.00000000000E+00 -0.00000000000E+00 -0.46974557902E+00  0.46975250027E+00  0.25500000000E-02 0. -1.
         31    1    1    2    0    0 -0.17483548415E+00  0.24570877953E+00  0.57509961348E+02  0.57990908948E+02  0.74470750000E+01 0. -1.
        -31    1    1    2    0    0  0.17483548415E+00 -0.24570877953E+00  0.60341878221E+02  0.60800428728E+02  0.74470750000E+01 0. -1.
<mgrwt>
<rscale>  0 0.14910594E+02</rscale>
<asrwt>0</asrwt>
<pdfrwt beam="2">  1        2 0.99763641E+00 0.14910594E+02</pdfrwt>
<pdfrwt beam="1">  1       -2 0.98224989E+00 0.14910594E+02</pdfrwt>
<totfact> 0.58195771E-13</totfact>
</mgrwt>
</event>
<event>
 4    1 -0.5011189E-019  0.1497679E+02  0.7818608E-02  0.1868778E+00
         -2   -1    0    0    0  501 -0.00000000000E+00  0.00000000000E+00  0.12006118554E+03  0.12006118557E+03  0.25500000000E-02 0. -1.
          2   -1    0    0  501    0  0.00000000000E+00 -0.00000000000E+00 -0.46705873384E+00  0.46706569491E+00  0.25500000000E-02 0.  1.
         31    1    1    2    0    0  0.13136897625E+00  0.67435473014E+00  0.62862668795E+02  0.63305971805E+02  0.74470750000E+01 0.  1.
        -31    1    1    2    0    0 -0.13136897625E+00 -0.67435473014E+00  0.56731458013E+02  0.57222279459E+02  0.74470750000E+01 0.  1.
<mgrwt>
<rscale>  0 0.14976788E+02</rscale>
<asrwt>0</asrwt>
<pdfrwt beam="2">  1        2 0.99200917E+00 0.14976788E+02</pdfrwt>
<pdfrwt beam="1">  1       -2 0.99661191E+00 0.14976788E+02</pdfrwt>
<totfact>-0.13054173E-13</totfact>
</mgrwt>
</event>
<event>
 4    1  0.5011189E-019  0.1492814E+02  0.7818608E-02  0.1870269E+00
          2   -1    0    0  501    0  0.00000000000E+00  0.00000000000E+00  0.11970897701E+03  0.11970897704E+03  0.25500000000E-02 0.  1.
         -2   -1    0    0    0  501 -0.00000000000E+00 -0.00000000000E+00 -0.46539460383E+00  0.46540158979E+00  0.25500000000E-02 0. -1.
         31    1    1    2    0    0 -0.30811791300E+00 -0.30097609653E+00  0.57524349114E+02  0.58005992710E+02  0.74470750000E+01 0. -1.
        -31    1    1    2    0    0  0.30811791300E+00  0.30097609653E+00  0.61719233295E+02  0.62168385920E+02  0.74470750000E+01 0.  1.
<mgrwt>
<rscale>  0 0.14928139E+02</rscale>
<asrwt>0</asrwt>
<pdfrwt beam="1">  1        2 0.99368584E+00 0.14928139E+02</pdfrwt>
<pdfrwt beam="2">  1       -2 0.98847712E+00 0.14928139E+02</pdfrwt>
<totfact> 0.12545653E-13</totfact>
</mgrwt>
</event>
<event>
 4    1  0.5011189E-019  0.1489604E+02  0.7818608E-02  0.1871258E+00
          2   -1    0    0  501    0  0.00000000000E+00  0.00000000000E+00  0.11974041272E+03  0.11974041275E+03  0.25500000000E-02 0. -1.
         -2   -1    0    0    0  501 -0.00000000000E+00 -0.00000000000E+00 -0.46327372389E+00  0.46328074183E+00  0.25500000000E-02 0.  1.
         31    1    1    2    0    0 -0.24974123928E-02 -0.11864887203E+00  0.59644151858E+02  0.60107386075E+02  0.74470750000E+01 0. -1.
        -31    1    1    2    0    0  0.24974123928E-02  0.11864887203E+00  0.59632987142E+02  0.60096307419E+02  0.74470750000E+01 0. -1.
<mgrwt>
<rscale>  0 0.14896041E+02</rscale>
<asrwt>0</asrwt>
<pdfrwt beam="1">  1        2 0.99392824E+00 0.14896041E+02</pdfrwt>
<pdfrwt beam="2">  1       -2 0.98399089E+00 0.14896041E+02</pdfrwt>
<totfact> 0.69657893E-13</totfact>
</mgrwt>
</event>
<event>
 4    1 -0.5011189E-019  0.1495492E+02  0.7818608E-02  0.1869447E+00
          2   -1    0    0  501    0  0.00000000000E+00  0.00000000000E+00  0.11898669649E+03  0.11898669652E+03  0.25500000000E-02 0. -1.
         -2   -1    0    0    0  501 -0.00000000000E+00 -0.00000000000E+00 -0.46990140467E+00  0.46990832363E+00  0.25500000000E-02 0.  1.
         31    1    1    2    0    0  0.44640347088E+00 -0.35746642663E+00  0.56418000006E+02  0.56910251353E+02  0.74470750000E+01 0.  1.
        -31    1    1    2    0    0 -0.44640347088E+00  0.35746642663E+00  0.62098795078E+02  0.62546353487E+02  0.74470750000E+01 0. -1.
<mgrwt>
<rscale>  0 0.14954923E+02</rscale>
<asrwt>0</asrwt>
<pdfrwt beam="1">  1        2 0.98775079E+00 0.14954923E+02</pdfrwt>
<pdfrwt beam="2">  1       -2 0.99798810E+00 0.14954923E+02</pdfrwt>
<totfact>-0.13766789E-13</totfact>
</mgrwt>
</event>
<event>
 4    1 -0.5011189E-019  0.1497490E+02  0.7818608E-02  0.1868835E+00
          2   -1    0    0  501    0  0.00000000000E+00  0.00000000000E+00  0.11917999765E+03  0.11917999768E+03  0.25500000000E-02 0.  1.
         -2   -1    0    0    0  501 -0.00000000000E+00 -0.00000000000E+00 -0.47039341178E+00  0.47040032350E+00  0.25500000000E-02 0. -1.
         31    1    1    2    0    0 -0.59423514818E+00  0.28113930252E+00  0.62657126150E+02  0.63101557335E+02  0.74470750000E+01 0. -1.
        -31    1    1    2    0    0  0.59423514818E+00 -0.28113930252E+00  0.56052478093E+02  0.56548840670E+02  0.74470750000E+01 0. -1.
<mgrwt>
<rscale>  0 0.14974899E+02</rscale>
<asrwt>0</asrwt>
<pdfrwt beam="1">  1        2 0.98935321E+00 0.14974899E+02</pdfrwt>
<pdfrwt beam="2">  1       -2 0.99903529E+00 0.14974899E+02</pdfrwt>
<totfact>-0.59953818E-14</totfact>
</mgrwt>
</event>
<event>
 4    1 -0.5011189E-019  0.1494386E+02  0.7818608E-02  0.1869787E+00
          2   -1    0    0  501    0  0.00000000000E+00  0.00000000000E+00  0.11918585122E+03  0.11918585125E+03  0.25500000000E-02 0. -1.
         -2   -1    0    0    0  501 -0.00000000000E+00 -0.00000000000E+00 -0.46842227281E+00  0.46842921361E+00  0.25500000000E-02 0.  1.
         31    1    1    2    0    0  0.20874781516E+00 -0.42734053021E+00  0.56313951462E+02  0.56806216657E+02  0.74470750000E+01 0.  1.
        -31    1    1    2    0    0 -0.20874781516E+00  0.42734053021E+00  0.62403477487E+02  0.62848063806E+02  0.74470750000E+01 0. -1.
<mgrwt>
<rscale>  0 0.14943858E+02</rscale>
<asrwt>0</asrwt>
<pdfrwt beam="1">  1        2 0.98938531E+00 0.14943858E+02</pdfrwt>
<pdfrwt beam="2">  1       -2 0.99486557E+00 0.14943858E+02</pdfrwt>
<totfact>-0.19030244E-13</totfact>
</mgrwt>
</event>
<event>
 4    1  0.5011189E-019  0.1493781E+02  0.7818608E-02  0.1869972E+00
         -2   -1    0    0    0  501 -0.00000000000E+00  0.00000000000E+00  0.11869938803E+03  0.11869938806E+03  0.25500000000E-02 0. -1.
          2   -1    0    0  501    0  0.00000000000E+00 -0.00000000000E+00 -0.46996145206E+00  0.46996837013E+00  0.25500000000E-02 0.  1.
         31    1    1    2    0    0 -0.28527268843E+00  0.45397510967E-01  0.55188720020E+02  0.55689650609E+02  0.74470750000E+01 0. -1.
        -31    1    1    2    0    0  0.28527268843E+00 -0.45397510967E-01  0.63040706560E+02  0.63479705821E+02  0.74470750000E+01 0. -1.
<mgrwt>
<rscale>  0 0.14937811E+02</rscale>
<asrwt>0</asrwt>
<pdfrwt beam="2">  1        2 0.99810562E+00 0.14937811E+02</pdfrwt>
<pdfrwt beam="1">  1       -2 0.98537562E+00 0.14937811E+02</pdfrwt>
<totfact> 0.22874990E-13</totfact>
</mgrwt>
</event>
<event>
 4    1  0.5011189E-019  0.1491771E+02  0.7818608E-02  0.1870590E+00
         -2   -1    0    0    0  501 -0.00000000000E+00  0.00000000000E+00  0.11838166230E+03  0.11838166233E+03  0.25500000000E-02 0. -1.
          2   -1    0    0  501    0  0.00000000000E+00 -0.00000000000E+00 -0.46995521385E+00  0.46996213201E+00  0.25500000000E-02 0.  1.
         31    1    1    2    0    0  0.28964734221E+00 -0.56291089660E-01  0.56585685015E+02  0.57074387767E+02  0.74470750000E+01 0.  1.
        -31    1    1    2    0    0 -0.28964734221E+00  0.56291089660E-01  0.61326022071E+02  0.61777236693E+02  0.74470750000E+01 0. -1.
<mgrwt>
<rscale>  0 0.14917707E+02</rscale>
<asrwt>0</asrwt>
<pdfrwt beam="2">  1        2 0.99808186E+00 0.14917707E+02</pdfrwt>
<pdfrwt beam="1">  1       -2 0.98274839E+00 0.14917707E+02</pdfrwt>
<totfact> 0.44704680E-13</totfact>
</mgrwt>
</event>
<event>
 4    1  0.5011189E-019  0.1490765E+02  0.7818608E-02  0.1870900E+00
         -2   -1    0    0    0  501 -0.00000000000E+00  0.00000000000E+00  0.11887632069E+03  0.11887632071E+03  0.25500000000E-02 0. -1.
          2   -1    0    0  501    0  0.00000000000E+00 -0.00000000000E+00 -0.46736895102E+00  0.46737590746E+00  0.25500000000E-02 0.  1.
         31    1    1    2    0    0 -0.67524529136E-01 -0.30272877272E+00  0.59734760609E+02  0.60197979662E+02  0.74470750000E+01 0. -1.
        -31    1    1    2    0    0  0.67524529136E-01  0.30272877272E+00  0.58674191126E+02  0.59145716959E+02  0.74470750000E+01 0. -1.
<mgrwt>
<rscale>  0 0.14907651E+02</rscale>
<asrwt>0</asrwt>
<pdfrwt beam="2">  1        2 0.99262713E+00 0.14907651E+02</pdfrwt>
<pdfrwt beam="1">  1       -2 0.98681718E+00 0.14907651E+02</pdfrwt>
<totfact> 0.32111835E-13</totfact>
</mgrwt>
</event>
<event>
 4    1  0.5011189E-019  0.1491796E+02  0.7818608E-02  0.1870582E+00
          2   -1    0    0  501    0  0.00000000000E+00  0.00000000000E+00  0.12011505880E+03  0.12011505883E+03  0.25500000000E-02 0.  1.
         -2   -1    0    0    0  501 -0.00000000000E+00 -0.00000000000E+00 -0.46318909717E+00  0.46319611639E+00  0.25500000000E-02 0. -1.
         31    1    1    2    0    0  0.26115796762E+00 -0.29041687024E+00  0.61102369593E+02  0.61555755551E+02  0.74470750000E+01 0. -1.
        -31    1    1    2    0    0 -0.26115796762E+00  0.29041687024E+00  0.58549500113E+02  0.59022499396E+02  0.74470750000E+01 0. -1.
<mgrwt>
<rscale>  0 0.14917964E+02</rscale>
<asrwt>0</asrwt>
<pdfrwt beam="1">  1        2 0.99702538E+00 0.14917964E+02</pdfrwt>
<pdfrwt beam="2">  1       -2 0.98382367E+00 0.14917964E+02</pdfrwt>
<totfact> 0.48359663E-13</totfact>
</mgrwt>
</event>
<event>
 4    1  0.5011189E-019  0.1493157E+02  0.7818608E-02  0.1870164E+00
          2   -1    0    0  501    0  0.00000000000E+00  0.00000000000E+00  0.12034856385E+03  0.12034856388E+03  0.25500000000E-02 0.  1.
         -2   -1    0    0    0  501 -0.00000000000E+00 -0.00000000000E+00 -0.46313396811E+00  0.46314098817E+00  0.25500000000E-02 0. -1.
         31    1    1    2    0    0  0.37488584351E+00  0.22320213889E+00  0.57533694790E+02  0.58015302471E+02  0.74470750000E+01 0. -1.
        -31    1    1    2    0    0 -0.37488584351E+00 -0.22320213889E+00  0.62351735091E+02  0.62796402393E+02  0.74470750000E+01 0. -1.
<mgrwt>
<rscale>  0 0.14931568E+02</rscale>
<asrwt>0</asrwt>
<pdfrwt beam="1">  1        2 0.99895570E+00 0.14931568E+02</pdfrwt>
<pdfrwt beam="2">  1       -2 0.98371435E+00 0.14931568E+02</pdfrwt>
<totfact> 0.21563203E-13</totfact>
</mgrwt>
</event>
<event>
 4    1 -0.5011189E-019  0.1491560E+02  0.7818608E-02  0.1870655E+00
         -2   -1    0    0    0  501 -0.00000000000E+00  0.00000000000E+00  0.12018044057E+03  0.12018044060E+03  0.25500000000E-02 0.  1.
          2   -1    0    0  501    0  0.00000000000E+00 -0.00000000000E+00 -0.46279010938E+00  0.46279713465E+00  0.25500000000E-02 0. -1.
         31    1    1    2    0    0  0.38592982156E+00  0.86800614161E-01  0.59391205638E+02  0.59857586899E+02  0.74470750000E+01 0. -1.
        -31    1    1    2    0    0 -0.38592982156E+00 -0.86800614161E-01  0.60326444826E+02  0.60785650836E+02  0.74470750000E+01 0. -1.
<mgrwt>
<rscale>  0 0.14915595E+02</rscale>
<asrwt>0</asrwt>
<pdfrwt beam="2">  1        2 0.98298153E+00 0.14915595E+02</pdfrwt>
<pdfrwt beam="1">  1       -2 0.99756270E+00 0.14915595E+02</pdfrwt>
<totfact>-0.33648968E-13</totfact>
</mgrwt>
</event>
<event>
 4    1 -0.5011189E-019  0.1498995E+02  0.7818608E-02  0.1868375E+00
         -2   -1    0    0    0  501 -0.00000000000E+00  0.00000000000E+00  0.11997359800E+03  0.11997359803E+03  0.25500000000E-02 0.  1.
          2   -1    0    0  501    0  0.00000000000E+00 -0.00000000000E+00 -0.46822163522E+00  0.46822857899E+00  0.25500000000E-02 0. -1.
         31    1    1    2    0    0 -0.68707360197E+00 -0.36635146869E+00  0.57094571804E+02  0.57583464111E+02  0.74470750000E+01 0.  1.
        -31    1    1    2    0    0  0.68707360197E+00  0.36635146869E+00  0.62410804562E+02  0.62858362496E+02  0.74470750000E+01 0.  1.
<mgrwt>
<rscale>  0 0.14989951E+02</rscale>
<asrwt>0</asrwt>
<pdfrwt beam="2">  1        2 0.99446667E+00 0.14989951E+02</pdfrwt>
<pdfrwt beam="1">  1       -2 0.99589729E+00 0.14989951E+02</pdfrwt>
<totfact>-0.11907169E-13</totfact>
</mgrwt>
</event>
<event>
 4    1  0.5011189E-019  0.1493306E+02  0.7818608E-02  0.1870118E+00
         -2   -1    0    0    0  501 -0.00000000000E+00  0.00000000000E+00  0.11847559046E+03  0.11847559049E+03  0.25500000000E-02 0. -1.
          2   -1    0    0  501    0  0.00000000000E+00 -0.00000000000E+00 -0.47054977594E+00  0.47055668536E+00  0.25500000000E-02 0.  1.
         31    1    1    2    0    0  0.11749399863E+00 -0.52014175125E+00  0.59608969572E+02  0.60074724567E+02  0.74470750000E+01 0.  1.
        -31    1    1    2    0    0 -0.11749399863E+00  0.52014175125E+00  0.58396071115E+02  0.58871422609E+02  0.74470750000E+01 0. -1.
<mgrwt>
<rscale>  0 0.14933061E+02</rscale>
<asrwt>0</asrwt>
<pdfrwt beam="2">  1        2 0.99934270E+00 0.14933061E+02</pdfrwt>
<pdfrwt beam="1">  1       -2 0.98352997E+00 0.14933061E+02</pdfrwt>
<totfact> 0.14795479E-13</totfact>
</mgrwt>
</event>
<event>
 4    1 -0.5011189E-019  0.1494960E+02  0.7818608E-02  0.1869610E+00
         -2   -1    0    0    0  501 -0.00000000000E+00  0.00000000000E+00  0.11944106556E+03  0.11944106559E+03  0.25500000000E-02 0. -1.
          2   -1    0    0  501    0  0.00000000000E+00 -0.00000000000E+00 -0.46778041186E+00  0.46778736218E+00  0.25500000000E-02 0.  1.
         31    1    1    2    0    0  0.12554469699E-01 -0.63265778609E+00  0.60410598386E+02  0.60871173284E+02  0.74470750000E+01 0.  1.
        -31    1    1    2    0    0 -0.12554469699E-01  0.63265778609E+00  0.58562686763E+02  0.59037679667E+02  0.74470750000E+01 0. -1.
<mgrwt>
<rscale>  0 0.14949597E+02</rscale>
<asrwt>0</asrwt>
<pdfrwt beam="2">  1        2 0.99351599E+00 0.14949597E+02</pdfrwt>
<pdfrwt beam="1">  1       -2 0.99149029E+00 0.14949597E+02</pdfrwt>
<totfact>-0.69926657E-14</totfact>
</mgrwt>
</event>
<event>
 4    1  0.5011189E-019  0.1492442E+02  0.7818608E-02  0.1870384E+00
          2   -1    0    0  501    0  0.00000000000E+00  0.00000000000E+00  0.11982229042E+03  0.11982229045E+03  0.25500000000E-02 0.  1.
         -2   -1    0    0    0  501 -0.00000000000E+00 -0.00000000000E+00 -0.46472264582E+00  0.46472964188E+00  0.25500000000E-02 0. -1.
         31    1    1    2    0    0  0.12218413216E+00 -0.10516623055E+00  0.63279960265E+02  0.63716860297E+02  0.74470750000E+01 0.  1.
        -31    1    1    2    0    0 -0.12218413216E+00  0.10516623055E+00  0.56077607511E+02  0.56570159794E+02  0.74470750000E+01 0. -1.
<mgrwt>
<rscale>  0 0.14924417E+02</rscale>
<asrwt>0</asrwt>
<pdfrwt beam="1">  1        2 0.99461724E+00 0.14924417E+02</pdfrwt>
<pdfrwt beam="2">  1       -2 0.98705906E+00 0.14924417E+02</pdfrwt>
<totfact> 0.24886286E-13</totfact>
</mgrwt>
</event>
<event>
 4    1 -0.5011189E-019  0.1500037E+02  0.7818608E-02  0.1868057E+00
          2   -1    0    0  501    0  0.00000000000E+00  0.00000000000E+00  0.11977313791E+03  0.11977313793E+03  0.25500000000E-02 0.  1.
         -2   -1    0    0    0  501 -0.00000000000E+00 -0.00000000000E+00 -0.46965741836E+00  0.46966434090E+00  0.25500000000E-02 0. -1.
         31    1    1    2    0    0 -0.65122816820E+00 -0.46985330412E+00  0.62745686607E+02  0.63191177977E+02  0.74470750000E+01 0. -1.
        -31    1    1    2    0    0  0.65122816820E+00  0.46985330412E+00  0.56557793880E+02  0.57051624297E+02  0.74470750000E+01 0. -1.
<mgrwt>
<rscale>  0 0.15000368E+02</rscale>
<asrwt>0</asrwt>
<pdfrwt beam="1">  1        2 0.99425162E+00 0.15000368E+02</pdfrwt>
<pdfrwt beam="2">  1       -2 0.99749771E+00 0.15000368E+02</pdfrwt>
<totfact>-0.90387195E-14</totfact>
</mgrwt>
</event>
<event>
 4    1  0.5011189E-019  0.1494744E+02  0.7818608E-02  0.1869677E+00
         -2   -1    0    0    0  501 -0.00000000000E+00  0.00000000000E+00  0.11884150994E+03  0.11884150997E+03  0.25500000000E-02 0.  1.
          2   -1    0    0  501    0  0.00000000000E+00 -0.00000000000E+00 -0.47000479482E+00  0.47001171225E+00  0.25500000000E-02 0. -1.
         31    1    1    2    0    0  0.60323345587E-01  0.61560789163E+00  0.60161909708E+02  0.60624227152E+02  0.74470750000E+01 0.  1.
        -31    1    1    2    0    0 -0.60323345587E-01 -0.61560789163E+00  0.58209595440E+02  0.58687294531E+02  0.74470750000E+01 0. -1.
<mgrwt>
<rscale>  0 0.14947440E+02</rscale>
<asrwt>0</asrwt>
<pdfrwt beam="2">  1        2 0.99820202E+00 0.14947440E+02</pdfrwt>
<pdfrwt beam="1">  1       -2 0.98655114E+00 0.14947440E+02</pdfrwt>
<totfact> 0.14817446E-13</totfact>
</mgrwt>
</event>
<event>
 4    1 -0.5011189E-019  0.1496160E+02  0.7818608E-02  0.1869243E+00
         -2   -1    0    0    0  501 -0.00000000000E+00  0.00000000000E+00  0.12018744273E+03  0.12018744276E+03  0.25500000000E-02 0. -1.
          2   -1    0    0  501    0  0.00000000000E+00 -0.00000000000E+00 -0.46562225547E+00  0.46562923801E+00  0.25500000000E-02 0.  1.
         31    1    1    2    0    0  0.28767746052E+00  0.62231749095E+00  0.61334860770E+02  0.61789109956E+02  0.74470750000E+01 0. -1.
        -31    1    1    2    0    0 -0.28767746052E+00 -0.62231749095E+00  0.58386959703E+02  0.58863962038E+02  0.74470750000E+01 0.  1.
<mgrwt>
<rscale>  0 0.14961600E+02</rscale>
<asrwt>0</asrwt>
<pdfrwt beam="2">  1        2 0.98897401E+00 0.14961600E+02</pdfrwt>
<pdfrwt beam="1">  1       -2 0.99764402E+00 0.14961600E+02</pdfrwt>
<totfact>-0.13414450E-13</totfact>
</mgrwt>
</event>
<event>
 4    1  0.5011189E-019  0.1490624E+02  0.7818608E-02  0.1870943E+00
          2   -1    0    0  501    0  0.00000000000E+00  0.00000000000E+00  0.12034358035E+03  0.12034358038E+03  0.25500000000E-02 0. -1.
         -2   -1    0    0    0  501 -0.00000000000E+00 -0.00000000000E+00 -0.46158327986E+00  0.46159032350E+00  0.25500000000E-02 0.  1.
         31    1    1    2    0    0  0.29225159387E-01 -0.28919785658E-01  0.62350523558E+02  0.62793697172E+02  0.74470750000E+01 0. -1.
        -31    1    1    2    0    0 -0.29225159387E-01  0.28919785658E-01  0.57531473512E+02  0.58011473528E+02  0.74470750000E+01 0.  1.
<mgrwt>
<rscale>  0 0.14906242E+02</rscale>
<asrwt>0</asrwt>
<pdfrwt beam="1">  1        2 0.99890167E+00 0.14906242E+02</pdfrwt>
<pdfrwt beam="2">  1       -2 0.98043311E+00 0.14906242E+02</pdfrwt>
<totfact> 0.43776591E-13</totfact>
</mgrwt>
</event>
<event>
 4    1 -0.5011189E-019  0.1491881E+02  0.7818608E-02  0.1870556E+00
         -2   -1    0    0    0  501 -0.00000000000E+00  0.00000000000E+00  0.12025651357E+03  0.12025651360E+03  0.25500000000E-02 0. -1.
          2   -1    0    0  501    0  0.00000000000E+00 -0.00000000000E+00 -0.46269674864E+00  0.46270377533E+00  0.25500000000E-02 0.  1.
         31    1    1    2    0    0  0.16765909912E+00  0.25803691639E+00  0.57481486209E+02  0.57962702452E+02  0.74470750000E+01 0. -1.
        -31    1    1    2    0    0 -0.16765909912E+00 -0.25803691639E+00  0.62312330617E+02  0.62756514925E+02  0.74470750000E+01 0. -1.
<mgrwt>
<rscale>  0 0.14918810E+02</rscale>
<asrwt>0</asrwt>
<pdfrwt beam="2">  1        2 0.98278637E+00 0.14918810E+02</pdfrwt>
<pdfrwt beam="1">  1       -2 0.99819095E+00 0.14918810E+02</pdfrwt>
<totfact>-0.27485522E-13</totfact>
</mgrwt>
</event>
<event>
 4    1 -0.5011189E-019  0.1489758E+02  0.7818608E-02  0.1871210E+00
          2   -1    0    0  501    0  0.00000000000E+00  0.00000000000E+00  0.11820608145E+03  0.11820608148E+03  0.25500000000E-02 0. -1.
         -2   -1    0    0    0  501 -0.00000000000E+00 -0.00000000000E+00 -0.46938392745E+00  0.46939085403E+00  0.25500000000E-02 0.  1.
         31    1    1    2    0    0  0.63039639374E-01 -0.14455300777E+00  0.59071722003E+02  0.59539500636E+02  0.74470750000E+01 0.  1.
        -31    1    1    2    0    0 -0.63039639374E-01  0.14455300777E+00  0.58664975518E+02  0.59135971694E+02  0.74470750000E+01 0.  1.
<mgrwt>
<rscale>  0 0.14897577E+02</rscale>
<asrwt>0</asrwt>
<pdfrwt beam="1">  1        2 0.98129184E+00 0.14897577E+02</pdfrwt>
<pdfrwt beam="2">  1       -2 0.99686754E+00 0.14897577E+02</pdfrwt>
<totfact>-0.53184101E-13</totfact>
</mgrwt>
</event>
<event>
 4    1  0.5011189E-019  0.1489819E+02  0.7818608E-02  0.1871191E+00
          2   -1    0    0  501    0  0.00000000000E+00  0.00000000000E+00  0.12007414390E+03  0.12007414393E+03  0.25500000000E-02 0. -1.
         -2   -1    0    0    0  501 -0.00000000000E+00 -0.00000000000E+00 -0.46211917191E+00  0.46212620737E+00  0.25500000000E-02 0.  1.
         31    1    1    2    0    0 -0.47187966910E-01  0.88417219627E-01  0.58661269339E+02  0.59132169678E+02  0.74470750000E+01 0.  1.
        -31    1    1    2    0    0  0.47187966910E-01 -0.88417219627E-01  0.60950755388E+02  0.61404100455E+02  0.74470750000E+01 0. -1.
<mgrwt>
<rscale>  0 0.14898186E+02</rscale>
<asrwt>0</asrwt>
<pdfrwt beam="1">  1        2 0.99667822E+00 0.14898186E+02</pdfrwt>
<pdfrwt beam="2">  1       -2 0.98155858E+00 0.14898186E+02</pdfrwt>
<totfact> 0.84448534E-13</totfact>
</mgrwt>
</event>
<event>
 4    1 -0.5011189E-019  0.1499586E+02  0.7818608E-02  0.1868195E+00
          2   -1    0    0  501    0  0.00000000000E+00  0.00000000000E+00  0.11976886360E+03  0.11976886363E+03  0.25500000000E-02 0. -1.
         -2   -1    0    0    0  501 -0.00000000000E+00 -0.00000000000E+00 -0.46939177341E+00  0.46939869987E+00  0.25500000000E-02 0.  1.
         31    1    1    2    0    0 -0.28138665581E-01 -0.85721066207E+00  0.60902443399E+02  0.61362057820E+02  0.74470750000E+01 0. -1.
        -31    1    1    2    0    0  0.28138665581E-01  0.85721066207E+00  0.58397028430E+02  0.58876204509E+02  0.74470750000E+01 0.  1.
<mgrwt>
<rscale>  0 0.14995858E+02</rscale>
<asrwt>0</asrwt>
<pdfrwt beam="1">  1        2 0.99421408E+00 0.14995858E+02</pdfrwt>
<pdfrwt beam="2">  1       -2 0.99693559E+00 0.14995858E+02</pdfrwt>
<totfact>-0.10422648E-13</totfact>
</mgrwt>
</event>
<event>
 4    1  0.5011189E-019  0.1490790E+02  0.7818608E-02  0.1870892E+00
         -2   -1    0    0    0  501 -0.00000000000E+00  0.00000000000E+00  0.11820229856E+03  0.11820229859E+03  0.25500000000E-02 0. -1.
          2   -1    0    0  501    0  0.00000000000E+00 -0.00000000000E+00 -0.47004988041E+00  0.47005679717E+00  0.25500000000E-02 0.  1.
         31    1    1    2    0    0 -0.13934704997E+00  0.28145793934E+00  0.58373730841E+02  0.58847684870E+02  0.74470750000E+01 0. -1.
        -31    1    1    2    0    0  0.13934704997E+00 -0.28145793934E+00  0.59358517836E+02  0.59824670513E+02  0.74470750000E+01 0.  1.
<mgrwt>
<rscale>  0 0.14907902E+02</rscale>
<asrwt>0</asrwt>
<pdfrwt beam="2">  1        2 0.99827612E+00 0.14907902E+02</pdfrwt>
<pdfrwt beam="1">  1       -2 0.98126607E+00 0.14907902E+02</pdfrwt>
<totfact> 0.55174298E-13</totfact>
</mgrwt>
</event>
<event>
 4    1 -0.5011189E-019  0.1501404E+02  0.7818608E-02  0.1867640E+00
         -2   -1    0    0    0  501 -0.00000000000E+00  0.00000000000E+00  0.12018143306E+03  0.12018143309E+03  0.25500000000E-02 0. -1.
          2   -1    0    0  501    0  0.00000000000E+00 -0.00000000000E+00 -0.46891547623E+00  0.46892240973E+00  0.25500000000E-02 0.  1.
         31    1    1    2    0    0 -0.25037528224E+00  0.71893271797E+00  0.64379768255E+02  0.64813525121E+02  0.74470750000E+01 0. -1.
        -31    1    1    2    0    0  0.25037528224E+00 -0.71893271797E+00  0.55332749328E+02  0.55836830374E+02  0.74470750000E+01 0.  1.
<mgrwt>
<rscale>  0 0.15014041E+02</rscale>
<asrwt>0</asrwt>
<pdfrwt beam="2">  1        2 0.99594128E+00 0.15014041E+02</pdfrwt>
<pdfrwt beam="1">  1       -2 0.99762155E+00 0.15014041E+02</pdfrwt>
<totfact>-0.72433024E-14</totfact>
</mgrwt>
</event>
<event>
 4    1 -0.5011189E-019  0.1494270E+02  0.7818608E-02  0.1869822E+00
          2   -1    0    0  501    0  0.00000000000E+00  0.00000000000E+00  0.11942374356E+03  0.11942374359E+03  0.25500000000E-02 0.  1.
         -2   -1    0    0    0  501 -0.00000000000E+00 -0.00000000000E+00 -0.46741692205E+00  0.46742387778E+00  0.25500000000E-02 0. -1.
         31    1    1    2    0    0  0.10971517574E+00 -0.21303486588E+00  0.63907409265E+02  0.64340293023E+02  0.74470750000E+01 0.  1.
        -31    1    1    2    0    0 -0.10971517574E+00  0.21303486588E+00  0.55048917372E+02  0.55550874441E+02  0.74470750000E+01 0. -1.
<mgrwt>
<rscale>  0 0.14942704E+02</rscale>
<asrwt>0</asrwt>
<pdfrwt beam="1">  1        2 0.99134406E+00 0.14942704E+02</pdfrwt>
<pdfrwt beam="2">  1       -2 0.99274644E+00 0.14942704E+02</pdfrwt>
<totfact>-0.13113990E-13</totfact>
</mgrwt>
</event>
<event>
 4    1  0.5011189E-019  0.1492412E+02  0.7818608E-02  0.1870393E+00
         -2   -1    0    0    0  501 -0.00000000000E+00  0.00000000000E+00  0.11860682292E+03  0.11860682295E+03  0.25500000000E-02 0. -1.
          2   -1    0    0  501    0  0.00000000000E+00 -0.00000000000E+00 -0.46946634980E+00  0.46947327517E+00  0.25500000000E-02 0.  1.
         31    1    1    2    0    0 -0.85045341686E-01  0.77053980713E-01  0.55410338179E+02  0.55908654725E+02  0.74470750000E+01 0.  1.
        -31    1    1    2    0    0  0.85045341686E-01 -0.77053980713E-01  0.62727018394E+02  0.63167641500E+02  0.74470750000E+01 0. -1.
<mgrwt>
<rscale>  0 0.14924118E+02</rscale>
<asrwt>0</asrwt>
<pdfrwt beam="2">  1        2 0.99705522E+00 0.14924118E+02</pdfrwt>
<pdfrwt beam="1">  1       -2 0.98460613E+00 0.14924118E+02</pdfrwt>
<totfact> 0.39382917E-13</totfact>
</mgrwt>
</event>
<event>
 4    1  0.5011189E-019  0.1490399E+02  0.7818608E-02  0.1871012E+00
          2   -1    0    0  501    0  0.00000000000E+00  0.00000000000E+00  0.11987800166E+03  0.11987800169E+03  0.25500000000E-02 0.  1.
         -2   -1    0    0    0  501 -0.00000000000E+00 -0.00000000000E+00 -0.46323613587E+00  0.46324315437E+00  0.25500000000E-02 0. -1.
         31    1    1    2    0    0  0.13513849145E+00  0.83463841376E-01  0.61478087502E+02  0.61927694916E+02  0.74470750000E+01 0. -1.
        -31    1    1    2    0    0 -0.13513849145E+00 -0.83463841376E-01  0.57936678020E+02  0.58413549924E+02  0.74470750000E+01 0. -1.
<mgrwt>
<rscale>  0 0.14903992E+02</rscale>
<asrwt>0</asrwt>
<pdfrwt beam="1">  1        2 0.99506561E+00 0.14903992E+02</pdfrwt>
<pdfrwt beam="2">  1       -2 0.98391572E+00 0.14903992E+02</pdfrwt>
<totfact> 0.63988148E-13</totfact>
</mgrwt>
</event>
<event>
 4    1 -0.5011189E-019  0.1491519E+02  0.7818608E-02  0.1870667E+00
          2   -1    0    0  501    0  0.00000000000E+00  0.00000000000E+00  0.11819341323E+03  0.11819341326E+03  0.25500000000E-02 0.  1.
         -2   -1    0    0    0  501 -0.00000000000E+00 -0.00000000000E+00 -0.47054516517E+00  0.47055207466E+00  0.25500000000E-02 0. -1.
         31    1    1    2    0    0 -0.18648502832E+00 -0.28636677507E+00  0.57269414788E+02  0.57752589369E+02  0.74470750000E+01 0. -1.
        -31    1    1    2    0    0  0.18648502832E+00  0.28636677507E+00  0.60453453282E+02  0.60911375968E+02  0.74470750000E+01 0. -1.
<mgrwt>
<rscale>  0 0.14915194E+02</rscale>
<asrwt>0</asrwt>
<pdfrwt beam="1">  1        2 0.98119669E+00 0.14915194E+02</pdfrwt>
<pdfrwt beam="2">  1       -2 0.99932351E+00 0.14915194E+02</pdfrwt>
<totfact>-0.14813964E-13</totfact>
</mgrwt>
</event>
<event>
 4    1 -0.5011189E-019  0.1490573E+02  0.7818608E-02  0.1870959E+00
          2   -1    0    0  501    0  0.00000000000E+00  0.00000000000E+00  0.11821226654E+03  0.11821226657E+03  0.25500000000E-02 0. -1.
         -2   -1    0    0    0  501 -0.00000000000E+00 -0.00000000000E+00 -0.46987296615E+00  0.46987988552E+00  0.25500000000E-02 0.  1.
         31    1    1    2    0    0 -0.11109900093E+00 -0.21938297754E+00  0.60149186255E+02  0.60608943277E+02  0.74470750000E+01 0. -1.
        -31    1    1    2    0    0  0.11109900093E+00  0.21938297754E+00  0.57593207323E+02  0.58073203181E+02  0.74470750000E+01 0.  1.
<mgrwt>
<rscale>  0 0.14905725E+02</rscale>
<asrwt>0</asrwt>
<pdfrwt beam="1">  1        2 0.98134702E+00 0.14905725E+02</pdfrwt>
<pdfrwt beam="2">  1       -2 0.99790223E+00 0.14905725E+02</pdfrwt>
<totfact>-0.39512211E-13</totfact>
</mgrwt>
</event>
<event>
 4    1  0.5011189E-019  0.1493000E+02  0.7818608E-02  0.1870212E+00
          2   -1    0    0  501    0  0.00000000000E+00  0.00000000000E+00  0.11997246625E+03  0.11997246628E+03  0.25500000000E-02 0. -1.
         -2   -1    0    0    0  501 -0.00000000000E+00 -0.00000000000E+00 -0.46448832108E+00  0.46449532067E+00  0.25500000000E-02 0.  1.
         31    1    1    2    0    0  0.26160180055E+00  0.40308933092E+00  0.61292820063E+02  0.61745442211E+02  0.74470750000E+01 0. -1.
        -31    1    1    2    0    0 -0.26160180055E+00 -0.40308933092E+00  0.58215157868E+02  0.58691519388E+02  0.74470750000E+01 0.  1.
<mgrwt>
<rscale>  0 0.14930001E+02</rscale>
<asrwt>0</asrwt>
<pdfrwt beam="1">  1        2 0.99585706E+00 0.14930001E+02</pdfrwt>
<pdfrwt beam="2">  1       -2 0.98656806E+00 0.14930001E+02</pdfrwt>
<totfact> 0.26328718E-13</totfact>
</mgrwt>
</event>
<event>
 4    1 -0.5011189E-019  0.1491383E+02  0.7818608E-02  0.1870709E+00
         -2   -1    0    0    0  501 -0.00000000000E+00  0.00000000000E+00  0.11955607637E+03  0.11955607640E+03  0.25500000000E-02 0. -1.
          2   -1    0    0  501    0  0.00000000000E+00 -0.00000000000E+00 -0.46509713699E+00  0.46510412741E+00  0.25500000000E-02 0.  1.
         31    1    1    2    0    0  0.27089584409E+00 -0.49557651440E-01  0.61687483630E+02  0.62135983159E+02  0.74470750000E+01 0. -1.
        -31    1    1    2    0    0 -0.27089584409E+00  0.49557651440E-01  0.57403495606E+02  0.57885197368E+02  0.74470750000E+01 0.  1.
<mgrwt>
<rscale>  0 0.14913834E+02</rscale>
<asrwt>0</asrwt>
<pdfrwt beam="2">  1        2 0.98784288E+00 0.14913834E+02</pdfrwt>
<pdfrwt beam="1">  1       -2 0.99241910E+00 0.14913834E+02</pdfrwt>
<totfact>-0.17307351E-13</totfact>
</mgrwt>
</event>
<event>
 4    1 -0.5011189E-019  0.1502247E+02  0.7818608E-02  0.1867384E+00
          2   -1    0    0  501    0  0.00000000000E+00  0.00000000000E+00  0.12003430006E+03  0.12003430009E+03  0.25500000000E-02 0. -1.
         -2   -1    0    0    0  501 -0.00000000000E+00 -0.00000000000E+00 -0.47001744301E+00  0.47002436025E+00  0.25500000000E-02 0.  1.
         31    1    1    2    0    0  0.46384569000E+00 -0.83033307497E+00  0.61665106532E+02  0.62120438630E+02  0.74470750000E+01 0. -1.
        -31    1    1    2    0    0 -0.46384569000E+00  0.83033307497E+00  0.57899176088E+02  0.58383885821E+02  0.74470750000E+01 0. -1.
<mgrwt>
<rscale>  0 0.15022468E+02</rscale>
<asrwt>0</asrwt>
<pdfrwt beam="1">  1        2 0.99641407E+00 0.15022468E+02</pdfrwt>
<pdfrwt beam="2">  1       -2 0.99826785E+00 0.15022468E+02</pdfrwt>
<totfact>-0.52213729E-14</totfact>
</mgrwt>
</event>
<event>
 4    1 -0.5011189E-019  0.1490885E+02  0.7818608E-02  0.1870863E+00
          2   -1    0    0  501    0  0.00000000000E+00  0.00000000000E+00  0.11856691503E+03  0.11856691506E+03  0.25500000000E-02 0.  1.
         -2   -1    0    0    0  501 -0.00000000000E+00 -0.00000000000E+00 -0.46866418995E+00  0.46867112717E+00  0.25500000000E-02 0. -1.
         31    1    1    2    0    0 -0.32971373386E+00 -0.13149393635E-01  0.59256038614E+02  0.59723076967E+02  0.74470750000E+01 0.  1.
        -31    1    1    2    0    0  0.32971373386E+00  0.13149393635E-01  0.58842212229E+02  0.59312509221E+02  0.74470750000E+01 0.  1.
<mgrwt>
<rscale>  0 0.14908854E+02</rscale>
<asrwt>0</asrwt>
<pdfrwt beam="1">  1        2 0.98426951E+00 0.14908854E+02</pdfrwt>
<pdfrwt beam="2">  1       -2 0.99535700E+00 0.14908854E+02</pdfrwt>
<totfact>-0.38630976E-13</totfact>
</mgrwt>
</event>
<event>
 4    1 -0.5011189E-019  0.1500551E+02  0.7818608E-02  0.1867900E+00
          2   -1    0    0  501    0  0.00000000000E+00  0.00000000000E+00  0.12023087803E+03  0.12023087806E+03  0.25500000000E-02 0. -1.
         -2   -1    0    0    0  501 -0.00000000000E+00 -0.00000000000E+00 -0.46819043533E+00  0.46819737957E+00  0.25500000000E-02 0.  1.
         31    1    1    2    0    0  0.63381753933E+00  0.58790151368E+00  0.62227676281E+02  0.62677667269E+02  0.74470750000E+01 0. -1.
        -31    1    1    2    0    0 -0.63381753933E+00 -0.58790151368E+00  0.57535011314E+02  0.58021408168E+02  0.74470750000E+01 0.  1.
<mgrwt>
<rscale>  0 0.15005515E+02</rscale>
<asrwt>0</asrwt>
<pdfrwt beam="1">  1        2 0.99802440E+00 0.15005515E+02</pdfrwt>
<pdfrwt beam="2">  1       -2 0.99440893E+00 0.15005515E+02</pdfrwt>
<totfact>-0.64724335E-14</totfact>
</mgrwt>
</event>
<event>
 4    1 -0.5011189E-019  0.1500243E+02  0.7818608E-02  0.1867994E+00
         -2   -1    0    0    0  501 -0.00000000000E+00  0.00000000000E+00  0.11978520160E+03  0.11978520163E+03  0.25500000000E-02 0. -1.
          2   -1    0    0  501    0  0.00000000000E+00 -0.00000000000E+00 -0.46973936142E+00  0.46974628276E+00  0.25500000000E-02 0.  1.
         31    1    1    2    0    0  0.74613048864E+00 -0.16389765664E+00  0.55849282146E+02  0.56348778296E+02  0.74470750000E+01 0.  1.
        -31    1    1    2    0    0 -0.74613048864E+00  0.16389765664E+00  0.63466180092E+02  0.63906169613E+02  0.74470750000E+01 0. -1.
<mgrwt>
<rscale>  0 0.15002432E+02</rscale>
<asrwt>0</asrwt>
<pdfrwt beam="2">  1        2 0.99767146E+00 0.15002432E+02</pdfrwt>
<pdfrwt beam="1">  1       -2 0.99435205E+00 0.15002432E+02</pdfrwt>
<totfact>-0.73244194E-14</totfact>
</mgrwt>
</event>
<event>
 4    1 -0.5011189E-019  0.1497440E+02  0.7818608E-02  0.1868851E+00
         -2   -1    0    0    0  501 -0.00000000000E+00  0.00000000000E+00  0.11975202046E+03  0.11975202048E+03  0.25500000000E-02 0.  1.
          2   -1    0    0  501    0  0.00000000000E+00 -0.00000000000E+00 -0.46811519135E+00  0.46812213670E+00  0.25500000000E-02 0. -1.
         31    1    1    2    0    0 -0.35084096550E+00 -0.54487087038E+00  0.56242814793E+02  0.56737404906E+02  0.74470750000E+01 0.  1.
        -31    1    1    2    0    0  0.35084096550E+00  0.54487087038E+00  0.63041090471E+02  0.63482737713E+02  0.74470750000E+01 0.  1.
<mgrwt>
<rscale>  0 0.14974399E+02</rscale>
<asrwt>0</asrwt>
<pdfrwt beam="2">  1        2 0.99423432E+00 0.14974399E+02</pdfrwt>
<pdfrwt beam="1">  1       -2 0.99406425E+00 0.14974399E+02</pdfrwt>
<totfact>-0.12585838E-13</totfact>
</mgrwt>
</event>
<event>
 4    1 -0.5011189E-019  0.1494687E+02  0.7818608E-02  0.1869694E+00
         -2   -1    0    0    0  501 -0.00000000000E+00  0.00000000000E+00  0.12023886761E+03  0.12023886764E+03  0.25500000000E-02 0. -1.
          2   -1    0    0  501    0  0.00000000000E+00 -0.00000000000E+00 -0.46450724643E+00  0.46451424573E+00  0.25500000000E-02 0.  1.
         31    1    1    2    0    0  0.52259505564E+00 -0.78114507090E-01  0.57159194639E+02  0.57644701971E+02  0.74470750000E+01 0. -1.
        -31    1    1    2    0    0 -0.52259505564E+00  0.78114507090E-01  0.62615165725E+02  0.63058679913E+02  0.74470750000E+01 0. -1.
<mgrwt>
<rscale>  0 0.14946872E+02</rscale>
<asrwt>0</asrwt>
<pdfrwt beam="2">  1        2 0.98661653E+00 0.14946872E+02</pdfrwt>
<pdfrwt beam="1">  1       -2 0.99806001E+00 0.14946872E+02</pdfrwt>
<totfact>-0.15660718E-13</totfact>
</mgrwt>
</event>
<event>
 4    1 -0.5011189E-019  0.1499558E+02  0.7818608E-02  0.1868203E+00
         -2   -1    0    0    0  501 -0.00000000000E+00  0.00000000000E+00  0.11984213021E+03  0.11984213024E+03  0.25500000000E-02 0. -1.
          2   -1    0    0  501    0  0.00000000000E+00 -0.00000000000E+00 -0.46908772124E+00  0.46909465220E+00  0.25500000000E-02 0.  1.
         31    1    1    2    0    0  0.76515481544E+00 -0.12576747674E+00  0.62862344775E+02  0.63306671023E+02  0.74470750000E+01 0. -1.
        -31    1    1    2    0    0 -0.76515481544E+00  0.12576747674E+00  0.56510697718E+02  0.57004553870E+02  0.74470750000E+01 0.  1.
<mgrwt>
<rscale>  0 0.14995585E+02</rscale>
<asrwt>0</asrwt>
<pdfrwt beam="2">  1        2 0.99629472E+00 0.14995585E+02</pdfrwt>
<pdfrwt beam="1">  1       -2 0.99481738E+00 0.14995585E+02</pdfrwt>
<totfact>-0.10107036E-13</totfact>
</mgrwt>
</event>
<event>
 4    1  0.5011189E-019  0.1491654E+02  0.7818608E-02  0.1870626E+00
          2   -1    0    0  501    0  0.00000000000E+00  0.00000000000E+00  0.11954597100E+03  0.11954597103E+03  0.25500000000E-02 0. -1.
         -2   -1    0    0    0  501 -0.00000000000E+00 -0.00000000000E+00 -0.46530513193E+00  0.46531211923E+00  0.25500000000E-02 0.  1.
         31    1    1    2    0    0  0.10091456834E+00  0.28550656625E+00  0.57334761244E+02  0.57817172801E+02  0.74470750000E+01 0.  1.
        -31    1    1    2    0    0 -0.10091456834E+00 -0.28550656625E+00  0.61745904627E+02  0.62194110348E+02  0.74470750000E+01 0. -1.
<mgrwt>
<rscale>  0 0.14916538E+02</rscale>
<asrwt>0</asrwt>
<pdfrwt beam="1">  1        2 0.99233726E+00 0.14916538E+02</pdfrwt>
<pdfrwt beam="2">  1       -2 0.98828260E+00 0.14916538E+02</pdfrwt>
<totfact> 0.15782866E-13</totfact>
</mgrwt>
</event>
<event>
 4    1 -0.5011189E-019  0.1495993E+02  0.7818608E-02  0.1869294E+00
         -2   -1    0    0    0  501 -0.00000000000E+00  0.00000000000E+00  0.12031798309E+03  0.12031798312E+03  0.25500000000E-02 0.  1.
          2   -1    0    0  501    0  0.00000000000E+00 -0.00000000000E+00 -0.46501325776E+00  0.46502024945E+00  0.25500000000E-02 0. -1.
         31    1    1    2    0    0 -0.34903525471E-01 -0.46905120484E-01  0.54289070971E+02  0.54797496031E+02  0.74470750000E+01 0. -1.
        -31    1    1    2    0    0  0.34903525471E-01  0.46905120484E-01  0.65563898866E+02  0.65985507340E+02  0.74470750000E+01 0.  1.
<mgrwt>
<rscale>  0 0.14959931E+02</rscale>
<asrwt>0</asrwt>
<pdfrwt beam="2">  1        2 0.98768965E+00 0.14959931E+02</pdfrwt>
<pdfrwt beam="1">  1       -2 0.99871838E+00 0.14959931E+02</pdfrwt>
<totfact>-0.94558148E-14</totfact>
</mgrwt>
</event>
<event>
 4    1  0.5011189E-019  0.1491084E+02  0.7818608E-02  0.1870802E+00
         -2   -1    0    0    0  501 -0.00000000000E+00  0.00000000000E+00  0.11856962318E+03  0.11856962321E+03  0.25500000000E-02 0.  1.
          2   -1    0    0  501    0  0.00000000000E+00 -0.00000000000E+00 -0.46877828857E+00  0.46878522410E+00  0.25500000000E-02 0. -1.
         31    1    1    2    0    0 -0.19853529154E+00  0.17948796006E+00  0.57217357954E+02  0.57700577202E+02  0.74470750000E+01 0. -1.
        -31    1    1    2    0    0  0.19853529154E+00 -0.17948796006E+00  0.60883486942E+02  0.61337831233E+02  0.74470750000E+01 0.  1.
<mgrwt>
<rscale>  0 0.14910839E+02</rscale>
<asrwt>0</asrwt>
<pdfrwt beam="2">  1        2 0.99559845E+00 0.14910839E+02</pdfrwt>
<pdfrwt beam="1">  1       -2 0.98429285E+00 0.14910839E+02</pdfrwt>
<totfact> 0.54774975E-13</totfact>
</mgrwt>
</event>
<event>
 4    1  0.5011189E-019  0.1494897E+02  0.7818608E-02  0.1869630E+00
          2   -1    0    0  501    0  0.00000000000E+00  0.00000000000E+00  0.12026198839E+03  0.12026198842E+03  0.25500000000E-02 0. -1.
         -2   -1    0    0    0  501 -0.00000000000E+00 -0.00000000000E+00 -0.46454822538E+00  0.46455522407E+00  0.25500000000E-02 0.  1.
         31    1    1    2    0    0 -0.77600270721E-01  0.53467432543E+00  0.57135237089E+02  0.57621056410E+02  0.74470750000E+01 0.  1.
        -31    1    1    2    0    0  0.77600270721E-01 -0.53467432543E+00  0.62662203077E+02  0.63105487233E+02  0.74470750000E+01 0. -1.
<mgrwt>
<rscale>  0 0.14948969E+02</rscale>
<asrwt>0</asrwt>
<pdfrwt beam="1">  1        2 0.99825153E+00 0.14948969E+02</pdfrwt>
<pdfrwt beam="2">  1       -2 0.98670396E+00 0.14948969E+02</pdfrwt>
<totfact> 0.13668419E-13</totfact>
</mgrwt>
</event>
<event>
 4    1 -0.5011189E-019  0.1495857E+02  0.7818608E-02  0.1869335E+00
          2   -1    0    0  501    0  0.00000000000E+00  0.00000000000E+00  0.11934550777E+03  0.11934550780E+03  0.25500000000E-02 0.  1.
         -2   -1    0    0    0  501 -0.00000000000E+00 -0.00000000000E+00 -0.46871722980E+00  0.46872416623E+00  0.25500000000E-02 0. -1.
         31    1    1    2    0    0 -0.42479759940E+00  0.18691188507E+00  0.63564754196E+02  0.64001189763E+02  0.74470750000E+01 0.  1.
        -31    1    1    2    0    0  0.42479759940E+00 -0.18691188507E+00  0.55312036348E+02  0.55813042204E+02  0.74470750000E+01 0. -1.
<mgrwt>
<rscale>  0 0.14958571E+02</rscale>
<asrwt>0</asrwt>
<pdfrwt beam="1">  1        2 0.99070790E+00 0.14958571E+02</pdfrwt>
<pdfrwt beam="2">  1       -2 0.99549477E+00 0.14958571E+02</pdfrwt>
<totfact>-0.16406860E-13</totfact>
</mgrwt>
</event>
<event>
 4    1  0.5011189E-019  0.1492665E+02  0.7818608E-02  0.1870315E+00
          2   -1    0    0  501    0  0.00000000000E+00  0.00000000000E+00  0.11950025517E+03  0.11950025520E+03  0.25500000000E-02 0. -1.
         -2   -1    0    0    0  501 -0.00000000000E+00 -0.00000000000E+00 -0.46611431903E+00  0.46612129420E+00  0.25500000000E-02 0.  1.
         31    1    1    2    0    0 -0.25761613577E+00  0.17911190107E+00  0.62565086889E+02  0.63007519160E+02  0.74470750000E+01 0. -1.
        -31    1    1    2    0    0  0.25761613577E+00 -0.17911190107E+00  0.56469053964E+02  0.56958857334E+02  0.74470750000E+01 0.  1.
<mgrwt>
<rscale>  0 0.14926647E+02</rscale>
<asrwt>0</asrwt>
<pdfrwt beam="1">  1        2 0.99196594E+00 0.14926647E+02</pdfrwt>
<pdfrwt beam="2">  1       -2 0.98999310E+00 0.14926647E+02</pdfrwt>
<totfact> 0.11127412E-14</totfact>
</mgrwt>
</event>
<event>
 4    1  0.5011189E-019  0.1491588E+02  0.7818608E-02  0.1870646E+00
          2   -1    0    0  501    0  0.00000000000E+00  0.00000000000E+00  0.11958591484E+03  0.11958591487E+03  0.25500000000E-02 0.  1.
         -2   -1    0    0    0  501 -0.00000000000E+00 -0.00000000000E+00 -0.46510864729E+00  0.46511563754E+00  0.25500000000E-02 0. -1.
         31    1    1    2    0    0  0.33006070242E+00 -0.54399312866E-01  0.57759995148E+02  0.58239057899E+02  0.74470750000E+01 0. -1.
        -31    1    1    2    0    0 -0.33006070242E+00  0.54399312866E-01  0.61360811045E+02  0.61811972606E+02  0.74470750000E+01 0. -1.
<mgrwt>
<rscale>  0 0.14915879E+02</rscale>
<asrwt>0</asrwt>
<pdfrwt beam="1">  1        2 0.99266592E+00 0.14915879E+02</pdfrwt>
<pdfrwt beam="2">  1       -2 0.98786818E+00 0.14915879E+02</pdfrwt>
<totfact> 0.19693591E-13</totfact>
</mgrwt>
</event>
<event>
 4    1  0.5011189E-019  0.1492769E+02  0.7818608E-02  0.1870283E+00
         -2   -1    0    0    0  501 -0.00000000000E+00  0.00000000000E+00  0.11868413687E+03  0.11868413690E+03  0.25500000000E-02 0. -1.
          2   -1    0    0  501    0  0.00000000000E+00 -0.00000000000E+00 -0.46938526982E+00  0.46939219638E+00  0.25500000000E-02 0.  1.
         31    1    1    2    0    0 -0.18737193712E-01  0.13369744957E+00  0.62950776672E+02  0.63389884333E+02  0.74470750000E+01 0. -1.
        -31    1    1    2    0    0  0.18737193712E-01 -0.13369744957E+00  0.55263974933E+02  0.55763644765E+02  0.74470750000E+01 0.  1.
<mgrwt>
<rscale>  0 0.14927692E+02</rscale>
<asrwt>0</asrwt>
<pdfrwt beam="2">  1        2 0.99688626E+00 0.14927692E+02</pdfrwt>
<pdfrwt beam="1">  1       -2 0.98524475E+00 0.14927692E+02</pdfrwt>
<totfact> 0.34194613E-13</totfact>
</mgrwt>
</event>
<event>
 4    1 -0.5011189E-019  0.1495131E+02  0.7818608E-02  0.1869558E+00
         -2   -1    0    0    0  501 -0.00000000000E+00  0.00000000000E+00  0.12039644844E+03  0.12039644847E+03  0.25500000000E-02 0. -1.
          2   -1    0    0  501    0  0.00000000000E+00 -0.00000000000E+00 -0.46417504914E+00  0.46418205345E+00  0.25500000000E-02 0.  1.
         31    1    1    2    0    0  0.54983966696E+00  0.32091924738E+00  0.61143500307E+02  0.61598635283E+02  0.74470750000E+01 0. -1.
        -31    1    1    2    0    0 -0.54983966696E+00 -0.32091924738E+00  0.58788773088E+02  0.59261995243E+02  0.74470750000E+01 0.  1.
<mgrwt>
<rscale>  0 0.14951315E+02</rscale>
<asrwt>0</asrwt>
<pdfrwt beam="2">  1        2 0.98591863E+00 0.14951315E+02</pdfrwt>
<pdfrwt beam="1">  1       -2 0.99936026E+00 0.14951315E+02</pdfrwt>
<totfact>-0.64237993E-14</totfact>
</mgrwt>
</event>
<event>
 4    1 -0.5011189E-019  0.1498438E+02  0.7818608E-02  0.1868545E+00
          2   -1    0    0  501    0  0.00000000000E+00  0.00000000000E+00  0.11996594186E+03  0.11996594189E+03  0.25500000000E-02 0. -1.
         -2   -1    0    0    0  501 -0.00000000000E+00 -0.00000000000E+00 -0.46790382346E+00  0.46791077195E+00  0.25500000000E-02 0.  1.
         31    1    1    2    0    0 -0.17524317368E+00  0.34924628157E+00  0.53945818275E+02  0.54458818557E+02  0.74470750000E+01 0.  1.
        -31    1    1    2    0    0  0.17524317368E+00 -0.34924628157E+00  0.65552219761E+02  0.65975034102E+02  0.74470750000E+01 0. -1.
<mgrwt>
<rscale>  0 0.14984384E+02</rscale>
<asrwt>0</asrwt>
<pdfrwt beam="1">  1        2 0.99583136E+00 0.14984384E+02</pdfrwt>
<pdfrwt beam="2">  1       -2 0.99379404E+00 0.14984384E+02</pdfrwt>
<totfact>-0.10410341E-13</totfact>
</mgrwt>
</event>
<event>
 4    1 -0.5011189E-019  0.1494662E+02  0.7818608E-02  0.1869702E+00
         -2   -1    0    0    0  501 -0.00000000000E+00  0.00000000000E+00  0.11988426159E+03  0.11988426162E+03  0.25500000000E-02 0.  1.
          2   -1    0    0  501    0  0.00000000000E+00 -0.00000000000E+00 -0.46586536082E+00  0.46587233972E+00  0.25500000000E-02 0. -1.
         31    1    1    2    0    0  0.26281237390E+00  0.45177930502E+00  0.56940371067E+02  0.57427675890E+02  0.74470750000E+01 0. -1.
        -31    1    1    2    0    0 -0.26281237390E+00 -0.45177930502E+00  0.62478025162E+02  0.62922458066E+02  0.74470750000E+01 0.  1.
<mgrwt>
<rscale>  0 0.14946618E+02</rscale>
<asrwt>0</asrwt>
<pdfrwt beam="2">  1        2 0.98947870E+00 0.14946618E+02</pdfrwt>
<pdfrwt beam="1">  1       -2 0.99513911E+00 0.14946618E+02</pdfrwt>
<totfact>-0.18735514E-13</totfact>
</mgrwt>
</event>
<event>
 4    1  0.5011189E-019  0.1491847E+02  0.7818608E-02  0.1870567E+00
          2   -1    0    0  501    0  0.00000000000E+00  0.00000000000E+00  0.12033918803E+03  0.12033918806E+03  0.25500000000E-02 0. -1.
         -2   -1    0    0    0  501 -0.00000000000E+00 -0.00000000000E+00 -0.46235760650E+00  0.46236463834E+00  0.25500000000E-02 0.  1.
         31    1    1    2    0    0  0.26268307454E+00  0.17915587142E+00  0.62230723662E+02  0.62675537435E+02  0.74470750000E+01 0. -1.
        -31    1    1    2    0    0 -0.26268307454E+00 -0.17915587142E+00  0.57646106762E+02  0.58126015261E+02  0.74470750000E+01 0.  1.
<mgrwt>
<rscale>  0 0.14918467E+02</rscale>
<asrwt>0</asrwt>
<pdfrwt beam="1">  1        2 0.99887176E+00 0.14918467E+02</pdfrwt>
<pdfrwt beam="2">  1       -2 0.98207137E+00 0.14918467E+02</pdfrwt>
<totfact> 0.33019034E-13</totfact>
</mgrwt>
</event>
<event>
 4    1 -0.5011189E-019  0.1495994E+02  0.7818608E-02  0.1869293E+00
          2   -1    0    0  501    0  0.00000000000E+00  0.00000000000E+00  0.11918168137E+03  0.11918168140E+03  0.25500000000E-02 0.  1.
         -2   -1    0    0    0  501 -0.00000000000E+00 -0.00000000000E+00 -0.46944774276E+00  0.46945466840E+00  0.25500000000E-02 0. -1.
         31    1    1    2    0    0  0.56886999088E+00 -0.25986831102E+00  0.61884283212E+02  0.62333895910E+02  0.74470750000E+01 0.  1.
        -31    1    1    2    0    0 -0.56886999088E+00  0.25986831102E+00  0.56827950413E+02  0.57317240154E+02  0.74470750000E+01 0. -1.
<mgrwt>
<rscale>  0 0.14959945E+02</rscale>
<asrwt>0</asrwt>
<pdfrwt beam="1">  1        2 0.98935931E+00 0.14959945E+02</pdfrwt>
<pdfrwt beam="2">  1       -2 0.99703481E+00 0.14959945E+02</pdfrwt>
<totfact>-0.15139996E-13</totfact>
</mgrwt>
</event>
<event>
 4    1  0.5011189E-019  0.1491962E+02  0.7818608E-02  0.1870531E+00
         -2   -1    0    0    0  501 -0.00000000000E+00  0.00000000000E+00  0.11887873229E+03  0.11887873232E+03  0.25500000000E-02 0.  1.
          2   -1    0    0  501    0  0.00000000000E+00 -0.00000000000E+00 -0.46811023720E+00  0.46811718262E+00  0.25500000000E-02 0. -1.
         31    1    1    2    0    0  0.10811576359E+00 -0.34851335945E-01  0.62570145522E+02  0.63011863489E+02  0.74470750000E+01 0.  1.
        -31    1    1    2    0    0 -0.10811576359E+00  0.34851335945E-01  0.55840476531E+02  0.56334986011E+02  0.74470750000E+01 0. -1.
<mgrwt>
<rscale>  0 0.14919620E+02</rscale>
<asrwt>0</asrwt>
<pdfrwt beam="2">  1        2 0.99419540E+00 0.14919620E+02</pdfrwt>
<pdfrwt beam="1">  1       -2 0.98684325E+00 0.14919620E+02</pdfrwt>
<totfact> 0.28231639E-13</totfact>
</mgrwt>
</event>
<event>
 4    1  0.5011189E-019  0.1491664E+02  0.7818608E-02  0.1870623E+00
         -2   -1    0    0    0  501 -0.00000000000E+00  0.00000000000E+00  0.11846704303E+03  0.11846704306E+03  0.25500000000E-02 0.  1.
          2   -1    0    0  501    0  0.00000000000E+00 -0.00000000000E+00 -0.46954916841E+00  0.46955609255E+00  0.25500000000E-02 0. -1.
         31    1    1    2    0    0 -0.33982764623E+00 -0.22765408095E+00  0.58865403911E+02  0.59336009412E+02  0.74470750000E+01 0.  1.
        -31    1    1    2    0    0  0.33982764623E+00  0.22765408095E+00  0.59132089953E+02  0.59600589741E+02  0.74470750000E+01 0. -1.
<mgrwt>
<rscale>  0 0.14916637E+02</rscale>
<asrwt>0</asrwt>
<pdfrwt beam="2">  1        2 0.99722577E+00 0.14916637E+02</pdfrwt>
<pdfrwt beam="1">  1       -2 0.98345102E+00 0.14916637E+02</pdfrwt>
<totfact> 0.50335696E-13</totfact>
</mgrwt>
</event>
<event>
 4    1 -0.5011189E-019  0.1493294E+02  0.7818608E-02  0.1870122E+00
          2   -1    0    0  501    0  0.00000000000E+00  0.00000000000E+00  0.11905436286E+03  0.11905436289E+03  0.25500000000E-02 0.  1.
         -2   -1    0    0    0  501 -0.00000000000E+00 -0.00000000000E+00 -0.46825445005E+00  0.46826139334E+00  0.25500000000E-02 0. -1.
         31    1    1    2    0    0 -0.41822549429E+00  0.14106453213E-01  0.56589253546E+02  0.57078697029E+02  0.74470750000E+01 0.  1.
        -31    1    1    2    0    0  0.41822549429E+00 -0.14106453213E-01  0.61996854862E+02  0.62443927250E+02  0.74470750000E+01 0.  1.
<mgrwt>
<rscale>  0 0.14932937E+02</rscale>
<asrwt>0</asrwt>
<pdfrwt beam="1">  1        2 0.98829668E+00 0.14932937E+02</pdfrwt>
<pdfrwt beam="2">  1       -2 0.99450624E+00 0.14932937E+02</pdfrwt>
<totfact>-0.21509097E-13</totfact>
</mgrwt>
</event>
<event>
 4    1 -0.5011189E-019  0.1491088E+02  0.7818608E-02  0.1870800E+00
          2   -1    0    0  501    0  0.00000000000E+00  0.00000000000E+00  0.11837496176E+03  0.11837496179E+03  0.25500000000E-02 0.  1.
         -2   -1    0    0    0  501 -0.00000000000E+00 -0.00000000000E+00 -0.46955189746E+00  0.46955882156E+00  0.25500000000E-02 0. -1.
         31    1    1    2    0    0 -0.23221836599E+00  0.17696240797E+00  0.57369961585E+02  0.57852023814E+02  0.74470750000E+01 0. -1.
        -31    1    1    2    0    0  0.23221836599E+00 -0.17696240797E+00  0.60535448276E+02  0.60992496794E+02  0.74470750000E+01 0. -1.
<mgrwt>
<rscale>  0 0.14910882E+02</rscale>
<asrwt>0</asrwt>
<pdfrwt beam="1">  1        2 0.98268965E+00 0.14910882E+02</pdfrwt>
<pdfrwt beam="2">  1       -2 0.99722848E+00 0.14910882E+02</pdfrwt>
<totfact>-0.38763031E-13</totfact>
</mgrwt>
</event>
<event>
 4    1 -0.5011189E-019  0.1491176E+02  0.7818608E-02  0.1870773E+00
          2   -1    0    0  501    0  0.00000000000E+00  0.00000000000E+00  0.11855919810E+03  0.11855919813E+03  0.25500000000E-02 0.  1.
         -2   -1    0    0    0  501 -0.00000000000E+00 -0.00000000000E+00 -0.46887754112E+00  0.46888447518E+00  0.25500000000E-02 0. -1.
         31    1    1    2    0    0 -0.17811664431E+00  0.36696826899E-01  0.61546027949E+02  0.61995205900E+02  0.74470750000E+01 0.  1.
        -31    1    1    2    0    0  0.17811664431E+00 -0.36696826899E-01  0.56544292609E+02  0.57032876702E+02  0.74470750000E+01 0. -1.
<mgrwt>
<rscale>  0 0.14911762E+02</rscale>
<asrwt>0</asrwt>
<pdfrwt beam="1">  1        2 0.98420747E+00 0.14911762E+02</pdfrwt>
<pdfrwt beam="2">  1       -2 0.99580807E+00 0.14911762E+02</pdfrwt>
<totfact>-0.37812692E-13</totfact>
</mgrwt>
</event>
<event>
 4    1 -0.5011189E-019  0.1490867E+02  0.7818608E-02  0.1870868E+00
         -2   -1    0    0    0  501 -0.00000000000E+00  0.00000000000E+00  0.12018053433E+03  0.12018053436E+03  0.25500000000E-02 0. -1.
          2   -1    0    0  501    0  0.00000000000E+00 -0.00000000000E+00 -0.46236022345E+00  0.46236725525E+00  0.25500000000E-02 0.  1.
         31    1    1    2    0    0  0.10018901344E+00 -0.49574840986E-02  0.57324092248E+02  0.57805886729E+02  0.74470750000E+01 0.  1.
        -31    1    1    2    0    0 -0.10018901344E+00  0.49574840986E-02  0.62394081858E+02  0.62837014883E+02  0.74470750000E+01 0. -1.
<mgrwt>
<rscale>  0 0.14908672E+02</rscale>
<asrwt>0</asrwt>
<pdfrwt beam="2">  1        2 0.98207195E+00 0.14908672E+02</pdfrwt>
<pdfrwt beam="1">  1       -2 0.99755992E+00 0.14908672E+02</pdfrwt>
<totfact>-0.39276339E-13</totfact>
</mgrwt>
</event>
<event>
 4    1 -0.5011189E-019  0.1497536E+02  0.7818608E-02  0.1868821E+00
          2   -1    0    0  501    0  0.00000000000E+00  0.00000000000E+00  0.11983350996E+03  0.11983350999E+03  0.25500000000E-02 0. -1.
         -2   -1    0    0    0  501 -0.00000000000E+00 -0.00000000000E+00 -0.46785679182E+00  0.46786374101E+00  0.25500000000E-02 0.  1.
         31    1    1    2    0    0  0.61991735140E-01  0.77042686048E-01  0.65887919402E+02  0.66307515621E+02  0.74470750000E+01 0. -1.
        -31    1    1    2    0    0 -0.61991735140E-01 -0.77042686048E-01  0.53477733764E+02  0.53993858106E+02  0.74470750000E+01 0.  1.
<mgrwt>
<rscale>  0 0.14975359E+02</rscale>
<asrwt>0</asrwt>
<pdfrwt beam="1">  1        2 0.99473593E+00 0.14975359E+02</pdfrwt>
<pdfrwt beam="2">  1       -2 0.99369028E+00 0.14975359E+02</pdfrwt>
<totfact>-0.11682464E-13</totfact>
</mgrwt>
</event>
<event>
 4    1  0.5011189E-019  0.1495268E+02  0.7818608E-02  0.1869516E+00
         -2   -1    0    0    0  501 -0.00000000000E+00  0.00000000000E+00  0.11913640417E+03  0.11913640420E+03  0.25500000000E-02 0.  1.
          2   -1    0    0  501    0  0.00000000000E+00 -0.00000000000E+00 -0.46917037586E+00  0.46917730560E+00  0.25500000000E-02 0. -1.
         31    1    1    2    0    0  0.25597749875E+00 -0.45408404391E+00  0.56083992881E+02  0.56578661175E+02  0.74470750000E+01 0. -1.
        -31    1    1    2    0    0 -0.25597749875E+00  0.45408404391E+00  0.62583240913E+02  0.63026920328E+02  0.74470750000E+01 0.  1.
<mgrwt>
<rscale>  0 0.14952684E+02</rscale>
<asrwt>0</asrwt>
<pdfrwt beam="2">  1        2 0.99644656E+00 0.14952684E+02</pdfrwt>
<pdfrwt beam="1">  1       -2 0.98898263E+00 0.14952684E+02</pdfrwt>
<totfact> 0.60726906E-14</totfact>
</mgrwt>
</event>
<event>
 4    1 -0.5011189E-019  0.1500826E+02  0.7818608E-02  0.1867817E+00
         -2   -1    0    0    0  501 -0.00000000000E+00  0.00000000000E+00  0.12001195979E+03  0.12001195982E+03  0.25500000000E-02 0. -1.
          2   -1    0    0  501    0  0.00000000000E+00 -0.00000000000E+00 -0.46921612134E+00  0.46922305040E+00  0.25500000000E-02 0.  1.
         31    1    1    2    0    0  0.82054021993E+00  0.27694881184E+00  0.57194351193E+02  0.57683643447E+02  0.74470750000E+01 0. -1.
        -31    1    1    2    0    0 -0.82054021993E+00 -0.27694881184E+00  0.62348392480E+02  0.62797539425E+02  0.74470750000E+01 0. -1.
<mgrwt>
<rscale>  0 0.15008260E+02</rscale>
<asrwt>0</asrwt>
<pdfrwt beam="2">  1        2 0.99657186E+00 0.15008260E+02</pdfrwt>
<pdfrwt beam="1">  1       -2 0.99622272E+00 0.15008260E+02</pdfrwt>
<totfact>-0.87848965E-14</totfact>
</mgrwt>
</event>
<event>
 4    1  0.5011189E-019  0.1490347E+02  0.7818608E-02  0.1871029E+00
          2   -1    0    0  501    0  0.00000000000E+00  0.00000000000E+00  0.11981888230E+03  0.11981888233E+03  0.25500000000E-02 0. -1.
         -2   -1    0    0    0  501 -0.00000000000E+00 -0.00000000000E+00 -0.46343213186E+00  0.46343914740E+00  0.25500000000E-02 0.  1.
         31    1    1    2    0    0  0.66145211950E-01 -0.25029945954E+00  0.59282954100E+02  0.59749431779E+02  0.74470750000E+01 0.  1.
        -31    1    1    2    0    0 -0.66145211950E-01  0.25029945954E+00  0.60072496071E+02  0.60532889698E+02  0.74470750000E+01 0. -1.
<mgrwt>
<rscale>  0 0.14903469E+02</rscale>
<asrwt>0</asrwt>
<pdfrwt beam="1">  1        2 0.99457839E+00 0.14903469E+02</pdfrwt>
<pdfrwt beam="2">  1       -2 0.98432853E+00 0.14903469E+02</pdfrwt>
<totfact> 0.60529550E-13</totfact>
</mgrwt>
</event>
<event>
 4    1 -0.5011189E-019  0.1491389E+02  0.7818608E-02  0.1870708E+00
         -2   -1    0    0    0  501 -0.00000000000E+00  0.00000000000E+00  0.11998535574E+03  0.11998535576E+03  0.25500000000E-02 0. -1.
          2   -1    0    0  501    0  0.00000000000E+00 -0.00000000000E+00 -0.46343678864E+00  0.46344380411E+00  0.25500000000E-02 0.  1.
         31    1    1    2    0    0  0.35153813232E-01 -0.22618934323E+00  0.62246678553E+02  0.62690990695E+02  0.74470750000E+01 0. -1.
        -31    1    1    2    0    0 -0.35153813232E-01  0.22618934323E+00  0.57275240396E+02  0.57757808873E+02  0.74470750000E+01 0. -1.
<mgrwt>
<rscale>  0 0.14913893E+02</rscale>
<asrwt>0</asrwt>
<pdfrwt beam="2">  1        2 0.98434365E+00 0.14913893E+02</pdfrwt>
<pdfrwt beam="1">  1       -2 0.99595495E+00 0.14913893E+02</pdfrwt>
<totfact>-0.36448138E-13</totfact>
</mgrwt>
</event>
<event>
 4    1  0.5011189E-019  0.1489724E+02  0.7818608E-02  0.1871221E+00
         -2   -1    0    0    0  501 -0.00000000000E+00  0.00000000000E+00  0.11823818161E+03  0.11823818164E+03  0.25500000000E-02 0. -1.
          2   -1    0    0  501    0  0.00000000000E+00 -0.00000000000E+00 -0.46923524786E+00  0.46924217664E+00  0.25500000000E-02 0.  1.
         31    1    1    2    0    0  0.13070350552E+00 -0.81942644433E-02  0.58274551989E+02  0.58748612631E+02  0.74470750000E+01 0.  1.
        -31    1    1    2    0    0 -0.13070350552E+00  0.81942644433E-02  0.59494394374E+02  0.59958811184E+02  0.74470750000E+01 0. -1.
<mgrwt>
<rscale>  0 0.14897239E+02</rscale>
<asrwt>0</asrwt>
<pdfrwt beam="2">  1        2 0.99655410E+00 0.14897239E+02</pdfrwt>
<pdfrwt beam="1">  1       -2 0.98155604E+00 0.14897239E+02</pdfrwt>
<totfact> 0.86488300E-13</totfact>
</mgrwt>
</event>
<event>
 4    1 -0.5011189E-019  0.1490834E+02  0.7818608E-02  0.1870879E+00
          2   -1    0    0  501    0  0.00000000000E+00  0.00000000000E+00  0.11815461098E+03  0.11815461101E+03  0.25500000000E-02 0.  1.
         -2   -1    0    0    0  501 -0.00000000000E+00 -0.00000000000E+00 -0.47026716656E+00  0.47027408013E+00  0.25500000000E-02 0. -1.
         31    1    1    2    0    0  0.29650101299E+00  0.12193872042E-01  0.57784818986E+02  0.58263473058E+02  0.74470750000E+01 0. -1.
        -31    1    1    2    0    0 -0.29650101299E+00 -0.12193872042E-01  0.59899524828E+02  0.60361412029E+02  0.74470750000E+01 0.  1.
<mgrwt>
<rscale>  0 0.14908339E+02</rscale>
<asrwt>0</asrwt>
<pdfrwt beam="1">  1        2 0.98087355E+00 0.14908339E+02</pdfrwt>
<pdfrwt beam="2">  1       -2 0.99873416E+00 0.14908339E+02</pdfrwt>
<totfact>-0.27873752E-13</totfact>
</mgrwt>
</event>
<event>
 4    1  0.5011189E-019  0.1495697E+02  0.7818608E-02  0.1869384E+00
         -2   -1    0    0    0  501 -0.00000000000E+00  0.00000000000E+00  0.11917167025E+03  0.11917167027E+03  0.25500000000E-02 0.  1.
          2   -1    0    0  501    0  0.00000000000E+00 -0.00000000000E+00 -0.46930063440E+00  0.46930756222E+00  0.25500000000E-02 0. -1.
         31    1    1    2    0    0  0.65696972828E+00 -0.42219217127E-01  0.57845356176E+02  0.58326473825E+02  0.74470750000E+01 0. -1.
        -31    1    1    2    0    0 -0.65696972828E+00  0.42219217127E-01  0.60857013437E+02  0.61314504012E+02  0.74470750000E+01 0.  1.
<mgrwt>
<rscale>  0 0.14956972E+02</rscale>
<asrwt>0</asrwt>
<pdfrwt beam="2">  1        2 0.99672328E+00 0.14956972E+02</pdfrwt>
<pdfrwt beam="1">  1       -2 0.98927531E+00 0.14956972E+02</pdfrwt>
<totfact> 0.41780332E-14</totfact>
</mgrwt>
</event>
<event>
 4    1 -0.5011189E-019  0.1495820E+02  0.7818608E-02  0.1869347E+00
         -2   -1    0    0    0  501 -0.00000000000E+00  0.00000000000E+00  0.11962239218E+03  0.11962239220E+03  0.25500000000E-02 0.  1.
          2   -1    0    0  501    0  0.00000000000E+00 -0.00000000000E+00 -0.46760922324E+00  0.46761617610E+00  0.25500000000E-02 0. -1.
         31    1    1    2    0    0 -0.48933861326E+00  0.20330689227E+00  0.63142937529E+02  0.63582782826E+02  0.74470750000E+01 0.  1.
        -31    1    1    2    0    0  0.48933861326E+00 -0.20330689227E+00  0.56011845424E+02  0.56507225554E+02  0.74470750000E+01 0. -1.
<mgrwt>
<rscale>  0 0.14958202E+02</rscale>
<asrwt>0</asrwt>
<pdfrwt beam="2">  1        2 0.99315970E+00 0.14958202E+02</pdfrwt>
<pdfrwt beam="1">  1       -2 0.99298821E+00 0.14958202E+02</pdfrwt>
<totfact>-0.12054393E-13</totfact>
</mgrwt>
</event>
<event>
 4    1 -0.5011189E-019  0.1490178E+02  0.7818608E-02  0.1871081E+00
          2   -1    0    0  501    0  0.00000000000E+00  0.00000000000E+00  0.11897996800E+03  0.11897996803E+03  0.25500000000E-02 0. -1.
         -2   -1    0    0    0  501 -0.00000000000E+00 -0.00000000000E+00 -0.46659380632E+00  0.46660077432E+00  0.25500000000E-02 0.  1.
         31    1    1    2    0    0  0.69992021112E-01 -0.87995898835E-01  0.57572159009E+02  0.58051916947E+02  0.74470750000E+01 0. -1.
        -31    1    1    2    0    0 -0.69992021112E-01  0.87995898835E-01  0.60941215184E+02  0.61394651855E+02  0.74470750000E+01 0. -1.
<mgrwt>
<rscale>  0 0.14901776E+02</rscale>
<asrwt>0</asrwt>
<pdfrwt beam="1">  1        2 0.98766780E+00 0.14901776E+02</pdfrwt>
<pdfrwt beam="2">  1       -2 0.99099067E+00 0.14901776E+02</pdfrwt>
<totfact>-0.80931179E-14</totfact>
</mgrwt>
</event>
<event>
 4    1  0.5011189E-019  0.1491973E+02  0.7818608E-02  0.1870528E+00
         -2   -1    0    0    0  501 -0.00000000000E+00  0.00000000000E+00  0.11866398087E+03  0.11866398090E+03  0.25500000000E-02 0.  1.
          2   -1    0    0  501    0  0.00000000000E+00 -0.00000000000E+00 -0.46896428045E+00  0.46897121323E+00  0.25500000000E-02 0. -1.
         31    1    1    2    0    0 -0.14456950513E+00 -0.13940091735E+00  0.62193395211E+02  0.62637989007E+02  0.74470750000E+01 0.  1.
        -31    1    1    2    0    0  0.14456950513E+00  0.13940091735E+00  0.56001621377E+02  0.56494963101E+02  0.74470750000E+01 0. -1.
<mgrwt>
<rscale>  0 0.14919730E+02</rscale>
<asrwt>0</asrwt>
<pdfrwt beam="2">  1        2 0.99599502E+00 0.14919730E+02</pdfrwt>
<pdfrwt beam="1">  1       -2 0.98507460E+00 0.14919730E+02</pdfrwt>
<totfact> 0.42026319E-13</totfact>
</mgrwt>
</event>
<event>
 4    1 -0.5011189E-019  0.1489947E+02  0.7818608E-02  0.1871152E+00
         -2   -1    0    0    0  501 -0.00000000000E+00  0.00000000000E+00  0.12003958786E+03  0.12003958789E+03  0.25500000000E-02 0. -1.
          2   -1    0    0  501    0  0.00000000000E+00 -0.00000000000E+00 -0.46233215076E+00  0.46233918299E+00  0.25500000000E-02 0.  1.
         31    1    1    2    0    0  0.34665540493E-01  0.61841806616E-01  0.58283496661E+02  0.58757381963E+02  0.74470750000E+01 0.  1.
        -31    1    1    2    0    0 -0.34665540493E-01 -0.61841806616E-01  0.61293759052E+02  0.61744545110E+02  0.74470750000E+01 0. -1.
<mgrwt>
<rscale>  0 0.14899475E+02</rscale>
<asrwt>0</asrwt>
<pdfrwt beam="2">  1        2 0.98200813E+00 0.14899475E+02</pdfrwt>
<pdfrwt beam="1">  1       -2 0.99639424E+00 0.14899475E+02</pdfrwt>
<totfact>-0.51132782E-13</totfact>
</mgrwt>
</event>
<event>
 4    1 -0.5011189E-019  0.1498081E+02  0.7818608E-02  0.1868655E+00
          2   -1    0    0  501    0  0.00000000000E+00  0.00000000000E+00  0.11996580887E+03  0.11996580890E+03  0.25500000000E-02 0. -1.
         -2   -1    0    0    0  501 -0.00000000000E+00 -0.00000000000E+00 -0.46768086987E+00  0.46768782168E+00  0.25500000000E-02 0.  1.
         31    1    1    2    0    0  0.20388490616E+00  0.65691674257E+00  0.56394695773E+02  0.56888432445E+02  0.74470750000E+01 0.  1.
        -31    1    1    2    0    0 -0.20388490616E+00 -0.65691674257E+00  0.63103432227E+02  0.63545064273E+02  0.74470750000E+01 0. -1.
<mgrwt>
<rscale>  0 0.14980806E+02</rscale>
<asrwt>0</asrwt>
<pdfrwt beam="1">  1        2 0.99582841E+00 0.14980806E+02</pdfrwt>
<pdfrwt beam="2">  1       -2 0.99332235E+00 0.14980806E+02</pdfrwt>
<totfact>-0.98774970E-14</totfact>
</mgrwt>
</event>
<event>
 4    1  0.5011189E-019  0.1490918E+02  0.7818608E-02  0.1870853E+00
         -2   -1    0    0    0  501 -0.00000000000E+00  0.00000000000E+00  0.11826998197E+03  0.11826998200E+03  0.25500000000E-02 0. -1.
          2   -1    0    0  501    0  0.00000000000E+00 -0.00000000000E+00 -0.46986141370E+00  0.46986833324E+00  0.25500000000E-02 0.  1.
         31    1    1    2    0    0  0.11008395675E+00  0.31561707634E+00  0.58772956967E+02  0.59243827774E+02  0.74470750000E+01 0. -1.
        -31    1    1    2    0    0 -0.11008395675E+00 -0.31561707634E+00  0.59027163591E+02  0.59496022558E+02  0.74470750000E+01 0.  1.
<mgrwt>
<rscale>  0 0.14909180E+02</rscale>
<asrwt>0</asrwt>
<pdfrwt beam="2">  1        2 0.99787972E+00 0.14909180E+02</pdfrwt>
<pdfrwt beam="1">  1       -2 0.98182416E+00 0.14909180E+02</pdfrwt>
<totfact> 0.58382856E-13</totfact>
</mgrwt>
</event>
<event>
 4    1 -0.5011189E-019  0.1498636E+02  0.7818608E-02  0.1868485E+00
         -2   -1    0    0    0  501 -0.00000000000E+00  0.00000000000E+00  0.12002432124E+03  0.12002432127E+03  0.25500000000E-02 0.  1.
          2   -1    0    0  501    0  0.00000000000E+00 -0.00000000000E+00 -0.46779981830E+00  0.46780676833E+00  0.25500000000E-02 0. -1.
         31    1    1    2    0    0  0.34998612315E+00  0.58231200479E+00  0.63611233590E+02  0.64049274332E+02  0.74470750000E+01 0. -1.
        -31    1    1    2    0    0 -0.34998612315E+00 -0.58231200479E+00  0.55945287830E+02  0.56442853702E+02  0.74470750000E+01 0. -1.
<mgrwt>
<rscale>  0 0.14986364E+02</rscale>
<asrwt>0</asrwt>
<pdfrwt beam="2">  1        2 0.99357588E+00 0.14986364E+02</pdfrwt>
<pdfrwt beam="1">  1       -2 0.99631322E+00 0.14986364E+02</pdfrwt>
<totfact>-0.12196484E-13</totfact>
</mgrwt>
</event>
<event>
 4    1  0.5011189E-019  0.1493599E+02  0.7818608E-02  0.1870028E+00
         -2   -1    0    0    0  501 -0.00000000000E+00  0.00000000000E+00  0.11880827907E+03  0.11880827909E+03  0.25500000000E-02 0.  1.
          2   -1    0    0  501    0  0.00000000000E+00 -0.00000000000E+00 -0.46941600815E+00  0.46942293426E+00  0.25500000000E-02 0. -1.
         31    1    1    2    0    0 -0.10957005768E+00  0.12963293809E+00  0.63419163889E+02  0.63855133582E+02  0.74470750000E+01 0.  1.
        -31    1    1    2    0    0  0.10957005768E+00 -0.12963293809E+00  0.54919699169E+02  0.55422568446E+02  0.74470750000E+01 0. -1.
<mgrwt>
<rscale>  0 0.14935986E+02</rscale>
<asrwt>0</asrwt>
<pdfrwt beam="2">  1        2 0.99695539E+00 0.14935986E+02</pdfrwt>
<pdfrwt beam="1">  1       -2 0.98627149E+00 0.14935986E+02</pdfrwt>
<totfact> 0.24222716E-13</totfact>
</mgrwt>
</event>
<event>
 4    1 -0.5011189E-019  0.1493129E+02  0.7818608E-02  0.1870172E+00
          2   -1    0    0  501    0  0.00000000000E+00  0.00000000000E+00  0.11899893662E+03  0.11899893664E+03  0.25500000000E-02 0. -1.
         -2   -1    0    0    0  501 -0.00000000000E+00 -0.00000000000E+00 -0.46836939939E+00  0.46837634098E+00  0.25500000000E-02 0.  1.
         31    1    1    2    0    0 -0.50731178652E+00  0.13884847557E+00  0.59405371213E+02  0.59872645667E+02  0.74470750000E+01 0. -1.
        -31    1    1    2    0    0  0.50731178652E+00 -0.13884847557E+00  0.59125196004E+02  0.59594667318E+02  0.74470750000E+01 0. -1.
<mgrwt>
<rscale>  0 0.14931293E+02</rscale>
<asrwt>0</asrwt>
<pdfrwt beam="1">  1        2 0.98783933E+00 0.14931293E+02</pdfrwt>
<pdfrwt beam="2">  1       -2 0.99474760E+00 0.14931293E+02</pdfrwt>
<totfact>-0.22847757E-13</totfact>
</mgrwt>
</event>
<event>
 4    1  0.5011189E-019  0.1494381E+02  0.7818608E-02  0.1869788E+00
         -2   -1    0    0    0  501 -0.00000000000E+00  0.00000000000E+00  0.11884024465E+03  0.11884024468E+03  0.25500000000E-02 0.  1.
          2   -1    0    0  501    0  0.00000000000E+00 -0.00000000000E+00 -0.46978136268E+00  0.46978828340E+00  0.25500000000E-02 0. -1.
         31    1    1    2    0    0  0.66370329183E-01  0.37313123155E+00  0.62987355657E+02  0.63427198666E+02  0.74470750000E+01 0.  1.
        -31    1    1    2    0    0 -0.66370329183E-01 -0.37313123155E+00  0.55383107633E+02  0.55882834297E+02  0.74470750000E+01 0. -1.
<mgrwt>
<rscale>  0 0.14943808E+02</rscale>
<asrwt>0</asrwt>
<pdfrwt beam="2">  1        2 0.99772932E+00 0.14943808E+02</pdfrwt>
<pdfrwt beam="1">  1       -2 0.98653883E+00 0.14943808E+02</pdfrwt>
<totfact> 0.17842520E-13</totfact>
</mgrwt>
</event>
<event>
 4    1 -0.5011189E-019  0.1490721E+02  0.7818608E-02  0.1870913E+00
          2   -1    0    0  501    0  0.00000000000E+00  0.00000000000E+00  0.11843527936E+03  0.11843527939E+03  0.25500000000E-02 0.  1.
         -2   -1    0    0    0  501 -0.00000000000E+00 -0.00000000000E+00 -0.46908169345E+00  0.46908862449E+00  0.25500000000E-02 0. -1.
         31    1    1    2    0    0  0.29108797347E+00  0.28179697060E-01  0.58117284776E+02  0.58593201330E+02  0.74470750000E+01 0. -1.
        -31    1    1    2    0    0 -0.29108797347E+00 -0.28179697060E-01  0.59848912888E+02  0.60311166680E+02  0.74470750000E+01 0.  1.
<mgrwt>
<rscale>  0 0.14907211E+02</rscale>
<asrwt>0</asrwt>
<pdfrwt beam="1">  1        2 0.98318451E+00 0.14907211E+02</pdfrwt>
<pdfrwt beam="2">  1       -2 0.99623583E+00 0.14907211E+02</pdfrwt>
<totfact>-0.42835684E-13</totfact>
</mgrwt>
</event>
<event>
 4    1 -0.5011189E-019  0.1503733E+02  0.7818608E-02  0.1866931E+00
         -2   -1    0    0    0  501 -0.00000000000E+00  0.00000000000E+00  0.12030390761E+03  0.12030390764E+03  0.25500000000E-02 0.  1.
          2   -1    0    0  501    0  0.00000000000E+00 -0.00000000000E+00 -0.46989259806E+00  0.46989951715E+00  0.25500000000E-02 0. -1.
         31    1    1    2    0    0 -0.48563287189E+00 -0.53486632517E+00  0.65870626255E+02  0.66294194697E+02  0.74470750000E+01 0. -1.
        -31    1    1    2    0    0  0.48563287189E+00  0.53486632517E+00  0.53963388758E+02  0.54479612458E+02  0.74470750000E+01 0.  1.
<mgrwt>
<rscale>  0 0.15037332E+02</rscale>
<asrwt>0</asrwt>
<pdfrwt beam="2">  1        2 0.99801245E+00 0.15037332E+02</pdfrwt>
<pdfrwt beam="1">  1       -2 0.99864234E+00 0.15037332E+02</pdfrwt>
<totfact>-0.27923252E-14</totfact>
</mgrwt>
</event>
<event>
 4    1 -0.5011189E-019  0.1498565E+02  0.7818608E-02  0.1868507E+00
          2   -1    0    0  501    0  0.00000000000E+00  0.00000000000E+00  0.11978812367E+03  0.11978812369E+03  0.25500000000E-02 0.  1.
         -2   -1    0    0    0  501 -0.00000000000E+00 -0.00000000000E+00 -0.46867777845E+00  0.46868471546E+00  0.25500000000E-02 0. -1.
         31    1    1    2    0    0  0.39700394003E+00  0.34762822571E+00  0.64767093316E+02  0.65195964294E+02  0.74470750000E+01 0.  1.
        -31    1    1    2    0    0 -0.39700394003E+00 -0.34762822571E+00  0.54552352571E+02  0.55060844115E+02  0.74470750000E+01 0. -1.
<mgrwt>
<rscale>  0 0.14985653E+02</rscale>
<asrwt>0</asrwt>
<pdfrwt beam="1">  1        2 0.99436743E+00 0.14985653E+02</pdfrwt>
<pdfrwt beam="2">  1       -2 0.99542570E+00 0.14985653E+02</pdfrwt>
<totfact>-0.12455537E-13</totfact>
</mgrwt>
</event>
<event>
 4    1 -0.5011189E-019  0.1491591E+02  0.7818608E-02  0.1870645E+00
          2   -1    0    0  501    0  0.00000000000E+00  0.00000000000E+00  0.11869112133E+03  0.11869112136E+03  0.25500000000E-02 0.  1.
         -2   -1    0    0    0  501 -0.00000000000E+00 -0.00000000000E+00 -0.46861723483E+00  0.46862417274E+00  0.25500000000E-02 0. -1.
         31    1    1    2    0    0  0.29910077919E+00  0.25298183742E+00  0.58364700823E+02  0.58839193479E+02  0.74470750000E+01 0.  1.
        -31    1    1    2    0    0 -0.29910077919E+00 -0.25298183742E+00  0.59857803272E+02  0.60320552051E+02  0.74470750000E+01 0. -1.
<mgrwt>
<rscale>  0 0.14915914E+02</rscale>
<asrwt>0</asrwt>
<pdfrwt beam="1">  1        2 0.98529615E+00 0.14915914E+02</pdfrwt>
<pdfrwt beam="2">  1       -2 0.99526177E+00 0.14915914E+02</pdfrwt>
<totfact>-0.32818967E-13</totfact>
</mgrwt>
</event>
<event>
 4    1 -0.5011189E-019  0.1494179E+02  0.7818608E-02  0.1869850E+00
          2   -1    0    0  501    0  0.00000000000E+00  0.00000000000E+00  0.11897347332E+03  0.11897347335E+03  0.25500000000E-02 0.  1.
         -2   -1    0    0    0  501 -0.00000000000E+00 -0.00000000000E+00 -0.46912831020E+00  0.46913524056E+00  0.25500000000E-02 0. -1.
         31    1    1    2    0    0  0.56222925658E+00  0.22368754553E-01  0.57679353229E+02  0.58160840065E+02  0.74470750000E+01 0. -1.
        -31    1    1    2    0    0 -0.56222925658E+00 -0.22368754553E-01  0.60824991780E+02  0.61281768522E+02  0.74470750000E+01 0. -1.
<mgrwt>
<rscale>  0 0.14941786E+02</rscale>
<asrwt>0</asrwt>
<pdfrwt beam="1">  1        2 0.98763506E+00 0.14941786E+02</pdfrwt>
<pdfrwt beam="2">  1       -2 0.99635222E+00 0.14941786E+02</pdfrwt>
<totfact>-0.21029678E-13</totfact>
</mgrwt>
</event>
<event>
 4    1 -0.5011189E-019  0.1495441E+02  0.7818608E-02  0.1869463E+00
          2   -1    0    0  501    0  0.00000000000E+00  0.00000000000E+00  0.11880247581E+03  0.11880247584E+03  0.25500000000E-02 0. -1.
         -2   -1    0    0    0  501 -0.00000000000E+00 -0.00000000000E+00 -0.47059779971E+00  0.47060470843E+00  0.25500000000E-02 0.  1.
         31    1    1    2    0    0 -0.33949340129E+00  0.55951700862E+00  0.60331501764E+02  0.60792905394E+02  0.74470750000E+01 0. -1.
        -31    1    1    2    0    0  0.33949340129E+00 -0.55951700862E+00  0.58000376246E+02  0.58480175152E+02  0.74470750000E+01 0.  1.
<mgrwt>
<rscale>  0 0.14954410E+02</rscale>
<asrwt>0</asrwt>
<pdfrwt beam="1">  1        2 0.98623328E+00 0.14954410E+02</pdfrwt>
<pdfrwt beam="2">  1       -2 0.99945517E+00 0.14954410E+02</pdfrwt>
<totfact>-0.52520621E-14</totfact>
</mgrwt>
</event>
<event>
 4    1 -0.5011189E-019  0.1493543E+02  0.7818608E-02  0.1870045E+00
          2   -1    0    0  501    0  0.00000000000E+00  0.00000000000E+00  0.11867040410E+03  0.11867040412E+03  0.25500000000E-02 0. -1.
         -2   -1    0    0    0  501 -0.00000000000E+00 -0.00000000000E+00 -0.46992635783E+00  0.46993327642E+00  0.25500000000E-02 0.  1.
         31    1    1    2    0    0  0.13777726764E+00 -0.52814510847E+00  0.58305786712E+02  0.58781983719E+02  0.74470750000E+01 0. -1.
        -31    1    1    2    0    0 -0.13777726764E+00  0.52814510847E+00  0.59894691028E+02  0.60358353682E+02  0.74470750000E+01 0.  1.
<mgrwt>
<rscale>  0 0.14935430E+02</rscale>
<asrwt>0</asrwt>
<pdfrwt beam="1">  1        2 0.98513567E+00 0.14935430E+02</pdfrwt>
<pdfrwt beam="2">  1       -2 0.99803042E+00 0.14935430E+02</pdfrwt>
<totfact>-0.19933997E-13</totfact>
</mgrwt>
</event>
<event>
 4    1  0.5011189E-019  0.1492792E+02  0.7818608E-02  0.1870276E+00
         -2   -1    0    0    0  501 -0.00000000000E+00  0.00000000000E+00  0.11912935665E+03  0.11912935667E+03  0.25500000000E-02 0. -1.
          2   -1    0    0  501    0  0.00000000000E+00 -0.00000000000E+00 -0.46764554933E+00  0.46765250166E+00  0.25500000000E-02 0.  1.
         31    1    1    2    0    0 -0.29206037716E+00 -0.18317309693E+00  0.62252114974E+02  0.62696918556E+02  0.74470750000E+01 0. -1.
        -31    1    1    2    0    0  0.29206037716E+00  0.18317309693E+00  0.56409596123E+02  0.56900090619E+02  0.74470750000E+01 0.  1.
<mgrwt>
<rscale>  0 0.14927924E+02</rscale>
<asrwt>0</asrwt>
<pdfrwt beam="2">  1        2 0.99322054E+00 0.14927924E+02</pdfrwt>
<pdfrwt beam="1">  1       -2 0.98891175E+00 0.14927924E+02</pdfrwt>
<totfact> 0.91565064E-14</totfact>
</mgrwt>
</event>
<event>
 4    1 -0.5011189E-019  0.1489705E+02  0.7818608E-02  0.1871227E+00
         -2   -1    0    0    0  501 -0.00000000000E+00  0.00000000000E+00  0.11980260035E+03  0.11980260038E+03  0.25500000000E-02 0.  1.
          2   -1    0    0  501    0  0.00000000000E+00 -0.00000000000E+00 -0.46309565549E+00  0.46310267613E+00  0.25500000000E-02 0. -1.
         31    1    1    2    0    0 -0.53508365479E-01 -0.11127579743E+00  0.59028152853E+02  0.59496193161E+02  0.74470750000E+01 0.  1.
        -31    1    1    2    0    0  0.53508365479E-01  0.11127579743E+00  0.60311351842E+02  0.60769509892E+02  0.74470750000E+01 0.  1.
<mgrwt>
<rscale>  0 0.14897045E+02</rscale>
<asrwt>0</asrwt>
<pdfrwt beam="2">  1        2 0.98361611E+00 0.14897045E+02</pdfrwt>
<pdfrwt beam="1">  1       -2 0.99444098E+00 0.14897045E+02</pdfrwt>
<totfact>-0.43595071E-13</totfact>
</mgrwt>
</event>
<event>
 4    1 -0.5011189E-019  0.1494952E+02  0.7818608E-02  0.1869613E+00
         -2   -1    0    0    0  501 -0.00000000000E+00  0.00000000000E+00  0.11994665666E+03  0.11994665669E+03  0.25500000000E-02 0.  1.
          2   -1    0    0  501    0  0.00000000000E+00 -0.00000000000E+00 -0.46580362423E+00  0.46581060405E+00  0.25500000000E-02 0. -1.
         31    1    1    2    0    0 -0.43995164500E+00 -0.20681945163E+00  0.56354123509E+02  0.56846129985E+02  0.74470750000E+01 0. -1.
        -31    1    1    2    0    0  0.43995164500E+00  0.20681945163E+00  0.63126729530E+02  0.63566337310E+02  0.74470750000E+01 0.  1.
<mgrwt>
<rscale>  0 0.14949516E+02</rscale>
<asrwt>0</asrwt>
<pdfrwt beam="2">  1        2 0.98935008E+00 0.14949516E+02</pdfrwt>
<pdfrwt beam="1">  1       -2 0.99565453E+00 0.14949516E+02</pdfrwt>
<totfact>-0.18464659E-13</totfact>
</mgrwt>
</event>
<event>
 4    1 -0.5011189E-019  0.1503589E+02  0.7818608E-02  0.1866975E+00
         -2   -1    0    0    0  501 -0.00000000000E+00  0.00000000000E+00  0.12012436829E+03  0.12012436831E+03  0.25500000000E-02 0.  1.
          2   -1    0    0  501    0  0.00000000000E+00 -0.00000000000E+00 -0.47050475730E+00  0.47051166738E+00  0.25500000000E-02 0. -1.
         31    1    1    2    0    0  0.39914289498E-01  0.10263927192E+01  0.59231911528E+02  0.59707062769E+02  0.74470750000E+01 0. -1.
        -31    1    1    2    0    0 -0.39914289498E-01 -0.10263927192E+01  0.60421952000E+02  0.60887817211E+02  0.74470750000E+01 0.  1.
<mgrwt>
<rscale>  0 0.15035891E+02</rscale>
<asrwt>0</asrwt>
<pdfrwt beam="2">  1        2 0.99930173E+00 0.15035891E+02</pdfrwt>
<pdfrwt beam="1">  1       -2 0.99716284E+00 0.15035891E+02</pdfrwt>
<totfact>-0.20392582E-14</totfact>
</mgrwt>
</event>
<event>
 4    1  0.5011189E-019  0.1490367E+02  0.7818608E-02  0.1871022E+00
          2   -1    0    0  501    0  0.00000000000E+00  0.00000000000E+00  0.11976000908E+03  0.11976000911E+03  0.25500000000E-02 0. -1.
         -2   -1    0    0    0  501 -0.00000000000E+00 -0.00000000000E+00 -0.46367221064E+00  0.46367922255E+00  0.25500000000E-02 0.  1.
         31    1    1    2    0    0  0.21975777274E+00  0.15019336575E+00  0.59695000258E+02  0.60158314749E+02  0.74470750000E+01 0.  1.
        -31    1    1    2    0    0 -0.21975777274E+00 -0.15019336575E+00  0.59601336609E+02  0.60065373579E+02  0.74470750000E+01 0. -1.
<mgrwt>
<rscale>  0 0.14903665E+02</rscale>
<asrwt>0</asrwt>
<pdfrwt beam="1">  1        2 0.99409357E+00 0.14903665E+02</pdfrwt>
<pdfrwt beam="2">  1       -2 0.98483462E+00 0.14903665E+02</pdfrwt>
<totfact> 0.55170424E-13</totfact>
</mgrwt>
</event>
<event>
 4    1 -0.5011189E-019  0.1493225E+02  0.7818608E-02  0.1870143E+00
         -2   -1    0    0    0  501 -0.00000000000E+00  0.00000000000E+00  0.12024157398E+03  0.12024157401E+03  0.25500000000E-02 0.  1.
          2   -1    0    0  501    0  0.00000000000E+00 -0.00000000000E+00 -0.46358837600E+00  0.46359538917E+00  0.25500000000E-02 0. -1.
         31    1    1    2    0    0 -0.47926771046E+00 -0.22654546967E+00  0.59440779169E+02  0.59907813970E+02  0.74470750000E+01 0. -1.
        -31    1    1    2    0    0  0.47926771046E+00  0.22654546967E+00  0.60337206435E+02  0.60797355426E+02  0.74470750000E+01 0.  1.
<mgrwt>
<rscale>  0 0.14932250E+02</rscale>
<asrwt>0</asrwt>
<pdfrwt beam="2">  1        2 0.98467245E+00 0.14932250E+02</pdfrwt>
<pdfrwt beam="1">  1       -2 0.99807479E+00 0.14932250E+02</pdfrwt>
<totfact>-0.21099048E-13</totfact>
</mgrwt>
</event>
<event>
 4    1  0.5011189E-019  0.1492475E+02  0.7818608E-02  0.1870374E+00
         -2   -1    0    0    0  501 -0.00000000000E+00  0.00000000000E+00  0.11854047086E+03  0.11854047088E+03  0.25500000000E-02 0. -1.
          2   -1    0    0  501    0  0.00000000000E+00 -0.00000000000E+00 -0.46976870115E+00  0.46977562205E+00  0.25500000000E-02 0.  1.
         31    1    1    2    0    0  0.15260557529E+00 -0.43746686521E+00  0.58111440582E+02  0.58588506709E+02  0.74470750000E+01 0. -1.
        -31    1    1    2    0    0 -0.15260557529E+00  0.43746686521E+00  0.59959261573E+02  0.60421739798E+02  0.74470750000E+01 0.  1.
<mgrwt>
<rscale>  0 0.14924747E+02</rscale>
<asrwt>0</asrwt>
<pdfrwt beam="2">  1        2 0.99769260E+00 0.14924747E+02</pdfrwt>
<pdfrwt beam="1">  1       -2 0.98405999E+00 0.14924747E+02</pdfrwt>
<totfact> 0.38086342E-13</totfact>
</mgrwt>
</event>
<event>
 4    1 -0.5011189E-019  0.1495020E+02  0.7818608E-02  0.1869592E+00
          2   -1    0    0  501    0  0.00000000000E+00  0.00000000000E+00  0.11936429611E+03  0.11936429614E+03  0.25500000000E-02 0.  1.
         -2   -1    0    0    0  501 -0.00000000000E+00 -0.00000000000E+00 -0.46811909308E+00  0.46812603837E+00  0.25500000000E-02 0. -1.
         31    1    1    2    0    0 -0.53277946358E+00  0.13906272258E+00  0.62166319457E+02  0.62613204624E+02  0.74470750000E+01 0.  1.
        -31    1    1    2    0    0  0.53277946358E+00 -0.13906272258E+00  0.56729857560E+02  0.57219217552E+02  0.74470750000E+01 0.  1.
<mgrwt>
<rscale>  0 0.14950201E+02</rscale>
<asrwt>0</asrwt>
<pdfrwt beam="1">  1        2 0.99085831E+00 0.14950201E+02</pdfrwt>
<pdfrwt beam="2">  1       -2 0.99423000E+00 0.14950201E+02</pdfrwt>
<totfact>-0.16393623E-13</totfact>
</mgrwt>
</event>
<event>
 4    1 -0.5011189E-019  0.1492481E+02  0.7818608E-02  0.1870372E+00
          2   -1    0    0  501    0  0.00000000000E+00  0.00000000000E+00  0.11894574957E+03  0.11894574960E+03  0.25500000000E-02 0. -1.
         -2   -1    0    0    0  501 -0.00000000000E+00 -0.00000000000E+00 -0.46817188065E+00  0.46817882516E+00  0.25500000000E-02 0.  1.
         31    1    1    2    0    0  0.38247509301E+00 -0.28646229569E+00  0.59126306929E+02  0.59595364291E+02  0.74470750000E+01 0.  1.
        -31    1    1    2    0    0 -0.38247509301E+00  0.28646229569E+00  0.59351270759E+02  0.59818564130E+02  0.74470750000E+01 0.  1.
<mgrwt>
<rscale>  0 0.14924808E+02</rscale>
<asrwt>0</asrwt>
<pdfrwt beam="1">  1        2 0.98739791E+00 0.14924808E+02</pdfrwt>
<pdfrwt beam="2">  1       -2 0.99432800E+00 0.14924808E+02</pdfrwt>
<totfact>-0.24055550E-13</totfact>
</mgrwt>
</event>
<event>
 4    1 -0.5011189E-019  0.1495573E+02  0.7818608E-02  0.1869422E+00
         -2   -1    0    0    0  501 -0.00000000000E+00  0.00000000000E+00  0.11972034710E+03  0.11972034712E+03  0.25500000000E-02 0. -1.
          2   -1    0    0  501    0  0.00000000000E+00 -0.00000000000E+00 -0.46707225875E+00  0.46707921961E+00  0.25500000000E-02 0.  1.
         31    1    1    2    0    0 -0.42156030999E+00  0.15688749598E-01  0.55362235397E+02  0.55862456028E+02  0.74470750000E+01 0.  1.
        -31    1    1    2    0    0  0.42156030999E+00 -0.15688749598E-01  0.63891039441E+02  0.64324970316E+02  0.74470750000E+01 0. -1.
<mgrwt>
<rscale>  0 0.14955731E+02</rscale>
<asrwt>0</asrwt>
<pdfrwt beam="2">  1        2 0.99202684E+00 0.14955731E+02</pdfrwt>
<pdfrwt beam="1">  1       -2 0.99379373E+00 0.14955731E+02</pdfrwt>
<totfact>-0.14550196E-13</totfact>
</mgrwt>
</event>
<event>
 4    1 -0.5011189E-019  0.1490899E+02  0.7818608E-02  0.1870859E+00
         -2   -1    0    0    0  501 -0.00000000000E+00  0.00000000000E+00  0.11978704077E+03  0.11978704079E+03  0.25500000000E-02 0. -1.
          2   -1    0    0  501    0  0.00000000000E+00 -0.00000000000E+00 -0.46389869432E+00  0.46390570280E+00  0.25500000000E-02 0.  1.
         31    1    1    2    0    0  0.29796474366E-01  0.25165530386E+00  0.61397668472E+02  0.61848175706E+02  0.74470750000E+01 0.  1.
        -31    1    1    2    0    0 -0.29796474366E-01 -0.25165530386E+00  0.57925473601E+02  0.58402770792E+02  0.74470750000E+01 0. -1.
<mgrwt>
<rscale>  0 0.14908987E+02</rscale>
<asrwt>0</asrwt>
<pdfrwt beam="2">  1        2 0.98531466E+00 0.14908987E+02</pdfrwt>
<pdfrwt beam="1">  1       -2 0.99431896E+00 0.14908987E+02</pdfrwt>
<totfact>-0.32833601E-13</totfact>
</mgrwt>
</event>
<event>
 4    1 -0.5011189E-019  0.1491629E+02  0.7818608E-02  0.1870634E+00
          2   -1    0    0  501    0  0.00000000000E+00  0.00000000000E+00  0.11841525205E+03  0.11841525208E+03  0.25500000000E-02 0. -1.
         -2   -1    0    0    0  501 -0.00000000000E+00 -0.00000000000E+00 -0.46973284627E+00  0.46973976771E+00  0.25500000000E-02 0.  1.
         31    1    1    2    0    0  0.21580781867E+00 -0.15352142971E+00  0.56517767210E+02  0.57006903777E+02  0.74470750000E+01 0.  1.
        -31    1    1    2    0    0 -0.21580781867E+00  0.15352142971E+00  0.61427751994E+02  0.61878088068E+02  0.74470750000E+01 0. -1.
<mgrwt>
<rscale>  0 0.14916293E+02</rscale>
<asrwt>0</asrwt>
<pdfrwt beam="1">  1        2 0.98302429E+00 0.14916293E+02</pdfrwt>
<pdfrwt beam="2">  1       -2 0.99761259E+00 0.14916293E+02</pdfrwt>
<totfact>-0.32894834E-13</totfact>
</mgrwt>
</event>
<event>
 4    1  0.5011189E-019  0.1490601E+02  0.7818608E-02  0.1870950E+00
          2   -1    0    0  501    0  0.00000000000E+00  0.00000000000E+00  0.12030576467E+03  0.12030576470E+03  0.25500000000E-02 0. -1.
         -2   -1    0    0    0  501 -0.00000000000E+00 -0.00000000000E+00 -0.46171383810E+00  0.46172087975E+00  0.25500000000E-02 0.  1.
         31    1    1    2    0    0 -0.11390523718E+00 -0.10576533181E+00  0.57869557191E+02  0.58346968526E+02  0.74470750000E+01 0.  1.
        -31    1    1    2    0    0  0.11390523718E+00  0.10576533181E+00  0.61974493642E+02  0.62420517052E+02  0.74470750000E+01 0. -1.
<mgrwt>
<rscale>  0 0.14906007E+02</rscale>
<asrwt>0</asrwt>
<pdfrwt beam="1">  1        2 0.99859007E+00 0.14906007E+02</pdfrwt>
<pdfrwt beam="2">  1       -2 0.98070818E+00 0.14906007E+02</pdfrwt>
<totfact> 0.51721151E-13</totfact>
</mgrwt>
</event>
<event>
 4    1  0.5011189E-019  0.1494732E+02  0.7818608E-02  0.1869680E+00
         -2   -1    0    0    0  501 -0.00000000000E+00  0.00000000000E+00  0.11893427818E+03  0.11893427820E+03  0.25500000000E-02 0. -1.
          2   -1    0    0  501    0  0.00000000000E+00 -0.00000000000E+00 -0.46963045847E+00  0.46963738142E+00  0.25500000000E-02 0.  1.
         31    1    1    2    0    0  0.12815533466E+00  0.15768662020E+00  0.54470324326E+02  0.54977417610E+02  0.74470750000E+01 0.  1.
        -31    1    1    2    0    0 -0.12815533466E+00 -0.15768662020E+00  0.63994323392E+02  0.64426497975E+02  0.74470750000E+01 0. -1.
<mgrwt>
<rscale>  0 0.14947317E+02</rscale>
<asrwt>0</asrwt>
<pdfrwt beam="2">  1        2 0.99741320E+00 0.14947317E+02</pdfrwt>
<pdfrwt beam="1">  1       -2 0.98731512E+00 0.14947317E+02</pdfrwt>
<totfact> 0.14268798E-13</totfact>
</mgrwt>
</event>
<event>
 4    1 -0.5011189E-019  0.1495461E+02  0.7818608E-02  0.1869457E+00
          2   -1    0    0  501    0  0.00000000000E+00  0.00000000000E+00  0.11954271271E+03  0.11954271274E+03  0.25500000000E-02 0.  1.
         -2   -1    0    0    0  501 -0.00000000000E+00 -0.00000000000E+00 -0.46769625617E+00  0.46770320774E+00  0.25500000000E-02 0. -1.
         31    1    1    2    0    0  0.35383236234E+00 -0.23696589368E+00  0.63706031885E+02  0.64141240827E+02  0.74470750000E+01 0.  1.
        -31    1    1    2    0    0 -0.35383236234E+00  0.23696589368E+00  0.55368984569E+02  0.55869175118E+02  0.74470750000E+01 0. -1.
<mgrwt>
<rscale>  0 0.14954611E+02</rscale>
<asrwt>0</asrwt>
<pdfrwt beam="1">  1        2 0.99233009E+00 0.14954611E+02</pdfrwt>
<pdfrwt beam="2">  1       -2 0.99334125E+00 0.14954611E+02</pdfrwt>
<totfact>-0.13536008E-13</totfact>
</mgrwt>
</event>
<event>
 4    1 -0.5011189E-019  0.1491712E+02  0.7818608E-02  0.1870608E+00
         -2   -1    0    0    0  501 -0.00000000000E+00  0.00000000000E+00  0.12021129054E+03  0.12021129057E+03  0.25500000000E-02 0.  1.
          2   -1    0    0  501    0  0.00000000000E+00 -0.00000000000E+00 -0.46276597578E+00  0.46277300142E+00  0.25500000000E-02 0. -1.
         31    1    1    2    0    0 -0.31309262285E+00  0.26674569611E+00  0.60237341133E+02  0.60697325914E+02  0.74470750000E+01 0. -1.
        -31    1    1    2    0    0  0.31309262285E+00 -0.26674569611E+00  0.59511183431E+02  0.59976737654E+02  0.74470750000E+01 0. -1.
<mgrwt>
<rscale>  0 0.14917120E+02</rscale>
<asrwt>0</asrwt>
<pdfrwt beam="2">  1        2 0.98293143E+00 0.14917120E+02</pdfrwt>
<pdfrwt beam="1">  1       -2 0.99781759E+00 0.14917120E+02</pdfrwt>
<totfact>-0.31196165E-13</totfact>
</mgrwt>
</event>
<event>
 4    1 -0.5011189E-019  0.1491022E+02  0.7818608E-02  0.1870821E+00
         -2   -1    0    0    0  501 -0.00000000000E+00  0.00000000000E+00  0.12018769231E+03  0.12018769233E+03  0.25500000000E-02 0.  1.
          2   -1    0    0  501    0  0.00000000000E+00 -0.00000000000E+00 -0.46242868461E+00  0.46243571537E+00  0.25500000000E-02 0. -1.
         31    1    1    2    0    0 -0.14516100546E+00  0.46842060995E-01  0.57349354012E+02  0.57831052191E+02  0.74470750000E+01 0. -1.
        -31    1    1    2    0    0  0.14516100546E+00 -0.46842060995E-01  0.62375909610E+02  0.62819075857E+02  0.74470750000E+01 0.  1.
<mgrwt>
<rscale>  0 0.14910220E+02</rscale>
<asrwt>0</asrwt>
<pdfrwt beam="2">  1        2 0.98221703E+00 0.14910220E+02</pdfrwt>
<pdfrwt beam="1">  1       -2 0.99761967E+00 0.14910220E+02</pdfrwt>
<totfact>-0.37622238E-13</totfact>
</mgrwt>
</event>
<event>
 4    1 -0.5011189E-019  0.1498021E+02  0.7818608E-02  0.1868673E+00
         -2   -1    0    0    0  501 -0.00000000000E+00  0.00000000000E+00  0.11983379137E+03  0.11983379140E+03  0.25500000000E-02 0.  1.
          2   -1    0    0  501    0  0.00000000000E+00 -0.00000000000E+00 -0.46815897781E+00  0.46816592252E+00  0.25500000000E-02 0. -1.
         31    1    1    2    0    0 -0.16276414857E+00 -0.74904893408E+00  0.57796157928E+02  0.58279004485E+02  0.74470750000E+01 0.  1.
        -31    1    1    2    0    0  0.16276414857E+00  0.74904893408E+00  0.61569474465E+02  0.62022952836E+02  0.74470750000E+01 0.  1.
<mgrwt>
<rscale>  0 0.14980212E+02</rscale>
<asrwt>0</asrwt>
<pdfrwt beam="2">  1        2 0.99432960E+00 0.14980212E+02</pdfrwt>
<pdfrwt beam="1">  1       -2 0.99474075E+00 0.14980212E+02</pdfrwt>
<totfact>-0.12738664E-13</totfact>
</mgrwt>
</event>
<event>
 4    1  0.5011189E-019  0.1490022E+02  0.7818608E-02  0.1871129E+00
          2   -1    0    0  501    0  0.00000000000E+00  0.00000000000E+00  0.11946190417E+03  0.11946190420E+03  0.25500000000E-02 0. -1.
         -2   -1    0    0    0  501 -0.00000000000E+00 -0.00000000000E+00 -0.46461416032E+00  0.46462115801E+00  0.25500000000E-02 0.  1.
         31    1    1    2    0    0 -0.10590065972E+00 -0.75330528316E-01  0.60852584650E+02  0.61306711495E+02  0.74470750000E+01 0.  1.
        -31    1    1    2    0    0  0.10590065972E+00  0.75330528316E-01  0.58144705360E+02  0.58619813861E+02  0.74470750000E+01 0.  1.
<mgrwt>
<rscale>  0 0.14900217E+02</rscale>
<asrwt>0</asrwt>
<pdfrwt beam="1">  1        2 0.99163642E+00 0.14900217E+02</pdfrwt>
<pdfrwt beam="2">  1       -2 0.98681803E+00 0.14900217E+02</pdfrwt>
<totfact> 0.34508938E-13</totfact>
</mgrwt>
</event>
<event>
 4    1  0.5011189E-019  0.1489895E+02  0.7818608E-02  0.1871168E+00
         -2   -1    0    0    0  501 -0.00000000000E+00  0.00000000000E+00  0.11891059401E+03  0.11891059404E+03  0.25500000000E-02 0. -1.
          2   -1    0    0  501    0  0.00000000000E+00 -0.00000000000E+00 -0.46668874922E+00  0.46669571580E+00  0.25500000000E-02 0.  1.
         31    1    1    2    0    0 -0.17314100689E+00  0.59715586672E-01  0.59596404000E+02  0.60060168494E+02  0.74470750000E+01 0. -1.
        -31    1    1    2    0    0  0.17314100689E+00 -0.59715586672E-01  0.58847501260E+02  0.59317121258E+02  0.74470750000E+01 0. -1.
<mgrwt>
<rscale>  0 0.14898947E+02</rscale>
<asrwt>0</asrwt>
<pdfrwt beam="2">  1        2 0.99118926E+00 0.14898947E+02</pdfrwt>
<pdfrwt beam="1">  1       -2 0.98709496E+00 0.14898947E+02</pdfrwt>
<totfact> 0.31868833E-13</totfact>
</mgrwt>
</event>
<event>
 4    1  0.5011189E-019  0.1495173E+02  0.7818608E-02  0.1869545E+00
         -2   -1    0    0    0  501 -0.00000000000E+00  0.00000000000E+00  0.11896443256E+03  0.11896443258E+03  0.25500000000E-02 0.  1.
          2   -1    0    0  501    0  0.00000000000E+00 -0.00000000000E+00 -0.46978845561E+00  0.46979537622E+00  0.25500000000E-02 0. -1.
         31    1    1    2    0    0 -0.10354635148E+00  0.17212576739E+00  0.64231064010E+02  0.64661649059E+02  0.74470750000E+01 0.  1.
        -31    1    1    2    0    0  0.10354635148E+00 -0.17212576739E+00  0.54263580091E+02  0.54772578901E+02  0.74470750000E+01 0. -1.
<mgrwt>
<rscale>  0 0.14951727E+02</rscale>
<asrwt>0</asrwt>
<pdfrwt beam="2">  1        2 0.99774843E+00 0.14951727E+02</pdfrwt>
<pdfrwt beam="1">  1       -2 0.98756576E+00 0.14951727E+02</pdfrwt>
<totfact> 0.11448520E-13</totfact>
</mgrwt>
</event>
<event>
 4    1 -0.5011189E-019  0.1499458E+02  0.7818608E-02  0.1868234E+00
         -2   -1    0    0    0  501 -0.00000000000E+00  0.00000000000E+00  0.11961756034E+03  0.11961756036E+03  0.25500000000E-02 0.  1.
          2   -1    0    0  501    0  0.00000000000E+00 -0.00000000000E+00 -0.46990516729E+00  0.46991208619E+00  0.25500000000E-02 0. -1.
         31    1    1    2    0    0 -0.81870174428E+00  0.15160803050E+00  0.57659370248E+02  0.58144261634E+02  0.74470750000E+01 0.  1.
        -31    1    1    2    0    0  0.81870174428E+00 -0.15160803050E+00  0.61488284922E+02  0.61943210816E+02  0.74470750000E+01 0.  1.
<mgrwt>
<rscale>  0 0.14994576E+02</rscale>
<asrwt>0</asrwt>
<pdfrwt beam="2">  1        2 0.99801677E+00 0.14994576E+02</pdfrwt>
<pdfrwt beam="1">  1       -2 0.99296724E+00 0.14994576E+02</pdfrwt>
<totfact>-0.56113257E-14</totfact>
</mgrwt>
</event>
<event>
 4    1 -0.5011189E-019  0.1491209E+02  0.7818608E-02  0.1870763E+00
          2   -1    0    0  501    0  0.00000000000E+00  0.00000000000E+00  0.11837190674E+03  0.11837190676E+03  0.25500000000E-02 0.  1.
         -2   -1    0    0    0  501 -0.00000000000E+00 -0.00000000000E+00 -0.46964030354E+00  0.46964722634E+00  0.25500000000E-02 0. -1.
         31    1    1    2    0    0  0.78020854154E-01  0.27635549661E+00  0.60755221188E+02  0.61210606003E+02  0.74470750000E+01 0.  1.
        -31    1    1    2    0    0 -0.78020854154E-01 -0.27635549661E+00  0.57147045245E+02  0.57630947988E+02  0.74470750000E+01 0. -1.
<mgrwt>
<rscale>  0 0.14912093E+02</rscale>
<asrwt>0</asrwt>
<pdfrwt beam="1">  1        2 0.98266512E+00 0.14912093E+02</pdfrwt>
<pdfrwt beam="2">  1       -2 0.99741539E+00 0.14912093E+02</pdfrwt>
<totfact>-0.37055224E-13</totfact>
</mgrwt>
</event>
<event>
 4    1 -0.5011189E-019  0.1496594E+02  0.7818608E-02  0.1869110E+00
         -2   -1    0    0    0  501 -0.00000000000E+00  0.00000000000E+00  0.11962877625E+03  0.11962877628E+03  0.25500000000E-02 0.  1.
          2   -1    0    0  501    0  0.00000000000E+00 -0.00000000000E+00 -0.46806794068E+00  0.46807488674E+00  0.25500000000E-02 0. -1.
         31    1    1    2    0    0 -0.53299802579E+00  0.49489135141E+00  0.60246125913E+02  0.60709007717E+02  0.74470750000E+01 0. -1.
        -31    1    1    2    0    0  0.53299802579E+00 -0.49489135141E+00  0.58914582398E+02  0.59387843449E+02  0.74470750000E+01 0. -1.
<mgrwt>
<rscale>  0 0.14965936E+02</rscale>
<asrwt>0</asrwt>
<pdfrwt beam="2">  1        2 0.99413037E+00 0.14965936E+02</pdfrwt>
<pdfrwt beam="1">  1       -2 0.99304479E+00 0.14965936E+02</pdfrwt>
<totfact>-0.11301578E-13</totfact>
</mgrwt>
</event>
<event>
 4    1  0.5011189E-019  0.1489450E+02  0.7818608E-02  0.1871305E+00
          2   -1    0    0  501    0  0.00000000000E+00  0.00000000000E+00  0.12006563251E+03  0.12006563254E+03  0.25500000000E-02 0.  1.
         -2   -1    0    0    0  501 -0.00000000000E+00 -0.00000000000E+00 -0.46192333447E+00  0.46193037292E+00  0.25500000000E-02 0. -1.
         31    1    1    2    0    0 -0.25139262118E-01 -0.44553797241E-01  0.59800197263E+02  0.60262136834E+02  0.74470750000E+01 0. -1.
        -31    1    1    2    0    0  0.25139262118E-01  0.44553797241E-01  0.59803511915E+02  0.60265426078E+02  0.74470750000E+01 0.  1.
<mgrwt>
<rscale>  0 0.14894501E+02</rscale>
<asrwt>0</asrwt>
<pdfrwt beam="1">  1        2 0.99660622E+00 0.14894501E+02</pdfrwt>
<pdfrwt beam="2">  1       -2 0.98114395E+00 0.14894501E+02</pdfrwt>
<totfact> 0.92546806E-13</totfact>
</mgrwt>
</event>
<event>
 4    1  0.5011189E-019  0.1490145E+02  0.7818608E-02  0.1871091E+00
         -2   -1    0    0    0  501 -0.00000000000E+00  0.00000000000E+00  0.11815541313E+03  0.11815541316E+03  0.25500000000E-02 0.  1.
          2   -1    0    0  501    0  0.00000000000E+00 -0.00000000000E+00 -0.46982972905E+00  0.46983664906E+00  0.25500000000E-02 0. -1.
         31    1    1    2    0    0 -0.16185135345E+00  0.12625084059E+00  0.57960752470E+02  0.58437572572E+02  0.74470750000E+01 0. -1.
        -31    1    1    2    0    0  0.16185135345E+00 -0.12625084059E+00  0.59724830930E+02  0.60187677234E+02  0.74470750000E+01 0.  1.
<mgrwt>
<rscale>  0 0.14901455E+02</rscale>
<asrwt>0</asrwt>
<pdfrwt beam="2">  1        2 0.99780886E+00 0.14901455E+02</pdfrwt>
<pdfrwt beam="1">  1       -2 0.98087656E+00 0.14901455E+02</pdfrwt>
<totfact> 0.71527400E-13</totfact>
</mgrwt>
</event>
<event>
 4    1  0.5011189E-019  0.1491616E+02  0.7818608E-02  0.1870638E+00
         -2   -1    0    0    0  501 -0.00000000000E+00  0.00000000000E+00  0.11868850505E+03  0.11868850508E+03  0.25500000000E-02 0. -1.
          2   -1    0    0  501    0  0.00000000000E+00 -0.00000000000E+00 -0.46864326928E+00  0.46865020681E+00  0.25500000000E-02 0.  1.
         31    1    1    2    0    0 -0.22152197253E+00  0.28502610617E+00  0.57642442699E+02  0.58122632753E+02  0.74470750000E+01 0.  1.
        -31    1    1    2    0    0  0.22152197253E+00 -0.28502610617E+00  0.60577419087E+02  0.61034522535E+02  0.74470750000E+01 0.  1.
<mgrwt>
<rscale>  0 0.14916164E+02</rscale>
<asrwt>0</asrwt>
<pdfrwt beam="2">  1        2 0.99531675E+00 0.14916164E+02</pdfrwt>
<pdfrwt beam="1">  1       -2 0.98527473E+00 0.14916164E+02</pdfrwt>
<totfact> 0.43270326E-13</totfact>
</mgrwt>
</event>
<event>
 4    1 -0.5011189E-019  0.1499506E+02  0.7818608E-02  0.1868219E+00
          2   -1    0    0  501    0  0.00000000000E+00  0.00000000000E+00  0.12029903768E+03  0.12029903771E+03  0.25500000000E-02 0. -1.
         -2   -1    0    0    0  501 -0.00000000000E+00 -0.00000000000E+00 -0.46727326597E+00  0.46728022384E+00  0.25500000000E-02 0.  1.
         31    1    1    2    0    0  0.41056261302E+00  0.53991572957E+00  0.55549378183E+02  0.56050445255E+02  0.74470750000E+01 0. -1.
        -31    1    1    2    0    0 -0.41056261302E+00 -0.53991572957E+00  0.64282386231E+02  0.64715872677E+02  0.74470750000E+01 0. -1.
<mgrwt>
<rscale>  0 0.14995059E+02</rscale>
<asrwt>0</asrwt>
<pdfrwt beam="1">  1        2 0.99858041E+00 0.14995059E+02</pdfrwt>
<pdfrwt beam="2">  1       -2 0.99247066E+00 0.14995059E+02</pdfrwt>
<totfact>-0.38187178E-14</totfact>
</mgrwt>
</event>
<event>
 4    1  0.5011189E-019  0.1491850E+02  0.7818608E-02  0.1870566E+00
          2   -1    0    0  501    0  0.00000000000E+00  0.00000000000E+00  0.11989972118E+03  0.11989972121E+03  0.25500000000E-02 0. -1.
         -2   -1    0    0    0  501 -0.00000000000E+00 -0.00000000000E+00 -0.46405424236E+00  0.46406124849E+00  0.25500000000E-02 0.  1.
         31    1    1    2    0    0  0.33930685079E-01  0.24778660171E+00  0.56935547139E+02  0.57421058886E+02  0.74470750000E+01 0.  1.
        -31    1    1    2    0    0 -0.33930685079E-01 -0.24778660171E+00  0.62500119802E+02  0.62942723574E+02  0.74470750000E+01 0. -1.
<mgrwt>
<rscale>  0 0.14918498E+02</rscale>
<asrwt>0</asrwt>
<pdfrwt beam="1">  1        2 0.99525197E+00 0.14918498E+02</pdfrwt>
<pdfrwt beam="2">  1       -2 0.98564734E+00 0.14918498E+02</pdfrwt>
<totfact> 0.38915722E-13</totfact>
</mgrwt>
</event>
<event>
 4    1 -0.5011189E-019  0.1501430E+02  0.7818608E-02  0.1867633E+00
         -2   -1    0    0    0  501 -0.00000000000E+00  0.00000000000E+00  0.11999071342E+03  0.11999071345E+03  0.25500000000E-02 0. -1.
          2   -1    0    0  501    0  0.00000000000E+00 -0.00000000000E+00 -0.46967680384E+00  0.46968372610E+00  0.25500000000E-02 0.  1.
         31    1    1    2    0    0  0.66438529206E+00  0.16508523025E+00  0.65019662454E+02  0.65448331474E+02  0.74470750000E+01 0. -1.
        -31    1    1    2    0    0 -0.66438529206E+00 -0.16508523025E+00  0.54501374160E+02  0.55012065698E+02  0.74470750000E+01 0.  1.
<mgrwt>
<rscale>  0 0.15014296E+02</rscale>
<asrwt>0</asrwt>
<pdfrwt beam="2">  1        2 0.99754579E+00 0.15014296E+02</pdfrwt>
<pdfrwt beam="1">  1       -2 0.99605085E+00 0.15014296E+02</pdfrwt>
<totfact>-0.71358786E-14</totfact>
</mgrwt>
</event>
<event>
 4    1  0.5011189E-019  0.1489655E+02  0.7818608E-02  0.1871242E+00
          2   -1    0    0  501    0  0.00000000000E+00  0.00000000000E+00  0.11929338467E+03  0.11929338470E+03  0.25500000000E-02 0.  1.
         -2   -1    0    0    0  501 -0.00000000000E+00 -0.00000000000E+00 -0.46504167477E+00  0.46504866602E+00  0.25500000000E-02 0. -1.
         31    1    1    2    0    0  0.28102617930E-01  0.12381946329E+00  0.59752262522E+02  0.60214681960E+02  0.74470750000E+01 0. -1.
        -31    1    1    2    0    0 -0.28102617930E-01 -0.12381946329E+00  0.59076080476E+02  0.59543751406E+02  0.74470750000E+01 0. -1.
<mgrwt>
<rscale>  0 0.14896552E+02</rscale>
<asrwt>0</asrwt>
<pdfrwt beam="1">  1        2 0.99024652E+00 0.14896552E+02</pdfrwt>
<pdfrwt beam="2">  1       -2 0.98771711E+00 0.14896552E+02</pdfrwt>
<totfact> 0.25810014E-13</totfact>
</mgrwt>
</event>
<event>
 4    1 -0.5011189E-019  0.1498350E+02  0.7818608E-02  0.1868572E+00
          2   -1    0    0  501    0  0.00000000000E+00  0.00000000000E+00  0.11999403295E+03  0.11999403298E+03  0.25500000000E-02 0.  1.
         -2   -1    0    0    0  501 -0.00000000000E+00 -0.00000000000E+00 -0.46773913550E+00  0.46774608644E+00  0.25500000000E-02 0. -1.
         31    1    1    2    0    0 -0.26194069202E+00  0.29328659268E+00  0.54006135711E+02  0.54518586285E+02  0.74470750000E+01 0. -1.
        -31    1    1    2    0    0  0.26194069202E+00 -0.29328659268E+00  0.65520158102E+02  0.65943192778E+02  0.74470750000E+01 0.  1.
<mgrwt>
<rscale>  0 0.14983501E+02</rscale>
<asrwt>0</asrwt>
<pdfrwt beam="1">  1        2 0.99606227E+00 0.14983501E+02</pdfrwt>
<pdfrwt beam="2">  1       -2 0.99344653E+00 0.14983501E+02</pdfrwt>
<totfact>-0.97104819E-14</totfact>
</mgrwt>
</event>
<event>
 4    1 -0.5011189E-019  0.1499773E+02  0.7818608E-02  0.1868138E+00
          2   -1    0    0  501    0  0.00000000000E+00  0.00000000000E+00  0.11958203532E+03  0.11958203534E+03  0.25500000000E-02 0. -1.
         -2   -1    0    0    0  501 -0.00000000000E+00 -0.00000000000E+00 -0.47024270421E+00  0.47024961814E+00  0.25500000000E-02 0.  1.
         31    1    1    2    0    0  0.84252948504E+00 -0.19318795952E+00  0.58243205934E+02  0.58723735755E+02  0.74470750000E+01 0.  1.
        -31    1    1    2    0    0 -0.84252948504E+00  0.19318795952E+00  0.60868586678E+02  0.61328549207E+02  0.74470750000E+01 0.  1.
<mgrwt>
<rscale>  0 0.14997733E+02</rscale>
<asrwt>0</asrwt>
<pdfrwt beam="1">  1        2 0.99267629E+00 0.14997733E+02</pdfrwt>
<pdfrwt beam="2">  1       -2 0.99872967E+00 0.14997733E+02</pdfrwt>
<totfact>-0.58220667E-14</totfact>
</mgrwt>
</event>
<event>
 4    1 -0.5011189E-019  0.1499923E+02  0.7818608E-02  0.1868092E+00
         -2   -1    0    0    0  501 -0.00000000000E+00  0.00000000000E+00  0.11980210700E+03  0.11980210703E+03  0.25500000000E-02 0.  1.
          2   -1    0    0  501    0  0.00000000000E+00 -0.00000000000E+00 -0.46947258954E+00  0.46947951481E+00  0.25500000000E-02 0. -1.
         31    1    1    2    0    0  0.70451404645E+00  0.75505688224E-01  0.63933918736E+02  0.64370077926E+02  0.74470750000E+01 0.  1.
        -31    1    1    2    0    0 -0.70451404645E+00 -0.75505688224E-01  0.55398715676E+02  0.55901508618E+02  0.74470750000E+01 0. -1.
<mgrwt>
<rscale>  0 0.14999230E+02</rscale>
<asrwt>0</asrwt>
<pdfrwt beam="2">  1        2 0.99710764E+00 0.14999230E+02</pdfrwt>
<pdfrwt beam="1">  1       -2 0.99448963E+00 0.14999230E+02</pdfrwt>
<totfact>-0.85865435E-14</totfact>
</mgrwt>
</event>
<event>
 4    1  0.5011189E-019  0.1491046E+02  0.7818608E-02  0.1870813E+00
          2   -1    0    0  501    0  0.00000000000E+00  0.00000000000E+00  0.11970480319E+03  0.11970480322E+03  0.25500000000E-02 0. -1.
         -2   -1    0    0    0  501 -0.00000000000E+00 -0.00000000000E+00 -0.46430937666E+00  0.46431637894E+00  0.25500000000E-02 0.  1.
         31    1    1    2    0    0 -0.18121744430E+00 -0.15408322405E+00  0.57565856070E+02  0.58046044590E+02  0.74470750000E+01 0.  1.
        -31    1    1    2    0    0  0.18121744430E+00  0.15408322405E+00  0.61674637744E+02  0.62123075007E+02  0.74470750000E+01 0. -1.
<mgrwt>
<rscale>  0 0.14910464E+02</rscale>
<asrwt>0</asrwt>
<pdfrwt beam="1">  1        2 0.99364236E+00 0.14910464E+02</pdfrwt>
<pdfrwt beam="2">  1       -2 0.98618095E+00 0.14910464E+02</pdfrwt>
<totfact> 0.37760585E-13</totfact>
</mgrwt>
</event>
<event>
 4    1 -0.5011189E-019  0.1499403E+02  0.7818608E-02  0.1868251E+00
         -2   -1    0    0    0  501 -0.00000000000E+00  0.00000000000E+00  0.12006501334E+03  0.12006501336E+03  0.25500000000E-02 0. -1.
          2   -1    0    0  501    0  0.00000000000E+00 -0.00000000000E+00 -0.46811969399E+00  0.46812663928E+00  0.25500000000E-02 0.  1.
         31    1    1    2    0    0 -0.85143699411E-01 -0.69893060375E+00  0.63822141039E+02  0.64259010001E+02  0.74470750000E+01 0. -1.
        -31    1    1    2    0    0  0.85143699411E-01  0.69893060375E+00  0.55774752604E+02  0.56274130002E+02  0.74470750000E+01 0.  1.
<mgrwt>
<rscale>  0 0.14994028E+02</rscale>
<asrwt>0</asrwt>
<pdfrwt beam="2">  1        2 0.99425394E+00 0.14994028E+02</pdfrwt>
<pdfrwt beam="1">  1       -2 0.99665233E+00 0.14994028E+02</pdfrwt>
<totfact>-0.10962251E-13</totfact>
</mgrwt>
</event>
<event>
 4    1  0.5011189E-019  0.1493661E+02  0.7818608E-02  0.1870009E+00
         -2   -1    0    0    0  501 -0.00000000000E+00  0.00000000000E+00  0.11887203001E+03  0.11887203004E+03  0.25500000000E-02 0.  1.
          2   -1    0    0  501    0  0.00000000000E+00 -0.00000000000E+00 -0.46920328049E+00  0.46921020974E+00  0.25500000000E-02 0. -1.
         31    1    1    2    0    0  0.16253407338E+00  0.70538023782E-01  0.54934186503E+02  0.55436947659E+02  0.74470750000E+01 0. -1.
        -31    1    1    2    0    0 -0.16253407338E+00 -0.70538023782E-01  0.63468640231E+02  0.63904292593E+02  0.74470750000E+01 0.  1.
<mgrwt>
<rscale>  0 0.14936608E+02</rscale>
<asrwt>0</asrwt>
<pdfrwt beam="2">  1        2 0.99650748E+00 0.14936608E+02</pdfrwt>
<pdfrwt beam="1">  1       -2 0.98679687E+00 0.14936608E+02</pdfrwt>
<totfact> 0.21756046E-13</totfact>
</mgrwt>
</event>
<event>
 4    1 -0.5011189E-019  0.1490577E+02  0.7818608E-02  0.1870958E+00
          2   -1    0    0  501    0  0.00000000000E+00  0.00000000000E+00  0.11831409436E+03  0.11831409439E+03  0.25500000000E-02 0.  1.
         -2   -1    0    0    0  501 -0.00000000000E+00 -0.00000000000E+00 -0.46947113817E+00  0.46947806346E+00  0.25500000000E-02 0. -1.
         31    1    1    2    0    0  0.12423475130E+00 -0.12828411752E+00  0.60785215944E+02  0.61239964847E+02  0.74470750000E+01 0. -1.
        -31    1    1    2    0    0 -0.12423475130E+00  0.12828411752E+00  0.57059407281E+02  0.57543607607E+02  0.74470750000E+01 0. -1.
<mgrwt>
<rscale>  0 0.14905766E+02</rscale>
<asrwt>0</asrwt>
<pdfrwt beam="1">  1        2 0.98218569E+00 0.14905766E+02</pdfrwt>
<pdfrwt beam="2">  1       -2 0.99705562E+00 0.14905766E+02</pdfrwt>
<totfact>-0.43969105E-13</totfact>
</mgrwt>
</event>
<event>
 4    1  0.5011189E-019  0.1491143E+02  0.7818608E-02  0.1870783E+00
         -2   -1    0    0    0  501 -0.00000000000E+00  0.00000000000E+00  0.11841925574E+03  0.11841925576E+03  0.25500000000E-02 0. -1.
          2   -1    0    0  501    0  0.00000000000E+00 -0.00000000000E+00 -0.46941065686E+00  0.46941758305E+00  0.25500000000E-02 0.  1.
         31    1    1    2    0    0 -0.54122196326E-01  0.68567250929E-01  0.61749674812E+02  0.62197177557E+02  0.74470750000E+01 0. -1.
        -31    1    1    2    0    0  0.54122196326E-01 -0.68567250929E-01  0.56200170268E+02  0.56691495789E+02  0.74470750000E+01 0.  1.
<mgrwt>
<rscale>  0 0.14911428E+02</rscale>
<asrwt>0</asrwt>
<pdfrwt beam="2">  1        2 0.99693118E+00 0.14911428E+02</pdfrwt>
<pdfrwt beam="1">  1       -2 0.98305473E+00 0.14911428E+02</pdfrwt>
<totfact> 0.58975525E-13</totfact>
</mgrwt>
</event>
<event>
 4    1  0.5011189E-019  0.1490598E+02  0.7818608E-02  0.1870951E+00
          2   -1    0    0  501    0  0.00000000000E+00  0.00000000000E+00  0.11957250881E+03  0.11957250884E+03  0.25500000000E-02 0. -1.
         -2   -1    0    0    0  501 -0.00000000000E+00 -0.00000000000E+00 -0.46454368119E+00  0.46455067994E+00  0.25500000000E-02 0.  1.
         31    1    1    2    0    0  0.11727120833E+00 -0.27096229602E+00  0.59805557070E+02  0.60268157062E+02  0.74470750000E+01 0.  1.
        -31    1    1    2    0    0 -0.11727120833E+00  0.27096229602E+00  0.59302408060E+02  0.59768902457E+02  0.74470750000E+01 0.  1.
<mgrwt>
<rscale>  0 0.14905982E+02</rscale>
<asrwt>0</asrwt>
<pdfrwt beam="1">  1        2 0.99255039E+00 0.14905982E+02</pdfrwt>
<pdfrwt beam="2">  1       -2 0.98667246E+00 0.14905982E+02</pdfrwt>
<totfact> 0.34173008E-13</totfact>
</mgrwt>
</event>
<event>
 4    1 -0.5011189E-019  0.1492656E+02  0.7818608E-02  0.1870318E+00
         -2   -1    0    0    0  501 -0.00000000000E+00  0.00000000000E+00  0.11985390120E+03  0.11985390123E+03  0.25500000000E-02 0.  1.
          2   -1    0    0  501    0  0.00000000000E+00 -0.00000000000E+00 -0.46473376552E+00  0.46474076141E+00  0.25500000000E-02 0. -1.
         31    1    1    2    0    0 -0.35650216530E+00  0.14491524975E+00  0.62160119504E+02  0.62605810249E+02  0.74470750000E+01 0.  1.
        -31    1    1    2    0    0  0.35650216530E+00 -0.14491524975E+00  0.57229047931E+02  0.57712831740E+02  0.74470750000E+01 0.  1.
<mgrwt>
<rscale>  0 0.14926564E+02</rscale>
<asrwt>0</asrwt>
<pdfrwt beam="2">  1        2 0.98708359E+00 0.14926564E+02</pdfrwt>
<pdfrwt beam="1">  1       -2 0.99487871E+00 0.14926564E+02</pdfrwt>
<totfact>-0.25298665E-13</totfact>
</mgrwt>
</event>
<event>
 4    1 -0.5011189E-019  0.1501547E+02  0.7818608E-02  0.1867597E+00
         -2   -1    0    0    0  501 -0.00000000000E+00  0.00000000000E+00  0.11986095944E+03  0.11986095947E+03  0.25500000000E-02 0. -1.
          2   -1    0    0  501    0  0.00000000000E+00 -0.00000000000E+00 -0.47025876699E+00  0.47026568068E+00  0.25500000000E-02 0.  1.
         31    1    1    2    0    0  0.84426324137E+00 -0.11994355039E+00  0.63095246114E+02  0.63538934324E+02  0.74470750000E+01 0. -1.
        -31    1    1    2    0    0 -0.84426324137E+00  0.11994355039E+00  0.56295454560E+02  0.56792290824E+02  0.74470750000E+01 0.  1.
<mgrwt>
<rscale>  0 0.15015470E+02</rscale>
<asrwt>0</asrwt>
<pdfrwt beam="2">  1        2 0.99877275E+00 0.15015470E+02</pdfrwt>
<pdfrwt beam="1">  1       -2 0.99498276E+00 0.15015470E+02</pdfrwt>
<totfact>-0.43791456E-14</totfact>
</mgrwt>
</event>
<event>
 4    1 -0.5011189E-019  0.1491476E+02  0.7818608E-02  0.1870681E+00
          2   -1    0    0  501    0  0.00000000000E+00  0.00000000000E+00  0.11882060270E+03  0.11882060273E+03  0.25500000000E-02 0. -1.
         -2   -1    0    0    0  501 -0.00000000000E+00 -0.00000000000E+00 -0.46803412029E+00  0.46804106685E+00  0.25500000000E-02 0.  1.
         31    1    1    2    0    0 -0.64521822807E-01  0.10995501234E+00  0.62140230231E+02  0.62585009327E+02  0.74470750000E+01 0. -1.
        -31    1    1    2    0    0  0.64521822807E-01 -0.10995501234E+00  0.56212338347E+02  0.56703634466E+02  0.74470750000E+01 0.  1.
<mgrwt>
<rscale>  0 0.14914759E+02</rscale>
<asrwt>0</asrwt>
<pdfrwt beam="1">  1        2 0.98636197E+00 0.14914759E+02</pdfrwt>
<pdfrwt beam="2">  1       -2 0.99403247E+00 0.14914759E+02</pdfrwt>
<totfact>-0.27511913E-13</totfact>
</mgrwt>
</event>
<event>
 4    1  0.5011189E-019  0.1492739E+02  0.7818608E-02  0.1870292E+00
          2   -1    0    0  501    0  0.00000000000E+00  0.00000000000E+00  0.11995231923E+03  0.11995231926E+03  0.25500000000E-02 0. -1.
         -2   -1    0    0    0  501 -0.00000000000E+00 -0.00000000000E+00 -0.46440381914E+00  0.46441082000E+00  0.25500000000E-02 0.  1.
         31    1    1    2    0    0  0.24614356951E+00 -0.47236747979E-01  0.63213579402E+02  0.63651224378E+02  0.74470750000E+01 0. -1.
        -31    1    1    2    0    0 -0.24614356951E+00  0.47236747979E-01  0.56274336009E+02  0.56765505699E+02  0.74470750000E+01 0.  1.
<mgrwt>
<rscale>  0 0.14927389E+02</rscale>
<asrwt>0</asrwt>
<pdfrwt beam="1">  1        2 0.99568978E+00 0.14927389E+02</pdfrwt>
<pdfrwt beam="2">  1       -2 0.98638863E+00 0.14927389E+02</pdfrwt>
<totfact> 0.28767405E-13</totfact>
</mgrwt>
</event>
<event>
 4    1 -0.5011189E-019  0.1499809E+02  0.7818608E-02  0.1868127E+00
         -2   -1    0    0    0  501 -0.00000000000E+00  0.00000000000E+00  0.11999637055E+03  0.11999637058E+03  0.25500000000E-02 0.  1.
          2   -1    0    0  501    0  0.00000000000E+00 -0.00000000000E+00 -0.46864135981E+00  0.46864829737E+00  0.25500000000E-02 0. -1.
         31    1    1    2    0    0 -0.16457199923E-01  0.55630432342E+00  0.65252801488E+02  0.65678739128E+02  0.74470750000E+01 0.  1.
        -31    1    1    2    0    0  0.16457199923E-01 -0.55630432342E+00  0.54274927704E+02  0.54786279748E+02  0.74470750000E+01 0. -1.
<mgrwt>
<rscale>  0 0.14998091E+02</rscale>
<asrwt>0</asrwt>
<pdfrwt beam="2">  1        2 0.99535538E+00 0.14998091E+02</pdfrwt>
<pdfrwt beam="1">  1       -2 0.99608906E+00 0.14998091E+02</pdfrwt>
<totfact>-0.10663448E-13</totfact>
</mgrwt>
</event>
<event>
 4    1 -0.5011189E-019  0.1491706E+02  0.7818608E-02  0.1870610E+00
          2   -1    0    0  501    0  0.00000000000E+00  0.00000000000E+00  0.11824531307E+03  0.11824531310E+03  0.25500000000E-02 0.  1.
         -2   -1    0    0    0  501 -0.00000000000E+00 -0.00000000000E+00 -0.47045603471E+00  0.47046294551E+00  0.25500000000E-02 0. -1.
         31    1    1    2    0    0 -0.10964533432E+00  0.31594011345E+00  0.56956527665E+02  0.57442291128E+02  0.74470750000E+01 0. -1.
        -31    1    1    2    0    0  0.10964533432E+00 -0.31594011345E+00  0.60818329369E+02  0.61273484915E+02  0.74470750000E+01 0.  1.
<mgrwt>
<rscale>  0 0.14917055E+02</rscale>
<asrwt>0</asrwt>
<pdfrwt beam="1">  1        2 0.98162510E+00 0.14917055E+02</pdfrwt>
<pdfrwt beam="2">  1       -2 0.99913671E+00 0.14917055E+02</pdfrwt>
<totfact>-0.17333468E-13</totfact>
</mgrwt>
</event>
<event>
 4    1 -0.5011189E-019  0.1492609E+02  0.7818608E-02  0.1870332E+00
         -2   -1    0    0    0  501 -0.00000000000E+00  0.00000000000E+00  0.11975250602E+03  0.11975250605E+03  0.25500000000E-02 0. -1.
          2   -1    0    0  501    0  0.00000000000E+00 -0.00000000000E+00 -0.46509798781E+00  0.46510497822E+00  0.25500000000E-02 0.  1.
         31    1    1    2    0    0  0.23434028529E+00  0.31633268927E+00  0.61966379731E+02  0.62413509153E+02  0.74470750000E+01 0. -1.
        -31    1    1    2    0    0 -0.23434028529E+00 -0.31633268927E+00  0.57321028302E+02  0.57804101874E+02  0.74470750000E+01 0.  1.
<mgrwt>
<rscale>  0 0.14926094E+02</rscale>
<asrwt>0</asrwt>
<pdfrwt beam="2">  1        2 0.98785096E+00 0.14926094E+02</pdfrwt>
<pdfrwt beam="1">  1       -2 0.99404332E+00 0.14926094E+02</pdfrwt>
<totfact>-0.22330605E-13</totfact>
</mgrwt>
</event>
<event>
 4    1 -0.5011189E-019  0.1499783E+02  0.7818608E-02  0.1868135E+00
          2   -1    0    0  501    0  0.00000000000E+00  0.00000000000E+00  0.11992626499E+03  0.11992626502E+03  0.25500000000E-02 0. -1.
         -2   -1    0    0    0  501 -0.00000000000E+00 -0.00000000000E+00 -0.46889903924E+00  0.46890597298E+00  0.25500000000E-02 0.  1.
         31    1    1    2    0    0  0.12918425530E+00 -0.19536537454E+00  0.66539997784E+02  0.66955844310E+02  0.74470750000E+01 0. -1.
        -31    1    1    2    0    0 -0.12918425530E+00  0.19536537454E+00  0.52917368169E+02  0.53439326681E+02  0.74470750000E+01 0.  1.
<mgrwt>
<rscale>  0 0.14997830E+02</rscale>
<asrwt>0</asrwt>
<pdfrwt beam="1">  1        2 0.99551151E+00 0.14997830E+02</pdfrwt>
<pdfrwt beam="2">  1       -2 0.99589827E+00 0.14997830E+02</pdfrwt>
<totfact>-0.10682558E-13</totfact>
</mgrwt>
</event>
<event>
 4    1 -0.5011189E-019  0.1498571E+02  0.7818608E-02  0.1868505E+00
          2   -1    0    0  501    0  0.00000000000E+00  0.00000000000E+00  0.11980007198E+03  0.11980007200E+03  0.25500000000E-02 0.  1.
         -2   -1    0    0    0  501 -0.00000000000E+00 -0.00000000000E+00 -0.46863468671E+00  0.46864162436E+00  0.25500000000E-02 0. -1.
         31    1    1    2    0    0  0.12384374713E+00 -0.37007803949E+00  0.53813842544E+02  0.54328085466E+02  0.74470750000E+01 0. -1.
        -31    1    1    2    0    0 -0.12384374713E+00  0.37007803949E+00  0.65517594747E+02  0.65940628163E+02  0.74470750000E+01 0.  1.
<mgrwt>
<rscale>  0 0.14985712E+02</rscale>
<asrwt>0</asrwt>
<pdfrwt beam="1">  1        2 0.99446587E+00 0.14985712E+02</pdfrwt>
<pdfrwt beam="2">  1       -2 0.99533492E+00 0.14985712E+02</pdfrwt>
<totfact>-0.12407128E-13</totfact>
</mgrwt>
</event>
<event>
 4    1  0.5011189E-019  0.1490833E+02  0.7818608E-02  0.1870879E+00
          2   -1    0    0  501    0  0.00000000000E+00  0.00000000000E+00  0.12018314760E+03  0.12018314763E+03  0.25500000000E-02 0.  1.
         -2   -1    0    0    0  501 -0.00000000000E+00 -0.00000000000E+00 -0.46232894498E+00  0.46233597726E+00  0.25500000000E-02 0. -1.
         31    1    1    2    0    0  0.22556916906E+00  0.16736437595E+00  0.58536716343E+02  0.59009194017E+02  0.74470750000E+01 0.  1.
        -31    1    1    2    0    0 -0.22556916906E+00 -0.16736437595E+00  0.61184102316E+02  0.61636289591E+02  0.74470750000E+01 0. -1.
<mgrwt>
<rscale>  0 0.14908330E+02</rscale>
<asrwt>0</asrwt>
<pdfrwt beam="1">  1        2 0.99758127E+00 0.14908330E+02</pdfrwt>
<pdfrwt beam="2">  1       -2 0.98200585E+00 0.14908330E+02</pdfrwt>
<totfact> 0.62174883E-13</totfact>
</mgrwt>
</event>
<event>
 4    1 -0.5011189E-019  0.1491701E+02  0.7818608E-02  0.1870611E+00
          2   -1    0    0  501    0  0.00000000000E+00  0.00000000000E+00  0.11867729019E+03  0.11867729021E+03  0.25500000000E-02 0. -1.
         -2   -1    0    0    0  501 -0.00000000000E+00 -0.00000000000E+00 -0.46874096270E+00  0.46874789878E+00  0.25500000000E-02 0.  1.
         31    1    1    2    0    0 -0.13322082564E-01  0.31963269540E+00  0.61187915820E+02  0.61640265338E+02  0.74470750000E+01 0. -1.
        -31    1    1    2    0    0  0.13322082564E-01 -0.31963269540E+00  0.57020633403E+02  0.57505772773E+02  0.74470750000E+01 0.  1.
<mgrwt>
<rscale>  0 0.14917013E+02</rscale>
<asrwt>0</asrwt>
<pdfrwt beam="1">  1        2 0.98518281E+00 0.14917013E+02</pdfrwt>
<pdfrwt beam="2">  1       -2 0.99552305E+00 0.14917013E+02</pdfrwt>
<totfact>-0.32952009E-13</totfact>
</mgrwt>
</event>
<event>
 4    1 -0.5011189E-019  0.1496574E+02  0.7818608E-02  0.1869116E+00
          2   -1    0    0  501    0  0.00000000000E+00  0.00000000000E+00  0.11973323041E+03  0.11973323044E+03  0.25500000000E-02 0.  1.
         -2   -1    0    0    0  501 -0.00000000000E+00 -0.00000000000E+00 -0.46764761440E+00  0.46765456670E+00  0.25500000000E-02 0. -1.
         31    1    1    2    0    0 -0.28538798885E-01 -0.65711732993E+00  0.62195850215E+02  0.62643557750E+02  0.74470750000E+01 0.  1.
        -31    1    1    2    0    0  0.28538798885E-01  0.65711732993E+00  0.57069732584E+02  0.57557327257E+02  0.74470750000E+01 0. -1.
<mgrwt>
<rscale>  0 0.14965745E+02</rscale>
<asrwt>0</asrwt>
<pdfrwt beam="1">  1        2 0.99390502E+00 0.14965745E+02</pdfrwt>
<pdfrwt beam="2">  1       -2 0.99324450E+00 0.14965745E+02</pdfrwt>
<totfact>-0.11888845E-13</totfact>
</mgrwt>
</event>
<event>
 4    1 -0.5011189E-019  0.1496755E+02  0.7818608E-02  0.1869060E+00
         -2   -1    0    0    0  501 -0.00000000000E+00  0.00000000000E+00  0.12017636934E+03  0.12017636936E+03  0.25500000000E-02 0.  1.
          2   -1    0    0  501    0  0.00000000000E+00 -0.00000000000E+00 -0.46603530925E+00  0.46604228560E+00  0.25500000000E-02 0. -1.
         31    1    1    2    0    0 -0.17489966157E+00 -0.61401974473E+00  0.56835871197E+02  0.57325236946E+02  0.74470750000E+01 0.  1.
        -31    1    1    2    0    0  0.17489966157E+00  0.61401974473E+00  0.62874462829E+02  0.63317174702E+02  0.74470750000E+01 0. -1.
<mgrwt>
<rscale>  0 0.14967545E+02</rscale>
<asrwt>0</asrwt>
<pdfrwt beam="2">  1        2 0.98984758E+00 0.14967545E+02</pdfrwt>
<pdfrwt beam="1">  1       -2 0.99755587E+00 0.14967545E+02</pdfrwt>
<totfact>-0.12582567E-13</totfact>
</mgrwt>
</event>
<event>
 4    1 -0.5011189E-019  0.1500187E+02  0.7818608E-02  0.1868011E+00
         -2   -1    0    0    0  501 -0.00000000000E+00  0.00000000000E+00  0.11991604337E+03  0.11991604340E+03  0.25500000000E-02 0.  1.
          2   -1    0    0  501    0  0.00000000000E+00 -0.00000000000E+00 -0.46919184942E+00  0.46919877883E+00  0.25500000000E-02 0. -1.
         31    1    1    2    0    0  0.24966051598E+00  0.85175547774E+00  0.58667789092E+02  0.59145213000E+02  0.74470750000E+01 0. -1.
        -31    1    1    2    0    0 -0.24966051598E+00 -0.85175547774E+00  0.60779062427E+02  0.61240029175E+02  0.74470750000E+01 0.  1.
<mgrwt>
<rscale>  0 0.15001873E+02</rscale>
<asrwt>0</asrwt>
<pdfrwt beam="2">  1        2 0.99651740E+00 0.15001873E+02</pdfrwt>
<pdfrwt beam="1">  1       -2 0.99542941E+00 0.15001873E+02</pdfrwt>
<totfact>-0.95420360E-14</totfact>
</mgrwt>
</event>
<event>
 4    1  0.5011189E-019  0.1491154E+02  0.7818608E-02  0.1870780E+00
         -2   -1    0    0    0  501 -0.00000000000E+00  0.00000000000E+00  0.11808255847E+03  0.11808255850E+03  0.25500000000E-02 0. -1.
          2   -1    0    0  501    0  0.00000000000E+00 -0.00000000000E+00 -0.47075648770E+00  0.47076339409E+00  0.25500000000E-02 0.  1.
         31    1    1    2    0    0 -0.18887731666E+00  0.23280655022E+00  0.57220951244E+02  0.57704298461E+02  0.74470750000E+01 0.  1.
        -31    1    1    2    0    0  0.18887731666E+00 -0.23280655022E+00  0.60390850736E+02  0.60849023429E+02  0.74470750000E+01 0. -1.
<mgrwt>
<rscale>  0 0.14911545E+02</rscale>
<asrwt>0</asrwt>
<pdfrwt beam="2">  1        2 0.99976680E+00 0.14911545E+02</pdfrwt>
<pdfrwt beam="1">  1       -2 0.98028181E+00 0.14911545E+02</pdfrwt>
<totfact> 0.10499508E-13</totfact>
</mgrwt>
</event>
<event>
 4    1 -0.5011189E-019  0.1498087E+02  0.7818608E-02  0.1868653E+00
          2   -1    0    0  501    0  0.00000000000E+00  0.00000000000E+00  0.11943495692E+03  0.11943495695E+03  0.25500000000E-02 0. -1.
         -2   -1    0    0    0  501 -0.00000000000E+00 -0.00000000000E+00 -0.46976334175E+00  0.46977026274E+00  0.25500000000E-02 0.  1.
         31    1    1    2    0    0  0.46021980347E+00 -0.17197800347E+00  0.54380952838E+02  0.54890694442E+02  0.74470750000E+01 0.  1.
        -31    1    1    2    0    0 -0.46021980347E+00  0.17197800347E+00  0.64584240739E+02  0.65014032767E+02  0.74470750000E+01 0. -1.
<mgrwt>
<rscale>  0 0.14980865E+02</rscale>
<asrwt>0</asrwt>
<pdfrwt beam="1">  1        2 0.99145618E+00 0.14980865E+02</pdfrwt>
<pdfrwt beam="2">  1       -2 0.99771076E+00 0.14980865E+02</pdfrwt>
<totfact>-0.10421210E-13</totfact>
</mgrwt>
</event>
<event>
 4    1 -0.5011189E-019  0.1497865E+02  0.7818608E-02  0.1868721E+00
         -2   -1    0    0    0  501 -0.00000000000E+00  0.00000000000E+00  0.11972184244E+03  0.11972184247E+03  0.25500000000E-02 0. -1.
          2   -1    0    0  501    0  0.00000000000E+00 -0.00000000000E+00 -0.46849916040E+00  0.46850610006E+00  0.25500000000E-02 0.  1.
         31    1    1    2    0    0  0.27767862170E-01  0.79358027299E+00  0.59812196382E+02  0.60279252673E+02  0.74470750000E+01 0.  1.
        -31    1    1    2    0    0 -0.27767862170E-01 -0.79358027299E+00  0.59441146897E+02  0.59911095894E+02  0.74470750000E+01 0. -1.
<mgrwt>
<rscale>  0 0.14978652E+02</rscale>
<asrwt>0</asrwt>
<pdfrwt beam="2">  1        2 0.99504567E+00 0.14978652E+02</pdfrwt>
<pdfrwt beam="1">  1       -2 0.99381789E+00 0.14978652E+02</pdfrwt>
<totfact>-0.11458152E-13</totfact>
</mgrwt>
</event>
<event>
 4    1 -0.5011189E-019  0.1494412E+02  0.7818608E-02  0.1869778E+00
          2   -1    0    0  501    0  0.00000000000E+00  0.00000000000E+00  0.11888004193E+03  0.11888004196E+03  0.25500000000E-02 0. -1.
         -2   -1    0    0    0  501 -0.00000000000E+00 -0.00000000000E+00 -0.46964398060E+00  0.46965090334E+00  0.25500000000E-02 0.  1.
         31    1    1    2    0    0 -0.53988756222E+00  0.27654493990E+00  0.58650209744E+02  0.59124225025E+02  0.74470750000E+01 0.  1.
        -31    1    1    2    0    0  0.53988756222E+00 -0.27654493990E+00  0.59760188209E+02  0.60225467839E+02  0.74470750000E+01 0.  1.
<mgrwt>
<rscale>  0 0.14944124E+02</rscale>
<asrwt>0</asrwt>
<pdfrwt beam="1">  1        2 0.98686677E+00 0.14944124E+02</pdfrwt>
<pdfrwt beam="2">  1       -2 0.99744002E+00 0.14944124E+02</pdfrwt>
<totfact>-0.18703274E-13</totfact>
</mgrwt>
</event>
<event>
 4    1 -0.5011189E-019  0.1500179E+02  0.7818608E-02  0.1868014E+00
         -2   -1    0    0    0  501 -0.00000000000E+00  0.00000000000E+00  0.11991403426E+03  0.11991403429E+03  0.25500000000E-02 0. -1.
          2   -1    0    0  501    0  0.00000000000E+00 -0.00000000000E+00 -0.46919462350E+00  0.46920155288E+00  0.25500000000E-02 0.  1.
         31    1    1    2    0    0 -0.12690493416E+00 -0.85388840559E+00  0.61676247796E+02  0.62130215664E+02  0.74470750000E+01 0. -1.
        -31    1    1    2    0    0  0.12690493416E+00  0.85388840559E+00  0.57768591839E+02  0.58253020174E+02  0.74470750000E+01 0.  1.
<mgrwt>
<rscale>  0 0.15001792E+02</rscale>
<asrwt>0</asrwt>
<pdfrwt beam="2">  1        2 0.99652321E+00 0.15001792E+02</pdfrwt>
<pdfrwt beam="1">  1       -2 0.99541282E+00 0.15001792E+02</pdfrwt>
<totfact>-0.95409323E-14</totfact>
</mgrwt>
</event>
<event>
 4    1 -0.5011189E-019  0.1497376E+02  0.7818608E-02  0.1868870E+00
         -2   -1    0    0    0  501 -0.00000000000E+00  0.00000000000E+00  0.11932124771E+03  0.11932124773E+03  0.25500000000E-02 0.  1.
          2   -1    0    0  501    0  0.00000000000E+00 -0.00000000000E+00 -0.46976512026E+00  0.46977204122E+00  0.25500000000E-02 0. -1.
         31    1    1    2    0    0  0.22010029869E+00  0.14130661892E+00  0.53623414038E+02  0.54138691071E+02  0.74470750000E+01 0. -1.
        -31    1    1    2    0    0 -0.22010029869E+00 -0.14130661892E+00  0.65228068547E+02  0.65652328703E+02  0.74470750000E+01 0.  1.
<mgrwt>
<rscale>  0 0.14973761E+02</rscale>
<asrwt>0</asrwt>
<pdfrwt beam="2">  1        2 0.99771080E+00 0.14973761E+02</pdfrwt>
<pdfrwt beam="1">  1       -2 0.99051596E+00 0.14973761E+02</pdfrwt>
<totfact>-0.11666260E-14</totfact>
</mgrwt>
</event>
<event>
 4    1  0.5011189E-019  0.1491931E+02  0.7818608E-02  0.1870541E+00
         -2   -1    0    0    0  501 -0.00000000000E+00  0.00000000000E+00  0.11849794757E+03  0.11849794760E+03  0.25500000000E-02 0.  1.
          2   -1    0    0  501    0  0.00000000000E+00 -0.00000000000E+00 -0.46959513922E+00  0.46960206269E+00  0.25500000000E-02 0. -1.
         31    1    1    2    0    0  0.81487344280E-01 -0.30725434411E+00  0.56668904234E+02  0.57157017754E+02  0.74470750000E+01 0. -1.
        -31    1    1    2    0    0 -0.81487344280E-01  0.30725434411E+00  0.61359448195E+02  0.61810531904E+02  0.74470750000E+01 0.  1.
<mgrwt>
<rscale>  0 0.14919313E+02</rscale>
<asrwt>0</asrwt>
<pdfrwt beam="2">  1        2 0.99732404E+00 0.14919313E+02</pdfrwt>
<pdfrwt beam="1">  1       -2 0.98370694E+00 0.14919313E+02</pdfrwt>
<totfact> 0.46219307E-13</totfact>
</mgrwt>
</event>
<event>
 4    1 -0.5011189E-019  0.1490619E+02  0.7818608E-02  0.1870945E+00
         -2   -1    0    0    0  501 -0.00000000000E+00  0.00000000000E+00  0.12045242787E+03  0.12045242790E+03  0.25500000000E-02 0. -1.
          2   -1    0    0  501    0  0.00000000000E+00 -0.00000000000E+00 -0.46116278000E+00  0.46116983006E+00  0.25500000000E-02 0.  1.
         31    1    1    2    0    0  0.13454958372E+00 -0.26565690801E+00  0.60252287608E+02  0.60711496154E+02  0.74470750000E+01 0. -1.
        -31    1    1    2    0    0 -0.13454958372E+00  0.26565690801E+00  0.59738977483E+02  0.60202101574E+02  0.74470750000E+01 0. -1.
<mgrwt>
<rscale>  0 0.14906187E+02</rscale>
<asrwt>0</asrwt>
<pdfrwt beam="2">  1        2 0.97954674E+00 0.14906187E+02</pdfrwt>
<pdfrwt beam="1">  1       -2 0.99979822E+00 0.14906187E+02</pdfrwt>
<totfact>-0.60124261E-14</totfact>
</mgrwt>
</event>
<event>
 4    1 -0.5011189E-019  0.1490184E+02  0.7818608E-02  0.1871079E+00
         -2   -1    0    0    0  501 -0.00000000000E+00  0.00000000000E+00  0.11983045862E+03  0.11983045864E+03  0.25500000000E-02 0. -1.
          2   -1    0    0  501    0  0.00000000000E+00 -0.00000000000E+00 -0.46328593416E+00  0.46329295191E+00  0.25500000000E-02 0.  1.
         31    1    1    2    0    0 -0.86610127547E-01  0.38172116318E-02  0.57883099478E+02  0.58360257428E+02  0.74470750000E+01 0.  1.
        -31    1    1    2    0    0  0.86610127547E-01 -0.38172116318E-02  0.61484073204E+02  0.61933494166E+02  0.74470750000E+01 0. -1.
<mgrwt>
<rscale>  0 0.14901837E+02</rscale>
<asrwt>0</asrwt>
<pdfrwt beam="2">  1        2 0.98401958E+00 0.14901837E+02</pdfrwt>
<pdfrwt beam="1">  1       -2 0.99467290E+00 0.14901837E+02</pdfrwt>
<totfact>-0.40897747E-13</totfact>
</mgrwt>
</event>
<event>
 4    1  0.5011189E-019  0.1492084E+02  0.7818608E-02  0.1870494E+00
         -2   -1    0    0    0  501 -0.00000000000E+00  0.00000000000E+00  0.11849478537E+03  0.11849478540E+03  0.25500000000E-02 0. -1.
          2   -1    0    0  501    0  0.00000000000E+00 -0.00000000000E+00 -0.46970368904E+00  0.46971061091E+00  0.25500000000E-02 0.  1.
         31    1    1    2    0    0  0.80628580619E-01  0.34759391342E+00  0.61146021135E+02  0.61598881071E+02  0.74470750000E+01 0. -1.
        -31    1    1    2    0    0 -0.80628580619E-01 -0.34759391342E+00  0.56879060544E+02  0.57365614936E+02  0.74470750000E+01 0. -1.
<mgrwt>
<rscale>  0 0.14920838E+02</rscale>
<asrwt>0</asrwt>
<pdfrwt beam="2">  1        2 0.99755356E+00 0.14920838E+02</pdfrwt>
<pdfrwt beam="1">  1       -2 0.98368169E+00 0.14920838E+02</pdfrwt>
<totfact> 0.43593121E-13</totfact>
</mgrwt>
</event>
<event>
 4    1 -0.5011189E-019  0.1499884E+02  0.7818608E-02  0.1868104E+00
          2   -1    0    0  501    0  0.00000000000E+00  0.00000000000E+00  0.12010742469E+03  0.12010742472E+03  0.25500000000E-02 0. -1.
         -2   -1    0    0    0  501 -0.00000000000E+00 -0.00000000000E+00 -0.46825494486E+00  0.46826188814E+00  0.25500000000E-02 0.  1.
         31    1    1    2    0    0 -0.64438669226E+00  0.48117610600E+00  0.56859037882E+02  0.57350291016E+02  0.74470750000E+01 0.  1.
        -31    1    1    2    0    0  0.64438669226E+00 -0.48117610600E+00  0.62780131865E+02  0.63225395592E+02  0.74470750000E+01 0. -1.
<mgrwt>
<rscale>  0 0.14998842E+02</rscale>
<asrwt>0</asrwt>
<pdfrwt beam="1">  1        2 0.99700414E+00 0.14998842E+02</pdfrwt>
<pdfrwt beam="2">  1       -2 0.99454145E+00 0.14998842E+02</pdfrwt>
<totfact>-0.88033973E-14</totfact>
</mgrwt>
</event>
<event>
 4    1  0.5011189E-019  0.1489954E+02  0.7818608E-02  0.1871150E+00
          2   -1    0    0  501    0  0.00000000000E+00  0.00000000000E+00  0.11958231845E+03  0.11958231848E+03  0.25500000000E-02 0.  1.
         -2   -1    0    0    0  501 -0.00000000000E+00 -0.00000000000E+00 -0.46410438370E+00  0.46411138907E+00  0.25500000000E-02 0. -1.
         31    1    1    2    0    0 -0.12275307779E+00 -0.15228149746E+00  0.59911808599E+02  0.60373189361E+02  0.74470750000E+01 0.  1.
        -31    1    1    2    0    0  0.12275307779E+00  0.15228149746E+00  0.59206405468E+02  0.59673240506E+02  0.74470750000E+01 0.  1.
<mgrwt>
<rscale>  0 0.14899544E+02</rscale>
<asrwt>0</asrwt>
<pdfrwt beam="1">  1        2 0.99262787E+00 0.14899544E+02</pdfrwt>
<pdfrwt beam="2">  1       -2 0.98574334E+00 0.14899544E+02</pdfrwt>
<totfact> 0.47039067E-13</totfact>
</mgrwt>
</event>
<event>
 4    1  0.5011189E-019  0.1491807E+02  0.7818608E-02  0.1870579E+00
         -2   -1    0    0    0  501 -0.00000000000E+00  0.00000000000E+00  0.11871897667E+03  0.11871897670E+03  0.25500000000E-02 0.  1.
          2   -1    0    0  501    0  0.00000000000E+00 -0.00000000000E+00 -0.46864284264E+00  0.46864978017E+00  0.25500000000E-02 0. -1.
         31    1    1    2    0    0 -0.41424054701E+00 -0.40107506688E-01  0.58555506995E+02  0.59028633132E+02  0.74470750000E+01 0.  1.
        -31    1    1    2    0    0  0.41424054701E+00  0.40107506688E-01  0.59694826831E+02  0.60158993345E+02  0.74470750000E+01 0. -1.
<mgrwt>
<rscale>  0 0.14918071E+02</rscale>
<asrwt>0</asrwt>
<pdfrwt beam="2">  1        2 0.99531686E+00 0.14918071E+02</pdfrwt>
<pdfrwt beam="1">  1       -2 0.98552669E+00 0.14918071E+02</pdfrwt>
<totfact> 0.40107658E-13</totfact>
</mgrwt>
</event>
<event>
 4    1 -0.5011189E-019  0.1498396E+02  0.7818608E-02  0.1868558E+00
         -2   -1    0    0    0  501 -0.00000000000E+00  0.00000000000E+00  0.11943592696E+03  0.11943592699E+03  0.25500000000E-02 0. -1.
          2   -1    0    0  501    0  0.00000000000E+00 -0.00000000000E+00 -0.46995352507E+00  0.46996044325E+00  0.25500000000E-02 0.  1.
         31    1    1    2    0    0  0.80941851995E+00  0.35826718949E-01  0.58523268251E+02  0.59000748256E+02  0.74470750000E+01 0.  1.
        -31    1    1    2    0    0 -0.80941851995E+00 -0.35826718949E-01  0.60442705182E+02  0.60905139173E+02  0.74470750000E+01 0.  1.
<mgrwt>
<rscale>  0 0.14983958E+02</rscale>
<asrwt>0</asrwt>
<pdfrwt beam="2">  1        2 0.99811313E+00 0.14983958E+02</pdfrwt>
<pdfrwt beam="1">  1       -2 0.99146577E+00 0.14983958E+02</pdfrwt>
<totfact>-0.31773295E-14</totfact>
</mgrwt>
</event>
<event>
 4    1  0.5011189E-019  0.1493213E+02  0.7818608E-02  0.1870147E+00
         -2   -1    0    0    0  501 -0.00000000000E+00  0.00000000000E+00  0.11863483084E+03  0.11863483086E+03  0.25500000000E-02 0. -1.
          2   -1    0    0  501    0  0.00000000000E+00 -0.00000000000E+00 -0.46985946862E+00  0.46986638819E+00  0.25500000000E-02 0.  1.
         31    1    1    2    0    0 -0.13942504319E+00 -0.41963878019E+00  0.56721009381E+02  0.57209504170E+02  0.74470750000E+01 0.  1.
        -31    1    1    2    0    0  0.13942504319E+00  0.41963878019E+00  0.61443961985E+02  0.61895193081E+02  0.74470750000E+01 0. -1.
<mgrwt>
<rscale>  0 0.14932128E+02</rscale>
<asrwt>0</asrwt>
<pdfrwt beam="2">  1        2 0.99788775E+00 0.14932128E+02</pdfrwt>
<pdfrwt beam="1">  1       -2 0.98484097E+00 0.14932128E+02</pdfrwt>
<totfact> 0.29038119E-13</totfact>
</mgrwt>
</event>
<event>
 4    1  0.5011189E-019  0.1490860E+02  0.7818608E-02  0.1870871E+00
          2   -1    0    0  501    0  0.00000000000E+00  0.00000000000E+00  0.11946732989E+03  0.11946732992E+03  0.25500000000E-02 0. -1.
         -2   -1    0    0    0  501 -0.00000000000E+00 -0.00000000000E+00 -0.46511579179E+00  0.46512278194E+00  0.25500000000E-02 0.  1.
         31    1    1    2    0    0 -0.30655842177E-01 -0.25054330675E+00  0.57815118446E+02  0.58293314871E+02  0.74470750000E+01 0. -1.
        -31    1    1    2    0    0  0.30655842177E-01  0.25054330675E+00  0.61187095656E+02  0.61639137831E+02  0.74470750000E+01 0.  1.
<mgrwt>
<rscale>  0 0.14908597E+02</rscale>
<asrwt>0</asrwt>
<pdfrwt beam="1">  1        2 0.99168543E+00 0.14908597E+02</pdfrwt>
<pdfrwt beam="2">  1       -2 0.98787950E+00 0.14908597E+02</pdfrwt>
<totfact> 0.21020269E-13</totfact>
</mgrwt>
</event>
<event>
 4    1 -0.5011189E-019  0.1489561E+02  0.7818608E-02  0.1871271E+00
         -2   -1    0    0    0  501 -0.00000000000E+00  0.00000000000E+00  0.11996139170E+03  0.11996139173E+03  0.25500000000E-02 0. -1.
          2   -1    0    0  501    0  0.00000000000E+00 -0.00000000000E+00 -0.46239358016E+00  0.46240061145E+00  0.25500000000E-02 0.  1.
         31    1    1    2    0    0  0.22211973871E-01 -0.62295581758E-01  0.60401404934E+02  0.60858795734E+02  0.74470750000E+01 0. -1.
        -31    1    1    2    0    0 -0.22211973871E-01  0.62295581758E-01  0.59097593187E+02  0.59564996606E+02  0.74470750000E+01 0.  1.
<mgrwt>
<rscale>  0 0.14895610E+02</rscale>
<asrwt>0</asrwt>
<pdfrwt beam="2">  1        2 0.98213565E+00 0.14895610E+02</pdfrwt>
<pdfrwt beam="1">  1       -2 0.99574817E+00 0.14895610E+02</pdfrwt>
<totfact>-0.53879037E-13</totfact>
</mgrwt>
</event>
<event>
 4    1 -0.5011189E-019  0.1501535E+02  0.7818608E-02  0.1867600E+00
          2   -1    0    0  501    0  0.00000000000E+00  0.00000000000E+00  0.11998688192E+03  0.11998688194E+03  0.25500000000E-02 0. -1.
         -2   -1    0    0    0  501 -0.00000000000E+00 -0.00000000000E+00 -0.46975773316E+00  0.46976465423E+00  0.25500000000E-02 0.  1.
         31    1    1    2    0    0 -0.44739489678E+00  0.69126807426E+00  0.63591178120E+02  0.64031046177E+02  0.74470750000E+01 0. -1.
        -31    1    1    2    0    0  0.44739489678E+00 -0.69126807426E+00  0.55925946063E+02  0.56425600421E+02  0.74470750000E+01 0.  1.
<mgrwt>
<rscale>  0 0.15015350E+02</rscale>
<asrwt>0</asrwt>
<pdfrwt beam="1">  1        2 0.99601983E+00 0.15015350E+02</pdfrwt>
<pdfrwt beam="2">  1       -2 0.99771688E+00 0.15015350E+02</pdfrwt>
<totfact>-0.69427168E-14</totfact>
</mgrwt>
</event>
<event>
 4    1 -0.5011189E-019  0.1502615E+02  0.7818608E-02  0.1867272E+00
          2   -1    0    0  501    0  0.00000000000E+00  0.00000000000E+00  0.12009631140E+03  0.12009631142E+03  0.25500000000E-02 0.  1.
         -2   -1    0    0    0  501 -0.00000000000E+00 -0.00000000000E+00 -0.47000500198E+00  0.47001191941E+00  0.25500000000E-02 0. -1.
         31    1    1    2    0    0 -0.75641185944E+00  0.19688788996E+00  0.64736085490E+02  0.65167711441E+02  0.74470750000E+01 0.  1.
        -31    1    1    2    0    0  0.75641185944E+00 -0.19688788996E+00  0.54890220905E+02  0.55398611903E+02  0.74470750000E+01 0.  1.
<mgrwt>
<rscale>  0 0.15026149E+02</rscale>
<asrwt>0</asrwt>
<pdfrwt beam="1">  1        2 0.99692672E+00 0.15026149E+02</pdfrwt>
<pdfrwt beam="2">  1       -2 0.99824354E+00 0.15026149E+02</pdfrwt>
<totfact>-0.47833575E-14</totfact>
</mgrwt>
</event>
<event>
 4    1 -0.5011189E-019  0.1496340E+02  0.7818608E-02  0.1869188E+00
         -2   -1    0    0    0  501 -0.00000000000E+00  0.00000000000E+00  0.11941600499E+03  0.11941600501E+03  0.25500000000E-02 0.  1.
          2   -1    0    0  501    0  0.00000000000E+00 -0.00000000000E+00 -0.46874279555E+00  0.46874973160E+00  0.25500000000E-02 0. -1.
         31    1    1    2    0    0  0.32021859850E+00  0.51853117565E+00  0.56417874690E+02  0.56910516824E+02  0.74470750000E+01 0. -1.
        -31    1    1    2    0    0 -0.32021859850E+00 -0.51853117565E+00  0.62529387502E+02  0.62974237923E+02  0.74470750000E+01 0.  1.
<mgrwt>
<rscale>  0 0.14963397E+02</rscale>
<asrwt>0</asrwt>
<pdfrwt beam="2">  1        2 0.99555115E+00 0.14963397E+02</pdfrwt>
<pdfrwt beam="1">  1       -2 0.99129103E+00 0.14963397E+02</pdfrwt>
<totfact>-0.50599133E-14</totfact>
</mgrwt>
</event>
<event>
 4    1 -0.5011189E-019  0.1497466E+02  0.7818608E-02  0.1868843E+00
         -2   -1    0    0    0  501 -0.00000000000E+00  0.00000000000E+00  0.12012104250E+03  0.12012104252E+03  0.25500000000E-02 0. -1.
          2   -1    0    0  501    0  0.00000000000E+00 -0.00000000000E+00 -0.46669339520E+00  0.46670036171E+00  0.25500000000E-02 0.  1.
         31    1    1    2    0    0  0.48036930479E-01  0.27728535012E+00  0.65645266868E+02  0.66066929571E+02  0.74470750000E+01 0. -1.
        -31    1    1    2    0    0 -0.48036930479E-01 -0.27728535012E+00  0.54009082234E+02  0.54520813315E+02  0.74470750000E+01 0.  1.
<mgrwt>
<rscale>  0 0.14974661E+02</rscale>
<asrwt>0</asrwt>
<pdfrwt beam="2">  1        2 0.99123814E+00 0.14974661E+02</pdfrwt>
<pdfrwt beam="1">  1       -2 0.99710383E+00 0.14974661E+02</pdfrwt>
<totfact>-0.12553481E-13</totfact>
</mgrwt>
</event>
<event>
 4    1  0.5011189E-019  0.1490992E+02  0.7818608E-02  0.1870830E+00
          2   -1    0    0  501    0  0.00000000000E+00  0.00000000000E+00  0.11964498255E+03  0.11964498257E+03  0.25500000000E-02 0. -1.
         -2   -1    0    0    0  501 -0.00000000000E+00 -0.00000000000E+00 -0.46450731571E+00  0.46451431501E+00  0.25500000000E-02 0.  1.
         31    1    1    2    0    0 -0.16706582436E+00  0.23666996665E+00  0.58114883621E+02  0.58590806002E+02  0.74470750000E+01 0.  1.
        -31    1    1    2    0    0  0.16706582436E+00 -0.23666996665E+00  0.61065591610E+02  0.61518690887E+02  0.74470750000E+01 0. -1.
<mgrwt>
<rscale>  0 0.14909915E+02</rscale>
<asrwt>0</asrwt>
<pdfrwt beam="1">  1        2 0.99314936E+00 0.14909915E+02</pdfrwt>
<pdfrwt beam="2">  1       -2 0.98659783E+00 0.14909915E+02</pdfrwt>
<totfact> 0.33680012E-13</totfact>
</mgrwt>
</event>
<event>
 4    1  0.5011189E-019  0.1489645E+02  0.7818608E-02  0.1871245E+00
         -2   -1    0    0    0  501 -0.00000000000E+00  0.00000000000E+00  0.11870803233E+03  0.11870803236E+03  0.25500000000E-02 0.  1.
          2   -1    0    0  501    0  0.00000000000E+00 -0.00000000000E+00 -0.46732852779E+00  0.46733548483E+00  0.25500000000E-02 0. -1.
         31    1    1    2    0    0 -0.10354556672E+00  0.79729428656E-01  0.59057535065E+02  0.59525359743E+02  0.74470750000E+01 0.  1.
        -31    1    1    2    0    0  0.10354556672E+00 -0.79729428656E-01  0.59183168742E+02  0.59650008104E+02  0.74470750000E+01 0.  1.
<mgrwt>
<rscale>  0 0.14896451E+02</rscale>
<asrwt>0</asrwt>
<pdfrwt beam="2">  1        2 0.99253610E+00 0.14896451E+02</pdfrwt>
<pdfrwt beam="1">  1       -2 0.98542532E+00 0.14896451E+02</pdfrwt>
<totfact> 0.52266553E-13</totfact>
</mgrwt>
</event>
<event>
 4    1  0.5011189E-019  0.1491977E+02  0.7818608E-02  0.1870527E+00
         -2   -1    0    0    0  501 -0.00000000000E+00  0.00000000000E+00  0.11898865644E+03  0.11898865646E+03  0.25500000000E-02 0.  1.
          2   -1    0    0  501    0  0.00000000000E+00 -0.00000000000E+00 -0.46768734744E+00  0.46769429915E+00  0.25500000000E-02 0. -1.
         31    1    1    2    0    0 -0.24684883588E+00  0.33413383371E+00  0.60346553580E+02  0.60805740147E+02  0.74470750000E+01 0.  1.
        -31    1    1    2    0    0  0.24684883588E+00 -0.33413383371E+00  0.58174415507E+02  0.58650610615E+02  0.74470750000E+01 0.  1.
<mgrwt>
<rscale>  0 0.14919773E+02</rscale>
<asrwt>0</asrwt>
<pdfrwt beam="2">  1        2 0.99330438E+00 0.14919773E+02</pdfrwt>
<pdfrwt beam="1">  1       -2 0.98774869E+00 0.14919773E+02</pdfrwt>
<totfact> 0.20042102E-13</totfact>
</mgrwt>
</event>
<event>
 4    1 -0.5011189E-019  0.1491677E+02  0.7818608E-02  0.1870619E+00
         -2   -1    0    0    0  501 -0.00000000000E+00  0.00000000000E+00  0.12025732915E+03  0.12025732918E+03  0.25500000000E-02 0. -1.
          2   -1    0    0  501    0  0.00000000000E+00 -0.00000000000E+00 -0.46256734747E+00  0.46257437612E+00  0.25500000000E-02 0.  1.
         31    1    1    2    0    0  0.19918456013E+00 -0.13490622770E+00  0.57204264959E+02  0.57687474635E+02  0.74470750000E+01 0.  1.
        -31    1    1    2    0    0 -0.19918456013E+00  0.13490622770E+00  0.62590496843E+02  0.63032428918E+02  0.74470750000E+01 0. -1.
<mgrwt>
<rscale>  0 0.14916774E+02</rscale>
<asrwt>0</asrwt>
<pdfrwt beam="2">  1        2 0.98251260E+00 0.14916774E+02</pdfrwt>
<pdfrwt beam="1">  1       -2 0.99819663E+00 0.14916774E+02</pdfrwt>
<totfact>-0.28713344E-13</totfact>
</mgrwt>
</event>
<event>
 4    1 -0.5011189E-019  0.1491153E+02  0.7818608E-02  0.1870780E+00
         -2   -1    0    0    0  501 -0.00000000000E+00  0.00000000000E+00  0.12037232411E+03  0.12037232413E+03  0.25500000000E-02 0.  1.
          2   -1    0    0  501    0  0.00000000000E+00 -0.00000000000E+00 -0.46180048393E+00  0.46180752425E+00  0.25500000000E-02 0. -1.
         31    1    1    2    0    0 -0.17129242382E+00 -0.88725373316E-01  0.57493571570E+02  0.57974191769E+02  0.74470750000E+01 0. -1.
        -31    1    1    2    0    0  0.17129242382E+00  0.88725373316E-01  0.62416952053E+02  0.62859939890E+02  0.74470750000E+01 0.  1.
<mgrwt>
<rscale>  0 0.14911529E+02</rscale>
<asrwt>0</asrwt>
<pdfrwt beam="2">  1        2 0.98089359E+00 0.14911529E+02</pdfrwt>
<pdfrwt beam="1">  1       -2 0.99914114E+00 0.14911529E+02</pdfrwt>
<totfact>-0.19499650E-13</totfact>
</mgrwt>
</event>
<event>
 4    1 -0.5011189E-019  0.1494230E+02  0.7818608E-02  0.1869834E+00
         -2   -1    0    0    0  501 -0.00000000000E+00  0.00000000000E+00  0.11982971241E+03  0.11982971243E+03  0.25500000000E-02 0. -1.
          2   -1    0    0  501    0  0.00000000000E+00 -0.00000000000E+00 -0.46580828094E+00  0.46581526069E+00  0.25500000000E-02 0.  1.
         31    1    1    2    0    0 -0.40595956427E+00  0.18972399032E+00  0.62885768216E+02  0.63326768183E+02  0.74470750000E+01 0. -1.
        -31    1    1    2    0    0  0.40595956427E+00 -0.18972399032E+00  0.56478135911E+02  0.56968759512E+02  0.74470750000E+01 0. -1.
<mgrwt>
<rscale>  0 0.14942302E+02</rscale>
<asrwt>0</asrwt>
<pdfrwt beam="2">  1        2 0.98935619E+00 0.14942302E+02</pdfrwt>
<pdfrwt beam="1">  1       -2 0.99468759E+00 0.14942302E+02</pdfrwt>
<totfact>-0.19097425E-13</totfact>
</mgrwt>
</event>
<event>
 4    1  0.5011189E-019  0.1495817E+02  0.7818608E-02  0.1869348E+00
          2   -1    0    0  501    0  0.00000000000E+00  0.00000000000E+00  0.12023069314E+03  0.12023069317E+03  0.25500000000E-02 0.  1.
         -2   -1    0    0    0  501 -0.00000000000E+00 -0.00000000000E+00 -0.46524144671E+00  0.46524843497E+00  0.25500000000E-02 0. -1.
         31    1    1    2    0    0 -0.50321529526E-01 -0.24097196867E-01  0.54323461060E+02  0.54831564454E+02  0.74470750000E+01 0. -1.
        -31    1    1    2    0    0  0.50321529526E-01  0.24097196867E-01  0.65441990634E+02  0.65864377148E+02  0.74470750000E+01 0.  1.
<mgrwt>
<rscale>  0 0.14958172E+02</rscale>
<asrwt>0</asrwt>
<pdfrwt beam="1">  1        2 0.99799849E+00 0.14958172E+02</pdfrwt>
<pdfrwt beam="2">  1       -2 0.98816968E+00 0.14958172E+02</pdfrwt>
<totfact> 0.75216763E-14</totfact>
</mgrwt>
</event>
<event>
 4    1  0.5011189E-019  0.1492723E+02  0.7818608E-02  0.1870297E+00
          2   -1    0    0  501    0  0.00000000000E+00  0.00000000000E+00  0.11993844284E+03  0.11993844287E+03  0.25500000000E-02 0. -1.
         -2   -1    0    0    0  501 -0.00000000000E+00 -0.00000000000E+00 -0.46444768677E+00  0.46445468696E+00  0.25500000000E-02 0.  1.
         31    1    1    2    0    0  0.21919751451E+00 -0.35927422501E+00  0.57610514172E+02  0.58091371086E+02  0.74470750000E+01 0. -1.
        -31    1    1    2    0    0 -0.21919751451E+00  0.35927422501E+00  0.61863480982E+02  0.62311526468E+02  0.74470750000E+01 0. -1.
<mgrwt>
<rscale>  0 0.14927231E+02</rscale>
<asrwt>0</asrwt>
<pdfrwt beam="1">  1        2 0.99557540E+00 0.14927231E+02</pdfrwt>
<pdfrwt beam="2">  1       -2 0.98648101E+00 0.14927231E+02</pdfrwt>
<totfact> 0.28219824E-13</totfact>
</mgrwt>
</event>
<event>
 4    1 -0.5011189E-019  0.1492776E+02  0.7818608E-02  0.1870281E+00
          2   -1    0    0  501    0  0.00000000000E+00  0.00000000000E+00  0.11928744287E+03  0.11928744290E+03  0.25500000000E-02 0. -1.
         -2   -1    0    0    0  501 -0.00000000000E+00 -0.00000000000E+00 -0.46701566070E+00  0.46702262240E+00  0.25500000000E-02 0.  1.
         31    1    1    2    0    0 -0.41772787692E+00  0.89208736720E-02  0.57198333764E+02  0.57682604723E+02  0.74470750000E+01 0.  1.
        -31    1    1    2    0    0  0.41772787692E+00 -0.89208736720E-02  0.61622093446E+02  0.62071860797E+02  0.74470750000E+01 0. -1.
<mgrwt>
<rscale>  0 0.14927762E+02</rscale>
<asrwt>0</asrwt>
<pdfrwt beam="1">  1        2 0.99021371E+00 0.14927762E+02</pdfrwt>
<pdfrwt beam="2">  1       -2 0.99189312E+00 0.14927762E+02</pdfrwt>
<totfact>-0.11071540E-13</totfact>
</mgrwt>
</event>
<event>
 4    1  0.5011189E-019  0.1491782E+02  0.7818608E-02  0.1870587E+00
         -2   -1    0    0    0  501 -0.00000000000E+00  0.00000000000E+00  0.11885102442E+03  0.11885102444E+03  0.25500000000E-02 0.  1.
          2   -1    0    0  501    0  0.00000000000E+00 -0.00000000000E+00 -0.46810639961E+00  0.46811334510E+00  0.25500000000E-02 0. -1.
         31    1    1    2    0    0  0.33851236396E+00 -0.17049635252E+00  0.60639052003E+02  0.61095803568E+02  0.74470750000E+01 0.  1.
        -31    1    1    2    0    0 -0.33851236396E+00  0.17049635252E+00  0.57743866012E+02  0.58223334220E+02  0.74470750000E+01 0. -1.
<mgrwt>
<rscale>  0 0.14917820E+02</rscale>
<asrwt>0</asrwt>
<pdfrwt beam="2">  1        2 0.99418637E+00 0.14917820E+02</pdfrwt>
<pdfrwt beam="1">  1       -2 0.98661411E+00 0.14917820E+02</pdfrwt>
<totfact> 0.30897312E-13</totfact>
</mgrwt>
</event>
<event>
 4    1 -0.5011189E-019  0.1494519E+02  0.7818608E-02  0.1869746E+00
          2   -1    0    0  501    0  0.00000000000E+00  0.00000000000E+00  0.11881323250E+03  0.11881323252E+03  0.25500000000E-02 0. -1.
         -2   -1    0    0    0  501 -0.00000000000E+00 -0.00000000000E+00 -0.46997523404E+00  0.46998215191E+00  0.25500000000E-02 0.  1.
         31    1    1    2    0    0  0.10717026391E+00 -0.14152409288E+00  0.54454841441E+02  0.54961988655E+02  0.74470750000E+01 0.  1.
        -31    1    1    2    0    0 -0.10717026391E+00  0.14152409288E+00  0.63888415822E+02  0.64321226021E+02  0.74470750000E+01 0. -1.
<mgrwt>
<rscale>  0 0.14945192E+02</rscale>
<asrwt>0</asrwt>
<pdfrwt beam="1">  1        2 0.98631708E+00 0.14945192E+02</pdfrwt>
<pdfrwt beam="2">  1       -2 0.99813855E+00 0.14945192E+02</pdfrwt>
<totfact>-0.15830177E-13</totfact>
</mgrwt>
</event>
<event>
 4    1 -0.5011189E-019  0.1491698E+02  0.7818608E-02  0.1870612E+00
         -2   -1    0    0    0  501 -0.00000000000E+00  0.00000000000E+00  0.12006135215E+03  0.12006135218E+03  0.25500000000E-02 0.  1.
          2   -1    0    0  501    0  0.00000000000E+00 -0.00000000000E+00 -0.46333543339E+00  0.46334245039E+00  0.25500000000E-02 0. -1.
         31    1    1    2    0    0  0.36053499389E+00  0.33340186297E-01  0.58201760196E+02  0.58677379910E+02  0.74470750000E+01 0. -1.
        -31    1    1    2    0    0 -0.36053499389E+00 -0.33340186297E-01  0.61396256520E+02  0.61847314718E+02  0.74470750000E+01 0.  1.
<mgrwt>
<rscale>  0 0.14916984E+02</rscale>
<asrwt>0</asrwt>
<pdfrwt beam="2">  1        2 0.98413160E+00 0.14916984E+02</pdfrwt>
<pdfrwt beam="1">  1       -2 0.99658250E+00 0.14916984E+02</pdfrwt>
<totfact>-0.34721134E-13</totfact>
</mgrwt>
</event>
<event>
 4    1 -0.5011189E-019  0.1493877E+02  0.7818608E-02  0.1869943E+00
          2   -1    0    0  501    0  0.00000000000E+00  0.00000000000E+00  0.11943627521E+03  0.11943627524E+03  0.25500000000E-02 0. -1.
         -2   -1    0    0    0  501 -0.00000000000E+00 -0.00000000000E+00 -0.46712176804E+00  0.46712872817E+00  0.25500000000E-02 0.  1.
         31    1    1    2    0    0 -0.13384198589E+00  0.32989281167E+00  0.55841350822E+02  0.56336862982E+02  0.74470750000E+01 0.  1.
        -31    1    1    2    0    0  0.13384198589E+00 -0.32989281167E+00  0.63127802621E+02  0.63566540985E+02  0.74470750000E+01 0. -1.
<mgrwt>
<rscale>  0 0.14938769E+02</rscale>
<asrwt>0</asrwt>
<pdfrwt beam="1">  1        2 0.99144524E+00 0.14938769E+02</pdfrwt>
<pdfrwt beam="2">  1       -2 0.99212242E+00 0.14938769E+02</pdfrwt>
<totfact>-0.10908814E-13</totfact>
</mgrwt>
</event>
<event>
 4    1 -0.5011189E-019  0.1491181E+02  0.7818608E-02  0.1870772E+00
          2   -1    0    0  501    0  0.00000000000E+00  0.00000000000E+00  0.11881499307E+03  0.11881499309E+03  0.25500000000E-02 0.  1.
         -2   -1    0    0    0  501 -0.00000000000E+00 -0.00000000000E+00 -0.46787100184E+00  0.46787795082E+00  0.25500000000E-02 0. -1.
         31    1    1    2    0    0 -0.69186199386E-01 -0.33946756829E+00  0.60033427331E+02  0.60494556352E+02  0.74470750000E+01 0.  1.
        -31    1    1    2    0    0  0.69186199386E-01  0.33946756829E+00  0.58313694734E+02  0.58788314693E+02  0.74470750000E+01 0. -1.
<mgrwt>
<rscale>  0 0.14911808E+02</rscale>
<asrwt>0</asrwt>
<pdfrwt beam="1">  1        2 0.98631424E+00 0.14911808E+02</pdfrwt>
<pdfrwt beam="2">  1       -2 0.99368721E+00 0.14911808E+02</pdfrwt>
<totfact>-0.26954612E-13</totfact>
</mgrwt>
</event>
<event>
 4    1  0.5011189E-019  0.1493144E+02  0.7818608E-02  0.1870168E+00
          2   -1    0    0  501    0  0.00000000000E+00  0.00000000000E+00  0.12039315408E+03  0.12039315411E+03  0.25500000000E-02 0. -1.
         -2   -1    0    0    0  501 -0.00000000000E+00 -0.00000000000E+00 -0.46295429414E+00  0.46296131692E+00  0.25500000000E-02 0.  1.
         31    1    1    2    0    0 -0.48145775018E+00 -0.21060396420E+00  0.60315304907E+02  0.60775579698E+02  0.74470750000E+01 0. -1.
        -31    1    1    2    0    0  0.48145775018E+00  0.21060396420E+00  0.59614894880E+02  0.60080535726E+02  0.74470750000E+01 0.  1.
<mgrwt>
<rscale>  0 0.14931437E+02</rscale>
<asrwt>0</asrwt>
<pdfrwt beam="1">  1        2 0.99932292E+00 0.14931437E+02</pdfrwt>
<pdfrwt beam="2">  1       -2 0.98333558E+00 0.14931437E+02</pdfrwt>
<totfact> 0.15904327E-13</totfact>
</mgrwt>
</event>
<event>
 4    1  0.5011189E-019  0.1492519E+02  0.7818608E-02  0.1870360E+00
          2   -1    0    0  501    0  0.00000000000E+00  0.00000000000E+00  0.12015498170E+03  0.12015498173E+03  0.25500000000E-02 0. -1.
         -2   -1    0    0    0  501 -0.00000000000E+00 -0.00000000000E+00 -0.46348405678E+00  0.46349107153E+00  0.25500000000E-02 0.  1.
         31    1    1    2    0    0  0.16761885511E+00  0.15312210413E+00  0.63273258761E+02  0.63710405295E+02  0.74470750000E+01 0. -1.
        -31    1    1    2    0    0 -0.16761885511E+00 -0.15312210413E+00  0.56418238885E+02  0.56908067507E+02  0.74470750000E+01 0.  1.
<mgrwt>
<rscale>  0 0.14925193E+02</rscale>
<asrwt>0</asrwt>
<pdfrwt beam="1">  1        2 0.99735793E+00 0.14925193E+02</pdfrwt>
<pdfrwt beam="2">  1       -2 0.98444901E+00 0.14925193E+02</pdfrwt>
<totfact> 0.38069462E-13</totfact>
</mgrwt>
</event>
<event>
 4    1  0.5011189E-019  0.1492651E+02  0.7818608E-02  0.1870319E+00
          2   -1    0    0  501    0  0.00000000000E+00  0.00000000000E+00  0.12015959144E+03  0.12015959147E+03  0.25500000000E-02 0.  1.
         -2   -1    0    0    0  501 -0.00000000000E+00 -0.00000000000E+00 -0.46354819487E+00  0.46355520865E+00  0.25500000000E-02 0. -1.
         31    1    1    2    0    0 -0.37942281077E+00  0.14014380716E+00  0.62100011271E+02  0.62546254307E+02  0.74470750000E+01 0.  1.
        -31    1    1    2    0    0  0.37942281077E+00 -0.14014380716E+00  0.57596031975E+02  0.58076892370E+02  0.74470750000E+01 0. -1.
<mgrwt>
<rscale>  0 0.14926511E+02</rscale>
<asrwt>0</asrwt>
<pdfrwt beam="1">  1        2 0.99739657E+00 0.14926511E+02</pdfrwt>
<pdfrwt beam="2">  1       -2 0.98458486E+00 0.14926511E+02</pdfrwt>
<totfact> 0.36345503E-13</totfact>
</mgrwt>
</event>
<event>
 4    1 -0.5011189E-019  0.1491313E+02  0.7818608E-02  0.1870731E+00
         -2   -1    0    0    0  501 -0.00000000000E+00  0.00000000000E+00  0.11974757280E+03  0.11974757283E+03  0.25500000000E-02 0.  1.
          2   -1    0    0  501    0  0.00000000000E+00 -0.00000000000E+00 -0.46430977480E+00  0.46431677707E+00  0.25500000000E-02 0. -1.
         31    1    1    2    0    0  0.11411867014E+00 -0.10328352950E+00  0.56875301061E+02  0.57360984017E+02  0.74470750000E+01 0. -1.
        -31    1    1    2    0    0 -0.11411867014E+00  0.10328352950E+00  0.62407961963E+02  0.62850905587E+02  0.74470750000E+01 0.  1.
<mgrwt>
<rscale>  0 0.14913134E+02</rscale>
<asrwt>0</asrwt>
<pdfrwt beam="2">  1        2 0.98618315E+00 0.14913134E+02</pdfrwt>
<pdfrwt beam="1">  1       -2 0.99399601E+00 0.14913134E+02</pdfrwt>
<totfact>-0.28198171E-13</totfact>
</mgrwt>
</event>
<event>
 4    1  0.5011189E-019  0.1491648E+02  0.7818608E-02  0.1870628E+00
          2   -1    0    0  501    0  0.00000000000E+00  0.00000000000E+00  0.11940464651E+03  0.11940464654E+03  0.25500000000E-02 0.  1.
         -2   -1    0    0    0  501 -0.00000000000E+00 -0.00000000000E+00 -0.46585250766E+00  0.46585948675E+00  0.25500000000E-02 0. -1.
         31    1    1    2    0    0  0.28056118235E+00  0.28331753236E+00  0.58775099705E+02  0.59246352249E+02  0.74470750000E+01 0. -1.
        -31    1    1    2    0    0 -0.28056118235E+00 -0.28331753236E+00  0.60163694301E+02  0.60624153779E+02  0.74470750000E+01 0. -1.
<mgrwt>
<rscale>  0 0.14916484E+02</rscale>
<asrwt>0</asrwt>
<pdfrwt beam="1">  1        2 0.99117321E+00 0.14916484E+02</pdfrwt>
<pdfrwt beam="2">  1       -2 0.98943612E+00 0.14916484E+02</pdfrwt>
<totfact> 0.57728851E-14</totfact>
</mgrwt>
</event>
<event>
 4    1  0.5011189E-019  0.1491902E+02  0.7818608E-02  0.1870550E+00
          2   -1    0    0  501    0  0.00000000000E+00  0.00000000000E+00  0.12022885367E+03  0.12022885370E+03  0.25500000000E-02 0.  1.
         -2   -1    0    0    0  501 -0.00000000000E+00 -0.00000000000E+00 -0.46281596100E+00  0.46282298587E+00  0.25500000000E-02 0. -1.
         31    1    1    2    0    0  0.14133508786E+00  0.33306484627E+00  0.57995753427E+02  0.58473047205E+02  0.74470750000E+01 0.  1.
        -31    1    1    2    0    0 -0.14133508786E+00 -0.33306484627E+00  0.61770284286E+02  0.62218629482E+02  0.74470750000E+01 0.  1.
<mgrwt>
<rscale>  0 0.14919016E+02</rscale>
<asrwt>0</asrwt>
<pdfrwt beam="1">  1        2 0.99796323E+00 0.14919016E+02</pdfrwt>
<pdfrwt beam="2">  1       -2 0.98303774E+00 0.14919016E+02</pdfrwt>
<totfact> 0.43995369E-13</totfact>
</mgrwt>
</event>
<event>
 4    1  0.5011189E-019  0.1490921E+02  0.7818608E-02  0.1870852E+00
          2   -1    0    0  501    0  0.00000000000E+00  0.00000000000E+00  0.12014566663E+03  0.12014566666E+03  0.25500000000E-02 0.  1.
         -2   -1    0    0    0  501 -0.00000000000E+00 -0.00000000000E+00 -0.46252758235E+00  0.46253461161E+00  0.25500000000E-02 0. -1.
         31    1    1    2    0    0 -0.15890619776E+00 -0.29319986259E-01  0.57468247622E+02  0.57948982059E+02  0.74470750000E+01 0. -1.
        -31    1    1    2    0    0  0.15890619776E+00  0.29319986259E-01  0.62214891426E+02  0.62659219211E+02  0.74470750000E+01 0.  1.
<mgrwt>
<rscale>  0 0.14909207E+02</rscale>
<asrwt>0</asrwt>
<pdfrwt beam="1">  1        2 0.99727299E+00 0.14909207E+02</pdfrwt>
<pdfrwt beam="2">  1       -2 0.98242497E+00 0.14909207E+02</pdfrwt>
<totfact> 0.62239528E-13</totfact>
</mgrwt>
</event>
<event>
 4    1 -0.5011189E-019  0.1501074E+02  0.7818608E-02  0.1867741E+00
          2   -1    0    0  501    0  0.00000000000E+00  0.00000000000E+00  0.11992914233E+03  0.11992914235E+03  0.25500000000E-02 0.  1.
         -2   -1    0    0    0  501 -0.00000000000E+00 -0.00000000000E+00 -0.46969518615E+00  0.46970210814E+00  0.25500000000E-02 0. -1.
         31    1    1    2    0    0  0.28757213910E+00 -0.88795458529E+00  0.59903985685E+02  0.60372324687E+02  0.74470750000E+01 0.  1.
        -31    1    1    2    0    0 -0.28757213910E+00  0.88795458529E+00  0.59555461455E+02  0.60026519775E+02  0.74470750000E+01 0. -1.
<mgrwt>
<rscale>  0 0.15010737E+02</rscale>
<asrwt>0</asrwt>
<pdfrwt beam="1">  1        2 0.99554188E+00 0.15010737E+02</pdfrwt>
<pdfrwt beam="2">  1       -2 0.99758268E+00 0.15010737E+02</pdfrwt>
<totfact>-0.77300881E-14</totfact>
</mgrwt>
</event>
<event>
 4    1 -0.5011189E-019  0.1491082E+02  0.7818608E-02  0.1870802E+00
         -2   -1    0    0    0  501 -0.00000000000E+00  0.00000000000E+00  0.11936609694E+03  0.11936609697E+03  0.25500000000E-02 0. -1.
          2   -1    0    0  501    0  0.00000000000E+00 -0.00000000000E+00 -0.46564883256E+00  0.46565581470E+00  0.25500000000E-02 0.  1.
         31    1    1    2    0    0 -0.20453464850E-01 -0.10400774741E+00  0.62151056114E+02  0.62595718209E+02  0.74470750000E+01 0. -1.
        -31    1    1    2    0    0  0.20453464850E-01  0.10400774741E+00  0.56749391992E+02  0.57236034571E+02  0.74470750000E+01 0.  1.
<mgrwt>
<rscale>  0 0.14910815E+02</rscale>
<asrwt>0</asrwt>
<pdfrwt beam="2">  1        2 0.98900398E+00 0.14910815E+02</pdfrwt>
<pdfrwt beam="1">  1       -2 0.99085277E+00 0.14910815E+02</pdfrwt>
<totfact>-0.58528492E-14</totfact>
</mgrwt>
</event>
<event>
 4    1 -0.5011189E-019  0.1492347E+02  0.7818608E-02  0.1870413E+00
         -2   -1    0    0    0  501 -0.00000000000E+00  0.00000000000E+00  0.12018293891E+03  0.12018293894E+03  0.25500000000E-02 0.  1.
          2   -1    0    0  501    0  0.00000000000E+00 -0.00000000000E+00 -0.46326933494E+00  0.46327635295E+00  0.25500000000E-02 0. -1.
         31    1    1    2    0    0  0.43111300177E+00 -0.10429493152E+00  0.61054381305E+02  0.61508480216E+02  0.74470750000E+01 0.  1.
        -31    1    1    2    0    0 -0.43111300177E+00  0.10429493152E+00  0.58665288270E+02  0.59137735074E+02  0.74470750000E+01 0. -1.
<mgrwt>
<rscale>  0 0.14923471E+02</rscale>
<asrwt>0</asrwt>
<pdfrwt beam="2">  1        2 0.98399557E+00 0.14923471E+02</pdfrwt>
<pdfrwt beam="1">  1       -2 0.99758732E+00 0.14923471E+02</pdfrwt>
<totfact>-0.28159533E-13</totfact>
</mgrwt>
</event>
<event>
 4    1 -0.5011189E-019  0.1496143E+02  0.7818608E-02  0.1869248E+00
          2   -1    0    0  501    0  0.00000000000E+00  0.00000000000E+00  0.11924260580E+03  0.11924260582E+03  0.25500000000E-02 0.  1.
         -2   -1    0    0    0  501 -0.00000000000E+00 -0.00000000000E+00 -0.46930112918E+00  0.46930805699E+00  0.25500000000E-02 0. -1.
         31    1    1    2    0    0 -0.41357063389E+00  0.52358802759E+00  0.61296863931E+02  0.61751191396E+02  0.74470750000E+01 0. -1.
        -31    1    1    2    0    0  0.41357063389E+00 -0.52358802759E+00  0.57476440737E+02  0.57960722484E+02  0.74470750000E+01 0. -1.
<mgrwt>
<rscale>  0 0.14961431E+02</rscale>
<asrwt>0</asrwt>
<pdfrwt beam="1">  1        2 0.98986186E+00 0.14961431E+02</pdfrwt>
<pdfrwt beam="2">  1       -2 0.99672665E+00 0.14961431E+02</pdfrwt>
<totfact>-0.15306080E-13</totfact>
</mgrwt>
</event>
<event>
 4    1 -0.5011189E-019  0.1497837E+02  0.7818608E-02  0.1868729E+00
         -2   -1    0    0    0  501 -0.00000000000E+00  0.00000000000E+00  0.11990213295E+03  0.11990213298E+03  0.25500000000E-02 0.  1.
          2   -1    0    0  501    0  0.00000000000E+00 -0.00000000000E+00 -0.46777731987E+00  0.46778427024E+00  0.25500000000E-02 0. -1.
         31    1    1    2    0    0 -0.56837087723E+00  0.16456052605E+00  0.55473410104E+02  0.55974175119E+02  0.74470750000E+01 0. -1.
        -31    1    1    2    0    0  0.56837087723E+00 -0.16456052605E+00  0.63960945526E+02  0.64395742128E+02  0.74470750000E+01 0.  1.
<mgrwt>
<rscale>  0 0.14978374E+02</rscale>
<asrwt>0</asrwt>
<pdfrwt beam="2">  1        2 0.99352435E+00 0.14978374E+02</pdfrwt>
<pdfrwt beam="1">  1       -2 0.99530269E+00 0.14978374E+02</pdfrwt>
<totfact>-0.13414377E-13</totfact>
</mgrwt>
</event>
<event>
 4    1 -0.5011189E-019  0.1493176E+02  0.7818608E-02  0.1870158E+00
          2   -1    0    0  501    0  0.00000000000E+00  0.00000000000E+00  0.11899758641E+03  0.11899758643E+03  0.25500000000E-02 0. -1.
         -2   -1    0    0    0  501 -0.00000000000E+00 -0.00000000000E+00 -0.46840383378E+00  0.46841077486E+00  0.25500000000E-02 0.  1.
         31    1    1    2    0    0 -0.64018742374E-01 -0.32229728434E+00  0.62587013637E+02  0.63029367568E+02  0.74470750000E+01 0. -1.
        -31    1    1    2    0    0  0.64018742374E-01  0.32229728434E+00  0.55942168937E+02  0.56436629642E+02  0.74470750000E+01 0.  1.
<mgrwt>
<rscale>  0 0.14931757E+02</rscale>
<asrwt>0</asrwt>
<pdfrwt beam="1">  1        2 0.98782845E+00 0.14931757E+02</pdfrwt>
<pdfrwt beam="2">  1       -2 0.99482040E+00 0.14931757E+02</pdfrwt>
<totfact>-0.22874799E-13</totfact>
</mgrwt>
</event>
<event>
 4    1  0.5011189E-019  0.1491884E+02  0.7818608E-02  0.1870555E+00
         -2   -1    0    0    0  501 -0.00000000000E+00  0.00000000000E+00  0.11860543670E+03  0.11860543672E+03  0.25500000000E-02 0. -1.
          2   -1    0    0  501    0  0.00000000000E+00 -0.00000000000E+00 -0.46914008188E+00  0.46914701206E+00  0.25500000000E-02 0.  1.
         31    1    1    2    0    0 -0.25909436807E+00  0.28561789174E+00  0.60568689198E+02  0.61026008756E+02  0.74470750000E+01 0. -1.
        -31    1    1    2    0    0  0.25909436807E+00 -0.28561789174E+00  0.57567607416E+02  0.58048574980E+02  0.74470750000E+01 0.  1.
<mgrwt>
<rscale>  0 0.14918844E+02</rscale>
<asrwt>0</asrwt>
<pdfrwt beam="2">  1        2 0.99636498E+00 0.14918844E+02</pdfrwt>
<pdfrwt beam="1">  1       -2 0.98459197E+00 0.14918844E+02</pdfrwt>
<totfact> 0.45307879E-13</totfact>
</mgrwt>
</event>
<event>
 4    1  0.5011189E-019  0.1495302E+02  0.7818608E-02  0.1869506E+00
         -2   -1    0    0    0  501 -0.00000000000E+00  0.00000000000E+00  0.11910422504E+03  0.11910422506E+03  0.25500000000E-02 0. -1.
          2   -1    0    0  501    0  0.00000000000E+00 -0.00000000000E+00 -0.46931816454E+00  0.46932509210E+00  0.25500000000E-02 0.  1.
         31    1    1    2    0    0  0.31645980946E+00 -0.56548130189E+00  0.58205086424E+02  0.58683140062E+02  0.74470750000E+01 0. -1.
        -31    1    1    2    0    0 -0.31645980946E+00  0.56548130189E+00  0.60429820448E+02  0.60890410094E+02  0.74470750000E+01 0. -1.
<mgrwt>
<rscale>  0 0.14953019E+02</rscale>
<asrwt>0</asrwt>
<pdfrwt beam="2">  1        2 0.99675815E+00 0.14953019E+02</pdfrwt>
<pdfrwt beam="1">  1       -2 0.98871777E+00 0.14953019E+02</pdfrwt>
<totfact> 0.72423021E-14</totfact>
</mgrwt>
</event>
<event>
 4    1  0.5011189E-019  0.1489485E+02  0.7818608E-02  0.1871294E+00
          2   -1    0    0  501    0  0.00000000000E+00  0.00000000000E+00  0.11999193075E+03  0.11999193078E+03  0.25500000000E-02 0. -1.
         -2   -1    0    0    0  501 -0.00000000000E+00 -0.00000000000E+00 -0.46222858067E+00  0.46223561448E+00  0.25500000000E-02 0.  1.
         31    1    1    2    0    0  0.25128472970E-01  0.13862763665E-01  0.59229922172E+02  0.59696259767E+02  0.74470750000E+01 0.  1.
        -31    1    1    2    0    0 -0.25128472970E-01 -0.13862763665E-01  0.60299779999E+02  0.60757906626E+02  0.74470750000E+01 0. -1.
<mgrwt>
<rscale>  0 0.14894848E+02</rscale>
<asrwt>0</asrwt>
<pdfrwt beam="1">  1        2 0.99599933E+00 0.14894848E+02</pdfrwt>
<pdfrwt beam="2">  1       -2 0.98178750E+00 0.14894848E+02</pdfrwt>
<totfact> 0.90558089E-13</totfact>
</mgrwt>
</event>
<event>
 4    1  0.5011189E-019  0.1491878E+02  0.7818608E-02  0.1870557E+00
         -2   -1    0    0    0  501 -0.00000000000E+00  0.00000000000E+00  0.11881306517E+03  0.11881306520E+03  0.25500000000E-02 0.  1.
          2   -1    0    0  501    0  0.00000000000E+00 -0.00000000000E+00 -0.46831601015E+00  0.46832295253E+00  0.25500000000E-02 0. -1.
         31    1    1    2    0    0 -0.29614519081E+00 -0.19344984698E+00  0.61104967871E+02  0.61558111970E+02  0.74470750000E+01 0.  1.
        -31    1    1    2    0    0  0.29614519081E+00  0.19344984698E+00  0.57239781289E+02  0.57723276180E+02  0.74470750000E+01 0.  1.
<mgrwt>
<rscale>  0 0.14918777E+02</rscale>
<asrwt>0</asrwt>
<pdfrwt beam="2">  1        2 0.99462855E+00 0.14918777E+02</pdfrwt>
<pdfrwt beam="1">  1       -2 0.98630197E+00 0.14918777E+02</pdfrwt>
<totfact> 0.33327211E-13</totfact>
</mgrwt>
</event>
<event>
 4    1  0.5011189E-019  0.1491099E+02  0.7818608E-02  0.1870797E+00
          2   -1    0    0  501    0  0.00000000000E+00  0.00000000000E+00  0.12023019713E+03  0.12023019716E+03  0.25500000000E-02 0. -1.
         -2   -1    0    0    0  501 -0.00000000000E+00 -0.00000000000E+00 -0.46231301630E+00  0.46232004882E+00  0.25500000000E-02 0.  1.
         31    1    1    2    0    0  0.22012250677E+00  0.81794899993E-02  0.57638414970E+02  0.58117934643E+02  0.74470750000E+01 0.  1.
        -31    1    1    2    0    0 -0.22012250677E+00 -0.81794899993E-02  0.62129469144E+02  0.62574582563E+02  0.74470750000E+01 0. -1.
<mgrwt>
<rscale>  0 0.14910991E+02</rscale>
<asrwt>0</asrwt>
<pdfrwt beam="1">  1        2 0.99797018E+00 0.14910991E+02</pdfrwt>
<pdfrwt beam="2">  1       -2 0.98197362E+00 0.14910991E+02</pdfrwt>
<totfact> 0.54814539E-13</totfact>
</mgrwt>
</event>
<event>
 4    1 -0.5011189E-019  0.1492141E+02  0.7818608E-02  0.1870476E+00
         -2   -1    0    0    0  501 -0.00000000000E+00  0.00000000000E+00  0.11966552584E+03  0.11966552587E+03  0.25500000000E-02 0. -1.
          2   -1    0    0  501    0  0.00000000000E+00 -0.00000000000E+00 -0.46514405993E+00  0.46515104965E+00  0.25500000000E-02 0.  1.
         31    1    1    2    0    0  0.26421457505E+00  0.34889305024E+00  0.58730536586E+02  0.59202418780E+02  0.74470750000E+01 0. -1.
        -31    1    1    2    0    0 -0.26421457505E+00 -0.34889305024E+00  0.60469845195E+02  0.60928258138E+02  0.74470750000E+01 0.  1.
<mgrwt>
<rscale>  0 0.14921411E+02</rscale>
<asrwt>0</asrwt>
<pdfrwt beam="2">  1        2 0.98794565E+00 0.14921411E+02</pdfrwt>
<pdfrwt beam="1">  1       -2 0.99332449E+00 0.14921411E+02</pdfrwt>
<totfact>-0.20546115E-13</totfact>
</mgrwt>
</event>
<event>
 4    1  0.5011189E-019  0.1491154E+02  0.7818608E-02  0.1870780E+00
          2   -1    0    0  501    0  0.00000000000E+00  0.00000000000E+00  0.12006425992E+03  0.12006425995E+03  0.25500000000E-02 0.  1.
         -2   -1    0    0    0  501 -0.00000000000E+00 -0.00000000000E+00 -0.46298595950E+00  0.46299298179E+00  0.25500000000E-02 0. -1.
         31    1    1    2    0    0 -0.16177996481E+00 -0.31431342321E+00  0.60348820211E+02  0.60807598148E+02  0.74470750000E+01 0. -1.
        -31    1    1    2    0    0  0.16177996481E+00  0.31431342321E+00  0.59252453751E+02  0.59719654782E+02  0.74470750000E+01 0. -1.
<mgrwt>
<rscale>  0 0.14911538E+02</rscale>
<asrwt>0</asrwt>
<pdfrwt beam="1">  1        2 0.99660366E+00 0.14911538E+02</pdfrwt>
<pdfrwt beam="2">  1       -2 0.98339226E+00 0.14911538E+02</pdfrwt>
<totfact> 0.58394641E-13</totfact>
</mgrwt>
</event>
<event>
 4    1 -0.5011189E-019  0.1491769E+02  0.7818608E-02  0.1870591E+00
         -2   -1    0    0    0  501 -0.00000000000E+00  0.00000000000E+00  0.11989948207E+03  0.11989948210E+03  0.25500000000E-02 0.  1.
          2   -1    0    0  501    0  0.00000000000E+00 -0.00000000000E+00 -0.46400510334E+00  0.46401211022E+00  0.25500000000E-02 0. -1.
         31    1    1    2    0    0  0.39079872838E+00 -0.14883718238E+00  0.59914165934E+02  0.60376660074E+02  0.74470750000E+01 0. -1.
        -31    1    1    2    0    0 -0.39079872838E+00  0.14883718238E+00  0.59521311031E+02  0.59986834131E+02  0.74470750000E+01 0. -1.
<mgrwt>
<rscale>  0 0.14917694E+02</rscale>
<asrwt>0</asrwt>
<pdfrwt beam="2">  1        2 0.98554337E+00 0.14917694E+02</pdfrwt>
<pdfrwt beam="1">  1       -2 0.99524958E+00 0.14917694E+02</pdfrwt>
<totfact>-0.31570635E-13</totfact>
</mgrwt>
</event>
<event>
 4    1  0.5011189E-019  0.1491618E+02  0.7818608E-02  0.1870637E+00
         -2   -1    0    0    0  501 -0.00000000000E+00  0.00000000000E+00  0.11828252634E+03  0.11828252637E+03  0.25500000000E-02 0.  1.
          2   -1    0    0  501    0  0.00000000000E+00 -0.00000000000E+00 -0.47025308438E+00  0.47025999816E+00  0.25500000000E-02 0. -1.
         31    1    1    2    0    0 -0.10583729122E+00  0.31642217120E+00  0.57075298638E+02  0.57560055292E+02  0.74470750000E+01 0. -1.
        -31    1    1    2    0    0  0.10583729122E+00 -0.31642217120E+00  0.60736974622E+02  0.61192731078E+02  0.74470750000E+01 0. -1.
<mgrwt>
<rscale>  0 0.14916184E+02</rscale>
<asrwt>0</asrwt>
<pdfrwt beam="2">  1        2 0.99870865E+00 0.14916184E+02</pdfrwt>
<pdfrwt beam="1">  1       -2 0.98193112E+00 0.14916184E+02</pdfrwt>
<totfact> 0.38165575E-13</totfact>
</mgrwt>
</event>
<event>
 4    1  0.5011189E-019  0.1495301E+02  0.7818608E-02  0.1869506E+00
          2   -1    0    0  501    0  0.00000000000E+00  0.00000000000E+00  0.12027406985E+03  0.12027406988E+03  0.25500000000E-02 0.  1.
         -2   -1    0    0    0  501 -0.00000000000E+00 -0.00000000000E+00 -0.46475259805E+00  0.46475959365E+00  0.25500000000E-02 0. -1.
         31    1    1    2    0    0  0.10450514041E+00  0.48606414549E+00  0.56366524559E+02  0.56858519121E+02  0.74470750000E+01 0.  1.
        -31    1    1    2    0    0 -0.10450514041E+00 -0.48606414549E+00  0.63442792691E+02  0.63880310348E+02  0.74470750000E+01 0.  1.
<mgrwt>
<rscale>  0 0.14953008E+02</rscale>
<asrwt>0</asrwt>
<pdfrwt beam="1">  1        2 0.99835312E+00 0.14953008E+02</pdfrwt>
<pdfrwt beam="2">  1       -2 0.98713676E+00 0.14953008E+02</pdfrwt>
<totfact> 0.10906326E-13</totfact>
</mgrwt>
</event>
<event>
 4    1 -0.5011189E-019  0.1492792E+02  0.7818608E-02  0.1870276E+00
          2   -1    0    0  501    0  0.00000000000E+00  0.00000000000E+00  0.11854788091E+03  0.11854788094E+03  0.25500000000E-02 0.  1.
         -2   -1    0    0    0  501 -0.00000000000E+00 -0.00000000000E+00 -0.46993932973E+00  0.46994624812E+00  0.25500000000E-02 0. -1.
         31    1    1    2    0    0  0.46780305713E+00  0.67238134347E-01  0.57694459315E+02  0.58175019746E+02  0.74470750000E+01 0.  1.
        -31    1    1    2    0    0 -0.46780305713E+00 -0.67238134347E-01  0.60383482264E+02  0.60842807439E+02  0.74470750000E+01 0. -1.
<mgrwt>
<rscale>  0 0.14927924E+02</rscale>
<asrwt>0</asrwt>
<pdfrwt beam="1">  1        2 0.98412267E+00 0.14927924E+02</pdfrwt>
<pdfrwt beam="2">  1       -2 0.99805380E+00 0.14927924E+02</pdfrwt>
<totfact>-0.23310499E-13</totfact>
</mgrwt>
</event>
<event>
 4    1 -0.5011189E-019  0.1499068E+02  0.7818608E-02  0.1868353E+00
         -2   -1    0    0    0  501 -0.00000000000E+00  0.00000000000E+00  0.11956255577E+03  0.11956255580E+03  0.25500000000E-02 0. -1.
          2   -1    0    0  501    0  0.00000000000E+00 -0.00000000000E+00 -0.46987677442E+00  0.46988369374E+00  0.25500000000E-02 0.  1.
         31    1    1    2    0    0 -0.42672492807E+00 -0.47575413426E-01  0.53679769923E+02  0.54195580841E+02  0.74470750000E+01 0.  1.
        -31    1    1    2    0    0  0.42672492807E+00  0.47575413426E-01  0.65412909077E+02  0.65836858655E+02  0.74470750000E+01 0. -1.
<mgrwt>
<rscale>  0 0.14990675E+02</rscale>
<asrwt>0</asrwt>
<pdfrwt beam="2">  1        2 0.99795490E+00 0.14990675E+02</pdfrwt>
<pdfrwt beam="1">  1       -2 0.99251219E+00 0.14990675E+02</pdfrwt>
<totfact>-0.51910922E-14</totfact>
</mgrwt>
</event>
<event>
 4    1  0.5011189E-019  0.1489438E+02  0.7818608E-02  0.1871309E+00
         -2   -1    0    0    0  501 -0.00000000000E+00  0.00000000000E+00  0.11871254811E+03  0.11871254814E+03  0.25500000000E-02 0.  1.
          2   -1    0    0  501    0  0.00000000000E+00 -0.00000000000E+00 -0.46718081462E+00  0.46718777386E+00  0.25500000000E-02 0. -1.
         31    1    1    2    0    0 -0.13312196615E-02 -0.13555836175E-02  0.58791643158E+02  0.59261422822E+02  0.74470750000E+01 0. -1.
        -31    1    1    2    0    0  0.13312196615E-02  0.13555836175E-02  0.59453724140E+02  0.59918313092E+02  0.74470750000E+01 0.  1.
<mgrwt>
<rscale>  0 0.14894380E+02</rscale>
<asrwt>0</asrwt>
<pdfrwt beam="2">  1        2 0.99222377E+00 0.14894380E+02</pdfrwt>
<pdfrwt beam="1">  1       -2 0.98546144E+00 0.14894380E+02</pdfrwt>
<totfact> 0.52871688E-13</totfact>
</mgrwt>
</event>
<event>
 4    1 -0.5011189E-019  0.1492719E+02  0.7818608E-02  0.1870298E+00
         -2   -1    0    0    0  501 -0.00000000000E+00  0.00000000000E+00  0.12030716346E+03  0.12030716349E+03  0.25500000000E-02 0. -1.
          2   -1    0    0  501    0  0.00000000000E+00 -0.00000000000E+00 -0.46302187156E+00  0.46302889331E+00  0.25500000000E-02 0.  1.
         31    1    1    2    0    0 -0.94714756044E-01  0.47899869960E+00  0.60642859517E+02  0.61100357994E+02  0.74470750000E+01 0. -1.
        -31    1    1    2    0    0  0.94714756044E-01 -0.47899869960E+00  0.59201282073E+02  0.59669834387E+02  0.74470750000E+01 0. -1.
<mgrwt>
<rscale>  0 0.14927193E+02</rscale>
<asrwt>0</asrwt>
<pdfrwt beam="2">  1        2 0.98347588E+00 0.14927193E+02</pdfrwt>
<pdfrwt beam="1">  1       -2 0.99861245E+00 0.14927193E+02</pdfrwt>
<totfact>-0.19500860E-13</totfact>
</mgrwt>
</event>
<event>
 4    1 -0.5011189E-019  0.1496630E+02  0.7818608E-02  0.1869099E+00
          2   -1    0    0  501    0  0.00000000000E+00  0.00000000000E+00  0.11954493964E+03  0.11954493966E+03  0.25500000000E-02 0.  1.
         -2   -1    0    0    0  501 -0.00000000000E+00 -0.00000000000E+00 -0.46841911684E+00  0.46842605769E+00  0.25500000000E-02 0. -1.
         31    1    1    2    0    0  0.35570893478E+00  0.47210152515E+00  0.63026423532E+02  0.63467616923E+02  0.74470750000E+01 0.  1.
        -31    1    1    2    0    0 -0.35570893478E+00 -0.47210152515E+00  0.56050096987E+02  0.56545748797E+02  0.74470750000E+01 0. -1.
<mgrwt>
<rscale>  0 0.14966303E+02</rscale>
<asrwt>0</asrwt>
<pdfrwt beam="1">  1        2 0.99235448E+00 0.14966303E+02</pdfrwt>
<pdfrwt beam="2">  1       -2 0.99487059E+00 0.14966303E+02</pdfrwt>
<totfact>-0.14780143E-13</totfact>
</mgrwt>
</event>
<event>
 4    1 -0.5011189E-019  0.1490053E+02  0.7818608E-02  0.1871119E+00
          2   -1    0    0  501    0  0.00000000000E+00  0.00000000000E+00  0.11817887593E+03  0.11817887596E+03  0.25500000000E-02 0.  1.
         -2   -1    0    0    0  501 -0.00000000000E+00 -0.00000000000E+00 -0.46967833345E+00  0.46968525569E+00  0.25500000000E-02 0. -1.
         31    1    1    2    0    0  0.38779019474E-02 -0.75364799175E-02  0.60589516769E+02  0.61045462896E+02  0.74470750000E+01 0.  1.
        -31    1    1    2    0    0 -0.38779019474E-02  0.75364799175E-02  0.57119680826E+02  0.57603098316E+02  0.74470750000E+01 0. -1.
<mgrwt>
<rscale>  0 0.14900533E+02</rscale>
<asrwt>0</asrwt>
<pdfrwt beam="1">  1        2 0.98106932E+00 0.14900533E+02</pdfrwt>
<pdfrwt beam="2">  1       -2 0.99748940E+00 0.14900533E+02</pdfrwt>
<totfact>-0.47473886E-13</totfact>
</mgrwt>
</event>
<event>
 4    1  0.5011189E-019  0.1491819E+02  0.7818608E-02  0.1870575E+00
          2   -1    0    0  501    0  0.00000000000E+00  0.00000000000E+00  0.12034894329E+03  0.12034894332E+03  0.25500000000E-02 0. -1.
         -2   -1    0    0    0  501 -0.00000000000E+00 -0.00000000000E+00 -0.46230301208E+00  0.46231004475E+00  0.25500000000E-02 0.  1.
         31    1    1    2    0    0 -0.13878112049E+00  0.10682934224E+00  0.63064107679E+02  0.63502529682E+02  0.74470750000E+01 0. -1.
        -31    1    1    2    0    0  0.13878112049E+00 -0.10682934224E+00  0.56822532603E+02  0.57308723683E+02  0.74470750000E+01 0.  1.
<mgrwt>
<rscale>  0 0.14918191E+02</rscale>
<asrwt>0</asrwt>
<pdfrwt beam="1">  1        2 0.99895197E+00 0.14918191E+02</pdfrwt>
<pdfrwt beam="2">  1       -2 0.98195616E+00 0.14918191E+02</pdfrwt>
<totfact> 0.31664037E-13</totfact>
</mgrwt>
</event>
<event>
 4    1  0.5011189E-019  0.1489747E+02  0.7818608E-02  0.1871213E+00
          2   -1    0    0  501    0  0.00000000000E+00  0.00000000000E+00  0.12017116667E+03  0.12017116669E+03  0.25500000000E-02 0.  1.
         -2   -1    0    0    0  501 -0.00000000000E+00 -0.00000000000E+00 -0.46170182489E+00  0.46170886672E+00  0.25500000000E-02 0. -1.
         31    1    1    2    0    0 -0.63137590306E-01 -0.13369823973E+00  0.59419743822E+02  0.59884778897E+02  0.74470750000E+01 0.  1.
        -31    1    1    2    0    0  0.63137590306E-01  0.13369823973E+00  0.60289721021E+02  0.60748096665E+02  0.74470750000E+01 0.  1.
<mgrwt>
<rscale>  0 0.14897473E+02</rscale>
<asrwt>0</asrwt>
<pdfrwt beam="1">  1        2 0.99747702E+00 0.14897473E+02</pdfrwt>
<pdfrwt beam="2">  1       -2 0.98067857E+00 0.14897473E+02</pdfrwt>
<totfact> 0.82270274E-13</totfact>
</mgrwt>
</event>
<event>
 4    1  0.5011189E-019  0.1495016E+02  0.7818608E-02  0.1869593E+00
          2   -1    0    0  501    0  0.00000000000E+00  0.00000000000E+00  0.12038131988E+03  0.12038131991E+03  0.25500000000E-02 0.  1.
         -2   -1    0    0    0  501 -0.00000000000E+00 -0.00000000000E+00 -0.46416185538E+00  0.46416885989E+00  0.25500000000E-02 0. -1.
         31    1    1    2    0    0 -0.40502240401E+00 -0.50213430131E+00  0.60295135731E+02  0.60756715685E+02  0.74470750000E+01 0.  1.
        -31    1    1    2    0    0  0.40502240401E+00  0.50213430131E+00  0.59622022298E+02  0.60088773086E+02  0.74470750000E+01 0.  1.
<mgrwt>
<rscale>  0 0.14950163E+02</rscale>
<asrwt>0</asrwt>
<pdfrwt beam="1">  1        2 0.99923505E+00 0.14950163E+02</pdfrwt>
<pdfrwt beam="2">  1       -2 0.98589023E+00 0.14950163E+02</pdfrwt>
<totfact> 0.89091472E-14</totfact>
</mgrwt>
</event>
<event>
 4    1  0.5011189E-019  0.1492970E+02  0.7818608E-02  0.1870221E+00
          2   -1    0    0  501    0  0.00000000000E+00  0.00000000000E+00  0.12016442360E+03  0.12016442362E+03  0.25500000000E-02 0.  1.
         -2   -1    0    0    0  501 -0.00000000000E+00 -0.00000000000E+00 -0.46372739015E+00  0.46373440122E+00  0.25500000000E-02 0. -1.
         31    1    1    2    0    0 -0.77694807136E-01 -0.15512622480E+00  0.63766586629E+02  0.64200207141E+02  0.74470750000E+01 0.  1.
        -31    1    1    2    0    0  0.77694807136E-01  0.15512622480E+00  0.55934109576E+02  0.56427950882E+02  0.74470750000E+01 0. -1.
<mgrwt>
<rscale>  0 0.14929696E+02</rscale>
<asrwt>0</asrwt>
<pdfrwt beam="1">  1        2 0.99743801E+00 0.14929696E+02</pdfrwt>
<pdfrwt beam="2">  1       -2 0.98496415E+00 0.14929696E+02</pdfrwt>
<totfact> 0.32388152E-13</totfact>
</mgrwt>
</event>
<event>
 4    1 -0.5011189E-019  0.1491864E+02  0.7818608E-02  0.1870562E+00
          2   -1    0    0  501    0  0.00000000000E+00  0.00000000000E+00  0.11867803381E+03  0.11867803383E+03  0.25500000000E-02 0. -1.
         -2   -1    0    0    0  501 -0.00000000000E+00 -0.00000000000E+00 -0.46883995246E+00  0.46884688708E+00  0.25500000000E-02 0.  1.
         31    1    1    2    0    0  0.39502521915E+00 -0.13770015455E+00  0.58413588497E+02  0.58887870172E+02  0.74470750000E+01 0. -1.
        -31    1    1    2    0    0 -0.39502521915E+00  0.13770015455E+00  0.59795605357E+02  0.60259010549E+02  0.74470750000E+01 0.  1.
<mgrwt>
<rscale>  0 0.14918635E+02</rscale>
<asrwt>0</asrwt>
<pdfrwt beam="1">  1        2 0.98518977E+00 0.14918635E+02</pdfrwt>
<pdfrwt beam="2">  1       -2 0.99573248E+00 0.14918635E+02</pdfrwt>
<totfact>-0.32408210E-13</totfact>
</mgrwt>
</event>
<event>
 4    1  0.5011189E-019  0.1492565E+02  0.7818608E-02  0.1870346E+00
         -2   -1    0    0    0  501 -0.00000000000E+00  0.00000000000E+00  0.11885092972E+03  0.11885092975E+03  0.25500000000E-02 0.  1.
          2   -1    0    0  501    0  0.00000000000E+00 -0.00000000000E+00 -0.46859832419E+00  0.46860526238E+00  0.25500000000E-02 0. -1.
         31    1    1    2    0    0  0.27650225255E+00  0.23813439854E+00  0.61740250791E+02  0.62188830631E+02  0.74470750000E+01 0.  1.
        -31    1    1    2    0    0 -0.27650225255E+00 -0.23813439854E+00  0.56642080605E+02  0.57130704378E+02  0.74470750000E+01 0. -1.
<mgrwt>
<rscale>  0 0.14925651E+02</rscale>
<asrwt>0</asrwt>
<pdfrwt beam="2">  1        2 0.99522702E+00 0.14925651E+02</pdfrwt>
<pdfrwt beam="1">  1       -2 0.98661740E+00 0.14925651E+02</pdfrwt>
<totfact> 0.27933147E-13</totfact>
</mgrwt>
</event>
<event>
 4    1  0.5011189E-019  0.1495702E+02  0.7818608E-02  0.1869383E+00
         -2   -1    0    0    0  501 -0.00000000000E+00  0.00000000000E+00  0.11904815438E+03  0.11904815440E+03  0.25500000000E-02 0. -1.
          2   -1    0    0  501    0  0.00000000000E+00 -0.00000000000E+00 -0.46979058767E+00  0.46979750826E+00  0.25500000000E-02 0.  1.
         31    1    1    2    0    0  0.61376018671E+00 -0.24083840917E-01  0.61711712726E+02  0.62162462107E+02  0.74470750000E+01 0. -1.
        -31    1    1    2    0    0 -0.61376018671E+00  0.24083840917E-01  0.56866651062E+02  0.57355489804E+02  0.74470750000E+01 0. -1.
<mgrwt>
<rscale>  0 0.14957021E+02</rscale>
<asrwt>0</asrwt>
<pdfrwt beam="2">  1        2 0.99775570E+00 0.14957021E+02</pdfrwt>
<pdfrwt beam="1">  1       -2 0.98825805E+00 0.14957021E+02</pdfrwt>
<totfact> 0.77699072E-14</totfact>
</mgrwt>
</event>
<event>
 4    1 -0.5011189E-019  0.1501716E+02  0.7818608E-02  0.1867545E+00
         -2   -1    0    0    0  501 -0.00000000000E+00  0.00000000000E+00  0.12008582979E+03  0.12008582981E+03  0.25500000000E-02 0.  1.
          2   -1    0    0  501    0  0.00000000000E+00 -0.00000000000E+00 -0.46948388329E+00  0.46949080839E+00  0.25500000000E-02 0. -1.
         31    1    1    2    0    0 -0.92967465178E+00  0.20235629540E+00  0.60778567888E+02  0.61240497088E+02  0.74470750000E+01 0. -1.
        -31    1    1    2    0    0  0.92967465178E+00 -0.20235629540E+00  0.58837778015E+02  0.59314823534E+02  0.74470750000E+01 0. -1.
<mgrwt>
<rscale>  0 0.15017161E+02</rscale>
<asrwt>0</asrwt>
<pdfrwt beam="2">  1        2 0.99714073E+00 0.15017161E+02</pdfrwt>
<pdfrwt beam="1">  1       -2 0.99683574E+00 0.15017161E+02</pdfrwt>
<totfact>-0.70618293E-14</totfact>
</mgrwt>
</event>
<event>
 4    1  0.5011189E-019  0.1490806E+02  0.7818608E-02  0.1870887E+00
         -2   -1    0    0    0  501 -0.00000000000E+00  0.00000000000E+00  0.11848165117E+03  0.11848165120E+03  0.25500000000E-02 0.  1.
          2   -1    0    0  501    0  0.00000000000E+00 -0.00000000000E+00 -0.46895137990E+00  0.46895831287E+00  0.25500000000E-02 0. -1.
         31    1    1    2    0    0  0.35432232115E-04  0.72419360502E-01  0.61508957422E+02  0.61958179555E+02  0.74470750000E+01 0.  1.
        -31    1    1    2    0    0 -0.35432232115E-04 -0.72419360502E-01  0.56503742371E+02  0.56992429958E+02  0.74470750000E+01 0. -1.
<mgrwt>
<rscale>  0 0.14908058E+02</rscale>
<asrwt>0</asrwt>
<pdfrwt beam="2">  1        2 0.99596170E+00 0.14908058E+02</pdfrwt>
<pdfrwt beam="1">  1       -2 0.98356686E+00 0.14908058E+02</pdfrwt>
<totfact> 0.62306532E-13</totfact>
</mgrwt>
</event>
<event>
 4    1  0.5011189E-019  0.1490026E+02  0.7818608E-02  0.1871127E+00
          2   -1    0    0  501    0  0.00000000000E+00  0.00000000000E+00  0.11984760890E+03  0.11984760893E+03  0.25500000000E-02 0.  1.
         -2   -1    0    0    0  501 -0.00000000000E+00 -0.00000000000E+00 -0.46312160379E+00  0.46312862403E+00  0.25500000000E-02 0. -1.
         31    1    1    2    0    0  0.38484404994E-01  0.19251775226E+00  0.59018110972E+02  0.59486426123E+02  0.74470750000E+01 0.  1.
        -31    1    1    2    0    0 -0.38484404994E-01 -0.19251775226E+00  0.60366376328E+02  0.60824311432E+02  0.74470750000E+01 0.  1.
<mgrwt>
<rscale>  0 0.14900261E+02</rscale>
<asrwt>0</asrwt>
<pdfrwt beam="1">  1        2 0.99481336E+00 0.14900261E+02</pdfrwt>
<pdfrwt beam="2">  1       -2 0.98367243E+00 0.14900261E+02</pdfrwt>
<totfact> 0.69601743E-13</totfact>
</mgrwt>
</event>
<event>
 4    1  0.5011189E-019  0.1490903E+02  0.7818608E-02  0.1870857E+00
          2   -1    0    0  501    0  0.00000000000E+00  0.00000000000E+00  0.12016378296E+03  0.12016378299E+03  0.25500000000E-02 0.  1.
         -2   -1    0    0    0  501 -0.00000000000E+00 -0.00000000000E+00 -0.46244705475E+00  0.46245408524E+00  0.25500000000E-02 0. -1.
         31    1    1    2    0    0 -0.72839042079E-01 -0.25272070032E+00  0.61503133576E+02  0.61952913887E+02  0.74470750000E+01 0.  1.
        -31    1    1    2    0    0  0.72839042079E-01  0.25272070032E+00  0.58198202329E+02  0.58673323186E+02  0.74470750000E+01 0. -1.
<mgrwt>
<rscale>  0 0.14909033E+02</rscale>
<asrwt>0</asrwt>
<pdfrwt beam="1">  1        2 0.99742213E+00 0.14909033E+02</pdfrwt>
<pdfrwt beam="2">  1       -2 0.98225515E+00 0.14909033E+02</pdfrwt>
<totfact> 0.61928442E-13</totfact>
</mgrwt>
</event>
<event>
 4    1 -0.5011189E-019  0.1490242E+02  0.7818608E-02  0.1871061E+00
          2   -1    0    0  501    0  0.00000000000E+00  0.00000000000E+00  0.11870813270E+03  0.11870813273E+03  0.25500000000E-02 0. -1.
         -2   -1    0    0    0  501 -0.00000000000E+00 -0.00000000000E+00 -0.46770301350E+00  0.46770996497E+00  0.25500000000E-02 0.  1.
         31    1    1    2    0    0  0.14405059471E-03 -0.24560918075E+00  0.59410465750E+02  0.59875894070E+02  0.74470750000E+01 0. -1.
        -31    1    1    2    0    0 -0.14405059471E-03  0.24560918075E+00  0.58829963934E+02  0.59299948621E+02  0.74470750000E+01 0. -1.
<mgrwt>
<rscale>  0 0.14902425E+02</rscale>
<asrwt>0</asrwt>
<pdfrwt beam="1">  1        2 0.98542925E+00 0.14902425E+02</pdfrwt>
<pdfrwt beam="2">  1       -2 0.99332833E+00 0.14902425E+02</pdfrwt>
<totfact>-0.29641095E-13</totfact>
</mgrwt>
</event>
<event>
 4    1  0.5011189E-019  0.1490673E+02  0.7818608E-02  0.1870928E+00
          2   -1    0    0  501    0  0.00000000000E+00  0.00000000000E+00  0.11971414938E+03  0.11971414941E+03  0.25500000000E-02 0. -1.
         -2   -1    0    0    0  501 -0.00000000000E+00 -0.00000000000E+00 -0.46404045574E+00  0.46404746208E+00  0.25500000000E-02 0.  1.
         31    1    1    2    0    0  0.10121483018E+00 -0.20767990564E+00  0.58006022194E+02  0.58482569303E+02  0.74470750000E+01 0.  1.
        -31    1    1    2    0    0 -0.10121483018E+00  0.20767990564E+00  0.61244086729E+02  0.61695627566E+02  0.74470750000E+01 0. -1.
<mgrwt>
<rscale>  0 0.14906727E+02</rscale>
<asrwt>0</asrwt>
<pdfrwt beam="1">  1        2 0.99371742E+00 0.14906727E+02</pdfrwt>
<pdfrwt beam="2">  1       -2 0.98561228E+00 0.14906727E+02</pdfrwt>
<totfact> 0.45260080E-13</totfact>
</mgrwt>
</event>
<event>
 4    1 -0.5011189E-019  0.1492012E+02  0.7818608E-02  0.1870516E+00
          2   -1    0    0  501    0  0.00000000000E+00  0.00000000000E+00  0.11922549326E+03  0.11922549328E+03  0.25500000000E-02 0. -1.
         -2   -1    0    0    0  501 -0.00000000000E+00 -0.00000000000E+00 -0.46678025460E+00  0.46678721981E+00  0.25500000000E-02 0.  1.
         31    1    1    2    0    0 -0.35171622834E+00 -0.26349568474E+00  0.59552203443E+02  0.60017639034E+02  0.74470750000E+01 0. -1.
        -31    1    1    2    0    0  0.35171622834E+00  0.26349568474E+00  0.59206509558E+02  0.59674641469E+02  0.74470750000E+01 0. -1.
<mgrwt>
<rscale>  0 0.14920124E+02</rscale>
<asrwt>0</asrwt>
<pdfrwt beam="1">  1        2 0.98969952E+00 0.14920124E+02</pdfrwt>
<pdfrwt beam="2">  1       -2 0.99139309E+00 0.14920124E+02</pdfrwt>
<totfact>-0.89219378E-14</totfact>
</mgrwt>
</event>
<event>
 4    1  0.5011189E-019  0.1494465E+02  0.7818608E-02  0.1869762E+00
          2   -1    0    0  501    0  0.00000000000E+00  0.00000000000E+00  0.12016244931E+03  0.12016244934E+03  0.25500000000E-02 0.  1.
         -2   -1    0    0    0  501 -0.00000000000E+00 -0.00000000000E+00 -0.46466415919E+00  0.46467115613E+00  0.25500000000E-02 0. -1.
         31    1    1    2    0    0 -0.84446207526E-01 -0.15304148658E+00  0.55100158638E+02  0.55601411500E+02  0.74470750000E+01 0. -1.
        -31    1    1    2    0    0  0.84446207526E-01  0.15304148658E+00  0.64597626513E+02  0.65025708993E+02  0.74470750000E+01 0.  1.
<mgrwt>
<rscale>  0 0.14944645E+02</rscale>
<asrwt>0</asrwt>
<pdfrwt beam="1">  1        2 0.99742943E+00 0.14944645E+02</pdfrwt>
<pdfrwt beam="2">  1       -2 0.98694611E+00 0.14944645E+02</pdfrwt>
<totfact> 0.16660371E-13</totfact>
</mgrwt>
</event>
<event>
 4    1  0.5011189E-019  0.1492048E+02  0.7818608E-02  0.1870505E+00
         -2   -1    0    0    0  501 -0.00000000000E+00  0.00000000000E+00  0.11835818214E+03  0.11835818216E+03  0.25500000000E-02 0.  1.
          2   -1    0    0  501    0  0.00000000000E+00 -0.00000000000E+00 -0.47022325605E+00  0.47023017026E+00  0.25500000000E-02 0. -1.
         31    1    1    2    0    0 -0.37635427883E+00 -0.18088478516E+00  0.60122407764E+02  0.60583307959E+02  0.74470750000E+01 0. -1.
        -31    1    1    2    0    0  0.37635427883E+00  0.18088478516E+00  0.57765551117E+02  0.58245104376E+02  0.74470750000E+01 0. -1.
<mgrwt>
<rscale>  0 0.14920480E+02</rscale>
<asrwt>0</asrwt>
<pdfrwt beam="2">  1        2 0.99864808E+00 0.14920480E+02</pdfrwt>
<pdfrwt beam="1">  1       -2 0.98255645E+00 0.14920480E+02</pdfrwt>
<totfact> 0.34941878E-13</totfact>
</mgrwt>
</event>
<event>
 4    1  0.5011189E-019  0.1493236E+02  0.7818608E-02  0.1870140E+00
         -2   -1    0    0    0  501 -0.00000000000E+00  0.00000000000E+00  0.11860268653E+03  0.11860268656E+03  0.25500000000E-02 0. -1.
          2   -1    0    0  501    0  0.00000000000E+00 -0.00000000000E+00 -0.47000139757E+00  0.47000831505E+00  0.25500000000E-02 0.  1.
         31    1    1    2    0    0  0.39435643583E-01 -0.97219197710E-01  0.63239713351E+02  0.63676771884E+02  0.74470750000E+01 0. -1.
        -31    1    1    2    0    0 -0.39435643583E-01  0.97219197710E-01  0.54892971786E+02  0.55395922994E+02  0.74470750000E+01 0.  1.
<mgrwt>
<rscale>  0 0.14932360E+02</rscale>
<asrwt>0</asrwt>
<pdfrwt beam="2">  1        2 0.99818691E+00 0.14932360E+02</pdfrwt>
<pdfrwt beam="1">  1       -2 0.98457635E+00 0.14932360E+02</pdfrwt>
<totfact> 0.27679279E-13</totfact>
</mgrwt>
</event>
<event>
 4    1 -0.5011189E-019  0.1499829E+02  0.7818608E-02  0.1868121E+00
          2   -1    0    0  501    0  0.00000000000E+00  0.00000000000E+00  0.11993830084E+03  0.11993830087E+03  0.25500000000E-02 0.  1.
         -2   -1    0    0    0  501 -0.00000000000E+00 -0.00000000000E+00 -0.46888071890E+00  0.46888765292E+00  0.25500000000E-02 0. -1.
         31    1    1    2    0    0  0.87115882399E+00 -0.22266034640E-01  0.60836523843E+02  0.61296826776E+02  0.74470750000E+01 0.  1.
        -31    1    1    2    0    0 -0.87115882399E+00  0.22266034640E-01  0.58632896276E+02  0.59110361742E+02  0.74470750000E+01 0. -1.
<mgrwt>
<rscale>  0 0.14998290E+02</rscale>
<asrwt>0</asrwt>
<pdfrwt beam="1">  1        2 0.99561088E+00 0.14998290E+02</pdfrwt>
<pdfrwt beam="2">  1       -2 0.99585990E+00 0.14998290E+02</pdfrwt>
<totfact>-0.10590681E-13</totfact>
</mgrwt>
</event>
<event>
 4    1  0.5011189E-019  0.1496629E+02  0.7818608E-02  0.1869099E+00
          2   -1    0    0  501    0  0.00000000000E+00  0.00000000000E+00  0.12042239893E+03  0.12042239895E+03  0.25500000000E-02 0. -1.
         -2   -1    0    0    0  501 -0.00000000000E+00 -0.00000000000E+00 -0.46500500895E+00  0.46501200075E+00  0.25500000000E-02 0.  1.
         31    1    1    2    0    0 -0.28298737054E+00  0.42500227079E+00  0.64236047701E+02  0.64668303357E+02  0.74470750000E+01 0. -1.
        -31    1    1    2    0    0  0.28298737054E+00 -0.42500227079E+00  0.55721346217E+02  0.56219107597E+02  0.74470750000E+01 0.  1.
<mgrwt>
<rscale>  0 0.14966288E+02</rscale>
<asrwt>0</asrwt>
<pdfrwt beam="1">  1        2 0.99958169E+00 0.14966288E+02</pdfrwt>
<pdfrwt beam="2">  1       -2 0.98767549E+00 0.14966288E+02</pdfrwt>
<totfact> 0.24666284E-14</totfact>
</mgrwt>
</event>
<event>
 4    1 -0.5011189E-019  0.1497004E+02  0.7818608E-02  0.1868984E+00
         -2   -1    0    0    0  501 -0.00000000000E+00  0.00000000000E+00  0.11965724625E+03  0.11965724628E+03  0.25500000000E-02 0.  1.
          2   -1    0    0  501    0  0.00000000000E+00 -0.00000000000E+00 -0.46821303068E+00  0.46821997458E+00  0.25500000000E-02 0. -1.
         31    1    1    2    0    0  0.71399970043E+00 -0.95062650177E-01  0.57841189840E+02  0.58323074342E+02  0.74470750000E+01 0.  1.
        -31    1    1    2    0    0 -0.71399970043E+00  0.95062650177E-01  0.61347843378E+02  0.61802391909E+02  0.74470750000E+01 0.  1.
<mgrwt>
<rscale>  0 0.14970037E+02</rscale>
<asrwt>0</asrwt>
<pdfrwt beam="2">  1        2 0.99443824E+00 0.14970037E+02</pdfrwt>
<pdfrwt beam="1">  1       -2 0.99328140E+00 0.14970037E+02</pdfrwt>
<totfact>-0.11430994E-13</totfact>
</mgrwt>
</event>
<event>
 4    1  0.5011189E-019  0.1491697E+02  0.7818608E-02  0.1870613E+00
          2   -1    0    0  501    0  0.00000000000E+00  0.00000000000E+00  0.11972211635E+03  0.11972211638E+03  0.25500000000E-02 0.  1.
         -2   -1    0    0    0  501 -0.00000000000E+00 -0.00000000000E+00 -0.46464742417E+00  0.46465442136E+00  0.25500000000E-02 0. -1.
         31    1    1    2    0    0  0.28093865248E+00 -0.51546984639E-02  0.62060788655E+02  0.62506634588E+02  0.74470750000E+01 0.  1.
        -31    1    1    2    0    0 -0.28093865248E+00  0.51546984639E-02  0.57196680271E+02  0.57680136210E+02  0.74470750000E+01 0. -1.
<mgrwt>
<rscale>  0 0.14916970E+02</rscale>
<asrwt>0</asrwt>
<pdfrwt beam="1">  1        2 0.99378831E+00 0.14916970E+02</pdfrwt>
<pdfrwt beam="2">  1       -2 0.98689672E+00 0.14916970E+02</pdfrwt>
<totfact> 0.28552845E-13</totfact>
</mgrwt>
</event>
<event>
 4    1  0.5011189E-019  0.1491899E+02  0.7818608E-02  0.1870551E+00
          2   -1    0    0  501    0  0.00000000000E+00  0.00000000000E+00  0.12019451177E+03  0.12019451180E+03  0.25500000000E-02 0.  1.
         -2   -1    0    0    0  501 -0.00000000000E+00 -0.00000000000E+00 -0.46294655020E+00  0.46295357310E+00  0.25500000000E-02 0. -1.
         31    1    1    2    0    0 -0.16676992901E+00  0.28845410832E+00  0.57664020696E+02  0.58143866632E+02  0.74470750000E+01 0.  1.
        -31    1    1    2    0    0  0.16676992901E+00 -0.28845410832E+00  0.62067544522E+02  0.62513598737E+02  0.74470750000E+01 0.  1.
<mgrwt>
<rscale>  0 0.14918989E+02</rscale>
<asrwt>0</asrwt>
<pdfrwt beam="1">  1        2 0.99768034E+00 0.14918989E+02</pdfrwt>
<pdfrwt beam="2">  1       -2 0.98331297E+00 0.14918989E+02</pdfrwt>
<totfact> 0.45662088E-13</totfact>
</mgrwt>
</event>
<event>
 4    1 -0.5011189E-019  0.1494916E+02  0.7818608E-02  0.1869624E+00
         -2   -1    0    0    0  501 -0.00000000000E+00  0.00000000000E+00  0.12030896232E+03  0.12030896235E+03  0.25500000000E-02 0. -1.
          2   -1    0    0  501    0  0.00000000000E+00 -0.00000000000E+00 -0.46437853607E+00  0.46438553731E+00  0.25500000000E-02 0.  1.
         31    1    1    2    0    0  0.49078355622E+00 -0.41126435665E+00  0.60082101379E+02  0.60545254472E+02  0.74470750000E+01 0. -1.
        -31    1    1    2    0    0 -0.49078355622E+00  0.41126435665E+00  0.59762482407E+02  0.60228093415E+02  0.74470750000E+01 0.  1.
<mgrwt>
<rscale>  0 0.14949157E+02</rscale>
<asrwt>0</asrwt>
<pdfrwt beam="2">  1        2 0.98634641E+00 0.14949157E+02</pdfrwt>
<pdfrwt beam="1">  1       -2 0.99863854E+00 0.14949157E+02</pdfrwt>
<totfact>-0.12066653E-13</totfact>
</mgrwt>
</event>
<event>
 4    1 -0.5011189E-019  0.1493264E+02  0.7818608E-02  0.1870131E+00
          2   -1    0    0  501    0  0.00000000000E+00  0.00000000000E+00  0.11886186556E+03  0.11886186558E+03  0.25500000000E-02 0. -1.
         -2   -1    0    0    0  501 -0.00000000000E+00 -0.00000000000E+00 -0.46899422756E+00  0.46900115990E+00  0.25500000000E-02 0.  1.
         31    1    1    2    0    0 -0.26337025208E-01  0.23571677538E+00  0.55357610854E+02  0.55856783487E+02  0.74470750000E+01 0.  1.
        -31    1    1    2    0    0  0.26337025208E-01 -0.23571677538E+00  0.63035260475E+02  0.63474083256E+02  0.74470750000E+01 0. -1.
<mgrwt>
<rscale>  0 0.14932641E+02</rscale>
<asrwt>0</asrwt>
<pdfrwt beam="1">  1        2 0.98671110E+00 0.14932641E+02</pdfrwt>
<pdfrwt beam="2">  1       -2 0.99606490E+00 0.14932641E+02</pdfrwt>
<totfact>-0.24819042E-13</totfact>
</mgrwt>
</event>
<event>
 4    1  0.5011189E-019  0.1491394E+02  0.7818608E-02  0.1870706E+00
         -2   -1    0    0    0  501 -0.00000000000E+00  0.00000000000E+00  0.11813330318E+03  0.11813330321E+03  0.25500000000E-02 0. -1.
          2   -1    0    0  501    0  0.00000000000E+00 -0.00000000000E+00 -0.47070522639E+00  0.47071213353E+00  0.25500000000E-02 0.  1.
         31    1    1    2    0    0  0.25014610051E+00  0.21537966319E+00  0.60391439616E+02  0.60849764719E+02  0.74470750000E+01 0. -1.
        -31    1    1    2    0    0 -0.25014610051E+00 -0.21537966319E+00  0.57271158340E+02  0.57754250624E+02  0.74470750000E+01 0. -1.
<mgrwt>
<rscale>  0 0.14913936E+02</rscale>
<asrwt>0</asrwt>
<pdfrwt beam="2">  1        2 0.99966007E+00 0.14913936E+02</pdfrwt>
<pdfrwt beam="1">  1       -2 0.98070098E+00 0.14913936E+02</pdfrwt>
<totfact> 0.14055997E-13</totfact>
</mgrwt>
</event>
<event>
 4    1 -0.5011189E-019  0.1495982E+02  0.7818608E-02  0.1869297E+00
          2   -1    0    0  501    0  0.00000000000E+00  0.00000000000E+00  0.11904673973E+03  0.11904673976E+03  0.25500000000E-02 0. -1.
         -2   -1    0    0    0  501 -0.00000000000E+00 -0.00000000000E+00 -0.46997178199E+00  0.46997869991E+00  0.25500000000E-02 0.  1.
         31    1    1    2    0    0 -0.44451195032E+00  0.54046745635E+00  0.59448456498E+02  0.59917172847E+02  0.74470750000E+01 0. -1.
        -31    1    1    2    0    0  0.44451195032E+00 -0.54046745635E+00  0.59128311454E+02  0.59599545614E+02  0.74470750000E+01 0.  1.
<mgrwt>
<rscale>  0 0.14959816E+02</rscale>
<asrwt>0</asrwt>
<pdfrwt beam="1">  1        2 0.98824785E+00 0.14959816E+02</pdfrwt>
<pdfrwt beam="2">  1       -2 0.99813896E+00 0.14959816E+02</pdfrwt>
<totfact>-0.12127136E-13</totfact>
</mgrwt>
</event>
