<event>
 4    1 -0.4882314E-019  0.1497533E+02  0.7818608E-02  0.1868822E+00
          2   -1    0    0  501    0  0.00000000000E+00  0.00000000000E+00  0.11921785114E+03  0.11921785117E+03  0.25500000000E-02 0.  1.
         -2   -1    0    0    0  501 -0.00000000000E+00 -0.00000000000E+00 -0.47027086519E+00  0.47027777871E+00  0.25500000000E-02 0. -1.
         31    1    1    2    0    0  0.30641700045E+00 -0.33482470482E+00  0.54317891825E+02  0.54827897072E+02  0.74470750000E+01 0. -1.
        -31    1    1    2    0    0 -0.30641700045E+00  0.33482470482E+00  0.64429688448E+02  0.64860231872E+02  0.74470750000E+01 0.  1.
<mgrwt>
<rscale>  0 0.14975326E+02</rscale>
<asrwt>0</asrwt>
<pdfrwt beam="1">  1        2 0.98966519E+00 0.14975326E+02</pdfrwt>
<pdfrwt beam="2">  1       -2 0.99877729E+00 0.14975326E+02</pdfrwt>
<totfact>-0.72006545E-14</totfact>
</mgrwt>
</event>
<event>
 4    1 -0.4882314E-019  0.1497601E+02  0.7818608E-02  0.1868801E+00
         -2   -1    0    0    0  501 -0.00000000000E+00  0.00000000000E+00  0.11961752686E+03  0.11961752689E+03  0.25500000000E-02 0. -1.
          2   -1    0    0  501    0  0.00000000000E+00 -0.00000000000E+00 -0.46874251865E+00  0.46874945471E+00  0.25500000000E-02 0.  1.
         31    1    1    2    0    0 -0.26072534070E+00  0.67201572604E+00  0.57145809363E+02  0.57633514873E+02  0.74470750000E+01 0.  1.
        -31    1    1    2    0    0  0.26072534070E+00 -0.67201572604E+00  0.62002974983E+02  0.62452761473E+02  0.74470750000E+01 0. -1.
<mgrwt>
<rscale>  0 0.14976013E+02</rscale>
<asrwt>0</asrwt>
<pdfrwt beam="2">  1        2 0.99555713E+00 0.14976013E+02</pdfrwt>
<pdfrwt beam="1">  1       -2 0.99295735E+00 0.14976013E+02</pdfrwt>
<totfact>-0.96412381E-14</totfact>
</mgrwt>
</event>
<event>
 4    1 -0.4882314E-019  0.1494126E+02  0.7818608E-02  0.1869866E+00
          2   -1    0    0  501    0  0.00000000000E+00  0.00000000000E+00  0.11897303922E+03  0.11897303925E+03  0.25500000000E-02 0.  1.
         -2   -1    0    0    0  501 -0.00000000000E+00 -0.00000000000E+00 -0.46909688277E+00  0.46910381359E+00  0.25500000000E-02 0. -1.
         31    1    1    2    0    0 -0.31961121847E+00 -0.45347349232E+00  0.57583099515E+02  0.58065308622E+02  0.74470750000E+01 0. -1.
        -31    1    1    2    0    0  0.31961121847E+00  0.45347349232E+00  0.60920842826E+02  0.61376834443E+02  0.74470750000E+01 0. -1.
<mgrwt>
<rscale>  0 0.14941258E+02</rscale>
<asrwt>0</asrwt>
<pdfrwt beam="1">  1        2 0.98763121E+00 0.14941258E+02</pdfrwt>
<pdfrwt beam="2">  1       -2 0.99628572E+00 0.14941258E+02</pdfrwt>
<totfact>-0.21234332E-13</totfact>
</mgrwt>
</event>
<event>
 4    1 -0.4882314E-019  0.1491670E+02  0.7818608E-02  0.1870621E+00
          2   -1    0    0  501    0  0.00000000000E+00  0.00000000000E+00  0.11889662986E+03  0.11889662989E+03  0.25500000000E-02 0.  1.
         -2   -1    0    0    0  501 -0.00000000000E+00 -0.00000000000E+00 -0.46785657911E+00  0.46786352830E+00  0.25500000000E-02 0. -1.
         31    1    1    2    0    0  0.73071554234E-01  0.37935134057E+00  0.58116791181E+02  0.58593255500E+02  0.74470750000E+01 0.  1.
        -31    1    1    2    0    0 -0.73071554234E-01 -0.37935134057E+00  0.60311982101E+02  0.60771237917E+02  0.74470750000E+01 0. -1.
<mgrwt>
<rscale>  0 0.14916700E+02</rscale>
<asrwt>0</asrwt>
<pdfrwt beam="1">  1        2 0.98698915E+00 0.14916700E+02</pdfrwt>
<pdfrwt beam="2">  1       -2 0.99365938E+00 0.14916700E+02</pdfrwt>
<totfact>-0.24347806E-13</totfact>
</mgrwt>
</event>
<event>
 4    1  0.4882314E-019  0.1490210E+02  0.7818608E-02  0.1871071E+00
         -2   -1    0    0    0  501 -0.00000000000E+00  0.00000000000E+00  0.11849194710E+03  0.11849194713E+03  0.25500000000E-02 0. -1.
          2   -1    0    0  501    0  0.00000000000E+00 -0.00000000000E+00 -0.46853574415E+00  0.46854268327E+00  0.25500000000E-02 0.  1.
         31    1    1    2    0    0 -0.12529868855E+00  0.13990637840E+00  0.57776887991E+02  0.58255154154E+02  0.74470750000E+01 0. -1.
        -31    1    1    2    0    0  0.12529868855E+00 -0.13990637840E+00  0.60246523367E+02  0.60705335658E+02  0.74470750000E+01 0. -1.
<mgrwt>
<rscale>  0 0.14902097E+02</rscale>
<asrwt>0</asrwt>
<pdfrwt beam="2">  1        2 0.99508280E+00 0.14902097E+02</pdfrwt>
<pdfrwt beam="1">  1       -2 0.98364856E+00 0.14902097E+02</pdfrwt>
<totfact> 0.68104051E-13</totfact>
</mgrwt>
</event>
<event>
 4    1 -0.4882314E-019  0.1495317E+02  0.7818608E-02  0.1869501E+00
          2   -1    0    0  501    0  0.00000000000E+00  0.00000000000E+00  0.11908689308E+03  0.11908689311E+03  0.25500000000E-02 0.  1.
         -2   -1    0    0    0  501 -0.00000000000E+00 -0.00000000000E+00 -0.46939607783E+00  0.46940300423E+00  0.25500000000E-02 0. -1.
         31    1    1    2    0    0  0.35690888294E-01  0.62370442154E+00  0.61098876725E+02  0.61554219548E+02  0.74470750000E+01 0.  1.
        -31    1    1    2    0    0 -0.35690888294E-01 -0.62370442154E+00  0.57518620280E+02  0.58002076566E+02  0.74470750000E+01 0. -1.
<mgrwt>
<rscale>  0 0.14953172E+02</rscale>
<asrwt>0</asrwt>
<pdfrwt beam="1">  1        2 0.98857511E+00 0.14953172E+02</pdfrwt>
<pdfrwt beam="2">  1       -2 0.99692240E+00 0.14953172E+02</pdfrwt>
<totfact>-0.16931420E-13</totfact>
</mgrwt>
</event>
<event>
 4    1 -0.4882314E-019  0.1498822E+02  0.7818608E-02  0.1868428E+00
          2   -1    0    0  501    0  0.00000000000E+00  0.00000000000E+00  0.11976088576E+03  0.11976088579E+03  0.25500000000E-02 0. -1.
         -2   -1    0    0    0  501 -0.00000000000E+00 -0.00000000000E+00 -0.46894510268E+00  0.46895203574E+00  0.25500000000E-02 0.  1.
         31    1    1    2    0    0 -0.26196096757E+00  0.65030293453E+00  0.55959027201E+02  0.56456737143E+02  0.74470750000E+01 0.  1.
        -31    1    1    2    0    0  0.26196096757E+00 -0.65030293453E+00  0.63332913461E+02  0.63773100685E+02  0.74470750000E+01 0.  1.
<mgrwt>
<rscale>  0 0.14988222E+02</rscale>
<asrwt>0</asrwt>
<pdfrwt beam="1">  1        2 0.99414442E+00 0.14988222E+02</pdfrwt>
<pdfrwt beam="2">  1       -2 0.99599036E+00 0.14988222E+02</pdfrwt>
<totfact>-0.12126599E-13</totfact>
</mgrwt>
</event>
<event>
 4    1 -0.4882314E-019  0.1492682E+02  0.7818608E-02  0.1870310E+00
          2   -1    0    0  501    0  0.00000000000E+00  0.00000000000E+00  0.11902147566E+03  0.11902147569E+03  0.25500000000E-02 0.  1.
         -2   -1    0    0    0  501 -0.00000000000E+00 -0.00000000000E+00 -0.46800031987E+00  0.46800726693E+00  0.25500000000E-02 0. -1.
         31    1    1    2    0    0 -0.13814325757E+00  0.33843328456E+00  0.56622272437E+02  0.57111069703E+02  0.74470750000E+01 0.  1.
        -31    1    1    2    0    0  0.13814325757E+00 -0.33843328456E+00  0.61931202906E+02  0.62378413254E+02  0.74470750000E+01 0.  1.
<mgrwt>
<rscale>  0 0.14926822E+02</rscale>
<asrwt>0</asrwt>
<pdfrwt beam="1">  1        2 0.98802265E+00 0.14926822E+02</pdfrwt>
<pdfrwt beam="2">  1       -2 0.99396755E+00 0.14926822E+02</pdfrwt>
<totfact>-0.21733755E-13</totfact>
</mgrwt>
</event>
<event>
 4    1  0.4882314E-019  0.1492990E+02  0.7818608E-02  0.1870215E+00
         -2   -1    0    0    0  501 -0.00000000000E+00  0.00000000000E+00  0.11899842775E+03  0.11899842777E+03  0.25500000000E-02 0.  1.
          2   -1    0    0  501    0  0.00000000000E+00 -0.00000000000E+00 -0.46828382669E+00  0.46829076954E+00  0.25500000000E-02 0. -1.
         31    1    1    2    0    0  0.30589976198E+00  0.41460813584E+00  0.59524958387E+02  0.59991208286E+02  0.74470750000E+01 0.  1.
        -31    1    1    2    0    0 -0.30589976198E+00 -0.41460813584E+00  0.59005185533E+02  0.59475510258E+02  0.74470750000E+01 0. -1.
<mgrwt>
<rscale>  0 0.14929897E+02</rscale>
<asrwt>0</asrwt>
<pdfrwt beam="2">  1        2 0.99456655E+00 0.14929897E+02</pdfrwt>
<pdfrwt beam="1">  1       -2 0.98783442E+00 0.14929897E+02</pdfrwt>
<totfact> 0.17296738E-13</totfact>
</mgrwt>
</event>
<event>
 4    1  0.4882314E-019  0.1493071E+02  0.7818608E-02  0.1870190E+00
          2   -1    0    0  501    0  0.00000000000E+00  0.00000000000E+00  0.11967973935E+03  0.11967973938E+03  0.25500000000E-02 0. -1.
         -2   -1    0    0    0  501 -0.00000000000E+00 -0.00000000000E+00 -0.46566841944E+00  0.46567540128E+00  0.25500000000E-02 0.  1.
         31    1    1    2    0    0  0.41883065803E+00  0.17603499103E+00  0.61676858404E+02  0.62126485464E+02  0.74470750000E+01 0.  1.
        -31    1    1    2    0    0 -0.41883065803E+00 -0.17603499103E+00  0.57537212526E+02  0.58018929314E+02  0.74470750000E+01 0.  1.
<mgrwt>
<rscale>  0 0.14930706E+02</rscale>
<asrwt>0</asrwt>
<pdfrwt beam="1">  1        2 0.99344635E+00 0.14930706E+02</pdfrwt>
<pdfrwt beam="2">  1       -2 0.98905549E+00 0.14930706E+02</pdfrwt>
<totfact> 0.78296844E-14</totfact>
</mgrwt>
</event>
<event>
 4    1  0.4882314E-019  0.1490799E+02  0.7818608E-02  0.1870889E+00
          2   -1    0    0  501    0  0.00000000000E+00  0.00000000000E+00  0.11987765152E+03  0.11987765155E+03  0.25500000000E-02 0. -1.
         -2   -1    0    0    0  501 -0.00000000000E+00 -0.00000000000E+00 -0.46348627379E+00  0.46349328850E+00  0.25500000000E-02 0.  1.
         31    1    1    2    0    0  0.28535876013E-02 -0.32114336639E+00  0.59719753751E+02  0.60183145941E+02  0.74470750000E+01 0.  1.
        -31    1    1    2    0    0 -0.28535876013E-02  0.32114336639E+00  0.59694411494E+02  0.60157998894E+02  0.74470750000E+01 0. -1.
<mgrwt>
<rscale>  0 0.14907994E+02</rscale>
<asrwt>0</asrwt>
<pdfrwt beam="1">  1        2 0.99506478E+00 0.14907994E+02</pdfrwt>
<pdfrwt beam="2">  1       -2 0.98444495E+00 0.14907994E+02</pdfrwt>
<totfact> 0.55991443E-13</totfact>
</mgrwt>
</event>
<event>
 4    1  0.4882314E-019  0.1490672E+02  0.7818608E-02  0.1870928E+00
         -2   -1    0    0    0  501 -0.00000000000E+00  0.00000000000E+00  0.11807503388E+03  0.11807503391E+03  0.25500000000E-02 0.  1.
          2   -1    0    0  501    0  0.00000000000E+00 -0.00000000000E+00 -0.47048205091E+00  0.47048896133E+00  0.25500000000E-02 0. -1.
         31    1    1    2    0    0 -0.14297506271E+00  0.25572997224E+00  0.58098600317E+02  0.58574671356E+02  0.74470750000E+01 0. -1.
        -31    1    1    2    0    0  0.14297506271E+00 -0.25572997224E+00  0.59505951512E+02  0.59970851512E+02  0.74470750000E+01 0.  1.
<mgrwt>
<rscale>  0 0.14906723E+02</rscale>
<asrwt>0</asrwt>
<pdfrwt beam="2">  1        2 0.99918603E+00 0.14906723E+02</pdfrwt>
<pdfrwt beam="1">  1       -2 0.98021733E+00 0.14906723E+02</pdfrwt>
<totfact> 0.34752760E-13</totfact>
</mgrwt>
</event>
<event>
 4    1 -0.4882314E-019  0.1495281E+02  0.7818608E-02  0.1869512E+00
          2   -1    0    0  501    0  0.00000000000E+00  0.00000000000E+00  0.11916759653E+03  0.11916759656E+03  0.25500000000E-02 0.  1.
         -2   -1    0    0    0  501 -0.00000000000E+00 -0.00000000000E+00 -0.46905566334E+00  0.46906259477E+00  0.25500000000E-02 0. -1.
         31    1    1    2    0    0 -0.66064043931E+00  0.14301383898E-02  0.59635342746E+02  0.60102158683E+02  0.74470750000E+01 0. -1.
        -31    1    1    2    0    0  0.66064043931E+00 -0.14301383898E-02  0.59063198119E+02  0.59534500468E+02  0.74470750000E+01 0.  1.
<mgrwt>
<rscale>  0 0.14952813E+02</rscale>
<asrwt>0</asrwt>
<pdfrwt beam="1">  1        2 0.98923960E+00 0.14952813E+02</pdfrwt>
<pdfrwt beam="2">  1       -2 0.99620491E+00 0.14952813E+02</pdfrwt>
<totfact>-0.17673831E-13</totfact>
</mgrwt>
</event>
<event>
 4    1 -0.4882314E-019  0.1498840E+02  0.7818608E-02  0.1868423E+00
          2   -1    0    0  501    0  0.00000000000E+00  0.00000000000E+00  0.11956388852E+03  0.11956388855E+03  0.25500000000E-02 0. -1.
         -2   -1    0    0    0  501 -0.00000000000E+00 -0.00000000000E+00 -0.46972908144E+00  0.46973600294E+00  0.25500000000E-02 0.  1.
         31    1    1    2    0    0 -0.80791270589E+00  0.22105617159E+00  0.59143647011E+02  0.59616537106E+02  0.74470750000E+01 0.  1.
        -31    1    1    2    0    0  0.80791270589E+00 -0.22105617159E+00  0.59950512429E+02  0.60417087445E+02  0.74470750000E+01 0. -1.
<mgrwt>
<rscale>  0 0.14988403E+02</rscale>
<asrwt>0</asrwt>
<pdfrwt beam="1">  1        2 0.99252199E+00 0.14988403E+02</pdfrwt>
<pdfrwt beam="2">  1       -2 0.99764250E+00 0.14988403E+02</pdfrwt>
<totfact>-0.98525068E-14</totfact>
</mgrwt>
</event>
<event>
 4    1 -0.4882314E-019  0.1494257E+02  0.7818608E-02  0.1869826E+00
          2   -1    0    0  501    0  0.00000000000E+00  0.00000000000E+00  0.11878158005E+03  0.11878158007E+03  0.25500000000E-02 0.  1.
         -2   -1    0    0    0  501 -0.00000000000E+00 -0.00000000000E+00 -0.46993530963E+00  0.46994222808E+00  0.25500000000E-02 0. -1.
         31    1    1    2    0    0 -0.33020355459E+00  0.33573401084E+00  0.62135452111E+02  0.62581907024E+02  0.74470750000E+01 0.  1.
        -31    1    1    2    0    0  0.33020355459E+00 -0.33573401084E+00  0.56176192626E+02  0.56669615278E+02  0.74470750000E+01 0. -1.
<mgrwt>
<rscale>  0 0.14942566E+02</rscale>
<asrwt>0</asrwt>
<pdfrwt beam="1">  1        2 0.98605502E+00 0.14942566E+02</pdfrwt>
<pdfrwt beam="2">  1       -2 0.99805304E+00 0.14942566E+02</pdfrwt>
<totfact>-0.17088369E-13</totfact>
</mgrwt>
</event>
<event>
 4    1  0.4882314E-019  0.1493382E+02  0.7818608E-02  0.1870095E+00
         -2   -1    0    0    0  501 -0.00000000000E+00  0.00000000000E+00  0.11875329980E+03  0.11875329983E+03  0.25500000000E-02 0. -1.
          2   -1    0    0  501    0  0.00000000000E+00 -0.00000000000E+00 -0.46949694762E+00  0.46950387253E+00  0.25500000000E-02 0.  1.
         31    1    1    2    0    0 -0.33001642720E-01  0.27329919916E+00  0.55397191479E+02  0.55896185302E+02  0.74470750000E+01 0.  1.
        -31    1    1    2    0    0  0.33001642720E-01 -0.27329919916E+00  0.62886611371E+02  0.63326618395E+02  0.74470750000E+01 0. -1.
<mgrwt>
<rscale>  0 0.14933817E+02</rscale>
<asrwt>0</asrwt>
<pdfrwt beam="2">  1        2 0.99712479E+00 0.14933817E+02</pdfrwt>
<pdfrwt beam="1">  1       -2 0.98581756E+00 0.14933817E+02</pdfrwt>
<totfact> 0.27161928E-13</totfact>
</mgrwt>
</event>
<event>
 4    1 -0.4882314E-019  0.1490160E+02  0.7818608E-02  0.1871086E+00
          2   -1    0    0  501    0  0.00000000000E+00  0.00000000000E+00  0.11854843550E+03  0.11854843553E+03  0.25500000000E-02 0.  1.
         -2   -1    0    0    0  501 -0.00000000000E+00 -0.00000000000E+00 -0.46828117588E+00  0.46828811878E+00  0.25500000000E-02 0. -1.
         31    1    1    2    0    0  0.15202159413E-01 -0.22737095488E+00  0.59516675273E+02  0.59981209476E+02  0.74470750000E+01 0. -1.
        -31    1    1    2    0    0 -0.15202159413E-01  0.22737095488E+00  0.58563479054E+02  0.59035514172E+02  0.74470750000E+01 0. -1.
<mgrwt>
<rscale>  0 0.14901599E+02</rscale>
<asrwt>0</asrwt>
<pdfrwt beam="1">  1        2 0.98411354E+00 0.14901599E+02</pdfrwt>
<pdfrwt beam="2">  1       -2 0.99454615E+00 0.14901599E+02</pdfrwt>
<totfact>-0.40203781E-13</totfact>
</mgrwt>
</event>
<event>
 4    1  0.4882314E-019  0.1490661E+02  0.7818608E-02  0.1870932E+00
         -2   -1    0    0    0  501 -0.00000000000E+00  0.00000000000E+00  0.11885394977E+03  0.11885394980E+03  0.25500000000E-02 0.  1.
          2   -1    0    0  501    0  0.00000000000E+00 -0.00000000000E+00 -0.46739191581E+00  0.46739887192E+00  0.25500000000E-02 0. -1.
         31    1    1    2    0    0 -0.52582251634E-01 -0.26157927334E+00  0.60371810722E+02  0.60829973241E+02  0.74470750000E+01 0. -1.
        -31    1    1    2    0    0  0.52582251634E-01  0.26157927334E+00  0.58014747134E+02  0.58491375430E+02  0.74470750000E+01 0. -1.
<mgrwt>
<rscale>  0 0.14906615E+02</rscale>
<asrwt>0</asrwt>
<pdfrwt beam="2">  1        2 0.99267498E+00 0.14906615E+02</pdfrwt>
<pdfrwt beam="1">  1       -2 0.98663240E+00 0.14906615E+02</pdfrwt>
<totfact> 0.34394159E-13</totfact>
</mgrwt>
</event>
<event>
 4    1 -0.4882314E-019  0.1490132E+02  0.7818608E-02  0.1871095E+00
         -2   -1    0    0    0  501 -0.00000000000E+00  0.00000000000E+00  0.11972766614E+03  0.11972766616E+03  0.25500000000E-02 0. -1.
          2   -1    0    0  501    0  0.00000000000E+00 -0.00000000000E+00 -0.46365165577E+00  0.46365866799E+00  0.25500000000E-02 0.  1.
         31    1    1    2    0    0 -0.43616771881E-01 -0.98712939587E-01  0.61280691546E+02  0.61731626652E+02  0.74470750000E+01 0. -1.
        -31    1    1    2    0    0  0.43616771881E-01  0.98712939587E-01  0.57983322933E+02  0.58459698178E+02  0.74470750000E+01 0.  1.
<mgrwt>
<rscale>  0 0.14901323E+02</rscale>
<asrwt>0</asrwt>
<pdfrwt beam="2">  1        2 0.98479011E+00 0.14901323E+02</pdfrwt>
<pdfrwt beam="1">  1       -2 0.99382597E+00 0.14901323E+02</pdfrwt>
<totfact>-0.34705166E-13</totfact>
</mgrwt>
</event>
<event>
 4    1 -0.4882314E-019  0.1490213E+02  0.7818608E-02  0.1871070E+00
         -2   -1    0    0    0  501 -0.00000000000E+00  0.00000000000E+00  0.12010009171E+03  0.12010009174E+03  0.25500000000E-02 0. -1.
          2   -1    0    0  501    0  0.00000000000E+00 -0.00000000000E+00 -0.46226425919E+00  0.46227129245E+00  0.25500000000E-02 0.  1.
         31    1    1    2    0    0  0.47589376679E-01 -0.23721699397E+00  0.59570498749E+02  0.60034671515E+02  0.74470750000E+01 0. -1.
        -31    1    1    2    0    0 -0.47589376679E-01  0.23721699397E+00  0.60067328700E+02  0.60527691513E+02  0.74470750000E+01 0. -1.
<mgrwt>
<rscale>  0 0.14902135E+02</rscale>
<asrwt>0</asrwt>
<pdfrwt beam="2">  1        2 0.98186638E+00 0.14902135E+02</pdfrwt>
<pdfrwt beam="1">  1       -2 0.99689397E+00 0.14902135E+02</pdfrwt>
<totfact>-0.48030038E-13</totfact>
</mgrwt>
</event>
<event>
 4    1  0.4882314E-019  0.1495261E+02  0.7818608E-02  0.1869518E+00
         -2   -1    0    0    0  501 -0.00000000000E+00  0.00000000000E+00  0.11888012316E+03  0.11888012319E+03  0.25500000000E-02 0. -1.
          2   -1    0    0  501    0  0.00000000000E+00 -0.00000000000E+00 -0.47017707561E+00  0.47018399050E+00  0.25500000000E-02 0.  1.
         31    1    1    2    0    0 -0.31818098415E+00 -0.23630564927E+00  0.54988007738E+02  0.55491413755E+02  0.74470750000E+01 0.  1.
        -31    1    1    2    0    0  0.31818098415E+00  0.23630564927E+00  0.63421938346E+02  0.63858893422E+02  0.74470750000E+01 0. -1.
<mgrwt>
<rscale>  0 0.14952608E+02</rscale>
<asrwt>0</asrwt>
<pdfrwt beam="2">  1        2 0.99856774E+00 0.14952608E+02</pdfrwt>
<pdfrwt beam="1">  1       -2 0.98687184E+00 0.14952608E+02</pdfrwt>
<totfact> 0.10850285E-13</totfact>
</mgrwt>
</event>
<event>
 4    1  0.4882314E-019  0.1491808E+02  0.7818608E-02  0.1870579E+00
          2   -1    0    0  501    0  0.00000000000E+00  0.00000000000E+00  0.11974784259E+03  0.11974784261E+03  0.25500000000E-02 0. -1.
         -2   -1    0    0    0  501 -0.00000000000E+00 -0.00000000000E+00 -0.46461690899E+00  0.46462390664E+00  0.25500000000E-02 0.  1.
         31    1    1    2    0    0  0.38746711711E+00  0.90438895305E-01  0.60782881494E+02  0.61238679923E+02  0.74470750000E+01 0. -1.
        -31    1    1    2    0    0 -0.38746711711E+00 -0.90438895305E-01  0.58500344184E+02  0.58973786597E+02  0.74470750000E+01 0.  1.
<mgrwt>
<rscale>  0 0.14918082E+02</rscale>
<asrwt>0</asrwt>
<pdfrwt beam="1">  1        2 0.99400078E+00 0.14918082E+02</pdfrwt>
<pdfrwt beam="2">  1       -2 0.98683298E+00 0.14918082E+02</pdfrwt>
<totfact> 0.28806365E-13</totfact>
</mgrwt>
</event>
<event>
 4    1 -0.4882314E-019  0.1491479E+02  0.7818608E-02  0.1870680E+00
          2   -1    0    0  501    0  0.00000000000E+00  0.00000000000E+00  0.11841221370E+03  0.11841221372E+03  0.25500000000E-02 0. -1.
         -2   -1    0    0    0  501 -0.00000000000E+00 -0.00000000000E+00 -0.46965003715E+00  0.46965695981E+00  0.25500000000E-02 0.  1.
         31    1    1    2    0    0 -0.11398532579E+00 -0.63321794216E-01  0.56023343862E+02  0.56516289562E+02  0.74470750000E+01 0.  1.
        -31    1    1    2    0    0  0.11398532579E+00  0.63321794216E-01  0.61919219796E+02  0.62365581121E+02  0.74470750000E+01 0. -1.
<mgrwt>
<rscale>  0 0.14914786E+02</rscale>
<asrwt>0</asrwt>
<pdfrwt beam="1">  1        2 0.98299848E+00 0.14914786E+02</pdfrwt>
<pdfrwt beam="2">  1       -2 0.99743732E+00 0.14914786E+02</pdfrwt>
<totfact>-0.34809533E-13</totfact>
</mgrwt>
</event>
<event>
 4    1 -0.4882314E-019  0.1491446E+02  0.7818608E-02  0.1870690E+00
          2   -1    0    0  501    0  0.00000000000E+00  0.00000000000E+00  0.11834370425E+03  0.11834370427E+03  0.25500000000E-02 0.  1.
         -2   -1    0    0    0  501 -0.00000000000E+00 -0.00000000000E+00 -0.46990158463E+00  0.46990850358E+00  0.25500000000E-02 0. -1.
         31    1    1    2    0    0 -0.83840176674E-01 -0.30950478868E+00  0.60692360106E+02  0.61148379567E+02  0.74470750000E+01 0.  1.
        -31    1    1    2    0    0  0.83840176674E-01  0.30950478868E+00  0.57181442556E+02  0.57665233210E+02  0.74470750000E+01 0. -1.
<mgrwt>
<rscale>  0 0.14914464E+02</rscale>
<asrwt>0</asrwt>
<pdfrwt beam="1">  1        2 0.98243408E+00 0.14914464E+02</pdfrwt>
<pdfrwt beam="2">  1       -2 0.99796715E+00 0.14914464E+02</pdfrwt>
<totfact>-0.32082535E-13</totfact>
</mgrwt>
</event>
<event>
 4    1  0.4882314E-019  0.1491251E+02  0.7818608E-02  0.1870750E+00
          2   -1    0    0  501    0  0.00000000000E+00  0.00000000000E+00  0.12034456949E+03  0.12034456952E+03  0.25500000000E-02 0. -1.
         -2   -1    0    0    0  501 -0.00000000000E+00 -0.00000000000E+00 -0.46196786515E+00  0.46197490292E+00  0.25500000000E-02 0.  1.
         31    1    1    2    0    0 -0.82518642587E-01 -0.20770722459E+00  0.57553589242E+02  0.58033822141E+02  0.74470750000E+01 0.  1.
        -31    1    1    2    0    0  0.82518642587E-01  0.20770722459E+00  0.62329012388E+02  0.62772722284E+02  0.74470750000E+01 0. -1.
<mgrwt>
<rscale>  0 0.14912512E+02</rscale>
<asrwt>0</asrwt>
<pdfrwt beam="1">  1        2 0.99891303E+00 0.14912512E+02</pdfrwt>
<pdfrwt beam="2">  1       -2 0.98124689E+00 0.14912512E+02</pdfrwt>
<totfact> 0.37468726E-13</totfact>
</mgrwt>
</event>
<event>
 4    1 -0.4882314E-019  0.1490486E+02  0.7818608E-02  0.1870986E+00
          2   -1    0    0  501    0  0.00000000000E+00  0.00000000000E+00  0.11821621433E+03  0.11821621436E+03  0.25500000000E-02 0. -1.
         -2   -1    0    0    0  501 -0.00000000000E+00 -0.00000000000E+00 -0.46980247249E+00  0.46980939290E+00  0.25500000000E-02 0.  1.
         31    1    1    2    0    0 -0.58833710447E-01  0.19069568536E+00  0.57282022341E+02  0.57764425348E+02  0.74470750000E+01 0.  1.
        -31    1    1    2    0    0  0.58833710447E-01 -0.19069568536E+00  0.60464389518E+02  0.60921598404E+02  0.74470750000E+01 0. -1.
<mgrwt>
<rscale>  0 0.14904856E+02</rscale>
<asrwt>0</asrwt>
<pdfrwt beam="1">  1        2 0.98137908E+00 0.14904856E+02</pdfrwt>
<pdfrwt beam="2">  1       -2 0.99775324E+00 0.14904856E+02</pdfrwt>
<totfact>-0.41464493E-13</totfact>
</mgrwt>
</event>
<event>
 4    1  0.4882314E-019  0.1490131E+02  0.7818608E-02  0.1871095E+00
         -2   -1    0    0    0  501 -0.00000000000E+00  0.00000000000E+00  0.11811534452E+03  0.11811534455E+03  0.25500000000E-02 0. -1.
          2   -1    0    0  501    0  0.00000000000E+00 -0.00000000000E+00 -0.46998023546E+00  0.46998715325E+00  0.25500000000E-02 0.  1.
         31    1    1    2    0    0 -0.11244099531E+00 -0.22030900058E-01  0.60418956604E+02  0.60876287432E+02  0.74470750000E+01 0. -1.
        -31    1    1    2    0    0  0.11244099531E+00  0.22030900058E-01  0.57226407683E+02  0.57709044271E+02  0.74470750000E+01 0.  1.
<mgrwt>
<rscale>  0 0.14901314E+02</rscale>
<asrwt>0</asrwt>
<pdfrwt beam="2">  1        2 0.99812589E+00 0.14901314E+02</pdfrwt>
<pdfrwt beam="1">  1       -2 0.98054649E+00 0.14901314E+02</pdfrwt>
<totfact> 0.67195437E-13</totfact>
</mgrwt>
</event>
<event>
 4    1 -0.4882314E-019  0.1493890E+02  0.7818608E-02  0.1869939E+00
          2   -1    0    0  501    0  0.00000000000E+00  0.00000000000E+00  0.11873430529E+03  0.11873430532E+03  0.25500000000E-02 0.  1.
         -2   -1    0    0    0  501 -0.00000000000E+00 -0.00000000000E+00 -0.46989186816E+00  0.46989878725E+00  0.25500000000E-02 0. -1.
         31    1    1    2    0    0  0.48809070683E+00  0.13275177184E+00  0.61359558425E+02  0.61811893611E+02  0.74470750000E+01 0. -1.
        -31    1    1    2    0    0 -0.48809070683E+00 -0.13275177184E+00  0.56904855000E+02  0.57392310497E+02  0.74470750000E+01 0. -1.
<mgrwt>
<rscale>  0 0.14938902E+02</rscale>
<asrwt>0</asrwt>
<pdfrwt beam="1">  1        2 0.98566376E+00 0.14938902E+02</pdfrwt>
<pdfrwt beam="2">  1       -2 0.99795958E+00 0.14938902E+02</pdfrwt>
<totfact>-0.18856187E-13</totfact>
</mgrwt>
</event>
<event>
 4    1 -0.4882314E-019  0.1491893E+02  0.7818608E-02  0.1870552E+00
         -2   -1    0    0    0  501 -0.00000000000E+00  0.00000000000E+00  0.11934530298E+03  0.11934530301E+03  0.25500000000E-02 0.  1.
          2   -1    0    0  501    0  0.00000000000E+00 -0.00000000000E+00 -0.46623725817E+00  0.46624423150E+00  0.25500000000E-02 0. -1.
         31    1    1    2    0    0 -0.55364387714E-01  0.25632276403E+00  0.62174190563E+02  0.62619147749E+02  0.74470750000E+01 0.  1.
        -31    1    1    2    0    0  0.55364387714E-01 -0.25632276403E+00  0.56704875158E+02  0.57192399489E+02  0.74470750000E+01 0. -1.
<mgrwt>
<rscale>  0 0.14918934E+02</rscale>
<asrwt>0</asrwt>
<pdfrwt beam="2">  1        2 0.99024820E+00 0.14918934E+02</pdfrwt>
<pdfrwt beam="1">  1       -2 0.99068570E+00 0.14918934E+02</pdfrwt>
<totfact>-0.40211456E-14</totfact>
</mgrwt>
</event>
<event>
 4    1 -0.4882314E-019  0.1493979E+02  0.7818608E-02  0.1869911E+00
          2   -1    0    0  501    0  0.00000000000E+00  0.00000000000E+00  0.11920271929E+03  0.11920271931E+03  0.25500000000E-02 0.  1.
         -2   -1    0    0    0  501 -0.00000000000E+00 -0.00000000000E+00 -0.46810118359E+00  0.46810812916E+00  0.25500000000E-02 0. -1.
         31    1    1    2    0    0  0.14390126799E+00  0.56500733957E+00  0.59543585188E+02  0.60010310814E+02  0.74470750000E+01 0.  1.
        -31    1    1    2    0    0 -0.14390126799E+00 -0.56500733957E+00  0.59191032914E+02  0.59660516628E+02  0.74470750000E+01 0.  1.
<mgrwt>
<rscale>  0 0.14939793E+02</rscale>
<asrwt>0</asrwt>
<pdfrwt beam="1">  1        2 0.98952213E+00 0.14939793E+02</pdfrwt>
<pdfrwt beam="2">  1       -2 0.99418685E+00 0.14939793E+02</pdfrwt>
<totfact>-0.18521322E-13</totfact>
</mgrwt>
</event>
<event>
 4    1 -0.4882314E-019  0.1498887E+02  0.7818608E-02  0.1868408E+00
         -2   -1    0    0    0  501 -0.00000000000E+00  0.00000000000E+00  0.12032072369E+03  0.12032072372E+03  0.25500000000E-02 0.  1.
          2   -1    0    0  501    0  0.00000000000E+00 -0.00000000000E+00 -0.46680373878E+00  0.46681070365E+00  0.25500000000E-02 0. -1.
         31    1    1    2    0    0 -0.33833706130E+00  0.14113478877E+00  0.66028399253E+02  0.66448046058E+02  0.74470750000E+01 0.  1.
        -31    1    1    2    0    0  0.33833706130E+00 -0.14113478877E+00  0.53825520699E+02  0.54339488364E+02  0.74470750000E+01 0. -1.
<mgrwt>
<rscale>  0 0.14988874E+02</rscale>
<asrwt>0</asrwt>
<pdfrwt beam="2">  1        2 0.99147797E+00 0.14988874E+02</pdfrwt>
<pdfrwt beam="1">  1       -2 0.99875585E+00 0.14988874E+02</pdfrwt>
<totfact>-0.62391299E-14</totfact>
</mgrwt>
</event>
<event>
 4    1 -0.4882314E-019  0.1489777E+02  0.7818608E-02  0.1871204E+00
         -2   -1    0    0    0  501 -0.00000000000E+00  0.00000000000E+00  0.12018228814E+03  0.12018228817E+03  0.25500000000E-02 0.  1.
          2   -1    0    0  501    0  0.00000000000E+00 -0.00000000000E+00 -0.46167729279E+00  0.46168433499E+00  0.25500000000E-02 0. -1.
         31    1    1    2    0    0 -0.13575666790E+00  0.92000895287E-01  0.59809236170E+02  0.60271307861E+02  0.74470750000E+01 0.  1.
        -31    1    1    2    0    0  0.13575666790E+00 -0.92000895287E-01  0.59911374681E+02  0.60372664644E+02  0.74470750000E+01 0. -1.
<mgrwt>
<rscale>  0 0.14897766E+02</rscale>
<asrwt>0</asrwt>
<pdfrwt beam="2">  1        2 0.98062701E+00 0.14897766E+02</pdfrwt>
<pdfrwt beam="1">  1       -2 0.99756877E+00 0.14897766E+02</pdfrwt>
<totfact>-0.49905765E-13</totfact>
</mgrwt>
</event>
<event>
 4    1 -0.4882314E-019  0.1495371E+02  0.7818608E-02  0.1869484E+00
         -2   -1    0    0    0  501 -0.00000000000E+00  0.00000000000E+00  0.12019751636E+03  0.12019751639E+03  0.25500000000E-02 0. -1.
          2   -1    0    0  501    0  0.00000000000E+00 -0.00000000000E+00 -0.46509220090E+00  0.46509919139E+00  0.25500000000E-02 0.  1.
         31    1    1    2    0    0  0.12510990816E-01 -0.66577956427E+00  0.59610307214E+02  0.60077375701E+02  0.74470750000E+01 0.  1.
        -31    1    1    2    0    0 -0.12510990816E-01  0.66577956427E+00  0.60122116945E+02  0.60585239877E+02  0.74470750000E+01 0.  1.
<mgrwt>
<rscale>  0 0.14953709E+02</rscale>
<asrwt>0</asrwt>
<pdfrwt beam="2">  1        2 0.98785286E+00 0.14953709E+02</pdfrwt>
<pdfrwt beam="1">  1       -2 0.99772293E+00 0.14953709E+02</pdfrwt>
<totfact>-0.14971197E-13</totfact>
</mgrwt>
</event>
<event>
 4    1 -0.4882314E-019  0.1492291E+02  0.7818608E-02  0.1870430E+00
          2   -1    0    0  501    0  0.00000000000E+00  0.00000000000E+00  0.11878560169E+03  0.11878560172E+03  0.25500000000E-02 0. -1.
         -2   -1    0    0    0  501 -0.00000000000E+00 -0.00000000000E+00 -0.46868411169E+00  0.46869104861E+00  0.25500000000E-02 0.  1.
         31    1    1    2    0    0  0.32777964569E+00  0.24985386421E+00  0.60845126240E+02  0.61300556112E+02  0.74470750000E+01 0. -1.
        -31    1    1    2    0    0 -0.32777964569E+00 -0.24985386421E+00  0.57471791343E+02  0.57953736659E+02  0.74470750000E+01 0.  1.
<mgrwt>
<rscale>  0 0.14922914E+02</rscale>
<asrwt>0</asrwt>
<pdfrwt beam="1">  1        2 0.98607793E+00 0.14922914E+02</pdfrwt>
<pdfrwt beam="2">  1       -2 0.99540635E+00 0.14922914E+02</pdfrwt>
<totfact>-0.28830637E-13</totfact>
</mgrwt>
</event>
<event>
 4    1  0.4882314E-019  0.1491326E+02  0.7818608E-02  0.1870727E+00
         -2   -1    0    0    0  501 -0.00000000000E+00  0.00000000000E+00  0.11821125678E+03  0.11821125681E+03  0.25500000000E-02 0.  1.
          2   -1    0    0  501    0  0.00000000000E+00 -0.00000000000E+00 -0.47035223345E+00  0.47035914577E+00  0.25500000000E-02 0. -1.
         31    1    1    2    0    0  0.16561220365E+00 -0.33758767308E+00  0.59124809630E+02  0.59593149210E+02  0.74470750000E+01 0.  1.
        -31    1    1    2    0    0 -0.16561220365E+00  0.33758767308E+00  0.58616094920E+02  0.59088466748E+02  0.74470750000E+01 0.  1.
<mgrwt>
<rscale>  0 0.14913261E+02</rscale>
<asrwt>0</asrwt>
<pdfrwt beam="2">  1        2 0.99891600E+00 0.14913261E+02</pdfrwt>
<pdfrwt beam="1">  1       -2 0.98134264E+00 0.14913261E+02</pdfrwt>
<totfact> 0.36716082E-13</totfact>
</mgrwt>
</event>
<event>
 4    1  0.4882314E-019  0.1490164E+02  0.7818608E-02  0.1871085E+00
          2   -1    0    0  501    0  0.00000000000E+00  0.00000000000E+00  0.12019388149E+03  0.12019388152E+03  0.25500000000E-02 0. -1.
         -2   -1    0    0    0  501 -0.00000000000E+00 -0.00000000000E+00 -0.46187300418E+00  0.46188004340E+00  0.25500000000E-02 0.  1.
         31    1    1    2    0    0 -0.42615646953E-01 -0.21814243376E+00  0.59217897668E+02  0.59684736177E+02  0.74470750000E+01 0.  1.
        -31    1    1    2    0    0  0.42615646953E-01  0.21814243376E+00  0.60514110821E+02  0.60971025386E+02  0.74470750000E+01 0. -1.
<mgrwt>
<rscale>  0 0.14901642E+02</rscale>
<asrwt>0</asrwt>
<pdfrwt beam="1">  1        2 0.99766626E+00 0.14901642E+02</pdfrwt>
<pdfrwt beam="2">  1       -2 0.98104147E+00 0.14901642E+02</pdfrwt>
<totfact> 0.72781175E-13</totfact>
</mgrwt>
</event>
<event>
 4    1 -0.4882314E-019  0.1490986E+02  0.7818608E-02  0.1870832E+00
         -2   -1    0    0    0  501 -0.00000000000E+00  0.00000000000E+00  0.12014305690E+03  0.12014305693E+03  0.25500000000E-02 0.  1.
          2   -1    0    0  501    0  0.00000000000E+00 -0.00000000000E+00 -0.46257815153E+00  0.46258518002E+00  0.25500000000E-02 0. -1.
         31    1    1    2    0    0  0.44085218338E-01 -0.18263330827E+00  0.57527381164E+02  0.58007704731E+02  0.74470750000E+01 0. -1.
        -31    1    1    2    0    0 -0.44085218338E-01  0.18263330827E+00  0.62153097588E+02  0.62597937380E+02  0.74470750000E+01 0.  1.
<mgrwt>
<rscale>  0 0.14909860E+02</rscale>
<asrwt>0</asrwt>
<pdfrwt beam="2">  1        2 0.98253188E+00 0.14909860E+02</pdfrwt>
<pdfrwt beam="1">  1       -2 0.99725183E+00 0.14909860E+02</pdfrwt>
<totfact>-0.39579326E-13</totfact>
</mgrwt>
</event>
<event>
 4    1 -0.4882314E-019  0.1499911E+02  0.7818608E-02  0.1868096E+00
         -2   -1    0    0    0  501 -0.00000000000E+00  0.00000000000E+00  0.11988999875E+03  0.11988999878E+03  0.25500000000E-02 0.  1.
          2   -1    0    0  501    0  0.00000000000E+00 -0.00000000000E+00 -0.46912123041E+00  0.46912816087E+00  0.25500000000E-02 0. -1.
         31    1    1    2    0    0 -0.37650109438E+00  0.42409174323E+00  0.54251302817E+02  0.54762983760E+02  0.74470750000E+01 0.  1.
        -31    1    1    2    0    0  0.37650109438E+00 -0.42409174323E+00  0.65169574706E+02  0.65596143181E+02  0.74470750000E+01 0.  1.
<mgrwt>
<rscale>  0 0.14999115E+02</rscale>
<asrwt>0</asrwt>
<pdfrwt beam="2">  1        2 0.99636716E+00 0.14999115E+02</pdfrwt>
<pdfrwt beam="1">  1       -2 0.99521347E+00 0.14999115E+02</pdfrwt>
<totfact>-0.98976730E-14</totfact>
</mgrwt>
</event>
<event>
 4    1  0.4882314E-019  0.1494803E+02  0.7818608E-02  0.1869658E+00
          2   -1    0    0  501    0  0.00000000000E+00  0.00000000000E+00  0.12023759991E+03  0.12023759993E+03  0.25500000000E-02 0.  1.
         -2   -1    0    0    0  501 -0.00000000000E+00 -0.00000000000E+00 -0.46458423702E+00  0.46459123516E+00  0.25500000000E-02 0. -1.
         31    1    1    2    0    0 -0.54977019962E+00  0.55097106552E-01  0.62397605535E+02  0.62842862646E+02  0.74470750000E+01 0.  1.
        -31    1    1    2    0    0  0.54977019962E+00 -0.55097106552E-01  0.57375410134E+02  0.57859328523E+02  0.74470750000E+01 0. -1.
<mgrwt>
<rscale>  0 0.14948032E+02</rscale>
<asrwt>0</asrwt>
<pdfrwt beam="1">  1        2 0.99805017E+00 0.14948032E+02</pdfrwt>
<pdfrwt beam="2">  1       -2 0.98677939E+00 0.14948032E+02</pdfrwt>
<totfact> 0.14472792E-13</totfact>
</mgrwt>
</event>
<event>
 4    1  0.4882314E-019  0.1492576E+02  0.7818608E-02  0.1870342E+00
         -2   -1    0    0    0  501 -0.00000000000E+00  0.00000000000E+00  0.11864589599E+03  0.11864589601E+03  0.25500000000E-02 0. -1.
          2   -1    0    0  501    0  0.00000000000E+00 -0.00000000000E+00 -0.46941499108E+00  0.46942191720E+00  0.25500000000E-02 0.  1.
         31    1    1    2    0    0 -0.20572504550E+00  0.26479785512E+00  0.61889500483E+02  0.62336840126E+02  0.74470750000E+01 0. -1.
        -31    1    1    2    0    0  0.20572504550E+00 -0.26479785512E+00  0.56286980512E+02  0.56778477805E+02  0.74470750000E+01 0.  1.
<mgrwt>
<rscale>  0 0.14925760E+02</rscale>
<asrwt>0</asrwt>
<pdfrwt beam="2">  1        2 0.99694787E+00 0.14925760E+02</pdfrwt>
<pdfrwt beam="1">  1       -2 0.98492879E+00 0.14925760E+02</pdfrwt>
<totfact> 0.36940170E-13</totfact>
</mgrwt>
</event>
<event>
 4    1 -0.4882314E-019  0.1499075E+02  0.7818608E-02  0.1868351E+00
          2   -1    0    0  501    0  0.00000000000E+00  0.00000000000E+00  0.11993374130E+03  0.11993374133E+03  0.25500000000E-02 0.  1.
         -2   -1    0    0    0  501 -0.00000000000E+00 -0.00000000000E+00 -0.46842723241E+00  0.46843417314E+00  0.25500000000E-02 0. -1.
         31    1    1    2    0    0  0.73922212467E-01 -0.65325943682E+00  0.55411063679E+02  0.55913121148E+02  0.74470750000E+01 0. -1.
        -31    1    1    2    0    0 -0.73922212467E-01  0.65325943682E+00  0.64054250389E+02  0.64489054353E+02  0.74470750000E+01 0.  1.
<mgrwt>
<rscale>  0 0.14990750E+02</rscale>
<asrwt>0</asrwt>
<pdfrwt beam="1">  1        2 0.99556943E+00 0.14990750E+02</pdfrwt>
<pdfrwt beam="2">  1       -2 0.99490035E+00 0.14990750E+02</pdfrwt>
<totfact>-0.11201532E-13</totfact>
</mgrwt>
</event>
<event>
 4    1 -0.4882314E-019  0.1493426E+02  0.7818608E-02  0.1870081E+00
         -2   -1    0    0    0  501 -0.00000000000E+00  0.00000000000E+00  0.12026970829E+03  0.12026970832E+03  0.25500000000E-02 0. -1.
          2   -1    0    0  501    0  0.00000000000E+00 -0.00000000000E+00 -0.46360464266E+00  0.46361165559E+00  0.25500000000E-02 0.  1.
         31    1    1    2    0    0  0.20026257606E+00 -0.45482503918E+00  0.58057361756E+02  0.58535144581E+02  0.74470750000E+01 0. -1.
        -31    1    1    2    0    0 -0.20026257606E+00  0.45482503918E+00  0.61748741894E+02  0.62198175395E+02  0.74470750000E+01 0. -1.
<mgrwt>
<rscale>  0 0.14934259E+02</rscale>
<asrwt>0</asrwt>
<pdfrwt beam="2">  1        2 0.98470776E+00 0.14934259E+02</pdfrwt>
<pdfrwt beam="1">  1       -2 0.99830756E+00 0.14934259E+02</pdfrwt>
<totfact>-0.18851488E-13</totfact>
</mgrwt>
</event>
<event>
 4    1  0.4882314E-019  0.1491163E+02  0.7818608E-02  0.1870777E+00
         -2   -1    0    0    0  501 -0.00000000000E+00  0.00000000000E+00  0.11887055884E+03  0.11887055887E+03  0.25500000000E-02 0. -1.
          2   -1    0    0  501    0  0.00000000000E+00 -0.00000000000E+00 -0.46764117758E+00  0.46764812997E+00  0.25500000000E-02 0.  1.
         31    1    1    2    0    0 -0.83051170727E-01  0.14049018871E+00  0.56625235042E+02  0.57113070348E+02  0.74470750000E+01 0.  1.
        -31    1    1    2    0    0  0.83051170727E-01 -0.14049018871E+00  0.61777682624E+02  0.62225136653E+02  0.74470750000E+01 0. -1.
<mgrwt>
<rscale>  0 0.14911631E+02</rscale>
<asrwt>0</asrwt>
<pdfrwt beam="2">  1        2 0.99320284E+00 0.14911631E+02</pdfrwt>
<pdfrwt beam="1">  1       -2 0.98677179E+00 0.14911631E+02</pdfrwt>
<totfact> 0.31367747E-13</totfact>
</mgrwt>
</event>
<event>
 4    1 -0.4882314E-019  0.1499201E+02  0.7818608E-02  0.1868312E+00
          2   -1    0    0  501    0  0.00000000000E+00  0.00000000000E+00  0.11953421610E+03  0.11953421613E+03  0.25500000000E-02 0. -1.
         -2   -1    0    0    0  501 -0.00000000000E+00 -0.00000000000E+00 -0.47007183185E+00  0.47007874830E+00  0.25500000000E-02 0.  1.
         31    1    1    2    0    0 -0.85506543509E+00 -0.36383730206E-02  0.59508908507E+02  0.59979165281E+02  0.74470750000E+01 0.  1.
        -31    1    1    2    0    0  0.85506543509E+00  0.36383730206E-02  0.59555235763E+02  0.60025129596E+02  0.74470750000E+01 0.  1.
<mgrwt>
<rscale>  0 0.14992009E+02</rscale>
<asrwt>0</asrwt>
<pdfrwt beam="1">  1        2 0.99227947E+00 0.14992009E+02</pdfrwt>
<pdfrwt beam="2">  1       -2 0.99836662E+00 0.14992009E+02</pdfrwt>
<totfact>-0.74563137E-14</totfact>
</mgrwt>
</event>
<event>
 4    1 -0.4882314E-019  0.1501383E+02  0.7818608E-02  0.1867647E+00
          2   -1    0    0  501    0  0.00000000000E+00  0.00000000000E+00  0.12021580874E+03  0.12021580877E+03  0.25500000000E-02 0. -1.
         -2   -1    0    0    0  501 -0.00000000000E+00 -0.00000000000E+00 -0.46876824011E+00  0.46877517579E+00  0.25500000000E-02 0.  1.
         31    1    1    2    0    0 -0.16124044899E+00 -0.42676652066E+00  0.66534679971E+02  0.66951704183E+02  0.74470750000E+01 0.  1.
        -31    1    1    2    0    0  0.16124044899E+00  0.42676652066E+00  0.53212360532E+02  0.53732879763E+02  0.74470750000E+01 0.  1.
<mgrwt>
<rscale>  0 0.15013830E+02</rscale>
<asrwt>0</asrwt>
<pdfrwt beam="1">  1        2 0.99790458E+00 0.15013830E+02</pdfrwt>
<pdfrwt beam="2">  1       -2 0.99563088E+00 0.15013830E+02</pdfrwt>
<totfact>-0.65896871E-14</totfact>
</mgrwt>
</event>
<event>
 4    1 -0.4882314E-019  0.1496205E+02  0.7818608E-02  0.1869229E+00
         -2   -1    0    0    0  501 -0.00000000000E+00  0.00000000000E+00  0.11976015060E+03  0.11976015063E+03  0.25500000000E-02 0.  1.
          2   -1    0    0  501    0  0.00000000000E+00 -0.00000000000E+00 -0.46731187597E+00  0.46731883326E+00  0.25500000000E-02 0. -1.
         31    1    1    2    0    0  0.48629034168E+00 -0.31562991711E+00  0.62966681670E+02  0.63408185805E+02  0.74470750000E+01 0. -1.
        -31    1    1    2    0    0 -0.48629034168E+00  0.31562991711E+00  0.56326157054E+02  0.56819283655E+02  0.74470750000E+01 0. -1.
<mgrwt>
<rscale>  0 0.14962053E+02</rscale>
<asrwt>0</asrwt>
<pdfrwt beam="2">  1        2 0.99253507E+00 0.14962053E+02</pdfrwt>
<pdfrwt beam="1">  1       -2 0.99412484E+00 0.14962053E+02</pdfrwt>
<totfact>-0.14357282E-13</totfact>
</mgrwt>
</event>
<event>
 4    1 -0.4882314E-019  0.1495522E+02  0.7818608E-02  0.1869438E+00
         -2   -1    0    0    0  501 -0.00000000000E+00  0.00000000000E+00  0.11981831888E+03  0.11981831890E+03  0.25500000000E-02 0.  1.
          2   -1    0    0  501    0  0.00000000000E+00 -0.00000000000E+00 -0.46665822582E+00  0.46666519286E+00  0.25500000000E-02 0. -1.
         31    1    1    2    0    0 -0.28942460973E+00  0.17901395712E+00  0.64364886249E+02  0.64795164329E+02  0.74470750000E+01 0.  1.
        -31    1    1    2    0    0  0.28942460973E+00 -0.17901395712E+00  0.54986774402E+02  0.55489819767E+02  0.74470750000E+01 0. -1.
<mgrwt>
<rscale>  0 0.14955216E+02</rscale>
<asrwt>0</asrwt>
<pdfrwt beam="2">  1        2 0.99115404E+00 0.14955216E+02</pdfrwt>
<pdfrwt beam="1">  1       -2 0.99460041E+00 0.14955216E+02</pdfrwt>
<totfact>-0.16171613E-13</totfact>
</mgrwt>
</event>
<event>
 4    1 -0.4882314E-019  0.1499139E+02  0.7818608E-02  0.1868331E+00
          2   -1    0    0  501    0  0.00000000000E+00  0.00000000000E+00  0.11945405540E+03  0.11945405543E+03  0.25500000000E-02 0.  1.
         -2   -1    0    0    0  501 -0.00000000000E+00 -0.00000000000E+00 -0.47034853861E+00  0.47035545099E+00  0.25500000000E-02 0. -1.
         31    1    1    2    0    0  0.38016647637E+00 -0.40935209228E+00  0.54342013519E+02  0.54852761599E+02  0.74470750000E+01 0. -1.
        -31    1    1    2    0    0 -0.38016647637E+00  0.40935209228E+00  0.64641693342E+02  0.65071649279E+02  0.74470750000E+01 0.  1.
<mgrwt>
<rscale>  0 0.14991392E+02</rscale>
<asrwt>0</asrwt>
<pdfrwt beam="1">  1        2 0.99161894E+00 0.14991392E+02</pdfrwt>
<pdfrwt beam="2">  1       -2 0.99894937E+00 0.14991392E+02</pdfrwt>
<totfact>-0.52984721E-14</totfact>
</mgrwt>
</event>
<event>
 4    1 -0.4882314E-019  0.1500391E+02  0.7818608E-02  0.1867949E+00
          2   -1    0    0  501    0  0.00000000000E+00  0.00000000000E+00  0.12023753441E+03  0.12023753443E+03  0.25500000000E-02 0.  1.
         -2   -1    0    0    0  501 -0.00000000000E+00 -0.00000000000E+00 -0.46806419490E+00  0.46807114102E+00  0.25500000000E-02 0. -1.
         31    1    1    2    0    0  0.35371553254E+00  0.20473932094E+00  0.66387453063E+02  0.66805088752E+02  0.74470750000E+01 0.  1.
        -31    1    1    2    0    0 -0.35371553254E+00 -0.20473932094E+00  0.53382017147E+02  0.53900516822E+02  0.74470750000E+01 0. -1.
<mgrwt>
<rscale>  0 0.15003907E+02</rscale>
<asrwt>0</asrwt>
<pdfrwt beam="1">  1        2 0.99807840E+00 0.15003907E+02</pdfrwt>
<pdfrwt beam="2">  1       -2 0.99414206E+00 0.15003907E+02</pdfrwt>
<totfact>-0.62643281E-14</totfact>
</mgrwt>
</event>
<event>
 4    1  0.4882314E-019  0.1490252E+02  0.7818608E-02  0.1871058E+00
         -2   -1    0    0    0  501 -0.00000000000E+00  0.00000000000E+00  0.11797014303E+03  0.11797014306E+03  0.25500000000E-02 0.  1.
          2   -1    0    0  501    0  0.00000000000E+00 -0.00000000000E+00 -0.47063486079E+00  0.47064176896E+00  0.25500000000E-02 0. -1.
         31    1    1    2    0    0 -0.97409324629E-01  0.76169917510E-01  0.57025705539E+02  0.57510045286E+02  0.74470750000E+01 0. -1.
        -31    1    1    2    0    0  0.97409324629E-01 -0.76169917510E-01  0.60473802628E+02  0.60930739539E+02  0.74470750000E+01 0.  1.
<mgrwt>
<rscale>  0 0.14902520E+02</rscale>
<asrwt>0</asrwt>
<pdfrwt beam="2">  1        2 0.99950574E+00 0.14902520E+02</pdfrwt>
<pdfrwt beam="1">  1       -2 0.97935128E+00 0.14902520E+02</pdfrwt>
<totfact> 0.25240662E-13</totfact>
</mgrwt>
</event>
<event>
 4    1 -0.4882314E-019  0.1497711E+02  0.7818608E-02  0.1868768E+00
         -2   -1    0    0    0  501 -0.00000000000E+00  0.00000000000E+00  0.12013510430E+03  0.12013510433E+03  0.25500000000E-02 0. -1.
          2   -1    0    0  501    0  0.00000000000E+00 -0.00000000000E+00 -0.46679123961E+00  0.46679820467E+00  0.25500000000E-02 0.  1.
         31    1    1    2    0    0 -0.50075607490E-01 -0.43373818521E+00  0.65107557559E+02  0.65533530454E+02  0.74470750000E+01 0. -1.
        -31    1    1    2    0    0  0.50075607490E-01  0.43373818521E+00  0.54560755501E+02  0.55068372078E+02  0.74470750000E+01 0.  1.
<mgrwt>
<rscale>  0 0.14977107E+02</rscale>
<asrwt>0</asrwt>
<pdfrwt beam="2">  1        2 0.99144560E+00 0.14977107E+02</pdfrwt>
<pdfrwt beam="1">  1       -2 0.99722091E+00 0.14977107E+02</pdfrwt>
<totfact>-0.12011100E-13</totfact>
</mgrwt>
</event>
<event>
 4    1  0.4882314E-019  0.1493453E+02  0.7818608E-02  0.1870073E+00
          2   -1    0    0  501    0  0.00000000000E+00  0.00000000000E+00  0.11981129024E+03  0.11981129027E+03  0.25500000000E-02 0.  1.
         -2   -1    0    0    0  501 -0.00000000000E+00 -0.00000000000E+00 -0.46539511420E+00  0.46540210014E+00  0.25500000000E-02 0. -1.
         31    1    1    2    0    0 -0.56556498008E-01  0.46686582302E+00  0.57396149543E+02  0.57879167848E+02  0.74470750000E+01 0.  1.
        -31    1    1    2    0    0  0.56556498008E-01 -0.46686582302E+00  0.61949745587E+02  0.62397524523E+02  0.74470750000E+01 0. -1.
<mgrwt>
<rscale>  0 0.14934525E+02</rscale>
<asrwt>0</asrwt>
<pdfrwt beam="1">  1        2 0.99453185E+00 0.14934525E+02</pdfrwt>
<pdfrwt beam="2">  1       -2 0.98848147E+00 0.14934525E+02</pdfrwt>
<totfact> 0.11659886E-13</totfact>
</mgrwt>
</event>
<event>
 4    1  0.4882314E-019  0.1492005E+02  0.7818608E-02  0.1870518E+00
         -2   -1    0    0    0  501 -0.00000000000E+00  0.00000000000E+00  0.11833931845E+03  0.11833931848E+03  0.25500000000E-02 0. -1.
          2   -1    0    0  501    0  0.00000000000E+00 -0.00000000000E+00 -0.47027090314E+00  0.47027781666E+00  0.25500000000E-02 0.  1.
         31    1    1    2    0    0 -0.39233353429E+00  0.13828592312E+00  0.57809053922E+02  0.58288238008E+02  0.74470750000E+01 0.  1.
        -31    1    1    2    0    0  0.39233353429E+00 -0.13828592312E+00  0.60059993629E+02  0.60521358291E+02  0.74470750000E+01 0. -1.
<mgrwt>
<rscale>  0 0.14920047E+02</rscale>
<asrwt>0</asrwt>
<pdfrwt beam="2">  1        2 0.99874824E+00 0.14920047E+02</pdfrwt>
<pdfrwt beam="1">  1       -2 0.98240087E+00 0.14920047E+02</pdfrwt>
<totfact> 0.33792264E-13</totfact>
</mgrwt>
</event>
<event>
 4    1 -0.4882314E-019  0.1494893E+02  0.7818608E-02  0.1869631E+00
          2   -1    0    0  501    0  0.00000000000E+00  0.00000000000E+00  0.11894530612E+03  0.11894530615E+03  0.25500000000E-02 0. -1.
         -2   -1    0    0    0  501 -0.00000000000E+00 -0.00000000000E+00 -0.46968830283E+00  0.46969522492E+00  0.25500000000E-02 0.  1.
         31    1    1    2    0    0  0.58207989999E+00 -0.25565980336E+00  0.58700226685E+02  0.59174147378E+02  0.74470750000E+01 0.  1.
        -31    1    1    2    0    0 -0.58207989999E+00  0.25565980336E+00  0.59775391136E+02  0.60240853999E+02  0.74470750000E+01 0.  1.
<mgrwt>
<rscale>  0 0.14948931E+02</rscale>
<asrwt>0</asrwt>
<pdfrwt beam="1">  1        2 0.98740678E+00 0.14948931E+02</pdfrwt>
<pdfrwt beam="2">  1       -2 0.99753593E+00 0.14948931E+02</pdfrwt>
<totfact>-0.16860994E-13</totfact>
</mgrwt>
</event>
<event>
 4    1 -0.4882314E-019  0.1492751E+02  0.7818608E-02  0.1870289E+00
         -2   -1    0    0    0  501 -0.00000000000E+00  0.00000000000E+00  0.12027983299E+03  0.12027983302E+03  0.25500000000E-02 0.  1.
          2   -1    0    0  501    0  0.00000000000E+00 -0.00000000000E+00 -0.46314648896E+00  0.46315350882E+00  0.25500000000E-02 0. -1.
         31    1    1    2    0    0 -0.20224043452E+00  0.41928648357E+00  0.61354813879E+02  0.61806867050E+02  0.74470750000E+01 0.  1.
        -31    1    1    2    0    0  0.20224043452E+00 -0.41928648357E+00  0.58461872626E+02  0.58936119479E+02  0.74470750000E+01 0.  1.
<mgrwt>
<rscale>  0 0.14927506E+02</rscale>
<asrwt>0</asrwt>
<pdfrwt beam="2">  1        2 0.98373869E+00 0.14927506E+02</pdfrwt>
<pdfrwt beam="1">  1       -2 0.99838749E+00 0.14927506E+02</pdfrwt>
<totfact>-0.21250337E-13</totfact>
</mgrwt>
</event>
<event>
 4    1 -0.4882314E-019  0.1490958E+02  0.7818608E-02  0.1870840E+00
          2   -1    0    0  501    0  0.00000000000E+00  0.00000000000E+00  0.11881791420E+03  0.11881791423E+03  0.25500000000E-02 0. -1.
         -2   -1    0    0    0  501 -0.00000000000E+00 -0.00000000000E+00 -0.46771983423E+00  0.46772678546E+00  0.25500000000E-02 0.  1.
         31    1    1    2    0    0  0.18424070317E+00  0.26492024711E+00  0.58341423341E+02  0.58815684396E+02  0.74470750000E+01 0. -1.
        -31    1    1    2    0    0 -0.18424070317E+00 -0.26492024711E+00  0.60008771028E+02  0.60469956620E+02  0.74470750000E+01 0.  1.
<mgrwt>
<rscale>  0 0.14909582E+02</rscale>
<asrwt>0</asrwt>
<pdfrwt beam="1">  1        2 0.98633714E+00 0.14909582E+02</pdfrwt>
<pdfrwt beam="2">  1       -2 0.99336751E+00 0.14909582E+02</pdfrwt>
<totfact>-0.25890760E-13</totfact>
</mgrwt>
</event>
<event>
 4    1 -0.4882314E-019  0.1492285E+02  0.7818608E-02  0.1870432E+00
         -2   -1    0    0    0  501 -0.00000000000E+00  0.00000000000E+00  0.11959124093E+03  0.11959124096E+03  0.25500000000E-02 0.  1.
          2   -1    0    0  501    0  0.00000000000E+00 -0.00000000000E+00 -0.46552287572E+00  0.46552985975E+00  0.25500000000E-02 0. -1.
         31    1    1    2    0    0  0.56270627168E-01  0.45902293019E+00  0.59488786225E+02  0.59954887048E+02  0.74470750000E+01 0. -1.
        -31    1    1    2    0    0 -0.56270627168E-01 -0.45902293019E+00  0.59636931830E+02  0.60101883769E+02  0.74470750000E+01 0. -1.
<mgrwt>
<rscale>  0 0.14922852E+02</rscale>
<asrwt>0</asrwt>
<pdfrwt beam="2">  1        2 0.98874473E+00 0.14922852E+02</pdfrwt>
<pdfrwt beam="1">  1       -2 0.99271338E+00 0.14922852E+02</pdfrwt>
<totfact>-0.16689000E-13</totfact>
</mgrwt>
</event>
<event>
 4    1 -0.4882314E-019  0.1491646E+02  0.7818608E-02  0.1870629E+00
         -2   -1    0    0    0  501 -0.00000000000E+00  0.00000000000E+00  0.11998348377E+03  0.11998348380E+03  0.25500000000E-02 0. -1.
          2   -1    0    0  501    0  0.00000000000E+00 -0.00000000000E+00 -0.46360341972E+00  0.46361043266E+00  0.25500000000E-02 0.  1.
         31    1    1    2    0    0  0.13961074550E+00 -0.37428085691E+00  0.60419604931E+02  0.60878133705E+02  0.74470750000E+01 0. -1.
        -31    1    1    2    0    0 -0.13961074550E+00  0.37428085691E+00  0.59100275420E+02  0.59568960525E+02  0.74470750000E+01 0. -1.
<mgrwt>
<rscale>  0 0.14916458E+02</rscale>
<asrwt>0</asrwt>
<pdfrwt beam="2">  1        2 0.98469615E+00 0.14916458E+02</pdfrwt>
<pdfrwt beam="1">  1       -2 0.99594085E+00 0.14916458E+02</pdfrwt>
<totfact>-0.34441862E-13</totfact>
</mgrwt>
</event>
<event>
 4    1  0.4882314E-019  0.1491172E+02  0.7818608E-02  0.1870774E+00
         -2   -1    0    0    0  501 -0.00000000000E+00  0.00000000000E+00  0.11849229515E+03  0.11849229517E+03  0.25500000000E-02 0.  1.
          2   -1    0    0  501    0  0.00000000000E+00 -0.00000000000E+00 -0.46913982328E+00  0.46914675346E+00  0.25500000000E-02 0. -1.
         31    1    1    2    0    0  0.30567581543E+00 -0.10852979100E+00  0.60291143459E+02  0.60750194420E+02  0.74470750000E+01 0. -1.
        -31    1    1    2    0    0 -0.30567581543E+00  0.10852979100E+00  0.57732011864E+02  0.58211247507E+02  0.74470750000E+01 0. -1.
<mgrwt>
<rscale>  0 0.14911723E+02</rscale>
<asrwt>0</asrwt>
<pdfrwt beam="2">  1        2 0.99636068E+00 0.14911723E+02</pdfrwt>
<pdfrwt beam="1">  1       -2 0.98365643E+00 0.14911723E+02</pdfrwt>
<totfact> 0.57332998E-13</totfact>
</mgrwt>
</event>
<event>
 4    1 -0.4882314E-019  0.1494859E+02  0.7818608E-02  0.1869641E+00
         -2   -1    0    0    0  501 -0.00000000000E+00  0.00000000000E+00  0.11957902419E+03  0.11957902422E+03  0.25500000000E-02 0. -1.
          2   -1    0    0  501    0  0.00000000000E+00 -0.00000000000E+00 -0.46717802726E+00  0.46718498654E+00  0.25500000000E-02 0.  1.
         31    1    1    2    0    0  0.65092238330E-02 -0.35179062882E+00  0.63823392260E+02  0.64257358525E+02  0.74470750000E+01 0. -1.
        -31    1    1    2    0    0 -0.65092238330E-02  0.35179062882E+00  0.55288453908E+02  0.55788850684E+02  0.74470750000E+01 0. -1.
<mgrwt>
<rscale>  0 0.14948594E+02</rscale>
<asrwt>0</asrwt>
<pdfrwt beam="2">  1        2 0.99224605E+00 0.14948594E+02</pdfrwt>
<pdfrwt beam="1">  1       -2 0.99262605E+00 0.14948594E+02</pdfrwt>
<totfact>-0.11921367E-13</totfact>
</mgrwt>
</event>
<event>
 4    1 -0.4882314E-019  0.1492806E+02  0.7818608E-02  0.1870272E+00
         -2   -1    0    0    0  501 -0.00000000000E+00  0.00000000000E+00  0.11950746503E+03  0.11950746505E+03  0.25500000000E-02 0. -1.
          2   -1    0    0  501    0  0.00000000000E+00 -0.00000000000E+00 -0.46617432303E+00  0.46618129730E+00  0.25500000000E-02 0.  1.
         31    1    1    2    0    0  0.64921300474E-01 -0.48442093786E+00  0.58572197844E+02  0.59045746373E+02  0.74470750000E+01 0.  1.
        -31    1    1    2    0    0 -0.64921300474E-01  0.48442093786E+00  0.60469092860E+02  0.60927899979E+02  0.74470750000E+01 0. -1.
<mgrwt>
<rscale>  0 0.14928058E+02</rscale>
<asrwt>0</asrwt>
<pdfrwt beam="2">  1        2 0.99012028E+00 0.14928058E+02</pdfrwt>
<pdfrwt beam="1">  1       -2 0.99202605E+00 0.14928058E+02</pdfrwt>
<totfact>-0.11782506E-13</totfact>
</mgrwt>
</event>
<event>
 4    1  0.4882314E-019  0.1495504E+02  0.7818608E-02  0.1869443E+00
          2   -1    0    0  501    0  0.00000000000E+00  0.00000000000E+00  0.11997754959E+03  0.11997754962E+03  0.25500000000E-02 0. -1.
         -2   -1    0    0    0  501 -0.00000000000E+00 -0.00000000000E+00 -0.46602807219E+00  0.46603504865E+00  0.25500000000E-02 0.  1.
         31    1    1    2    0    0  0.19083306472E+00 -0.62838114857E+00  0.60980394264E+02  0.61436948906E+02  0.74470750000E+01 0. -1.
        -31    1    1    2    0    0 -0.19083306472E+00  0.62838114857E+00  0.58531127255E+02  0.59006635762E+02  0.74470750000E+01 0.  1.
<mgrwt>
<rscale>  0 0.14955043E+02</rscale>
<asrwt>0</asrwt>
<pdfrwt beam="1">  1        2 0.99591183E+00 0.14955043E+02</pdfrwt>
<pdfrwt beam="2">  1       -2 0.98982593E+00 0.14955043E+02</pdfrwt>
<totfact> 0.16588348E-14</totfact>
</mgrwt>
</event>
<event>
 4    1 -0.4882314E-019  0.1492654E+02  0.7818608E-02  0.1870318E+00
         -2   -1    0    0    0  501 -0.00000000000E+00  0.00000000000E+00  0.11952934585E+03  0.11952934587E+03  0.25500000000E-02 0.  1.
          2   -1    0    0  501    0  0.00000000000E+00 -0.00000000000E+00 -0.46599421032E+00  0.46600118729E+00  0.25500000000E-02 0. -1.
         31    1    1    2    0    0 -0.36244723814E+00  0.50455115406E-01  0.62168237156E+02  0.62613756882E+02  0.74470750000E+01 0.  1.
        -31    1    1    2    0    0  0.36244723814E+00 -0.50455115406E-01  0.56895114480E+02  0.57381590179E+02  0.74470750000E+01 0. -1.
<mgrwt>
<rscale>  0 0.14926541E+02</rscale>
<asrwt>0</asrwt>
<pdfrwt beam="2">  1        2 0.98973993E+00 0.14926541E+02</pdfrwt>
<pdfrwt beam="1">  1       -2 0.99220549E+00 0.14926541E+02</pdfrwt>
<totfact>-0.13031102E-13</totfact>
</mgrwt>
</event>
<event>
 4    1 -0.4882314E-019  0.1490342E+02  0.7818608E-02  0.1871030E+00
         -2   -1    0    0    0  501 -0.00000000000E+00  0.00000000000E+00  0.11985737341E+03  0.11985737344E+03  0.25500000000E-02 0. -1.
          2   -1    0    0  501    0  0.00000000000E+00 -0.00000000000E+00 -0.46328037319E+00  0.46328739102E+00  0.25500000000E-02 0.  1.
         31    1    1    2    0    0 -0.69005332841E-01  0.62910144439E-01  0.61680318109E+02  0.62128329186E+02  0.74470750000E+01 0. -1.
        -31    1    1    2    0    0  0.69005332841E-01 -0.62910144439E-01  0.57713774932E+02  0.58192331646E+02  0.74470750000E+01 0.  1.
<mgrwt>
<rscale>  0 0.14903421E+02</rscale>
<asrwt>0</asrwt>
<pdfrwt beam="2">  1        2 0.98400866E+00 0.14903421E+02</pdfrwt>
<pdfrwt beam="1">  1       -2 0.99489541E+00 0.14903421E+02</pdfrwt>
<totfact>-0.40942086E-13</totfact>
</mgrwt>
</event>
<event>
 4    1 -0.4882314E-019  0.1489692E+02  0.7818608E-02  0.1871230E+00
         -2   -1    0    0    0  501 -0.00000000000E+00  0.00000000000E+00  0.11979119752E+03  0.11979119754E+03  0.25500000000E-02 0.  1.
          2   -1    0    0  501    0  0.00000000000E+00 -0.00000000000E+00 -0.46313187761E+00  0.46313889769E+00  0.25500000000E-02 0. -1.
         31    1    1    2    0    0 -0.93166800662E-01 -0.58147925217E-02  0.60544854299E+02  0.61001205087E+02  0.74470750000E+01 0.  1.
        -31    1    1    2    0    0  0.93166800662E-01  0.58147925217E-02  0.58783211339E+02  0.59253131354E+02  0.74470750000E+01 0. -1.
<mgrwt>
<rscale>  0 0.14896919E+02</rscale>
<asrwt>0</asrwt>
<pdfrwt beam="2">  1        2 0.98369238E+00 0.14896919E+02</pdfrwt>
<pdfrwt beam="1">  1       -2 0.99434699E+00 0.14896919E+02</pdfrwt>
<totfact>-0.42918624E-13</totfact>
</mgrwt>
</event>
<event>
 4    1  0.4882314E-019  0.1490060E+02  0.7818608E-02  0.1871117E+00
         -2   -1    0    0    0  501 -0.00000000000E+00  0.00000000000E+00  0.11881094598E+03  0.11881094601E+03  0.25500000000E-02 0.  1.
          2   -1    0    0  501    0  0.00000000000E+00 -0.00000000000E+00 -0.46718377699E+00  0.46719073619E+00  0.25500000000E-02 0. -1.
         31    1    1    2    0    0 -0.19796911558E-01 -0.86710950023E-01  0.60775393111E+02  0.61230019146E+02  0.74470750000E+01 0.  1.
        -31    1    1    2    0    0  0.19796911558E-01  0.86710950023E-01  0.57568369091E+02  0.58048117597E+02  0.74470750000E+01 0. -1.
<mgrwt>
<rscale>  0 0.14900599E+02</rscale>
<asrwt>0</asrwt>
<pdfrwt beam="2">  1        2 0.99223325E+00 0.14900599E+02</pdfrwt>
<pdfrwt beam="1">  1       -2 0.98627509E+00 0.14900599E+02</pdfrwt>
<totfact> 0.40479643E-13</totfact>
</mgrwt>
</event>
<event>
 4    1  0.4882314E-019  0.1490995E+02  0.7818608E-02  0.1870829E+00
         -2   -1    0    0    0  501 -0.00000000000E+00  0.00000000000E+00  0.11874594792E+03  0.11874594795E+03  0.25500000000E-02 0. -1.
          2   -1    0    0  501    0  0.00000000000E+00 -0.00000000000E+00 -0.46802614363E+00  0.46803309031E+00  0.25500000000E-02 0.  1.
         31    1    1    2    0    0 -0.19172535778E+00  0.28013961976E+00  0.58742319131E+02  0.59213463163E+02  0.74470750000E+01 0. -1.
        -31    1    1    2    0    0  0.19172535778E+00 -0.28013961976E+00  0.59535602645E+02  0.60000517874E+02  0.74470750000E+01 0.  1.
<mgrwt>
<rscale>  0 0.14909946E+02</rscale>
<asrwt>0</asrwt>
<pdfrwt beam="2">  1        2 0.99401314E+00 0.14909946E+02</pdfrwt>
<pdfrwt beam="1">  1       -2 0.98574460E+00 0.14909946E+02</pdfrwt>
<totfact> 0.42405245E-13</totfact>
</mgrwt>
</event>
<event>
 4    1 -0.4882314E-019  0.1493027E+02  0.7818608E-02  0.1870204E+00
         -2   -1    0    0    0  501 -0.00000000000E+00  0.00000000000E+00  0.11991921234E+03  0.11991921236E+03  0.25500000000E-02 0. -1.
          2   -1    0    0  501    0  0.00000000000E+00 -0.00000000000E+00 -0.46471118252E+00  0.46471817875E+00  0.25500000000E-02 0.  1.
         31    1    1    2    0    0  0.49325789077E+00  0.16120838901E+00  0.59710779192E+02  0.60175621055E+02  0.74470750000E+01 0. -1.
        -31    1    1    2    0    0 -0.49325789077E+00 -0.16120838901E+00  0.59743721962E+02  0.60208309488E+02  0.74470750000E+01 0. -1.
<mgrwt>
<rscale>  0 0.14930267E+02</rscale>
<asrwt>0</asrwt>
<pdfrwt beam="2">  1        2 0.98703789E+00 0.14930267E+02</pdfrwt>
<pdfrwt beam="1">  1       -2 0.99541857E+00 0.14930267E+02</pdfrwt>
<totfact>-0.25004196E-13</totfact>
</mgrwt>
</event>
<event>
 4    1  0.4882314E-019  0.1495896E+02  0.7818608E-02  0.1869323E+00
         -2   -1    0    0    0  501 -0.00000000000E+00  0.00000000000E+00  0.11910319655E+03  0.11910319657E+03  0.25500000000E-02 0. -1.
          2   -1    0    0  501    0  0.00000000000E+00 -0.00000000000E+00 -0.46969532830E+00  0.46970225029E+00  0.25500000000E-02 0.  1.
         31    1    1    2    0    0 -0.46723132875E+00 -0.51301069137E+00  0.59693318207E+02  0.60160058591E+02  0.74470750000E+01 0. -1.
        -31    1    1    2    0    0  0.46723132875E+00  0.51301069137E+00  0.58940183010E+02  0.59412840232E+02  0.74470750000E+01 0.  1.
<mgrwt>
<rscale>  0 0.14958961E+02</rscale>
<asrwt>0</asrwt>
<pdfrwt beam="2">  1        2 0.99755599E+00 0.14958961E+02</pdfrwt>
<pdfrwt beam="1">  1       -2 0.98871239E+00 0.14958961E+02</pdfrwt>
<totfact> 0.59820398E-14</totfact>
</mgrwt>
</event>
<event>
 4    1 -0.4882314E-019  0.1493653E+02  0.7818608E-02  0.1870012E+00
          2   -1    0    0  501    0  0.00000000000E+00  0.00000000000E+00  0.11898774788E+03  0.11898774791E+03  0.25500000000E-02 0. -1.
         -2   -1    0    0    0  501 -0.00000000000E+00 -0.00000000000E+00 -0.46874204214E+00  0.46874897821E+00  0.25500000000E-02 0.  1.
         31    1    1    2    0    0 -0.28900545980E-01  0.28923322584E+00  0.63107995226E+02  0.63546537896E+02  0.74470750000E+01 0. -1.
        -31    1    1    2    0    0  0.28900545980E-01 -0.28923322584E+00  0.55411010614E+02  0.55909958991E+02  0.74470750000E+01 0.  1.
<mgrwt>
<rscale>  0 0.14936529E+02</rscale>
<asrwt>0</asrwt>
<pdfrwt beam="1">  1        2 0.98774990E+00 0.14936529E+02</pdfrwt>
<pdfrwt beam="2">  1       -2 0.99553555E+00 0.14936529E+02</pdfrwt>
<totfact>-0.22522263E-13</totfact>
</mgrwt>
</event>
<event>
 4    1  0.4882314E-019  0.1491523E+02  0.7818608E-02  0.1870666E+00
          2   -1    0    0  501    0  0.00000000000E+00  0.00000000000E+00  0.12010314637E+03  0.12010314639E+03  0.25500000000E-02 0.  1.
         -2   -1    0    0    0  501 -0.00000000000E+00 -0.00000000000E+00 -0.46306503513E+00  0.46307205623E+00  0.25500000000E-02 0. -1.
         31    1    1    2    0    0 -0.22459518614E-01  0.17628024396E+00  0.56956549808E+02  0.57441614456E+02  0.74470750000E+01 0. -1.
        -31    1    1    2    0    0  0.22459518614E-01 -0.17628024396E+00  0.62683531523E+02  0.63124603994E+02  0.74470750000E+01 0.  1.
<mgrwt>
<rscale>  0 0.14915226E+02</rscale>
<asrwt>0</asrwt>
<pdfrwt beam="1">  1        2 0.99692585E+00 0.14915226E+02</pdfrwt>
<pdfrwt beam="2">  1       -2 0.98356080E+00 0.14915226E+02</pdfrwt>
<totfact> 0.52626955E-13</totfact>
</mgrwt>
</event>
<event>
 4    1 -0.4882314E-019  0.1496290E+02  0.7818608E-02  0.1869203E+00
          2   -1    0    0  501    0  0.00000000000E+00  0.00000000000E+00  0.11935696386E+03  0.11935696389E+03  0.25500000000E-02 0. -1.
         -2   -1    0    0    0  501 -0.00000000000E+00 -0.00000000000E+00 -0.46894327068E+00  0.46895020377E+00  0.25500000000E-02 0.  1.
         31    1    1    2    0    0 -0.33905127407E+00 -0.33244196954E+00  0.63739144687E+02  0.64174472845E+02  0.74470750000E+01 0. -1.
        -31    1    1    2    0    0  0.33905127407E+00  0.33244196954E+00  0.55148875903E+02  0.55651441247E+02  0.74470750000E+01 0.  1.
<mgrwt>
<rscale>  0 0.14962896E+02</rscale>
<asrwt>0</asrwt>
<pdfrwt beam="1">  1        2 0.99080450E+00 0.14962896E+02</pdfrwt>
<pdfrwt beam="2">  1       -2 0.99597334E+00 0.14962896E+02</pdfrwt>
<totfact>-0.15636931E-13</totfact>
</mgrwt>
</event>
<event>
 4    1 -0.4882314E-019  0.1493756E+02  0.7818608E-02  0.1869980E+00
         -2   -1    0    0    0  501 -0.00000000000E+00  0.00000000000E+00  0.11976606054E+03  0.11976606057E+03  0.25500000000E-02 0. -1.
          2   -1    0    0  501    0  0.00000000000E+00 -0.00000000000E+00 -0.46575990537E+00  0.46576688584E+00  0.25500000000E-02 0.  1.
         31    1    1    2    0    0  0.36957510404E+00  0.14262916366E+00  0.56362906491E+02  0.56854138662E+02  0.74470750000E+01 0.  1.
        -31    1    1    2    0    0 -0.36957510404E+00 -0.14262916366E+00  0.62937394146E+02  0.63377688793E+02  0.74470750000E+01 0. -1.
<mgrwt>
<rscale>  0 0.14937557E+02</rscale>
<asrwt>0</asrwt>
<pdfrwt beam="2">  1        2 0.98925181E+00 0.14937557E+02</pdfrwt>
<pdfrwt beam="1">  1       -2 0.99416087E+00 0.14937557E+02</pdfrwt>
<totfact>-0.19030893E-13</totfact>
</mgrwt>
</event>
<event>
 4    1  0.4882314E-019  0.1493184E+02  0.7818608E-02  0.1870156E+00
         -2   -1    0    0    0  501 -0.00000000000E+00  0.00000000000E+00  0.11851086361E+03  0.11851086364E+03  0.25500000000E-02 0.  1.
          2   -1    0    0  501    0  0.00000000000E+00 -0.00000000000E+00 -0.47033279320E+00  0.47033970581E+00  0.25500000000E-02 0. -1.
         31    1    1    2    0    0  0.32361652560E-01 -0.45824273550E+00  0.56912075010E+02  0.57399078752E+02  0.74470750000E+01 0. -1.
        -31    1    1    2    0    0 -0.32361652560E-01  0.45824273550E+00  0.61128455807E+02  0.61582124591E+02  0.74470750000E+01 0. -1.
<mgrwt>
<rscale>  0 0.14931840E+02</rscale>
<asrwt>0</asrwt>
<pdfrwt beam="2">  1        2 0.99888488E+00 0.14931840E+02</pdfrwt>
<pdfrwt beam="1">  1       -2 0.98381984E+00 0.14931840E+02</pdfrwt>
<totfact> 0.22275161E-13</totfact>
</mgrwt>
</event>
<event>
 4    1  0.4882314E-019  0.1490520E+02  0.7818608E-02  0.1870975E+00
         -2   -1    0    0    0  501 -0.00000000000E+00  0.00000000000E+00  0.11902909557E+03  0.11902909560E+03  0.25500000000E-02 0.  1.
          2   -1    0    0  501    0  0.00000000000E+00 -0.00000000000E+00 -0.46661574204E+00  0.46662270971E+00  0.25500000000E-02 0. -1.
         31    1    1    2    0    0 -0.11324123085E+00 -0.32558560405E-01  0.57183621169E+02  0.57666622406E+02  0.74470750000E+01 0. -1.
        -31    1    1    2    0    0  0.11324123085E+00  0.32558560405E-01  0.61378858663E+02  0.61829095905E+02  0.74470750000E+01 0.  1.
<mgrwt>
<rscale>  0 0.14905203E+02</rscale>
<asrwt>0</asrwt>
<pdfrwt beam="2">  1        2 0.99103867E+00 0.14905203E+02</pdfrwt>
<pdfrwt beam="1">  1       -2 0.98807421E+00 0.14905203E+02</pdfrwt>
<totfact> 0.19799296E-13</totfact>
</mgrwt>
</event>
<event>
 4    1 -0.4882314E-019  0.1496465E+02  0.7818608E-02  0.1869149E+00
         -2   -1    0    0    0  501 -0.00000000000E+00  0.00000000000E+00  0.12004555510E+03  0.12004555513E+03  0.25500000000E-02 0. -1.
          2   -1    0    0  501    0  0.00000000000E+00 -0.00000000000E+00 -0.46636281022E+00  0.46636978167E+00  0.25500000000E-02 0.  1.
         31    1    1    2    0    0 -0.35834652869E+00 -0.91004521567E-01  0.64816076201E+02  0.65243538792E+02  0.74470750000E+01 0. -1.
        -31    1    1    2    0    0  0.35834652869E+00  0.91004521567E-01  0.54763116092E+02  0.55268386119E+02  0.74470750000E+01 0.  1.
<mgrwt>
<rscale>  0 0.14964652E+02</rscale>
<asrwt>0</asrwt>
<pdfrwt beam="2">  1        2 0.99053631E+00 0.14964652E+02</pdfrwt>
<pdfrwt beam="1">  1       -2 0.99647691E+00 0.14964652E+02</pdfrwt>
<totfact>-0.14996345E-13</totfact>
</mgrwt>
</event>
<event>
 4    1 -0.4882314E-019  0.1493938E+02  0.7818608E-02  0.1869924E+00
         -2   -1    0    0    0  501 -0.00000000000E+00  0.00000000000E+00  0.12034863881E+03  0.12034863884E+03  0.25500000000E-02 0.  1.
          2   -1    0    0  501    0  0.00000000000E+00 -0.00000000000E+00 -0.46361828688E+00  0.46362529960E+00  0.25500000000E-02 0. -1.
         31    1    1    2    0    0  0.23181624877E+00  0.50884219021E+00  0.58672341993E+02  0.59145712440E+02  0.74470750000E+01 0. -1.
        -31    1    1    2    0    0 -0.23181624877E+00 -0.50884219021E+00  0.61212678532E+02  0.61666551698E+02  0.74470750000E+01 0. -1.
<mgrwt>
<rscale>  0 0.14939378E+02</rscale>
<asrwt>0</asrwt>
<pdfrwt beam="2">  1        2 0.98473910E+00 0.14939378E+02</pdfrwt>
<pdfrwt beam="1">  1       -2 0.99896033E+00 0.14939378E+02</pdfrwt>
<totfact>-0.12200616E-13</totfact>
</mgrwt>
</event>
<event>
 4    1  0.4882314E-019  0.1494316E+02  0.7818608E-02  0.1869808E+00
          2   -1    0    0  501    0  0.00000000000E+00  0.00000000000E+00  0.11986488412E+03  0.11986488415E+03  0.25500000000E-02 0.  1.
         -2   -1    0    0    0  501 -0.00000000000E+00 -0.00000000000E+00 -0.46572480916E+00  0.46573179016E+00  0.25500000000E-02 0. -1.
         31    1    1    2    0    0 -0.42076119194E+00  0.41201271543E+00  0.60802263122E+02  0.61259455770E+02  0.74470750000E+01 0. -1.
        -31    1    1    2    0    0  0.42076119194E+00 -0.41201271543E+00  0.58596896193E+02  0.59071160172E+02  0.74470750000E+01 0.  1.
<mgrwt>
<rscale>  0 0.14943155E+02</rscale>
<asrwt>0</asrwt>
<pdfrwt beam="1">  1        2 0.99497772E+00 0.14943155E+02</pdfrwt>
<pdfrwt beam="2">  1       -2 0.98918072E+00 0.14943155E+02</pdfrwt>
<totfact> 0.59942791E-14</totfact>
</mgrwt>
</event>
<event>
 4    1 -0.4882314E-019  0.1501884E+02  0.7818608E-02  0.1867494E+00
          2   -1    0    0  501    0  0.00000000000E+00  0.00000000000E+00  0.11993532989E+03  0.11993532992E+03  0.25500000000E-02 0.  1.
         -2   -1    0    0    0  501 -0.00000000000E+00 -0.00000000000E+00 -0.47017838069E+00  0.47018529557E+00  0.25500000000E-02 0. -1.
         31    1    1    2    0    0  0.24650153448E+00  0.30185590138E+00  0.52649412777E+02  0.53174913934E+02  0.74470750000E+01 0. -1.
        -31    1    1    2    0    0 -0.24650153448E+00 -0.30185590138E+00  0.66815738732E+02  0.67230601280E+02  0.74470750000E+01 0.  1.
<mgrwt>
<rscale>  0 0.15018844E+02</rscale>
<asrwt>0</asrwt>
<pdfrwt beam="1">  1        2 0.99559704E+00 0.15018844E+02</pdfrwt>
<pdfrwt beam="2">  1       -2 0.99860511E+00 0.15018844E+02</pdfrwt>
<totfact>-0.48895442E-14</totfact>
</mgrwt>
</event>
<event>
 4    1 -0.4882314E-019  0.1493541E+02  0.7818608E-02  0.1870046E+00
         -2   -1    0    0    0  501 -0.00000000000E+00  0.00000000000E+00  0.11978520969E+03  0.11978520971E+03  0.25500000000E-02 0.  1.
          2   -1    0    0  501    0  0.00000000000E+00 -0.00000000000E+00 -0.46555136979E+00  0.46555835339E+00  0.25500000000E-02 0. -1.
         31    1    1    2    0    0  0.43959670908E+00  0.32407954644E+00  0.60440070652E+02  0.60899584065E+02  0.74470750000E+01 0. -1.
        -31    1    1    2    0    0 -0.43959670908E+00 -0.32407954644E+00  0.58879587665E+02  0.59351184003E+02  0.74470750000E+01 0. -1.
<mgrwt>
<rscale>  0 0.14935406E+02</rscale>
<asrwt>0</asrwt>
<pdfrwt beam="2">  1        2 0.98881122E+00 0.14935406E+02</pdfrwt>
<pdfrwt beam="1">  1       -2 0.99431749E+00 0.14935406E+02</pdfrwt>
<totfact>-0.20123510E-13</totfact>
</mgrwt>
</event>
<event>
 4    1 -0.4882314E-019  0.1494387E+02  0.7818608E-02  0.1869786E+00
         -2   -1    0    0    0  501 -0.00000000000E+00  0.00000000000E+00  0.12024426969E+03  0.12024426972E+03  0.25500000000E-02 0. -1.
          2   -1    0    0  501    0  0.00000000000E+00 -0.00000000000E+00 -0.46429996483E+00  0.46430696725E+00  0.25500000000E-02 0.  1.
         31    1    1    2    0    0 -0.26900996802E-01  0.30653563220E+00  0.64135232429E+02  0.64566877364E+02  0.74470750000E+01 0. -1.
        -31    1    1    2    0    0  0.26900996802E-01 -0.30653563220E+00  0.55644737297E+02  0.56141699321E+02  0.74470750000E+01 0.  1.
<mgrwt>
<rscale>  0 0.14943873E+02</rscale>
<asrwt>0</asrwt>
<pdfrwt beam="2">  1        2 0.98617813E+00 0.14943873E+02</pdfrwt>
<pdfrwt beam="1">  1       -2 0.99810297E+00 0.14943873E+02</pdfrwt>
<totfact>-0.16419231E-13</totfact>
</mgrwt>
</event>
<event>
 4    1  0.4882314E-019  0.1490449E+02  0.7818608E-02  0.1870997E+00
          2   -1    0    0  501    0  0.00000000000E+00  0.00000000000E+00  0.12030775451E+03  0.12030775454E+03  0.25500000000E-02 0. -1.
         -2   -1    0    0    0  501 -0.00000000000E+00 -0.00000000000E+00 -0.46161207405E+00  0.46161911725E+00  0.25500000000E-02 0.  1.
         31    1    1    2    0    0 -0.25316170758E+00  0.11352027842E+00  0.59874957355E+02  0.60336940774E+02  0.74470750000E+01 0.  1.
        -31    1    1    2    0    0  0.25316170758E+00 -0.11352027842E+00  0.59971185083E+02  0.60432432882E+02  0.74470750000E+01 0.  1.
<mgrwt>
<rscale>  0 0.14904488E+02</rscale>
<asrwt>0</asrwt>
<pdfrwt beam="1">  1        2 0.99860568E+00 0.14904488E+02</pdfrwt>
<pdfrwt beam="2">  1       -2 0.98049292E+00 0.14904488E+02</pdfrwt>
<totfact> 0.53220931E-13</totfact>
</mgrwt>
</event>
<event>
 4    1 -0.4882314E-019  0.1490000E+02  0.7818608E-02  0.1871136E+00
         -2   -1    0    0    0  501 -0.00000000000E+00  0.00000000000E+00  0.12014471388E+03  0.12014471391E+03  0.25500000000E-02 0.  1.
          2   -1    0    0  501    0  0.00000000000E+00 -0.00000000000E+00 -0.46196006459E+00  0.46196710248E+00  0.25500000000E-02 0. -1.
         31    1    1    2    0    0 -0.18843767926E+00 -0.39072384472E-01  0.60495190720E+02  0.60952145670E+02  0.74470750000E+01 0. -1.
        -31    1    1    2    0    0  0.18843767926E+00  0.39072384472E-01  0.59187563098E+02  0.59654535342E+02  0.74470750000E+01 0. -1.
<mgrwt>
<rscale>  0 0.14899998E+02</rscale>
<asrwt>0</asrwt>
<pdfrwt beam="2">  1        2 0.98122414E+00 0.14899998E+02</pdfrwt>
<pdfrwt beam="1">  1       -2 0.99726042E+00 0.14899998E+02</pdfrwt>
<totfact>-0.49232218E-13</totfact>
</mgrwt>
</event>
<event>
 4    1 -0.4882314E-019  0.1494566E+02  0.7818608E-02  0.1869731E+00
         -2   -1    0    0    0  501 -0.00000000000E+00  0.00000000000E+00  0.12031670524E+03  0.12031670527E+03  0.25500000000E-02 0. -1.
          2   -1    0    0  501    0  0.00000000000E+00 -0.00000000000E+00 -0.46413131395E+00  0.46413831892E+00  0.25500000000E-02 0.  1.
         31    1    1    2    0    0  0.54508922725E+00 -0.15434351473E+00  0.61959588267E+02  0.62408096017E+02  0.74470750000E+01 0.  1.
        -31    1    1    2    0    0 -0.54508922725E+00  0.15434351473E+00  0.57892985664E+02  0.58372747574E+02  0.74470750000E+01 0.  1.
<mgrwt>
<rscale>  0 0.14945658E+02</rscale>
<asrwt>0</asrwt>
<pdfrwt beam="2">  1        2 0.98582358E+00 0.14945658E+02</pdfrwt>
<pdfrwt beam="1">  1       -2 0.99870052E+00 0.14945658E+02</pdfrwt>
<totfact>-0.12543105E-13</totfact>
</mgrwt>
</event>
<event>
 4    1  0.4882314E-019  0.1496248E+02  0.7818608E-02  0.1869215E+00
         -2   -1    0    0    0  501 -0.00000000000E+00  0.00000000000E+00  0.11912176419E+03  0.11912176422E+03  0.25500000000E-02 0. -1.
          2   -1    0    0  501    0  0.00000000000E+00 -0.00000000000E+00 -0.46984338295E+00  0.46985030276E+00  0.25500000000E-02 0.  1.
         31    1    1    2    0    0  0.57438766760E+00  0.42373922548E+00  0.59519427967E+02  0.59987754648E+02  0.74470750000E+01 0. -1.
        -31    1    1    2    0    0 -0.57438766760E+00 -0.42373922548E+00  0.59132492840E+02  0.59603859872E+02  0.74470750000E+01 0. -1.
<mgrwt>
<rscale>  0 0.14962485E+02</rscale>
<asrwt>0</asrwt>
<pdfrwt beam="2">  1        2 0.99786981E+00 0.14962485E+02</pdfrwt>
<pdfrwt beam="1">  1       -2 0.98886714E+00 0.14962485E+02</pdfrwt>
<totfact> 0.47331104E-14</totfact>
</mgrwt>
</event>
<event>
 4    1 -0.4882314E-019  0.1494666E+02  0.7818608E-02  0.1869701E+00
          2   -1    0    0  501    0  0.00000000000E+00  0.00000000000E+00  0.11889649674E+03  0.11889649676E+03  0.25500000000E-02 0. -1.
         -2   -1    0    0    0  501 -0.00000000000E+00 -0.00000000000E+00 -0.46973828650E+00  0.46974520785E+00  0.25500000000E-02 0.  1.
         31    1    1    2    0    0  0.13078580675E+00 -0.33583604924E+00  0.55126885225E+02  0.55628790131E+02  0.74470750000E+01 0.  1.
        -31    1    1    2    0    0 -0.13078580675E+00  0.33583604924E+00  0.63299873224E+02  0.63737451840E+02  0.74470750000E+01 0. -1.
<mgrwt>
<rscale>  0 0.14946659E+02</rscale>
<asrwt>0</asrwt>
<pdfrwt beam="1">  1        2 0.98700360E+00 0.14946659E+02</pdfrwt>
<pdfrwt beam="2">  1       -2 0.99764006E+00 0.14946659E+02</pdfrwt>
<totfact>-0.17270132E-13</totfact>
</mgrwt>
</event>
<event>
 4    1 -0.4882314E-019  0.1494840E+02  0.7818608E-02  0.1869647E+00
          2   -1    0    0  501    0  0.00000000000E+00  0.00000000000E+00  0.11931734090E+03  0.11931734093E+03  0.25500000000E-02 0. -1.
         -2   -1    0    0    0  501 -0.00000000000E+00 -0.00000000000E+00 -0.46819064016E+00  0.46819758439E+00  0.25500000000E-02 0.  1.
         31    1    1    2    0    0 -0.18807890443E+00  0.42335120314E+00  0.62918890626E+02  0.63359768968E+02  0.74470750000E+01 0. -1.
        -31    1    1    2    0    0  0.18807890443E+00 -0.42335120314E+00  0.55930259632E+02  0.56425769543E+02  0.74470750000E+01 0.  1.
<mgrwt>
<rscale>  0 0.14948402E+02</rscale>
<asrwt>0</asrwt>
<pdfrwt beam="1">  1        2 0.99047064E+00 0.14948402E+02</pdfrwt>
<pdfrwt beam="2">  1       -2 0.99437983E+00 0.14948402E+02</pdfrwt>
<totfact>-0.17046852E-13</totfact>
</mgrwt>
</event>
<event>
 4    1 -0.4882314E-019  0.1500197E+02  0.7818608E-02  0.1868009E+00
         -2   -1    0    0    0  501 -0.00000000000E+00  0.00000000000E+00  0.12033417867E+03  0.12033417870E+03  0.25500000000E-02 0.  1.
          2   -1    0    0  501    0  0.00000000000E+00 -0.00000000000E+00 -0.46756727672E+00  0.46757423022E+00  0.25500000000E-02 0. -1.
         31    1    1    2    0    0 -0.64598259021E-01  0.78268795039E+00  0.63434444268E+02  0.63874912282E+02  0.74470750000E+01 0. -1.
        -31    1    1    2    0    0  0.64598259021E-01 -0.78268795039E+00  0.56432167128E+02  0.56926840649E+02  0.74470750000E+01 0. -1.
<mgrwt>
<rscale>  0 0.15001966E+02</rscale>
<asrwt>0</asrwt>
<pdfrwt beam="2">  1        2 0.99309383E+00 0.15001966E+02</pdfrwt>
<pdfrwt beam="1">  1       -2 0.99887341E+00 0.15001966E+02</pdfrwt>
<totfact>-0.50728469E-14</totfact>
</mgrwt>
</event>
<event>
 4    1 -0.4882314E-019  0.1490038E+02  0.7818608E-02  0.1871124E+00
         -2   -1    0    0    0  501 -0.00000000000E+00  0.00000000000E+00  0.12019517534E+03  0.12019517537E+03  0.25500000000E-02 0.  1.
          2   -1    0    0  501    0  0.00000000000E+00 -0.00000000000E+00 -0.46178953544E+00  0.46179657594E+00  0.25500000000E-02 0. -1.
         31    1    1    2    0    0 -0.12141526082E+00 -0.95448769723E-01  0.61081933372E+02  0.61534424208E+02  0.74470750000E+01 0.  1.
        -31    1    1    2    0    0  0.12141526082E+00  0.95448769723E-01  0.58651452433E+02  0.59122547735E+02  0.74470750000E+01 0. -1.
<mgrwt>
<rscale>  0 0.14900376E+02</rscale>
<asrwt>0</asrwt>
<pdfrwt beam="2">  1        2 0.98086490E+00 0.14900376E+02</pdfrwt>
<pdfrwt beam="1">  1       -2 0.99767626E+00 0.14900376E+02</pdfrwt>
<totfact>-0.46367446E-13</totfact>
</mgrwt>
</event>
<event>
 4    1 -0.4882314E-019  0.1493810E+02  0.7818608E-02  0.1869963E+00
         -2   -1    0    0    0  501 -0.00000000000E+00  0.00000000000E+00  0.12032807434E+03  0.12032807437E+03  0.25500000000E-02 0.  1.
          2   -1    0    0  501    0  0.00000000000E+00 -0.00000000000E+00 -0.46361809960E+00  0.46362511232E+00  0.25500000000E-02 0. -1.
         31    1    1    2    0    0 -0.10462131703E+00 -0.45200642504E+00  0.57219848129E+02  0.57704291013E+02  0.74470750000E+01 0. -1.
        -31    1    1    2    0    0  0.10462131703E+00  0.45200642504E+00  0.62644608112E+02  0.63087408466E+02  0.74470750000E+01 0.  1.
<mgrwt>
<rscale>  0 0.14938099E+02</rscale>
<asrwt>0</asrwt>
<pdfrwt beam="2">  1        2 0.98473806E+00 0.14938099E+02</pdfrwt>
<pdfrwt beam="1">  1       -2 0.99879028E+00 0.14938099E+02</pdfrwt>
<totfact>-0.13996537E-13</totfact>
</mgrwt>
</event>
<event>
 4    1  0.4882314E-019  0.1495444E+02  0.7818608E-02  0.1869462E+00
         -2   -1    0    0    0  501 -0.00000000000E+00  0.00000000000E+00  0.11879887086E+03  0.11879887089E+03  0.25500000000E-02 0. -1.
          2   -1    0    0  501    0  0.00000000000E+00 -0.00000000000E+00 -0.47061395044E+00  0.47062085892E+00  0.25500000000E-02 0.  1.
         31    1    1    2    0    0 -0.16906022176E-01 -0.61991452714E+00  0.61202396014E+02  0.61656928108E+02  0.74470750000E+01 0. -1.
        -31    1    1    2    0    0  0.16906022176E-01  0.61991452714E+00  0.57125860897E+02  0.57612563639E+02  0.74470750000E+01 0.  1.
<mgrwt>
<rscale>  0 0.14954440E+02</rscale>
<asrwt>0</asrwt>
<pdfrwt beam="2">  1        2 0.99948921E+00 0.14954440E+02</pdfrwt>
<pdfrwt beam="1">  1       -2 0.98620361E+00 0.14954440E+02</pdfrwt>
<totfact> 0.55038297E-14</totfact>
</mgrwt>
</event>
<event>
 4    1  0.4882314E-019  0.1490167E+02  0.7818608E-02  0.1871084E+00
          2   -1    0    0  501    0  0.00000000000E+00  0.00000000000E+00  0.11957153114E+03  0.11957153117E+03  0.25500000000E-02 0. -1.
         -2   -1    0    0    0  501 -0.00000000000E+00 -0.00000000000E+00 -0.46427851154E+00  0.46428551429E+00  0.25500000000E-02 0.  1.
         31    1    1    2    0    0 -0.19806856087E+00 -0.92075023378E-01  0.60286578339E+02  0.60745190450E+02  0.74470750000E+01 0. -1.
        -31    1    1    2    0    0  0.19806856087E+00  0.92075023378E-01  0.58820674293E+02  0.59290626235E+02  0.74470750000E+01 0.  1.
<mgrwt>
<rscale>  0 0.14901666E+02</rscale>
<asrwt>0</asrwt>
<pdfrwt beam="1">  1        2 0.99254012E+00 0.14901666E+02</pdfrwt>
<pdfrwt beam="2">  1       -2 0.98611140E+00 0.14901666E+02</pdfrwt>
<totfact> 0.41915306E-13</totfact>
</mgrwt>
</event>
<event>
 4    1 -0.4882314E-019  0.1493796E+02  0.7818608E-02  0.1869968E+00
         -2   -1    0    0    0  501 -0.00000000000E+00  0.00000000000E+00  0.12029223592E+03  0.12029223594E+03  0.25500000000E-02 0.  1.
          2   -1    0    0  501    0  0.00000000000E+00 -0.00000000000E+00 -0.46374763893E+00  0.46375464970E+00  0.25500000000E-02 0. -1.
         31    1    1    2    0    0 -0.28974173592E+00  0.47786298847E+00  0.58942973901E+02  0.59414185189E+02  0.74470750000E+01 0.  1.
        -31    1    1    2    0    0  0.28974173592E+00 -0.47786298847E+00  0.60885514377E+02  0.61341805405E+02  0.74470750000E+01 0.  1.
<mgrwt>
<rscale>  0 0.14937960E+02</rscale>
<asrwt>0</asrwt>
<pdfrwt beam="2">  1        2 0.98501102E+00 0.14937960E+02</pdfrwt>
<pdfrwt beam="1">  1       -2 0.99849502E+00 0.14937960E+02</pdfrwt>
<totfact>-0.16231011E-13</totfact>
</mgrwt>
</event>
<event>
 4    1 -0.4882314E-019  0.1492393E+02  0.7818608E-02  0.1870399E+00
         -2   -1    0    0    0  501 -0.00000000000E+00  0.00000000000E+00  0.11981549794E+03  0.11981549797E+03  0.25500000000E-02 0.  1.
          2   -1    0    0  501    0  0.00000000000E+00 -0.00000000000E+00 -0.46471878719E+00  0.46472578330E+00  0.25500000000E-02 0. -1.
         31    1    1    2    0    0 -0.38914502754E+00 -0.21033067507E+00  0.60983332831E+02  0.61437948225E+02  0.74470750000E+01 0.  1.
        -31    1    1    2    0    0  0.38914502754E+00  0.21033067507E+00  0.58367446322E+02  0.58842275526E+02  0.74470750000E+01 0. -1.
<mgrwt>
<rscale>  0 0.14923932E+02</rscale>
<asrwt>0</asrwt>
<pdfrwt beam="2">  1        2 0.98705068E+00 0.14923932E+02</pdfrwt>
<pdfrwt beam="1">  1       -2 0.99456105E+00 0.14923932E+02</pdfrwt>
<totfact>-0.25399107E-13</totfact>
</mgrwt>
</event>
<event>
 4    1 -0.4882314E-019  0.1494797E+02  0.7818608E-02  0.1869660E+00
          2   -1    0    0  501    0  0.00000000000E+00  0.00000000000E+00  0.11925451286E+03  0.11925451288E+03  0.25500000000E-02 0. -1.
         -2   -1    0    0    0  501 -0.00000000000E+00 -0.00000000000E+00 -0.46841029499E+00  0.46841723597E+00  0.25500000000E-02 0.  1.
         31    1    1    2    0    0 -0.58822771641E+00  0.21574321982E+00  0.60151851973E+02  0.60614328165E+02  0.74470750000E+01 0. -1.
        -31    1    1    2    0    0  0.58822771641E+00 -0.21574321982E+00  0.58634250588E+02  0.59108601954E+02  0.74470750000E+01 0. -1.
<mgrwt>
<rscale>  0 0.14947971E+02</rscale>
<asrwt>0</asrwt>
<pdfrwt beam="1">  1        2 0.98995295E+00 0.14947971E+02</pdfrwt>
<pdfrwt beam="2">  1       -2 0.99484247E+00 0.14947971E+02</pdfrwt>
<totfact>-0.17977243E-13</totfact>
</mgrwt>
</event>
<event>
 4    1  0.4882314E-019  0.1492845E+02  0.7818608E-02  0.1870260E+00
          2   -1    0    0  501    0  0.00000000000E+00  0.00000000000E+00  0.11992255824E+03  0.11992255827E+03  0.25500000000E-02 0. -1.
         -2   -1    0    0    0  501 -0.00000000000E+00 -0.00000000000E+00 -0.46458538323E+00  0.46459238136E+00  0.25500000000E-02 0.  1.
         31    1    1    2    0    0  0.33244979099E+00  0.18219319755E+00  0.62428378211E+02  0.62872132534E+02  0.74470750000E+01 0. -1.
        -31    1    1    2    0    0 -0.33244979099E+00 -0.18219319755E+00  0.57029594645E+02  0.57515018114E+02  0.74470750000E+01 0. -1.
<mgrwt>
<rscale>  0 0.14928455E+02</rscale>
<asrwt>0</asrwt>
<pdfrwt beam="1">  1        2 0.99544519E+00 0.14928455E+02</pdfrwt>
<pdfrwt beam="2">  1       -2 0.98677183E+00 0.14928455E+02</pdfrwt>
<totfact> 0.25660739E-13</totfact>
</mgrwt>
</event>
<event>
 4    1 -0.4882314E-019  0.1493229E+02  0.7818608E-02  0.1870142E+00
         -2   -1    0    0    0  501 -0.00000000000E+00  0.00000000000E+00  0.12009568119E+03  0.12009568122E+03  0.25500000000E-02 0. -1.
          2   -1    0    0  501    0  0.00000000000E+00 -0.00000000000E+00 -0.46415395665E+00  0.46416096128E+00  0.25500000000E-02 0.  1.
         31    1    1    2    0    0 -0.41721287823E+00  0.12576045888E+00  0.62297723857E+02  0.62742770150E+02  0.74470750000E+01 0. -1.
        -31    1    1    2    0    0  0.41721287823E+00 -0.12576045888E+00  0.57333803378E+02  0.57817072030E+02  0.74470750000E+01 0.  1.
<mgrwt>
<rscale>  0 0.14932288E+02</rscale>
<asrwt>0</asrwt>
<pdfrwt beam="2">  1        2 0.98586452E+00 0.14932288E+02</pdfrwt>
<pdfrwt beam="1">  1       -2 0.99687313E+00 0.14932288E+02</pdfrwt>
<totfact>-0.24886572E-13</totfact>
</mgrwt>
</event>
<event>
 4    1 -0.4882314E-019  0.1499003E+02  0.7818608E-02  0.1868373E+00
         -2   -1    0    0    0  501 -0.00000000000E+00  0.00000000000E+00  0.11967590106E+03  0.11967590109E+03  0.25500000000E-02 0.  1.
          2   -1    0    0  501    0  0.00000000000E+00 -0.00000000000E+00 -0.46939109476E+00  0.46939802124E+00  0.25500000000E-02 0. -1.
         31    1    1    2    0    0 -0.51855662746E+00  0.15643219852E+00  0.54390894166E+02  0.54901016988E+02  0.74470750000E+01 0. -1.
        -31    1    1    2    0    0  0.51855662746E+00 -0.15643219852E+00  0.64815615802E+02  0.65244282124E+02  0.74470750000E+01 0.  1.
<mgrwt>
<rscale>  0 0.14990026E+02</rscale>
<asrwt>0</asrwt>
<pdfrwt beam="2">  1        2 0.99693113E+00 0.14990026E+02</pdfrwt>
<pdfrwt beam="1">  1       -2 0.99344539E+00 0.14990026E+02</pdfrwt>
<totfact>-0.83005126E-14</totfact>
</mgrwt>
</event>
<event>
 4    1  0.4882314E-019  0.1490410E+02  0.7818608E-02  0.1871009E+00
         -2   -1    0    0    0  501 -0.00000000000E+00  0.00000000000E+00  0.11834527102E+03  0.11834527105E+03  0.25500000000E-02 0.  1.
          2   -1    0    0  501    0  0.00000000000E+00 -0.00000000000E+00 -0.46924234643E+00  0.46924927510E+00  0.25500000000E-02 0. -1.
         31    1    1    2    0    0 -0.26190860034E+00 -0.66305572605E-01  0.58672738401E+02  0.59144079586E+02  0.74470750000E+01 0.  1.
        -31    1    1    2    0    0  0.26190860034E+00  0.66305572605E-01  0.59203290271E+02  0.59670440735E+02  0.74470750000E+01 0.  1.
<mgrwt>
<rscale>  0 0.14904097E+02</rscale>
<asrwt>0</asrwt>
<pdfrwt beam="2">  1        2 0.99657268E+00 0.14904097E+02</pdfrwt>
<pdfrwt beam="1">  1       -2 0.98244158E+00 0.14904097E+02</pdfrwt>
<totfact> 0.72262057E-13</totfact>
</mgrwt>
</event>
<event>
 4    1 -0.4882314E-019  0.1497098E+02  0.7818608E-02  0.1868955E+00
         -2   -1    0    0    0  501 -0.00000000000E+00  0.00000000000E+00  0.11995769953E+03  0.11995769956E+03  0.25500000000E-02 0.  1.
          2   -1    0    0  501    0  0.00000000000E+00 -0.00000000000E+00 -0.46709931863E+00  0.46710627909E+00  0.25500000000E-02 0. -1.
         31    1    1    2    0    0 -0.75519859975E+00 -0.17138157057E-01  0.60188499474E+02  0.60652164129E+02  0.74470750000E+01 0. -1.
        -31    1    1    2    0    0  0.75519859975E+00  0.17138157057E-01  0.59302100739E+02  0.59772641708E+02  0.74470750000E+01 0. -1.
<mgrwt>
<rscale>  0 0.14970983E+02</rscale>
<asrwt>0</asrwt>
<pdfrwt beam="2">  1        2 0.99209172E+00 0.14970983E+02</pdfrwt>
<pdfrwt beam="1">  1       -2 0.99575655E+00 0.14970983E+02</pdfrwt>
<totfact>-0.14443884E-13</totfact>
</mgrwt>
</event>
<event>
 4    1 -0.4882314E-019  0.1493060E+02  0.7818608E-02  0.1870194E+00
         -2   -1    0    0    0  501 -0.00000000000E+00  0.00000000000E+00  0.12028680376E+03  0.12028680379E+03  0.25500000000E-02 0.  1.
          2   -1    0    0  501    0  0.00000000000E+00 -0.00000000000E+00 -0.46331139875E+00  0.46331841611E+00  0.25500000000E-02 0. -1.
         31    1    1    2    0    0  0.24544458894E+00 -0.45798919639E+00  0.59573482791E+02  0.60039393526E+02  0.74470750000E+01 0. -1.
        -31    1    1    2    0    0 -0.24544458894E+00  0.45798919639E+00  0.60250009569E+02  0.60710728675E+02  0.74470750000E+01 0. -1.
<mgrwt>
<rscale>  0 0.14930596E+02</rscale>
<asrwt>0</asrwt>
<pdfrwt beam="2">  1        2 0.98408783E+00 0.14930596E+02</pdfrwt>
<pdfrwt beam="1">  1       -2 0.99844649E+00 0.14930596E+02</pdfrwt>
<totfact>-0.19416052E-13</totfact>
</mgrwt>
</event>
<event>
 4    1 -0.4882314E-019  0.1491513E+02  0.7818608E-02  0.1870669E+00
          2   -1    0    0  501    0  0.00000000000E+00  0.00000000000E+00  0.11830643030E+03  0.11830643033E+03  0.25500000000E-02 0.  1.
         -2   -1    0    0    0  501 -0.00000000000E+00 -0.00000000000E+00 -0.47009159992E+00  0.47009851607E+00  0.25500000000E-02 0. -1.
         31    1    1    2    0    0  0.31306827297E+00 -0.19877971842E+00  0.57825680990E+02  0.58304423787E+02  0.74470750000E+01 0. -1.
        -31    1    1    2    0    0 -0.31306827297E+00  0.19877971842E+00  0.60010657710E+02  0.60472105056E+02  0.74470750000E+01 0.  1.
<mgrwt>
<rscale>  0 0.14915129E+02</rscale>
<asrwt>0</asrwt>
<pdfrwt beam="1">  1        2 0.98212744E+00 0.14915129E+02</pdfrwt>
<pdfrwt beam="2">  1       -2 0.99836786E+00 0.14915129E+02</pdfrwt>
<totfact>-0.28181162E-13</totfact>
</mgrwt>
</event>
<event>
 4    1 -0.4882314E-019  0.1501484E+02  0.7818608E-02  0.1867616E+00
          2   -1    0    0  501    0  0.00000000000E+00  0.00000000000E+00  0.12026059792E+03  0.12026059795E+03  0.25500000000E-02 0. -1.
         -2   -1    0    0    0  501 -0.00000000000E+00 -0.00000000000E+00 -0.46865689623E+00  0.46866383356E+00  0.25500000000E-02 0.  1.
         31    1    1    2    0    0  0.50353117059E+00 -0.74046420499E+00  0.57345394470E+02  0.57833857072E+02  0.74470750000E+01 0.  1.
        -31    1    1    2    0    0 -0.50353117059E+00  0.74046420499E+00  0.62446546555E+02  0.62895404709E+02  0.74470750000E+01 0. -1.
<mgrwt>
<rscale>  0 0.15014843E+02</rscale>
<asrwt>0</asrwt>
<pdfrwt beam="1">  1        2 0.99827401E+00 0.15014843E+02</pdfrwt>
<pdfrwt beam="2">  1       -2 0.99539676E+00 0.15014843E+02</pdfrwt>
<totfact>-0.57396065E-14</totfact>
</mgrwt>
</event>
<event>
 4    1  0.4882314E-019  0.1491276E+02  0.7818608E-02  0.1870742E+00
         -2   -1    0    0    0  501 -0.00000000000E+00  0.00000000000E+00  0.11897720101E+03  0.11897720103E+03  0.25500000000E-02 0. -1.
          2   -1    0    0  501    0  0.00000000000E+00 -0.00000000000E+00 -0.46729274919E+00  0.46729970677E+00  0.25500000000E-02 0.  1.
         31    1    1    2    0    0 -0.25068216077E+00  0.25122282723E-01  0.57058499791E+02  0.57542982171E+02  0.74470750000E+01 0. -1.
        -31    1    1    2    0    0  0.25068216077E+00 -0.25122282723E-01  0.61451408467E+02  0.61901518570E+02  0.74470750000E+01 0. -1.
<mgrwt>
<rscale>  0 0.14912760E+02</rscale>
<asrwt>0</asrwt>
<pdfrwt beam="2">  1        2 0.99246922E+00 0.14912760E+02</pdfrwt>
<pdfrwt beam="1">  1       -2 0.98765070E+00 0.14912760E+02</pdfrwt>
<totfact> 0.22381470E-13</totfact>
</mgrwt>
</event>
<event>
 4    1  0.4882314E-019  0.1490649E+02  0.7818608E-02  0.1870936E+00
          2   -1    0    0  501    0  0.00000000000E+00  0.00000000000E+00  0.12037314886E+03  0.12037314889E+03  0.25500000000E-02 0. -1.
         -2   -1    0    0    0  501 -0.00000000000E+00 -0.00000000000E+00 -0.46148503306E+00  0.46149207819E+00  0.25500000000E-02 0.  1.
         31    1    1    2    0    0 -0.73798790112E-01  0.28813028781E+00  0.60431443072E+02  0.60889298757E+02  0.74470750000E+01 0.  1.
        -31    1    1    2    0    0  0.73798790112E-01 -0.28813028781E+00  0.59480220758E+02  0.59945342211E+02  0.74470750000E+01 0. -1.
<mgrwt>
<rscale>  0 0.14906486E+02</rscale>
<asrwt>0</asrwt>
<pdfrwt beam="1">  1        2 0.99914536E+00 0.14906486E+02</pdfrwt>
<pdfrwt beam="2">  1       -2 0.98022615E+00 0.14906486E+02</pdfrwt>
<totfact> 0.36270577E-13</totfact>
</mgrwt>
</event>
<event>
 4    1  0.4882314E-019  0.1490570E+02  0.7818608E-02  0.1870960E+00
         -2   -1    0    0    0  501 -0.00000000000E+00  0.00000000000E+00  0.11877973235E+03  0.11877973237E+03  0.25500000000E-02 0.  1.
          2   -1    0    0  501    0  0.00000000000E+00 -0.00000000000E+00 -0.46762645344E+00  0.46763340605E+00  0.25500000000E-02 0. -1.
         31    1    1    2    0    0 -0.14187391056E+00 -0.13652019528E-01  0.61206964482E+02  0.61658509078E+02  0.74470750000E+01 0.  1.
        -31    1    1    2    0    0  0.14187391056E+00  0.13652019528E-01  0.57105141411E+02  0.57588856702E+02  0.74470750000E+01 0. -1.
<mgrwt>
<rscale>  0 0.14905698E+02</rscale>
<asrwt>0</asrwt>
<pdfrwt beam="2">  1        2 0.99316871E+00 0.14905698E+02</pdfrwt>
<pdfrwt beam="1">  1       -2 0.98602065E+00 0.14905698E+02</pdfrwt>
<totfact> 0.41315011E-13</totfact>
</mgrwt>
</event>
<event>
 4    1 -0.4882314E-019  0.1493131E+02  0.7818608E-02  0.1870172E+00
         -2   -1    0    0    0  501 -0.00000000000E+00  0.00000000000E+00  0.11977693619E+03  0.11977693622E+03  0.25500000000E-02 0. -1.
          2   -1    0    0  501    0  0.00000000000E+00 -0.00000000000E+00 -0.46532846702E+00  0.46533545397E+00  0.25500000000E-02 0.  1.
         31    1    1    2    0    0 -0.28454683993E+00  0.43884328442E+00  0.60136523609E+02  0.60598134857E+02  0.74470750000E+01 0. -1.
        -31    1    1    2    0    0  0.28454683993E+00 -0.43884328442E+00  0.59175084114E+02  0.59644136814E+02  0.74470750000E+01 0. -1.
<mgrwt>
<rscale>  0 0.14931315E+02</rscale>
<asrwt>0</asrwt>
<pdfrwt beam="2">  1        2 0.98833936E+00 0.14931315E+02</pdfrwt>
<pdfrwt beam="1">  1       -2 0.99424723E+00 0.14931315E+02</pdfrwt>
<totfact>-0.21221424E-13</totfact>
</mgrwt>
</event>
<event>
 4    1 -0.4882314E-019  0.1497423E+02  0.7818608E-02  0.1868856E+00
          2   -1    0    0  501    0  0.00000000000E+00  0.00000000000E+00  0.11956394520E+03  0.11956394523E+03  0.25500000000E-02 0. -1.
         -2   -1    0    0    0  501 -0.00000000000E+00 -0.00000000000E+00 -0.46884064063E+00  0.46884757524E+00  0.25500000000E-02 0.  1.
         31    1    1    2    0    0 -0.47903139670E+00  0.58169162943E+00  0.58157015379E+02  0.58636722282E+02  0.74470750000E+01 0.  1.
        -31    1    1    2    0    0  0.47903139670E+00 -0.58169162943E+00  0.60938089180E+02  0.61396070519E+02  0.74470750000E+01 0.  1.
<mgrwt>
<rscale>  0 0.14974225E+02</rscale>
<asrwt>0</asrwt>
<pdfrwt beam="1">  1        2 0.99251511E+00 0.14974225E+02</pdfrwt>
<pdfrwt beam="2">  1       -2 0.99576297E+00 0.14974225E+02</pdfrwt>
<totfact>-0.14002407E-13</totfact>
</mgrwt>
</event>
<event>
 4    1 -0.4882314E-019  0.1495414E+02  0.7818608E-02  0.1869471E+00
         -2   -1    0    0    0  501 -0.00000000000E+00  0.00000000000E+00  0.11977147517E+03  0.11977147520E+03  0.25500000000E-02 0. -1.
          2   -1    0    0  501    0  0.00000000000E+00 -0.00000000000E+00 -0.46677363771E+00  0.46678060303E+00  0.25500000000E-02 0.  1.
         31    1    1    2    0    0 -0.12212101961E+00 -0.17972704455E+00  0.54564278977E+02  0.55070560934E+02  0.74470750000E+01 0.  1.
        -31    1    1    2    0    0  0.12212101961E+00  0.17972704455E+00  0.64740422554E+02  0.65167694864E+02  0.74470750000E+01 0. -1.
<mgrwt>
<rscale>  0 0.14954142E+02</rscale>
<asrwt>0</asrwt>
<pdfrwt beam="2">  1        2 0.99139671E+00 0.14954142E+02</pdfrwt>
<pdfrwt beam="1">  1       -2 0.99421403E+00 0.14954142E+02</pdfrwt>
<totfact>-0.15686749E-13</totfact>
</mgrwt>
</event>
<event>
 4    1  0.4882314E-019  0.1492320E+02  0.7818608E-02  0.1870421E+00
          2   -1    0    0  501    0  0.00000000000E+00  0.00000000000E+00  0.11985514925E+03  0.11985514927E+03  0.25500000000E-02 0.  1.
         -2   -1    0    0    0  501 -0.00000000000E+00 -0.00000000000E+00 -0.46451972483E+00  0.46452672395E+00  0.25500000000E-02 0. -1.
         31    1    1    2    0    0  0.17688928778E+00  0.41185571904E+00  0.58686277954E+02  0.59158592454E+02  0.74470750000E+01 0. -1.
        -31    1    1    2    0    0 -0.17688928778E+00 -0.41185571904E+00  0.60704351567E+02  0.61161083543E+02  0.74470750000E+01 0.  1.
<mgrwt>
<rscale>  0 0.14923204E+02</rscale>
<asrwt>0</asrwt>
<pdfrwt beam="1">  1        2 0.99488726E+00 0.14923204E+02</pdfrwt>
<pdfrwt beam="2">  1       -2 0.98663078E+00 0.14923204E+02</pdfrwt>
<totfact> 0.28801266E-13</totfact>
</mgrwt>
</event>
<event>
 4    1  0.4882314E-019  0.1491998E+02  0.7818608E-02  0.1870520E+00
         -2   -1    0    0    0  501 -0.00000000000E+00  0.00000000000E+00  0.11853195922E+03  0.11853195924E+03  0.25500000000E-02 0.  1.
          2   -1    0    0  501    0  0.00000000000E+00 -0.00000000000E+00 -0.46950247580E+00  0.46950940063E+00  0.25500000000E-02 0. -1.
         31    1    1    2    0    0  0.13130586217E+00 -0.40248097398E+00  0.58111263564E+02  0.58588028737E+02  0.74470750000E+01 0. -1.
        -31    1    1    2    0    0 -0.13130586217E+00  0.40248097398E+00  0.59951193177E+02  0.60413439908E+02  0.74470750000E+01 0.  1.
<mgrwt>
<rscale>  0 0.14919981E+02</rscale>
<asrwt>0</asrwt>
<pdfrwt beam="2">  1        2 0.99712915E+00 0.14919981E+02</pdfrwt>
<pdfrwt beam="1">  1       -2 0.98398740E+00 0.14919981E+02</pdfrwt>
<totfact> 0.45355709E-13</totfact>
</mgrwt>
</event>
<event>
 4    1 -0.4882314E-019  0.1499857E+02  0.7818608E-02  0.1868112E+00
         -2   -1    0    0    0  501 -0.00000000000E+00  0.00000000000E+00  0.12040834551E+03  0.12040834554E+03  0.25500000000E-02 0. -1.
          2   -1    0    0  501    0  0.00000000000E+00 -0.00000000000E+00 -0.46706785460E+00  0.46707481553E+00  0.25500000000E-02 0.  1.
         31    1    1    2    0    0  0.60839188661E+00  0.33822600754E+00  0.64353992675E+02  0.64787188832E+02  0.74470750000E+01 0. -1.
        -31    1    1    2    0    0 -0.60839188661E+00 -0.33822600754E+00  0.55587284979E+02  0.56088231519E+02  0.74470750000E+01 0.  1.
<mgrwt>
<rscale>  0 0.14998572E+02</rscale>
<asrwt>0</asrwt>
<pdfrwt beam="2">  1        2 0.99203955E+00 0.14998572E+02</pdfrwt>
<pdfrwt beam="1">  1       -2 0.99948255E+00 0.14998572E+02</pdfrwt>
<totfact>-0.26393897E-14</totfact>
</mgrwt>
</event>
<event>
 4    1 -0.4882314E-019  0.1497827E+02  0.7818608E-02  0.1868732E+00
          2   -1    0    0  501    0  0.00000000000E+00  0.00000000000E+00  0.11953267597E+03  0.11953267600E+03  0.25500000000E-02 0. -1.
         -2   -1    0    0    0  501 -0.00000000000E+00 -0.00000000000E+00 -0.46921641910E+00  0.46922334815E+00  0.25500000000E-02 0.  1.
         31    1    1    2    0    0 -0.43558278673E+00 -0.64032262727E+00  0.58180615824E+02  0.58660401713E+02  0.74470750000E+01 0.  1.
        -31    1    1    2    0    0  0.43558278673E+00  0.64032262727E+00  0.60882843725E+02  0.61341497630E+02  0.74470750000E+01 0.  1.
<mgrwt>
<rscale>  0 0.14978266E+02</rscale>
<asrwt>0</asrwt>
<pdfrwt beam="1">  1        2 0.99225966E+00 0.14978266E+02</pdfrwt>
<pdfrwt beam="2">  1       -2 0.99655693E+00 0.14978266E+02</pdfrwt>
<totfact>-0.12936386E-13</totfact>
</mgrwt>
</event>
<event>
 4    1 -0.4882314E-019  0.1490878E+02  0.7818608E-02  0.1870865E+00
         -2   -1    0    0    0  501 -0.00000000000E+00  0.00000000000E+00  0.12015517870E+03  0.12015517873E+03  0.25500000000E-02 0. -1.
          2   -1    0    0  501    0  0.00000000000E+00 -0.00000000000E+00 -0.46246445909E+00  0.46247148931E+00  0.25500000000E-02 0.  1.
         31    1    1    2    0    0  0.27624754076E-01  0.30768428818E+00  0.58904026519E+02  0.59373720609E+02  0.74470750000E+01 0. -1.
        -31    1    1    2    0    0 -0.27624754076E-01 -0.30768428818E+00  0.60788687725E+02  0.61243929610E+02  0.74470750000E+01 0. -1.
<mgrwt>
<rscale>  0 0.14908779E+02</rscale>
<asrwt>0</asrwt>
<pdfrwt beam="2">  1        2 0.98229170E+00 0.14908779E+02</pdfrwt>
<pdfrwt beam="1">  1       -2 0.99735112E+00 0.14908779E+02</pdfrwt>
<totfact>-0.40169876E-13</totfact>
</mgrwt>
</event>
<event>
 4    1 -0.4882314E-019  0.1498002E+02  0.7818608E-02  0.1868679E+00
         -2   -1    0    0    0  501 -0.00000000000E+00  0.00000000000E+00  0.12000805771E+03  0.12000805774E+03  0.25500000000E-02 0. -1.
          2   -1    0    0  501    0  0.00000000000E+00 -0.00000000000E+00 -0.46746689691E+00  0.46747385190E+00  0.25500000000E-02 0.  1.
         31    1    1    2    0    0  0.78230559393E+00  0.52588230082E-01  0.58460558549E+02  0.58938193046E+02  0.74470750000E+01 0. -1.
        -31    1    1    2    0    0 -0.78230559393E+00 -0.52588230082E-01  0.61080032263E+02  0.61537338543E+02  0.74470750000E+01 0. -1.
<mgrwt>
<rscale>  0 0.14980015E+02</rscale>
<asrwt>0</asrwt>
<pdfrwt beam="2">  1        2 0.99287101E+00 0.14980015E+02</pdfrwt>
<pdfrwt beam="1">  1       -2 0.99617599E+00 0.14980015E+02</pdfrwt>
<totfact>-0.13074563E-13</totfact>
</mgrwt>
</event>
<event>
 4    1 -0.4882314E-019  0.1492512E+02  0.7818608E-02  0.1870362E+00
          2   -1    0    0  501    0  0.00000000000E+00  0.00000000000E+00  0.11891381626E+03  0.11891381629E+03  0.25500000000E-02 0. -1.
         -2   -1    0    0    0  501 -0.00000000000E+00 -0.00000000000E+00 -0.46831690657E+00  0.46832384894E+00  0.25500000000E-02 0.  1.
         31    1    1    2    0    0 -0.89199484659E-02  0.14693848469E+00  0.55564516057E+02  0.56061537985E+02  0.74470750000E+01 0.  1.
        -31    1    1    2    0    0  0.89199484659E-02 -0.14693848469E+00  0.62880983298E+02  0.63320602154E+02  0.74470750000E+01 0. -1.
<mgrwt>
<rscale>  0 0.14925115E+02</rscale>
<asrwt>0</asrwt>
<pdfrwt beam="1">  1        2 0.98713506E+00 0.14925115E+02</pdfrwt>
<pdfrwt beam="2">  1       -2 0.99463376E+00 0.14925115E+02</pdfrwt>
<totfact>-0.25121548E-13</totfact>
</mgrwt>
</event>
<event>
 4    1  0.4882314E-019  0.1492637E+02  0.7818608E-02  0.1870324E+00
         -2   -1    0    0    0  501 -0.00000000000E+00  0.00000000000E+00  0.11833483541E+03  0.11833483544E+03  0.25500000000E-02 0. -1.
          2   -1    0    0  501    0  0.00000000000E+00 -0.00000000000E+00 -0.47068772925E+00  0.47069463664E+00  0.25500000000E-02 0.  1.
         31    1    1    2    0    0 -0.30955725190E+00 -0.37125707862E+00  0.59577885680E+02  0.60043459641E+02  0.74470750000E+01 0. -1.
        -31    1    1    2    0    0  0.30955725190E+00  0.37125707862E+00  0.58286262006E+02  0.58762070438E+02  0.74470750000E+01 0.  1.
<mgrwt>
<rscale>  0 0.14926375E+02</rscale>
<asrwt>0</asrwt>
<pdfrwt beam="2">  1        2 0.99962981E+00 0.14926375E+02</pdfrwt>
<pdfrwt beam="1">  1       -2 0.98236725E+00 0.14926375E+02</pdfrwt>
<totfact> 0.11094383E-13</totfact>
</mgrwt>
</event>
<event>
 4    1 -0.4882314E-019  0.1496278E+02  0.7818608E-02  0.1869206E+00
          2   -1    0    0  501    0  0.00000000000E+00  0.00000000000E+00  0.11936472843E+03  0.11936472845E+03  0.25500000000E-02 0.  1.
         -2   -1    0    0    0  501 -0.00000000000E+00 -0.00000000000E+00 -0.46890554713E+00  0.46891248077E+00  0.25500000000E-02 0. -1.
         31    1    1    2    0    0  0.43163540433E+00 -0.12250567379E+00  0.54981929123E+02  0.55485788927E+02  0.74470750000E+01 0. -1.
        -31    1    1    2    0    0 -0.43163540433E+00  0.12250567379E+00  0.63913893757E+02  0.64347852007E+02  0.74470750000E+01 0.  1.
<mgrwt>
<rscale>  0 0.14962781E+02</rscale>
<asrwt>0</asrwt>
<pdfrwt beam="1">  1        2 0.99086839E+00 0.14962781E+02</pdfrwt>
<pdfrwt beam="2">  1       -2 0.99589379E+00 0.14962781E+02</pdfrwt>
<totfact>-0.15678936E-13</totfact>
</mgrwt>
</event>
<event>
 4    1 -0.4882314E-019  0.1499039E+02  0.7818608E-02  0.1868362E+00
          2   -1    0    0  501    0  0.00000000000E+00  0.00000000000E+00  0.11951261114E+03  0.11951261116E+03  0.25500000000E-02 0.  1.
         -2   -1    0    0    0  501 -0.00000000000E+00 -0.00000000000E+00 -0.47005534663E+00  0.47006226332E+00  0.25500000000E-02 0. -1.
         31    1    1    2    0    0 -0.28779557325E+00  0.32807912912E+00  0.53702163624E+02  0.54217817792E+02  0.74470750000E+01 0. -1.
        -31    1    1    2    0    0  0.28779557325E+00 -0.32807912912E+00  0.65340392164E+02  0.65764855633E+02  0.74470750000E+01 0.  1.
<mgrwt>
<rscale>  0 0.14990391E+02</rscale>
<asrwt>0</asrwt>
<pdfrwt beam="1">  1        2 0.99210069E+00 0.14990391E+02</pdfrwt>
<pdfrwt beam="2">  1       -2 0.99833104E+00 0.14990391E+02</pdfrwt>
<totfact>-0.76925904E-14</totfact>
</mgrwt>
</event>
<event>
 4    1 -0.4882314E-019  0.1491109E+02  0.7818608E-02  0.1870794E+00
         -2   -1    0    0    0  501 -0.00000000000E+00  0.00000000000E+00  0.12002789122E+03  0.12002789125E+03  0.25500000000E-02 0. -1.
          2   -1    0    0  501    0  0.00000000000E+00 -0.00000000000E+00 -0.46309827007E+00  0.46310529066E+00  0.25500000000E-02 0.  1.
         31    1    1    2    0    0 -0.33039209315E+00 -0.29129391852E-01  0.58753904358E+02  0.59224912080E+02  0.74470750000E+01 0.  1.
        -31    1    1    2    0    0  0.33039209315E+00  0.29129391852E-01  0.60810888596E+02  0.61266084463E+02  0.74470750000E+01 0. -1.
<mgrwt>
<rscale>  0 0.14911088E+02</rscale>
<asrwt>0</asrwt>
<pdfrwt beam="2">  1        2 0.98362875E+00 0.14911088E+02</pdfrwt>
<pdfrwt beam="1">  1       -2 0.99630386E+00 0.14911088E+02</pdfrwt>
<totfact>-0.39389323E-13</totfact>
</mgrwt>
</event>
<event>
 4    1 -0.4882314E-019  0.1495096E+02  0.7818608E-02  0.1869569E+00
         -2   -1    0    0    0  501 -0.00000000000E+00  0.00000000000E+00  0.11975929302E+03  0.11975929305E+03  0.25500000000E-02 0.  1.
          2   -1    0    0  501    0  0.00000000000E+00 -0.00000000000E+00 -0.46662264230E+00  0.46662960987E+00  0.25500000000E-02 0. -1.
         31    1    1    2    0    0  0.39390513410E+00  0.42250903051E+00  0.62061647200E+02  0.62509524509E+02  0.74470750000E+01 0.  1.
        -31    1    1    2    0    0 -0.39390513410E+00 -0.42250903051E+00  0.57231023179E+02  0.57716398150E+02  0.74470750000E+01 0. -1.
<mgrwt>
<rscale>  0 0.14950962E+02</rscale>
<asrwt>0</asrwt>
<pdfrwt beam="2">  1        2 0.99107687E+00 0.14950962E+02</pdfrwt>
<pdfrwt beam="1">  1       -2 0.99411205E+00 0.14950962E+02</pdfrwt>
<totfact>-0.16006215E-13</totfact>
</mgrwt>
</event>
<event>
 4    1  0.4882314E-019  0.1493265E+02  0.7818608E-02  0.1870131E+00
          2   -1    0    0  501    0  0.00000000000E+00  0.00000000000E+00  0.12028965746E+03  0.12028965748E+03  0.25500000000E-02 0. -1.
         -2   -1    0    0    0  501 -0.00000000000E+00 -0.00000000000E+00 -0.46342761270E+00  0.46343462831E+00  0.25500000000E-02 0.  1.
         31    1    1    2    0    0 -0.33058971745E+00  0.33336172486E+00  0.57825785417E+02  0.58305238227E+02  0.74470750000E+01 0.  1.
        -31    1    1    2    0    0  0.33058971745E+00 -0.33336172486E+00  0.62000444427E+02  0.62447853885E+02  0.74470750000E+01 0.  1.
<mgrwt>
<rscale>  0 0.14932645E+02</rscale>
<asrwt>0</asrwt>
<pdfrwt beam="1">  1        2 0.99847105E+00 0.14932645E+02</pdfrwt>
<pdfrwt beam="2">  1       -2 0.98433381E+00 0.14932645E+02</pdfrwt>
<totfact> 0.25666223E-13</totfact>
</mgrwt>
</event>
<event>
 4    1  0.4882314E-019  0.1489999E+02  0.7818608E-02  0.1871136E+00
          2   -1    0    0  501    0  0.00000000000E+00  0.00000000000E+00  0.12000284814E+03  0.12000284817E+03  0.25500000000E-02 0.  1.
         -2   -1    0    0    0  501 -0.00000000000E+00 -0.00000000000E+00 -0.46250560818E+00  0.46251263777E+00  0.25500000000E-02 0. -1.
         31    1    1    2    0    0 -0.16255959182E-01 -0.29714832808E-01  0.61433821564E+02  0.61883556017E+02  0.74470750000E+01 0.  1.
        -31    1    1    2    0    0  0.16255959182E-01  0.29714832808E-01  0.58106520966E+02  0.58581804787E+02  0.74470750000E+01 0. -1.
<mgrwt>
<rscale>  0 0.14899989E+02</rscale>
<asrwt>0</asrwt>
<pdfrwt beam="1">  1        2 0.99609189E+00 0.14899989E+02</pdfrwt>
<pdfrwt beam="2">  1       -2 0.98237399E+00 0.14899989E+02</pdfrwt>
<totfact> 0.79411133E-13</totfact>
</mgrwt>
</event>
<event>
 4    1 -0.4882314E-019  0.1492115E+02  0.7818608E-02  0.1870484E+00
          2   -1    0    0  501    0  0.00000000000E+00  0.00000000000E+00  0.11848867516E+03  0.11848867519E+03  0.25500000000E-02 0. -1.
         -2   -1    0    0    0  501 -0.00000000000E+00 -0.00000000000E+00 -0.46974775327E+00  0.46975467448E+00  0.25500000000E-02 0.  1.
         31    1    1    2    0    0 -0.17980173321E+00  0.16834338605E+00  0.61998959181E+02  0.62445100158E+02  0.74470750000E+01 0. -1.
        -31    1    1    2    0    0  0.17980173321E+00 -0.16834338605E+00  0.56019968227E+02  0.56513329705E+02  0.74470750000E+01 0.  1.
<mgrwt>
<rscale>  0 0.14921153E+02</rscale>
<asrwt>0</asrwt>
<pdfrwt beam="1">  1        2 0.98363153E+00 0.14921153E+02</pdfrwt>
<pdfrwt beam="2">  1       -2 0.99764657E+00 0.14921153E+02</pdfrwt>
<totfact>-0.29376099E-13</totfact>
</mgrwt>
</event>
<event>
 4    1 -0.4882314E-019  0.1497336E+02  0.7818608E-02  0.1868882E+00
         -2   -1    0    0    0  501 -0.00000000000E+00  0.00000000000E+00  0.12019189066E+03  0.12019189069E+03  0.25500000000E-02 0.  1.
          2   -1    0    0  501    0  0.00000000000E+00 -0.00000000000E+00 -0.46633753684E+00  0.46634450867E+00  0.25500000000E-02 0. -1.
         31    1    1    2    0    0  0.41528270903E+00  0.35271749576E+00  0.55488900106E+02  0.55989050986E+02  0.74470750000E+01 0. -1.
        -31    1    1    2    0    0 -0.41528270903E+00 -0.35271749576E+00  0.64236653019E+02  0.64669184211E+02  0.74470750000E+01 0.  1.
<mgrwt>
<rscale>  0 0.14973365E+02</rscale>
<asrwt>0</asrwt>
<pdfrwt beam="2">  1        2 0.99048751E+00 0.14973365E+02</pdfrwt>
<pdfrwt beam="1">  1       -2 0.99768671E+00 0.14973365E+02</pdfrwt>
<totfact>-0.11376277E-13</totfact>
</mgrwt>
</event>
<event>
 4    1 -0.4882314E-019  0.1497413E+02  0.7818608E-02  0.1868859E+00
         -2   -1    0    0    0  501 -0.00000000000E+00  0.00000000000E+00  0.11982310832E+03  0.11982310835E+03  0.25500000000E-02 0.  1.
          2   -1    0    0  501    0  0.00000000000E+00 -0.00000000000E+00 -0.46782087786E+00  0.46782782759E+00  0.25500000000E-02 0. -1.
         31    1    1    2    0    0  0.18438516479E+00  0.16724878497E+00  0.53800317806E+02  0.54313857275E+02  0.74470750000E+01 0. -1.
        -31    1    1    2    0    0 -0.18438516479E+00 -0.16724878497E+00  0.65554969639E+02  0.65977078902E+02  0.74470750000E+01 0.  1.
<mgrwt>
<rscale>  0 0.14974134E+02</rscale>
<asrwt>0</asrwt>
<pdfrwt beam="2">  1        2 0.99361396E+00 0.14974134E+02</pdfrwt>
<pdfrwt beam="1">  1       -2 0.99464962E+00 0.14974134E+02</pdfrwt>
<totfact>-0.13490848E-13</totfact>
</mgrwt>
</event>
<event>
 4    1  0.4882314E-019  0.1490223E+02  0.7818608E-02  0.1871067E+00
         -2   -1    0    0    0  501 -0.00000000000E+00  0.00000000000E+00  0.11842979425E+03  0.11842979428E+03  0.25500000000E-02 0. -1.
          2   -1    0    0  501    0  0.00000000000E+00 -0.00000000000E+00 -0.46878969690E+00  0.46879663227E+00  0.25500000000E-02 0.  1.
         31    1    1    2    0    0  0.20179206563E+00  0.46340536981E-01  0.57931455638E+02  0.58408521176E+02  0.74470750000E+01 0.  1.
        -31    1    1    2    0    0 -0.20179206563E+00 -0.46340536981E-01  0.60029548919E+02  0.60490069739E+02  0.74470750000E+01 0.  1.
<mgrwt>
<rscale>  0 0.14902226E+02</rscale>
<asrwt>0</asrwt>
<pdfrwt beam="2">  1        2 0.99561796E+00 0.14902226E+02</pdfrwt>
<pdfrwt beam="1">  1       -2 0.98313674E+00 0.14902226E+02</pdfrwt>
<totfact> 0.71999262E-13</totfact>
</mgrwt>
</event>
<event>
 4    1 -0.4882314E-019  0.1496114E+02  0.7818608E-02  0.1869257E+00
          2   -1    0    0  501    0  0.00000000000E+00  0.00000000000E+00  0.11914207808E+03  0.11914207810E+03  0.25500000000E-02 0. -1.
         -2   -1    0    0    0  501 -0.00000000000E+00 -0.00000000000E+00 -0.46967896659E+00  0.46968588882E+00  0.25500000000E-02 0.  1.
         31    1    1    2    0    0 -0.17924990823E+00 -0.29724573465E+00  0.64261507762E+02  0.64692509547E+02  0.74470750000E+01 0. -1.
        -31    1    1    2    0    0  0.17924990823E+00  0.29724573465E+00  0.54410891347E+02  0.54919254445E+02  0.74470750000E+01 0.  1.
<mgrwt>
<rscale>  0 0.14961142E+02</rscale>
<asrwt>0</asrwt>
<pdfrwt beam="1">  1        2 0.98903375E+00 0.14961142E+02</pdfrwt>
<pdfrwt beam="2">  1       -2 0.99752266E+00 0.14961142E+02</pdfrwt>
<totfact>-0.13833975E-13</totfact>
</mgrwt>
</event>
<event>
 4    1  0.4882314E-019  0.1492707E+02  0.7818608E-02  0.1870302E+00
         -2   -1    0    0    0  501 -0.00000000000E+00  0.00000000000E+00  0.11871454980E+03  0.11871454983E+03  0.25500000000E-02 0.  1.
          2   -1    0    0  501    0  0.00000000000E+00 -0.00000000000E+00 -0.46922615584E+00  0.46923308475E+00  0.25500000000E-02 0. -1.
         31    1    1    2    0    0 -0.36255257727E+00 -0.57849460947E-01  0.61778834159E+02  0.62227148954E+02  0.74470750000E+01 0. -1.
        -31    1    1    2    0    0  0.36255257727E+00  0.57849460947E-01  0.56466489490E+02  0.56956633962E+02  0.74470750000E+01 0. -1.
<mgrwt>
<rscale>  0 0.14927074E+02</rscale>
<asrwt>0</asrwt>
<pdfrwt beam="2">  1        2 0.99655067E+00 0.14927074E+02</pdfrwt>
<pdfrwt beam="1">  1       -2 0.98549491E+00 0.14927074E+02</pdfrwt>
<totfact> 0.33897947E-13</totfact>
</mgrwt>
</event>
<event>
 4    1  0.4882314E-019  0.1492608E+02  0.7818608E-02  0.1870333E+00
         -2   -1    0    0    0  501 -0.00000000000E+00  0.00000000000E+00  0.11844183206E+03  0.11844183209E+03  0.25500000000E-02 0. -1.
          2   -1    0    0  501    0  0.00000000000E+00 -0.00000000000E+00 -0.47024392515E+00  0.47025083906E+00  0.25500000000E-02 0.  1.
         31    1    1    2    0    0 -0.35865611109E+00  0.74111914075E-01  0.61553899354E+02  0.62003835192E+02  0.74470750000E+01 0. -1.
        -31    1    1    2    0    0  0.35865611109E+00 -0.74111914075E-01  0.56417688782E+02  0.56908247736E+02  0.74470750000E+01 0.  1.
<mgrwt>
<rscale>  0 0.14926080E+02</rscale>
<asrwt>0</asrwt>
<pdfrwt beam="2">  1        2 0.99869459E+00 0.14926080E+02</pdfrwt>
<pdfrwt beam="1">  1       -2 0.98324830E+00 0.14926080E+02</pdfrwt>
<totfact> 0.29173513E-13</totfact>
</mgrwt>
</event>
<event>
 4    1  0.4882314E-019  0.1493685E+02  0.7818608E-02  0.1870002E+00
          2   -1    0    0  501    0  0.00000000000E+00  0.00000000000E+00  0.11983713067E+03  0.11983713070E+03  0.25500000000E-02 0.  1.
         -2   -1    0    0    0  501 -0.00000000000E+00 -0.00000000000E+00 -0.46543975308E+00  0.46544673836E+00  0.25500000000E-02 0. -1.
         31    1    1    2    0    0 -0.17613176347E+00 -0.49839702057E+00  0.58094512207E+02  0.58572269007E+02  0.74470750000E+01 0.  1.
        -31    1    1    2    0    0  0.17613176347E+00  0.49839702057E+00  0.61277178708E+02  0.61730308427E+02  0.74470750000E+01 0.  1.
<mgrwt>
<rscale>  0 0.14936852E+02</rscale>
<asrwt>0</asrwt>
<pdfrwt beam="1">  1        2 0.99474588E+00 0.14936852E+02</pdfrwt>
<pdfrwt beam="2">  1       -2 0.98857673E+00 0.14936852E+02</pdfrwt>
<totfact> 0.10663796E-13</totfact>
</mgrwt>
</event>
<event>
 4    1  0.4882314E-019  0.1489980E+02  0.7818608E-02  0.1871141E+00
         -2   -1    0    0    0  501 -0.00000000000E+00  0.00000000000E+00  0.11864476412E+03  0.11864476415E+03  0.25500000000E-02 0. -1.
          2   -1    0    0  501    0  0.00000000000E+00 -0.00000000000E+00 -0.46778827756E+00  0.46779522776E+00  0.25500000000E-02 0.  1.
         31    1    1    2    0    0  0.15573786423E+00 -0.56644576661E-01  0.60056301192E+02  0.60516491156E+02  0.74470750000E+01 0. -1.
        -31    1    1    2    0    0 -0.15573786423E+00  0.56644576661E-01  0.58120674650E+02  0.58596068219E+02  0.74470750000E+01 0.  1.
<mgrwt>
<rscale>  0 0.14899805E+02</rscale>
<asrwt>0</asrwt>
<pdfrwt beam="2">  1        2 0.99350662E+00 0.14899805E+02</pdfrwt>
<pdfrwt beam="1">  1       -2 0.98490598E+00 0.14899805E+02</pdfrwt>
<totfact> 0.56635536E-13</totfact>
</mgrwt>
</event>
<event>
 4    1  0.4882314E-019  0.1496809E+02  0.7818608E-02  0.1869044E+00
         -2   -1    0    0    0  501 -0.00000000000E+00  0.00000000000E+00  0.11900827948E+03  0.11900827950E+03  0.25500000000E-02 0.  1.
          2   -1    0    0  501    0  0.00000000000E+00 -0.00000000000E+00 -0.47064365391E+00  0.47065056195E+00  0.25500000000E-02 0. -1.
         31    1    1    2    0    0  0.13668850972E-01 -0.53765444161E+00  0.63360219528E+02  0.63798633244E+02  0.74470750000E+01 0. -1.
        -31    1    1    2    0    0 -0.13668850972E-01  0.53765444161E+00  0.55177416294E+02  0.55680296821E+02  0.74470750000E+01 0. -1.
<mgrwt>
<rscale>  0 0.14968087E+02</rscale>
<asrwt>0</asrwt>
<pdfrwt beam="2">  1        2 0.99955899E+00 0.14968087E+02</pdfrwt>
<pdfrwt beam="1">  1       -2 0.98793539E+00 0.14968087E+02</pdfrwt>
<totfact> 0.22589910E-14</totfact>
</mgrwt>
</event>
<event>
 4    1 -0.4882314E-019  0.1498615E+02  0.7818608E-02  0.1868492E+00
         -2   -1    0    0    0  501 -0.00000000000E+00  0.00000000000E+00  0.12010268440E+03  0.12010268442E+03  0.25500000000E-02 0.  1.
          2   -1    0    0  501    0  0.00000000000E+00 -0.00000000000E+00 -0.46748101455E+00  0.46748796932E+00  0.25500000000E-02 0. -1.
         31    1    1    2    0    0 -0.78296333506E+00 -0.62720871791E-01  0.57685117760E+02  0.58169138747E+02  0.74470750000E+01 0. -1.
        -31    1    1    2    0    0  0.78296333506E+00  0.62720871791E-01  0.61950085623E+02  0.62401033647E+02  0.74470750000E+01 0.  1.
<mgrwt>
<rscale>  0 0.14986146E+02</rscale>
<asrwt>0</asrwt>
<pdfrwt beam="2">  1        2 0.99290392E+00 0.14986146E+02</pdfrwt>
<pdfrwt beam="1">  1       -2 0.99695854E+00 0.14986146E+02</pdfrwt>
<totfact>-0.11464130E-13</totfact>
</mgrwt>
</event>
<event>
 4    1 -0.4882314E-019  0.1491423E+02  0.7818608E-02  0.1870697E+00
         -2   -1    0    0    0  501 -0.00000000000E+00  0.00000000000E+00  0.12035208693E+03  0.12035208696E+03  0.25500000000E-02 0.  1.
          2   -1    0    0  501    0  0.00000000000E+00 -0.00000000000E+00 -0.46204566394E+00  0.46205270053E+00  0.25500000000E-02 0. -1.
         31    1    1    2    0    0 -0.12707559558E+00 -0.23142429079E-01  0.62898981478E+02  0.63338436047E+02  0.74470750000E+01 0.  1.
        -31    1    1    2    0    0  0.12707559558E+00  0.23142429079E-01  0.56991059792E+02  0.57475703615E+02  0.74470750000E+01 0. -1.
<mgrwt>
<rscale>  0 0.14914233E+02</rscale>
<asrwt>0</asrwt>
<pdfrwt beam="2">  1        2 0.98141174E+00 0.14914233E+02</pdfrwt>
<pdfrwt beam="1">  1       -2 0.99897584E+00 0.14914233E+02</pdfrwt>
<totfact>-0.21035866E-13</totfact>
</mgrwt>
</event>
<event>
 4    1 -0.4882314E-019  0.1497596E+02  0.7818608E-02  0.1868803E+00
         -2   -1    0    0    0  501 -0.00000000000E+00  0.00000000000E+00  0.11954409896E+03  0.11954409899E+03  0.25500000000E-02 0.  1.
          2   -1    0    0  501    0  0.00000000000E+00 -0.00000000000E+00 -0.46902718214E+00  0.46903411399E+00  0.25500000000E-02 0. -1.
         31    1    1    2    0    0 -0.55387224829E+00  0.53647951316E+00  0.60561872066E+02  0.61022896186E+02  0.74470750000E+01 0. -1.
        -31    1    1    2    0    0  0.55387224829E+00 -0.53647951316E+00  0.58513199716E+02  0.58990236919E+02  0.74470750000E+01 0. -1.
<mgrwt>
<rscale>  0 0.14975961E+02</rscale>
<asrwt>0</asrwt>
<pdfrwt beam="2">  1        2 0.99615696E+00 0.14975961E+02</pdfrwt>
<pdfrwt beam="1">  1       -2 0.99235255E+00 0.14975961E+02</pdfrwt>
<totfact>-0.76773371E-14</totfact>
</mgrwt>
</event>
<event>
 4    1  0.4882314E-019  0.1492018E+02  0.7818608E-02  0.1870514E+00
          2   -1    0    0  501    0  0.00000000000E+00  0.00000000000E+00  0.12034387602E+03  0.12034387604E+03  0.25500000000E-02 0. -1.
         -2   -1    0    0    0  501 -0.00000000000E+00 -0.00000000000E+00 -0.46244548934E+00  0.46245251984E+00  0.25500000000E-02 0.  1.
         31    1    1    2    0    0 -0.94307282484E-01  0.12190678764E+00  0.56600065626E+02  0.57088090790E+02  0.74470750000E+01 0.  1.
        -31    1    1    2    0    0  0.94307282484E-01 -0.12190678764E+00  0.63281364902E+02  0.63718237774E+02  0.74470750000E+01 0. -1.
<mgrwt>
<rscale>  0 0.14920175E+02</rscale>
<asrwt>0</asrwt>
<pdfrwt beam="1">  1        2 0.99891125E+00 0.14920175E+02</pdfrwt>
<pdfrwt beam="2">  1       -2 0.98225747E+00 0.14920175E+02</pdfrwt>
<totfact> 0.30821960E-13</totfact>
</mgrwt>
</event>
<event>
 4    1 -0.4882314E-019  0.1492420E+02  0.7818608E-02  0.1870390E+00
         -2   -1    0    0    0  501 -0.00000000000E+00  0.00000000000E+00  0.11968466079E+03  0.11968466082E+03  0.25500000000E-02 0.  1.
          2   -1    0    0  501    0  0.00000000000E+00 -0.00000000000E+00 -0.46524358662E+00  0.46525057484E+00  0.25500000000E-02 0. -1.
         31    1    1    2    0    0  0.78529686910E-01  0.41922317964E+00  0.61261593932E+02  0.61714048094E+02  0.74470750000E+01 0.  1.
        -31    1    1    2    0    0 -0.78529686910E-01 -0.41922317964E+00  0.57957823270E+02  0.58435863297E+02  0.74470750000E+01 0. -1.
<mgrwt>
<rscale>  0 0.14924201E+02</rscale>
<asrwt>0</asrwt>
<pdfrwt beam="2">  1        2 0.98815683E+00 0.14924201E+02</pdfrwt>
<pdfrwt beam="1">  1       -2 0.99348353E+00 0.14924201E+02</pdfrwt>
<totfact>-0.20417874E-13</totfact>
</mgrwt>
</event>
<event>
 4    1  0.4882314E-019  0.1492963E+02  0.7818608E-02  0.1870223E+00
          2   -1    0    0  501    0  0.00000000000E+00  0.00000000000E+00  0.11977639009E+03  0.11977639012E+03  0.25500000000E-02 0.  1.
         -2   -1    0    0    0  501 -0.00000000000E+00 -0.00000000000E+00 -0.46522582462E+00  0.46523281311E+00  0.25500000000E-02 0. -1.
         31    1    1    2    0    0 -0.19083870610E+00  0.44257784273E+00  0.61102393912E+02  0.61556427466E+02  0.74470750000E+01 0. -1.
        -31    1    1    2    0    0  0.19083870610E+00 -0.44257784273E+00  0.58208770355E+02  0.58685195466E+02  0.74470750000E+01 0. -1.
<mgrwt>
<rscale>  0 0.14929634E+02</rscale>
<asrwt>0</asrwt>
<pdfrwt beam="1">  1        2 0.99424187E+00 0.14929634E+02</pdfrwt>
<pdfrwt beam="2">  1       -2 0.98812218E+00 0.14929634E+02</pdfrwt>
<totfact> 0.15115801E-13</totfact>
</mgrwt>
</event>
<event>
 4    1  0.4882314E-019  0.1489703E+02  0.7818608E-02  0.1871227E+00
         -2   -1    0    0    0  501 -0.00000000000E+00  0.00000000000E+00  0.11802409976E+03  0.11802409979E+03  0.25500000000E-02 0. -1.
          2   -1    0    0  501    0  0.00000000000E+00 -0.00000000000E+00 -0.47007342108E+00  0.47008033750E+00  0.25500000000E-02 0.  1.
         31    1    1    2    0    0 -0.21382195401E-01 -0.68923925419E-01  0.57762422459E+02  0.58240549294E+02  0.74470750000E+01 0.  1.
        -31    1    1    2    0    0  0.21382195401E-01  0.68923925419E-01  0.59791603879E+02  0.60253630830E+02  0.74470750000E+01 0. -1.
<mgrwt>
<rscale>  0 0.14897034E+02</rscale>
<asrwt>0</asrwt>
<pdfrwt beam="2">  1        2 0.99831995E+00 0.14897034E+02</pdfrwt>
<pdfrwt beam="1">  1       -2 0.97979279E+00 0.14897034E+02</pdfrwt>
<totfact> 0.69998277E-13</totfact>
</mgrwt>
</event>
<event>
 4    1 -0.4882314E-019  0.1500081E+02  0.7818608E-02  0.1868044E+00
          2   -1    0    0  501    0  0.00000000000E+00  0.00000000000E+00  0.11995320038E+03  0.11995320040E+03  0.25500000000E-02 0.  1.
         -2   -1    0    0    0  501 -0.00000000000E+00 -0.00000000000E+00 -0.46898012081E+00  0.46898705336E+00  0.25500000000E-02 0. -1.
         31    1    1    2    0    0  0.26839768522E+00  0.39479574304E+00  0.65798955490E+02  0.66220762383E+02  0.74470750000E+01 0.  1.
        -31    1    1    2    0    0 -0.26839768522E+00 -0.39479574304E+00  0.53685264765E+02  0.54201425073E+02  0.74470750000E+01 0. -1.
<mgrwt>
<rscale>  0 0.15000811E+02</rscale>
<asrwt>0</asrwt>
<pdfrwt beam="1">  1        2 0.99573490E+00 0.15000811E+02</pdfrwt>
<pdfrwt beam="2">  1       -2 0.99607067E+00 0.15000811E+02</pdfrwt>
<totfact>-0.10196851E-13</totfact>
</mgrwt>
</event>
<event>
 4    1 -0.4882314E-019  0.1501853E+02  0.7818608E-02  0.1867504E+00
          2   -1    0    0  501    0  0.00000000000E+00  0.00000000000E+00  0.12022381454E+03  0.12022381456E+03  0.25500000000E-02 0.  1.
         -2   -1    0    0    0  501 -0.00000000000E+00 -0.00000000000E+00 -0.46903045684E+00  0.46903738864E+00  0.25500000000E-02 0. -1.
         31    1    1    2    0    0 -0.27132757282E-01 -0.94407267675E+00  0.61446319602E+02  0.61903159274E+02  0.74470750000E+01 0.  1.
        -31    1    1    2    0    0  0.27132757282E-01  0.94407267675E+00  0.58308464477E+02  0.58789692678E+02  0.74470750000E+01 0. -1.
<mgrwt>
<rscale>  0 0.15018529E+02</rscale>
<asrwt>0</asrwt>
<pdfrwt beam="1">  1        2 0.99797294E+00 0.15018529E+02</pdfrwt>
<pdfrwt beam="2">  1       -2 0.99618590E+00 0.15018529E+02</pdfrwt>
<totfact>-0.60799605E-14</totfact>
</mgrwt>
</event>
<event>
 4    1 -0.4882314E-019  0.1496623E+02  0.7818608E-02  0.1869101E+00
          2   -1    0    0  501    0  0.00000000000E+00  0.00000000000E+00  0.11972417825E+03  0.11972417827E+03  0.25500000000E-02 0.  1.
         -2   -1    0    0    0  501 -0.00000000000E+00 -0.00000000000E+00 -0.46771324318E+00  0.46772019450E+00  0.25500000000E-02 0. -1.
         31    1    1    2    0    0  0.34736102362E+00 -0.64559953474E+00  0.59428494802E+02  0.59897766059E+02  0.74470750000E+01 0. -1.
        -31    1    1    2    0    0 -0.34736102362E+00  0.64559953474E+00  0.59827970203E+02  0.60294132410E+02  0.74470750000E+01 0. -1.
<mgrwt>
<rscale>  0 0.14966229E+02</rscale>
<asrwt>0</asrwt>
<pdfrwt beam="1">  1        2 0.99383071E+00 0.14966229E+02</pdfrwt>
<pdfrwt beam="2">  1       -2 0.99338305E+00 0.14966229E+02</pdfrwt>
<totfact>-0.12193697E-13</totfact>
</mgrwt>
</event>
<event>
 4    1 -0.4882314E-019  0.1492526E+02  0.7818608E-02  0.1870358E+00
         -2   -1    0    0    0  501 -0.00000000000E+00  0.00000000000E+00  0.11959208387E+03  0.11959208390E+03  0.25500000000E-02 0. -1.
          2   -1    0    0  501    0  0.00000000000E+00 -0.00000000000E+00 -0.46566965668E+00  0.46567663851E+00  0.25500000000E-02 0.  1.
         31    1    1    2    0    0  0.72547280285E-01  0.41934964916E+00  0.57750516438E+02  0.58230251521E+02  0.74470750000E+01 0. -1.
        -31    1    1    2    0    0 -0.72547280285E-01 -0.41934964916E+00  0.61375897776E+02  0.61827509016E+02  0.74470750000E+01 0. -1.
<mgrwt>
<rscale>  0 0.14925257E+02</rscale>
<asrwt>0</asrwt>
<pdfrwt beam="2">  1        2 0.98905530E+00 0.14925257E+02</pdfrwt>
<pdfrwt beam="1">  1       -2 0.99272156E+00 0.14925257E+02</pdfrwt>
<totfact>-0.16141907E-13</totfact>
</mgrwt>
</event>
<event>
 4    1  0.4882314E-019  0.1490598E+02  0.7818608E-02  0.1870951E+00
          2   -1    0    0  501    0  0.00000000000E+00  0.00000000000E+00  0.12035950004E+03  0.12035950007E+03  0.25500000000E-02 0.  1.
         -2   -1    0    0    0  501 -0.00000000000E+00 -0.00000000000E+00 -0.46150606342E+00  0.46151310823E+00  0.25500000000E-02 0. -1.
         31    1    1    2    0    0 -0.18999739736E+00 -0.17516901589E+00  0.58764450115E+02  0.59235009130E+02  0.74470750000E+01 0.  1.
        -31    1    1    2    0    0  0.18999739736E+00  0.17516901589E+00  0.61133543862E+02  0.61586004047E+02  0.74470750000E+01 0.  1.
<mgrwt>
<rscale>  0 0.14905981E+02</rscale>
<asrwt>0</asrwt>
<pdfrwt beam="1">  1        2 0.99903267E+00 0.14905981E+02</pdfrwt>
<pdfrwt beam="2">  1       -2 0.98027022E+00 0.14905981E+02</pdfrwt>
<totfact> 0.40237841E-13</totfact>
</mgrwt>
</event>
<event>
 4    1 -0.4882314E-019  0.1498175E+02  0.7818608E-02  0.1868626E+00
          2   -1    0    0  501    0  0.00000000000E+00  0.00000000000E+00  0.11955734659E+03  0.11955734662E+03  0.25500000000E-02 0. -1.
         -2   -1    0    0    0  501 -0.00000000000E+00 -0.00000000000E+00 -0.46933792569E+00  0.46934485295E+00  0.25500000000E-02 0.  1.
         31    1    1    2    0    0 -0.71176281414E+00  0.28558858503E+00  0.61604091823E+02  0.62057322070E+02  0.74470750000E+01 0. -1.
        -31    1    1    2    0    0  0.71176281414E+00 -0.28558858503E+00  0.57483916842E+02  0.57969369401E+02  0.74470750000E+01 0.  1.
<mgrwt>
<rscale>  0 0.14981751E+02</rscale>
<asrwt>0</asrwt>
<pdfrwt beam="1">  1        2 0.99246466E+00 0.14981751E+02</pdfrwt>
<pdfrwt beam="2">  1       -2 0.99681478E+00 0.14981751E+02</pdfrwt>
<totfact>-0.12177537E-13</totfact>
</mgrwt>
</event>
<event>
 4    1 -0.4882314E-019  0.1496937E+02  0.7818608E-02  0.1869005E+00
         -2   -1    0    0    0  501 -0.00000000000E+00  0.00000000000E+00  0.11952335119E+03  0.11952335122E+03  0.25500000000E-02 0.  1.
          2   -1    0    0  501    0  0.00000000000E+00 -0.00000000000E+00 -0.46869549390E+00  0.46870243066E+00  0.25500000000E-02 0. -1.
         31    1    1    2    0    0  0.43098940410E+00 -0.42494773820E+00  0.55985673538E+02  0.56482040509E+02  0.74470750000E+01 0. -1.
        -31    1    1    2    0    0 -0.43098940410E+00  0.42494773820E+00  0.63068982160E+02  0.63510013141E+02  0.74470750000E+01 0.  1.
<mgrwt>
<rscale>  0 0.14969365E+02</rscale>
<asrwt>0</asrwt>
<pdfrwt beam="2">  1        2 0.99545458E+00 0.14969365E+02</pdfrwt>
<pdfrwt beam="1">  1       -2 0.99217825E+00 0.14969365E+02</pdfrwt>
<totfact>-0.79919933E-14</totfact>
</mgrwt>
</event>
<event>
 4    1 -0.4882314E-019  0.1495182E+02  0.7818608E-02  0.1869542E+00
         -2   -1    0    0    0  501 -0.00000000000E+00  0.00000000000E+00  0.12037553431E+03  0.12037553433E+03  0.25500000000E-02 0. -1.
          2   -1    0    0  501    0  0.00000000000E+00 -0.00000000000E+00 -0.46428698118E+00  0.46429398380E+00  0.25500000000E-02 0.  1.
         31    1    1    2    0    0 -0.52143684192E+00  0.25410715019E+00  0.57480049032E+02  0.57963362821E+02  0.74470750000E+01 0.  1.
        -31    1    1    2    0    0  0.52143684192E+00 -0.25410715019E+00  0.62431198293E+02  0.62876465495E+02  0.74470750000E+01 0. -1.
<mgrwt>
<rscale>  0 0.14951818E+02</rscale>
<asrwt>0</asrwt>
<pdfrwt beam="2">  1        2 0.98615480E+00 0.14951818E+02</pdfrwt>
<pdfrwt beam="1">  1       -2 0.99918825E+00 0.14951818E+02</pdfrwt>
<totfact>-0.77550261E-14</totfact>
</mgrwt>
</event>
<event>
 4    1 -0.4882314E-019  0.1498089E+02  0.7818608E-02  0.1868652E+00
         -2   -1    0    0    0  501 -0.00000000000E+00  0.00000000000E+00  0.12014735360E+03  0.12014735362E+03  0.25500000000E-02 0.  1.
          2   -1    0    0  501    0  0.00000000000E+00 -0.00000000000E+00 -0.46697947710E+00  0.46698643934E+00  0.25500000000E-02 0. -1.
         31    1    1    2    0    0 -0.49956506416E+00 -0.55417093217E+00  0.57409132245E+02  0.57894939864E+02  0.74470750000E+01 0. -1.
        -31    1    1    2    0    0  0.49956506416E+00  0.55417093217E+00  0.62271241873E+02  0.62719400198E+02  0.74470750000E+01 0.  1.
<mgrwt>
<rscale>  0 0.14980890E+02</rscale>
<asrwt>0</asrwt>
<pdfrwt beam="2">  1        2 0.99184425E+00 0.14980890E+02</pdfrwt>
<pdfrwt beam="1">  1       -2 0.99732375E+00 0.14980890E+02</pdfrwt>
<totfact>-0.11352824E-13</totfact>
</mgrwt>
</event>
<event>
 4    1  0.4882314E-019  0.1492482E+02  0.7818608E-02  0.1870371E+00
         -2   -1    0    0    0  501 -0.00000000000E+00  0.00000000000E+00  0.11912089196E+03  0.11912089199E+03  0.25500000000E-02 0.  1.
          2   -1    0    0  501    0  0.00000000000E+00 -0.00000000000E+00 -0.46748449436E+00  0.46749144909E+00  0.25500000000E-02 0. -1.
         31    1    1    2    0    0  0.43726442117E+00  0.16915697847E+00  0.58573034722E+02  0.59046415106E+02  0.74470750000E+01 0.  1.
        -31    1    1    2    0    0 -0.43726442117E+00 -0.16915697847E+00  0.60080372742E+02  0.60541968329E+02  0.74470750000E+01 0.  1.
<mgrwt>
<rscale>  0 0.14924823E+02</rscale>
<asrwt>0</asrwt>
<pdfrwt beam="2">  1        2 0.99287955E+00 0.14924823E+02</pdfrwt>
<pdfrwt beam="1">  1       -2 0.98884043E+00 0.14924823E+02</pdfrwt>
<totfact> 0.10006352E-13</totfact>
</mgrwt>
</event>
<event>
 4    1  0.4882314E-019  0.1491156E+02  0.7818608E-02  0.1870779E+00
         -2   -1    0    0    0  501 -0.00000000000E+00  0.00000000000E+00  0.11904075754E+03  0.11904075757E+03  0.25500000000E-02 0. -1.
          2   -1    0    0  501    0  0.00000000000E+00 -0.00000000000E+00 -0.46696806145E+00  0.46697502386E+00  0.25500000000E-02 0.  1.
         31    1    1    2    0    0  0.20333517337E+00 -0.27922167428E+00  0.58469050951E+02  0.58942413889E+02  0.74470750000E+01 0.  1.
        -31    1    1    2    0    0 -0.20333517337E+00  0.27922167428E+00  0.60104738531E+02  0.60565318705E+02  0.74470750000E+01 0. -1.
<mgrwt>
<rscale>  0 0.14911559E+02</rscale>
<asrwt>0</asrwt>
<pdfrwt beam="2">  1        2 0.99178440E+00 0.14911559E+02</pdfrwt>
<pdfrwt beam="1">  1       -2 0.98817355E+00 0.14911559E+02</pdfrwt>
<totfact> 0.17600190E-13</totfact>
</mgrwt>
</event>
<event>
 4    1  0.4882314E-019  0.1493998E+02  0.7818608E-02  0.1869905E+00
          2   -1    0    0  501    0  0.00000000000E+00  0.00000000000E+00  0.12032799364E+03  0.12032799367E+03  0.25500000000E-02 0. -1.
         -2   -1    0    0    0  501 -0.00000000000E+00 -0.00000000000E+00 -0.46373549604E+00  0.46374250699E+00  0.25500000000E-02 0.  1.
         31    1    1    2    0    0  0.34174100328E+00 -0.46829371024E+00  0.59317716897E+02  0.59786173567E+02  0.74470750000E+01 0. -1.
        -31    1    1    2    0    0 -0.34174100328E+00  0.46829371024E+00  0.60546541247E+02  0.61005562606E+02  0.74470750000E+01 0. -1.
<mgrwt>
<rscale>  0 0.14939985E+02</rscale>
<asrwt>0</asrwt>
<pdfrwt beam="1">  1        2 0.99879059E+00 0.14939985E+02</pdfrwt>
<pdfrwt beam="2">  1       -2 0.98498645E+00 0.14939985E+02</pdfrwt>
<totfact> 0.17643794E-13</totfact>
</mgrwt>
</event>
<event>
 4    1 -0.4882314E-019  0.1498150E+02  0.7818608E-02  0.1868634E+00
          2   -1    0    0  501    0  0.00000000000E+00  0.00000000000E+00  0.11990626298E+03  0.11990626300E+03  0.25500000000E-02 0.  1.
         -2   -1    0    0    0  501 -0.00000000000E+00 -0.00000000000E+00 -0.46795649715E+00  0.46796344486E+00  0.25500000000E-02 0. -1.
         31    1    1    2    0    0 -0.23885327844E+00  0.72103581307E+00  0.57511905657E+02  0.57997027182E+02  0.74470750000E+01 0.  1.
        -31    1    1    2    0    0  0.23885327844E+00 -0.72103581307E+00  0.61926400823E+02  0.62377199268E+02  0.74470750000E+01 0.  1.
<mgrwt>
<rscale>  0 0.14981500E+02</rscale>
<asrwt>0</asrwt>
<pdfrwt beam="1">  1        2 0.99533833E+00 0.14981500E+02</pdfrwt>
<pdfrwt beam="2">  1       -2 0.99390356E+00 0.14981500E+02</pdfrwt>
<totfact>-0.11172756E-13</totfact>
</mgrwt>
</event>
<event>
 4    1 -0.4882314E-019  0.1499100E+02  0.7818608E-02  0.1868343E+00
          2   -1    0    0  501    0  0.00000000000E+00  0.00000000000E+00  0.11976845252E+03  0.11976845255E+03  0.25500000000E-02 0.  1.
         -2   -1    0    0    0  501 -0.00000000000E+00 -0.00000000000E+00 -0.46908926334E+00  0.46909619427E+00  0.25500000000E-02 0. -1.
         31    1    1    2    0    0 -0.11128415942E+00 -0.17884323371E+00  0.66259876190E+02  0.66677391129E+02  0.74470750000E+01 0.  1.
        -31    1    1    2    0    0  0.11128415942E+00  0.17884323371E+00  0.53039487069E+02  0.53560157615E+02  0.74470750000E+01 0. -1.
<mgrwt>
<rscale>  0 0.14990999E+02</rscale>
<asrwt>0</asrwt>
<pdfrwt beam="1">  1        2 0.99420818E+00 0.14990999E+02</pdfrwt>
<pdfrwt beam="2">  1       -2 0.99629559E+00 0.14990999E+02</pdfrwt>
<totfact>-0.11626226E-13</totfact>
</mgrwt>
</event>
<event>
 4    1 -0.4882314E-019  0.1498919E+02  0.7818608E-02  0.1868398E+00
          2   -1    0    0  501    0  0.00000000000E+00  0.00000000000E+00  0.11954635879E+03  0.11954635882E+03  0.25500000000E-02 0. -1.
         -2   -1    0    0    0  501 -0.00000000000E+00 -0.00000000000E+00 -0.46984759830E+00  0.46985451805E+00  0.25500000000E-02 0.  1.
         31    1    1    2    0    0  0.39164558575E+00  0.26619263319E+00  0.65119067159E+02  0.65545221630E+02  0.74470750000E+01 0. -1.
        -31    1    1    2    0    0 -0.39164558575E+00 -0.26619263319E+00  0.53957444036E+02  0.54470991709E+02  0.74470750000E+01 0.  1.
<mgrwt>
<rscale>  0 0.14989194E+02</rscale>
<asrwt>0</asrwt>
<pdfrwt beam="1">  1        2 0.99237802E+00 0.14989194E+02</pdfrwt>
<pdfrwt beam="2">  1       -2 0.99789265E+00 0.14989194E+02</pdfrwt>
<totfact>-0.91282344E-14</totfact>
</mgrwt>
</event>
<event>
 4    1  0.4882314E-019  0.1492542E+02  0.7818608E-02  0.1870353E+00
          2   -1    0    0  501    0  0.00000000000E+00  0.00000000000E+00  0.11984543508E+03  0.11984543511E+03  0.25500000000E-02 0. -1.
         -2   -1    0    0    0  501 -0.00000000000E+00 -0.00000000000E+00 -0.46469567489E+00  0.46470267135E+00  0.25500000000E-02 0.  1.
         31    1    1    2    0    0 -0.35101352312E+00 -0.32735239907E+00  0.59265230914E+02  0.59733214307E+02  0.74470750000E+01 0. -1.
        -31    1    1    2    0    0  0.35101352312E+00  0.32735239907E+00  0.60115508495E+02  0.60576923475E+02  0.74470750000E+01 0.  1.
<mgrwt>
<rscale>  0 0.14925425E+02</rscale>
<asrwt>0</asrwt>
<pdfrwt beam="1">  1        2 0.99480840E+00 0.14925425E+02</pdfrwt>
<pdfrwt beam="2">  1       -2 0.98700273E+00 0.14925425E+02</pdfrwt>
<totfact> 0.25023759E-13</totfact>
</mgrwt>
</event>
<event>
 4    1 -0.4882314E-019  0.1502163E+02  0.7818608E-02  0.1867409E+00
          2   -1    0    0  501    0  0.00000000000E+00  0.00000000000E+00  0.12021678424E+03  0.12021678427E+03  0.25500000000E-02 0.  1.
         -2   -1    0    0    0  501 -0.00000000000E+00 -0.00000000000E+00 -0.46925152314E+00  0.46925845168E+00  0.25500000000E-02 0. -1.
         31    1    1    2    0    0  0.55330182574E-02 -0.69208401608E-01  0.67698644081E+02  0.68107049245E+02  0.74470750000E+01 0.  1.
        -31    1    1    2    0    0 -0.55330182574E-02  0.69208401608E-01  0.52048888641E+02  0.52578993479E+02  0.74470750000E+01 0. -1.
<mgrwt>
<rscale>  0 0.15021628E+02</rscale>
<asrwt>0</asrwt>
<pdfrwt beam="1">  1        2 0.99791664E+00 0.15021628E+02</pdfrwt>
<pdfrwt beam="2">  1       -2 0.99665337E+00 0.15021628E+02</pdfrwt>
<totfact>-0.57939308E-14</totfact>
</mgrwt>
</event>
<event>
 4    1  0.4882314E-019  0.1491010E+02  0.7818608E-02  0.1870824E+00
         -2   -1    0    0    0  501 -0.00000000000E+00  0.00000000000E+00  0.11845724388E+03  0.11845724391E+03  0.25500000000E-02 0.  1.
          2   -1    0    0  501    0  0.00000000000E+00 -0.00000000000E+00 -0.46917672916E+00  0.46918365880E+00  0.25500000000E-02 0. -1.
         31    1    1    2    0    0 -0.24026454190E+00  0.24125748506E+00  0.59426345457E+02  0.59892114611E+02  0.74470750000E+01 0.  1.
        -31    1    1    2    0    0  0.24026454190E+00 -0.24125748506E+00  0.58561721699E+02  0.59034312959E+02  0.74470750000E+01 0. -1.
<mgrwt>
<rscale>  0 0.14910103E+02</rscale>
<asrwt>0</asrwt>
<pdfrwt beam="2">  1        2 0.99643759E+00 0.14910103E+02</pdfrwt>
<pdfrwt beam="1">  1       -2 0.98336691E+00 0.14910103E+02</pdfrwt>
<totfact> 0.60523721E-13</totfact>
</mgrwt>
</event>
<event>
 4    1 -0.4882314E-019  0.1503226E+02  0.7818608E-02  0.1867086E+00
          2   -1    0    0  501    0  0.00000000000E+00  0.00000000000E+00  0.12031890054E+03  0.12031890057E+03  0.25500000000E-02 0. -1.
         -2   -1    0    0    0  501 -0.00000000000E+00 -0.00000000000E+00 -0.46951705376E+00  0.46952397837E+00  0.25500000000E-02 0.  1.
         31    1    1    2    0    0  0.56979043752E+00  0.60936940748E+00  0.64591227794E+02  0.65024469442E+02  0.74470750000E+01 0.  1.
        -31    1    1    2    0    0 -0.56979043752E+00 -0.60936940748E+00  0.55258155697E+02  0.55763955108E+02  0.74470750000E+01 0.  1.
<mgrwt>
<rscale>  0 0.15032258E+02</rscale>
<asrwt>0</asrwt>
<pdfrwt beam="1">  1        2 0.99876321E+00 0.15032258E+02</pdfrwt>
<pdfrwt beam="2">  1       -2 0.99721843E+00 0.15032258E+02</pdfrwt>
<totfact>-0.33574840E-14</totfact>
</mgrwt>
</event>
<event>
 4    1 -0.4882314E-019  0.1496286E+02  0.7818608E-02  0.1869204E+00
         -2   -1    0    0    0  501 -0.00000000000E+00  0.00000000000E+00  0.12011739424E+03  0.12011739427E+03  0.25500000000E-02 0. -1.
          2   -1    0    0  501    0  0.00000000000E+00 -0.00000000000E+00 -0.46597239262E+00  0.46597936991E+00  0.25500000000E-02 0.  1.
         31    1    1    2    0    0 -0.23948176037E+00  0.26877432866E+00  0.54836416292E+02  0.55340952910E+02  0.74470750000E+01 0.  1.
        -31    1    1    2    0    0  0.23948176037E+00 -0.26877432866E+00  0.64815005560E+02  0.65242420732E+02  0.74470750000E+01 0. -1.
<mgrwt>
<rscale>  0 0.14962862E+02</rscale>
<asrwt>0</asrwt>
<pdfrwt beam="2">  1        2 0.98971259E+00 0.14962862E+02</pdfrwt>
<pdfrwt beam="1">  1       -2 0.99706770E+00 0.14962862E+02</pdfrwt>
<totfact>-0.14493820E-13</totfact>
</mgrwt>
</event>
<event>
 4    1 -0.4882314E-019  0.1492321E+02  0.7818608E-02  0.1870421E+00
          2   -1    0    0  501    0  0.00000000000E+00  0.00000000000E+00  0.11911135039E+03  0.11911135042E+03  0.25500000000E-02 0.  1.
         -2   -1    0    0    0  501 -0.00000000000E+00 -0.00000000000E+00 -0.46742112872E+00  0.46742808439E+00  0.25500000000E-02 0. -1.
         31    1    1    2    0    0  0.11386829424E+00 -0.45068293957E+00  0.59130290746E+02  0.59599213844E+02  0.74470750000E+01 0. -1.
        -31    1    1    2    0    0 -0.11386829424E+00  0.45068293957E+00  0.59513638513E+02  0.59979564656E+02  0.74470750000E+01 0. -1.
<mgrwt>
<rscale>  0 0.14923214E+02</rscale>
<asrwt>0</asrwt>
<pdfrwt beam="1">  1        2 0.98876101E+00 0.14923214E+02</pdfrwt>
<pdfrwt beam="2">  1       -2 0.99274519E+00 0.14923214E+02</pdfrwt>
<totfact>-0.16776738E-13</totfact>
</mgrwt>
</event>
<event>
 4    1  0.4882314E-019  0.1493519E+02  0.7818608E-02  0.1870053E+00
          2   -1    0    0  501    0  0.00000000000E+00  0.00000000000E+00  0.12001173798E+03  0.12001173800E+03  0.25500000000E-02 0. -1.
         -2   -1    0    0    0  501 -0.00000000000E+00 -0.00000000000E+00 -0.46465894161E+00  0.46466593862E+00  0.25500000000E-02 0.  1.
         31    1    1    2    0    0  0.41058850326E+00 -0.30870797949E+00  0.58117609050E+02  0.58595044938E+02  0.74470750000E+01 0.  1.
        -31    1    1    2    0    0 -0.41058850326E+00  0.30870797949E+00  0.61429469985E+02  0.61881359004E+02  0.74470750000E+01 0. -1.
<mgrwt>
<rscale>  0 0.14935187E+02</rscale>
<asrwt>0</asrwt>
<pdfrwt beam="1">  1        2 0.99618320E+00 0.14935187E+02</pdfrwt>
<pdfrwt beam="2">  1       -2 0.98693030E+00 0.14935187E+02</pdfrwt>
<totfact> 0.21769531E-13</totfact>
</mgrwt>
</event>
<event>
 4    1  0.4882314E-019  0.1493488E+02  0.7818608E-02  0.1870062E+00
          2   -1    0    0  501    0  0.00000000000E+00  0.00000000000E+00  0.11965033682E+03  0.11965033685E+03  0.25500000000E-02 0.  1.
         -2   -1    0    0    0  501 -0.00000000000E+00 -0.00000000000E+00 -0.46604341171E+00  0.46605038794E+00  0.25500000000E-02 0. -1.
         31    1    1    2    0    0 -0.42468799509E+00 -0.25527550705E+00  0.57651539835E+02  0.58132645707E+02  0.74470750000E+01 0.  1.
        -31    1    1    2    0    0  0.42468799509E+00  0.25527550705E+00  0.61532753577E+02  0.61983741532E+02  0.74470750000E+01 0.  1.
<mgrwt>
<rscale>  0 0.14934882E+02</rscale>
<asrwt>0</asrwt>
<pdfrwt beam="1">  1        2 0.99320633E+00 0.14934882E+02</pdfrwt>
<pdfrwt beam="2">  1       -2 0.98984791E+00 0.14934882E+02</pdfrwt>
<totfact> 0.19996210E-14</totfact>
</mgrwt>
</event>
<event>
 4    1 -0.4882314E-019  0.1496482E+02  0.7818608E-02  0.1869144E+00
          2   -1    0    0  501    0  0.00000000000E+00  0.00000000000E+00  0.11920650513E+03  0.11920650516E+03  0.25500000000E-02 0. -1.
         -2   -1    0    0    0  501 -0.00000000000E+00 -0.00000000000E+00 -0.46965575458E+00  0.46966267715E+00  0.25500000000E-02 0.  1.
         31    1    1    2    0    0 -0.12602715040E+00 -0.20897079017E+00  0.64839091981E+02  0.65265812847E+02  0.74470750000E+01 0. -1.
        -31    1    1    2    0    0  0.12602715040E+00  0.20897079017E+00  0.53897757399E+02  0.54410354992E+02  0.74470750000E+01 0.  1.
<mgrwt>
<rscale>  0 0.14964817E+02</rscale>
<asrwt>0</asrwt>
<pdfrwt beam="1">  1        2 0.98956629E+00 0.14964817E+02</pdfrwt>
<pdfrwt beam="2">  1       -2 0.99747567E+00 0.14964817E+02</pdfrwt>
<totfact>-0.13252193E-13</totfact>
</mgrwt>
</event>
<event>
 4    1 -0.4882314E-019  0.1492420E+02  0.7818608E-02  0.1870390E+00
          2   -1    0    0  501    0  0.00000000000E+00  0.00000000000E+00  0.11897248225E+03  0.11897248228E+03  0.25500000000E-02 0. -1.
         -2   -1    0    0    0  501 -0.00000000000E+00 -0.00000000000E+00 -0.46802864083E+00  0.46803558747E+00  0.25500000000E-02 0.  1.
         31    1    1    2    0    0  0.36370471805E+00  0.70082542928E-01  0.56893988116E+02  0.57380501936E+02  0.74470750000E+01 0.  1.
        -31    1    1    2    0    0 -0.36370471805E+00 -0.70082542928E-01  0.61610465498E+02  0.62060015933E+02  0.74470750000E+01 0. -1.
<mgrwt>
<rscale>  0 0.14924201E+02</rscale>
<asrwt>0</asrwt>
<pdfrwt beam="1">  1        2 0.98761777E+00 0.14924201E+02</pdfrwt>
<pdfrwt beam="2">  1       -2 0.99402586E+00 0.14924201E+02</pdfrwt>
<totfact>-0.23002644E-13</totfact>
</mgrwt>
</event>
<event>
 4    1 -0.4882314E-019  0.1498353E+02  0.7818608E-02  0.1868572E+00
          2   -1    0    0  501    0  0.00000000000E+00  0.00000000000E+00  0.11931821218E+03  0.11931821221E+03  0.25500000000E-02 0. -1.
         -2   -1    0    0    0  501 -0.00000000000E+00 -0.00000000000E+00 -0.47039020050E+00  0.47039711226E+00  0.25500000000E-02 0.  1.
         31    1    1    2    0    0 -0.37368203143E-01  0.80880697334E+00  0.58546598462E+02  0.59023882307E+02  0.74470750000E+01 0.  1.
        -31    1    1    2    0    0  0.37368203143E-01 -0.80880697334E+00  0.60301223519E+02  0.60764727013E+02  0.74470750000E+01 0. -1.
<mgrwt>
<rscale>  0 0.14983529E+02</rscale>
<asrwt>0</asrwt>
<pdfrwt beam="1">  1        2 0.99049603E+00 0.14983529E+02</pdfrwt>
<pdfrwt beam="2">  1       -2 0.99903304E+00 0.14983529E+02</pdfrwt>
<totfact>-0.53801428E-14</totfact>
</mgrwt>
</event>
<event>
 4    1  0.4882314E-019  0.1490943E+02  0.7818608E-02  0.1870845E+00
          2   -1    0    0  501    0  0.00000000000E+00  0.00000000000E+00  0.11985185572E+03  0.11985185574E+03  0.25500000000E-02 0. -1.
         -2   -1    0    0    0  501 -0.00000000000E+00 -0.00000000000E+00 -0.46367533020E+00  0.46368234206E+00  0.25500000000E-02 0.  1.
         31    1    1    2    0    0  0.28900426975E+00 -0.30462263086E-01  0.58310537862E+02  0.58784880736E+02  0.74470750000E+01 0. -1.
        -31    1    1    2    0    0 -0.28900426975E+00  0.30462263086E-01  0.61077642526E+02  0.61530657351E+02  0.74470750000E+01 0. -1.
<mgrwt>
<rscale>  0 0.14909430E+02</rscale>
<asrwt>0</asrwt>
<pdfrwt beam="1">  1        2 0.99485305E+00 0.14909430E+02</pdfrwt>
<pdfrwt beam="2">  1       -2 0.98484413E+00 0.14909430E+02</pdfrwt>
<totfact> 0.51396346E-13</totfact>
</mgrwt>
</event>
<event>
 4    1 -0.4882314E-019  0.1500820E+02  0.7818608E-02  0.1867818E+00
         -2   -1    0    0    0  501 -0.00000000000E+00  0.00000000000E+00  0.11966841944E+03  0.11966841947E+03  0.25500000000E-02 0.  1.
          2   -1    0    0  501    0  0.00000000000E+00 -0.00000000000E+00 -0.47055942688E+00  0.47056633616E+00  0.25500000000E-02 0. -1.
         31    1    1    2    0    0 -0.77159179342E+00 -0.22164218094E+00  0.63250724530E+02  0.63692680574E+02  0.74470750000E+01 0.  1.
        -31    1    1    2    0    0  0.77159179342E+00  0.22164218094E+00  0.55947135482E+02  0.56446305228E+02  0.74470750000E+01 0. -1.
<mgrwt>
<rscale>  0 0.15008200E+02</rscale>
<asrwt>0</asrwt>
<pdfrwt beam="2">  1        2 0.99940253E+00 0.15008200E+02</pdfrwt>
<pdfrwt beam="1">  1       -2 0.99339319E+00 0.15008200E+02</pdfrwt>
<totfact>-0.21075831E-14</totfact>
</mgrwt>
</event>
<event>
 4    1 -0.4882314E-019  0.1500893E+02  0.7818608E-02  0.1867796E+00
         -2   -1    0    0    0  501 -0.00000000000E+00  0.00000000000E+00  0.12000874152E+03  0.12000874155E+03  0.25500000000E-02 0.  1.
          2   -1    0    0  501    0  0.00000000000E+00 -0.00000000000E+00 -0.46927066809E+00  0.46927759634E+00  0.25500000000E-02 0. -1.
         31    1    1    2    0    0 -0.48625515092E+00  0.59029514792E+00  0.63965245238E+02  0.64401835509E+02  0.74470750000E+01 0. -1.
        -31    1    1    2    0    0  0.48625515092E+00 -0.59029514792E+00  0.55574225615E+02  0.56076183636E+02  0.74470750000E+01 0. -1.
<mgrwt>
<rscale>  0 0.15008931E+02</rscale>
<asrwt>0</asrwt>
<pdfrwt beam="2">  1        2 0.99668715E+00 0.15008931E+02</pdfrwt>
<pdfrwt beam="1">  1       -2 0.99619656E+00 0.15008931E+02</pdfrwt>
<totfact>-0.86235558E-14</totfact>
</mgrwt>
</event>
<event>
 4    1 -0.4882314E-019  0.1493711E+02  0.7818608E-02  0.1869994E+00
         -2   -1    0    0    0  501 -0.00000000000E+00  0.00000000000E+00  0.12000919725E+03  0.12000919727E+03  0.25500000000E-02 0. -1.
          2   -1    0    0  501    0  0.00000000000E+00 -0.00000000000E+00 -0.46478869360E+00  0.46479568866E+00  0.25500000000E-02 0.  1.
         31    1    1    2    0    0 -0.31079163364E+00 -0.44463986456E+00  0.58468725287E+02  0.58943575212E+02  0.74470750000E+01 0. -1.
        -31    1    1    2    0    0  0.31079163364E+00  0.44463986456E+00  0.61075683266E+02  0.61530417750E+02  0.74470750000E+01 0. -1.
<mgrwt>
<rscale>  0 0.14937114E+02</rscale>
<asrwt>0</asrwt>
<pdfrwt beam="2">  1        2 0.98720474E+00 0.14937114E+02</pdfrwt>
<pdfrwt beam="1">  1       -2 0.99616327E+00 0.14937114E+02</pdfrwt>
<totfact>-0.22863725E-13</totfact>
</mgrwt>
</event>
<event>
 4    1  0.4882314E-019  0.1494393E+02  0.7818608E-02  0.1869784E+00
         -2   -1    0    0    0  501 -0.00000000000E+00  0.00000000000E+00  0.11912448378E+03  0.11912448381E+03  0.25500000000E-02 0.  1.
          2   -1    0    0  501    0  0.00000000000E+00 -0.00000000000E+00 -0.46866797942E+00  0.46867491658E+00  0.25500000000E-02 0. -1.
         31    1    1    2    0    0  0.21131233349E+00 -0.13956066356E+00  0.63763443916E+02  0.64197350694E+02  0.74470750000E+01 0.  1.
        -31    1    1    2    0    0 -0.21131233349E+00  0.13956066356E+00  0.54892371887E+02  0.55395808032E+02  0.74470750000E+01 0. -1.
<mgrwt>
<rscale>  0 0.14943928E+02</rscale>
<asrwt>0</asrwt>
<pdfrwt beam="2">  1        2 0.99538336E+00 0.14943928E+02</pdfrwt>
<pdfrwt beam="1">  1       -2 0.98887991E+00 0.14943928E+02</pdfrwt>
<totfact> 0.77790919E-14</totfact>
</mgrwt>
</event>
<event>
 4    1 -0.4882314E-019  0.1490291E+02  0.7818608E-02  0.1871046E+00
          2   -1    0    0  501    0  0.00000000000E+00  0.00000000000E+00  0.11872563596E+03  0.11872563599E+03  0.25500000000E-02 0. -1.
         -2   -1    0    0    0  501 -0.00000000000E+00 -0.00000000000E+00 -0.46766481208E+00  0.46767176412E+00  0.25500000000E-02 0.  1.
         31    1    1    2    0    0 -0.46664298209E-01  0.22834332906E+00  0.58291145734E+02  0.58765388753E+02  0.74470750000E+01 0.  1.
        -31    1    1    2    0    0  0.46664298209E-01 -0.22834332906E+00  0.59966825414E+02  0.60427918999E+02  0.74470750000E+01 0. -1.
<mgrwt>
<rscale>  0 0.14902915E+02</rscale>
<asrwt>0</asrwt>
<pdfrwt beam="1">  1        2 0.98557366E+00 0.14902915E+02</pdfrwt>
<pdfrwt beam="2">  1       -2 0.99324809E+00 0.14902915E+02</pdfrwt>
<totfact>-0.28640020E-13</totfact>
</mgrwt>
</event>
<event>
 4    1 -0.4882314E-019  0.1493310E+02  0.7818608E-02  0.1870117E+00
          2   -1    0    0  501    0  0.00000000000E+00  0.00000000000E+00  0.11894867654E+03  0.11894867657E+03  0.25500000000E-02 0. -1.
         -2   -1    0    0    0  501 -0.00000000000E+00 -0.00000000000E+00 -0.46868057859E+00  0.46868751557E+00  0.25500000000E-02 0.  1.
         31    1    1    2    0    0 -0.36639563833E+00  0.21396434146E+00  0.56582959650E+02  0.57072500167E+02  0.74470750000E+01 0.  1.
        -31    1    1    2    0    0  0.36639563833E+00 -0.21396434146E+00  0.61897036314E+02  0.62344863918E+02  0.74470750000E+01 0. -1.
<mgrwt>
<rscale>  0 0.14933098E+02</rscale>
<asrwt>0</asrwt>
<pdfrwt beam="1">  1        2 0.98742632E+00 0.14933098E+02</pdfrwt>
<pdfrwt beam="2">  1       -2 0.99540424E+00 0.14933098E+02</pdfrwt>
<totfact>-0.23708046E-13</totfact>
</mgrwt>
</event>
<event>
 4    1 -0.4882314E-019  0.1498849E+02  0.7818608E-02  0.1868420E+00
          2   -1    0    0  501    0  0.00000000000E+00  0.00000000000E+00  0.11932952144E+03  0.11932952147E+03  0.25500000000E-02 0.  1.
         -2   -1    0    0    0  501 -0.00000000000E+00 -0.00000000000E+00 -0.47065728056E+00  0.47066418840E+00  0.25500000000E-02 0. -1.
         31    1    1    2    0    0 -0.59322374758E+00 -0.30058377986E-01  0.64171395790E+02  0.64604796894E+02  0.74470750000E+01 0.  1.
        -31    1    1    2    0    0  0.59322374758E+00  0.30058377986E-01  0.54687468368E+02  0.55195388761E+02  0.74470750000E+01 0. -1.
<mgrwt>
<rscale>  0 0.14988492E+02</rscale>
<asrwt>0</asrwt>
<pdfrwt beam="1">  1        2 0.99059175E+00 0.14988492E+02</pdfrwt>
<pdfrwt beam="2">  1       -2 0.99959841E+00 0.14988492E+02</pdfrwt>
<totfact>-0.23163871E-14</totfact>
</mgrwt>
</event>
<event>
 4    1 -0.4882314E-019  0.1491120E+02  0.7818608E-02  0.1870790E+00
         -2   -1    0    0    0  501 -0.00000000000E+00  0.00000000000E+00  0.12026814707E+03  0.12026814710E+03  0.25500000000E-02 0.  1.
          2   -1    0    0  501    0  0.00000000000E+00 -0.00000000000E+00 -0.46218009672E+00  0.46218713126E+00  0.25500000000E-02 0. -1.
         31    1    1    2    0    0  0.13239185796E+00  0.12663212187E+00  0.57427472033E+02  0.57908609321E+02  0.74470750000E+01 0. -1.
        -31    1    1    2    0    0 -0.13239185796E+00 -0.12663212187E+00  0.62378494941E+02  0.62821724908E+02  0.74470750000E+01 0.  1.
<mgrwt>
<rscale>  0 0.14911200E+02</rscale>
<asrwt>0</asrwt>
<pdfrwt beam="2">  1        2 0.98169356E+00 0.14911200E+02</pdfrwt>
<pdfrwt beam="1">  1       -2 0.99828287E+00 0.14911200E+02</pdfrwt>
<totfact>-0.31650421E-13</totfact>
</mgrwt>
</event>
<event>
 4    1 -0.4882314E-019  0.1503057E+02  0.7818608E-02  0.1867137E+00
          2   -1    0    0  501    0  0.00000000000E+00  0.00000000000E+00  0.12017792962E+03  0.12017792965E+03  0.25500000000E-02 0. -1.
         -2   -1    0    0    0  501 -0.00000000000E+00 -0.00000000000E+00 -0.46996254673E+00  0.46996946478E+00  0.25500000000E-02 0.  1.
         31    1    1    2    0    0  0.83801293571E+00 -0.48778197851E+00  0.57577674943E+02  0.58065375009E+02  0.74470750000E+01 0.  1.
        -31    1    1    2    0    0 -0.83801293571E+00  0.48778197851E+00  0.62130292129E+02  0.62582524102E+02  0.74470750000E+01 0.  1.
<mgrwt>
<rscale>  0 0.15030575E+02</rscale>
<asrwt>0</asrwt>
<pdfrwt beam="1">  1        2 0.99760124E+00 0.15030575E+02</pdfrwt>
<pdfrwt beam="2">  1       -2 0.99815637E+00 0.15030575E+02</pdfrwt>
<totfact>-0.41834923E-14</totfact>
</mgrwt>
</event>
<event>
 4    1  0.4882314E-019  0.1491177E+02  0.7818608E-02  0.1870773E+00
          2   -1    0    0  501    0  0.00000000000E+00  0.00000000000E+00  0.12009728205E+03  0.12009728207E+03  0.25500000000E-02 0.  1.
         -2   -1    0    0    0  501 -0.00000000000E+00 -0.00000000000E+00 -0.46287305272E+00  0.46288007674E+00  0.25500000000E-02 0. -1.
         31    1    1    2    0    0  0.27257125521E+00 -0.10517482494E+00  0.61550047934E+02  0.61999618414E+02  0.74470750000E+01 0.  1.
        -31    1    1    2    0    0 -0.27257125521E+00  0.10517482494E+00  0.58084361059E+02  0.58560543735E+02  0.74470750000E+01 0. -1.
<mgrwt>
<rscale>  0 0.14911770E+02</rscale>
<asrwt>0</asrwt>
<pdfrwt beam="1">  1        2 0.99687577E+00 0.14911770E+02</pdfrwt>
<pdfrwt beam="2">  1       -2 0.98315441E+00 0.14911770E+02</pdfrwt>
<totfact> 0.58373617E-13</totfact>
</mgrwt>
</event>
<event>
 4    1  0.4882314E-019  0.1491801E+02  0.7818608E-02  0.1870581E+00
         -2   -1    0    0    0  501 -0.00000000000E+00  0.00000000000E+00  0.11857199354E+03  0.11857199357E+03  0.25500000000E-02 0.  1.
          2   -1    0    0  501    0  0.00000000000E+00 -0.00000000000E+00 -0.46921983863E+00  0.46922676763E+00  0.25500000000E-02 0. -1.
         31    1    1    2    0    0  0.11121448792E+00  0.70326557575E-01  0.55854472180E+02  0.56348897976E+02  0.74470750000E+01 0. -1.
        -31    1    1    2    0    0 -0.11121448792E+00 -0.70326557575E-01  0.62248301520E+02  0.62692322358E+02  0.74470750000E+01 0.  1.
<mgrwt>
<rscale>  0 0.14918009E+02</rscale>
<asrwt>0</asrwt>
<pdfrwt beam="2">  1        2 0.99653259E+00 0.14918009E+02</pdfrwt>
<pdfrwt beam="1">  1       -2 0.98431610E+00 0.14918009E+02</pdfrwt>
<totfact> 0.47289594E-13</totfact>
</mgrwt>
</event>
<event>
 4    1 -0.4882314E-019  0.1495100E+02  0.7818608E-02  0.1869567E+00
         -2   -1    0    0    0  501 -0.00000000000E+00  0.00000000000E+00  0.11966917001E+03  0.11966917004E+03  0.25500000000E-02 0.  1.
          2   -1    0    0  501    0  0.00000000000E+00 -0.00000000000E+00 -0.46697660435E+00  0.46698356663E+00  0.25500000000E-02 0. -1.
         31    1    1    2    0    0 -0.46990918610E+00 -0.19254658309E+00  0.62877968581E+02  0.63319473685E+02  0.74470750000E+01 0.  1.
        -31    1    1    2    0    0  0.46990918610E+00  0.19254658309E+00  0.56324224824E+02  0.56816679918E+02  0.74470750000E+01 0. -1.
<mgrwt>
<rscale>  0 0.14951003E+02</rscale>
<asrwt>0</asrwt>
<pdfrwt beam="2">  1        2 0.99182283E+00 0.14951003E+02</pdfrwt>
<pdfrwt beam="1">  1       -2 0.99336977E+00 0.14951003E+02</pdfrwt>
<totfact>-0.14100758E-13</totfact>
</mgrwt>
</event>
<event>
 4    1  0.4882314E-019  0.1493434E+02  0.7818608E-02  0.1870079E+00
          2   -1    0    0  501    0  0.00000000000E+00  0.00000000000E+00  0.11977505695E+03  0.11977505697E+03  0.25500000000E-02 0. -1.
         -2   -1    0    0    0  501 -0.00000000000E+00 -0.00000000000E+00 -0.46552421184E+00  0.46553119585E+00  0.25500000000E-02 0.  1.
         31    1    1    2    0    0  0.35575791638E+00 -0.29596877070E+00  0.62009312341E+02  0.62456608171E+02  0.74470750000E+01 0. -1.
        -31    1    1    2    0    0 -0.35575791638E+00  0.29596877070E+00  0.57300220393E+02  0.57783979998E+02  0.74470750000E+01 0. -1.
<mgrwt>
<rscale>  0 0.14934338E+02</rscale>
<asrwt>0</asrwt>
<pdfrwt beam="1">  1        2 0.99423331E+00 0.14934338E+02</pdfrwt>
<pdfrwt beam="2">  1       -2 0.98875344E+00 0.14934338E+02</pdfrwt>
<totfact> 0.97182748E-14</totfact>
</mgrwt>
</event>
<event>
 4    1 -0.4882314E-019  0.1500429E+02  0.7818608E-02  0.1867938E+00
          2   -1    0    0  501    0  0.00000000000E+00  0.00000000000E+00  0.11977033345E+03  0.11977033348E+03  0.25500000000E-02 0. -1.
         -2   -1    0    0    0  501 -0.00000000000E+00 -0.00000000000E+00 -0.46991377389E+00  0.46992069266E+00  0.25500000000E-02 0.  1.
         31    1    1    2    0    0  0.31754447832E+00 -0.83857776518E-01  0.52872309807E+02  0.53395205187E+02  0.74470750000E+01 0.  1.
        -31    1    1    2    0    0 -0.31754447832E+00  0.83857776518E-01  0.66428109871E+02  0.66845048984E+02  0.74470750000E+01 0. -1.
<mgrwt>
<rscale>  0 0.15004286E+02</rscale>
<asrwt>0</asrwt>
<pdfrwt beam="1">  1        2 0.99423055E+00 0.15004286E+02</pdfrwt>
<pdfrwt beam="2">  1       -2 0.99803995E+00 0.15004286E+02</pdfrwt>
<totfact>-0.74961451E-14</totfact>
</mgrwt>
</event>
<event>
 4    1  0.4882314E-019  0.1493002E+02  0.7818608E-02  0.1870211E+00
          2   -1    0    0  501    0  0.00000000000E+00  0.00000000000E+00  0.12043359853E+03  0.12043359855E+03  0.25500000000E-02 0.  1.
         -2   -1    0    0    0  501 -0.00000000000E+00 -0.00000000000E+00 -0.46271120195E+00  0.46271822842E+00  0.25500000000E-02 0. -1.
         31    1    1    2    0    0  0.85686343781E-01  0.18796437411E+00  0.56146132392E+02  0.56638236038E+02  0.74470750000E+01 0. -1.
        -31    1    1    2    0    0 -0.85686343781E-01 -0.18796437411E+00  0.63824754933E+02  0.64258080745E+02  0.74470750000E+01 0.  1.
<mgrwt>
<rscale>  0 0.14930024E+02</rscale>
<asrwt>0</asrwt>
<pdfrwt beam="1">  1        2 0.99965533E+00 0.14930024E+02</pdfrwt>
<pdfrwt beam="2">  1       -2 0.98282249E+00 0.14930024E+02</pdfrwt>
<totfact> 0.94107771E-14</totfact>
</mgrwt>
</event>
<event>
 4    1 -0.4882314E-019  0.1493818E+02  0.7818608E-02  0.1869961E+00
         -2   -1    0    0    0  501 -0.00000000000E+00  0.00000000000E+00  0.11996811800E+03  0.11996811803E+03  0.25500000000E-02 0. -1.
          2   -1    0    0  501    0  0.00000000000E+00 -0.00000000000E+00 -0.46501415666E+00  0.46502114833E+00  0.25500000000E-02 0.  1.
         31    1    1    2    0    0  0.74922527810E-01  0.19855194482E+00  0.64042935726E+02  0.64474813522E+02  0.74470750000E+01 0. -1.
        -31    1    1    2    0    0 -0.74922527810E-01 -0.19855194482E+00  0.55460168121E+02  0.55958325657E+02  0.74470750000E+01 0.  1.
<mgrwt>
<rscale>  0 0.14938179E+02</rscale>
<asrwt>0</asrwt>
<pdfrwt beam="2">  1        2 0.98768046E+00 0.14938179E+02</pdfrwt>
<pdfrwt beam="1">  1       -2 0.99582546E+00 0.14938179E+02</pdfrwt>
<totfact>-0.22217449E-13</totfact>
</mgrwt>
</event>
<event>
 4    1 -0.4882314E-019  0.1500901E+02  0.7818608E-02  0.1867794E+00
         -2   -1    0    0    0  501 -0.00000000000E+00  0.00000000000E+00  0.12011211340E+03  0.12011211343E+03  0.25500000000E-02 0. -1.
          2   -1    0    0  501    0  0.00000000000E+00 -0.00000000000E+00 -0.46887174324E+00  0.46887867739E+00  0.25500000000E-02 0.  1.
         31    1    1    2    0    0  0.70985447339E+00 -0.58479247482E+00  0.58912900256E+02  0.59388842540E+02  0.74470750000E+01 0.  1.
        -31    1    1    2    0    0 -0.70985447339E+00  0.58479247482E+00  0.60730341403E+02  0.61192149567E+02  0.74470750000E+01 0. -1.
<mgrwt>
<rscale>  0 0.15009010E+02</rscale>
<asrwt>0</asrwt>
<pdfrwt beam="2">  1        2 0.99584652E+00 0.15009010E+02</pdfrwt>
<pdfrwt beam="1">  1       -2 0.99704801E+00 0.15009010E+02</pdfrwt>
<totfact>-0.85515481E-14</totfact>
</mgrwt>
</event>
<event>
 4    1  0.4882314E-019  0.1490310E+02  0.7818608E-02  0.1871040E+00
         -2   -1    0    0    0  501 -0.00000000000E+00  0.00000000000E+00  0.11821712690E+03  0.11821712692E+03  0.25500000000E-02 0.  1.
          2   -1    0    0  501    0  0.00000000000E+00 -0.00000000000E+00 -0.46968797152E+00  0.46969489361E+00  0.25500000000E-02 0. -1.
         31    1    1    2    0    0  0.54721128925E-01  0.25215005056E+00  0.58942614230E+02  0.59411760388E+02  0.74470750000E+01 0. -1.
        -31    1    1    2    0    0 -0.54721128925E-01 -0.25215005056E+00  0.58804824695E+02  0.59275061429E+02  0.74470750000E+01 0.  1.
<mgrwt>
<rscale>  0 0.14903097E+02</rscale>
<asrwt>0</asrwt>
<pdfrwt beam="2">  1        2 0.99751106E+00 0.14903097E+02</pdfrwt>
<pdfrwt beam="1">  1       -2 0.98138568E+00 0.14903097E+02</pdfrwt>
<totfact> 0.71585615E-13</totfact>
</mgrwt>
</event>
<event>
 4    1 -0.4882314E-019  0.1495671E+02  0.7818608E-02  0.1869392E+00
         -2   -1    0    0    0  501 -0.00000000000E+00  0.00000000000E+00  0.11937991407E+03  0.11937991410E+03  0.25500000000E-02 0. -1.
          2   -1    0    0  501    0  0.00000000000E+00 -0.00000000000E+00 -0.46846551955E+00  0.46847245971E+00  0.25500000000E-02 0.  1.
         31    1    1    2    0    0  0.35894252537E+00  0.42387282842E+00  0.62644432532E+02  0.63087973190E+02  0.74470750000E+01 0.  1.
        -31    1    1    2    0    0 -0.35894252537E+00 -0.42387282842E+00  0.56267016020E+02  0.56760413368E+02  0.74470750000E+01 0.  1.
<mgrwt>
<rscale>  0 0.14956710E+02</rscale>
<asrwt>0</asrwt>
<pdfrwt beam="2">  1        2 0.99496339E+00 0.14956710E+02</pdfrwt>
<pdfrwt beam="1">  1       -2 0.99099031E+00 0.14956710E+02</pdfrwt>
<totfact>-0.41492846E-14</totfact>
</mgrwt>
</event>
<event>
 4    1  0.4882314E-019  0.1492779E+02  0.7818608E-02  0.1870280E+00
          2   -1    0    0  501    0  0.00000000000E+00  0.00000000000E+00  0.12008969684E+03  0.12008969687E+03  0.25500000000E-02 0.  1.
         -2   -1    0    0    0  501 -0.00000000000E+00 -0.00000000000E+00 -0.46389734546E+00  0.46390435396E+00  0.25500000000E-02 0. -1.
         31    1    1    2    0    0  0.26358733443E+00  0.10914082783E-01  0.56375306569E+02  0.56865663754E+02  0.74470750000E+01 0. -1.
        -31    1    1    2    0    0 -0.26358733443E+00 -0.10914082783E-01  0.63250492925E+02  0.63687937466E+02  0.74470750000E+01 0.  1.
<mgrwt>
<rscale>  0 0.14927788E+02</rscale>
<asrwt>0</asrwt>
<pdfrwt beam="1">  1        2 0.99682152E+00 0.14927788E+02</pdfrwt>
<pdfrwt beam="2">  1       -2 0.98532139E+00 0.14927788E+02</pdfrwt>
<totfact> 0.33886069E-13</totfact>
</mgrwt>
</event>
<event>
 4    1 -0.4882314E-019  0.1494980E+02  0.7818608E-02  0.1869604E+00
         -2   -1    0    0    0  501 -0.00000000000E+00  0.00000000000E+00  0.12019390874E+03  0.12019390876E+03  0.25500000000E-02 0.  1.
          2   -1    0    0  501    0  0.00000000000E+00 -0.00000000000E+00 -0.46486297531E+00  0.46486996925E+00  0.25500000000E-02 0. -1.
         31    1    1    2    0    0 -0.59562310951E+00 -0.10743192776E+00  0.61649038832E+02  0.62100154778E+02  0.74470750000E+01 0. -1.
        -31    1    1    2    0    0  0.59562310951E+00  0.10743192776E+00  0.58080006928E+02  0.58558623953E+02  0.74470750000E+01 0.  1.
<mgrwt>
<rscale>  0 0.14949799E+02</rscale>
<asrwt>0</asrwt>
<pdfrwt beam="2">  1        2 0.98736776E+00 0.14949799E+02</pdfrwt>
<pdfrwt beam="1">  1       -2 0.99769120E+00 0.14949799E+02</pdfrwt>
<totfact>-0.16143376E-13</totfact>
</mgrwt>
</event>
<event>
 4    1 -0.4882314E-019  0.1489617E+02  0.7818608E-02  0.1871254E+00
         -2   -1    0    0    0  501 -0.00000000000E+00  0.00000000000E+00  0.12029667112E+03  0.12029667115E+03  0.25500000000E-02 0.  1.
          2   -1    0    0  501    0  0.00000000000E+00 -0.00000000000E+00 -0.46113948952E+00  0.46114653994E+00  0.25500000000E-02 0. -1.
         31    1    1    2    0    0  0.87800416706E-01 -0.58341071033E-01  0.59409292293E+02  0.59874318781E+02  0.74470750000E+01 0. -1.
        -31    1    1    2    0    0 -0.87800416706E-01  0.58341071033E-01  0.60426239338E+02  0.60883498907E+02  0.74470750000E+01 0.  1.
<mgrwt>
<rscale>  0 0.14896170E+02</rscale>
<asrwt>0</asrwt>
<pdfrwt beam="2">  1        2 0.97949263E+00 0.14896170E+02</pdfrwt>
<pdfrwt beam="1">  1       -2 0.99851013E+00 0.14896170E+02</pdfrwt>
<totfact>-0.40366077E-13</totfact>
</mgrwt>
</event>
<event>
 4    1 -0.4882314E-019  0.1501153E+02  0.7818608E-02  0.1867717E+00
         -2   -1    0    0    0  501 -0.00000000000E+00  0.00000000000E+00  0.12023556318E+03  0.12023556321E+03  0.25500000000E-02 0. -1.
          2   -1    0    0  501    0  0.00000000000E+00 -0.00000000000E+00 -0.46854732987E+00  0.46855426882E+00  0.25500000000E-02 0.  1.
         31    1    1    2    0    0  0.58252441780E+00 -0.55593929784E+00  0.56034482405E+02  0.56532915612E+02  0.74470750000E+01 0.  1.
        -31    1    1    2    0    0 -0.58252441780E+00  0.55593929784E+00  0.63732533450E+02  0.64171201869E+02  0.74470750000E+01 0. -1.
<mgrwt>
<rscale>  0 0.15011525E+02</rscale>
<asrwt>0</asrwt>
<pdfrwt beam="2">  1        2 0.99516415E+00 0.15011525E+02</pdfrwt>
<pdfrwt beam="1">  1       -2 0.99806610E+00 0.15011525E+02</pdfrwt>
<totfact>-0.67835142E-14</totfact>
</mgrwt>
</event>
<event>
 4    1 -0.4882314E-019  0.1497797E+02  0.7818608E-02  0.1868742E+00
          2   -1    0    0  501    0  0.00000000000E+00  0.00000000000E+00  0.11996034256E+03  0.11996034259E+03  0.25500000000E-02 0.  1.
         -2   -1    0    0    0  501 -0.00000000000E+00 -0.00000000000E+00 -0.46752502134E+00  0.46753197546E+00  0.25500000000E-02 0. -1.
         31    1    1    2    0    0  0.60879592202E+00  0.20242646035E+00  0.56023924200E+02  0.56520355782E+02  0.74470750000E+01 0. -1.
        -31    1    1    2    0    0 -0.60879592202E+00 -0.20242646035E+00  0.63468893338E+02  0.63907518780E+02  0.74470750000E+01 0.  1.
<mgrwt>
<rscale>  0 0.14977968E+02</rscale>
<asrwt>0</asrwt>
<pdfrwt beam="1">  1        2 0.99578193E+00 0.14977968E+02</pdfrwt>
<pdfrwt beam="2">  1       -2 0.99299245E+00 0.14977968E+02</pdfrwt>
<totfact>-0.94270154E-14</totfact>
</mgrwt>
</event>
<event>
 4    1  0.4882314E-019  0.1490938E+02  0.7818608E-02  0.1870846E+00
         -2   -1    0    0    0  501 -0.00000000000E+00  0.00000000000E+00  0.11914429139E+03  0.11914429142E+03  0.25500000000E-02 0. -1.
          2   -1    0    0  501    0  0.00000000000E+00 -0.00000000000E+00 -0.46642595307E+00  0.46643292358E+00  0.25500000000E-02 0.  1.
         31    1    1    2    0    0  0.33199138091E+00 -0.50117921365E-01  0.59558935736E+02  0.60023649357E+02  0.74470750000E+01 0.  1.
        -31    1    1    2    0    0 -0.33199138091E+00  0.50117921365E-01  0.59118929702E+02  0.59587074984E+02  0.74470750000E+01 0.  1.
<mgrwt>
<rscale>  0 0.14909381E+02</rscale>
<asrwt>0</asrwt>
<pdfrwt beam="2">  1        2 0.99064090E+00 0.14909381E+02</pdfrwt>
<pdfrwt beam="1">  1       -2 0.98902516E+00 0.14909381E+02</pdfrwt>
<totfact> 0.99784440E-14</totfact>
</mgrwt>
</event>
<event>
 4    1 -0.4882314E-019  0.1499430E+02  0.7818608E-02  0.1868242E+00
          2   -1    0    0  501    0  0.00000000000E+00  0.00000000000E+00  0.11983348727E+03  0.11983348730E+03  0.25500000000E-02 0. -1.
         -2   -1    0    0    0  501 -0.00000000000E+00 -0.00000000000E+00 -0.46904129411E+00  0.46904822575E+00  0.25500000000E-02 0.  1.
         31    1    1    2    0    0 -0.26401744954E+00 -0.38780718645E+00  0.53850901510E+02  0.54365417493E+02  0.74470750000E+01 0.  1.
        -31    1    1    2    0    0  0.26401744954E+00  0.38780718645E+00  0.65513544468E+02  0.65937118032E+02  0.74470750000E+01 0. -1.
<mgrwt>
<rscale>  0 0.14994302E+02</rscale>
<asrwt>0</asrwt>
<pdfrwt beam="1">  1        2 0.99474554E+00 0.14994302E+02</pdfrwt>
<pdfrwt beam="2">  1       -2 0.99619622E+00 0.14994302E+02</pdfrwt>
<totfact>-0.11223636E-13</totfact>
</mgrwt>
</event>
<event>
 4    1 -0.4882314E-019  0.1493436E+02  0.7818608E-02  0.1870078E+00
          2   -1    0    0  501    0  0.00000000000E+00  0.00000000000E+00  0.11884834346E+03  0.11884834349E+03  0.25500000000E-02 0. -1.
         -2   -1    0    0    0  501 -0.00000000000E+00 -0.00000000000E+00 -0.46915527421E+00  0.46916220417E+00  0.25500000000E-02 0.  1.
         31    1    1    2    0    0  0.37277516118E+00  0.37164056707E+00  0.57984848976E+02  0.58463481892E+02  0.74470750000E+01 0.  1.
        -31    1    1    2    0    0 -0.37277516118E+00 -0.37164056707E+00  0.60394339208E+02  0.60854023798E+02  0.74470750000E+01 0. -1.
<mgrwt>
<rscale>  0 0.14934355E+02</rscale>
<asrwt>0</asrwt>
<pdfrwt beam="1">  1        2 0.98660062E+00 0.14934355E+02</pdfrwt>
<pdfrwt beam="2">  1       -2 0.99640514E+00 0.14934355E+02</pdfrwt>
<totfact>-0.24135062E-13</totfact>
</mgrwt>
</event>
<event>
 4    1 -0.4882314E-019  0.1497374E+02  0.7818608E-02  0.1868871E+00
          2   -1    0    0  501    0  0.00000000000E+00  0.00000000000E+00  0.11926008947E+03  0.11926008950E+03  0.25500000000E-02 0. -1.
         -2   -1    0    0    0  501 -0.00000000000E+00 -0.00000000000E+00 -0.47000461325E+00  0.47001153069E+00  0.25500000000E-02 0.  1.
         31    1    1    2    0    0 -0.34118905793E+00  0.68839458920E+00  0.58890290152E+02  0.59364261112E+02  0.74470750000E+01 0.  1.
        -31    1    1    2    0    0  0.34118905793E+00 -0.68839458920E+00  0.59899794708E+02  0.60365839920E+02  0.74470750000E+01 0. -1.
<mgrwt>
<rscale>  0 0.14973738E+02</rscale>
<asrwt>0</asrwt>
<pdfrwt beam="1">  1        2 0.99001225E+00 0.14973738E+02</pdfrwt>
<pdfrwt beam="2">  1       -2 0.99821544E+00 0.14973738E+02</pdfrwt>
<totfact>-0.96581539E-14</totfact>
</mgrwt>
</event>
<event>
 4    1  0.4882314E-019  0.1492096E+02  0.7818608E-02  0.1870490E+00
         -2   -1    0    0    0  501 -0.00000000000E+00  0.00000000000E+00  0.11853109057E+03  0.11853109060E+03  0.25500000000E-02 0.  1.
          2   -1    0    0  501    0  0.00000000000E+00 -0.00000000000E+00 -0.46956743124E+00  0.46957435511E+00  0.25500000000E-02 0. -1.
         31    1    1    2    0    0  0.19110525089E+00 -0.40087007005E+00  0.58623372272E+02  0.59096158256E+02  0.74470750000E+01 0.  1.
        -31    1    1    2    0    0 -0.19110525089E+00  0.40087007005E+00  0.59438150866E+02  0.59904506696E+02  0.74470750000E+01 0. -1.
<mgrwt>
<rscale>  0 0.14920959E+02</rscale>
<asrwt>0</asrwt>
<pdfrwt beam="2">  1        2 0.99726653E+00 0.14920959E+02</pdfrwt>
<pdfrwt beam="1">  1       -2 0.98398076E+00 0.14920959E+02</pdfrwt>
<totfact> 0.43909348E-13</totfact>
</mgrwt>
</event>
<event>
 4    1  0.4882314E-019  0.1492282E+02  0.7818608E-02  0.1870433E+00
         -2   -1    0    0    0  501 -0.00000000000E+00  0.00000000000E+00  0.11877179720E+03  0.11877179723E+03  0.25500000000E-02 0. -1.
          2   -1    0    0  501    0  0.00000000000E+00 -0.00000000000E+00 -0.46873288878E+00  0.46873982498E+00  0.25500000000E-02 0.  1.
         31    1    1    2    0    0 -0.44708675684E+00  0.85990608619E-01  0.58509514544E+02  0.58983298476E+02  0.74470750000E+01 0.  1.
        -31    1    1    2    0    0  0.44708675684E+00 -0.85990608619E-01  0.59793549769E+02  0.60257238577E+02  0.74470750000E+01 0. -1.
<mgrwt>
<rscale>  0 0.14922823E+02</rscale>
<asrwt>0</asrwt>
<pdfrwt beam="2">  1        2 0.99550908E+00 0.14922823E+02</pdfrwt>
<pdfrwt beam="1">  1       -2 0.98596419E+00 0.14922823E+02</pdfrwt>
<totfact> 0.34092957E-13</totfact>
</mgrwt>
</event>
<event>
 4    1 -0.4882314E-019  0.1499185E+02  0.7818608E-02  0.1868317E+00
         -2   -1    0    0    0  501 -0.00000000000E+00  0.00000000000E+00  0.11995230974E+03  0.11995230976E+03  0.25500000000E-02 0. -1.
          2   -1    0    0  501    0  0.00000000000E+00 -0.00000000000E+00 -0.46842356857E+00  0.46843050936E+00  0.25500000000E-02 0.  1.
         31    1    1    2    0    0  0.74508084481E+00  0.32846237823E+00  0.57663588866E+02  0.58148185182E+02  0.74470750000E+01 0.  1.
        -31    1    1    2    0    0 -0.74508084481E+00 -0.32846237823E+00  0.61820297301E+02  0.62272555090E+02  0.74470750000E+01 0. -1.
<mgrwt>
<rscale>  0 0.14991852E+02</rscale>
<asrwt>0</asrwt>
<pdfrwt beam="2">  1        2 0.99489320E+00 0.14991852E+02</pdfrwt>
<pdfrwt beam="1">  1       -2 0.99572293E+00 0.14991852E+02</pdfrwt>
<totfact>-0.11617798E-13</totfact>
</mgrwt>
</event>
<event>
 4    1 -0.4882314E-019  0.1495005E+02  0.7818608E-02  0.1869597E+00
          2   -1    0    0  501    0  0.00000000000E+00  0.00000000000E+00  0.11897385503E+03  0.11897385506E+03  0.25500000000E-02 0.  1.
         -2   -1    0    0    0  501 -0.00000000000E+00 -0.00000000000E+00 -0.46964574702E+00  0.46965266974E+00  0.25500000000E-02 0. -1.
         31    1    1    2    0    0  0.40584463112E+00  0.46755876285E+00  0.60719500525E+02  0.61177610211E+02  0.74470750000E+01 0.  1.
        -31    1    1    2    0    0 -0.40584463112E+00 -0.46755876285E+00  0.57784708760E+02  0.58265897518E+02  0.74470750000E+01 0.  1.
<mgrwt>
<rscale>  0 0.14950048E+02</rscale>
<asrwt>0</asrwt>
<pdfrwt beam="1">  1        2 0.98764249E+00 0.14950048E+02</pdfrwt>
<pdfrwt beam="2">  1       -2 0.99744685E+00 0.14950048E+02</pdfrwt>
<totfact>-0.16763302E-13</totfact>
</mgrwt>
</event>
<event>
 4    1  0.4882314E-019  0.1490031E+02  0.7818608E-02  0.1871126E+00
          2   -1    0    0  501    0  0.00000000000E+00  0.00000000000E+00  0.11955681255E+03  0.11955681258E+03  0.25500000000E-02 0.  1.
         -2   -1    0    0    0  501 -0.00000000000E+00 -0.00000000000E+00 -0.46425120675E+00  0.46425820991E+00  0.25500000000E-02 0. -1.
         31    1    1    2    0    0  0.16669391006E+00  0.10580786902E+00  0.60215770311E+02  0.60674845714E+02  0.74470750000E+01 0. -1.
        -31    1    1    2    0    0 -0.16669391006E+00 -0.10580786902E+00  0.58876791031E+02  0.59346225072E+02  0.74470750000E+01 0.  1.
<mgrwt>
<rscale>  0 0.14900311E+02</rscale>
<asrwt>0</asrwt>
<pdfrwt beam="1">  1        2 0.99241819E+00 0.14900311E+02</pdfrwt>
<pdfrwt beam="2">  1       -2 0.98605316E+00 0.14900311E+02</pdfrwt>
<totfact> 0.43129258E-13</totfact>
</mgrwt>
</event>
<event>
 4    1  0.4882314E-019  0.1490078E+02  0.7818608E-02  0.1871111E+00
          2   -1    0    0  501    0  0.00000000000E+00  0.00000000000E+00  0.12027265182E+03  0.12027265184E+03  0.25500000000E-02 0. -1.
         -2   -1    0    0    0  501 -0.00000000000E+00 -0.00000000000E+00 -0.46151711837E+00  0.46152416302E+00  0.25500000000E-02 0.  1.
         31    1    1    2    0    0 -0.64511021129E-01  0.14532720734E+00  0.61163598844E+02  0.61615501550E+02  0.74470750000E+01 0. -1.
        -31    1    1    2    0    0  0.64511021129E-01 -0.14532720734E+00  0.58647535855E+02  0.59118674458E+02  0.74470750000E+01 0.  1.
<mgrwt>
<rscale>  0 0.14900780E+02</rscale>
<asrwt>0</asrwt>
<pdfrwt beam="1">  1        2 0.99831464E+00 0.14900780E+02</pdfrwt>
<pdfrwt beam="2">  1       -2 0.98029091E+00 0.14900780E+02</pdfrwt>
<totfact> 0.64510226E-13</totfact>
</mgrwt>
</event>
<event>
 4    1  0.4882314E-019  0.1494193E+02  0.7818608E-02  0.1869846E+00
         -2   -1    0    0    0  501 -0.00000000000E+00  0.00000000000E+00  0.11889076298E+03  0.11889076301E+03  0.25500000000E-02 0. -1.
          2   -1    0    0  501    0  0.00000000000E+00 -0.00000000000E+00 -0.46946370325E+00  0.46947062865E+00  0.25500000000E-02 0.  1.
         31    1    1    2    0    0 -0.21635727451E+00  0.38311478566E+00  0.62433790716E+02  0.62877903405E+02  0.74470750000E+01 0. -1.
        -31    1    1    2    0    0  0.21635727451E+00 -0.38311478566E+00  0.55987508565E+02  0.56482330235E+02  0.74470750000E+01 0.  1.
<mgrwt>
<rscale>  0 0.14941929E+02</rscale>
<asrwt>0</asrwt>
<pdfrwt beam="2">  1        2 0.99705900E+00 0.14941929E+02</pdfrwt>
<pdfrwt beam="1">  1       -2 0.98695392E+00 0.14941929E+02</pdfrwt>
<totfact> 0.18246436E-13</totfact>
</mgrwt>
</event>
<event>
 4    1 -0.4882314E-019  0.1494697E+02  0.7818608E-02  0.1869691E+00
          2   -1    0    0  501    0  0.00000000000E+00  0.00000000000E+00  0.11907260031E+03  0.11907260033E+03  0.25500000000E-02 0.  1.
         -2   -1    0    0    0  501 -0.00000000000E+00 -0.00000000000E+00 -0.46906331593E+00  0.46907024725E+00  0.25500000000E-02 0. -1.
         31    1    1    2    0    0  0.47561936488E+00  0.13501289518E+00  0.62395514068E+02  0.62840301910E+02  0.74470750000E+01 0.  1.
        -31    1    1    2    0    0 -0.47561936488E+00 -0.13501289518E+00  0.56208022922E+02  0.56701368671E+02  0.74470750000E+01 0. -1.
<mgrwt>
<rscale>  0 0.14946974E+02</rscale>
<asrwt>0</asrwt>
<pdfrwt beam="1">  1        2 0.98845417E+00 0.14946974E+02</pdfrwt>
<pdfrwt beam="2">  1       -2 0.99621798E+00 0.14946974E+02</pdfrwt>
<totfact>-0.19297612E-13</totfact>
</mgrwt>
</event>
<event>
 4    1 -0.4882314E-019  0.1498740E+02  0.7818608E-02  0.1868453E+00
          2   -1    0    0  501    0  0.00000000000E+00  0.00000000000E+00  0.11988070039E+03  0.11988070042E+03  0.25500000000E-02 0.  1.
         -2   -1    0    0    0  501 -0.00000000000E+00 -0.00000000000E+00 -0.46842503085E+00  0.46843197161E+00  0.25500000000E-02 0. -1.
         31    1    1    2    0    0  0.42666392932E+00 -0.49839875897E+00  0.55563311703E+02  0.56063990019E+02  0.74470750000E+01 0. -1.
        -31    1    1    2    0    0 -0.42666392932E+00  0.49839875897E+00  0.63848963659E+02  0.64285142372E+02  0.74470750000E+01 0.  1.
<mgrwt>
<rscale>  0 0.14987400E+02</rscale>
<asrwt>0</asrwt>
<pdfrwt beam="1">  1        2 0.99513083E+00 0.14987400E+02</pdfrwt>
<pdfrwt beam="2">  1       -2 0.99489398E+00 0.14987400E+02</pdfrwt>
<totfact>-0.11784650E-13</totfact>
</mgrwt>
</event>
<event>
 4    1 -0.4882314E-019  0.1494888E+02  0.7818608E-02  0.1869633E+00
         -2   -1    0    0    0  501 -0.00000000000E+00  0.00000000000E+00  0.12023079535E+03  0.12023079538E+03  0.25500000000E-02 0.  1.
          2   -1    0    0  501    0  0.00000000000E+00 -0.00000000000E+00 -0.46466302994E+00  0.46467002690E+00  0.25500000000E-02 0. -1.
         31    1    1    2    0    0  0.51300722024E+00 -0.36899793862E+00  0.60647641948E+02  0.61106421395E+02  0.74470750000E+01 0. -1.
        -31    1    1    2    0    0 -0.51300722024E+00  0.36899793862E+00  0.59118490376E+02  0.59589044012E+02  0.74470750000E+01 0.  1.
<mgrwt>
<rscale>  0 0.14948877E+02</rscale>
<asrwt>0</asrwt>
<pdfrwt beam="2">  1        2 0.98694588E+00 0.14948877E+02</pdfrwt>
<pdfrwt beam="1">  1       -2 0.99799455E+00 0.14948877E+02</pdfrwt>
<totfact>-0.15336351E-13</totfact>
</mgrwt>
</event>
<event>
 4    1  0.4882314E-019  0.1491998E+02  0.7818608E-02  0.1870520E+00
         -2   -1    0    0    0  501 -0.00000000000E+00  0.00000000000E+00  0.11901957233E+03  0.11901957236E+03  0.25500000000E-02 0. -1.
          2   -1    0    0  501    0  0.00000000000E+00 -0.00000000000E+00 -0.46757898654E+00  0.46758593986E+00  0.25500000000E-02 0.  1.
         31    1    1    2    0    0 -0.29164330117E+00  0.26863232006E+00  0.57770842869E+02  0.58250205415E+02  0.74470750000E+01 0.  1.
        -31    1    1    2    0    0  0.29164330117E+00 -0.26863232006E+00  0.60781150478E+02  0.61236952885E+02  0.74470750000E+01 0.  1.
<mgrwt>
<rscale>  0 0.14919982E+02</rscale>
<asrwt>0</asrwt>
<pdfrwt beam="2">  1        2 0.99307615E+00 0.14919982E+02</pdfrwt>
<pdfrwt beam="1">  1       -2 0.98800343E+00 0.14919982E+02</pdfrwt>
<totfact> 0.17732122E-13</totfact>
</mgrwt>
</event>
<event>
 4    1 -0.4882314E-019  0.1492103E+02  0.7818608E-02  0.1870488E+00
         -2   -1    0    0    0  501 -0.00000000000E+00  0.00000000000E+00  0.11973087596E+03  0.11973087599E+03  0.25500000000E-02 0.  1.
          2   -1    0    0  501    0  0.00000000000E+00 -0.00000000000E+00 -0.46486670847E+00  0.46487370236E+00  0.25500000000E-02 0. -1.
         31    1    1    2    0    0 -0.27419755808E+00  0.29087281656E+00  0.61256190322E+02  0.61708504844E+02  0.74470750000E+01 0.  1.
        -31    1    1    2    0    0  0.27419755808E+00 -0.29087281656E+00  0.58009818932E+02  0.58487244848E+02  0.74470750000E+01 0. -1.
<mgrwt>
<rscale>  0 0.14921035E+02</rscale>
<asrwt>0</asrwt>
<pdfrwt beam="2">  1        2 0.98736094E+00 0.14921035E+02</pdfrwt>
<pdfrwt beam="1">  1       -2 0.99386256E+00 0.14921035E+02</pdfrwt>
<totfact>-0.23540134E-13</totfact>
</mgrwt>
</event>
<event>
 4    1 -0.4882314E-019  0.1498287E+02  0.7818608E-02  0.1868592E+00
         -2   -1    0    0    0  501 -0.00000000000E+00  0.00000000000E+00  0.11998318489E+03  0.11998318492E+03  0.25500000000E-02 0.  1.
          2   -1    0    0  501    0  0.00000000000E+00 -0.00000000000E+00 -0.46774187006E+00  0.46774882096E+00  0.25500000000E-02 0. -1.
         31    1    1    2    0    0 -0.71371972822E+00  0.81899228229E-01  0.56680148599E+02  0.57171796146E+02  0.74470750000E+01 0. -1.
        -31    1    1    2    0    0  0.71371972822E+00 -0.81899228229E-01  0.62835294419E+02  0.63279137590E+02  0.74470750000E+01 0.  1.
<mgrwt>
<rscale>  0 0.14982867E+02</rscale>
<asrwt>0</asrwt>
<pdfrwt beam="2">  1        2 0.99345196E+00 0.14982867E+02</pdfrwt>
<pdfrwt beam="1">  1       -2 0.99597260E+00 0.14982867E+02</pdfrwt>
<totfact>-0.12826805E-13</totfact>
</mgrwt>
</event>
<event>
 4    1 -0.4882314E-019  0.1490691E+02  0.7818608E-02  0.1870923E+00
         -2   -1    0    0    0  501 -0.00000000000E+00  0.00000000000E+00  0.12037058193E+03  0.12037058196E+03  0.25500000000E-02 0. -1.
          2   -1    0    0  501    0  0.00000000000E+00 -0.00000000000E+00 -0.46152093456E+00  0.46152797915E+00  0.25500000000E-02 0.  1.
         31    1    1    2    0    0  0.22094404820E+00 -0.19166313046E+00  0.59164742118E+02  0.59632299863E+02  0.74470750000E+01 0.  1.
        -31    1    1    2    0    0 -0.22094404820E+00  0.19166313046E+00  0.60744318878E+02  0.61199810073E+02  0.74470750000E+01 0. -1.
<mgrwt>
<rscale>  0 0.14906907E+02</rscale>
<asrwt>0</asrwt>
<pdfrwt beam="2">  1        2 0.98030203E+00 0.14906907E+02</pdfrwt>
<pdfrwt beam="1">  1       -2 0.99912443E+00 0.14906907E+02</pdfrwt>
<totfact>-0.21898214E-13</totfact>
</mgrwt>
</event>
<event>
 4    1  0.4882314E-019  0.1492103E+02  0.7818608E-02  0.1870488E+00
         -2   -1    0    0    0  501 -0.00000000000E+00  0.00000000000E+00  0.11895282434E+03  0.11895282437E+03  0.25500000000E-02 0. -1.
          2   -1    0    0  501    0  0.00000000000E+00 -0.00000000000E+00 -0.46790701765E+00  0.46791396610E+00  0.25500000000E-02 0.  1.
         31    1    1    2    0    0  0.43430725920E+00 -0.10619562072E+00  0.59072406111E+02  0.59541649205E+02  0.74470750000E+01 0.  1.
        -31    1    1    2    0    0 -0.43430725920E+00  0.10619562072E+00  0.59412511213E+02  0.59879089130E+02  0.74470750000E+01 0.  1.
<mgrwt>
<rscale>  0 0.14921029E+02</rscale>
<asrwt>0</asrwt>
<pdfrwt beam="2">  1        2 0.99376792E+00 0.14921029E+02</pdfrwt>
<pdfrwt beam="1">  1       -2 0.98745422E+00 0.14921029E+02</pdfrwt>
<totfact> 0.22401021E-13</totfact>
</mgrwt>
</event>
<event>
 4    1 -0.4882314E-019  0.1496839E+02  0.7818608E-02  0.1869035E+00
         -2   -1    0    0    0  501 -0.00000000000E+00  0.00000000000E+00  0.11957546869E+03  0.11957546872E+03  0.25500000000E-02 0.  1.
          2   -1    0    0  501    0  0.00000000000E+00 -0.00000000000E+00 -0.46843033522E+00  0.46843727591E+00  0.25500000000E-02 0. -1.
         31    1    1    2    0    0 -0.36159236143E-01 -0.63737070178E+00  0.56481599662E+02  0.56974007892E+02  0.74470750000E+01 0. -1.
        -31    1    1    2    0    0  0.36159236143E-01  0.63737070178E+00  0.62625438695E+02  0.63069898103E+02  0.74470750000E+01 0. -1.
<mgrwt>
<rscale>  0 0.14968393E+02</rscale>
<asrwt>0</asrwt>
<pdfrwt beam="2">  1        2 0.99489531E+00 0.14968393E+02</pdfrwt>
<pdfrwt beam="1">  1       -2 0.99260701E+00 0.14968393E+02</pdfrwt>
<totfact>-0.96209335E-14</totfact>
</mgrwt>
</event>
<event>
 4    1 -0.4882314E-019  0.1490229E+02  0.7818608E-02  0.1871065E+00
          2   -1    0    0  501    0  0.00000000000E+00  0.00000000000E+00  0.11830855756E+03  0.11830855759E+03  0.25500000000E-02 0. -1.
         -2   -1    0    0    0  501 -0.00000000000E+00 -0.00000000000E+00 -0.46927441288E+00  0.46928134107E+00  0.25500000000E-02 0.  1.
         31    1    1    2    0    0 -0.75722157611E-01  0.15364853147E+00  0.57508981639E+02  0.57989406247E+02  0.74470750000E+01 0.  1.
        -31    1    1    2    0    0  0.75722157611E-01 -0.15364853147E+00  0.60330301511E+02  0.60788432684E+02  0.74470750000E+01 0. -1.
<mgrwt>
<rscale>  0 0.14902294E+02</rscale>
<asrwt>0</asrwt>
<pdfrwt beam="1">  1        2 0.98213828E+00 0.14902294E+02</pdfrwt>
<pdfrwt beam="2">  1       -2 0.99663929E+00 0.14902294E+02</pdfrwt>
<totfact>-0.48113390E-13</totfact>
</mgrwt>
</event>
<event>
 4    1  0.4882314E-019  0.1489540E+02  0.7818608E-02  0.1871277E+00
         -2   -1    0    0    0  501 -0.00000000000E+00  0.00000000000E+00  0.11810573911E+03  0.11810573914E+03  0.25500000000E-02 0.  1.
          2   -1    0    0  501    0  0.00000000000E+00 -0.00000000000E+00 -0.46964537828E+00  0.46965230101E+00  0.25500000000E-02 0. -1.
         31    1    1    2    0    0 -0.10968691667E-03  0.40011976318E-01  0.58119532460E+02  0.58594714611E+02  0.74470750000E+01 0. -1.
        -31    1    1    2    0    0  0.10968691667E-03 -0.40011976318E-01  0.59516561270E+02  0.59980676825E+02  0.74470750000E+01 0.  1.
<mgrwt>
<rscale>  0 0.14895399E+02</rscale>
<asrwt>0</asrwt>
<pdfrwt beam="2">  1        2 0.99741724E+00 0.14895399E+02</pdfrwt>
<pdfrwt beam="1">  1       -2 0.98046430E+00 0.14895399E+02</pdfrwt>
<totfact> 0.86885550E-13</totfact>
</mgrwt>
</event>
<event>
 4    1 -0.4882314E-019  0.1498321E+02  0.7818608E-02  0.1868581E+00
         -2   -1    0    0    0  501 -0.00000000000E+00  0.00000000000E+00  0.12005275122E+03  0.12005275124E+03  0.25500000000E-02 0.  1.
          2   -1    0    0  501    0  0.00000000000E+00 -0.00000000000E+00 -0.46749204434E+00  0.46749899896E+00  0.25500000000E-02 0. -1.
         31    1    1    2    0    0 -0.62277022498E+00 -0.38180201437E+00  0.56874807577E+02  0.57364939453E+02  0.74470750000E+01 0.  1.
        -31    1    1    2    0    0  0.62277022498E+00  0.38180201437E+00  0.62710451595E+02  0.63155310789E+02  0.74470750000E+01 0. -1.
<mgrwt>
<rscale>  0 0.14983208E+02</rscale>
<asrwt>0</asrwt>
<pdfrwt beam="2">  1        2 0.99292565E+00 0.14983208E+02</pdfrwt>
<pdfrwt beam="1">  1       -2 0.99654575E+00 0.14983208E+02</pdfrwt>
<totfact>-0.12356264E-13</totfact>
</mgrwt>
</event>
<event>
 4    1 -0.4882314E-019  0.1501875E+02  0.7818608E-02  0.1867497E+00
          2   -1    0    0  501    0  0.00000000000E+00  0.00000000000E+00  0.12034040835E+03  0.12034040838E+03  0.25500000000E-02 0. -1.
         -2   -1    0    0    0  501 -0.00000000000E+00 -0.00000000000E+00 -0.46859004518E+00  0.46859698350E+00  0.25500000000E-02 0.  1.
         31    1    1    2    0    0 -0.65904030414E+00  0.46786141616E+00  0.55690268543E+02  0.56191798021E+02  0.74470750000E+01 0.  1.
        -31    1    1    2    0    0  0.65904030414E+00 -0.46786141616E+00  0.64181549762E+02  0.64617207340E+02  0.74470750000E+01 0. -1.
<mgrwt>
<rscale>  0 0.15018753E+02</rscale>
<asrwt>0</asrwt>
<pdfrwt beam="1">  1        2 0.99893338E+00 0.15018753E+02</pdfrwt>
<pdfrwt beam="2">  1       -2 0.99525789E+00 0.15018753E+02</pdfrwt>
<totfact>-0.38412704E-14</totfact>
</mgrwt>
</event>
<event>
 4    1 -0.4882314E-019  0.1494864E+02  0.7818608E-02  0.1869640E+00
         -2   -1    0    0    0  501 -0.00000000000E+00  0.00000000000E+00  0.11952060841E+03  0.11952060844E+03  0.25500000000E-02 0.  1.
          2   -1    0    0  501    0  0.00000000000E+00 -0.00000000000E+00 -0.46740933955E+00  0.46741629539E+00  0.25500000000E-02 0. -1.
         31    1    1    2    0    0  0.44225659994E+00  0.45599594575E+00  0.59967579537E+02  0.60431556697E+02  0.74470750000E+01 0.  1.
        -31    1    1    2    0    0 -0.44225659994E+00 -0.45599594575E+00  0.59085619531E+02  0.59556468034E+02  0.74470750000E+01 0. -1.
<mgrwt>
<rscale>  0 0.14948641E+02</rscale>
<asrwt>0</asrwt>
<pdfrwt beam="2">  1        2 0.99273353E+00 0.14948641E+02</pdfrwt>
<pdfrwt beam="1">  1       -2 0.99214494E+00 0.14948641E+02</pdfrwt>
<totfact>-0.10003196E-13</totfact>
</mgrwt>
</event>
<event>
 4    1  0.4882314E-019  0.1491681E+02  0.7818608E-02  0.1870618E+00
         -2   -1    0    0    0  501 -0.00000000000E+00  0.00000000000E+00  0.11818146680E+03  0.11818146683E+03  0.25500000000E-02 0.  1.
          2   -1    0    0  501    0  0.00000000000E+00 -0.00000000000E+00 -0.47069462372E+00  0.47070153101E+00  0.25500000000E-02 0. -1.
         31    1    1    2    0    0 -0.30630610615E+00 -0.15169607830E+00  0.57040990424E+02  0.57526084081E+02  0.74470750000E+01 0. -1.
        -31    1    1    2    0    0  0.30630610615E+00  0.15169607830E+00  0.60669781751E+02  0.61126084275E+02  0.74470750000E+01 0. -1.
<mgrwt>
<rscale>  0 0.14916808E+02</rscale>
<asrwt>0</asrwt>
<pdfrwt beam="2">  1        2 0.99963926E+00 0.14916808E+02</pdfrwt>
<pdfrwt beam="1">  1       -2 0.98109914E+00 0.14916808E+02</pdfrwt>
<totfact> 0.13848631E-13</totfact>
</mgrwt>
</event>
<event>
 4    1 -0.4882314E-019  0.1492242E+02  0.7818608E-02  0.1870445E+00
         -2   -1    0    0    0  501 -0.00000000000E+00  0.00000000000E+00  0.11991627260E+03  0.11991627263E+03  0.25500000000E-02 0. -1.
          2   -1    0    0  501    0  0.00000000000E+00 -0.00000000000E+00 -0.46423390612E+00  0.46424090954E+00  0.25500000000E-02 0.  1.
         31    1    1    2    0    0 -0.21684516095E+00  0.61221836872E-01  0.62952118416E+02  0.63391473473E+02  0.74470750000E+01 0. -1.
        -31    1    1    2    0    0  0.21684516095E+00 -0.61221836872E-01  0.56499920279E+02  0.56989040065E+02  0.74470750000E+01 0.  1.
<mgrwt>
<rscale>  0 0.14922416E+02</rscale>
<asrwt>0</asrwt>
<pdfrwt beam="2">  1        2 0.98602799E+00 0.14922416E+02</pdfrwt>
<pdfrwt beam="1">  1       -2 0.99539031E+00 0.14922416E+02</pdfrwt>
<totfact>-0.29077583E-13</totfact>
</mgrwt>
</event>
<event>
 4    1 -0.4882314E-019  0.1499018E+02  0.7818608E-02  0.1868368E+00
         -2   -1    0    0    0  501 -0.00000000000E+00  0.00000000000E+00  0.11966561164E+03  0.11966561167E+03  0.25500000000E-02 0.  1.
          2   -1    0    0  501    0  0.00000000000E+00 -0.00000000000E+00 -0.46944105237E+00  0.46944797811E+00  0.25500000000E-02 0. -1.
         31    1    1    2    0    0 -0.58902377966E+00 -0.43425025399E+00  0.63016329703E+02  0.63459059697E+02  0.74470750000E+01 0.  1.
        -31    1    1    2    0    0  0.58902377966E+00  0.43425025399E+00  0.56179840888E+02  0.56675999952E+02  0.74470750000E+01 0.  1.
<mgrwt>
<rscale>  0 0.14990179E+02</rscale>
<asrwt>0</asrwt>
<pdfrwt beam="2">  1        2 0.99703648E+00 0.14990179E+02</pdfrwt>
<pdfrwt beam="1">  1       -2 0.99336073E+00 0.14990179E+02</pdfrwt>
<totfact>-0.80191436E-14</totfact>
</mgrwt>
</event>
<event>
 4    1 -0.4882314E-019  0.1496889E+02  0.7818608E-02  0.1869019E+00
         -2   -1    0    0    0  501 -0.00000000000E+00  0.00000000000E+00  0.11964265312E+03  0.11964265314E+03  0.25500000000E-02 0. -1.
          2   -1    0    0  501    0  0.00000000000E+00 -0.00000000000E+00 -0.46819857628E+00  0.46820552040E+00  0.25500000000E-02 0.  1.
         31    1    1    2    0    0 -0.44909696297E+00  0.59385073008E+00  0.59101412912E+02  0.59573402463E+02  0.74470750000E+01 0. -1.
        -31    1    1    2    0    0  0.44909696297E+00 -0.59385073008E+00  0.60073041627E+02  0.60537456200E+02  0.74470750000E+01 0. -1.
<mgrwt>
<rscale>  0 0.14968893E+02</rscale>
<asrwt>0</asrwt>
<pdfrwt beam="2">  1        2 0.99440719E+00 0.14968893E+02</pdfrwt>
<pdfrwt beam="1">  1       -2 0.99316062E+00 0.14968893E+02</pdfrwt>
<totfact>-0.11253895E-13</totfact>
</mgrwt>
</event>
<event>
 4    1  0.4882314E-019  0.1490217E+02  0.7818608E-02  0.1871069E+00
         -2   -1    0    0    0  501 -0.00000000000E+00  0.00000000000E+00  0.11885235765E+03  0.11885235767E+03  0.25500000000E-02 0.  1.
          2   -1    0    0  501    0  0.00000000000E+00 -0.00000000000E+00 -0.46711930101E+00  0.46712626117E+00  0.25500000000E-02 0. -1.
         31    1    1    2    0    0  0.33152794393E-01 -0.62256172709E-01  0.61066053840E+02  0.61518508049E+02  0.74470750000E+01 0.  1.
        -31    1    1    2    0    0 -0.33152794393E-01  0.62256172709E-01  0.57319184506E+02  0.57800975886E+02  0.74470750000E+01 0. -1.
<mgrwt>
<rscale>  0 0.14902167E+02</rscale>
<asrwt>0</asrwt>
<pdfrwt beam="2">  1        2 0.99209821E+00 0.14902167E+02</pdfrwt>
<pdfrwt beam="1">  1       -2 0.98661698E+00 0.14902167E+02</pdfrwt>
<totfact> 0.36063109E-13</totfact>
</mgrwt>
</event>
<event>
 4    1  0.4882314E-019  0.1493257E+02  0.7818608E-02  0.1870133E+00
          2   -1    0    0  501    0  0.00000000000E+00  0.00000000000E+00  0.12027932889E+03  0.12027932892E+03  0.25500000000E-02 0.  1.
         -2   -1    0    0    0  501 -0.00000000000E+00 -0.00000000000E+00 -0.46346290702E+00  0.46346992210E+00  0.25500000000E-02 0. -1.
         31    1    1    2    0    0  0.40731780966E+00 -0.85027205221E-02  0.57100769428E+02  0.57585786227E+02  0.74470750000E+01 0.  1.
        -31    1    1    2    0    0 -0.40731780966E+00  0.85027205221E-02  0.62715096558E+02  0.63157012615E+02  0.74470750000E+01 0.  1.
<mgrwt>
<rscale>  0 0.14932573E+02</rscale>
<asrwt>0</asrwt>
<pdfrwt beam="1">  1        2 0.99838594E+00 0.14932573E+02</pdfrwt>
<pdfrwt beam="2">  1       -2 0.98440817E+00 0.14932573E+02</pdfrwt>
<totfact> 0.26329238E-13</totfact>
</mgrwt>
</event>
<event>
 4    1  0.4882314E-019  0.1493605E+02  0.7818608E-02  0.1870026E+00
          2   -1    0    0  501    0  0.00000000000E+00  0.00000000000E+00  0.11993984371E+03  0.11993984374E+03  0.25500000000E-02 0.  1.
         -2   -1    0    0    0  501 -0.00000000000E+00 -0.00000000000E+00 -0.46499147495E+00  0.46499846696E+00  0.25500000000E-02 0. -1.
         31    1    1    2    0    0 -0.43228205918E+00 -0.32593532644E+00  0.60860235143E+02  0.61316557709E+02  0.74470750000E+01 0.  1.
        -31    1    1    2    0    0  0.43228205918E+00  0.32593532644E+00  0.58614617090E+02  0.59088284493E+02  0.74470750000E+01 0.  1.
<mgrwt>
<rscale>  0 0.14936054E+02</rscale>
<asrwt>0</asrwt>
<pdfrwt beam="1">  1        2 0.99559148E+00 0.14936054E+02</pdfrwt>
<pdfrwt beam="2">  1       -2 0.98763157E+00 0.14936054E+02</pdfrwt>
<totfact> 0.17227542E-13</totfact>
</mgrwt>
</event>
<event>
 4    1  0.4882314E-019  0.1489763E+02  0.7818608E-02  0.1871209E+00
          2   -1    0    0  501    0  0.00000000000E+00  0.00000000000E+00  0.11975041510E+03  0.11975041512E+03  0.25500000000E-02 0.  1.
         -2   -1    0    0    0  501 -0.00000000000E+00 -0.00000000000E+00 -0.46333378828E+00  0.46334080530E+00  0.25500000000E-02 0. -1.
         31    1    1    2    0    0  0.46390386560E-01 -0.37024096505E-01  0.60850921779E+02  0.61304951922E+02  0.74470750000E+01 0.  1.
        -31    1    1    2    0    0 -0.46390386560E-01  0.37024096505E-01  0.58436159531E+02  0.58908804007E+02  0.74470750000E+01 0. -1.
<mgrwt>
<rscale>  0 0.14897629E+02</rscale>
<asrwt>0</asrwt>
<pdfrwt beam="1">  1        2 0.99401144E+00 0.14897629E+02</pdfrwt>
<pdfrwt beam="2">  1       -2 0.98411829E+00 0.14897629E+02</pdfrwt>
<totfact> 0.67038424E-13</totfact>
</mgrwt>
</event>
<event>
 4    1 -0.4882314E-019  0.1495170E+02  0.7818608E-02  0.1869546E+00
         -2   -1    0    0    0  501 -0.00000000000E+00  0.00000000000E+00  0.11988561208E+03  0.11988561211E+03  0.25500000000E-02 0.  1.
          2   -1    0    0  501    0  0.00000000000E+00 -0.00000000000E+00 -0.46617714607E+00  0.46618412029E+00  0.25500000000E-02 0. -1.
         31    1    1    2    0    0 -0.44658372888E+00  0.16490756059E+00  0.56084852349E+02  0.56579114703E+02  0.74470750000E+01 0. -1.
        -31    1    1    2    0    0  0.44658372888E+00 -0.16490756059E+00  0.63334582587E+02  0.63772681527E+02  0.74470750000E+01 0.  1.
<mgrwt>
<rscale>  0 0.14951703E+02</rscale>
<asrwt>0</asrwt>
<pdfrwt beam="2">  1        2 0.99013839E+00 0.14951703E+02</pdfrwt>
<pdfrwt beam="1">  1       -2 0.99515286E+00 0.14951703E+02</pdfrwt>
<totfact>-0.17549393E-13</totfact>
</mgrwt>
</event>
<event>
 4    1  0.4882314E-019  0.1494159E+02  0.7818608E-02  0.1869856E+00
         -2   -1    0    0    0  501 -0.00000000000E+00  0.00000000000E+00  0.11901128541E+03  0.11901128543E+03  0.25500000000E-02 0. -1.
          2   -1    0    0  501    0  0.00000000000E+00 -0.00000000000E+00 -0.46896684907E+00  0.46897378181E+00  0.25500000000E-02 0.  1.
         31    1    1    2    0    0 -0.43760570479E+00  0.26384887522E+00  0.61706117103E+02  0.62155972593E+02  0.74470750000E+01 0.  1.
        -31    1    1    2    0    0  0.43760570479E+00 -0.26384887522E+00  0.56836201454E+02  0.57324286622E+02  0.74470750000E+01 0.  1.
<mgrwt>
<rscale>  0 0.14941588E+02</rscale>
<asrwt>0</asrwt>
<pdfrwt beam="2">  1        2 0.99601190E+00 0.14941588E+02</pdfrwt>
<pdfrwt beam="1">  1       -2 0.98794638E+00 0.14941588E+02</pdfrwt>
<totfact> 0.13776574E-13</totfact>
</mgrwt>
</event>
<event>
 4    1 -0.4882314E-019  0.1491239E+02  0.7818608E-02  0.1870754E+00
          2   -1    0    0  501    0  0.00000000000E+00  0.00000000000E+00  0.11863570632E+03  0.11863570635E+03  0.25500000000E-02 0.  1.
         -2   -1    0    0    0  501 -0.00000000000E+00 -0.00000000000E+00 -0.46861442144E+00  0.46862135940E+00  0.25500000000E-02 0. -1.
         31    1    1    2    0    0  0.15869687686E+00  0.32432945413E+00  0.59676805954E+02  0.60140755476E+02  0.74470750000E+01 0. -1.
        -31    1    1    2    0    0 -0.15869687686E+00 -0.32432945413E+00  0.58490285949E+02  0.58963572235E+02  0.74470750000E+01 0. -1.
<mgrwt>
<rscale>  0 0.14912386E+02</rscale>
<asrwt>0</asrwt>
<pdfrwt beam="1">  1        2 0.98483791E+00 0.14912386E+02</pdfrwt>
<pdfrwt beam="2">  1       -2 0.99525399E+00 0.14912386E+02</pdfrwt>
<totfact>-0.35351950E-13</totfact>
</mgrwt>
</event>
<event>
 4    1  0.4882314E-019  0.1495269E+02  0.7818608E-02  0.1869515E+00
         -2   -1    0    0    0  501 -0.00000000000E+00  0.00000000000E+00  0.11912334687E+03  0.11912334690E+03  0.25500000000E-02 0.  1.
          2   -1    0    0  501    0  0.00000000000E+00 -0.00000000000E+00 -0.46922250112E+00  0.46922943008E+00  0.25500000000E-02 0. -1.
         31    1    1    2    0    0  0.43829858206E+00  0.47848934379E+00  0.60331988168E+02  0.60793328418E+02  0.74470750000E+01 0.  1.
        -31    1    1    2    0    0 -0.43829858206E+00 -0.47848934379E+00  0.58322136203E+02  0.58799247912E+02  0.74470750000E+01 0. -1.
<mgrwt>
<rscale>  0 0.14952695E+02</rscale>
<asrwt>0</asrwt>
<pdfrwt beam="2">  1        2 0.99655640E+00 0.14952695E+02</pdfrwt>
<pdfrwt beam="1">  1       -2 0.98887510E+00 0.14952695E+02</pdfrwt>
<totfact> 0.65831759E-14</totfact>
</mgrwt>
</event>
<event>
 4    1  0.4882314E-019  0.1491347E+02  0.7818608E-02  0.1870721E+00
         -2   -1    0    0    0  501 -0.00000000000E+00  0.00000000000E+00  0.11879855936E+03  0.11879855939E+03  0.25500000000E-02 0. -1.
          2   -1    0    0  501    0  0.00000000000E+00 -0.00000000000E+00 -0.46803975825E+00  0.46804670473E+00  0.25500000000E-02 0.  1.
         31    1    1    2    0    0  0.29642129261E+00 -0.23187522398E+00  0.58781132373E+02  0.59252190515E+02  0.74470750000E+01 0.  1.
        -31    1    1    2    0    0 -0.29642129261E+00  0.23187522398E+00  0.59549387229E+02  0.60014415578E+02  0.74470750000E+01 0. -1.
<mgrwt>
<rscale>  0 0.14913466E+02</rscale>
<asrwt>0</asrwt>
<pdfrwt beam="2">  1        2 0.99404367E+00 0.14913466E+02</pdfrwt>
<pdfrwt beam="1">  1       -2 0.98617975E+00 0.14913466E+02</pdfrwt>
<totfact> 0.36600522E-13</totfact>
</mgrwt>
</event>
<event>
 4    1  0.4882314E-019  0.1490323E+02  0.7818608E-02  0.1871036E+00
         -2   -1    0    0    0  501 -0.00000000000E+00  0.00000000000E+00  0.11874745697E+03  0.11874745700E+03  0.25500000000E-02 0. -1.
          2   -1    0    0  501    0  0.00000000000E+00 -0.00000000000E+00 -0.46759886397E+00  0.46760581699E+00  0.25500000000E-02 0.  1.
         31    1    1    2    0    0 -0.11802720647E+00  0.63554088378E-01  0.57356674354E+02  0.57838265781E+02  0.74470750000E+01 0.  1.
        -31    1    1    2    0    0  0.11802720647E+00 -0.63554088378E-01  0.60923183756E+02  0.61376797037E+02  0.74470750000E+01 0. -1.
<mgrwt>
<rscale>  0 0.14903233E+02</rscale>
<asrwt>0</asrwt>
<pdfrwt beam="2">  1        2 0.99310929E+00 0.14903233E+02</pdfrwt>
<pdfrwt beam="1">  1       -2 0.98575355E+00 0.14903233E+02</pdfrwt>
<totfact> 0.45291358E-13</totfact>
</mgrwt>
</event>
<event>
 4    1 -0.4882314E-019  0.1489736E+02  0.7818608E-02  0.1871217E+00
          2   -1    0    0  501    0  0.00000000000E+00  0.00000000000E+00  0.11812800303E+03  0.11812800305E+03  0.25500000000E-02 0. -1.
         -2   -1    0    0    0  501 -0.00000000000E+00 -0.00000000000E+00 -0.46968021363E+00  0.46968713584E+00  0.25500000000E-02 0.  1.
         31    1    1    2    0    0 -0.49790896492E-01 -0.13760921730E+00  0.58434604439E+02  0.58907413264E+02  0.74470750000E+01 0.  1.
        -31    1    1    2    0    0  0.49790896492E-01  0.13760921730E+00  0.59223718373E+02  0.59690276926E+02  0.74470750000E+01 0. -1.
<mgrwt>
<rscale>  0 0.14897355E+02</rscale>
<asrwt>0</asrwt>
<pdfrwt beam="1">  1        2 0.98064868E+00 0.14897355E+02</pdfrwt>
<pdfrwt beam="2">  1       -2 0.99749167E+00 0.14897355E+02</pdfrwt>
<totfact>-0.50885215E-13</totfact>
</mgrwt>
</event>
<event>
 4    1 -0.4882314E-019  0.1496967E+02  0.7818608E-02  0.1868996E+00
         -2   -1    0    0    0  501 -0.00000000000E+00  0.00000000000E+00  0.12009745847E+03  0.12009745850E+03  0.25500000000E-02 0. -1.
          2   -1    0    0  501    0  0.00000000000E+00 -0.00000000000E+00 -0.46647365377E+00  0.46648062356E+00  0.25500000000E-02 0.  1.
         31    1    1    2    0    0  0.95403897638E-01 -0.71918285616E+00  0.61374498449E+02  0.61828911617E+02  0.74470750000E+01 0.  1.
        -31    1    1    2    0    0 -0.95403897638E-01  0.71918285616E+00  0.58256486371E+02  0.58735027507E+02  0.74470750000E+01 0.  1.
<mgrwt>
<rscale>  0 0.14969666E+02</rscale>
<asrwt>0</asrwt>
<pdfrwt beam="2">  1        2 0.99077248E+00 0.14969666E+02</pdfrwt>
<pdfrwt beam="1">  1       -2 0.99690700E+00 0.14969666E+02</pdfrwt>
<totfact>-0.13609618E-13</totfact>
</mgrwt>
</event>
<event>
 4    1 -0.4882314E-019  0.1499207E+02  0.7818608E-02  0.1868311E+00
         -2   -1    0    0    0  501 -0.00000000000E+00  0.00000000000E+00  0.12014969055E+03  0.12014969058E+03  0.25500000000E-02 0. -1.
          2   -1    0    0  501    0  0.00000000000E+00 -0.00000000000E+00 -0.46766737981E+00  0.46767433181E+00  0.25500000000E-02 0.  1.
         31    1    1    2    0    0  0.80496232082E+00 -0.16636110727E+00  0.57938046846E+02  0.58420474483E+02  0.74470750000E+01 0.  1.
        -31    1    1    2    0    0 -0.80496232082E+00  0.16636110727E+00  0.61743976327E+02  0.62196890429E+02  0.74470750000E+01 0.  1.
<mgrwt>
<rscale>  0 0.14992066E+02</rscale>
<asrwt>0</asrwt>
<pdfrwt beam="2">  1        2 0.99329971E+00 0.14992066E+02</pdfrwt>
<pdfrwt beam="1">  1       -2 0.99734876E+00 0.14992066E+02</pdfrwt>
<totfact>-0.10152420E-13</totfact>
</mgrwt>
</event>
<event>
 4    1 -0.4882314E-019  0.1497969E+02  0.7818608E-02  0.1868689E+00
         -2   -1    0    0    0  501 -0.00000000000E+00  0.00000000000E+00  0.12006654059E+03  0.12006654062E+03  0.25500000000E-02 0.  1.
          2   -1    0    0  501    0  0.00000000000E+00 -0.00000000000E+00 -0.46721902897E+00  0.46722598764E+00  0.25500000000E-02 0. -1.
         31    1    1    2    0    0  0.61534460225E+00 -0.19405843844E+00  0.56003634524E+02  0.56500285961E+02  0.74470750000E+01 0. -1.
        -31    1    1    2    0    0 -0.61534460225E+00  0.19405843844E+00  0.63595687039E+02  0.64033480646E+02  0.74470750000E+01 0. -1.
<mgrwt>
<rscale>  0 0.14979692E+02</rscale>
<asrwt>0</asrwt>
<pdfrwt beam="2">  1        2 0.99234848E+00 0.14979692E+02</pdfrwt>
<pdfrwt beam="1">  1       -2 0.99665752E+00 0.14979692E+02</pdfrwt>
<totfact>-0.12638178E-13</totfact>
</mgrwt>
</event>
<event>
 4    1  0.4882314E-019  0.1493110E+02  0.7818608E-02  0.1870178E+00
         -2   -1    0    0    0  501 -0.00000000000E+00  0.00000000000E+00  0.11887150400E+03  0.11887150403E+03  0.25500000000E-02 0.  1.
          2   -1    0    0  501    0  0.00000000000E+00 -0.00000000000E+00 -0.46885911211E+00  0.46886604644E+00  0.25500000000E-02 0. -1.
         31    1    1    2    0    0  0.10862025335E+00  0.17638220907E+00  0.63055846907E+02  0.63494422308E+02  0.74470750000E+01 0.  1.
        -31    1    1    2    0    0 -0.10862025335E+00 -0.17638220907E+00  0.55346797985E+02  0.55845947770E+02  0.74470750000E+01 0. -1.
<mgrwt>
<rscale>  0 0.14931096E+02</rscale>
<asrwt>0</asrwt>
<pdfrwt beam="2">  1        2 0.99577939E+00 0.14931096E+02</pdfrwt>
<pdfrwt beam="1">  1       -2 0.98678968E+00 0.14931096E+02</pdfrwt>
<totfact> 0.24427278E-13</totfact>
</mgrwt>
</event>
<event>
 4    1 -0.4882314E-019  0.1495454E+02  0.7818608E-02  0.1869459E+00
          2   -1    0    0  501    0  0.00000000000E+00  0.00000000000E+00  0.11942248806E+03  0.11942248809E+03  0.25500000000E-02 0. -1.
         -2   -1    0    0    0  501 -0.00000000000E+00 -0.00000000000E+00 -0.46816282534E+00  0.46816976999E+00  0.25500000000E-02 0.  1.
         31    1    1    2    0    0  0.28837977885E-01 -0.58456989873E+00  0.56841192291E+02  0.57329945236E+02  0.74470750000E+01 0.  1.
        -31    1    1    2    0    0 -0.28837977885E-01  0.58456989873E+00  0.62113132943E+02  0.62560712621E+02  0.74470750000E+01 0. -1.
<mgrwt>
<rscale>  0 0.14954543E+02</rscale>
<asrwt>0</asrwt>
<pdfrwt beam="1">  1        2 0.99133984E+00 0.14954543E+02</pdfrwt>
<pdfrwt beam="2">  1       -2 0.99432441E+00 0.14954543E+02</pdfrwt>
<totfact>-0.15828666E-13</totfact>
</mgrwt>
</event>
<event>
 4    1 -0.4882314E-019  0.1498799E+02  0.7818608E-02  0.1868435E+00
         -2   -1    0    0    0  501 -0.00000000000E+00  0.00000000000E+00  0.11972742816E+03  0.11972742818E+03  0.25500000000E-02 0.  1.
          2   -1    0    0  501    0  0.00000000000E+00 -0.00000000000E+00 -0.46906193683E+00  0.46906886817E+00  0.25500000000E-02 0. -1.
         31    1    1    2    0    0  0.63894301922E+00 -0.44289850187E+00  0.62122521019E+02  0.62572125991E+02  0.74470750000E+01 0.  1.
        -31    1    1    2    0    0 -0.63894301922E+00  0.44289850187E+00  0.57135845200E+02  0.57624371060E+02  0.74470750000E+01 0.  1.
<mgrwt>
<rscale>  0 0.14987995E+02</rscale>
<asrwt>0</asrwt>
<pdfrwt beam="2">  1        2 0.99623645E+00 0.14987995E+02</pdfrwt>
<pdfrwt beam="1">  1       -2 0.99386873E+00 0.14987995E+02</pdfrwt>
<totfact>-0.98652405E-14</totfact>
</mgrwt>
</event>
<event>
 4    1 -0.4882314E-019  0.1491639E+02  0.7818608E-02  0.1870631E+00
         -2   -1    0    0    0  501 -0.00000000000E+00  0.00000000000E+00  0.11992242402E+03  0.11992242405E+03  0.25500000000E-02 0.  1.
          2   -1    0    0  501    0  0.00000000000E+00 -0.00000000000E+00 -0.46383533958E+00  0.46384234901E+00  0.25500000000E-02 0. -1.
         31    1    1    2    0    0  0.11276242127E-01  0.28299624287E+00  0.57368804078E+02  0.57850832504E+02  0.74470750000E+01 0. -1.
        -31    1    1    2    0    0 -0.11276242127E-01 -0.28299624287E+00  0.62089784603E+02  0.62535433892E+02  0.74470750000E+01 0.  1.
<mgrwt>
<rscale>  0 0.14916391E+02</rscale>
<asrwt>0</asrwt>
<pdfrwt beam="2">  1        2 0.98518491E+00 0.14916391E+02</pdfrwt>
<pdfrwt beam="1">  1       -2 0.99543788E+00 0.14916391E+02</pdfrwt>
<totfact>-0.33113829E-13</totfact>
</mgrwt>
</event>
<event>
 4    1 -0.4882314E-019  0.1494191E+02  0.7818608E-02  0.1869846E+00
          2   -1    0    0  501    0  0.00000000000E+00  0.00000000000E+00  0.11915620388E+03  0.11915620391E+03  0.25500000000E-02 0. -1.
         -2   -1    0    0    0  501 -0.00000000000E+00 -0.00000000000E+00 -0.46841660841E+00  0.46842354929E+00  0.25500000000E-02 0.  1.
         31    1    1    2    0    0 -0.12674220031E-01  0.43634283256E+00  0.62602631602E+02  0.63045530891E+02  0.74470750000E+01 0.  1.
        -31    1    1    2    0    0  0.12674220031E-01 -0.43634283256E+00  0.56085155668E+02  0.56579096565E+02  0.74470750000E+01 0.  1.
<mgrwt>
<rscale>  0 0.14941909E+02</rscale>
<asrwt>0</asrwt>
<pdfrwt beam="1">  1        2 0.98914012E+00 0.14941909E+02</pdfrwt>
<pdfrwt beam="2">  1       -2 0.99485262E+00 0.14941909E+02</pdfrwt>
<totfact>-0.19539554E-13</totfact>
</mgrwt>
</event>
<event>
 4    1  0.4882314E-019  0.1492064E+02  0.7818608E-02  0.1870500E+00
         -2   -1    0    0    0  501 -0.00000000000E+00  0.00000000000E+00  0.11851016750E+03  0.11851016753E+03  0.25500000000E-02 0.  1.
          2   -1    0    0  501    0  0.00000000000E+00 -0.00000000000E+00 -0.46962996060E+00  0.46963688355E+00  0.25500000000E-02 0. -1.
         31    1    1    2    0    0  0.79583512616E-02  0.93067434748E-02  0.55478595480E+02  0.55976188085E+02  0.74470750000E+01 0. -1.
        -31    1    1    2    0    0 -0.79583512616E-02 -0.93067434748E-02  0.62561942059E+02  0.63003616326E+02  0.74470750000E+01 0.  1.
<mgrwt>
<rscale>  0 0.14920635E+02</rscale>
<asrwt>0</asrwt>
<pdfrwt beam="2">  1        2 0.99739811E+00 0.14920635E+02</pdfrwt>
<pdfrwt beam="1">  1       -2 0.98380827E+00 0.14920635E+02</pdfrwt>
<totfact> 0.44220222E-13</totfact>
</mgrwt>
</event>
<event>
 4    1 -0.4882314E-019  0.1492104E+02  0.7818608E-02  0.1870488E+00
          2   -1    0    0  501    0  0.00000000000E+00  0.00000000000E+00  0.11914624290E+03  0.11914624293E+03  0.25500000000E-02 0. -1.
         -2   -1    0    0    0  501 -0.00000000000E+00 -0.00000000000E+00 -0.46714824609E+00  0.46715520582E+00  0.25500000000E-02 0.  1.
         31    1    1    2    0    0  0.23530864423E+00  0.31456115571E+00  0.61061331373E+02  0.61515034211E+02  0.74470750000E+01 0. -1.
        -31    1    1    2    0    0 -0.23530864423E+00 -0.31456115571E+00  0.57617763283E+02  0.58098363925E+02  0.74470750000E+01 0.  1.
<mgrwt>
<rscale>  0 0.14921042E+02</rscale>
<asrwt>0</asrwt>
<pdfrwt beam="1">  1        2 0.98904727E+00 0.14921042E+02</pdfrwt>
<pdfrwt beam="2">  1       -2 0.99216902E+00 0.14921042E+02</pdfrwt>
<totfact>-0.13844969E-13</totfact>
</mgrwt>
</event>
<event>
 4    1  0.4882314E-019  0.1492771E+02  0.7818608E-02  0.1870283E+00
         -2   -1    0    0    0  501 -0.00000000000E+00  0.00000000000E+00  0.11839053025E+03  0.11839053028E+03  0.25500000000E-02 0.  1.
          2   -1    0    0  501    0  0.00000000000E+00 -0.00000000000E+00 -0.47055040623E+00  0.47055731565E+00  0.25500000000E-02 0. -1.
         31    1    1    2    0    0 -0.46179929168E-01  0.18326651837E+00  0.62647549421E+02  0.63088906265E+02  0.74470750000E+01 0.  1.
        -31    1    1    2    0    0  0.46179929168E-01 -0.18326651837E+00  0.55272430426E+02  0.55772181332E+02  0.74470750000E+01 0. -1.
<mgrwt>
<rscale>  0 0.14927709E+02</rscale>
<asrwt>0</asrwt>
<pdfrwt beam="2">  1        2 0.99934119E+00 0.14927709E+02</pdfrwt>
<pdfrwt beam="1">  1       -2 0.98282664E+00 0.14927709E+02</pdfrwt>
<totfact> 0.17359207E-13</totfact>
</mgrwt>
</event>
<event>
 4    1  0.4882314E-019  0.1489974E+02  0.7818608E-02  0.1871144E+00
          2   -1    0    0  501    0  0.00000000000E+00  0.00000000000E+00  0.12012787153E+03  0.12012787156E+03  0.25500000000E-02 0.  1.
         -2   -1    0    0    0  501 -0.00000000000E+00 -0.00000000000E+00 -0.46200853547E+00  0.46201557263E+00  0.25500000000E-02 0. -1.
         31    1    1    2    0    0  0.47136268739E-02  0.40275196193E-01  0.58215105358E+02  0.58689514074E+02  0.74470750000E+01 0. -1.
        -31    1    1    2    0    0 -0.47136268739E-02 -0.40275196193E-01  0.61450757635E+02  0.61900373055E+02  0.74470750000E+01 0.  1.
<mgrwt>
<rscale>  0 0.14899735E+02</rscale>
<asrwt>0</asrwt>
<pdfrwt beam="1">  1        2 0.99712156E+00 0.14899735E+02</pdfrwt>
<pdfrwt beam="2">  1       -2 0.98132617E+00 0.14899735E+02</pdfrwt>
<totfact> 0.80226014E-13</totfact>
</mgrwt>
</event>
<event>
 4    1 -0.4882314E-019  0.1494359E+02  0.7818608E-02  0.1869795E+00
         -2   -1    0    0    0  501 -0.00000000000E+00  0.00000000000E+00  0.11988678496E+03  0.11988678499E+03  0.25500000000E-02 0. -1.
          2   -1    0    0  501    0  0.00000000000E+00 -0.00000000000E+00 -0.46566673477E+00  0.46567371664E+00  0.25500000000E-02 0.  1.
         31    1    1    2    0    0 -0.69980957912E-01  0.19860411758E+00  0.64297983571E+02  0.64728154294E+02  0.74470750000E+01 0. -1.
        -31    1    1    2    0    0  0.69980957912E-01 -0.19860411758E+00  0.55123134657E+02  0.55624304413E+02  0.74470750000E+01 0.  1.
<mgrwt>
<rscale>  0 0.14943589E+02</rscale>
<asrwt>0</asrwt>
<pdfrwt beam="2">  1        2 0.98905855E+00 0.14943589E+02</pdfrwt>
<pdfrwt beam="1">  1       -2 0.99515833E+00 0.14943589E+02</pdfrwt>
<totfact>-0.19585301E-13</totfact>
</mgrwt>
</event>
<event>
 4    1 -0.4882314E-019  0.1493002E+02  0.7818608E-02  0.1870212E+00
         -2   -1    0    0    0  501 -0.00000000000E+00  0.00000000000E+00  0.12012010400E+03  0.12012010402E+03  0.25500000000E-02 0.  1.
          2   -1    0    0  501    0  0.00000000000E+00 -0.00000000000E+00 -0.46391838743E+00  0.46392539561E+00  0.25500000000E-02 0. -1.
         31    1    1    2    0    0  0.47120331570E+00 -0.20482492185E+00  0.59354576823E+02  0.59822142236E+02  0.74470750000E+01 0.  1.
        -31    1    1    2    0    0 -0.47120331570E+00  0.20482492185E+00  0.60301608785E+02  0.60761887182E+02  0.74470750000E+01 0.  1.
<mgrwt>
<rscale>  0 0.14930017E+02</rscale>
<asrwt>0</asrwt>
<pdfrwt beam="2">  1        2 0.98536687E+00 0.14930017E+02</pdfrwt>
<pdfrwt beam="1">  1       -2 0.99707312E+00 0.14930017E+02</pdfrwt>
<totfact>-0.25791501E-13</totfact>
</mgrwt>
</event>
<event>
 4    1 -0.4882314E-019  0.1499293E+02  0.7818608E-02  0.1868284E+00
         -2   -1    0    0    0  501 -0.00000000000E+00  0.00000000000E+00  0.11952056714E+03  0.11952056716E+03  0.25500000000E-02 0. -1.
          2   -1    0    0  501    0  0.00000000000E+00 -0.00000000000E+00 -0.47018323045E+00  0.47019014526E+00  0.25500000000E-02 0.  1.
         31    1    1    2    0    0 -0.50407801952E+00 -0.52695262661E-01  0.65076783417E+02  0.65503462027E+02  0.74470750000E+01 0. -1.
        -31    1    1    2    0    0  0.50407801952E+00  0.52695262661E-01  0.53973600489E+02  0.54487295283E+02  0.74470750000E+01 0.  1.
<mgrwt>
<rscale>  0 0.14992929E+02</rscale>
<asrwt>0</asrwt>
<pdfrwt beam="2">  1        2 0.99860184E+00 0.14992929E+02</pdfrwt>
<pdfrwt beam="1">  1       -2 0.99216753E+00 0.14992929E+02</pdfrwt>
<totfact>-0.34360084E-14</totfact>
</mgrwt>
</event>
<event>
 4    1 -0.4882314E-019  0.1498925E+02  0.7818608E-02  0.1868397E+00
          2   -1    0    0  501    0  0.00000000000E+00  0.00000000000E+00  0.11980625443E+03  0.11980625446E+03  0.25500000000E-02 0. -1.
         -2   -1    0    0    0  501 -0.00000000000E+00 -0.00000000000E+00 -0.46883191252E+00  0.46883884726E+00  0.25500000000E-02 0.  1.
         31    1    1    2    0    0 -0.12730698886E+00  0.18157402848E+00  0.53143435026E+02  0.53663141807E+02  0.74470750000E+01 0.  1.
        -31    1    1    2    0    0  0.12730698886E+00 -0.18157402848E+00  0.66193987496E+02  0.66611951502E+02  0.74470750000E+01 0. -1.
<mgrwt>
<rscale>  0 0.14989251E+02</rscale>
<asrwt>0</asrwt>
<pdfrwt beam="1">  1        2 0.99451862E+00 0.14989251E+02</pdfrwt>
<pdfrwt beam="2">  1       -2 0.99575237E+00 0.14989251E+02</pdfrwt>
<totfact>-0.12009294E-13</totfact>
</mgrwt>
</event>
<event>
 4    1 -0.4882314E-019  0.1496034E+02  0.7818608E-02  0.1869281E+00
         -2   -1    0    0    0  501 -0.00000000000E+00  0.00000000000E+00  0.12007154082E+03  0.12007154085E+03  0.25500000000E-02 0. -1.
          2   -1    0    0  501    0  0.00000000000E+00 -0.00000000000E+00 -0.46599295060E+00  0.46599992758E+00  0.25500000000E-02 0.  1.
         31    1    1    2    0    0  0.56823318713E+00 -0.23308917989E+00  0.57049539706E+02  0.57536824089E+02  0.74470750000E+01 0.  1.
        -31    1    1    2    0    0 -0.56823318713E+00  0.23308917989E+00  0.62556008167E+02  0.63000716689E+02  0.74470750000E+01 0. -1.
<mgrwt>
<rscale>  0 0.14960336E+02</rscale>
<asrwt>0</asrwt>
<pdfrwt beam="2">  1        2 0.98975462E+00 0.14960336E+02</pdfrwt>
<pdfrwt beam="1">  1       -2 0.99668872E+00 0.14960336E+02</pdfrwt>
<totfact>-0.15574258E-13</totfact>
</mgrwt>
</event>
<event>
 4    1 -0.4882314E-019  0.1497050E+02  0.7818608E-02  0.1868970E+00
          2   -1    0    0  501    0  0.00000000000E+00  0.00000000000E+00  0.11972699266E+03  0.11972699268E+03  0.25500000000E-02 0. -1.
         -2   -1    0    0    0  501 -0.00000000000E+00 -0.00000000000E+00 -0.46796897257E+00  0.46797592010E+00  0.25500000000E-02 0.  1.
         31    1    1    2    0    0  0.59861989887E+00  0.18858846677E+00  0.56260293876E+02  0.56754502063E+02  0.74470750000E+01 0.  1.
        -31    1    1    2    0    0 -0.59861989887E+00 -0.18858846677E+00  0.62998729809E+02  0.63440466542E+02  0.74470750000E+01 0. -1.
<mgrwt>
<rscale>  0 0.14970496E+02</rscale>
<asrwt>0</asrwt>
<pdfrwt beam="1">  1        2 0.99385610E+00 0.14970496E+02</pdfrwt>
<pdfrwt beam="2">  1       -2 0.99392417E+00 0.14970496E+02</pdfrwt>
<totfact>-0.12859220E-13</totfact>
</mgrwt>
</event>
<event>
 4    1 -0.4882314E-019  0.1492056E+02  0.7818608E-02  0.1870502E+00
         -2   -1    0    0    0  501 -0.00000000000E+00  0.00000000000E+00  0.11948916662E+03  0.11948916664E+03  0.25500000000E-02 0.  1.
          2   -1    0    0  501    0  0.00000000000E+00 -0.00000000000E+00 -0.46577719777E+00  0.46578417799E+00  0.25500000000E-02 0. -1.
         31    1    1    2    0    0  0.11627351159E+00 -0.35286213592E+00  0.61461059170E+02  0.61911701249E+02  0.74470750000E+01 0.  1.
        -31    1    1    2    0    0 -0.11627351159E+00  0.35286213592E+00  0.57562330249E+02  0.58043249573E+02  0.74470750000E+01 0. -1.
<mgrwt>
<rscale>  0 0.14920556E+02</rscale>
<asrwt>0</asrwt>
<pdfrwt beam="2">  1        2 0.98927951E+00 0.14920556E+02</pdfrwt>
<pdfrwt beam="1">  1       -2 0.99187146E+00 0.14920556E+02</pdfrwt>
<totfact>-0.12038898E-13</totfact>
</mgrwt>
</event>
<event>
 4    1 -0.4882314E-019  0.1489988E+02  0.7818608E-02  0.1871139E+00
          2   -1    0    0  501    0  0.00000000000E+00  0.00000000000E+00  0.11835039314E+03  0.11835039317E+03  0.25500000000E-02 0. -1.
         -2   -1    0    0    0  501 -0.00000000000E+00 -0.00000000000E+00 -0.46895675661E+00  0.46896368950E+00  0.25500000000E-02 0.  1.
         31    1    1    2    0    0 -0.30860673191E-01  0.76023163485E-01  0.57428247308E+02  0.57909146486E+02  0.74470750000E+01 0.  1.
        -31    1    1    2    0    0  0.30860673191E-01 -0.76023163485E-01  0.60453189077E+02  0.60910210372E+02  0.74470750000E+01 0. -1.
<mgrwt>
<rscale>  0 0.14899883E+02</rscale>
<asrwt>0</asrwt>
<pdfrwt beam="1">  1        2 0.98248158E+00 0.14899883E+02</pdfrwt>
<pdfrwt beam="2">  1       -2 0.99596872E+00 0.14899883E+02</pdfrwt>
<totfact>-0.49771075E-13</totfact>
</mgrwt>
</event>
<event>
 4    1 -0.4882314E-019  0.1490552E+02  0.7818608E-02  0.1870965E+00
         -2   -1    0    0    0  501 -0.00000000000E+00  0.00000000000E+00  0.12006713239E+03  0.12006713241E+03  0.25500000000E-02 0.  1.
          2   -1    0    0  501    0  0.00000000000E+00 -0.00000000000E+00 -0.46260115383E+00  0.46260818197E+00  0.25500000000E-02 0. -1.
         31    1    1    2    0    0 -0.26272156740E+00  0.91637549249E-02  0.58792730175E+02  0.59263084244E+02  0.74470750000E+01 0. -1.
        -31    1    1    2    0    0  0.26272156740E+00 -0.91637549249E-02  0.60811801058E+02  0.61266656352E+02  0.74470750000E+01 0.  1.
<mgrwt>
<rscale>  0 0.14905518E+02</rscale>
<asrwt>0</asrwt>
<pdfrwt beam="2">  1        2 0.98257817E+00 0.14905518E+02</pdfrwt>
<pdfrwt beam="1">  1       -2 0.99662423E+00 0.14905518E+02</pdfrwt>
<totfact>-0.44780011E-13</totfact>
</mgrwt>
</event>
<event>
 4    1  0.4882314E-019  0.1492889E+02  0.7818608E-02  0.1870246E+00
          2   -1    0    0  501    0  0.00000000000E+00  0.00000000000E+00  0.11970621759E+03  0.11970621762E+03  0.25500000000E-02 0.  1.
         -2   -1    0    0    0  501 -0.00000000000E+00 -0.00000000000E+00 -0.46545241929E+00  0.46545940437E+00  0.25500000000E-02 0. -1.
         31    1    1    2    0    0 -0.47274046220E+00 -0.40533152961E-01  0.58137913477E+02  0.58614853374E+02  0.74470750000E+01 0. -1.
        -31    1    1    2    0    0  0.47274046220E+00  0.40533152961E-01  0.61102851698E+02  0.61556823652E+02  0.74470750000E+01 0. -1.
<mgrwt>
<rscale>  0 0.14928894E+02</rscale>
<asrwt>0</asrwt>
<pdfrwt beam="1">  1        2 0.99366351E+00 0.14928894E+02</pdfrwt>
<pdfrwt beam="2">  1       -2 0.98859935E+00 0.14928894E+02</pdfrwt>
<totfact> 0.11492016E-13</totfact>
</mgrwt>
</event>
<event>
 4    1 -0.4882314E-019  0.1493223E+02  0.7818608E-02  0.1870144E+00
          2   -1    0    0  501    0  0.00000000000E+00  0.00000000000E+00  0.11855513315E+03  0.11855513317E+03  0.25500000000E-02 0. -1.
         -2   -1    0    0    0  501 -0.00000000000E+00 -0.00000000000E+00 -0.47018170840E+00  0.47018862323E+00  0.25500000000E-02 0.  1.
         31    1    1    2    0    0 -0.32129756874E+00  0.12395593458E-01  0.62429521821E+02  0.62872947335E+02  0.74470750000E+01 0. -1.
        -31    1    1    2    0    0  0.32129756874E+00 -0.12395593458E-01  0.55655429616E+02  0.56152374461E+02  0.74470750000E+01 0.  1.
<mgrwt>
<rscale>  0 0.14932229E+02</rscale>
<asrwt>0</asrwt>
<pdfrwt beam="1">  1        2 0.98418464E+00 0.14932229E+02</pdfrwt>
<pdfrwt beam="2">  1       -2 0.99856676E+00 0.14932229E+02</pdfrwt>
<totfact>-0.17817732E-13</totfact>
</mgrwt>
</event>
<event>
 4    1  0.4882314E-019  0.1489921E+02  0.7818608E-02  0.1871160E+00
          2   -1    0    0  501    0  0.00000000000E+00  0.00000000000E+00  0.12003763313E+03  0.12003763316E+03  0.25500000000E-02 0.  1.
         -2   -1    0    0    0  501 -0.00000000000E+00 -0.00000000000E+00 -0.46232322206E+00  0.46233025442E+00  0.25500000000E-02 0. -1.
         31    1    1    2    0    0 -0.76401577058E-01  0.91845064899E-01  0.61025145258E+02  0.61477976158E+02  0.74470750000E+01 0.  1.
        -31    1    1    2    0    0  0.76401577058E-01 -0.91845064899E-01  0.58550164652E+02  0.59021987255E+02  0.74470750000E+01 0. -1.
<mgrwt>
<rscale>  0 0.14899209E+02</rscale>
<asrwt>0</asrwt>
<pdfrwt beam="1">  1        2 0.99637801E+00 0.14899209E+02</pdfrwt>
<pdfrwt beam="2">  1       -2 0.98198918E+00 0.14899209E+02</pdfrwt>
<totfact> 0.81996103E-13</totfact>
</mgrwt>
</event>
<event>
 4    1 -0.4882314E-019  0.1489648E+02  0.7818608E-02  0.1871244E+00
         -2   -1    0    0    0  501 -0.00000000000E+00  0.00000000000E+00  0.12033087156E+03  0.12033087159E+03  0.25500000000E-02 0.  1.
          2   -1    0    0  501    0  0.00000000000E+00 -0.00000000000E+00 -0.46102767548E+00  0.46103472761E+00  0.25500000000E-02 0. -1.
         31    1    1    2    0    0  0.46619749180E-01 -0.64097323664E-01  0.60788525043E+02  0.61243040297E+02  0.74470750000E+01 0. -1.
        -31    1    1    2    0    0 -0.46619749180E-01  0.64097323664E-01  0.59081318840E+02  0.59548866016E+02  0.74470750000E+01 0. -1.
<mgrwt>
<rscale>  0 0.14896481E+02</rscale>
<asrwt>0</asrwt>
<pdfrwt beam="2">  1        2 0.97925710E+00 0.14896481E+02</pdfrwt>
<pdfrwt beam="1">  1       -2 0.99879200E+00 0.14896481E+02</pdfrwt>
<totfact>-0.34846679E-13</totfact>
</mgrwt>
</event>
<event>
 4    1 -0.4882314E-019  0.1495419E+02  0.7818608E-02  0.1869470E+00
         -2   -1    0    0    0  501 -0.00000000000E+00  0.00000000000E+00  0.11946323070E+03  0.11946323073E+03  0.25500000000E-02 0. -1.
          2   -1    0    0  501    0  0.00000000000E+00 -0.00000000000E+00 -0.46798078279E+00  0.46798773014E+00  0.25500000000E-02 0.  1.
         31    1    1    2    0    0  0.37264327082E+00 -0.32895631918E-02  0.55038709632E+02  0.55541492218E+02  0.74470750000E+01 0.  1.
        -31    1    1    2    0    0 -0.37264327082E+00  0.32895631918E-02  0.63956540289E+02  0.64389726243E+02  0.74470750000E+01 0. -1.
<mgrwt>
<rscale>  0 0.14954185E+02</rscale>
<asrwt>0</asrwt>
<pdfrwt beam="2">  1        2 0.99394061E+00 0.14954185E+02</pdfrwt>
<pdfrwt beam="1">  1       -2 0.99167523E+00 0.14954185E+02</pdfrwt>
<totfact>-0.74973674E-14</totfact>
</mgrwt>
</event>
<event>
 4    1  0.4882314E-019  0.1491897E+02  0.7818608E-02  0.1870551E+00
         -2   -1    0    0    0  501 -0.00000000000E+00  0.00000000000E+00  0.11905865643E+03  0.11905865645E+03  0.25500000000E-02 0. -1.
          2   -1    0    0  501    0  0.00000000000E+00 -0.00000000000E+00 -0.46736179433E+00  0.46736875088E+00  0.25500000000E-02 0.  1.
         31    1    1    2    0    0 -0.13299106465E+00 -0.19019120141E+00  0.56394806152E+02  0.56884856916E+02  0.74470750000E+01 0.  1.
        -31    1    1    2    0    0  0.13299106465E+00  0.19019120141E+00  0.62196488478E+02  0.62641168288E+02  0.74470750000E+01 0. -1.
<mgrwt>
<rscale>  0 0.14918966E+02</rscale>
<asrwt>0</asrwt>
<pdfrwt beam="2">  1        2 0.99261794E+00 0.14918966E+02</pdfrwt>
<pdfrwt beam="1">  1       -2 0.98832480E+00 0.14918966E+02</pdfrwt>
<totfact> 0.15049661E-13</totfact>
</mgrwt>
</event>
<event>
 4    1  0.4882314E-019  0.1491073E+02  0.7818608E-02  0.1870805E+00
          2   -1    0    0  501    0  0.00000000000E+00  0.00000000000E+00  0.11988019175E+03  0.11988019178E+03  0.25500000000E-02 0.  1.
         -2   -1    0    0    0  501 -0.00000000000E+00 -0.00000000000E+00 -0.46364647678E+00  0.46365348907E+00  0.25500000000E-02 0. -1.
         31    1    1    2    0    0  0.11533934520E+00  0.31185678024E+00  0.60627378684E+02  0.61083946581E+02  0.74470750000E+01 0. -1.
        -31    1    1    2    0    0 -0.11533934520E+00 -0.31185678024E+00  0.58789166590E+02  0.59259898685E+02  0.74470750000E+01 0. -1.
<mgrwt>
<rscale>  0 0.14910728E+02</rscale>
<asrwt>0</asrwt>
<pdfrwt beam="1">  1        2 0.99508711E+00 0.14910728E+02</pdfrwt>
<pdfrwt beam="2">  1       -2 0.98478398E+00 0.14910728E+02</pdfrwt>
<totfact> 0.51017145E-13</totfact>
</mgrwt>
</event>
<event>
 4    1 -0.4882314E-019  0.1490448E+02  0.7818608E-02  0.1870997E+00
         -2   -1    0    0    0  501 -0.00000000000E+00  0.00000000000E+00  0.12031922626E+03  0.12031922628E+03  0.25500000000E-02 0.  1.
          2   -1    0    0  501    0  0.00000000000E+00 -0.00000000000E+00 -0.46156751781E+00  0.46157456169E+00  0.25500000000E-02 0. -1.
         31    1    1    2    0    0  0.18708812417E+00 -0.13428061964E+00  0.58675659067E+02  0.59146808251E+02  0.74470750000E+01 0. -1.
        -31    1    1    2    0    0 -0.18708812417E+00  0.13428061964E+00  0.61181999673E+02  0.61633992595E+02  0.74470750000E+01 0.  1.
<mgrwt>
<rscale>  0 0.14904479E+02</rscale>
<asrwt>0</asrwt>
<pdfrwt beam="2">  1        2 0.98039900E+00 0.14904479E+02</pdfrwt>
<pdfrwt beam="1">  1       -2 0.99870017E+00 0.14904479E+02</pdfrwt>
<totfact>-0.30875980E-13</totfact>
</mgrwt>
</event>
<event>
 4    1 -0.4882314E-019  0.1498152E+02  0.7818608E-02  0.1868633E+00
         -2   -1    0    0    0  501 -0.00000000000E+00  0.00000000000E+00  0.11939056566E+03  0.11939056569E+03  0.25500000000E-02 0.  1.
          2   -1    0    0  501    0  0.00000000000E+00 -0.00000000000E+00 -0.46997903250E+00  0.46998595031E+00  0.25500000000E-02 0. -1.
         31    1    1    2    0    0 -0.71641852980E+00 -0.22676049837E+00  0.61831982127E+02  0.62283365481E+02  0.74470750000E+01 0.  1.
        -31    1    1    2    0    0  0.71641852980E+00  0.22676049837E+00  0.57088604501E+02  0.57577186157E+02  0.74470750000E+01 0. -1.
<mgrwt>
<rscale>  0 0.14981519E+02</rscale>
<asrwt>0</asrwt>
<pdfrwt beam="2">  1        2 0.99816560E+00 0.14981519E+02</pdfrwt>
<pdfrwt beam="1">  1       -2 0.99109090E+00 0.14981519E+02</pdfrwt>
<totfact>-0.23410223E-14</totfact>
</mgrwt>
</event>
<event>
 4    1  0.4882314E-019  0.1493334E+02  0.7818608E-02  0.1870110E+00
          2   -1    0    0  501    0  0.00000000000E+00  0.00000000000E+00  0.12028935284E+03  0.12028935287E+03  0.25500000000E-02 0.  1.
         -2   -1    0    0    0  501 -0.00000000000E+00 -0.00000000000E+00 -0.46347170325E+00  0.46347871819E+00  0.25500000000E-02 0. -1.
         31    1    1    2    0    0 -0.48382030224E+00  0.23356527581E+00  0.60396456636E+02  0.60856220184E+02  0.74470750000E+01 0. -1.
        -31    1    1    2    0    0  0.48382030224E+00 -0.23356527581E+00  0.59429424500E+02  0.59896611401E+02  0.74470750000E+01 0.  1.
<mgrwt>
<rscale>  0 0.14933337E+02</rscale>
<asrwt>0</asrwt>
<pdfrwt beam="1">  1        2 0.99846890E+00 0.14933337E+02</pdfrwt>
<pdfrwt beam="2">  1       -2 0.98442709E+00 0.14933337E+02</pdfrwt>
<totfact> 0.25082878E-13</totfact>
</mgrwt>
</event>
<event>
 4    1  0.4882314E-019  0.1491827E+02  0.7818608E-02  0.1870573E+00
          2   -1    0    0  501    0  0.00000000000E+00  0.00000000000E+00  0.11988141759E+03  0.11988141762E+03  0.25500000000E-02 0. -1.
         -2   -1    0    0    0  501 -0.00000000000E+00 -0.00000000000E+00 -0.46411060286E+00  0.46411760814E+00  0.25500000000E-02 0.  1.
         31    1    1    2    0    0  0.35346479385E+00 -0.10466634226E+00  0.58019553713E+02  0.58496695902E+02  0.74470750000E+01 0.  1.
        -31    1    1    2    0    0 -0.35346479385E+00  0.10466634226E+00  0.61397753279E+02  0.61848839328E+02  0.74470750000E+01 0. -1.
<mgrwt>
<rscale>  0 0.14918265E+02</rscale>
<asrwt>0</asrwt>
<pdfrwt beam="1">  1        2 0.99510109E+00 0.14918265E+02</pdfrwt>
<pdfrwt beam="2">  1       -2 0.98576601E+00 0.14918265E+02</pdfrwt>
<totfact> 0.38099245E-13</totfact>
</mgrwt>
</event>
<event>
 4    1 -0.4882314E-019  0.1494018E+02  0.7818608E-02  0.1869899E+00
          2   -1    0    0  501    0  0.00000000000E+00  0.00000000000E+00  0.11903708626E+03  0.11903708629E+03  0.25500000000E-02 0. -1.
         -2   -1    0    0    0  501 -0.00000000000E+00 -0.00000000000E+00 -0.46877675844E+00  0.46878369399E+00  0.25500000000E-02 0.  1.
         31    1    1    2    0    0  0.39052487273E+00 -0.27414763273E+00  0.62004304384E+02  0.62451744210E+02  0.74470750000E+01 0.  1.
        -31    1    1    2    0    0 -0.39052487273E+00  0.27414763273E+00  0.56564005120E+02  0.57054125775E+02  0.74470750000E+01 0.  1.
<mgrwt>
<rscale>  0 0.14940179E+02</rscale>
<asrwt>0</asrwt>
<pdfrwt beam="1">  1        2 0.98815815E+00 0.14940179E+02</pdfrwt>
<pdfrwt beam="2">  1       -2 0.99561061E+00 0.14940179E+02</pdfrwt>
<totfact>-0.21260699E-13</totfact>
</mgrwt>
</event>
<event>
 4    1 -0.4882314E-019  0.1490515E+02  0.7818608E-02  0.1870977E+00
         -2   -1    0    0    0  501 -0.00000000000E+00  0.00000000000E+00  0.12015355930E+03  0.12015355932E+03  0.25500000000E-02 0.  1.
          2   -1    0    0  501    0  0.00000000000E+00 -0.00000000000E+00 -0.46224576068E+00  0.46225279422E+00  0.25500000000E-02 0. -1.
         31    1    1    2    0    0 -0.15462520744E+00  0.18416279809E+00  0.58588148405E+02  0.59060036273E+02  0.74470750000E+01 0.  1.
        -31    1    1    2    0    0  0.15462520744E+00 -0.18416279809E+00  0.61103165130E+02  0.61555775845E+02  0.74470750000E+01 0.  1.
<mgrwt>
<rscale>  0 0.14905153E+02</rscale>
<asrwt>0</asrwt>
<pdfrwt beam="2">  1        2 0.98182892E+00 0.14905153E+02</pdfrwt>
<pdfrwt beam="1">  1       -2 0.99733593E+00 0.14905153E+02</pdfrwt>
<totfact>-0.43611265E-13</totfact>
</mgrwt>
</event>
<event>
 4    1 -0.4882314E-019  0.1494805E+02  0.7818608E-02  0.1869658E+00
         -2   -1    0    0    0  501 -0.00000000000E+00  0.00000000000E+00  0.11973870754E+03  0.11973870756E+03  0.25500000000E-02 0. -1.
          2   -1    0    0  501    0  0.00000000000E+00 -0.00000000000E+00 -0.46652077240E+00  0.46652774150E+00  0.25500000000E-02 0.  1.
         31    1    1    2    0    0 -0.15994842108E+00  0.22642249763E+00  0.55050033758E+02  0.55552155615E+02  0.74470750000E+01 0.  1.
        -31    1    1    2    0    0  0.15994842108E+00 -0.22642249763E+00  0.64222153006E+02  0.64653079690E+02  0.74470750000E+01 0. -1.
<mgrwt>
<rscale>  0 0.14948045E+02</rscale>
<asrwt>0</asrwt>
<pdfrwt beam="2">  1        2 0.99086068E+00 0.14948045E+02</pdfrwt>
<pdfrwt beam="1">  1       -2 0.99394099E+00 0.14948045E+02</pdfrwt>
<totfact>-0.16116362E-13</totfact>
</mgrwt>
</event>
<event>
 4    1 -0.4882314E-019  0.1501178E+02  0.7818608E-02  0.1867709E+00
         -2   -1    0    0    0  501 -0.00000000000E+00  0.00000000000E+00  0.11991705051E+03  0.11991705053E+03  0.25500000000E-02 0.  1.
          2   -1    0    0  501    0  0.00000000000E+00 -0.00000000000E+00 -0.46980768000E+00  0.46981460033E+00  0.25500000000E-02 0. -1.
         31    1    1    2    0    0  0.12493774940E+00 -0.87807572619E+00  0.57280411714E+02  0.57769292177E+02  0.74470750000E+01 0. -1.
        -31    1    1    2    0    0 -0.12493774940E+00  0.87807572619E+00  0.62166831112E+02  0.62617572956E+02  0.74470750000E+01 0.  1.
<mgrwt>
<rscale>  0 0.15011778E+02</rscale>
<asrwt>0</asrwt>
<pdfrwt beam="2">  1        2 0.99782028E+00 0.15011778E+02</pdfrwt>
<pdfrwt beam="1">  1       -2 0.99544283E+00 0.15011778E+02</pdfrwt>
<totfact>-0.68762773E-14</totfact>
</mgrwt>
</event>
<event>
 4    1  0.4882314E-019  0.1491591E+02  0.7818608E-02  0.1870645E+00
         -2   -1    0    0    0  501 -0.00000000000E+00  0.00000000000E+00  0.11861192246E+03  0.11861192249E+03  0.25500000000E-02 0.  1.
          2   -1    0    0  501    0  0.00000000000E+00 -0.00000000000E+00 -0.46893018856E+00  0.46893712184E+00  0.25500000000E-02 0. -1.
         31    1    1    2    0    0 -0.30952217428E+00  0.13571392042E+00  0.60820174806E+02  0.61275336080E+02  0.74470750000E+01 0.  1.
        -31    1    1    2    0    0  0.30952217428E+00 -0.13571392042E+00  0.57322817465E+02  0.57805523529E+02  0.74470750000E+01 0. -1.
<mgrwt>
<rscale>  0 0.14915914E+02</rscale>
<asrwt>0</asrwt>
<pdfrwt beam="2">  1        2 0.99592118E+00 0.14915914E+02</pdfrwt>
<pdfrwt beam="1">  1       -2 0.98464386E+00 0.14915914E+02</pdfrwt>
<totfact> 0.47856732E-13</totfact>
</mgrwt>
</event>
<event>
 4    1 -0.4882314E-019  0.1497509E+02  0.7818608E-02  0.1868830E+00
         -2   -1    0    0    0  501 -0.00000000000E+00  0.00000000000E+00  0.11986005069E+03  0.11986005072E+03  0.25500000000E-02 0. -1.
          2   -1    0    0  501    0  0.00000000000E+00 -0.00000000000E+00 -0.46773633889E+00  0.46774328987E+00  0.25500000000E-02 0.  1.
         31    1    1    2    0    0  0.30233137524E+00  0.52823394323E+00  0.63582732427E+02  0.64020256359E+02  0.74470750000E+01 0. -1.
        -31    1    1    2    0    0 -0.30233137524E+00 -0.52823394323E+00  0.55809581926E+02  0.56307537650E+02  0.74470750000E+01 0.  1.
<mgrwt>
<rscale>  0 0.14975089E+02</rscale>
<asrwt>0</asrwt>
<pdfrwt beam="2">  1        2 0.99343630E+00 0.14975089E+02</pdfrwt>
<pdfrwt beam="1">  1       -2 0.99495439E+00 0.14975089E+02</pdfrwt>
<totfact>-0.13653464E-13</totfact>
</mgrwt>
</event>
<event>
 4    1 -0.4882314E-019  0.1495252E+02  0.7818608E-02  0.1869521E+00
         -2   -1    0    0    0  501 -0.00000000000E+00  0.00000000000E+00  0.11983701846E+03  0.11983701849E+03  0.25500000000E-02 0. -1.
          2   -1    0    0  501    0  0.00000000000E+00 -0.00000000000E+00 -0.46641692684E+00  0.46642389749E+00  0.25500000000E-02 0.  1.
         31    1    1    2    0    0  0.23895299398E+00  0.61513557424E+00  0.59719848106E+02  0.60186000649E+02  0.74470750000E+01 0. -1.
        -31    1    1    2    0    0 -0.23895299398E+00 -0.61513557424E+00  0.59650753429E+02  0.60117441738E+02  0.74470750000E+01 0. -1.
<mgrwt>
<rscale>  0 0.14952516E+02</rscale>
<asrwt>0</asrwt>
<pdfrwt beam="2">  1        2 0.99064413E+00 0.14952516E+02</pdfrwt>
<pdfrwt beam="1">  1       -2 0.99475303E+00 0.14952516E+02</pdfrwt>
<totfact>-0.16886834E-13</totfact>
</mgrwt>
</event>
<event>
 4    1  0.4882314E-019  0.1491615E+02  0.7818608E-02  0.1870638E+00
          2   -1    0    0  501    0  0.00000000000E+00  0.00000000000E+00  0.12013340733E+03  0.12013340736E+03  0.25500000000E-02 0. -1.
         -2   -1    0    0    0  501 -0.00000000000E+00 -0.00000000000E+00 -0.46300553494E+00  0.46301255694E+00  0.25500000000E-02 0.  1.
         31    1    1    2    0    0 -0.21423770741E+00 -0.31028405772E+00  0.61027767166E+02  0.61481618922E+02  0.74470750000E+01 0. -1.
        -31    1    1    2    0    0  0.21423770741E+00  0.31028405772E+00  0.58642634634E+02  0.59114800996E+02  0.74470750000E+01 0.  1.
<mgrwt>
<rscale>  0 0.14916147E+02</rscale>
<asrwt>0</asrwt>
<pdfrwt beam="1">  1        2 0.99717558E+00 0.14916147E+02</pdfrwt>
<pdfrwt beam="2">  1       -2 0.98343586E+00 0.14916147E+02</pdfrwt>
<totfact> 0.51145097E-13</totfact>
</mgrwt>
</event>
<event>
 4    1 -0.4882314E-019  0.1498793E+02  0.7818608E-02  0.1868437E+00
         -2   -1    0    0    0  501 -0.00000000000E+00  0.00000000000E+00  0.11980581123E+03  0.11980581126E+03  0.25500000000E-02 0. -1.
          2   -1    0    0  501    0  0.00000000000E+00 -0.00000000000E+00 -0.46875070723E+00  0.46875764317E+00  0.25500000000E-02 0.  1.
         31    1    1    2    0    0  0.59916590824E+00  0.22153922604E+00  0.64008377509E+02  0.64443303739E+02  0.74470750000E+01 0. -1.
        -31    1    1    2    0    0 -0.59916590824E+00 -0.22153922604E+00  0.55328683016E+02  0.55831265163E+02  0.74470750000E+01 0.  1.
<mgrwt>
<rscale>  0 0.14987925E+02</rscale>
<asrwt>0</asrwt>
<pdfrwt beam="2">  1        2 0.99558056E+00 0.14987925E+02</pdfrwt>
<pdfrwt beam="1">  1       -2 0.99451429E+00 0.14987925E+02</pdfrwt>
<totfact>-0.11171077E-13</totfact>
</mgrwt>
</event>
<event>
 4    1  0.4882314E-019  0.1495012E+02  0.7818608E-02  0.1869594E+00
          2   -1    0    0  501    0  0.00000000000E+00  0.00000000000E+00  0.12032744971E+03  0.12032744974E+03  0.25500000000E-02 0. -1.
         -2   -1    0    0    0  501 -0.00000000000E+00 -0.00000000000E+00 -0.46436727657E+00  0.46437427798E+00  0.25500000000E-02 0.  1.
         31    1    1    2    0    0 -0.28095846227E+00 -0.35245228271E+00  0.63673286935E+02  0.64108888272E+02  0.74470750000E+01 0. -1.
        -31    1    1    2    0    0  0.28095846227E+00  0.35245228271E+00  0.56189795498E+02  0.56682935743E+02  0.74470750000E+01 0.  1.
<mgrwt>
<rscale>  0 0.14950124E+02</rscale>
<asrwt>0</asrwt>
<pdfrwt beam="1">  1        2 0.99879131E+00 0.14950124E+02</pdfrwt>
<pdfrwt beam="2">  1       -2 0.98632317E+00 0.14950124E+02</pdfrwt>
<totfact> 0.11557828E-13</totfact>
</mgrwt>
</event>
<event>
 4    1 -0.4882314E-019  0.1492877E+02  0.7818608E-02  0.1870250E+00
          2   -1    0    0  501    0  0.00000000000E+00  0.00000000000E+00  0.11863034192E+03  0.11863034194E+03  0.25500000000E-02 0. -1.
         -2   -1    0    0    0  501 -0.00000000000E+00 -0.00000000000E+00 -0.46966589051E+00  0.46967281293E+00  0.25500000000E-02 0.  1.
         31    1    1    2    0    0 -0.13585790330E+00  0.47654590312E+00  0.58186258791E+02  0.58662979736E+02  0.74470750000E+01 0.  1.
        -31    1    1    2    0    0  0.13585790330E+00 -0.47654590312E+00  0.59974417236E+02  0.60437035021E+02  0.74470750000E+01 0.  1.
<mgrwt>
<rscale>  0 0.14928769E+02</rscale>
<asrwt>0</asrwt>
<pdfrwt beam="1">  1        2 0.98480225E+00 0.14928769E+02</pdfrwt>
<pdfrwt beam="2">  1       -2 0.99747810E+00 0.14928769E+02</pdfrwt>
<totfact>-0.25464648E-13</totfact>
</mgrwt>
</event>
<event>
 4    1 -0.4882314E-019  0.1496382E+02  0.7818608E-02  0.1869175E+00
          2   -1    0    0  501    0  0.00000000000E+00  0.00000000000E+00  0.11962257444E+03  0.11962257447E+03  0.25500000000E-02 0. -1.
         -2   -1    0    0    0  501 -0.00000000000E+00 -0.00000000000E+00 -0.46795991202E+00  0.46796685968E+00  0.25500000000E-02 0.  1.
         31    1    1    2    0    0  0.69519779911E-01 -0.71688994248E+00  0.59866441229E+02  0.60332151260E+02  0.74470750000E+01 0. -1.
        -31    1    1    2    0    0 -0.69519779911E-01  0.71688994248E+00  0.59288173303E+02  0.59758390071E+02  0.74470750000E+01 0.  1.
<mgrwt>
<rscale>  0 0.14963821E+02</rscale>
<asrwt>0</asrwt>
<pdfrwt beam="1">  1        2 0.99299262E+00 0.14963821E+02</pdfrwt>
<pdfrwt beam="2">  1       -2 0.99390162E+00 0.14963821E+02</pdfrwt>
<totfact>-0.13693603E-13</totfact>
</mgrwt>
</event>
<event>
 4    1  0.4882314E-019  0.1490950E+02  0.7818608E-02  0.1870843E+00
          2   -1    0    0  501    0  0.00000000000E+00  0.00000000000E+00  0.12036270360E+03  0.12036270363E+03  0.25500000000E-02 0. -1.
         -2   -1    0    0    0  501 -0.00000000000E+00 -0.00000000000E+00 -0.46171197199E+00  0.46171901367E+00  0.25500000000E-02 0.  1.
         31    1    1    2    0    0  0.28402492995E+00 -0.16951946429E+00  0.60523249927E+02  0.60980588016E+02  0.74470750000E+01 0.  1.
        -31    1    1    2    0    0 -0.28402492995E+00  0.16951946429E+00  0.59377741706E+02  0.59843834630E+02  0.74470750000E+01 0.  1.
<mgrwt>
<rscale>  0 0.14909504E+02</rscale>
<asrwt>0</asrwt>
<pdfrwt beam="1">  1        2 0.99906086E+00 0.14909504E+02</pdfrwt>
<pdfrwt beam="2">  1       -2 0.98070601E+00 0.14909504E+02</pdfrwt>
<totfact> 0.36310986E-13</totfact>
</mgrwt>
</event>
<event>
 4    1  0.4882314E-019  0.1492467E+02  0.7818608E-02  0.1870376E+00
         -2   -1    0    0    0  501 -0.00000000000E+00  0.00000000000E+00  0.11871678387E+03  0.11871678390E+03  0.25500000000E-02 0.  1.
          2   -1    0    0  501    0  0.00000000000E+00 -0.00000000000E+00 -0.46906606417E+00  0.46907299545E+00  0.25500000000E-02 0. -1.
         31    1    1    2    0    0  0.32502489184E+00  0.20943298441E+00  0.61354177412E+02  0.61805691610E+02  0.74470750000E+01 0. -1.
        -31    1    1    2    0    0 -0.32502489184E+00 -0.20943298441E+00  0.56893540393E+02  0.57380165282E+02  0.74470750000E+01 0.  1.
<mgrwt>
<rscale>  0 0.14924668E+02</rscale>
<asrwt>0</asrwt>
<pdfrwt beam="2">  1        2 0.99621208E+00 0.14924668E+02</pdfrwt>
<pdfrwt beam="1">  1       -2 0.98551205E+00 0.14924668E+02</pdfrwt>
<totfact> 0.35722926E-13</totfact>
</mgrwt>
</event>
<event>
 4    1  0.4882314E-019  0.1491811E+02  0.7818608E-02  0.1870578E+00
         -2   -1    0    0    0  501 -0.00000000000E+00  0.00000000000E+00  0.11825746215E+03  0.11825746218E+03  0.25500000000E-02 0. -1.
          2   -1    0    0  501    0  0.00000000000E+00 -0.00000000000E+00 -0.47047454043E+00  0.47048145096E+00  0.25500000000E-02 0.  1.
         31    1    1    2    0    0  0.11763734458E+00  0.23062281374E+00  0.56234955227E+02  0.56726502984E+02  0.74470750000E+01 0.  1.
        -31    1    1    2    0    0 -0.11763734458E+00 -0.23062281374E+00  0.61552032381E+02  0.62001440643E+02  0.74470750000E+01 0. -1.
<mgrwt>
<rscale>  0 0.14918115E+02</rscale>
<asrwt>0</asrwt>
<pdfrwt beam="2">  1        2 0.99917626E+00 0.14918115E+02</pdfrwt>
<pdfrwt beam="1">  1       -2 0.98172571E+00 0.14918115E+02</pdfrwt>
<totfact> 0.26693105E-13</totfact>
</mgrwt>
</event>
<event>
 4    1  0.4882314E-019  0.1489603E+02  0.7818608E-02  0.1871258E+00
          2   -1    0    0  501    0  0.00000000000E+00  0.00000000000E+00  0.12010426015E+03  0.12010426017E+03  0.25500000000E-02 0. -1.
         -2   -1    0    0    0  501 -0.00000000000E+00 -0.00000000000E+00 -0.46186980757E+00  0.46187684684E+00  0.25500000000E-02 0.  1.
         31    1    1    2    0    0  0.43867855859E-01  0.29043023886E-01  0.58962196376E+02  0.59430651144E+02  0.74470750000E+01 0.  1.
        -31    1    1    2    0    0 -0.43867855859E-01 -0.29043023886E-01  0.60680193963E+02  0.61135485876E+02  0.74470750000E+01 0.  1.
<mgrwt>
<rscale>  0 0.14896034E+02</rscale>
<asrwt>0</asrwt>
<pdfrwt beam="1">  1        2 0.99692518E+00 0.14896034E+02</pdfrwt>
<pdfrwt beam="2">  1       -2 0.98103191E+00 0.14896034E+02</pdfrwt>
<totfact> 0.88584728E-13</totfact>
</mgrwt>
</event>
<event>
 4    1  0.4882314E-019  0.1490463E+02  0.7818608E-02  0.1870993E+00
         -2   -1    0    0    0  501 -0.00000000000E+00  0.00000000000E+00  0.11896588492E+03  0.11896588495E+03  0.25500000000E-02 0. -1.
          2   -1    0    0  501    0  0.00000000000E+00 -0.00000000000E+00 -0.46682751116E+00  0.46683447568E+00  0.25500000000E-02 0.  1.
         31    1    1    2    0    0  0.22323357434E+00  0.14299329144E+00  0.58543684457E+02  0.59016033382E+02  0.74470750000E+01 0. -1.
        -31    1    1    2    0    0 -0.22323357434E+00 -0.14299329144E+00  0.59955372956E+02  0.60416686045E+02  0.74470750000E+01 0. -1.
<mgrwt>
<rscale>  0 0.14904626E+02</rscale>
<asrwt>0</asrwt>
<pdfrwt beam="2">  1        2 0.99148462E+00 0.14904626E+02</pdfrwt>
<pdfrwt beam="1">  1       -2 0.98755329E+00 0.14904626E+02</pdfrwt>
<totfact> 0.25258951E-13</totfact>
</mgrwt>
</event>
<event>
 4    1 -0.4882314E-019  0.1496281E+02  0.7818608E-02  0.1869205E+00
          2   -1    0    0  501    0  0.00000000000E+00  0.00000000000E+00  0.11927827129E+03  0.11927827131E+03  0.25500000000E-02 0. -1.
         -2   -1    0    0    0  501 -0.00000000000E+00 -0.00000000000E+00 -0.46924745527E+00  0.46925438386E+00  0.25500000000E-02 0.  1.
         31    1    1    2    0    0 -0.31344956324E-01 -0.67442473082E+00  0.57499115586E+02  0.57983299755E+02  0.74470750000E+01 0.  1.
        -31    1    1    2    0    0  0.31344956324E-01  0.67442473082E+00  0.61309908244E+02  0.61764225942E+02  0.74470750000E+01 0. -1.
<mgrwt>
<rscale>  0 0.14962813E+02</rscale>
<asrwt>0</asrwt>
<pdfrwt beam="1">  1        2 0.99015633E+00 0.14962813E+02</pdfrwt>
<pdfrwt beam="2">  1       -2 0.99661427E+00 0.14962813E+02</pdfrwt>
<totfact>-0.15179168E-13</totfact>
</mgrwt>
</event>
<event>
 4    1 -0.4882314E-019  0.1490560E+02  0.7818608E-02  0.1870963E+00
         -2   -1    0    0    0  501 -0.00000000000E+00  0.00000000000E+00  0.11953201310E+03  0.11953201313E+03  0.25500000000E-02 0. -1.
          2   -1    0    0  501    0  0.00000000000E+00 -0.00000000000E+00 -0.46467716453E+00  0.46468416127E+00  0.25500000000E-02 0.  1.
         31    1    1    2    0    0  0.16689403651E+00 -0.19337881119E+00  0.58393931285E+02  0.58867439098E+02  0.74470750000E+01 0.  1.
        -31    1    1    2    0    0 -0.16689403651E+00  0.19337881119E+00  0.60673404654E+02  0.61129258194E+02  0.74470750000E+01 0. -1.
<mgrwt>
<rscale>  0 0.14905599E+02</rscale>
<asrwt>0</asrwt>
<pdfrwt beam="2">  1        2 0.98695357E+00 0.14905599E+02</pdfrwt>
<pdfrwt beam="1">  1       -2 0.99221665E+00 0.14905599E+02</pdfrwt>
<totfact>-0.18374196E-13</totfact>
</mgrwt>
</event>
<event>
 4    1  0.4882314E-019  0.1493662E+02  0.7818608E-02  0.1870009E+00
         -2   -1    0    0    0  501 -0.00000000000E+00  0.00000000000E+00  0.11860813483E+03  0.11860813486E+03  0.25500000000E-02 0.  1.
          2   -1    0    0  501    0  0.00000000000E+00 -0.00000000000E+00 -0.47024801649E+00  0.47025493034E+00  0.25500000000E-02 0. -1.
         31    1    1    2    0    0 -0.23576770957E+00 -0.42947190247E+00  0.61276763527E+02  0.61729577246E+02  0.74470750000E+01 0. -1.
        -31    1    1    2    0    0  0.23576770957E+00  0.42947190247E+00  0.56861123284E+02  0.57348812540E+02  0.74470750000E+01 0.  1.
<mgrwt>
<rscale>  0 0.14936620E+02</rscale>
<asrwt>0</asrwt>
<pdfrwt beam="2">  1        2 0.99870879E+00 0.14936620E+02</pdfrwt>
<pdfrwt beam="1">  1       -2 0.98462344E+00 0.14936620E+02</pdfrwt>
<totfact> 0.20625297E-13</totfact>
</mgrwt>
</event>
<event>
 4    1 -0.4882314E-019  0.1491083E+02  0.7818608E-02  0.1870802E+00
          2   -1    0    0  501    0  0.00000000000E+00  0.00000000000E+00  0.11879017496E+03  0.11879017499E+03  0.25500000000E-02 0.  1.
         -2   -1    0    0    0  501 -0.00000000000E+00 -0.00000000000E+00 -0.46790754350E+00  0.46791449194E+00  0.25500000000E-02 0. -1.
         31    1    1    2    0    0 -0.79359767424E-01 -0.13775650632E+00  0.56644162894E+02  0.57131824676E+02  0.74470750000E+01 0. -1.
        -31    1    1    2    0    0  0.79359767424E-01  0.13775650632E+00  0.61678104523E+02  0.62126264804E+02  0.74470750000E+01 0.  1.
<mgrwt>
<rscale>  0 0.14910833E+02</rscale>
<asrwt>0</asrwt>
<pdfrwt beam="1">  1        2 0.98610932E+00 0.14910833E+02</pdfrwt>
<pdfrwt beam="2">  1       -2 0.99376370E+00 0.14910833E+02</pdfrwt>
<totfact>-0.28005232E-13</totfact>
</mgrwt>
</event>
<event>
 4    1 -0.4882314E-019  0.1490157E+02  0.7818608E-02  0.1871087E+00
          2   -1    0    0  501    0  0.00000000000E+00  0.00000000000E+00  0.11865739916E+03  0.11865739918E+03  0.25500000000E-02 0. -1.
         -2   -1    0    0    0  501 -0.00000000000E+00 -0.00000000000E+00 -0.46784931484E+00  0.46785626414E+00  0.25500000000E-02 0.  1.
         31    1    1    2    0    0  0.39447862663E-01  0.17747479497E+00  0.57903166362E+02  0.58380379018E+02  0.74470750000E+01 0.  1.
        -31    1    1    2    0    0 -0.39447862663E-01 -0.17747479497E+00  0.60286383478E+02  0.60744876429E+02  0.74470750000E+01 0. -1.
<mgrwt>
<rscale>  0 0.14901570E+02</rscale>
<asrwt>0</asrwt>
<pdfrwt beam="1">  1        2 0.98501096E+00 0.14901570E+02</pdfrwt>
<pdfrwt beam="2">  1       -2 0.99363616E+00 0.14901570E+02</pdfrwt>
<totfact>-0.32894640E-13</totfact>
</mgrwt>
</event>
<event>
 4    1 -0.4882314E-019  0.1503526E+02  0.7818608E-02  0.1866994E+00
         -2   -1    0    0    0  501 -0.00000000000E+00  0.00000000000E+00  0.12019496699E+03  0.12019496702E+03  0.25500000000E-02 0. -1.
          2   -1    0    0  501    0  0.00000000000E+00 -0.00000000000E+00 -0.47018884828E+00  0.47019576300E+00  0.25500000000E-02 0.  1.
         31    1    1    2    0    0  0.10255856554E+01 -0.19903517614E-01  0.60344170067E+02  0.60810607703E+02  0.74470750000E+01 0. -1.
        -31    1    1    2    0    0 -0.10255856554E+01  0.19903517614E-01  0.59380608078E+02  0.59854555081E+02  0.74470750000E+01 0. -1.
<mgrwt>
<rscale>  0 0.15035259E+02</rscale>
<asrwt>0</asrwt>
<pdfrwt beam="2">  1        2 0.99863568E+00 0.15035259E+02</pdfrwt>
<pdfrwt beam="1">  1       -2 0.99774399E+00 0.15035259E+02</pdfrwt>
<totfact>-0.31337260E-14</totfact>
</mgrwt>
</event>
<event>
 4    1 -0.4882314E-019  0.1491339E+02  0.7818608E-02  0.1870723E+00
         -2   -1    0    0    0  501 -0.00000000000E+00  0.00000000000E+00  0.11975102061E+03  0.11975102064E+03  0.25500000000E-02 0. -1.
          2   -1    0    0  501    0  0.00000000000E+00 -0.00000000000E+00 -0.46431205157E+00  0.46431905381E+00  0.25500000000E-02 0.  1.
         31    1    1    2    0    0  0.28421167222E+00  0.75451675781E-01  0.61565660459E+02  0.62015126728E+02  0.74470750000E+01 0. -1.
        -31    1    1    2    0    0 -0.28421167222E+00 -0.75451675781E-01  0.57721048099E+02  0.58200212963E+02  0.74470750000E+01 0.  1.
<mgrwt>
<rscale>  0 0.14913385E+02</rscale>
<asrwt>0</asrwt>
<pdfrwt beam="2">  1        2 0.98618808E+00 0.14913385E+02</pdfrwt>
<pdfrwt beam="1">  1       -2 0.99402454E+00 0.14913385E+02</pdfrwt>
<totfact>-0.28229541E-13</totfact>
</mgrwt>
</event>
<event>
 4    1  0.4882314E-019  0.1491085E+02  0.7818608E-02  0.1870801E+00
         -2   -1    0    0    0  501 -0.00000000000E+00  0.00000000000E+00  0.11871707145E+03  0.11871707148E+03  0.25500000000E-02 0.  1.
          2   -1    0    0  501    0  0.00000000000E+00 -0.00000000000E+00 -0.46819687004E+00  0.46820381418E+00  0.25500000000E-02 0. -1.
         31    1    1    2    0    0  0.14115525251E+00 -0.34695341817E-02  0.61708523619E+02  0.62156421633E+02  0.74470750000E+01 0.  1.
        -31    1    1    2    0    0 -0.14115525251E+00  0.34695341817E-02  0.56540350960E+02  0.57028853658E+02  0.74470750000E+01 0. -1.
<mgrwt>
<rscale>  0 0.14910852E+02</rscale>
<asrwt>0</asrwt>
<pdfrwt beam="2">  1        2 0.99437336E+00 0.14910852E+02</pdfrwt>
<pdfrwt beam="1">  1       -2 0.98550725E+00 0.14910852E+02</pdfrwt>
<totfact> 0.44311789E-13</totfact>
</mgrwt>
</event>
<event>
 4    1 -0.4882314E-019  0.1499783E+02  0.7818608E-02  0.1868135E+00
         -2   -1    0    0    0  501 -0.00000000000E+00  0.00000000000E+00  0.11953181132E+03  0.11953181135E+03  0.25500000000E-02 0.  1.
          2   -1    0    0  501    0  0.00000000000E+00 -0.00000000000E+00 -0.47044666788E+00  0.47045357882E+00  0.25500000000E-02 0. -1.
         31    1    1    2    0    0 -0.45753988246E+00  0.10189698640E+00  0.65492094923E+02  0.65915803486E+02  0.74470750000E+01 0.  1.
        -31    1    1    2    0    0  0.45753988246E+00 -0.10189698640E+00  0.53569269728E+02  0.54086461439E+02  0.74470750000E+01 0. -1.
<mgrwt>
<rscale>  0 0.14997834E+02</rscale>
<asrwt>0</asrwt>
<pdfrwt beam="2">  1        2 0.99915951E+00 0.14997834E+02</pdfrwt>
<pdfrwt beam="1">  1       -2 0.99226269E+00 0.14997834E+02</pdfrwt>
<totfact>-0.22672021E-14</totfact>
</mgrwt>
</event>
<event>
 4    1 -0.4882314E-019  0.1497382E+02  0.7818608E-02  0.1868868E+00
          2   -1    0    0  501    0  0.00000000000E+00  0.00000000000E+00  0.11917159703E+03  0.11917159706E+03  0.25500000000E-02 0.  1.
         -2   -1    0    0    0  501 -0.00000000000E+00 -0.00000000000E+00 -0.47035883029E+00  0.47036574252E+00  0.25500000000E-02 0. -1.
         31    1    1    2    0    0  0.17065230511E+00  0.27281909028E+00  0.53749869015E+02  0.54264269069E+02  0.74470750000E+01 0. -1.
        -31    1    1    2    0    0 -0.17065230511E+00 -0.27281909028E+00  0.64951369185E+02  0.65377693731E+02  0.74470750000E+01 0.  1.
<mgrwt>
<rscale>  0 0.14973821E+02</rscale>
<asrwt>0</asrwt>
<pdfrwt beam="1">  1        2 0.98928346E+00 0.14973821E+02</pdfrwt>
<pdfrwt beam="2">  1       -2 0.99896186E+00 0.14973821E+02</pdfrwt>
<totfact>-0.64603731E-14</totfact>
</mgrwt>
</event>
<event>
 4    1  0.4882314E-019  0.1491983E+02  0.7818608E-02  0.1870525E+00
         -2   -1    0    0    0  501 -0.00000000000E+00  0.00000000000E+00  0.11871475282E+03  0.11871475285E+03  0.25500000000E-02 0.  1.
          2   -1    0    0  501    0  0.00000000000E+00 -0.00000000000E+00 -0.46876994876E+00  0.46877688442E+00  0.25500000000E-02 0. -1.
         31    1    1    2    0    0  0.41737031321E+00 -0.11594373400E+00  0.59612597986E+02  0.60077519969E+02  0.74470750000E+01 0.  1.
        -31    1    1    2    0    0 -0.41737031321E+00  0.11594373400E+00  0.58633384886E+02  0.59106009764E+02  0.74470750000E+01 0.  1.
<mgrwt>
<rscale>  0 0.14919829E+02</rscale>
<asrwt>0</asrwt>
<pdfrwt beam="2">  1        2 0.99558560E+00 0.14919829E+02</pdfrwt>
<pdfrwt beam="1">  1       -2 0.98549281E+00 0.14919829E+02</pdfrwt>
<totfact> 0.39247053E-13</totfact>
</mgrwt>
</event>
<event>
 4    1 -0.4882314E-019  0.1490331E+02  0.7818608E-02  0.1871033E+00
          2   -1    0    0  501    0  0.00000000000E+00  0.00000000000E+00  0.11868230043E+03  0.11868230046E+03  0.25500000000E-02 0.  1.
         -2   -1    0    0    0  501 -0.00000000000E+00 -0.00000000000E+00 -0.46786059758E+00  0.46786754671E+00  0.25500000000E-02 0. -1.
         31    1    1    2    0    0  0.25957096286E+00  0.14581181057E-01  0.58899987661E+02  0.59369479214E+02  0.74470750000E+01 0. -1.
        -31    1    1    2    0    0 -0.25957096286E+00 -0.14581181057E-01  0.59314452176E+02  0.59780688794E+02  0.74470750000E+01 0.  1.
<mgrwt>
<rscale>  0 0.14903313E+02</rscale>
<asrwt>0</asrwt>
<pdfrwt beam="1">  1        2 0.98521695E+00 0.14903313E+02</pdfrwt>
<pdfrwt beam="2">  1       -2 0.99366084E+00 0.14903313E+02</pdfrwt>
<totfact>-0.31899893E-13</totfact>
</mgrwt>
</event>
<event>
 4    1 -0.4882314E-019  0.1498805E+02  0.7818608E-02  0.1868433E+00
         -2   -1    0    0    0  501 -0.00000000000E+00  0.00000000000E+00  0.11980816432E+03  0.11980816435E+03  0.25500000000E-02 0. -1.
          2   -1    0    0  501    0  0.00000000000E+00 -0.00000000000E+00 -0.46874925283E+00  0.46875618879E+00  0.25500000000E-02 0.  1.
         31    1    1    2    0    0  0.83656412459E+00 -0.40502268297E-01  0.59673592380E+02  0.60142314834E+02  0.74470750000E+01 0.  1.
        -31    1    1    2    0    0 -0.83656412459E+00  0.40502268297E-01  0.59665822686E+02  0.60134605701E+02  0.74470750000E+01 0.  1.
<mgrwt>
<rscale>  0 0.14988049E+02</rscale>
<asrwt>0</asrwt>
<pdfrwt beam="2">  1        2 0.99557756E+00 0.14988049E+02</pdfrwt>
<pdfrwt beam="1">  1       -2 0.99453373E+00 0.14988049E+02</pdfrwt>
<totfact>-0.11179402E-13</totfact>
</mgrwt>
</event>
<event>
 4    1 -0.4882314E-019  0.1490391E+02  0.7818608E-02  0.1871015E+00
          2   -1    0    0  501    0  0.00000000000E+00  0.00000000000E+00  0.11806728413E+03  0.11806728415E+03  0.25500000000E-02 0. -1.
         -2   -1    0    0    0  501 -0.00000000000E+00 -0.00000000000E+00 -0.47033542441E+00  0.47034233698E+00  0.25500000000E-02 0.  1.
         31    1    1    2    0    0 -0.17353843049E+00 -0.14906918098E-01  0.60435682849E+02  0.60893029365E+02  0.74470750000E+01 0. -1.
        -31    1    1    2    0    0  0.17353843049E+00  0.14906918098E-01  0.57161265854E+02  0.57644597126E+02  0.74470750000E+01 0.  1.
<mgrwt>
<rscale>  0 0.14903911E+02</rscale>
<asrwt>0</asrwt>
<pdfrwt beam="1">  1        2 0.98015203E+00 0.14903911E+02</pdfrwt>
<pdfrwt beam="2">  1       -2 0.99887561E+00 0.14903911E+02</pdfrwt>
<totfact>-0.28238242E-13</totfact>
</mgrwt>
</event>
<event>
 4    1  0.4882314E-019  0.1490777E+02  0.7818608E-02  0.1870896E+00
         -2   -1    0    0    0  501 -0.00000000000E+00  0.00000000000E+00  0.11820316403E+03  0.11820316405E+03  0.25500000000E-02 0. -1.
          2   -1    0    0  501    0  0.00000000000E+00 -0.00000000000E+00 -0.47003781203E+00  0.47004472898E+00  0.25500000000E-02 0.  1.
         31    1    1    2    0    0  0.10730299075E+00 -0.27246823648E+00  0.57869442195E+02  0.58347382279E+02  0.74470750000E+01 0.  1.
        -31    1    1    2    0    0 -0.10730299075E+00  0.27246823648E+00  0.59863684019E+02  0.60325826503E+02  0.74470750000E+01 0. -1.
<mgrwt>
<rscale>  0 0.14907766E+02</rscale>
<asrwt>0</asrwt>
<pdfrwt beam="2">  1        2 0.99825062E+00 0.14907766E+02</pdfrwt>
<pdfrwt beam="1">  1       -2 0.98127312E+00 0.14907766E+02</pdfrwt>
<totfact> 0.55759067E-13</totfact>
</mgrwt>
</event>
<event>
 4    1 -0.4882314E-019  0.1491068E+02  0.7818608E-02  0.1870807E+00
          2   -1    0    0  501    0  0.00000000000E+00  0.00000000000E+00  0.11838005688E+03  0.11838005691E+03  0.25500000000E-02 0.  1.
         -2   -1    0    0    0  501 -0.00000000000E+00 -0.00000000000E+00 -0.46951872823E+00  0.46952565282E+00  0.25500000000E-02 0. -1.
         31    1    1    2    0    0  0.21392083249E+00 -0.26090765598E+00  0.59724186010E+02  0.60187632912E+02  0.74470750000E+01 0.  1.
        -31    1    1    2    0    0 -0.21392083249E+00  0.26090765598E+00  0.58186352143E+02  0.58661949650E+02  0.74470750000E+01 0. -1.
<mgrwt>
<rscale>  0 0.14910676E+02</rscale>
<asrwt>0</asrwt>
<pdfrwt beam="1">  1        2 0.98273150E+00 0.14910676E+02</pdfrwt>
<pdfrwt beam="2">  1       -2 0.99715848E+00 0.14910676E+02</pdfrwt>
<totfact>-0.39150961E-13</totfact>
</mgrwt>
</event>
<event>
 4    1 -0.4882314E-019  0.1492501E+02  0.7818608E-02  0.1870366E+00
         -2   -1    0    0    0  501 -0.00000000000E+00  0.00000000000E+00  0.12021538263E+03  0.12021538265E+03  0.25500000000E-02 0. -1.
          2   -1    0    0  501    0  0.00000000000E+00 -0.00000000000E+00 -0.46323975358E+00  0.46324677203E+00  0.25500000000E-02 0.  1.
         31    1    1    2    0    0  0.39642589016E+00  0.22455021610E+00  0.58664111232E+02  0.59136659096E+02  0.74470750000E+01 0.  1.
        -31    1    1    2    0    0 -0.39642589016E+00 -0.22455021610E+00  0.61088031641E+02  0.61541970330E+02  0.74470750000E+01 0.  1.
<mgrwt>
<rscale>  0 0.14925008E+02</rscale>
<asrwt>0</asrwt>
<pdfrwt beam="2">  1        2 0.98393400E+00 0.14925008E+02</pdfrwt>
<pdfrwt beam="1">  1       -2 0.99785534E+00 0.14925008E+02</pdfrwt>
<totfact>-0.25995428E-13</totfact>
</mgrwt>
</event>
<event>
 4    1 -0.4882314E-019  0.1492984E+02  0.7818608E-02  0.1870217E+00
          2   -1    0    0  501    0  0.00000000000E+00  0.00000000000E+00  0.11899864877E+03  0.11899864880E+03  0.25500000000E-02 0.  1.
         -2   -1    0    0    0  501 -0.00000000000E+00 -0.00000000000E+00 -0.46827910519E+00  0.46828604811E+00  0.25500000000E-02 0. -1.
         31    1    1    2    0    0 -0.16407207568E+00  0.48271715696E+00  0.59891971944E+02  0.60355340815E+02  0.74470750000E+01 0.  1.
        -31    1    1    2    0    0  0.16407207568E+00 -0.48271715696E+00  0.58638397724E+02  0.59111594033E+02  0.74470750000E+01 0. -1.
<mgrwt>
<rscale>  0 0.14929836E+02</rscale>
<asrwt>0</asrwt>
<pdfrwt beam="1">  1        2 0.98783620E+00 0.14929836E+02</pdfrwt>
<pdfrwt beam="2">  1       -2 0.99455657E+00 0.14929836E+02</pdfrwt>
<totfact>-0.22822522E-13</totfact>
</mgrwt>
</event>
<event>
 4    1 -0.4882314E-019  0.1492291E+02  0.7818608E-02  0.1870430E+00
         -2   -1    0    0    0  501 -0.00000000000E+00  0.00000000000E+00  0.12014653462E+03  0.12014653465E+03  0.25500000000E-02 0.  1.
          2   -1    0    0  501    0  0.00000000000E+00 -0.00000000000E+00 -0.46337472263E+00  0.46338173904E+00  0.25500000000E-02 0. -1.
         31    1    1    2    0    0 -0.20968192548E+00  0.41201966149E+00  0.60045908402E+02  0.60507716603E+02  0.74470750000E+01 0.  1.
        -31    1    1    2    0    0  0.20968192548E+00 -0.41201966149E+00  0.59637251496E+02  0.60102199783E+02  0.74470750000E+01 0. -1.
<mgrwt>
<rscale>  0 0.14922907E+02</rscale>
<asrwt>0</asrwt>
<pdfrwt beam="2">  1        2 0.98421741E+00 0.14922907E+02</pdfrwt>
<pdfrwt beam="1">  1       -2 0.99728718E+00 0.14922907E+02</pdfrwt>
<totfact>-0.29541054E-13</totfact>
</mgrwt>
</event>
<event>
 4    1  0.4882314E-019  0.1489943E+02  0.7818608E-02  0.1871153E+00
         -2   -1    0    0    0  501 -0.00000000000E+00  0.00000000000E+00  0.11819643845E+03  0.11819643847E+03  0.25500000000E-02 0.  1.
          2   -1    0    0  501    0  0.00000000000E+00 -0.00000000000E+00 -0.46953891884E+00  0.46954584314E+00  0.25500000000E-02 0. -1.
         31    1    1    2    0    0  0.56204195706E-01 -0.18966166407E+00  0.58971448701E+02  0.59440136427E+02  0.74470750000E+01 0.  1.
        -31    1    1    2    0    0 -0.56204195706E-01  0.18966166407E+00  0.58755450827E+02  0.59225847891E+02  0.74470750000E+01 0.  1.
<mgrwt>
<rscale>  0 0.14899428E+02</rscale>
<asrwt>0</asrwt>
<pdfrwt beam="2">  1        2 0.99719508E+00 0.14899428E+02</pdfrwt>
<pdfrwt beam="1">  1       -2 0.98121338E+00 0.14899428E+02</pdfrwt>
<totfact> 0.80480847E-13</totfact>
</mgrwt>
</event>
<event>
 4    1 -0.4882314E-019  0.1489701E+02  0.7818608E-02  0.1871228E+00
          2   -1    0    0  501    0  0.00000000000E+00  0.00000000000E+00  0.11858102976E+03  0.11858102979E+03  0.25500000000E-02 0.  1.
         -2   -1    0    0    0  501 -0.00000000000E+00 -0.00000000000E+00 -0.46786423343E+00  0.46787118251E+00  0.25500000000E-02 0. -1.
         31    1    1    2    0    0 -0.71655347591E-01  0.11411452292E+00  0.58607693585E+02  0.59079089617E+02  0.74470750000E+01 0. -1.
        -31    1    1    2    0    0  0.71655347591E-01 -0.11411452292E+00  0.59505471943E+02  0.59969811354E+02  0.74470750000E+01 0.  1.
<mgrwt>
<rscale>  0 0.14897011E+02</rscale>
<asrwt>0</asrwt>
<pdfrwt beam="1">  1        2 0.98437961E+00 0.14897011E+02</pdfrwt>
<pdfrwt beam="2">  1       -2 0.99366520E+00 0.14897011E+02</pdfrwt>
<totfact>-0.36586150E-13</totfact>
</mgrwt>
</event>
<event>
 4    1  0.4882314E-019  0.1491793E+02  0.7818608E-02  0.1870583E+00
         -2   -1    0    0    0  501 -0.00000000000E+00  0.00000000000E+00  0.11884510205E+03  0.11884510208E+03  0.25500000000E-02 0.  1.
          2   -1    0    0  501    0  0.00000000000E+00 -0.00000000000E+00 -0.46813681173E+00  0.46814375677E+00  0.25500000000E-02 0. -1.
         31    1    1    2    0    0 -0.38537828857E+00  0.16564090502E+00  0.59477266293E+02  0.59943140434E+02  0.74470750000E+01 0.  1.
        -31    1    1    2    0    0  0.38537828857E+00 -0.16564090502E+00  0.58899698946E+02  0.59370105401E+02  0.74470750000E+01 0. -1.
<mgrwt>
<rscale>  0 0.14917933E+02</rscale>
<asrwt>0</asrwt>
<pdfrwt beam="2">  1        2 0.99425051E+00 0.14917933E+02</pdfrwt>
<pdfrwt beam="1">  1       -2 0.98656540E+00 0.14917933E+02</pdfrwt>
<totfact> 0.31301768E-13</totfact>
</mgrwt>
</event>
<event>
 4    1  0.4882314E-019  0.1493101E+02  0.7818608E-02  0.1870181E+00
         -2   -1    0    0    0  501 -0.00000000000E+00  0.00000000000E+00  0.11910668607E+03  0.11910668609E+03  0.25500000000E-02 0.  1.
          2   -1    0    0  501    0  0.00000000000E+00 -0.00000000000E+00 -0.46792771530E+00  0.46793466344E+00  0.25500000000E-02 0. -1.
         31    1    1    2    0    0  0.43941966764E+00  0.22890239118E+00  0.60690783268E+02  0.61147981044E+02  0.74470750000E+01 0. -1.
        -31    1    1    2    0    0 -0.43941966764E+00 -0.22890239118E+00  0.57947975084E+02  0.58426639714E+02  0.74470750000E+01 0.  1.
<mgrwt>
<rscale>  0 0.14931006E+02</rscale>
<asrwt>0</asrwt>
<pdfrwt beam="2">  1        2 0.99381673E+00 0.14931006E+02</pdfrwt>
<pdfrwt beam="1">  1       -2 0.98872663E+00 0.14931006E+02</pdfrwt>
<totfact> 0.10276862E-13</totfact>
</mgrwt>
</event>
<event>
 4    1  0.4882314E-019  0.1493961E+02  0.7818608E-02  0.1869917E+00
          2   -1    0    0  501    0  0.00000000000E+00  0.00000000000E+00  0.12006548172E+03  0.12006548175E+03  0.25500000000E-02 0. -1.
         -2   -1    0    0    0  501 -0.00000000000E+00 -0.00000000000E+00 -0.46472617009E+00  0.46473316609E+00  0.25500000000E-02 0.  1.
         31    1    1    2    0    0 -0.43429992634E+00  0.46597848639E-01  0.56693678440E+02  0.57182365192E+02  0.74470750000E+01 0. -1.
        -31    1    1    2    0    0  0.43429992634E+00 -0.46597848639E-01  0.62907077109E+02  0.63347849721E+02  0.74470750000E+01 0. -1.
<mgrwt>
<rscale>  0 0.14939611E+02</rscale>
<asrwt>0</asrwt>
<pdfrwt beam="1">  1        2 0.99662815E+00 0.14939611E+02</pdfrwt>
<pdfrwt beam="2">  1       -2 0.98707424E+00 0.14939611E+02</pdfrwt>
<totfact> 0.18987006E-13</totfact>
</mgrwt>
</event>
<event>
 4    1 -0.4882314E-019  0.1496080E+02  0.7818608E-02  0.1869267E+00
          2   -1    0    0  501    0  0.00000000000E+00  0.00000000000E+00  0.11972691623E+03  0.11972691625E+03  0.25500000000E-02 0. -1.
         -2   -1    0    0    0  501 -0.00000000000E+00 -0.00000000000E+00 -0.46736304979E+00  0.46737000632E+00  0.25500000000E-02 0.  1.
         31    1    1    2    0    0  0.41696323840E+00  0.15892705128E+00  0.55241782048E+02  0.55743273370E+02  0.74470750000E+01 0.  1.
        -31    1    1    2    0    0 -0.41696323840E+00 -0.15892705128E+00  0.64017771127E+02  0.64451012888E+02  0.74470750000E+01 0. -1.
<mgrwt>
<rscale>  0 0.14960796E+02</rscale>
<asrwt>0</asrwt>
<pdfrwt beam="1">  1        2 0.99385045E+00 0.14960796E+02</pdfrwt>
<pdfrwt beam="2">  1       -2 0.99264226E+00 0.14960796E+02</pdfrwt>
<totfact>-0.10639144E-13</totfact>
</mgrwt>
</event>
<event>
 4    1 -0.4882314E-019  0.1496878E+02  0.7818608E-02  0.1869023E+00
         -2   -1    0    0    0  501 -0.00000000000E+00  0.00000000000E+00  0.11948518496E+03  0.11948518498E+03  0.25500000000E-02 0. -1.
          2   -1    0    0  501    0  0.00000000000E+00 -0.00000000000E+00 -0.46880881527E+00  0.46881575035E+00  0.25500000000E-02 0.  1.
         31    1    1    2    0    0  0.21649200379E+00 -0.30609787885E-01  0.53788728086E+02  0.54302246740E+02  0.74470750000E+01 0.  1.
        -31    1    1    2    0    0 -0.21649200379E+00  0.30609787885E-01  0.65227648056E+02  0.65651753996E+02  0.74470750000E+01 0. -1.
<mgrwt>
<rscale>  0 0.14968784E+02</rscale>
<asrwt>0</asrwt>
<pdfrwt beam="2">  1        2 0.99569308E+00 0.14968784E+02</pdfrwt>
<pdfrwt beam="1">  1       -2 0.99186361E+00 0.14968784E+02</pdfrwt>
<totfact>-0.68728671E-14</totfact>
</mgrwt>
</event>
<event>
 4    1 -0.4882314E-019  0.1493392E+02  0.7818608E-02  0.1870092E+00
         -2   -1    0    0    0  501 -0.00000000000E+00  0.00000000000E+00  0.11969908501E+03  0.11969908504E+03  0.25500000000E-02 0. -1.
          2   -1    0    0  501    0  0.00000000000E+00 -0.00000000000E+00 -0.46579389380E+00  0.46580087377E+00  0.25500000000E-02 0.  1.
         31    1    1    2    0    0  0.34714859630E+00  0.41873128968E+00  0.59836977237E+02  0.60301066482E+02  0.74470750000E+01 0. -1.
        -31    1    1    2    0    0 -0.34714859630E+00 -0.41873128968E+00  0.59396313884E+02  0.59863819433E+02  0.74470750000E+01 0.  1.
<mgrwt>
<rscale>  0 0.14933924E+02</rscale>
<asrwt>0</asrwt>
<pdfrwt beam="2">  1        2 0.98932157E+00 0.14933924E+02</pdfrwt>
<pdfrwt beam="1">  1       -2 0.99360735E+00 0.14933924E+02</pdfrwt>
<totfact>-0.18091668E-13</totfact>
</mgrwt>
</event>
<event>
 4    1  0.4882314E-019  0.1490155E+02  0.7818608E-02  0.1871088E+00
         -2   -1    0    0    0  501 -0.00000000000E+00  0.00000000000E+00  0.11844038585E+03  0.11844038588E+03  0.25500000000E-02 0. -1.
          2   -1    0    0  501    0  0.00000000000E+00 -0.00000000000E+00 -0.46870499998E+00  0.46871193659E+00  0.25500000000E-02 0.  1.
         31    1    1    2    0    0 -0.17566068663E+00  0.79904130542E-01  0.57919797248E+02  0.58396909855E+02  0.74470750000E+01 0.  1.
        -31    1    1    2    0    0  0.17566068663E+00 -0.79904130542E-01  0.60051883606E+02  0.60512187963E+02  0.74470750000E+01 0. -1.
<mgrwt>
<rscale>  0 0.14901546E+02</rscale>
<asrwt>0</asrwt>
<pdfrwt beam="2">  1        2 0.99543914E+00 0.14901546E+02</pdfrwt>
<pdfrwt beam="1">  1       -2 0.98322362E+00 0.14901546E+02</pdfrwt>
<totfact> 0.72175733E-13</totfact>
</mgrwt>
</event>
<event>
 4    1 -0.4882314E-019  0.1492381E+02  0.7818608E-02  0.1870402E+00
          2   -1    0    0  501    0  0.00000000000E+00  0.00000000000E+00  0.11865380345E+03  0.11865380348E+03  0.25500000000E-02 0. -1.
         -2   -1    0    0    0  501 -0.00000000000E+00 -0.00000000000E+00 -0.46926095435E+00  0.46926788275E+00  0.25500000000E-02 0.  1.
         31    1    1    2    0    0  0.40605739672E+00 -0.23253484895E+00  0.59460678793E+02  0.59927040672E+02  0.74470750000E+01 0. -1.
        -31    1    1    2    0    0 -0.40605739672E+00  0.23253484895E+00  0.58723863701E+02  0.59196030687E+02  0.74470750000E+01 0. -1.
<mgrwt>
<rscale>  0 0.14923808E+02</rscale>
<asrwt>0</asrwt>
<pdfrwt beam="1">  1        2 0.98499290E+00 0.14923808E+02</pdfrwt>
<pdfrwt beam="2">  1       -2 0.99662228E+00 0.14923808E+02</pdfrwt>
<totfact>-0.29935835E-13</totfact>
</mgrwt>
</event>
<event>
 4    1  0.4882314E-019  0.1492493E+02  0.7818608E-02  0.1870368E+00
          2   -1    0    0  501    0  0.00000000000E+00  0.00000000000E+00  0.11988903617E+03  0.11988903620E+03  0.25500000000E-02 0. -1.
         -2   -1    0    0    0  501 -0.00000000000E+00 -0.00000000000E+00 -0.46449568752E+00  0.46450268700E+00  0.25500000000E-02 0.  1.
         31    1    1    2    0    0  0.18685235649E+00 -0.10398220986E+00  0.56255948391E+02  0.56747126637E+02  0.74470750000E+01 0.  1.
        -31    1    1    2    0    0 -0.18685235649E+00  0.10398220986E+00  0.63168592090E+02  0.63606412246E+02  0.74470750000E+01 0. -1.
<mgrwt>
<rscale>  0 0.14924927E+02</rscale>
<asrwt>0</asrwt>
<pdfrwt beam="1">  1        2 0.99516727E+00 0.14924927E+02</pdfrwt>
<pdfrwt beam="2">  1       -2 0.98658099E+00 0.14924927E+02</pdfrwt>
<totfact> 0.28507313E-13</totfact>
</mgrwt>
</event>
<event>
 4    1  0.4882314E-019  0.1494379E+02  0.7818608E-02  0.1869789E+00
          2   -1    0    0  501    0  0.00000000000E+00  0.00000000000E+00  0.11986575406E+03  0.11986575408E+03  0.25500000000E-02 0.  1.
         -2   -1    0    0    0  501 -0.00000000000E+00 -0.00000000000E+00 -0.46576112708E+00  0.46576810754E+00  0.25500000000E-02 0. -1.
         31    1    1    2    0    0 -0.51339496316E+00 -0.25072655755E+00  0.58013509541E+02  0.58492329869E+02  0.74470750000E+01 0. -1.
        -31    1    1    2    0    0  0.51339496316E+00  0.25072655755E+00  0.61386483389E+02  0.61839192322E+02  0.74470750000E+01 0. -1.
<mgrwt>
<rscale>  0 0.14943792E+02</rscale>
<asrwt>0</asrwt>
<pdfrwt beam="1">  1        2 0.99498522E+00 0.14943792E+02</pdfrwt>
<pdfrwt beam="2">  1       -2 0.98925758E+00 0.14943792E+02</pdfrwt>
<totfact> 0.54653593E-14</totfact>
</mgrwt>
</event>
<event>
 4    1 -0.4882314E-019  0.1498806E+02  0.7818608E-02  0.1868433E+00
         -2   -1    0    0    0  501 -0.00000000000E+00  0.00000000000E+00  0.11984186149E+03  0.11984186152E+03  0.25500000000E-02 0. -1.
          2   -1    0    0  501    0  0.00000000000E+00 -0.00000000000E+00 -0.46861808722E+00  0.46862502512E+00  0.25500000000E-02 0.  1.
         31    1    1    2    0    0 -0.22170871931E+00 -0.18559856142E+00  0.53376516754E+02  0.53894295323E+02  0.74470750000E+01 0.  1.
        -31    1    1    2    0    0  0.22170871931E+00  0.18559856142E+00  0.65996726651E+02  0.66416191221E+02  0.74470750000E+01 0. -1.
<mgrwt>
<rscale>  0 0.14988060E+02</rscale>
<asrwt>0</asrwt>
<pdfrwt beam="2">  1        2 0.99530115E+00 0.14988060E+02</pdfrwt>
<pdfrwt beam="1">  1       -2 0.99481128E+00 0.14988060E+02</pdfrwt>
<totfact>-0.11573521E-13</totfact>
</mgrwt>
</event>
<event>
 4    1 -0.4882314E-019  0.1495025E+02  0.7818608E-02  0.1869590E+00
         -2   -1    0    0    0  501 -0.00000000000E+00  0.00000000000E+00  0.12011965016E+03  0.12011965019E+03  0.25500000000E-02 0. -1.
          2   -1    0    0  501    0  0.00000000000E+00 -0.00000000000E+00 -0.46517834071E+00  0.46518532991E+00  0.25500000000E-02 0.  1.
         31    1    1    2    0    0  0.44101116549E+00 -0.46623561311E+00  0.59167518097E+02  0.59637789951E+02  0.74470750000E+01 0.  1.
        -31    1    1    2    0    0 -0.44101116549E+00  0.46623561311E+00  0.60486953726E+02  0.60947045569E+02  0.74470750000E+01 0.  1.
<mgrwt>
<rscale>  0 0.14950249E+02</rscale>
<asrwt>0</asrwt>
<pdfrwt beam="2">  1        2 0.98803264E+00 0.14950249E+02</pdfrwt>
<pdfrwt beam="1">  1       -2 0.99707979E+00 0.14950249E+02</pdfrwt>
<totfact>-0.17492404E-13</totfact>
</mgrwt>
</event>
<event>
 4    1 -0.4882314E-019  0.1494409E+02  0.7818608E-02  0.1869780E+00
          2   -1    0    0  501    0  0.00000000000E+00  0.00000000000E+00  0.11967691823E+03  0.11967691826E+03  0.25500000000E-02 0. -1.
         -2   -1    0    0    0  501 -0.00000000000E+00 -0.00000000000E+00 -0.46651443423E+00  0.46652140341E+00  0.25500000000E-02 0.  1.
         31    1    1    2    0    0 -0.96904381971E-01  0.58735571954E+00  0.60687611303E+02  0.61145723227E+02  0.74470750000E+01 0. -1.
        -31    1    1    2    0    0  0.96904381971E-01 -0.58735571954E+00  0.58522792492E+02  0.58997716433E+02  0.74470750000E+01 0. -1.
<mgrwt>
<rscale>  0 0.14944086E+02</rscale>
<asrwt>0</asrwt>
<pdfrwt beam="1">  1        2 0.99343002E+00 0.14944086E+02</pdfrwt>
<pdfrwt beam="2">  1       -2 0.99084529E+00 0.14944086E+02</pdfrwt>
<totfact>-0.39925175E-14</totfact>
</mgrwt>
</event>
<event>
 4    1 -0.4882314E-019  0.1491059E+02  0.7818608E-02  0.1870809E+00
         -2   -1    0    0    0  501 -0.00000000000E+00  0.00000000000E+00  0.11987713185E+03  0.11987713188E+03  0.25500000000E-02 0. -1.
          2   -1    0    0  501    0  0.00000000000E+00 -0.00000000000E+00 -0.46364954873E+00  0.46365656097E+00  0.25500000000E-02 0.  1.
         31    1    1    2    0    0  0.35870343102E-01 -0.28355819856E+00  0.58076840244E+02  0.58553052788E+02  0.74470750000E+01 0.  1.
        -31    1    1    2    0    0 -0.35870343102E-01  0.28355819856E+00  0.61336642060E+02  0.61787735653E+02  0.74470750000E+01 0. -1.
<mgrwt>
<rscale>  0 0.14910587E+02</rscale>
<asrwt>0</asrwt>
<pdfrwt beam="2">  1        2 0.98479038E+00 0.14910587E+02</pdfrwt>
<pdfrwt beam="1">  1       -2 0.99506184E+00 0.14910587E+02</pdfrwt>
<totfact>-0.35863856E-13</totfact>
</mgrwt>
</event>
<event>
 4    1  0.4882314E-019  0.1491981E+02  0.7818608E-02  0.1870526E+00
          2   -1    0    0  501    0  0.00000000000E+00  0.00000000000E+00  0.12044006842E+03  0.12044006845E+03  0.25500000000E-02 0. -1.
         -2   -1    0    0    0  501 -0.00000000000E+00 -0.00000000000E+00 -0.46205323136E+00  0.46206026783E+00  0.25500000000E-02 0.  1.
         31    1    1    2    0    0 -0.16517706489E+00  0.12462997257E+00  0.63110763337E+02  0.63548959009E+02  0.74470750000E+01 0. -1.
        -31    1    1    2    0    0  0.16517706489E+00 -0.12462997257E+00  0.56867251852E+02  0.57353169706E+02  0.74470750000E+01 0.  1.
<mgrwt>
<rscale>  0 0.14919806E+02</rscale>
<asrwt>0</asrwt>
<pdfrwt beam="1">  1        2 0.99970339E+00 0.14919806E+02</pdfrwt>
<pdfrwt beam="2">  1       -2 0.98143049E+00 0.14919806E+02</pdfrwt>
<totfact> 0.10780631E-13</totfact>
</mgrwt>
</event>
<event>
 4    1  0.4882314E-019  0.1492742E+02  0.7818608E-02  0.1870291E+00
         -2   -1    0    0    0  501 -0.00000000000E+00  0.00000000000E+00  0.11905802360E+03  0.11905802363E+03  0.25500000000E-02 0. -1.
          2   -1    0    0  501    0  0.00000000000E+00 -0.00000000000E+00 -0.46789417108E+00  0.46790111972E+00  0.25500000000E-02 0.  1.
         31    1    1    2    0    0  0.10600751163E+00  0.22313309479E+00  0.55832311609E+02  0.56327319940E+02  0.74470750000E+01 0.  1.
        -31    1    1    2    0    0 -0.10600751163E+00 -0.22313309479E+00  0.62757817818E+02  0.63198604805E+02  0.74470750000E+01 0. -1.
<mgrwt>
<rscale>  0 0.14927421E+02</rscale>
<asrwt>0</asrwt>
<pdfrwt beam="2">  1        2 0.99374418E+00 0.14927421E+02</pdfrwt>
<pdfrwt beam="1">  1       -2 0.98832397E+00 0.14927421E+02</pdfrwt>
<totfact> 0.13863877E-13</totfact>
</mgrwt>
</event>
<event>
 4    1 -0.4882314E-019  0.1500987E+02  0.7818608E-02  0.1867767E+00
          2   -1    0    0  501    0  0.00000000000E+00  0.00000000000E+00  0.12032020185E+03  0.12032020187E+03  0.25500000000E-02 0. -1.
         -2   -1    0    0    0  501 -0.00000000000E+00 -0.00000000000E+00 -0.46811461788E+00  0.46812156324E+00  0.25500000000E-02 0.  1.
         31    1    1    2    0    0  0.40076778015E+00 -0.33734413589E+00  0.66111054041E+02  0.66531231826E+02  0.74470750000E+01 0. -1.
        -31    1    1    2    0    0 -0.40076778015E+00  0.33734413589E+00  0.53741033189E+02  0.54257091611E+02  0.74470750000E+01 0.  1.
<mgrwt>
<rscale>  0 0.15009872E+02</rscale>
<asrwt>0</asrwt>
<pdfrwt beam="1">  1        2 0.99876237E+00 0.15009872E+02</pdfrwt>
<pdfrwt beam="2">  1       -2 0.99425139E+00 0.15009872E+02</pdfrwt>
<totfact>-0.43748593E-14</totfact>
</mgrwt>
</event>
<event>
 4    1  0.4882314E-019  0.1493273E+02  0.7818608E-02  0.1870128E+00
          2   -1    0    0  501    0  0.00000000000E+00  0.00000000000E+00  0.12026272091E+03  0.12026272093E+03  0.25500000000E-02 0.  1.
         -2   -1    0    0    0  501 -0.00000000000E+00 -0.00000000000E+00 -0.46353657769E+00  0.46354359165E+00  0.25500000000E-02 0. -1.
         31    1    1    2    0    0  0.16877154186E+00  0.34257897679E+00  0.62944251824E+02  0.63384411395E+02  0.74470750000E+01 0.  1.
        -31    1    1    2    0    0 -0.16877154186E+00 -0.34257897679E+00  0.56854932506E+02  0.57341853131E+02  0.74470750000E+01 0. -1.
<mgrwt>
<rscale>  0 0.14932728E+02</rscale>
<asrwt>0</asrwt>
<pdfrwt beam="1">  1        2 0.99824922E+00 0.14932728E+02</pdfrwt>
<pdfrwt beam="2">  1       -2 0.98456352E+00 0.14932728E+02</pdfrwt>
<totfact> 0.27005052E-13</totfact>
</mgrwt>
</event>
<event>
 4    1  0.4882314E-019  0.1494382E+02  0.7818608E-02  0.1869788E+00
         -2   -1    0    0    0  501 -0.00000000000E+00  0.00000000000E+00  0.11898180096E+03  0.11898180099E+03  0.25500000000E-02 0. -1.
          2   -1    0    0  501    0  0.00000000000E+00 -0.00000000000E+00 -0.46922314120E+00  0.46923007016E+00  0.25500000000E-02 0.  1.
         31    1    1    2    0    0 -0.23547284947E+00  0.48365371003E+00  0.61533134548E+02  0.61984473392E+02  0.74470750000E+01 0.  1.
        -31    1    1    2    0    0  0.23547284947E+00 -0.48365371003E+00  0.56979443275E+02  0.57466557669E+02  0.74470750000E+01 0. -1.
<mgrwt>
<rscale>  0 0.14943819E+02</rscale>
<asrwt>0</asrwt>
<pdfrwt beam="2">  1        2 0.99655311E+00 0.14943819E+02</pdfrwt>
<pdfrwt beam="1">  1       -2 0.98770470E+00 0.14943819E+02</pdfrwt>
<totfact> 0.14351459E-13</totfact>
</mgrwt>
</event>
<event>
 4    1 -0.4882314E-019  0.1501398E+02  0.7818608E-02  0.1867642E+00
          2   -1    0    0  501    0  0.00000000000E+00  0.00000000000E+00  0.12013923966E+03  0.12013923969E+03  0.25500000000E-02 0.  1.
         -2   -1    0    0    0  501 -0.00000000000E+00 -0.00000000000E+00 -0.46907632264E+00  0.46908325376E+00  0.25500000000E-02 0. -1.
         31    1    1    2    0    0  0.57109454682E+00  0.22489553224E+00  0.54046592104E+02  0.54560698044E+02  0.74470750000E+01 0. -1.
        -31    1    1    2    0    0 -0.57109454682E+00 -0.22489553224E+00  0.65623571233E+02  0.66047624896E+02  0.74470750000E+01 0.  1.
<mgrwt>
<rscale>  0 0.15013979E+02</rscale>
<asrwt>0</asrwt>
<pdfrwt beam="1">  1        2 0.99727400E+00 0.15013979E+02</pdfrwt>
<pdfrwt beam="2">  1       -2 0.99628021E+00 0.15013979E+02</pdfrwt>
<totfact>-0.74802139E-14</totfact>
</mgrwt>
</event>
<event>
 4    1 -0.4882314E-019  0.1500354E+02  0.7818608E-02  0.1867960E+00
         -2   -1    0    0    0  501 -0.00000000000E+00  0.00000000000E+00  0.12007772414E+03  0.12007772417E+03  0.25500000000E-02 0. -1.
          2   -1    0    0  501    0  0.00000000000E+00 -0.00000000000E+00 -0.46866436963E+00  0.46867130685E+00  0.25500000000E-02 0.  1.
         31    1    1    2    0    0 -0.41072187584E+00 -0.75926238404E+00  0.57641573088E+02  0.58127059498E+02  0.74470750000E+01 0.  1.
        -31    1    1    2    0    0  0.41072187584E+00  0.75926238404E+00  0.61967486682E+02  0.62419335975E+02  0.74470750000E+01 0.  1.
<mgrwt>
<rscale>  0 0.15003542E+02</rscale>
<asrwt>0</asrwt>
<pdfrwt beam="2">  1        2 0.99540669E+00 0.15003542E+02</pdfrwt>
<pdfrwt beam="1">  1       -2 0.99676194E+00 0.15003542E+02</pdfrwt>
<totfact>-0.95864046E-14</totfact>
</mgrwt>
</event>
<event>
 4    1 -0.4882314E-019  0.1494616E+02  0.7818608E-02  0.1869716E+00
         -2   -1    0    0    0  501 -0.00000000000E+00  0.00000000000E+00  0.11964222514E+03  0.11964222517E+03  0.25500000000E-02 0.  1.
          2   -1    0    0  501    0  0.00000000000E+00 -0.00000000000E+00 -0.46677932281E+00  0.46678628804E+00  0.25500000000E-02 0. -1.
         31    1    1    2    0    0 -0.30256631654E+00  0.52977246405E+00  0.60598020864E+02  0.61056950988E+02  0.74470750000E+01 0. -1.
        -31    1    1    2    0    0  0.30256631654E+00 -0.52977246405E+00  0.58577424951E+02  0.59052060465E+02  0.74470750000E+01 0. -1.
<mgrwt>
<rscale>  0 0.14946162E+02</rscale>
<asrwt>0</asrwt>
<pdfrwt beam="2">  1        2 0.99140458E+00 0.14946162E+02</pdfrwt>
<pdfrwt beam="1">  1       -2 0.99314534E+00 0.14946162E+02</pdfrwt>
<totfact>-0.14082152E-13</totfact>
</mgrwt>
</event>
<event>
 4    1 -0.4882314E-019  0.1499954E+02  0.7818608E-02  0.1868083E+00
          2   -1    0    0  501    0  0.00000000000E+00  0.00000000000E+00  0.11992890995E+03  0.11992890997E+03  0.25500000000E-02 0.  1.
         -2   -1    0    0    0  501 -0.00000000000E+00 -0.00000000000E+00 -0.46899532212E+00  0.46900225444E+00  0.25500000000E-02 0. -1.
         31    1    1    2    0    0 -0.21212806757E+00 -0.65446025754E+00  0.55230134213E+02  0.55734190294E+02  0.74470750000E+01 0. -1.
        -31    1    1    2    0    0  0.21212806757E+00  0.65446025754E+00  0.64229780412E+02  0.64663721934E+02  0.74470750000E+01 0.  1.
<mgrwt>
<rscale>  0 0.14999536E+02</rscale>
<asrwt>0</asrwt>
<pdfrwt beam="1">  1        2 0.99553418E+00 0.14999536E+02</pdfrwt>
<pdfrwt beam="2">  1       -2 0.99610205E+00 0.14999536E+02</pdfrwt>
<totfact>-0.10423056E-13</totfact>
</mgrwt>
</event>
<event>
 4    1  0.4882314E-019  0.1491407E+02  0.7818608E-02  0.1870702E+00
         -2   -1    0    0    0  501 -0.00000000000E+00  0.00000000000E+00  0.11880618801E+03  0.11880618804E+03  0.25500000000E-02 0.  1.
          2   -1    0    0  501    0  0.00000000000E+00 -0.00000000000E+00 -0.46804735623E+00  0.46805430260E+00  0.25500000000E-02 0. -1.
         31    1    1    2    0    0  0.30342443426E+00 -0.17268180216E+00  0.60471612516E+02  0.60929440600E+02  0.74470750000E+01 0. -1.
        -31    1    1    2    0    0 -0.30342443426E+00  0.17268180216E+00  0.57866528137E+02  0.58344801740E+02  0.74470750000E+01 0. -1.
<mgrwt>
<rscale>  0 0.14914066E+02</rscale>
<asrwt>0</asrwt>
<pdfrwt beam="2">  1        2 0.99406000E+00 0.14914066E+02</pdfrwt>
<pdfrwt beam="1">  1       -2 0.98624289E+00 0.14914066E+02</pdfrwt>
<totfact> 0.35755359E-13</totfact>
</mgrwt>
</event>
<event>
 4    1  0.4882314E-019  0.1492167E+02  0.7818608E-02  0.1870468E+00
          2   -1    0    0  501    0  0.00000000000E+00  0.00000000000E+00  0.11987543841E+03  0.11987543844E+03  0.25500000000E-02 0. -1.
         -2   -1    0    0    0  501 -0.00000000000E+00 -0.00000000000E+00 -0.46434589438E+00  0.46435289612E+00  0.25500000000E-02 0.  1.
         31    1    1    2    0    0 -0.29655155879E+00 -0.29644388019E+00  0.58324074629E+02  0.58799085275E+02  0.74470750000E+01 0.  1.
        -31    1    1    2    0    0  0.29655155879E+00  0.29644388019E+00  0.61087017886E+02  0.61540706058E+02  0.74470750000E+01 0. -1.
<mgrwt>
<rscale>  0 0.14921674E+02</rscale>
<asrwt>0</asrwt>
<pdfrwt beam="1">  1        2 0.99505359E+00 0.14921674E+02</pdfrwt>
<pdfrwt beam="2">  1       -2 0.98626364E+00 0.14921674E+02</pdfrwt>
<totfact> 0.32395202E-13</totfact>
</mgrwt>
</event>
<event>
 4    1 -0.4882314E-019  0.1491950E+02  0.7818608E-02  0.1870535E+00
          2   -1    0    0  501    0  0.00000000000E+00  0.00000000000E+00  0.11835863554E+03  0.11835863557E+03  0.25500000000E-02 0. -1.
         -2   -1    0    0    0  501 -0.00000000000E+00 -0.00000000000E+00 -0.47015975675E+00  0.47016667190E+00  0.25500000000E-02 0.  1.
         31    1    1    2    0    0 -0.15657073318E+00  0.37944514360E+00  0.57804964749E+02  0.58284143373E+02  0.74470750000E+01 0. -1.
        -31    1    1    2    0    0  0.15657073318E+00 -0.37944514360E+00  0.60083511034E+02  0.60544658866E+02  0.74470750000E+01 0. -1.
<mgrwt>
<rscale>  0 0.14919501E+02</rscale>
<asrwt>0</asrwt>
<pdfrwt beam="1">  1        2 0.98255968E+00 0.14919501E+02</pdfrwt>
<pdfrwt beam="2">  1       -2 0.99851377E+00 0.14919501E+02</pdfrwt>
<totfact>-0.24170643E-13</totfact>
</mgrwt>
</event>
<event>
 4    1 -0.4882314E-019  0.1497327E+02  0.7818608E-02  0.1868885E+00
         -2   -1    0    0    0  501 -0.00000000000E+00  0.00000000000E+00  0.11937951701E+03  0.11937951704E+03  0.25500000000E-02 0. -1.
          2   -1    0    0  501    0  0.00000000000E+00 -0.00000000000E+00 -0.46950531437E+00  0.46951223916E+00  0.25500000000E-02 0.  1.
         31    1    1    2    0    0 -0.24079554343E+00 -0.66799851177E+00  0.61810521357E+02  0.62261574675E+02  0.74470750000E+01 0.  1.
        -31    1    1    2    0    0  0.24079554343E+00  0.66799851177E+00  0.57099490339E+02  0.57587454602E+02  0.74470750000E+01 0. -1.
<mgrwt>
<rscale>  0 0.14973274E+02</rscale>
<asrwt>0</asrwt>
<pdfrwt beam="2">  1        2 0.99716309E+00 0.14973274E+02</pdfrwt>
<pdfrwt beam="1">  1       -2 0.99099563E+00 0.14973274E+02</pdfrwt>
<totfact>-0.29526962E-14</totfact>
</mgrwt>
</event>
<event>
 4    1  0.4882314E-019  0.1490346E+02  0.7818608E-02  0.1871029E+00
         -2   -1    0    0    0  501 -0.00000000000E+00  0.00000000000E+00  0.11846955686E+03  0.11846955689E+03  0.25500000000E-02 0. -1.
          2   -1    0    0  501    0  0.00000000000E+00 -0.00000000000E+00 -0.46871017876E+00  0.46871711529E+00  0.25500000000E-02 0.  1.
         31    1    1    2    0    0  0.25153865360E+00 -0.78009286001E-01  0.58966453490E+02  0.59435434888E+02  0.74470750000E+01 0. -1.
        -31    1    1    2    0    0 -0.25153865360E+00  0.78009286001E-01  0.59034393196E+02  0.59502839119E+02  0.74470750000E+01 0. -1.
<mgrwt>
<rscale>  0 0.14903463E+02</rscale>
<asrwt>0</asrwt>
<pdfrwt beam="2">  1        2 0.99545106E+00 0.14903463E+02</pdfrwt>
<pdfrwt beam="1">  1       -2 0.98346487E+00 0.14903463E+02</pdfrwt>
<totfact> 0.68212365E-13</totfact>
</mgrwt>
</event>
<event>
 4    1 -0.4882314E-019  0.1499037E+02  0.7818608E-02  0.1868362E+00
         -2   -1    0    0    0  501 -0.00000000000E+00  0.00000000000E+00  0.11962806287E+03  0.11962806290E+03  0.25500000000E-02 0.  1.
          2   -1    0    0  501    0  0.00000000000E+00 -0.00000000000E+00 -0.46960063365E+00  0.46960755704E+00  0.25500000000E-02 0. -1.
         31    1    1    2    0    0 -0.53788617783E+00  0.63559480481E+00  0.58297287887E+02  0.58776917267E+02  0.74470750000E+01 0.  1.
        -31    1    1    2    0    0  0.53788617783E+00 -0.63559480481E+00  0.60861174352E+02  0.61320753191E+02  0.74470750000E+01 0.  1.
<mgrwt>
<rscale>  0 0.14990374E+02</rscale>
<asrwt>0</asrwt>
<pdfrwt beam="2">  1        2 0.99737286E+00 0.14990374E+02</pdfrwt>
<pdfrwt beam="1">  1       -2 0.99305157E+00 0.14990374E+02</pdfrwt>
<totfact>-0.70312096E-14</totfact>
</mgrwt>
</event>
<event>
 4    1 -0.4882314E-019  0.1494167E+02  0.7818608E-02  0.1869854E+00
          2   -1    0    0  501    0  0.00000000000E+00  0.00000000000E+00  0.11922122797E+03  0.11922122800E+03  0.25500000000E-02 0.  1.
         -2   -1    0    0    0  501 -0.00000000000E+00 -0.00000000000E+00 -0.46814623590E+00  0.46815318080E+00  0.25500000000E-02 0. -1.
         31    1    1    2    0    0 -0.28447569736E+00 -0.43147159674E+00  0.57008833500E+02  0.57495505192E+02  0.74470750000E+01 0. -1.
        -31    1    1    2    0    0  0.28447569736E+00  0.43147159674E+00  0.61744248235E+02  0.62193875988E+02  0.74470750000E+01 0.  1.
<mgrwt>
<rscale>  0 0.14941671E+02</rscale>
<asrwt>0</asrwt>
<pdfrwt beam="1">  1        2 0.98967555E+00 0.14941671E+02</pdfrwt>
<pdfrwt beam="2">  1       -2 0.99428276E+00 0.14941671E+02</pdfrwt>
<totfact>-0.18312305E-13</totfact>
</mgrwt>
</event>
<event>
 4    1 -0.4882314E-019  0.1492291E+02  0.7818608E-02  0.1870430E+00
         -2   -1    0    0    0  501 -0.00000000000E+00  0.00000000000E+00  0.11964262477E+03  0.11964262479E+03  0.25500000000E-02 0.  1.
          2   -1    0    0  501    0  0.00000000000E+00 -0.00000000000E+00 -0.46532674050E+00  0.46533372747E+00  0.25500000000E-02 0. -1.
         31    1    1    2    0    0 -0.42457018340E+00 -0.14648934603E+00  0.60495275959E+02  0.60953581178E+02  0.74470750000E+01 0.  1.
        -31    1    1    2    0    0  0.42457018340E+00  0.14648934603E+00  0.58682022066E+02  0.59154377343E+02  0.74470750000E+01 0. -1.
<mgrwt>
<rscale>  0 0.14922913E+02</rscale>
<asrwt>0</asrwt>
<pdfrwt beam="2">  1        2 0.98833142E+00 0.14922913E+02</pdfrwt>
<pdfrwt beam="1">  1       -2 0.99313664E+00 0.14922913E+02</pdfrwt>
<totfact>-0.19028027E-13</totfact>
</mgrwt>
</event>
<event>
 4    1 -0.4882314E-019  0.1495945E+02  0.7818608E-02  0.1869308E+00
          2   -1    0    0  501    0  0.00000000000E+00  0.00000000000E+00  0.11935223592E+03  0.11935223595E+03  0.25500000000E-02 0. -1.
         -2   -1    0    0    0  501 -0.00000000000E+00 -0.00000000000E+00 -0.46874593441E+00  0.46875287042E+00  0.25500000000E-02 0.  1.
         31    1    1    2    0    0  0.73370024120E-01  0.15220168549E+00  0.64867216033E+02  0.65293515684E+02  0.74470750000E+01 0. -1.
        -31    1    1    2    0    0 -0.73370024120E-01 -0.15220168549E+00  0.54016273956E+02  0.54527473136E+02  0.74470750000E+01 0.  1.
<mgrwt>
<rscale>  0 0.14959451E+02</rscale>
<asrwt>0</asrwt>
<pdfrwt beam="1">  1        2 0.99076377E+00 0.14959451E+02</pdfrwt>
<pdfrwt beam="2">  1       -2 0.99555572E+00 0.14959451E+02</pdfrwt>
<totfact>-0.16264385E-13</totfact>
</mgrwt>
</event>
<event>
 4    1  0.4882314E-019  0.1493062E+02  0.7818608E-02  0.1870193E+00
          2   -1    0    0  501    0  0.00000000000E+00  0.00000000000E+00  0.12034853228E+03  0.12034853230E+03  0.25500000000E-02 0. -1.
         -2   -1    0    0    0  501 -0.00000000000E+00 -0.00000000000E+00 -0.46307529411E+00  0.46308231505E+00  0.25500000000E-02 0.  1.
         31    1    1    2    0    0 -0.24449832797E+00 -0.31838959090E+00  0.62635888096E+02  0.63078320800E+02  0.74470750000E+01 0. -1.
        -31    1    1    2    0    0  0.24449832797E+00  0.31838959090E+00  0.57249568885E+02  0.57733293817E+02  0.74470750000E+01 0.  1.
<mgrwt>
<rscale>  0 0.14930621E+02</rscale>
<asrwt>0</asrwt>
<pdfrwt beam="1">  1        2 0.99895496E+00 0.14930621E+02</pdfrwt>
<pdfrwt beam="2">  1       -2 0.98359021E+00 0.14930621E+02</pdfrwt>
<totfact> 0.22219549E-13</totfact>
</mgrwt>
</event>
<event>
 4    1  0.4882314E-019  0.1490347E+02  0.7818608E-02  0.1871029E+00
         -2   -1    0    0    0  501 -0.00000000000E+00  0.00000000000E+00  0.11807032227E+03  0.11807032230E+03  0.25500000000E-02 0.  1.
          2   -1    0    0  501    0  0.00000000000E+00 -0.00000000000E+00 -0.47029528829E+00  0.47030220144E+00  0.25500000000E-02 0. -1.
         31    1    1    2    0    0 -0.16183154483E+00 -0.11480301296E+00  0.60178412286E+02  0.60637773710E+02  0.74470750000E+01 0.  1.
        -31    1    1    2    0    0  0.16183154483E+00  0.11480301296E+00  0.57421614700E+02  0.57902850793E+02  0.74470750000E+01 0.  1.
<mgrwt>
<rscale>  0 0.14903466E+02</rscale>
<asrwt>0</asrwt>
<pdfrwt beam="2">  1        2 0.99879082E+00 0.14903466E+02</pdfrwt>
<pdfrwt beam="1">  1       -2 0.98017682E+00 0.14903466E+02</pdfrwt>
<totfact> 0.49757607E-13</totfact>
</mgrwt>
</event>
<event>
 4    1  0.4882314E-019  0.1493493E+02  0.7818608E-02  0.1870061E+00
          2   -1    0    0  501    0  0.00000000000E+00  0.00000000000E+00  0.12004400960E+03  0.12004400963E+03  0.25500000000E-02 0.  1.
         -2   -1    0    0    0  501 -0.00000000000E+00 -0.00000000000E+00 -0.46451820675E+00  0.46452520588E+00  0.25500000000E-02 0. -1.
         31    1    1    2    0    0  0.20519124685E+00  0.14513836346E+00  0.55828934674E+02  0.56323991704E+02  0.74470750000E+01 0. -1.
        -31    1    1    2    0    0 -0.20519124685E+00 -0.14513836346E+00  0.63750556718E+02  0.64184543128E+02  0.74470750000E+01 0.  1.
<mgrwt>
<rscale>  0 0.14934932E+02</rscale>
<asrwt>0</asrwt>
<pdfrwt beam="1">  1        2 0.99644888E+00 0.14934932E+02</pdfrwt>
<pdfrwt beam="2">  1       -2 0.98663356E+00 0.14934932E+02</pdfrwt>
<totfact> 0.23425729E-13</totfact>
</mgrwt>
</event>
<event>
 4    1  0.4882314E-019  0.1493060E+02  0.7818608E-02  0.1870194E+00
          2   -1    0    0  501    0  0.00000000000E+00  0.00000000000E+00  0.12009342230E+03  0.12009342233E+03  0.25500000000E-02 0.  1.
         -2   -1    0    0    0  501 -0.00000000000E+00 -0.00000000000E+00 -0.46405750061E+00  0.46406450669E+00  0.25500000000E-02 0. -1.
         31    1    1    2    0    0  0.49979467350E+00  0.12948356537E+00  0.60396416901E+02  0.60855999386E+02  0.74470750000E+01 0.  1.
        -31    1    1    2    0    0 -0.49979467350E+00 -0.12948356537E+00  0.59232947898E+02  0.59701487447E+02  0.74470750000E+01 0. -1.
<mgrwt>
<rscale>  0 0.14930596E+02</rscale>
<asrwt>0</asrwt>
<pdfrwt beam="1">  1        2 0.99685365E+00 0.14930596E+02</pdfrwt>
<pdfrwt beam="2">  1       -2 0.98566036E+00 0.14930596E+02</pdfrwt>
<totfact> 0.30346045E-13</totfact>
</mgrwt>
</event>
<event>
 4    1 -0.4882314E-019  0.1496812E+02  0.7818608E-02  0.1869043E+00
          2   -1    0    0  501    0  0.00000000000E+00  0.00000000000E+00  0.11945239696E+03  0.11945239699E+03  0.25500000000E-02 0. -1.
         -2   -1    0    0    0  501 -0.00000000000E+00 -0.00000000000E+00 -0.46889608717E+00  0.46890302096E+00  0.25500000000E-02 0.  1.
         31    1    1    2    0    0 -0.22905453128E+00  0.36605094276E+00  0.64337344453E+02  0.64768350887E+02  0.74470750000E+01 0. -1.
        -31    1    1    2    0    0  0.22905453128E+00 -0.36605094276E+00  0.54646156418E+02  0.55152949119E+02  0.74470750000E+01 0. -1.
<mgrwt>
<rscale>  0 0.14968123E+02</rscale>
<asrwt>0</asrwt>
<pdfrwt beam="1">  1        2 0.99159321E+00 0.14968123E+02</pdfrwt>
<pdfrwt beam="2">  1       -2 0.99587664E+00 0.14968123E+02</pdfrwt>
<totfact>-0.14826339E-13</totfact>
</mgrwt>
</event>
<event>
 4    1 -0.4882314E-019  0.1498913E+02  0.7818608E-02  0.1868400E+00
         -2   -1    0    0    0  501 -0.00000000000E+00  0.00000000000E+00  0.11991316890E+03  0.11991316892E+03  0.25500000000E-02 0.  1.
          2   -1    0    0  501    0  0.00000000000E+00 -0.00000000000E+00 -0.46840640977E+00  0.46841335081E+00  0.25500000000E-02 0. -1.
         31    1    1    2    0    0  0.49541171201E+00  0.61647562893E+00  0.57393104241E+02  0.57879640768E+02  0.74470750000E+01 0.  1.
        -31    1    1    2    0    0 -0.49541171201E+00 -0.61647562893E+00  0.62051658247E+02  0.62501941507E+02  0.74470750000E+01 0.  1.
<mgrwt>
<rscale>  0 0.14989132E+02</rscale>
<asrwt>0</asrwt>
<pdfrwt beam="2">  1        2 0.99485563E+00 0.14989132E+02</pdfrwt>
<pdfrwt beam="1">  1       -2 0.99539915E+00 0.14989132E+02</pdfrwt>
<totfact>-0.11921560E-13</totfact>
</mgrwt>
</event>
<event>
 4    1  0.4882314E-019  0.1496160E+02  0.7818608E-02  0.1869243E+00
         -2   -1    0    0    0  501 -0.00000000000E+00  0.00000000000E+00  0.11898881432E+03  0.11898881435E+03  0.25500000000E-02 0. -1.
          2   -1    0    0  501    0  0.00000000000E+00 -0.00000000000E+00 -0.47031268555E+00  0.47031959846E+00  0.25500000000E-02 0.  1.
         31    1    1    2    0    0  0.28565509316E-01  0.34399456032E-01  0.53605326928E+02  0.54120162606E+02  0.74470750000E+01 0.  1.
        -31    1    1    2    0    0 -0.28565509316E-01 -0.34399456032E-01  0.64913174711E+02  0.65338971345E+02  0.74470750000E+01 0. -1.
<mgrwt>
<rscale>  0 0.14961599E+02</rscale>
<asrwt>0</asrwt>
<pdfrwt beam="2">  1        2 0.99885821E+00 0.14961599E+02</pdfrwt>
<pdfrwt beam="1">  1       -2 0.98777170E+00 0.14961599E+02</pdfrwt>
<totfact> 0.59133934E-14</totfact>
</mgrwt>
</event>
<event>
 4    1 -0.4882314E-019  0.1496058E+02  0.7818608E-02  0.1869274E+00
         -2   -1    0    0    0  501 -0.00000000000E+00  0.00000000000E+00  0.11952817613E+03  0.11952817615E+03  0.25500000000E-02 0.  1.
          2   -1    0    0  501    0  0.00000000000E+00 -0.00000000000E+00 -0.46812636687E+00  0.46813331206E+00  0.25500000000E-02 0. -1.
         31    1    1    2    0    0  0.27146987209E-01 -0.64426241065E+00  0.61798263798E+02  0.62248695934E+02  0.74470750000E+01 0.  1.
        -31    1    1    2    0    0 -0.27146987209E-01  0.64426241065E+00  0.57261785961E+02  0.57747613531E+02  0.74470750000E+01 0.  1.
<mgrwt>
<rscale>  0 0.14960576E+02</rscale>
<asrwt>0</asrwt>
<pdfrwt beam="2">  1        2 0.99425071E+00 0.14960576E+02</pdfrwt>
<pdfrwt beam="1">  1       -2 0.99221344E+00 0.14960576E+02</pdfrwt>
<totfact>-0.91218155E-14</totfact>
</mgrwt>
</event>
<event>
 4    1 -0.4882314E-019  0.1494559E+02  0.7818608E-02  0.1869733E+00
         -2   -1    0    0    0  501 -0.00000000000E+00  0.00000000000E+00  0.12000870873E+03  0.12000870876E+03  0.25500000000E-02 0. -1.
          2   -1    0    0  501    0  0.00000000000E+00 -0.00000000000E+00 -0.46531844453E+00  0.46532543162E+00  0.25500000000E-02 0.  1.
         31    1    1    2    0    0 -0.25977977016E+00 -0.55185717421E+00  0.58898655005E+02  0.59370721062E+02  0.74470750000E+01 0.  1.
        -31    1    1    2    0    0  0.25977977016E+00  0.55185717421E+00  0.60644735281E+02  0.61103313128E+02  0.74470750000E+01 0. -1.
<mgrwt>
<rscale>  0 0.14945593E+02</rscale>
<asrwt>0</asrwt>
<pdfrwt beam="2">  1        2 0.98832554E+00 0.14945593E+02</pdfrwt>
<pdfrwt beam="1">  1       -2 0.99616361E+00 0.14945593E+02</pdfrwt>
<totfact>-0.19735555E-13</totfact>
</mgrwt>
</event>
<event>
 4    1  0.4882314E-019  0.1492851E+02  0.7818608E-02  0.1870258E+00
         -2   -1    0    0    0  501 -0.00000000000E+00  0.00000000000E+00  0.11866333735E+03  0.11866333738E+03  0.25500000000E-02 0.  1.
          2   -1    0    0  501    0  0.00000000000E+00 -0.00000000000E+00 -0.46951902184E+00  0.46952594642E+00  0.25500000000E-02 0. -1.
         31    1    1    2    0    0 -0.34827830550E+00  0.10621381528E+00  0.56291284569E+02  0.56782921936E+02  0.74470750000E+01 0. -1.
        -31    1    1    2    0    0  0.34827830550E+00 -0.10621381528E+00  0.61902533758E+02  0.62349941387E+02  0.74470750000E+01 0.  1.
<mgrwt>
<rscale>  0 0.14928511E+02</rscale>
<asrwt>0</asrwt>
<pdfrwt beam="2">  1        2 0.99716851E+00 0.14928511E+02</pdfrwt>
<pdfrwt beam="1">  1       -2 0.98507387E+00 0.14928511E+02</pdfrwt>
<totfact> 0.33690678E-13</totfact>
</mgrwt>
</event>
<event>
 4    1  0.4882314E-019  0.1492728E+02  0.7818608E-02  0.1870296E+00
         -2   -1    0    0    0  501 -0.00000000000E+00  0.00000000000E+00  0.11873549439E+03  0.11873549442E+03  0.25500000000E-02 0.  1.
          2   -1    0    0  501    0  0.00000000000E+00 -0.00000000000E+00 -0.46915624792E+00  0.46916317787E+00  0.25500000000E-02 0. -1.
         31    1    1    2    0    0  0.48791176852E+00 -0.73578068958E-01  0.59606690100E+02  0.60072122505E+02  0.74470750000E+01 0. -1.
        -31    1    1    2    0    0 -0.48791176852E+00  0.73578068958E-01  0.58659648047E+02  0.59132535094E+02  0.74470750000E+01 0. -1.
<mgrwt>
<rscale>  0 0.14927279E+02</rscale>
<asrwt>0</asrwt>
<pdfrwt beam="2">  1        2 0.99640348E+00 0.14927279E+02</pdfrwt>
<pdfrwt beam="1">  1       -2 0.98566751E+00 0.14927279E+02</pdfrwt>
<totfact> 0.32978970E-13</totfact>
</mgrwt>
</event>
<event>
 4    1  0.4882314E-019  0.1493419E+02  0.7818608E-02  0.1870083E+00
         -2   -1    0    0    0  501 -0.00000000000E+00  0.00000000000E+00  0.11895196645E+03  0.11895196647E+03  0.25500000000E-02 0. -1.
          2   -1    0    0  501    0  0.00000000000E+00 -0.00000000000E+00 -0.46873620457E+00  0.46874314072E+00  0.25500000000E-02 0.  1.
         31    1    1    2    0    0 -0.12347037903E+00 -0.15640350029E+00  0.63310204730E+02  0.63747005075E+02  0.74470750000E+01 0. -1.
        -31    1    1    2    0    0  0.12347037903E+00  0.15640350029E+00  0.55173025511E+02  0.55673704539E+02  0.74470750000E+01 0.  1.
<mgrwt>
<rscale>  0 0.14934190E+02</rscale>
<asrwt>0</asrwt>
<pdfrwt beam="2">  1        2 0.99552203E+00 0.14934190E+02</pdfrwt>
<pdfrwt beam="1">  1       -2 0.98745398E+00 0.14934190E+02</pdfrwt>
<totfact> 0.18946053E-13</totfact>
</mgrwt>
</event>
<event>
 4    1 -0.4882314E-019  0.1499490E+02  0.7818608E-02  0.1868224E+00
          2   -1    0    0  501    0  0.00000000000E+00  0.00000000000E+00  0.11987852066E+03  0.11987852069E+03  0.25500000000E-02 0. -1.
         -2   -1    0    0    0  501 -0.00000000000E+00 -0.00000000000E+00 -0.46890218458E+00  0.46890911828E+00  0.25500000000E-02 0.  1.
         31    1    1    2    0    0  0.42438154686E+00  0.98195338201E-01  0.53682441663E+02  0.54198276827E+02  0.74470750000E+01 0.  1.
        -31    1    1    2    0    0 -0.42438154686E+00 -0.98195338201E-01  0.65727176815E+02  0.66149152982E+02  0.74470750000E+01 0. -1.
<mgrwt>
<rscale>  0 0.14994895E+02</rscale>
<asrwt>0</asrwt>
<pdfrwt beam="1">  1        2 0.99511675E+00 0.14994895E+02</pdfrwt>
<pdfrwt beam="2">  1       -2 0.99590338E+00 0.14994895E+02</pdfrwt>
<totfact>-0.11169174E-13</totfact>
</mgrwt>
</event>
<event>
 4    1 -0.4882314E-019  0.1502316E+02  0.7818608E-02  0.1867362E+00
          2   -1    0    0  501    0  0.00000000000E+00  0.00000000000E+00  0.11993928955E+03  0.11993928958E+03  0.25500000000E-02 0.  1.
         -2   -1    0    0    0  501 -0.00000000000E+00 -0.00000000000E+00 -0.47043343319E+00  0.47044034432E+00  0.25500000000E-02 0. -1.
         31    1    1    2    0    0  0.67324571890E+00 -0.11263804743E+00  0.54072702529E+02  0.54587379787E+02  0.74470750000E+01 0.  1.
        -31    1    1    2    0    0 -0.67324571890E+00  0.11263804743E+00  0.65396153587E+02  0.65822350134E+02  0.74470750000E+01 0. -1.
<mgrwt>
<rscale>  0 0.15023165E+02</rscale>
<asrwt>0</asrwt>
<pdfrwt beam="1">  1        2 0.99563189E+00 0.15023165E+02</pdfrwt>
<pdfrwt beam="2">  1       -2 0.99914482E+00 0.15023165E+02</pdfrwt>
<totfact>-0.31237408E-14</totfact>
</mgrwt>
</event>
<event>
 4    1 -0.4882314E-019  0.1500505E+02  0.7818608E-02  0.1867915E+00
         -2   -1    0    0    0  501 -0.00000000000E+00  0.00000000000E+00  0.11970498902E+03  0.11970498905E+03  0.25500000000E-02 0.  1.
          2   -1    0    0  501    0  0.00000000000E+00 -0.00000000000E+00 -0.47021792521E+00  0.47022483951E+00  0.25500000000E-02 0. -1.
         31    1    1    2    0    0  0.49320731161E+00 -0.31666646689E+00  0.54037520805E+02  0.54551407973E+02  0.74470750000E+01 0. -1.
        -31    1    1    2    0    0 -0.49320731161E+00  0.31666646689E+00  0.65197250293E+02  0.65623805916E+02  0.74470750000E+01 0.  1.
<mgrwt>
<rscale>  0 0.15005046E+02</rscale>
<asrwt>0</asrwt>
<pdfrwt beam="2">  1        2 0.99868127E+00 0.15005046E+02</pdfrwt>
<pdfrwt beam="1">  1       -2 0.99369275E+00 0.15005046E+02</pdfrwt>
<totfact>-0.44439227E-14</totfact>
</mgrwt>
</event>
<event>
 4    1  0.4882314E-019  0.1489963E+02  0.7818608E-02  0.1871147E+00
         -2   -1    0    0    0  501 -0.00000000000E+00  0.00000000000E+00  0.11874721684E+03  0.11874721687E+03  0.25500000000E-02 0.  1.
          2   -1    0    0  501    0  0.00000000000E+00 -0.00000000000E+00 -0.46737398961E+00  0.46738094598E+00  0.25500000000E-02 0. -1.
         31    1    1    2    0    0 -0.11936508262E+00  0.15790945587E+00  0.58813212863E+02  0.59283152048E+02  0.74470750000E+01 0. -1.
        -31    1    1    2    0    0  0.11936508262E+00 -0.15790945587E+00  0.59466629991E+02  0.59931445769E+02  0.74470750000E+01 0. -1.
<mgrwt>
<rscale>  0 0.14899634E+02</rscale>
<asrwt>0</asrwt>
<pdfrwt beam="2">  1        2 0.99263356E+00 0.14899634E+02</pdfrwt>
<pdfrwt beam="1">  1       -2 0.98574970E+00 0.14899634E+02</pdfrwt>
<totfact> 0.46924382E-13</totfact>
</mgrwt>
</event>
<event>
 4    1 -0.4882314E-019  0.1494407E+02  0.7818608E-02  0.1869780E+00
         -2   -1    0    0    0  501 -0.00000000000E+00  0.00000000000E+00  0.11974259020E+03  0.11974259023E+03  0.25500000000E-02 0.  1.
          2   -1    0    0  501    0  0.00000000000E+00 -0.00000000000E+00 -0.46625751521E+00  0.46626448824E+00  0.25500000000E-02 0. -1.
         31    1    1    2    0    0  0.73794342704E-01  0.52554505231E+00  0.62061162525E+02  0.62508627110E+02  0.74470750000E+01 0. -1.
        -31    1    1    2    0    0 -0.73794342704E-01 -0.52554505231E+00  0.57215170160E+02  0.57700227605E+02  0.74470750000E+01 0. -1.
<mgrwt>
<rscale>  0 0.14944070E+02</rscale>
<asrwt>0</asrwt>
<pdfrwt beam="2">  1        2 0.99030384E+00 0.14944070E+02</pdfrwt>
<pdfrwt beam="1">  1       -2 0.99397092E+00 0.14944070E+02</pdfrwt>
<totfact>-0.16953566E-13</totfact>
</mgrwt>
</event>
<event>
 4    1 -0.4882314E-019  0.1501419E+02  0.7818608E-02  0.1867636E+00
          2   -1    0    0  501    0  0.00000000000E+00  0.00000000000E+00  0.12014794150E+03  0.12014794153E+03  0.25500000000E-02 0. -1.
         -2   -1    0    0    0  501 -0.00000000000E+00 -0.00000000000E+00 -0.46905580399E+00  0.46906273542E+00  0.25500000000E-02 0.  1.
         31    1    1    2    0    0 -0.64008655780E+00  0.37192063146E+00  0.64589068474E+02  0.65021186763E+02  0.74470750000E+01 0.  1.
        -31    1    1    2    0    0  0.64008655780E+00 -0.37192063146E+00  0.55089817225E+02  0.55595817502E+02  0.74470750000E+01 0.  1.
<mgrwt>
<rscale>  0 0.15014194E+02</rscale>
<asrwt>0</asrwt>
<pdfrwt beam="1">  1        2 0.99734578E+00 0.15014194E+02</pdfrwt>
<pdfrwt beam="2">  1       -2 0.99623708E+00 0.15014194E+02</pdfrwt>
<totfact>-0.73824238E-14</totfact>
</mgrwt>
</event>
<event>
 4    1  0.4882314E-019  0.1492708E+02  0.7818608E-02  0.1870302E+00
         -2   -1    0    0    0  501 -0.00000000000E+00  0.00000000000E+00  0.11913383485E+03  0.11913383488E+03  0.25500000000E-02 0.  1.
          2   -1    0    0  501    0  0.00000000000E+00 -0.00000000000E+00 -0.46757490800E+00  0.46758186138E+00  0.25500000000E-02 0. -1.
         31    1    1    2    0    0 -0.88769348416E-01  0.20289528919E+00  0.62884311973E+02  0.63324123877E+02  0.74470750000E+01 0.  1.
        -31    1    1    2    0    0  0.88769348416E-01 -0.20289528919E+00  0.55781947968E+02  0.56277292860E+02  0.74470750000E+01 0. -1.
<mgrwt>
<rscale>  0 0.14927077E+02</rscale>
<asrwt>0</asrwt>
<pdfrwt beam="2">  1        2 0.99307124E+00 0.14927077E+02</pdfrwt>
<pdfrwt beam="1">  1       -2 0.98894819E+00 0.14927077E+02</pdfrwt>
<totfact> 0.89464690E-14</totfact>
</mgrwt>
</event>
<event>
 4    1 -0.4882314E-019  0.1495110E+02  0.7818608E-02  0.1869564E+00
         -2   -1    0    0    0  501 -0.00000000000E+00  0.00000000000E+00  0.12018948501E+03  0.12018948504E+03  0.25500000000E-02 0.  1.
          2   -1    0    0  501    0  0.00000000000E+00 -0.00000000000E+00 -0.46496108876E+00  0.46496808123E+00  0.25500000000E-02 0. -1.
         31    1    1    2    0    0  0.24511803193E-01 -0.35593080116E+00  0.64264955840E+02  0.64695987223E+02  0.74470750000E+01 0.  1.
        -31    1    1    2    0    0 -0.24511803193E-01  0.35593080116E+00  0.55459568086E+02  0.55958465900E+02  0.74470750000E+01 0. -1.
<mgrwt>
<rscale>  0 0.14951101E+02</rscale>
<asrwt>0</asrwt>
<pdfrwt beam="2">  1        2 0.98757520E+00 0.14951101E+02</pdfrwt>
<pdfrwt beam="1">  1       -2 0.99765544E+00 0.14951101E+02</pdfrwt>
<totfact>-0.15879637E-13</totfact>
</mgrwt>
</event>
<event>
 4    1 -0.4882314E-019  0.1491577E+02  0.7818608E-02  0.1870650E+00
          2   -1    0    0  501    0  0.00000000000E+00  0.00000000000E+00  0.11906053242E+03  0.11906053245E+03  0.25500000000E-02 0. -1.
         -2   -1    0    0    0  501 -0.00000000000E+00 -0.00000000000E+00 -0.46715441821E+00  0.46716137785E+00  0.25500000000E-02 0.  1.
         31    1    1    2    0    0 -0.39907590561E+00 -0.42967856472E-01  0.59247648564E+02  0.59715189811E+02  0.74470750000E+01 0. -1.
        -31    1    1    2    0    0  0.39907590561E+00  0.42967856472E-01  0.59345729439E+02  0.59812504015E+02  0.74470750000E+01 0.  1.
<mgrwt>
<rscale>  0 0.14915773E+02</rscale>
<asrwt>0</asrwt>
<pdfrwt beam="1">  1        2 0.98833860E+00 0.14915773E+02</pdfrwt>
<pdfrwt beam="2">  1       -2 0.99217929E+00 0.14915773E+02</pdfrwt>
<totfact>-0.15091435E-13</totfact>
</mgrwt>
</event>
<event>
 4    1 -0.4882314E-019  0.1491461E+02  0.7818608E-02  0.1870685E+00
         -2   -1    0    0    0  501 -0.00000000000E+00  0.00000000000E+00  0.11954297653E+03  0.11954297656E+03  0.25500000000E-02 0. -1.
          2   -1    0    0  501    0  0.00000000000E+00 -0.00000000000E+00 -0.46519664152E+00  0.46520363045E+00  0.25500000000E-02 0.  1.
         31    1    1    2    0    0  0.88787196887E-01 -0.37882792573E+00  0.59804830980E+02  0.60267969340E+02  0.74470750000E+01 0. -1.
        -31    1    1    2    0    0 -0.88787196887E-01  0.37882792573E+00  0.59272948913E+02  0.59740210852E+02  0.74470750000E+01 0.  1.
<mgrwt>
<rscale>  0 0.14914612E+02</rscale>
<asrwt>0</asrwt>
<pdfrwt beam="2">  1        2 0.98805298E+00 0.14914612E+02</pdfrwt>
<pdfrwt beam="1">  1       -2 0.99231160E+00 0.14914612E+02</pdfrwt>
<totfact>-0.16320748E-13</totfact>
</mgrwt>
</event>
<event>
 4    1 -0.4882314E-019  0.1491975E+02  0.7818608E-02  0.1870527E+00
         -2   -1    0    0    0  501 -0.00000000000E+00  0.00000000000E+00  0.11990696152E+03  0.11990696154E+03  0.25500000000E-02 0.  1.
          2   -1    0    0  501    0  0.00000000000E+00 -0.00000000000E+00 -0.46410379563E+00  0.46411080101E+00  0.25500000000E-02 0. -1.
         31    1    1    2    0    0  0.88962501160E-01  0.11430791500E+00  0.56396977221E+02  0.56886720299E+02  0.74470750000E+01 0. -1.
        -31    1    1    2    0    0 -0.88962501160E-01 -0.11430791500E+00  0.63045880500E+02  0.63484352046E+02  0.74470750000E+01 0.  1.
<mgrwt>
<rscale>  0 0.14919745E+02</rscale>
<asrwt>0</asrwt>
<pdfrwt beam="2">  1        2 0.98575241E+00 0.14919745E+02</pdfrwt>
<pdfrwt beam="1">  1       -2 0.99531225E+00 0.14919745E+02</pdfrwt>
<totfact>-0.30465402E-13</totfact>
</mgrwt>
</event>
<event>
 4    1 -0.4882314E-019  0.1495818E+02  0.7818608E-02  0.1869347E+00
         -2   -1    0    0    0  501 -0.00000000000E+00  0.00000000000E+00  0.11939339496E+03  0.11939339499E+03  0.25500000000E-02 0.  1.
          2   -1    0    0  501    0  0.00000000000E+00 -0.00000000000E+00 -0.46850454372E+00  0.46851148330E+00  0.25500000000E-02 0. -1.
         31    1    1    2    0    0  0.23008084584E-01  0.16167834765E+00  0.54080085310E+02  0.54590669738E+02  0.74470750000E+01 0. -1.
        -31    1    1    2    0    0 -0.23008084584E-01 -0.16167834765E+00  0.64844805111E+02  0.65271236737E+02  0.74470750000E+01 0.  1.
<mgrwt>
<rscale>  0 0.14958177E+02</rscale>
<asrwt>0</asrwt>
<pdfrwt beam="2">  1        2 0.99504639E+00 0.14958177E+02</pdfrwt>
<pdfrwt beam="1">  1       -2 0.99110211E+00 0.14958177E+02</pdfrwt>
<totfact>-0.45903276E-14</totfact>
</mgrwt>
</event>
<event>
 4    1  0.4882314E-019  0.1493762E+02  0.7818608E-02  0.1869978E+00
         -2   -1    0    0    0  501 -0.00000000000E+00  0.00000000000E+00  0.11859133999E+03  0.11859134002E+03  0.25500000000E-02 0.  1.
          2   -1    0    0  501    0  0.00000000000E+00 -0.00000000000E+00 -0.47037750213E+00  0.47038441408E+00  0.25500000000E-02 0. -1.
         31    1    1    2    0    0 -0.32442171506E+00  0.33566369984E+00  0.56462192059E+02  0.56953103320E+02  0.74470750000E+01 0. -1.
        -31    1    1    2    0    0  0.32442171506E+00 -0.33566369984E+00  0.61658770430E+02  0.62108621113E+02  0.74470750000E+01 0. -1.
<mgrwt>
<rscale>  0 0.14937618E+02</rscale>
<asrwt>0</asrwt>
<pdfrwt beam="2">  1        2 0.99898214E+00 0.14937618E+02</pdfrwt>
<pdfrwt beam="1">  1       -2 0.98448564E+00 0.14937618E+02</pdfrwt>
<totfact> 0.17382944E-13</totfact>
</mgrwt>
</event>
<event>
 4    1  0.4882314E-019  0.1490208E+02  0.7818608E-02  0.1871071E+00
          2   -1    0    0  501    0  0.00000000000E+00  0.00000000000E+00  0.11989366336E+03  0.11989366339E+03  0.25500000000E-02 0. -1.
         -2   -1    0    0    0  501 -0.00000000000E+00 -0.00000000000E+00 -0.46305654849E+00  0.46306356972E+00  0.25500000000E-02 0.  1.
         31    1    1    2    0    0  0.79043188068E-02  0.20852519394E+00  0.58709824986E+02  0.59180622007E+02  0.74470750000E+01 0. -1.
        -31    1    1    2    0    0 -0.79043188068E-02 -0.20852519394E+00  0.60720781827E+02  0.61176104951E+02  0.74470750000E+01 0. -1.
<mgrwt>
<rscale>  0 0.14902076E+02</rscale>
<asrwt>0</asrwt>
<pdfrwt beam="1">  1        2 0.99519363E+00 0.14902076E+02</pdfrwt>
<pdfrwt beam="2">  1       -2 0.98353624E+00 0.14902076E+02</pdfrwt>
<totfact> 0.69094347E-13</totfact>
</mgrwt>
</event>
<event>
 4    1 -0.4882314E-019  0.1498363E+02  0.7818608E-02  0.1868569E+00
         -2   -1    0    0    0  501 -0.00000000000E+00  0.00000000000E+00  0.11964938913E+03  0.11964938916E+03  0.25500000000E-02 0.  1.
          2   -1    0    0  501    0  0.00000000000E+00 -0.00000000000E+00 -0.46909428604E+00  0.46910121690E+00  0.25500000000E-02 0. -1.
         31    1    1    2    0    0  0.70597221222E+00 -0.36455960645E+00  0.61132933719E+02  0.61589981423E+02  0.74470750000E+01 0.  1.
        -31    1    1    2    0    0 -0.70597221222E+00  0.36455960645E+00  0.58047361123E+02  0.58528508950E+02  0.74470750000E+01 0.  1.
<mgrwt>
<rscale>  0 0.14983626E+02</rscale>
<asrwt>0</asrwt>
<pdfrwt beam="2">  1        2 0.99630235E+00 0.14983626E+02</pdfrwt>
<pdfrwt beam="1">  1       -2 0.99322372E+00 0.14983626E+02</pdfrwt>
<totfact>-0.90686135E-14</totfact>
</mgrwt>
</event>
<event>
 4    1 -0.4882314E-019  0.1492619E+02  0.7818608E-02  0.1870329E+00
         -2   -1    0    0    0  501 -0.00000000000E+00  0.00000000000E+00  0.11976328208E+03  0.11976328211E+03  0.25500000000E-02 0.  1.
          2   -1    0    0  501    0  0.00000000000E+00 -0.00000000000E+00 -0.46506198098E+00  0.46506897193E+00  0.25500000000E-02 0. -1.
         31    1    1    2    0    0  0.28725861782E+00  0.20089022364E+00  0.62392149367E+02  0.62835993690E+02  0.74470750000E+01 0.  1.
        -31    1    1    2    0    0 -0.28725861782E+00 -0.20089022364E+00  0.56906070734E+02  0.57392357390E+02  0.74470750000E+01 0. -1.
<mgrwt>
<rscale>  0 0.14926188E+02</rscale>
<asrwt>0</asrwt>
<pdfrwt beam="2">  1        2 0.98777512E+00 0.14926188E+02</pdfrwt>
<pdfrwt beam="1">  1       -2 0.99413213E+00 0.14926188E+02</pdfrwt>
<totfact>-0.22669360E-13</totfact>
</mgrwt>
</event>
<event>
 4    1  0.4882314E-019  0.1491326E+02  0.7818608E-02  0.1870727E+00
          2   -1    0    0  501    0  0.00000000000E+00  0.00000000000E+00  0.12045086166E+03  0.12045086168E+03  0.25500000000E-02 0.  1.
         -2   -1    0    0    0  501 -0.00000000000E+00 -0.00000000000E+00 -0.46160643305E+00  0.46161347634E+00  0.25500000000E-02 0. -1.
         31    1    1    2    0    0 -0.21845016680E+00 -0.19100885010E+00  0.58038849752E+02  0.58515392945E+02  0.74470750000E+01 0. -1.
        -31    1    1    2    0    0  0.21845016680E+00  0.19100885010E+00  0.61950405471E+02  0.62397082215E+02  0.74470750000E+01 0.  1.
<mgrwt>
<rscale>  0 0.14913259E+02</rscale>
<asrwt>0</asrwt>
<pdfrwt beam="1">  1        2 0.99978894E+00 0.14913259E+02</pdfrwt>
<pdfrwt beam="2">  1       -2 0.98048544E+00 0.14913259E+02</pdfrwt>
<totfact> 0.91949543E-14</totfact>
</mgrwt>
</event>
<event>
 4    1 -0.4882314E-019  0.1492548E+02  0.7818608E-02  0.1870351E+00
         -2   -1    0    0    0  501 -0.00000000000E+00  0.00000000000E+00  0.11995843745E+03  0.11995843747E+03  0.25500000000E-02 0.  1.
          2   -1    0    0  501    0  0.00000000000E+00 -0.00000000000E+00 -0.46426152317E+00  0.46426852618E+00  0.25500000000E-02 0. -1.
         31    1    1    2    0    0 -0.20863499261E+00  0.38921413382E+00  0.61331591099E+02  0.61783638683E+02  0.74470750000E+01 0. -1.
        -31    1    1    2    0    0  0.20863499261E+00 -0.38921413382E+00  0.58162584825E+02  0.58639067317E+02  0.74470750000E+01 0.  1.
<mgrwt>
<rscale>  0 0.14925483E+02</rscale>
<asrwt>0</asrwt>
<pdfrwt beam="2">  1        2 0.98608776E+00 0.14925483E+02</pdfrwt>
<pdfrwt beam="1">  1       -2 0.99573919E+00 0.14925483E+02</pdfrwt>
<totfact>-0.28130080E-13</totfact>
</mgrwt>
</event>
<event>
 4    1 -0.4882314E-019  0.1501800E+02  0.7818608E-02  0.1867520E+00
         -2   -1    0    0    0  501 -0.00000000000E+00  0.00000000000E+00  0.11991409909E+03  0.11991409911E+03  0.25500000000E-02 0.  1.
          2   -1    0    0  501    0  0.00000000000E+00 -0.00000000000E+00 -0.47020856088E+00  0.47021547531E+00  0.25500000000E-02 0. -1.
         31    1    1    2    0    0  0.63287937350E+00  0.55825614066E+00  0.63429652533E+02  0.63870900516E+02  0.74470750000E+01 0.  1.
        -31    1    1    2    0    0 -0.63287937350E+00 -0.55825614066E+00  0.56014237992E+02  0.56513414072E+02  0.74470750000E+01 0. -1.
<mgrwt>
<rscale>  0 0.15017996E+02</rscale>
<asrwt>0</asrwt>
<pdfrwt beam="2">  1        2 0.99866827E+00 0.15017996E+02</pdfrwt>
<pdfrwt beam="1">  1       -2 0.99542174E+00 0.15017996E+02</pdfrwt>
<totfact>-0.46197373E-14</totfact>
</mgrwt>
</event>
<event>
 4    1 -0.4882314E-019  0.1497775E+02  0.7818608E-02  0.1868748E+00
         -2   -1    0    0    0  501 -0.00000000000E+00  0.00000000000E+00  0.11983106571E+03  0.11983106573E+03  0.25500000000E-02 0. -1.
          2   -1    0    0  501    0  0.00000000000E+00 -0.00000000000E+00 -0.46801605875E+00  0.46802300558E+00  0.25500000000E-02 0.  1.
         31    1    1    2    0    0 -0.11867415920E+00 -0.72426125225E+00  0.57329980590E+02  0.57816297343E+02  0.74470750000E+01 0.  1.
        -31    1    1    2    0    0  0.11867415920E+00  0.72426125225E+00  0.62033069059E+02  0.62482791397E+02  0.74470750000E+01 0. -1.
<mgrwt>
<rscale>  0 0.14977755E+02</rscale>
<asrwt>0</asrwt>
<pdfrwt beam="2">  1        2 0.99402715E+00 0.14977755E+02</pdfrwt>
<pdfrwt beam="1">  1       -2 0.99471703E+00 0.14977755E+02</pdfrwt>
<totfact>-0.13065078E-13</totfact>
</mgrwt>
</event>
<event>
 4    1  0.4882314E-019  0.1491888E+02  0.7818608E-02  0.1870554E+00
          2   -1    0    0  501    0  0.00000000000E+00  0.00000000000E+00  0.12003157275E+03  0.12003157278E+03  0.25500000000E-02 0. -1.
         -2   -1    0    0    0  501 -0.00000000000E+00 -0.00000000000E+00 -0.46356818305E+00  0.46357519653E+00  0.25500000000E-02 0.  1.
         31    1    1    2    0    0 -0.30343316556E-01  0.31780005296E+00  0.57465575839E+02  0.57946986549E+02  0.74470750000E+01 0.  1.
        -31    1    1    2    0    0  0.30343316556E-01 -0.31780005296E+00  0.62102428732E+02  0.62548161428E+02  0.74470750000E+01 0. -1.
<mgrwt>
<rscale>  0 0.14918880E+02</rscale>
<asrwt>0</asrwt>
<pdfrwt beam="1">  1        2 0.99633819E+00 0.14918880E+02</pdfrwt>
<pdfrwt beam="2">  1       -2 0.98462311E+00 0.14918880E+02</pdfrwt>
<totfact> 0.45135283E-13</totfact>
</mgrwt>
</event>
<event>
 4    1  0.4882314E-019  0.1491884E+02  0.7818608E-02  0.1870555E+00
          2   -1    0    0  501    0  0.00000000000E+00  0.00000000000E+00  0.11986273334E+03  0.11986273337E+03  0.25500000000E-02 0.  1.
         -2   -1    0    0    0  501 -0.00000000000E+00 -0.00000000000E+00 -0.46421861338E+00  0.46422561703E+00  0.25500000000E-02 0. -1.
         31    1    1    2    0    0 -0.17766479055E+00  0.36071158598E+00  0.60904525837E+02  0.61359448100E+02  0.74470750000E+01 0.  1.
        -31    1    1    2    0    0  0.17766479055E+00 -0.36071158598E+00  0.58493988894E+02  0.58967510888E+02  0.74470750000E+01 0. -1.
<mgrwt>
<rscale>  0 0.14918838E+02</rscale>
<asrwt>0</asrwt>
<pdfrwt beam="1">  1        2 0.99494749E+00 0.14918838E+02</pdfrwt>
<pdfrwt beam="2">  1       -2 0.98599394E+00 0.14918838E+02</pdfrwt>
<totfact> 0.35929037E-13</totfact>
</mgrwt>
</event>
<event>
 4    1 -0.4882314E-019  0.1493077E+02  0.7818608E-02  0.1870188E+00
         -2   -1    0    0    0  501 -0.00000000000E+00  0.00000000000E+00  0.11983280165E+03  0.11983280168E+03  0.25500000000E-02 0.  1.
          2   -1    0    0  501    0  0.00000000000E+00 -0.00000000000E+00 -0.46507782666E+00  0.46508481738E+00  0.25500000000E-02 0. -1.
         31    1    1    2    0    0 -0.88070592087E-01 -0.37841147966E+00  0.56868235589E+02  0.57355087802E+02  0.74470750000E+01 0.  1.
        -31    1    1    2    0    0  0.88070592087E-01  0.37841147966E+00  0.62499488236E+02  0.62942798694E+02  0.74470750000E+01 0.  1.
<mgrwt>
<rscale>  0 0.14930774E+02</rscale>
<asrwt>0</asrwt>
<pdfrwt beam="2">  1        2 0.98781086E+00 0.14930774E+02</pdfrwt>
<pdfrwt beam="1">  1       -2 0.99470709E+00 0.14930774E+02</pdfrwt>
<totfact>-0.22931361E-13</totfact>
</mgrwt>
</event>
<event>
 4    1  0.4882314E-019  0.1491483E+02  0.7818608E-02  0.1870679E+00
         -2   -1    0    0    0  501 -0.00000000000E+00  0.00000000000E+00  0.11867181370E+03  0.11867181372E+03  0.25500000000E-02 0.  1.
          2   -1    0    0  501    0  0.00000000000E+00 -0.00000000000E+00 -0.46862510136E+00  0.46863203915E+00  0.25500000000E-02 0. -1.
         31    1    1    2    0    0  0.36723906300E+00  0.10693495260E+00  0.58397014752E+02  0.58871186141E+02  0.74470750000E+01 0. -1.
        -31    1    1    2    0    0 -0.36723906300E+00 -0.10693495260E+00  0.59806173844E+02  0.60269259623E+02  0.74470750000E+01 0.  1.
<mgrwt>
<rscale>  0 0.14914826E+02</rscale>
<asrwt>0</asrwt>
<pdfrwt beam="2">  1        2 0.99527777E+00 0.14914826E+02</pdfrwt>
<pdfrwt beam="1">  1       -2 0.98513656E+00 0.14914826E+02</pdfrwt>
<totfact> 0.45250301E-13</totfact>
</mgrwt>
</event>
<event>
 4    1 -0.4882314E-019  0.1500238E+02  0.7818608E-02  0.1867996E+00
         -2   -1    0    0    0  501 -0.00000000000E+00  0.00000000000E+00  0.11990554239E+03  0.11990554242E+03  0.25500000000E-02 0. -1.
          2   -1    0    0  501    0  0.00000000000E+00 -0.00000000000E+00 -0.46926442047E+00  0.46927134881E+00  0.25500000000E-02 0.  1.
         31    1    1    2    0    0  0.60720886177E+00 -0.82996015116E-01  0.64999832226E+02  0.65427919930E+02  0.74470750000E+01 0.  1.
        -31    1    1    2    0    0 -0.60720886177E+00  0.82996015116E-01  0.54436445743E+02  0.54946893835E+02  0.74470750000E+01 0.  1.
<mgrwt>
<rscale>  0 0.15002376E+02</rscale>
<asrwt>0</asrwt>
<pdfrwt beam="2">  1        2 0.99667060E+00 0.15002376E+02</pdfrwt>
<pdfrwt beam="1">  1       -2 0.99534318E+00 0.15002376E+02</pdfrwt>
<totfact>-0.93157995E-14</totfact>
</mgrwt>
</event>
<event>
 4    1 -0.4882314E-019  0.1491729E+02  0.7818608E-02  0.1870603E+00
          2   -1    0    0  501    0  0.00000000000E+00  0.00000000000E+00  0.11857147180E+03  0.11857147183E+03  0.25500000000E-02 0.  1.
         -2   -1    0    0    0  501 -0.00000000000E+00 -0.00000000000E+00 -0.46917684885E+00  0.46918377849E+00  0.25500000000E-02 0. -1.
         31    1    1    2    0    0  0.35692184520E+00 -0.18891515778E+00  0.59824651910E+02  0.60287734941E+02  0.74470750000E+01 0.  1.
        -31    1    1    2    0    0 -0.35692184520E+00  0.18891515778E+00  0.58277643043E+02  0.58752920667E+02  0.74470750000E+01 0.  1.
<mgrwt>
<rscale>  0 0.14917292E+02</rscale>
<asrwt>0</asrwt>
<pdfrwt beam="1">  1        2 0.98431143E+00 0.14917292E+02</pdfrwt>
<pdfrwt beam="2">  1       -2 0.99644163E+00 0.14917292E+02</pdfrwt>
<totfact>-0.34458521E-13</totfact>
</mgrwt>
</event>
<event>
 4    1 -0.4882314E-019  0.1497985E+02  0.7818608E-02  0.1868684E+00
          2   -1    0    0  501    0  0.00000000000E+00  0.00000000000E+00  0.11928061988E+03  0.11928061991E+03  0.25500000000E-02 0.  1.
         -2   -1    0    0    0  501 -0.00000000000E+00 -0.00000000000E+00 -0.47030767285E+00  0.47031458582E+00  0.25500000000E-02 0. -1.
         31    1    1    2    0    0  0.61187212396E+00  0.24379551978E+00  0.63035728898E+02  0.63477522537E+02  0.74470750000E+01 0.  1.
        -31    1    1    2    0    0 -0.61187212396E+00 -0.24379551978E+00  0.55774583313E+02  0.56273411959E+02  0.74470750000E+01 0. -1.
<mgrwt>
<rscale>  0 0.14979854E+02</rscale>
<asrwt>0</asrwt>
<pdfrwt beam="1">  1        2 0.99018451E+00 0.14979854E+02</pdfrwt>
<pdfrwt beam="2">  1       -2 0.99885722E+00 0.14979854E+02</pdfrwt>
<totfact>-0.64446497E-14</totfact>
</mgrwt>
</event>
<event>
 4    1 -0.4882314E-019  0.1497938E+02  0.7818608E-02  0.1868698E+00
          2   -1    0    0  501    0  0.00000000000E+00  0.00000000000E+00  0.12003422822E+03  0.12003422825E+03  0.25500000000E-02 0.  1.
         -2   -1    0    0    0  501 -0.00000000000E+00 -0.00000000000E+00 -0.46732535729E+00  0.46733231438E+00  0.25500000000E-02 0. -1.
         31    1    1    2    0    0  0.68252507316E+00  0.23512603148E+00  0.57050588017E+02  0.57539114034E+02  0.74470750000E+01 0. -1.
        -31    1    1    2    0    0 -0.68252507316E+00 -0.23512603148E+00  0.62516314847E+02  0.62962446528E+02  0.74470750000E+01 0.  1.
<mgrwt>
<rscale>  0 0.14979380E+02</rscale>
<asrwt>0</asrwt>
<pdfrwt beam="1">  1        2 0.99639121E+00 0.14979380E+02</pdfrwt>
<pdfrwt beam="2">  1       -2 0.99257240E+00 0.14979380E+02</pdfrwt>
<totfact>-0.78493857E-14</totfact>
</mgrwt>
</event>
<event>
 4    1 -0.4882314E-019  0.1497582E+02  0.7818608E-02  0.1868807E+00
          2   -1    0    0  501    0  0.00000000000E+00  0.00000000000E+00  0.11940310120E+03  0.11940310122E+03  0.25500000000E-02 0.  1.
         -2   -1    0    0    0  501 -0.00000000000E+00 -0.00000000000E+00 -0.46957210468E+00  0.46957902848E+00  0.25500000000E-02 0. -1.
         31    1    1    2    0    0  0.85283099437E-01  0.53486012544E+00  0.63969969227E+02  0.64404264126E+02  0.74470750000E+01 0. -1.
        -31    1    1    2    0    0 -0.85283099437E-01 -0.53486012544E+00  0.54963559865E+02  0.55468416127E+02  0.74470750000E+01 0. -1.
<mgrwt>
<rscale>  0 0.14975818E+02</rscale>
<asrwt>0</asrwt>
<pdfrwt beam="1">  1        2 0.99119119E+00 0.14975818E+02</pdfrwt>
<pdfrwt beam="2">  1       -2 0.99730516E+00 0.14975818E+02</pdfrwt>
<totfact>-0.11993934E-13</totfact>
</mgrwt>
</event>
<event>
 4    1 -0.4882314E-019  0.1500934E+02  0.7818608E-02  0.1867784E+00
          2   -1    0    0  501    0  0.00000000000E+00  0.00000000000E+00  0.12024158066E+03  0.12024158068E+03  0.25500000000E-02 0. -1.
         -2   -1    0    0    0  501 -0.00000000000E+00 -0.00000000000E+00 -0.46838730088E+00  0.46839424220E+00  0.25500000000E-02 0.  1.
         31    1    1    2    0    0 -0.79455781031E+00  0.26378660952E-01  0.56037136158E+02  0.56535401058E+02  0.74470750000E+01 0.  1.
        -31    1    1    2    0    0  0.79455781031E+00 -0.26378660952E-01  0.63736057199E+02  0.64174573869E+02  0.74470750000E+01 0.  1.
<mgrwt>
<rscale>  0 0.15009337E+02</rscale>
<asrwt>0</asrwt>
<pdfrwt beam="1">  1        2 0.99811453E+00 0.15009337E+02</pdfrwt>
<pdfrwt beam="2">  1       -2 0.99482578E+00 0.15009337E+02</pdfrwt>
<totfact>-0.62679852E-14</totfact>
</mgrwt>
</event>
<event>
 4    1 -0.4882314E-019  0.1492317E+02  0.7818608E-02  0.1870422E+00
          2   -1    0    0  501    0  0.00000000000E+00  0.00000000000E+00  0.11905395492E+03  0.11905395495E+03  0.25500000000E-02 0.  1.
         -2   -1    0    0    0  501 -0.00000000000E+00 -0.00000000000E+00 -0.46764350943E+00  0.46765046179E+00  0.25500000000E-02 0. -1.
         31    1    1    2    0    0  0.34328420272E+00  0.50152081304E-01  0.61773932586E+02  0.62222166729E+02  0.74470750000E+01 0.  1.
        -31    1    1    2    0    0 -0.34328420272E+00 -0.50152081304E-01  0.56812378825E+02  0.57299438680E+02  0.74470750000E+01 0. -1.
<mgrwt>
<rscale>  0 0.14923167E+02</rscale>
<asrwt>0</asrwt>
<pdfrwt beam="1">  1        2 0.98828826E+00 0.14923167E+02</pdfrwt>
<pdfrwt beam="2">  1       -2 0.99321377E+00 0.14923167E+02</pdfrwt>
<totfact>-0.19363348E-13</totfact>
</mgrwt>
</event>
<event>
 4    1 -0.4882314E-019  0.1493739E+02  0.7818608E-02  0.1869985E+00
          2   -1    0    0  501    0  0.00000000000E+00  0.00000000000E+00  0.11860406316E+03  0.11860406318E+03  0.25500000000E-02 0. -1.
         -2   -1    0    0    0  501 -0.00000000000E+00 -0.00000000000E+00 -0.47031294079E+00  0.47031985369E+00  0.25500000000E-02 0.  1.
         31    1    1    2    0    0 -0.40648015398E-01 -0.14540460117E+00  0.63431028340E+02  0.63866869949E+02  0.74470750000E+01 0. -1.
        -31    1    1    2    0    0  0.40648015398E-01  0.14540460117E+00  0.54702721875E+02  0.55207513088E+02  0.74470750000E+01 0.  1.
<mgrwt>
<rscale>  0 0.14937395E+02</rscale>
<asrwt>0</asrwt>
<pdfrwt beam="1">  1        2 0.98459031E+00 0.14937395E+02</pdfrwt>
<pdfrwt beam="2">  1       -2 0.99884599E+00 0.14937395E+02</pdfrwt>
<totfact>-0.13744375E-13</totfact>
</mgrwt>
</event>
<event>
 4    1  0.4882314E-019  0.1490185E+02  0.7818608E-02  0.1871078E+00
          2   -1    0    0  501    0  0.00000000000E+00  0.00000000000E+00  0.11960737440E+03  0.11960737443E+03  0.25500000000E-02 0.  1.
         -2   -1    0    0    0  501 -0.00000000000E+00 -0.00000000000E+00 -0.46415105654E+00  0.46415806121E+00  0.25500000000E-02 0. -1.
         31    1    1    2    0    0  0.13413260212E+00  0.19847511998E+00  0.59562151909E+02  0.60026379618E+02  0.74470750000E+01 0.  1.
        -31    1    1    2    0    0 -0.13413260212E+00 -0.19847511998E+00  0.59581071439E+02  0.60045152875E+02  0.74470750000E+01 0. -1.
<mgrwt>
<rscale>  0 0.14901854E+02</rscale>
<asrwt>0</asrwt>
<pdfrwt beam="1">  1        2 0.99283544E+00 0.14901854E+02</pdfrwt>
<pdfrwt beam="2">  1       -2 0.98584289E+00 0.14901854E+02</pdfrwt>
<totfact> 0.44882118E-13</totfact>
</mgrwt>
</event>
<event>
 4    1 -0.4882314E-019  0.1489932E+02  0.7818608E-02  0.1871156E+00
         -2   -1    0    0    0  501 -0.00000000000E+00  0.00000000000E+00  0.12006096700E+03  0.12006096703E+03  0.25500000000E-02 0.  1.
          2   -1    0    0  501    0  0.00000000000E+00 -0.00000000000E+00 -0.46224006347E+00  0.46224709709E+00  0.25500000000E-02 0. -1.
         31    1    1    2    0    0 -0.19229955919E+00  0.21107947116E-01  0.60063196568E+02  0.60523416400E+02  0.74470750000E+01 0. -1.
        -31    1    1    2    0    0  0.19229955919E+00 -0.21107947116E-01  0.59535530371E+02  0.59999797727E+02  0.74470750000E+01 0.  1.
<mgrwt>
<rscale>  0 0.14899317E+02</rscale>
<asrwt>0</asrwt>
<pdfrwt beam="2">  1        2 0.98181396E+00 0.14899317E+02</pdfrwt>
<pdfrwt beam="1">  1       -2 0.99657026E+00 0.14899317E+02</pdfrwt>
<totfact>-0.51414023E-13</totfact>
</mgrwt>
</event>
<event>
 4    1 -0.4882314E-019  0.1490650E+02  0.7818608E-02  0.1870935E+00
         -2   -1    0    0    0  501 -0.00000000000E+00  0.00000000000E+00  0.11991636846E+03  0.11991636849E+03  0.25500000000E-02 0.  1.
          2   -1    0    0  501    0  0.00000000000E+00 -0.00000000000E+00 -0.46324386191E+00  0.46325088030E+00  0.25500000000E-02 0. -1.
         31    1    1    2    0    0 -0.25427284434E+00  0.13821476345E+00  0.58992537887E+02  0.59461434648E+02  0.74470750000E+01 0. -1.
        -31    1    1    2    0    0  0.25427284434E+00 -0.13821476345E+00  0.60460586715E+02  0.60918184724E+02  0.74470750000E+01 0.  1.
<mgrwt>
<rscale>  0 0.14906501E+02</rscale>
<asrwt>0</asrwt>
<pdfrwt beam="2">  1        2 0.98393328E+00 0.14906501E+02</pdfrwt>
<pdfrwt beam="1">  1       -2 0.99538292E+00 0.14906501E+02</pdfrwt>
<totfact>-0.40800625E-13</totfact>
</mgrwt>
</event>
<event>
 4    1  0.4882314E-019  0.1490683E+02  0.7818608E-02  0.1870925E+00
         -2   -1    0    0    0  501 -0.00000000000E+00  0.00000000000E+00  0.11860445069E+03  0.11860445072E+03  0.25500000000E-02 0. -1.
          2   -1    0    0  501    0  0.00000000000E+00 -0.00000000000E+00 -0.46838848139E+00  0.46839542269E+00  0.25500000000E-02 0.  1.
         31    1    1    2    0    0 -0.12936258828E+00  0.26552111117E+00  0.58389714318E+02  0.58863442818E+02  0.74470750000E+01 0.  1.
        -31    1    1    2    0    0  0.12936258828E+00 -0.26552111117E+00  0.59746347892E+02  0.60209403324E+02  0.74470750000E+01 0.  1.
<mgrwt>
<rscale>  0 0.14906827E+02</rscale>
<asrwt>0</asrwt>
<pdfrwt beam="2">  1        2 0.99477499E+00 0.14906827E+02</pdfrwt>
<pdfrwt beam="1">  1       -2 0.98457760E+00 0.14906827E+02</pdfrwt>
<totfact> 0.55670793E-13</totfact>
</mgrwt>
</event>
<event>
 4    1 -0.4882314E-019  0.1493449E+02  0.7818608E-02  0.1870074E+00
          2   -1    0    0  501    0  0.00000000000E+00  0.00000000000E+00  0.11913055750E+03  0.11913055753E+03  0.25500000000E-02 0.  1.
         -2   -1    0    0    0  501 -0.00000000000E+00 -0.00000000000E+00 -0.46805260494E+00  0.46805955122E+00  0.25500000000E-02 0. -1.
         31    1    1    2    0    0  0.26405720939E+00  0.32456614391E+00  0.62171508698E+02  0.62617333776E+02  0.74470750000E+01 0.  1.
        -31    1    1    2    0    0 -0.26405720939E+00 -0.32456614391E+00  0.56490996195E+02  0.56981283300E+02  0.74470750000E+01 0. -1.
<mgrwt>
<rscale>  0 0.14934495E+02</rscale>
<asrwt>0</asrwt>
<pdfrwt beam="1">  1        2 0.98892504E+00 0.14934495E+02</pdfrwt>
<pdfrwt beam="2">  1       -2 0.99408172E+00 0.14934495E+02</pdfrwt>
<totfact>-0.19642638E-13</totfact>
</mgrwt>
</event>
<event>
 4    1 -0.4882314E-019  0.1502961E+02  0.7818608E-02  0.1867166E+00
          2   -1    0    0  501    0  0.00000000000E+00  0.00000000000E+00  0.12015930057E+03  0.12015930060E+03  0.25500000000E-02 0. -1.
         -2   -1    0    0    0  501 -0.00000000000E+00 -0.00000000000E+00 -0.46997486611E+00  0.46998178398E+00  0.25500000000E-02 0.  1.
         31    1    1    2    0    0 -0.75956027813E+00 -0.48275239908E+00  0.63464094486E+02  0.63905869813E+02  0.74470750000E+01 0. -1.
        -31    1    1    2    0    0  0.75956027813E+00  0.48275239908E+00  0.56225231220E+02  0.56723412569E+02  0.74470750000E+01 0.  1.
<mgrwt>
<rscale>  0 0.15029607E+02</rscale>
<asrwt>0</asrwt>
<pdfrwt beam="1">  1        2 0.99744731E+00 0.15029607E+02</pdfrwt>
<pdfrwt beam="2">  1       -2 0.99818183E+00 0.15029607E+02</pdfrwt>
<totfact>-0.43274076E-14</totfact>
</mgrwt>
</event>
<event>
 4    1 -0.4882314E-019  0.1492847E+02  0.7818608E-02  0.1870259E+00
          2   -1    0    0  501    0  0.00000000000E+00  0.00000000000E+00  0.11893626458E+03  0.11893626461E+03  0.25500000000E-02 0.  1.
         -2   -1    0    0    0  501 -0.00000000000E+00 -0.00000000000E+00 -0.46843903620E+00  0.46844597676E+00  0.25500000000E-02 0. -1.
         31    1    1    2    0    0  0.63758004848E-01  0.29240175815E+00  0.62495824142E+02  0.62938672731E+02  0.74470750000E+01 0.  1.
        -31    1    1    2    0    0 -0.63758004848E-01 -0.29240175815E+00  0.55972001402E+02  0.56466037854E+02  0.74470750000E+01 0. -1.
<mgrwt>
<rscale>  0 0.14928470E+02</rscale>
<asrwt>0</asrwt>
<pdfrwt beam="1">  1        2 0.98732169E+00 0.14928470E+02</pdfrwt>
<pdfrwt beam="2">  1       -2 0.99489286E+00 0.14928470E+02</pdfrwt>
<totfact>-0.24467996E-13</totfact>
</mgrwt>
</event>
<event>
 4    1 -0.4882314E-019  0.1498600E+02  0.7818608E-02  0.1868496E+00
          2   -1    0    0  501    0  0.00000000000E+00  0.00000000000E+00  0.11989910574E+03  0.11989910576E+03  0.25500000000E-02 0. -1.
         -2   -1    0    0    0  501 -0.00000000000E+00 -0.00000000000E+00 -0.46826541105E+00  0.46827235417E+00  0.25500000000E-02 0.  1.
         31    1    1    2    0    0 -0.54590249100E+00  0.16588770128E+00  0.54892417613E+02  0.55398212659E+02  0.74470750000E+01 0. -1.
        -31    1    1    2    0    0  0.54590249100E+00 -0.16588770128E+00  0.64538422712E+02  0.64969165460E+02  0.74470750000E+01 0. -1.
<mgrwt>
<rscale>  0 0.14985997E+02</rscale>
<asrwt>0</asrwt>
<pdfrwt beam="1">  1        2 0.99528170E+00 0.14985997E+02</pdfrwt>
<pdfrwt beam="2">  1       -2 0.99455688E+00 0.14985997E+02</pdfrwt>
<totfact>-0.11583097E-13</totfact>
</mgrwt>
</event>
<event>
 4    1 -0.4882314E-019  0.1500651E+02  0.7818608E-02  0.1867870E+00
          2   -1    0    0  501    0  0.00000000000E+00  0.00000000000E+00  0.12015263388E+03  0.12015263391E+03  0.25500000000E-02 0. -1.
         -2   -1    0    0    0  501 -0.00000000000E+00 -0.00000000000E+00 -0.46855760576E+00  0.46856454455E+00  0.25500000000E-02 0.  1.
         31    1    1    2    0    0  0.25614766011E+00  0.46075892506E+00  0.53816199642E+02  0.54331576274E+02  0.74470750000E+01 0. -1.
        -31    1    1    2    0    0 -0.25614766011E+00 -0.46075892506E+00  0.65867876635E+02  0.66289622181E+02  0.74470750000E+01 0. -1.
<mgrwt>
<rscale>  0 0.15006512E+02</rscale>
<asrwt>0</asrwt>
<pdfrwt beam="1">  1        2 0.99738046E+00 0.15006512E+02</pdfrwt>
<pdfrwt beam="2">  1       -2 0.99518322E+00 0.15006512E+02</pdfrwt>
<totfact>-0.79709222E-14</totfact>
</mgrwt>
</event>
<event>
 4    1 -0.4882314E-019  0.1494306E+02  0.7818608E-02  0.1869811E+00
         -2   -1    0    0    0  501 -0.00000000000E+00  0.00000000000E+00  0.12011394439E+03  0.12011394441E+03  0.25500000000E-02 0. -1.
          2   -1    0    0  501    0  0.00000000000E+00 -0.00000000000E+00 -0.46475288815E+00  0.46475988375E+00  0.25500000000E-02 0.  1.
         31    1    1    2    0    0  0.54302009565E-01  0.32783691039E+00  0.55754846104E+02  0.56250975244E+02  0.74470750000E+01 0.  1.
        -31    1    1    2    0    0 -0.54302009565E-01 -0.32783691039E+00  0.63894345395E+02  0.64327729054E+02  0.74470750000E+01 0. -1.
<mgrwt>
<rscale>  0 0.14943055E+02</rscale>
<asrwt>0</asrwt>
<pdfrwt beam="2">  1        2 0.98713230E+00 0.14943055E+02</pdfrwt>
<pdfrwt beam="1">  1       -2 0.99702909E+00 0.14943055E+02</pdfrwt>
<totfact>-0.19959821E-13</totfact>
</mgrwt>
</event>
<event>
 4    1  0.4882314E-019  0.1493782E+02  0.7818608E-02  0.1869972E+00
          2   -1    0    0  501    0  0.00000000000E+00  0.00000000000E+00  0.12008152347E+03  0.12008152350E+03  0.25500000000E-02 0. -1.
         -2   -1    0    0    0  501 -0.00000000000E+00 -0.00000000000E+00 -0.46455237962E+00  0.46455937824E+00  0.25500000000E-02 0.  1.
         31    1    1    2    0    0 -0.27916144853E+00 -0.44518811536E+00  0.61604483878E+02  0.62055197070E+02  0.74470750000E+01 0. -1.
        -31    1    1    2    0    0  0.27916144853E+00  0.44518811536E+00  0.58012487217E+02  0.58490885809E+02  0.74470750000E+01 0. -1.
<mgrwt>
<rscale>  0 0.14937815E+02</rscale>
<asrwt>0</asrwt>
<pdfrwt beam="1">  1        2 0.99675936E+00 0.14937815E+02</pdfrwt>
<pdfrwt beam="2">  1       -2 0.98670705E+00 0.14937815E+02</pdfrwt>
<totfact> 0.21484077E-13</totfact>
</mgrwt>
</event>
<event>
 4    1  0.4882314E-019  0.1493652E+02  0.7818608E-02  0.1870012E+00
         -2   -1    0    0    0  501 -0.00000000000E+00  0.00000000000E+00  0.11863261634E+03  0.11863261637E+03  0.25500000000E-02 0. -1.
          2   -1    0    0  501    0  0.00000000000E+00 -0.00000000000E+00 -0.47014498370E+00  0.47015189907E+00  0.25500000000E-02 0.  1.
         31    1    1    2    0    0 -0.33463710473E+00 -0.17808796821E+00  0.55771147416E+02  0.56267428477E+02  0.74470750000E+01 0.  1.
        -31    1    1    2    0    0  0.33463710473E+00  0.17808796821E+00  0.62391323938E+02  0.62835339787E+02  0.74470750000E+01 0. -1.
<mgrwt>
<rscale>  0 0.14936525E+02</rscale>
<asrwt>0</asrwt>
<pdfrwt beam="2">  1        2 0.99849165E+00 0.14936525E+02</pdfrwt>
<pdfrwt beam="1">  1       -2 0.98482502E+00 0.14936525E+02</pdfrwt>
<totfact> 0.22267534E-13</totfact>
</mgrwt>
</event>
<event>
 4    1 -0.4882314E-019  0.1491154E+02  0.7818608E-02  0.1870780E+00
         -2   -1    0    0    0  501 -0.00000000000E+00  0.00000000000E+00  0.11941691410E+03  0.11941691413E+03  0.25500000000E-02 0.  1.
          2   -1    0    0  501    0  0.00000000000E+00 -0.00000000000E+00 -0.46549587996E+00  0.46550286440E+00  0.25500000000E-02 0. -1.
         31    1    1    2    0    0  0.34429919226E+00 -0.33521536394E-01  0.58675373099E+02  0.59147087840E+02  0.74470750000E+01 0. -1.
        -31    1    1    2    0    0 -0.34429919226E+00  0.33521536394E-01  0.60276045119E+02  0.60735329149E+02  0.74470750000E+01 0.  1.
<mgrwt>
<rscale>  0 0.14911539E+02</rscale>
<asrwt>0</asrwt>
<pdfrwt beam="2">  1        2 0.98868202E+00 0.14911539E+02</pdfrwt>
<pdfrwt beam="1">  1       -2 0.99127170E+00 0.14911539E+02</pdfrwt>
<totfact>-0.91468690E-14</totfact>
</mgrwt>
</event>
<event>
 4    1  0.4882314E-019  0.1493267E+02  0.7818608E-02  0.1870130E+00
          2   -1    0    0  501    0  0.00000000000E+00  0.00000000000E+00  0.11976915728E+03  0.11976915731E+03  0.25500000000E-02 0.  1.
         -2   -1    0    0    0  501 -0.00000000000E+00 -0.00000000000E+00 -0.46544286708E+00  0.46544985231E+00  0.25500000000E-02 0. -1.
         31    1    1    2    0    0  0.10243362540E+00 -0.51379071939E+00  0.60560029689E+02  0.61018444716E+02  0.74470750000E+01 0.  1.
        -31    1    1    2    0    0 -0.10243362540E+00  0.51379071939E+00  0.58743684725E+02  0.59216162445E+02  0.74470750000E+01 0.  1.
<mgrwt>
<rscale>  0 0.14932665E+02</rscale>
<asrwt>0</asrwt>
<pdfrwt beam="1">  1        2 0.99418386E+00 0.14932665E+02</pdfrwt>
<pdfrwt beam="2">  1       -2 0.98858115E+00 0.14932665E+02</pdfrwt>
<totfact> 0.11176316E-13</totfact>
</mgrwt>
</event>
<event>
 4    1 -0.4882314E-019  0.1494692E+02  0.7818608E-02  0.1869692E+00
          2   -1    0    0  501    0  0.00000000000E+00  0.00000000000E+00  0.11943215646E+03  0.11943215649E+03  0.25500000000E-02 0. -1.
         -2   -1    0    0    0  501 -0.00000000000E+00 -0.00000000000E+00 -0.46764806940E+00  0.46765502169E+00  0.25500000000E-02 0.  1.
         31    1    1    2    0    0 -0.53658936100E+00  0.31953937665E+00  0.59968623847E+02  0.60432481380E+02  0.74470750000E+01 0. -1.
        -31    1    1    2    0    0  0.53658936100E+00 -0.31953937665E+00  0.58995884546E+02  0.59467330131E+02  0.74470750000E+01 0.  1.
<mgrwt>
<rscale>  0 0.14946924E+02</rscale>
<asrwt>0</asrwt>
<pdfrwt beam="1">  1        2 0.99141553E+00 0.14946924E+02</pdfrwt>
<pdfrwt beam="2">  1       -2 0.99323572E+00 0.14946924E+02</pdfrwt>
<totfact>-0.14269759E-13</totfact>
</mgrwt>
</event>
<event>
 4    1  0.4882314E-019  0.1492896E+02  0.7818608E-02  0.1870244E+00
         -2   -1    0    0    0  501 -0.00000000000E+00  0.00000000000E+00  0.11868318343E+03  0.11868318346E+03  0.25500000000E-02 0. -1.
          2   -1    0    0  501    0  0.00000000000E+00 -0.00000000000E+00 -0.46946849530E+00  0.46947542063E+00  0.25500000000E-02 0.  1.
         31    1    1    2    0    0  0.34497124550E+00 -0.28261487079E+00  0.61072066287E+02  0.61526052067E+02  0.74470750000E+01 0. -1.
        -31    1    1    2    0    0 -0.34497124550E+00  0.28261487079E+00  0.57141648647E+02  0.57626606811E+02  0.74470750000E+01 0.  1.
<mgrwt>
<rscale>  0 0.14928956E+02</rscale>
<asrwt>0</asrwt>
<pdfrwt beam="2">  1        2 0.99706228E+00 0.14928956E+02</pdfrwt>
<pdfrwt beam="1">  1       -2 0.98523755E+00 0.14928956E+02</pdfrwt>
<totfact> 0.32952992E-13</totfact>
</mgrwt>
</event>
<event>
 4    1  0.4882314E-019  0.1489959E+02  0.7818608E-02  0.1871148E+00
          2   -1    0    0  501    0  0.00000000000E+00  0.00000000000E+00  0.12026272710E+03  0.12026272713E+03  0.25500000000E-02 0.  1.
         -2   -1    0    0    0  501 -0.00000000000E+00 -0.00000000000E+00 -0.46148160923E+00  0.46148865441E+00  0.25500000000E-02 0. -1.
         31    1    1    2    0    0 -0.14625344028E+00 -0.13669187986E+00  0.60074955285E+02  0.60535107609E+02  0.74470750000E+01 0. -1.
        -31    1    1    2    0    0  0.14625344028E+00  0.13669187986E+00  0.59726290206E+02  0.60189108172E+02  0.74470750000E+01 0. -1.
<mgrwt>
<rscale>  0 0.14899592E+02</rscale>
<asrwt>0</asrwt>
<pdfrwt beam="1">  1        2 0.99823228E+00 0.14899592E+02</pdfrwt>
<pdfrwt beam="2">  1       -2 0.98021547E+00 0.14899592E+02</pdfrwt>
<totfact> 0.67922453E-13</totfact>
</mgrwt>
</event>
<event>
 4    1 -0.4882314E-019  0.1495803E+02  0.7818608E-02  0.1869352E+00
          2   -1    0    0  501    0  0.00000000000E+00  0.00000000000E+00  0.11933847015E+03  0.11933847017E+03  0.25500000000E-02 0. -1.
         -2   -1    0    0    0  501 -0.00000000000E+00 -0.00000000000E+00 -0.46871081173E+00  0.46871774826E+00  0.25500000000E-02 0.  1.
         31    1    1    2    0    0 -0.44649090883E+00 -0.14782186730E-01  0.55218247463E+02  0.55719954699E+02  0.74470750000E+01 0.  1.
        -31    1    1    2    0    0  0.44649090883E+00  0.14782186730E-01  0.63651511871E+02  0.64087233222E+02  0.74470750000E+01 0. -1.
<mgrwt>
<rscale>  0 0.14958028E+02</rscale>
<asrwt>0</asrwt>
<pdfrwt beam="1">  1        2 0.99064965E+00 0.14958028E+02</pdfrwt>
<pdfrwt beam="2">  1       -2 0.99548096E+00 0.14958028E+02</pdfrwt>
<totfact>-0.16503152E-13</totfact>
</mgrwt>
</event>
<event>
 4    1  0.4882314E-019  0.1491561E+02  0.7818608E-02  0.1870655E+00
         -2   -1    0    0    0  501 -0.00000000000E+00  0.00000000000E+00  0.11841439122E+03  0.11841439125E+03  0.25500000000E-02 0.  1.
          2   -1    0    0  501    0  0.00000000000E+00 -0.00000000000E+00 -0.46969349112E+00  0.46970041314E+00  0.25500000000E-02 0. -1.
         31    1    1    2    0    0  0.22270008980E-01 -0.24020105554E+00  0.61514950443E+02  0.61964556373E+02  0.74470750000E+01 0.  1.
        -31    1    1    2    0    0 -0.22270008980E-01  0.24020105554E+00  0.56429747288E+02  0.56919535290E+02  0.74470750000E+01 0. -1.
<mgrwt>
<rscale>  0 0.14915614E+02</rscale>
<asrwt>0</asrwt>
<pdfrwt beam="2">  1        2 0.99752932E+00 0.14915614E+02</pdfrwt>
<pdfrwt beam="1">  1       -2 0.98301685E+00 0.14915614E+02</pdfrwt>
<totfact> 0.51110234E-13</totfact>
</mgrwt>
</event>
<event>
 4    1  0.4882314E-019  0.1493430E+02  0.7818608E-02  0.1870080E+00
         -2   -1    0    0    0  501 -0.00000000000E+00  0.00000000000E+00  0.11885196305E+03  0.11885196308E+03  0.25500000000E-02 0. -1.
          2   -1    0    0  501    0  0.00000000000E+00 -0.00000000000E+00 -0.46913740517E+00  0.46914433539E+00  0.25500000000E-02 0.  1.
         31    1    1    2    0    0 -0.32991966548E+00 -0.24049490016E+00  0.62101978491E+02  0.62548232136E+02  0.74470750000E+01 0. -1.
        -31    1    1    2    0    0  0.32991966548E+00  0.24049490016E+00  0.56280847153E+02  0.56772875276E+02  0.74470750000E+01 0.  1.
<mgrwt>
<rscale>  0 0.14934298E+02</rscale>
<asrwt>0</asrwt>
<pdfrwt beam="2">  1        2 0.99636746E+00 0.14934298E+02</pdfrwt>
<pdfrwt beam="1">  1       -2 0.98663040E+00 0.14934298E+02</pdfrwt>
<totfact> 0.23784952E-13</totfact>
</mgrwt>
</event>
<event>
 4    1 -0.4882314E-019  0.1492002E+02  0.7818608E-02  0.1870519E+00
          2   -1    0    0  501    0  0.00000000000E+00  0.00000000000E+00  0.11923513676E+03  0.11923513678E+03  0.25500000000E-02 0.  1.
         -2   -1    0    0    0  501 -0.00000000000E+00 -0.00000000000E+00 -0.46673584480E+00  0.46674281068E+00  0.25500000000E-02 0. -1.
         31    1    1    2    0    0 -0.32211518456E+00 -0.22147782249E+00  0.57779736691E+02  0.58258988223E+02  0.74470750000E+01 0.  1.
        -31    1    1    2    0    0  0.32211518456E+00  0.22147782249E+00  0.60988664222E+02  0.61442891373E+02  0.74470750000E+01 0. -1.
<mgrwt>
<rscale>  0 0.14920018E+02</rscale>
<asrwt>0</asrwt>
<pdfrwt beam="1">  1        2 0.98977889E+00 0.14920018E+02</pdfrwt>
<pdfrwt beam="2">  1       -2 0.99129945E+00 0.14920018E+02</pdfrwt>
<totfact>-0.82938682E-14</totfact>
</mgrwt>
</event>
<event>
 4    1  0.4882314E-019  0.1491512E+02  0.7818608E-02  0.1870670E+00
          2   -1    0    0  501    0  0.00000000000E+00  0.00000000000E+00  0.12016034825E+03  0.12016034828E+03  0.25500000000E-02 0.  1.
         -2   -1    0    0    0  501 -0.00000000000E+00 -0.00000000000E+00 -0.46283824643E+00  0.46284527097E+00  0.25500000000E-02 0. -1.
         31    1    1    2    0    0  0.31330864619E+00 -0.45559123763E-01  0.61763691643E+02  0.62211837856E+02  0.74470750000E+01 0.  1.
        -31    1    1    2    0    0 -0.31330864619E+00  0.45559123763E-01  0.57933818364E+02  0.58411355696E+02  0.74470750000E+01 0.  1.
<mgrwt>
<rscale>  0 0.14915124E+02</rscale>
<asrwt>0</asrwt>
<pdfrwt beam="1">  1        2 0.99739696E+00 0.14915124E+02</pdfrwt>
<pdfrwt beam="2">  1       -2 0.98308275E+00 0.14915124E+02</pdfrwt>
<totfact> 0.52304566E-13</totfact>
</mgrwt>
</event>
<event>
 4    1 -0.4882314E-019  0.1492238E+02  0.7818608E-02  0.1870446E+00
         -2   -1    0    0    0  501 -0.00000000000E+00  0.00000000000E+00  0.11966363323E+03  0.11966363325E+03  0.25500000000E-02 0.  1.
          2   -1    0    0  501    0  0.00000000000E+00 -0.00000000000E+00 -0.46521182547E+00  0.46521881417E+00  0.25500000000E-02 0. -1.
         31    1    1    2    0    0  0.74743450471E-01 -0.35751799395E+00  0.57364967503E+02  0.57847487658E+02  0.74470750000E+01 0. -1.
        -31    1    1    2    0    0 -0.74743450471E-01  0.35751799395E+00  0.61833453897E+02  0.62281364409E+02  0.74470750000E+01 0.  1.
<mgrwt>
<rscale>  0 0.14922380E+02</rscale>
<asrwt>0</asrwt>
<pdfrwt beam="2">  1        2 0.98808896E+00 0.14922380E+02</pdfrwt>
<pdfrwt beam="1">  1       -2 0.99330940E+00 0.14922380E+02</pdfrwt>
<totfact>-0.20131470E-13</totfact>
</mgrwt>
</event>
<event>
 4    1 -0.4882314E-019  0.1490675E+02  0.7818608E-02  0.1870927E+00
         -2   -1    0    0    0  501 -0.00000000000E+00  0.00000000000E+00  0.11985950251E+03  0.11985950254E+03  0.25500000000E-02 0. -1.
          2   -1    0    0  501    0  0.00000000000E+00 -0.00000000000E+00 -0.46347935282E+00  0.46348636764E+00  0.25500000000E-02 0.  1.
         31    1    1    2    0    0 -0.27377763585E-01  0.25612839154E+00  0.58358230441E+02  0.58832034960E+02  0.74470750000E+01 0.  1.
        -31    1    1    2    0    0  0.27377763585E-01 -0.25612839154E+00  0.61037792715E+02  0.61490953943E+02  0.74470750000E+01 0. -1.
<mgrwt>
<rscale>  0 0.14906754E+02</rscale>
<asrwt>0</asrwt>
<pdfrwt beam="2">  1        2 0.98442973E+00 0.14906754E+02</pdfrwt>
<pdfrwt beam="1">  1       -2 0.99491466E+00 0.14906754E+02</pdfrwt>
<totfact>-0.38166967E-13</totfact>
</mgrwt>
</event>
<event>
 4    1 -0.4882314E-019  0.1492669E+02  0.7818608E-02  0.1870314E+00
          2   -1    0    0  501    0  0.00000000000E+00  0.00000000000E+00  0.11862783819E+03  0.11862783821E+03  0.25500000000E-02 0. -1.
         -2   -1    0    0    0  501 -0.00000000000E+00 -0.00000000000E+00 -0.46954466497E+00  0.46955158918E+00  0.25500000000E-02 0.  1.
         31    1    1    2    0    0 -0.63855653525E-01  0.15111459975E+00  0.55373987926E+02  0.55872751660E+02  0.74470750000E+01 0.  1.
        -31    1    1    2    0    0  0.63855653525E-01 -0.15111459975E+00  0.62784305595E+02  0.63224638142E+02  0.74470750000E+01 0. -1.
<mgrwt>
<rscale>  0 0.14926685E+02</rscale>
<asrwt>0</asrwt>
<pdfrwt beam="1">  1        2 0.98478055E+00 0.14926685E+02</pdfrwt>
<pdfrwt beam="2">  1       -2 0.99722158E+00 0.14926685E+02</pdfrwt>
<totfact>-0.27372891E-13</totfact>
</mgrwt>
</event>
<event>
 4    1 -0.4882314E-019  0.1490257E+02  0.7818608E-02  0.1871056E+00
          2   -1    0    0  501    0  0.00000000000E+00  0.00000000000E+00  0.11806921415E+03  0.11806921417E+03  0.25500000000E-02 0. -1.
         -2   -1    0    0    0  501 -0.00000000000E+00 -0.00000000000E+00 -0.47024315482E+00  0.47025006874E+00  0.25500000000E-02 0.  1.
         31    1    1    2    0    0  0.10539762973E+00 -0.11696605617E+00  0.57250226377E+02  0.57732764839E+02  0.74470750000E+01 0.  1.
        -31    1    1    2    0    0 -0.10539762973E+00  0.11696605617E+00  0.60348744614E+02  0.60806699403E+02  0.74470750000E+01 0. -1.
<mgrwt>
<rscale>  0 0.14902570E+02</rscale>
<asrwt>0</asrwt>
<pdfrwt beam="1">  1        2 0.98016723E+00 0.14902570E+02</pdfrwt>
<pdfrwt beam="2">  1       -2 0.99868050E+00 0.14902570E+02</pdfrwt>
<totfact>-0.32508015E-13</totfact>
</mgrwt>
</event>
<event>
 4    1  0.4882314E-019  0.1494702E+02  0.7818608E-02  0.1869689E+00
         -2   -1    0    0    0  501 -0.00000000000E+00  0.00000000000E+00  0.11893607090E+03  0.11893607093E+03  0.25500000000E-02 0.  1.
          2   -1    0    0  501    0  0.00000000000E+00 -0.00000000000E+00 -0.46960479378E+00  0.46961171710E+00  0.25500000000E-02 0. -1.
         31    1    1    2    0    0 -0.40133792228E+00 -0.42851203084E+00  0.57451520919E+02  0.57935143710E+02  0.74470750000E+01 0.  1.
        -31    1    1    2    0    0  0.40133792228E+00  0.42851203084E+00  0.61014945189E+02  0.61470538937E+02  0.74470750000E+01 0.  1.
<mgrwt>
<rscale>  0 0.14947022E+02</rscale>
<asrwt>0</asrwt>
<pdfrwt beam="2">  1        2 0.99735897E+00 0.14947022E+02</pdfrwt>
<pdfrwt beam="1">  1       -2 0.98732973E+00 0.14947022E+02</pdfrwt>
<totfact> 0.14385564E-13</totfact>
</mgrwt>
</event>
<event>
 4    1  0.4882314E-019  0.1494464E+02  0.7818608E-02  0.1869763E+00
          2   -1    0    0  501    0  0.00000000000E+00  0.00000000000E+00  0.12020630446E+03  0.12020630449E+03  0.25500000000E-02 0. -1.
         -2   -1    0    0    0  501 -0.00000000000E+00 -0.00000000000E+00 -0.46449402967E+00  0.46450102917E+00  0.25500000000E-02 0.  1.
         31    1    1    2    0    0 -0.60172980333E+00 -0.14770342661E-01  0.58904936875E+02  0.59376871012E+02  0.74470750000E+01 0. -1.
        -31    1    1    2    0    0  0.60172980333E+00  0.14770342661E-01  0.60836873560E+02  0.61293934508E+02  0.74470750000E+01 0. -1.
<mgrwt>
<rscale>  0 0.14944636E+02</rscale>
<asrwt>0</asrwt>
<pdfrwt beam="1">  1        2 0.99779065E+00 0.14944636E+02</pdfrwt>
<pdfrwt beam="2">  1       -2 0.98658754E+00 0.14944636E+02</pdfrwt>
<totfact> 0.17161402E-13</totfact>
</mgrwt>
</event>
<event>
 4    1 -0.4882314E-019  0.1495999E+02  0.7818608E-02  0.1869292E+00
         -2   -1    0    0    0  501 -0.00000000000E+00  0.00000000000E+00  0.12037894914E+03  0.12037894917E+03  0.25500000000E-02 0.  1.
          2   -1    0    0  501    0  0.00000000000E+00 -0.00000000000E+00 -0.46478115393E+00  0.46478814910E+00  0.25500000000E-02 0. -1.
         31    1    1    2    0    0  0.39108424364E+00  0.39166338230E+00  0.56482522421E+02  0.56974034543E+02  0.74470750000E+01 0.  1.
        -31    1    1    2    0    0 -0.39108424364E+00 -0.39166338230E+00  0.63431645567E+02  0.63869702774E+02  0.74470750000E+01 0.  1.
<mgrwt>
<rscale>  0 0.14959985E+02</rscale>
<asrwt>0</asrwt>
<pdfrwt beam="2">  1        2 0.98720049E+00 0.14959985E+02</pdfrwt>
<pdfrwt beam="1">  1       -2 0.99922057E+00 0.14959985E+02</pdfrwt>
<totfact>-0.64078377E-14</totfact>
</mgrwt>
</event>
<event>
 4    1 -0.4882314E-019  0.1494809E+02  0.7818608E-02  0.1869657E+00
          2   -1    0    0  501    0  0.00000000000E+00  0.00000000000E+00  0.11923891398E+03  0.11923891401E+03  0.25500000000E-02 0. -1.
         -2   -1    0    0    0  501 -0.00000000000E+00 -0.00000000000E+00 -0.46847886301E+00  0.46848580298E+00  0.25500000000E-02 0.  1.
         31    1    1    2    0    0  0.42901271410E+00  0.46713205847E+00  0.59479135679E+02  0.59946882917E+02  0.74470750000E+01 0. -1.
        -31    1    1    2    0    0 -0.42901271410E+00 -0.46713205847E+00  0.59291299441E+02  0.59760516896E+02  0.74470750000E+01 0. -1.
<mgrwt>
<rscale>  0 0.14948087E+02</rscale>
<asrwt>0</asrwt>
<pdfrwt beam="1">  1        2 0.98982454E+00 0.14948087E+02</pdfrwt>
<pdfrwt beam="2">  1       -2 0.99498702E+00 0.14948087E+02</pdfrwt>
<totfact>-0.18165910E-13</totfact>
</mgrwt>
</event>
<event>
 4    1 -0.4882314E-019  0.1498497E+02  0.7818608E-02  0.1868528E+00
          2   -1    0    0  501    0  0.00000000000E+00  0.00000000000E+00  0.11969571384E+03  0.11969571387E+03  0.25500000000E-02 0.  1.
         -2   -1    0    0    0  501 -0.00000000000E+00 -0.00000000000E+00 -0.46899667393E+00  0.46900360623E+00  0.25500000000E-02 0. -1.
         31    1    1    2    0    0  0.73208380621E+00 -0.32153797927E+00  0.61198010396E+02  0.61654640830E+02  0.74470750000E+01 0.  1.
        -31    1    1    2    0    0 -0.73208380621E+00  0.32153797927E+00  0.58028706768E+02  0.58510076642E+02  0.74470750000E+01 0. -1.
<mgrwt>
<rscale>  0 0.14984967E+02</rscale>
<asrwt>0</asrwt>
<pdfrwt beam="1">  1        2 0.99360596E+00 0.14984967E+02</pdfrwt>
<pdfrwt beam="2">  1       -2 0.99609735E+00 0.14984967E+02</pdfrwt>
<totfact>-0.12505716E-13</totfact>
</mgrwt>
</event>
<event>
 4    1  0.4882314E-019  0.1491750E+02  0.7818608E-02  0.1870597E+00
         -2   -1    0    0    0  501 -0.00000000000E+00  0.00000000000E+00  0.11877674538E+03  0.11877674541E+03  0.25500000000E-02 0. -1.
          2   -1    0    0  501    0  0.00000000000E+00 -0.00000000000E+00 -0.46837890595E+00  0.46838584739E+00  0.25500000000E-02 0.  1.
         31    1    1    2    0    0 -0.46059136495E-01  0.30068310870E+00  0.61435940441E+02  0.61886397825E+02  0.74470750000E+01 0. -1.
        -31    1    1    2    0    0  0.46059136495E-01 -0.30068310870E+00  0.56872426034E+02  0.57358733431E+02  0.74470750000E+01 0.  1.
<mgrwt>
<rscale>  0 0.14917498E+02</rscale>
<asrwt>0</asrwt>
<pdfrwt beam="2">  1        2 0.99476041E+00 0.14917498E+02</pdfrwt>
<pdfrwt beam="1">  1       -2 0.98600218E+00 0.14917498E+02</pdfrwt>
<totfact> 0.36499292E-13</totfact>
</mgrwt>
</event>
<event>
 4    1 -0.4882314E-019  0.1494950E+02  0.7818608E-02  0.1869613E+00
          2   -1    0    0  501    0  0.00000000000E+00  0.00000000000E+00  0.11973435322E+03  0.11973435325E+03  0.25500000000E-02 0.  1.
         -2   -1    0    0    0  501 -0.00000000000E+00 -0.00000000000E+00 -0.46662851952E+00  0.46663548701E+00  0.25500000000E-02 0. -1.
         31    1    1    2    0    0 -0.43527825002E+00 -0.34385999992E+00  0.62242389916E+02  0.62688768813E+02  0.74470750000E+01 0.  1.
        -31    1    1    2    0    0  0.43527825002E+00  0.34385999992E+00  0.57025334786E+02  0.57512219922E+02  0.74470750000E+01 0. -1.
<mgrwt>
<rscale>  0 0.14949500E+02</rscale>
<asrwt>0</asrwt>
<pdfrwt beam="1">  1        2 0.99390588E+00 0.14949500E+02</pdfrwt>
<pdfrwt beam="2">  1       -2 0.99108850E+00 0.14949500E+02</pdfrwt>
<totfact>-0.50261699E-14</totfact>
</mgrwt>
</event>
<event>
 4    1 -0.4882314E-019  0.1495309E+02  0.7818608E-02  0.1869503E+00
         -2   -1    0    0    0  501 -0.00000000000E+00  0.00000000000E+00  0.12017074380E+03  0.12017074383E+03  0.25500000000E-02 0.  1.
          2   -1    0    0  501    0  0.00000000000E+00 -0.00000000000E+00 -0.46515714547E+00  0.46516413499E+00  0.25500000000E-02 0. -1.
         31    1    1    2    0    0  0.33474925501E+00 -0.52271761819E+00  0.57969619543E+02  0.58449302876E+02  0.74470750000E+01 0.  1.
        -31    1    1    2    0    0 -0.33474925501E+00  0.52271761819E+00  0.61735967112E+02  0.62186605086E+02  0.74470750000E+01 0.  1.
<mgrwt>
<rscale>  0 0.14953087E+02</rscale>
<asrwt>0</asrwt>
<pdfrwt beam="2">  1        2 0.98798942E+00 0.14953087E+02</pdfrwt>
<pdfrwt beam="1">  1       -2 0.99750209E+00 0.14953087E+02</pdfrwt>
<totfact>-0.15767687E-13</totfact>
</mgrwt>
</event>
<event>
 4    1  0.4882314E-019  0.1491992E+02  0.7818608E-02  0.1870522E+00
         -2   -1    0    0    0  501 -0.00000000000E+00  0.00000000000E+00  0.11896986463E+03  0.11896986466E+03  0.25500000000E-02 0.  1.
          2   -1    0    0  501    0  0.00000000000E+00 -0.00000000000E+00 -0.46777056124E+00  0.46777751171E+00  0.25500000000E-02 0. -1.
         31    1    1    2    0    0  0.80756245310E-01  0.40216981201E+00  0.58015309015E+02  0.58492762529E+02  0.74470750000E+01 0. -1.
        -31    1    1    2    0    0 -0.80756245310E-01 -0.40216981201E+00  0.60486785057E+02  0.60944879644E+02  0.74470750000E+01 0.  1.
<mgrwt>
<rscale>  0 0.14919922E+02</rscale>
<asrwt>0</asrwt>
<pdfrwt beam="2">  1        2 0.99347980E+00 0.14919922E+02</pdfrwt>
<pdfrwt beam="1">  1       -2 0.98759399E+00 0.14919922E+02</pdfrwt>
<totfact> 0.21400021E-13</totfact>
</mgrwt>
</event>
<event>
 4    1 -0.4882314E-019  0.1495089E+02  0.7818608E-02  0.1869571E+00
         -2   -1    0    0    0  501 -0.00000000000E+00  0.00000000000E+00  0.11991708163E+03  0.11991708166E+03  0.25500000000E-02 0. -1.
          2   -1    0    0  501    0  0.00000000000E+00 -0.00000000000E+00 -0.46600398325E+00  0.46601096007E+00  0.25500000000E-02 0.  1.
         31    1    1    2    0    0 -0.54400298707E-01 -0.60010696446E+00  0.57749203235E+02  0.58230511659E+02  0.74470750000E+01 0.  1.
        -31    1    1    2    0    0  0.54400298707E-01  0.60010696446E+00  0.61701874415E+02  0.62152580961E+02  0.74470750000E+01 0. -1.
<mgrwt>
<rscale>  0 0.14950888E+02</rscale>
<asrwt>0</asrwt>
<pdfrwt beam="2">  1        2 0.98977303E+00 0.14950888E+02</pdfrwt>
<pdfrwt beam="1">  1       -2 0.99541164E+00 0.14950888E+02</pdfrwt>
<totfact>-0.17967679E-13</totfact>
</mgrwt>
</event>
<event>
 4    1 -0.4882314E-019  0.1497289E+02  0.7818608E-02  0.1868897E+00
         -2   -1    0    0    0  501 -0.00000000000E+00  0.00000000000E+00  0.12003139816E+03  0.12003139818E+03  0.25500000000E-02 0.  1.
          2   -1    0    0  501    0  0.00000000000E+00 -0.00000000000E+00 -0.46693159421E+00  0.46693855717E+00  0.25500000000E-02 0. -1.
         31    1    1    2    0    0  0.44954367377E+00 -0.14970774375E-01  0.54784618641E+02  0.55290285579E+02  0.74470750000E+01 0. -1.
        -31    1    1    2    0    0 -0.44954367377E+00  0.14970774375E-01  0.64779847920E+02  0.65208051162E+02  0.74470750000E+01 0.  1.
<mgrwt>
<rscale>  0 0.14972892E+02</rscale>
<asrwt>0</asrwt>
<pdfrwt beam="2">  1        2 0.99173923E+00 0.14972892E+02</pdfrwt>
<pdfrwt beam="1">  1       -2 0.99636456E+00 0.14972892E+02</pdfrwt>
<totfact>-0.13839364E-13</totfact>
</mgrwt>
</event>
<event>
 4    1 -0.4882314E-019  0.1499921E+02  0.7818608E-02  0.1868092E+00
         -2   -1    0    0    0  501 -0.00000000000E+00  0.00000000000E+00  0.12001634591E+03  0.12001634593E+03  0.25500000000E-02 0.  1.
          2   -1    0    0  501    0  0.00000000000E+00 -0.00000000000E+00 -0.46863358676E+00  0.46864052443E+00  0.25500000000E-02 0. -1.
         31    1    1    2    0    0 -0.83394110109E+00  0.23460889973E+00  0.58277841917E+02  0.58758116747E+02  0.74470750000E+01 0. -1.
        -31    1    1    2    0    0  0.83394110109E+00 -0.23460889973E+00  0.61269870401E+02  0.61726869709E+02  0.74470750000E+01 0.  1.
<mgrwt>
<rscale>  0 0.14999215E+02</rscale>
<asrwt>0</asrwt>
<pdfrwt beam="2">  1        2 0.99533958E+00 0.14999215E+02</pdfrwt>
<pdfrwt beam="1">  1       -2 0.99625417E+00 0.14999215E+02</pdfrwt>
<totfact>-0.10467684E-13</totfact>
</mgrwt>
</event>
<event>
 4    1  0.4882314E-019  0.1491248E+02  0.7818608E-02  0.1870751E+00
          2   -1    0    0  501    0  0.00000000000E+00  0.00000000000E+00  0.12025617802E+03  0.12025617805E+03  0.25500000000E-02 0.  1.
         -2   -1    0    0    0  501 -0.00000000000E+00 -0.00000000000E+00 -0.46230560558E+00  0.46231263821E+00  0.25500000000E-02 0. -1.
         31    1    1    2    0    0  0.34974241160E+00  0.11808742874E+00  0.59747478753E+02  0.60210932627E+02  0.74470750000E+01 0.  1.
        -31    1    1    2    0    0 -0.34974241160E+00 -0.11808742874E+00  0.60046393659E+02  0.60507558056E+02  0.74470750000E+01 0. -1.
<mgrwt>
<rscale>  0 0.14912482E+02</rscale>
<asrwt>0</asrwt>
<pdfrwt beam="1">  1        2 0.99818494E+00 0.14912482E+02</pdfrwt>
<pdfrwt beam="2">  1       -2 0.98195875E+00 0.14912482E+02</pdfrwt>
<totfact> 0.50341824E-13</totfact>
</mgrwt>
</event>
<event>
 4    1  0.4882314E-019  0.1492716E+02  0.7818608E-02  0.1870299E+00
         -2   -1    0    0    0  501 -0.00000000000E+00  0.00000000000E+00  0.11874005816E+03  0.11874005818E+03  0.25500000000E-02 0.  1.
          2   -1    0    0  501    0  0.00000000000E+00 -0.00000000000E+00 -0.46913073949E+00  0.46913766981E+00  0.25500000000E-02 0. -1.
         31    1    1    2    0    0 -0.27691497242E+00  0.13919340440E-01  0.55850247707E+02  0.56345239113E+02  0.74470750000E+01 0. -1.
        -31    1    1    2    0    0  0.27691497242E+00 -0.13919340440E-01  0.62420679709E+02  0.62863956740E+02  0.74470750000E+01 0.  1.
<mgrwt>
<rscale>  0 0.14927160E+02</rscale>
<asrwt>0</asrwt>
<pdfrwt beam="2">  1        2 0.99634967E+00 0.14927160E+02</pdfrwt>
<pdfrwt beam="1">  1       -2 0.98570504E+00 0.14927160E+02</pdfrwt>
<totfact> 0.32889293E-13</totfact>
</mgrwt>
</event>
<event>
 4    1 -0.4882314E-019  0.1498077E+02  0.7818608E-02  0.1868656E+00
          2   -1    0    0  501    0  0.00000000000E+00  0.00000000000E+00  0.12027147828E+03  0.12027147831E+03  0.25500000000E-02 0.  1.
         -2   -1    0    0    0  501 -0.00000000000E+00 -0.00000000000E+00 -0.46649021760E+00  0.46649718715E+00  0.25500000000E-02 0. -1.
         31    1    1    2    0    0  0.91929507403E-01  0.43290076554E+00  0.54489331960E+02  0.54997655201E+02  0.74470750000E+01 0. -1.
        -31    1    1    2    0    0 -0.91929507403E-01 -0.43290076554E+00  0.65315656104E+02  0.65740320294E+02  0.74470750000E+01 0.  1.
<mgrwt>
<rscale>  0 0.14980773E+02</rscale>
<asrwt>0</asrwt>
<pdfrwt beam="1">  1        2 0.99834606E+00 0.14980773E+02</pdfrwt>
<pdfrwt beam="2">  1       -2 0.99081307E+00 0.14980773E+02</pdfrwt>
<totfact>-0.15754172E-14</totfact>
</mgrwt>
</event>
<event>
 4    1 -0.4882314E-019  0.1501593E+02  0.7818608E-02  0.1867583E+00
         -2   -1    0    0    0  501 -0.00000000000E+00  0.00000000000E+00  0.12031818468E+03  0.12031818471E+03  0.25500000000E-02 0.  1.
          2   -1    0    0  501    0  0.00000000000E+00 -0.00000000000E+00 -0.46850054485E+00  0.46850748449E+00  0.25500000000E-02 0. -1.
         31    1    1    2    0    0  0.10503304912E+00 -0.94578476723E+00  0.59351012611E+02  0.59823968146E+02  0.74470750000E+01 0. -1.
        -31    1    1    2    0    0 -0.10503304912E+00  0.94578476723E+00  0.60498671525E+02  0.60962724046E+02  0.74470750000E+01 0.  1.
<mgrwt>
<rscale>  0 0.15015932E+02</rscale>
<asrwt>0</asrwt>
<pdfrwt beam="2">  1        2 0.99506782E+00 0.15015932E+02</pdfrwt>
<pdfrwt beam="1">  1       -2 0.99874888E+00 0.15015932E+02</pdfrwt>
<totfact>-0.47194317E-14</totfact>
</mgrwt>
</event>
<event>
 4    1  0.4882314E-019  0.1491217E+02  0.7818608E-02  0.1870760E+00
          2   -1    0    0  501    0  0.00000000000E+00  0.00000000000E+00  0.12003459881E+03  0.12003459884E+03  0.25500000000E-02 0. -1.
         -2   -1    0    0    0  501 -0.00000000000E+00 -0.00000000000E+00 -0.46313980173E+00  0.46314682170E+00  0.25500000000E-02 0.  1.
         31    1    1    2    0    0  0.11958990776E-01 -0.16999872721E+00  0.62407302171E+02  0.62850293022E+02  0.74470750000E+01 0. -1.
        -31    1    1    2    0    0 -0.11958990776E-01  0.16999872721E+00  0.57164156839E+02  0.57647452639E+02  0.74470750000E+01 0.  1.
<mgrwt>
<rscale>  0 0.14912173E+02</rscale>
<asrwt>0</asrwt>
<pdfrwt beam="1">  1        2 0.99635967E+00 0.14912173E+02</pdfrwt>
<pdfrwt beam="2">  1       -2 0.98371683E+00 0.14912173E+02</pdfrwt>
<totfact> 0.56526529E-13</totfact>
</mgrwt>
</event>
<event>
 4    1 -0.4882314E-019  0.1495491E+02  0.7818608E-02  0.1869447E+00
         -2   -1    0    0    0  501 -0.00000000000E+00  0.00000000000E+00  0.12016325965E+03  0.12016325968E+03  0.25500000000E-02 0. -1.
          2   -1    0    0  501    0  0.00000000000E+00 -0.00000000000E+00 -0.46529982002E+00  0.46530680740E+00  0.25500000000E-02 0.  1.
         31    1    1    2    0    0  0.31618222337E+00 -0.36709408461E+00  0.56076721927E+02  0.56571126888E+02  0.74470750000E+01 0.  1.
        -31    1    1    2    0    0 -0.31618222337E+00  0.36709408461E+00  0.63621237901E+02  0.64057439594E+02  0.74470750000E+01 0. -1.
<mgrwt>
<rscale>  0 0.14954914E+02</rscale>
<asrwt>0</asrwt>
<pdfrwt beam="2">  1        2 0.98829105E+00 0.14954914E+02</pdfrwt>
<pdfrwt beam="1">  1       -2 0.99744139E+00 0.14954914E+02</pdfrwt>
<totfact>-0.15449953E-13</totfact>
</mgrwt>
</event>
<event>
 4    1 -0.4882314E-019  0.1491526E+02  0.7818608E-02  0.1870665E+00
          2   -1    0    0  501    0  0.00000000000E+00  0.00000000000E+00  0.11826690294E+03  0.11826690297E+03  0.25500000000E-02 0.  1.
         -2   -1    0    0    0  501 -0.00000000000E+00 -0.00000000000E+00 -0.47025720195E+00  0.47026411567E+00  0.25500000000E-02 0. -1.
         31    1    1    2    0    0  0.26665538608E+00  0.22151288148E+00  0.60433244291E+02  0.60891346796E+02  0.74470750000E+01 0. -1.
        -31    1    1    2    0    0 -0.26665538608E+00 -0.22151288148E+00  0.57363401446E+02  0.57845820286E+02  0.74470750000E+01 0. -1.
<mgrwt>
<rscale>  0 0.14915264E+02</rscale>
<asrwt>0</asrwt>
<pdfrwt beam="1">  1        2 0.98180197E+00 0.14915264E+02</pdfrwt>
<pdfrwt beam="2">  1       -2 0.99871684E+00 0.14915264E+02</pdfrwt>
<totfact>-0.24145569E-13</totfact>
</mgrwt>
</event>
<event>
 4    1 -0.4882314E-019  0.1489815E+02  0.7818608E-02  0.1871192E+00
         -2   -1    0    0    0  501 -0.00000000000E+00  0.00000000000E+00  0.12014597099E+03  0.12014597102E+03  0.25500000000E-02 0.  1.
          2   -1    0    0  501    0  0.00000000000E+00 -0.00000000000E+00 -0.46184069516E+00  0.46184773487E+00  0.25500000000E-02 0. -1.
         31    1    1    2    0    0 -0.14598766784E+00 -0.92120313256E-01  0.59837552925E+02  0.60299431711E+02  0.74470750000E+01 0.  1.
        -31    1    1    2    0    0  0.14598766784E+00  0.92120313256E-01  0.59846577372E+02  0.60308387043E+02  0.74470750000E+01 0.  1.
<mgrwt>
<rscale>  0 0.14898151E+02</rscale>
<asrwt>0</asrwt>
<pdfrwt beam="2">  1        2 0.98097161E+00 0.14898151E+02</pdfrwt>
<pdfrwt beam="1">  1       -2 0.99726983E+00 0.14898151E+02</pdfrwt>
<totfact>-0.51232423E-13</totfact>
</mgrwt>
</event>
<event>
 4    1  0.4882314E-019  0.1492966E+02  0.7818608E-02  0.1870223E+00
          2   -1    0    0  501    0  0.00000000000E+00  0.00000000000E+00  0.12017972036E+03  0.12017972039E+03  0.25500000000E-02 0. -1.
         -2   -1    0    0    0  501 -0.00000000000E+00 -0.00000000000E+00 -0.46366621810E+00  0.46367323010E+00  0.25500000000E-02 0.  1.
         31    1    1    2    0    0  0.31262343583E+00 -0.38971203717E+00  0.60853181576E+02  0.61309201943E+02  0.74470750000E+01 0. -1.
        -31    1    1    2    0    0 -0.31262343583E+00  0.38971203717E+00  0.58862872566E+02  0.59334191674E+02  0.74470750000E+01 0. -1.
<mgrwt>
<rscale>  0 0.14929662E+02</rscale>
<asrwt>0</asrwt>
<pdfrwt beam="1">  1        2 0.99756399E+00 0.14929662E+02</pdfrwt>
<pdfrwt beam="2">  1       -2 0.98483521E+00 0.14929662E+02</pdfrwt>
<totfact> 0.32366557E-13</totfact>
</mgrwt>
</event>
<event>
 4    1  0.4882314E-019  0.1490569E+02  0.7818608E-02  0.1870960E+00
          2   -1    0    0  501    0  0.00000000000E+00  0.00000000000E+00  0.12030945445E+03  0.12030945447E+03  0.25500000000E-02 0.  1.
         -2   -1    0    0    0  501 -0.00000000000E+00 -0.00000000000E+00 -0.46167994409E+00  0.46168698625E+00  0.25500000000E-02 0. -1.
         31    1    1    2    0    0  0.89121709137E-01 -0.25853228047E+00  0.60780647448E+02  0.61235780487E+02  0.74470750000E+01 0.  1.
        -31    1    1    2    0    0 -0.89121709137E-01  0.25853228047E+00  0.59067127053E+02  0.59535360972E+02  0.74470750000E+01 0. -1.
<mgrwt>
<rscale>  0 0.14905689E+02</rscale>
<asrwt>0</asrwt>
<pdfrwt beam="1">  1        2 0.99862030E+00 0.14905689E+02</pdfrwt>
<pdfrwt beam="2">  1       -2 0.98063658E+00 0.14905689E+02</pdfrwt>
<totfact> 0.51431663E-13</totfact>
</mgrwt>
</event>
<event>
 4    1  0.4882314E-019  0.1490036E+02  0.7818608E-02  0.1871124E+00
         -2   -1    0    0    0  501 -0.00000000000E+00  0.00000000000E+00  0.11853603006E+03  0.11853603009E+03  0.25500000000E-02 0.  1.
          2   -1    0    0  501    0  0.00000000000E+00 -0.00000000000E+00 -0.46825237877E+00  0.46825932209E+00  0.25500000000E-02 0. -1.
         31    1    1    2    0    0 -0.71019823047E-01 -0.87278308544E-02  0.57413819109E+02  0.57894824213E+02  0.74470750000E+01 0. -1.
        -31    1    1    2    0    0  0.71019823047E-01  0.87278308544E-02  0.60653958573E+02  0.61109465196E+02  0.74470750000E+01 0.  1.
<mgrwt>
<rscale>  0 0.14900361E+02</rscale>
<asrwt>0</asrwt>
<pdfrwt beam="2">  1        2 0.99448482E+00 0.14900361E+02</pdfrwt>
<pdfrwt beam="1">  1       -2 0.98401073E+00 0.14900361E+02</pdfrwt>
<totfact> 0.66135922E-13</totfact>
</mgrwt>
</event>
<event>
 4    1 -0.4882314E-019  0.1499077E+02  0.7818608E-02  0.1868350E+00
          2   -1    0    0  501    0  0.00000000000E+00  0.00000000000E+00  0.11980782867E+03  0.11980782869E+03  0.25500000000E-02 0. -1.
         -2   -1    0    0    0  501 -0.00000000000E+00 -0.00000000000E+00 -0.46892088341E+00  0.46892781683E+00  0.25500000000E-02 0.  1.
         31    1    1    2    0    0 -0.46634120655E+00  0.83033475584E-01  0.54010169114E+02  0.54523221314E+02  0.74470750000E+01 0.  1.
        -31    1    1    2    0    0  0.46634120655E+00 -0.83033475584E-01  0.65328738668E+02  0.65753535195E+02  0.74470750000E+01 0. -1.
<mgrwt>
<rscale>  0 0.14990772E+02</rscale>
<asrwt>0</asrwt>
<pdfrwt beam="1">  1        2 0.99453238E+00 0.14990772E+02</pdfrwt>
<pdfrwt beam="2">  1       -2 0.99594065E+00 0.14990772E+02</pdfrwt>
<totfact>-0.11785933E-13</totfact>
</mgrwt>
</event>
<event>
 4    1  0.4882314E-019  0.1491787E+02  0.7818608E-02  0.1870585E+00
          2   -1    0    0  501    0  0.00000000000E+00  0.00000000000E+00  0.11952560979E+03  0.11952560982E+03  0.25500000000E-02 0.  1.
         -2   -1    0    0    0  501 -0.00000000000E+00 -0.00000000000E+00 -0.46546722373E+00  0.46547420860E+00  0.25500000000E-02 0. -1.
         31    1    1    2    0    0  0.40625256529E+00  0.65541444244E-01  0.58837607282E+02  0.59308450440E+02  0.74470750000E+01 0. -1.
        -31    1    1    2    0    0 -0.40625256529E+00 -0.65541444244E-01  0.60222535284E+02  0.60682633586E+02  0.74470750000E+01 0. -1.
<mgrwt>
<rscale>  0 0.14917865E+02</rscale>
<asrwt>0</asrwt>
<pdfrwt beam="1">  1        2 0.99217024E+00 0.14917865E+02</pdfrwt>
<pdfrwt beam="2">  1       -2 0.98862488E+00 0.14917865E+02</pdfrwt>
<totfact> 0.12562707E-13</totfact>
</mgrwt>
</event>
<event>
 4    1  0.4882314E-019  0.1491767E+02  0.7818608E-02  0.1870591E+00
          2   -1    0    0  501    0  0.00000000000E+00  0.00000000000E+00  0.12018878743E+03  0.12018878745E+03  0.25500000000E-02 0.  1.
         -2   -1    0    0    0  501 -0.00000000000E+00 -0.00000000000E+00 -0.46288685313E+00  0.46289387693E+00  0.25500000000E-02 0. -1.
         31    1    1    2    0    0 -0.34282311514E-01 -0.39812072480E+00  0.58851695952E+02  0.59322345856E+02  0.74470750000E+01 0.  1.
        -31    1    1    2    0    0  0.34282311514E-01  0.39812072480E+00  0.60874204622E+02  0.61329335475E+02  0.74470750000E+01 0. -1.
<mgrwt>
<rscale>  0 0.14917672E+02</rscale>
<asrwt>0</asrwt>
<pdfrwt beam="1">  1        2 0.99763252E+00 0.14917672E+02</pdfrwt>
<pdfrwt beam="2">  1       -2 0.98318648E+00 0.14917672E+02</pdfrwt>
<totfact> 0.47702049E-13</totfact>
</mgrwt>
</event>
<event>
 4    1 -0.4882314E-019  0.1495244E+02  0.7818608E-02  0.1869523E+00
         -2   -1    0    0    0  501 -0.00000000000E+00  0.00000000000E+00  0.11968391857E+03  0.11968391859E+03  0.25500000000E-02 0.  1.
          2   -1    0    0  501    0  0.00000000000E+00 -0.00000000000E+00 -0.46700876090E+00  0.46701572271E+00  0.25500000000E-02 0. -1.
         31    1    1    2    0    0  0.59577910821E+00  0.12032044330E+00  0.57551881261E+02  0.58034880826E+02  0.74470750000E+01 0.  1.
        -31    1    1    2    0    0 -0.59577910821E+00 -0.12032044330E+00  0.61665028546E+02  0.62116053492E+02  0.74470750000E+01 0.  1.
<mgrwt>
<rscale>  0 0.14952439E+02</rscale>
<asrwt>0</asrwt>
<pdfrwt beam="2">  1        2 0.99189133E+00 0.14952439E+02</pdfrwt>
<pdfrwt beam="1">  1       -2 0.99349199E+00 0.14952439E+02</pdfrwt>
<totfact>-0.14247509E-13</totfact>
</mgrwt>
</event>
<event>
 4    1  0.4882314E-019  0.1494107E+02  0.7818608E-02  0.1869872E+00
         -2   -1    0    0    0  501 -0.00000000000E+00  0.00000000000E+00  0.11870056714E+03  0.11870056716E+03  0.25500000000E-02 0.  1.
          2   -1    0    0  501    0  0.00000000000E+00 -0.00000000000E+00 -0.47016170204E+00  0.47016861717E+00  0.25500000000E-02 0. -1.
         31    1    1    2    0    0  0.30000895876E+00  0.27467130505E+00  0.55689225079E+02  0.56186423321E+02  0.74470750000E+01 0. -1.
        -31    1    1    2    0    0 -0.30000895876E+00 -0.27467130505E+00  0.62541180356E+02  0.62984312460E+02  0.74470750000E+01 0.  1.
<mgrwt>
<rscale>  0 0.14941067E+02</rscale>
<asrwt>0</asrwt>
<pdfrwt beam="2">  1        2 0.99852927E+00 0.14941067E+02</pdfrwt>
<pdfrwt beam="1">  1       -2 0.98538702E+00 0.14941067E+02</pdfrwt>
<totfact> 0.18549254E-13</totfact>
</mgrwt>
</event>
<event>
 4    1 -0.4882314E-019  0.1496577E+02  0.7818608E-02  0.1869115E+00
          2   -1    0    0  501    0  0.00000000000E+00  0.00000000000E+00  0.11907457411E+03  0.11907457414E+03  0.25500000000E-02 0. -1.
         -2   -1    0    0    0  501 -0.00000000000E+00 -0.00000000000E+00 -0.47023572415E+00  0.47024263818E+00  0.25500000000E-02 0.  1.
         31    1    1    2    0    0  0.66310011125E+00 -0.28993547735E+00  0.60133948931E+02  0.60597644380E+02  0.74470750000E+01 0.  1.
        -31    1    1    2    0    0 -0.66310011125E+00  0.28993547735E+00  0.58470389453E+02  0.58947172393E+02  0.74470750000E+01 0.  1.
<mgrwt>
<rscale>  0 0.14965765E+02</rscale>
<asrwt>0</asrwt>
<pdfrwt beam="1">  1        2 0.98848019E+00 0.14965765E+02</pdfrwt>
<pdfrwt beam="2">  1       -2 0.99869823E+00 0.14965765E+02</pdfrwt>
<totfact>-0.86767418E-14</totfact>
</mgrwt>
</event>
<event>
 4    1 -0.4882314E-019  0.1497959E+02  0.7818608E-02  0.1868692E+00
         -2   -1    0    0    0  501 -0.00000000000E+00  0.00000000000E+00  0.11967011173E+03  0.11967011176E+03  0.25500000000E-02 0.  1.
          2   -1    0    0  501    0  0.00000000000E+00 -0.00000000000E+00 -0.46876043969E+00  0.46876737549E+00  0.25500000000E-02 0. -1.
         31    1    1    2    0    0  0.13822958779E+00  0.64450005482E+00  0.55981643652E+02  0.56478649415E+02  0.74470750000E+01 0.  1.
        -31    1    1    2    0    0 -0.13822958779E+00 -0.64450005482E+00  0.63219707638E+02  0.63660229717E+02  0.74470750000E+01 0.  1.
<mgrwt>
<rscale>  0 0.14979590E+02</rscale>
<asrwt>0</asrwt>
<pdfrwt beam="2">  1        2 0.99559675E+00 0.14979590E+02</pdfrwt>
<pdfrwt beam="1">  1       -2 0.99339231E+00 0.14979590E+02</pdfrwt>
<totfact>-0.10278449E-13</totfact>
</mgrwt>
</event>
<event>
 4    1  0.4882314E-019  0.1492011E+02  0.7818608E-02  0.1870516E+00
          2   -1    0    0  501    0  0.00000000000E+00  0.00000000000E+00  0.11984520087E+03  0.11984520090E+03  0.25500000000E-02 0. -1.
         -2   -1    0    0    0  501 -0.00000000000E+00 -0.00000000000E+00 -0.46436597802E+00  0.46437297945E+00  0.25500000000E-02 0.  1.
         31    1    1    2    0    0  0.23544545559E+00  0.25866518375E+00  0.61841874589E+02  0.62289635743E+02  0.74470750000E+01 0. -1.
        -31    1    1    2    0    0 -0.23544545559E+00 -0.25866518375E+00  0.57538960305E+02  0.58019938136E+02  0.74470750000E+01 0.  1.
<mgrwt>
<rscale>  0 0.14920115E+02</rscale>
<asrwt>0</asrwt>
<pdfrwt beam="1">  1        2 0.99480373E+00 0.14920115E+02</pdfrwt>
<pdfrwt beam="2">  1       -2 0.98630517E+00 0.14920115E+02</pdfrwt>
<totfact> 0.32738807E-13</totfact>
</mgrwt>
</event>
<event>
 4    1  0.4882314E-019  0.1493977E+02  0.7818608E-02  0.1869912E+00
          2   -1    0    0  501    0  0.00000000000E+00  0.00000000000E+00  0.11987469765E+03  0.11987469767E+03  0.25500000000E-02 0. -1.
         -2   -1    0    0    0  501 -0.00000000000E+00 -0.00000000000E+00 -0.46547561907E+00  0.46548260381E+00  0.25500000000E-02 0.  1.
         31    1    1    2    0    0  0.91308693669E-01 -0.52842607570E+00  0.61553296759E+02  0.62004474349E+02  0.74470750000E+01 0. -1.
        -31    1    1    2    0    0 -0.91308693669E-01  0.52842607570E+00  0.57855925269E+02  0.58335705929E+02  0.74470750000E+01 0.  1.
<mgrwt>
<rscale>  0 0.14939769E+02</rscale>
<asrwt>0</asrwt>
<pdfrwt beam="1">  1        2 0.99505681E+00 0.14939769E+02</pdfrwt>
<pdfrwt beam="2">  1       -2 0.98865381E+00 0.14939769E+02</pdfrwt>
<totfact> 0.97459786E-14</totfact>
</mgrwt>
</event>
<event>
 4    1  0.4882314E-019  0.1490191E+02  0.7818608E-02  0.1871076E+00
          2   -1    0    0  501    0  0.00000000000E+00  0.00000000000E+00  0.12034629926E+03  0.12034629929E+03  0.25500000000E-02 0.  1.
         -2   -1    0    0    0  501 -0.00000000000E+00 -0.00000000000E+00 -0.46130489595E+00  0.46131194384E+00  0.25500000000E-02 0. -1.
         31    1    1    2    0    0  0.68625031119E-01  0.12812121317E+00  0.58389153450E+02  0.58862324887E+02  0.74470750000E+01 0. -1.
        -31    1    1    2    0    0 -0.68625031119E-01 -0.12812121317E+00  0.61495840914E+02  0.61945286344E+02  0.74470750000E+01 0.  1.
<mgrwt>
<rscale>  0 0.14901915E+02</rscale>
<asrwt>0</asrwt>
<pdfrwt beam="1">  1        2 0.99892185E+00 0.14901915E+02</pdfrwt>
<pdfrwt beam="2">  1       -2 0.97984416E+00 0.14901915E+02</pdfrwt>
<totfact> 0.47612566E-13</totfact>
</mgrwt>
</event>
<event>
 4    1 -0.4882314E-019  0.1491199E+02  0.7818608E-02  0.1870766E+00
          2   -1    0    0  501    0  0.00000000000E+00  0.00000000000E+00  0.11873591769E+03  0.11873591771E+03  0.25500000000E-02 0.  1.
         -2   -1    0    0    0  501 -0.00000000000E+00 -0.00000000000E+00 -0.46819409148E+00  0.46820103567E+00  0.25500000000E-02 0. -1.
         31    1    1    2    0    0  0.25046997513E+00 -0.32915983022E-01  0.61235587446E+02  0.61687275143E+02  0.74470750000E+01 0.  1.
        -31    1    1    2    0    0 -0.25046997513E+00  0.32915983022E-01  0.57032136149E+02  0.57516843606E+02  0.74470750000E+01 0.  1.
<mgrwt>
<rscale>  0 0.14911991E+02</rscale>
<asrwt>0</asrwt>
<pdfrwt beam="1">  1        2 0.98566306E+00 0.14911991E+02</pdfrwt>
<pdfrwt beam="2">  1       -2 0.99436810E+00 0.14911991E+02</pdfrwt>
<totfact>-0.31123429E-13</totfact>
</mgrwt>
</event>
<event>
 4    1 -0.4882314E-019  0.1489980E+02  0.7818608E-02  0.1871142E+00
         -2   -1    0    0    0  501 -0.00000000000E+00  0.00000000000E+00  0.11981793717E+03  0.11981793719E+03  0.25500000000E-02 0.  1.
          2   -1    0    0  501    0  0.00000000000E+00 -0.00000000000E+00 -0.46320749116E+00  0.46321451010E+00  0.25500000000E-02 0. -1.
         31    1    1    2    0    0 -0.16404572595E+00 -0.80382735007E-01  0.58924769150E+02  0.59393776760E+02  0.74470750000E+01 0. -1.
        -31    1    1    2    0    0  0.16404572595E+00  0.80382735007E-01  0.60429960525E+02  0.60887374944E+02  0.74470750000E+01 0. -1.
<mgrwt>
<rscale>  0 0.14899797E+02</rscale>
<asrwt>0</asrwt>
<pdfrwt beam="2">  1        2 0.98385321E+00 0.14899797E+02</pdfrwt>
<pdfrwt beam="1">  1       -2 0.99456872E+00 0.14899797E+02</pdfrwt>
<totfact>-0.42004927E-13</totfact>
</mgrwt>
</event>
<event>
 4    1 -0.4882314E-019  0.1495977E+02  0.7818608E-02  0.1869299E+00
         -2   -1    0    0    0  501 -0.00000000000E+00  0.00000000000E+00  0.12010261157E+03  0.12010261159E+03  0.25500000000E-02 0. -1.
          2   -1    0    0  501    0  0.00000000000E+00 -0.00000000000E+00 -0.46583701908E+00  0.46584399840E+00  0.25500000000E-02 0.  1.
         31    1    1    2    0    0  0.30282181504E+00  0.61587023988E+00  0.60921736483E+02  0.61379050982E+02  0.74470750000E+01 0. -1.
        -31    1    1    2    0    0 -0.30282181504E+00 -0.61587023988E+00  0.58715038063E+02  0.59189404609E+02  0.74470750000E+01 0. -1.
<mgrwt>
<rscale>  0 0.14959768E+02</rscale>
<asrwt>0</asrwt>
<pdfrwt beam="2">  1        2 0.98942570E+00 0.14959768E+02</pdfrwt>
<pdfrwt beam="1">  1       -2 0.99694435E+00 0.14959768E+02</pdfrwt>
<totfact>-0.15329785E-13</totfact>
</mgrwt>
</event>
<event>
 4    1 -0.4882314E-019  0.1498284E+02  0.7818608E-02  0.1868592E+00
          2   -1    0    0  501    0  0.00000000000E+00  0.00000000000E+00  0.11934372250E+03  0.11934372253E+03  0.25500000000E-02 0.  1.
         -2   -1    0    0    0  501 -0.00000000000E+00 -0.00000000000E+00 -0.47024665367E+00  0.47025356754E+00  0.25500000000E-02 0. -1.
         31    1    1    2    0    0  0.74657040299E+00  0.17432064072E+00  0.57250818520E+02  0.57738227391E+02  0.74470750000E+01 0.  1.
        -31    1    1    2    0    0 -0.74657040299E+00 -0.17432064072E+00  0.61622657326E+02  0.62075748703E+02  0.74470750000E+01 0. -1.
<mgrwt>
<rscale>  0 0.14982844E+02</rscale>
<asrwt>0</asrwt>
<pdfrwt beam="1">  1        2 0.99070578E+00 0.14982844E+02</pdfrwt>
<pdfrwt beam="2">  1       -2 0.99873021E+00 0.14982844E+02</pdfrwt>
<totfact>-0.67628846E-14</totfact>
</mgrwt>
</event>
<event>
 4    1  0.4882314E-019  0.1492156E+02  0.7818608E-02  0.1870472E+00
         -2   -1    0    0    0  501 -0.00000000000E+00  0.00000000000E+00  0.11854817847E+03  0.11854817850E+03  0.25500000000E-02 0. -1.
          2   -1    0    0  501    0  0.00000000000E+00 -0.00000000000E+00 -0.46953741959E+00  0.46954434390E+00  0.25500000000E-02 0.  1.
         31    1    1    2    0    0  0.24028965418E+00 -0.30980649258E+00  0.57245568983E+02  0.57729263060E+02  0.74470750000E+01 0.  1.
        -31    1    1    2    0    0 -0.24028965418E+00  0.30980649258E+00  0.60833072067E+02  0.61288459781E+02  0.74470750000E+01 0. -1.
<mgrwt>
<rscale>  0 0.14921557E+02</rscale>
<asrwt>0</asrwt>
<pdfrwt beam="2">  1        2 0.99720361E+00 0.14921557E+02</pdfrwt>
<pdfrwt beam="1">  1       -2 0.98412180E+00 0.14921557E+02</pdfrwt>
<totfact> 0.43077709E-13</totfact>
</mgrwt>
</event>
<event>
 4    1 -0.4882314E-019  0.1491721E+02  0.7818608E-02  0.1870605E+00
         -2   -1    0    0    0  501 -0.00000000000E+00  0.00000000000E+00  0.11952438605E+03  0.11952438607E+03  0.25500000000E-02 0.  1.
          2   -1    0    0  501    0  0.00000000000E+00 -0.00000000000E+00 -0.46543124272E+00  0.46543822812E+00  0.25500000000E-02 0. -1.
         31    1    1    2    0    0 -0.15954804135E+00  0.32775066783E+00  0.57940927504E+02  0.58418686070E+02  0.74470750000E+01 0. -1.
        -31    1    1    2    0    0  0.15954804135E+00 -0.32775066783E+00  0.61118027301E+02  0.61571138233E+02  0.74470750000E+01 0. -1.
<mgrwt>
<rscale>  0 0.14917212E+02</rscale>
<asrwt>0</asrwt>
<pdfrwt beam="2">  1        2 0.98854872E+00 0.14917212E+02</pdfrwt>
<pdfrwt beam="1">  1       -2 0.99215982E+00 0.14917212E+02</pdfrwt>
<totfact>-0.14615667E-13</totfact>
</mgrwt>
</event>
<event>
 4    1 -0.4882314E-019  0.1492723E+02  0.7818608E-02  0.1870297E+00
          2   -1    0    0  501    0  0.00000000000E+00  0.00000000000E+00  0.11884375224E+03  0.11884375227E+03  0.25500000000E-02 0. -1.
         -2   -1    0    0    0  501 -0.00000000000E+00 -0.00000000000E+00 -0.46872597117E+00  0.46873290748E+00  0.25500000000E-02 0.  1.
         31    1    1    2    0    0  0.17113688969E+00  0.42164758748E+00  0.60777446176E+02  0.61233683250E+02  0.74470750000E+01 0. -1.
        -31    1    1    2    0    0 -0.17113688969E+00 -0.42164758748E+00  0.57597580096E+02  0.58078801929E+02  0.74470750000E+01 0.  1.
<mgrwt>
<rscale>  0 0.14927233E+02</rscale>
<asrwt>0</asrwt>
<pdfrwt beam="1">  1        2 0.98655911E+00 0.14927233E+02</pdfrwt>
<pdfrwt beam="2">  1       -2 0.99549682E+00 0.14927233E+02</pdfrwt>
<totfact>-0.26674557E-13</totfact>
</mgrwt>
</event>
<event>
 4    1 -0.4882314E-019  0.1498694E+02  0.7818608E-02  0.1868467E+00
         -2   -1    0    0    0  501 -0.00000000000E+00  0.00000000000E+00  0.12014230662E+03  0.12014230664E+03  0.25500000000E-02 0. -1.
          2   -1    0    0  501    0  0.00000000000E+00 -0.00000000000E+00 -0.46737628639E+00  0.46738324273E+00  0.25500000000E-02 0.  1.
         31    1    1    2    0    0 -0.15997347580E+00  0.12186624235E+00  0.53335691982E+02  0.53853462360E+02  0.74470750000E+01 0.  1.
        -31    1    1    2    0    0  0.15997347580E+00 -0.12186624235E+00  0.66339238348E+02  0.66756227527E+02  0.74470750000E+01 0. -1.
<mgrwt>
<rscale>  0 0.14986939E+02</rscale>
<asrwt>0</asrwt>
<pdfrwt beam="2">  1        2 0.99268361E+00 0.14986939E+02</pdfrwt>
<pdfrwt beam="1">  1       -2 0.99728530E+00 0.14986939E+02</pdfrwt>
<totfact>-0.10791872E-13</totfact>
</mgrwt>
</event>
<event>
 4    1 -0.4882314E-019  0.1490488E+02  0.7818608E-02  0.1870985E+00
         -2   -1    0    0    0  501 -0.00000000000E+00  0.00000000000E+00  0.12007323763E+03  0.12007323766E+03  0.25500000000E-02 0.  1.
          2   -1    0    0  501    0  0.00000000000E+00 -0.00000000000E+00 -0.46253777182E+00  0.46254480092E+00  0.25500000000E-02 0. -1.
         31    1    1    2    0    0  0.14262531382E+00 -0.23080742560E+00  0.59163823401E+02  0.59631288260E+02  0.74470750000E+01 0.  1.
        -31    1    1    2    0    0 -0.14262531382E+00  0.23080742560E+00  0.60446876457E+02  0.60904494198E+02  0.74470750000E+01 0. -1.
<mgrwt>
<rscale>  0 0.14904876E+02</rscale>
<asrwt>0</asrwt>
<pdfrwt beam="2">  1        2 0.98244425E+00 0.14904876E+02</pdfrwt>
<pdfrwt beam="1">  1       -2 0.99667418E+00 0.14904876E+02</pdfrwt>
<totfact>-0.45411201E-13</totfact>
</mgrwt>
</event>
<event>
 4    1 -0.4882314E-019  0.1492294E+02  0.7818608E-02  0.1870429E+00
          2   -1    0    0  501    0  0.00000000000E+00  0.00000000000E+00  0.11844301965E+03  0.11844301968E+03  0.25500000000E-02 0.  1.
         -2   -1    0    0    0  501 -0.00000000000E+00 -0.00000000000E+00 -0.47004137340E+00  0.47004829029E+00  0.25500000000E-02 0. -1.
         31    1    1    2    0    0 -0.40348871965E+00  0.22750432704E+00  0.59039998551E+02  0.59509620368E+02  0.74470750000E+01 0.  1.
        -31    1    1    2    0    0  0.40348871965E+00 -0.22750432704E+00  0.58932979730E+02  0.59403447604E+02  0.74470750000E+01 0.  1.
<mgrwt>
<rscale>  0 0.14922940E+02</rscale>
<asrwt>0</asrwt>
<pdfrwt beam="1">  1        2 0.98325645E+00 0.14922940E+02</pdfrwt>
<pdfrwt beam="2">  1       -2 0.99826617E+00 0.14922940E+02</pdfrwt>
<totfact>-0.24504149E-13</totfact>
</mgrwt>
</event>
<event>
 4    1 -0.4882314E-019  0.1496226E+02  0.7818608E-02  0.1869222E+00
          2   -1    0    0  501    0  0.00000000000E+00  0.00000000000E+00  0.11897394407E+03  0.11897394410E+03  0.25500000000E-02 0. -1.
         -2   -1    0    0    0  501 -0.00000000000E+00 -0.00000000000E+00 -0.47041274711E+00  0.47041965855E+00  0.25500000000E-02 0.  1.
         31    1    1    2    0    0  0.17480939538E+00 -0.17073555787E+00  0.53904679013E+02  0.54417212852E+02  0.74470750000E+01 0.  1.
        -31    1    1    2    0    0 -0.17480939538E+00  0.17073555787E+00  0.64598852311E+02  0.65027150906E+02  0.74470750000E+01 0. -1.
<mgrwt>
<rscale>  0 0.14962256E+02</rscale>
<asrwt>0</asrwt>
<pdfrwt beam="1">  1        2 0.98764957E+00 0.14962256E+02</pdfrwt>
<pdfrwt beam="2">  1       -2 0.99906939E+00 0.14962256E+02</pdfrwt>
<totfact>-0.71093704E-14</totfact>
</mgrwt>
</event>
<event>
 4    1 -0.4882314E-019  0.1492195E+02  0.7818608E-02  0.1870460E+00
          2   -1    0    0  501    0  0.00000000000E+00  0.00000000000E+00  0.11877722157E+03  0.11877722160E+03  0.25500000000E-02 0.  1.
         -2   -1    0    0    0  501 -0.00000000000E+00 -0.00000000000E+00 -0.46865645010E+00  0.46866338744E+00  0.25500000000E-02 0. -1.
         31    1    1    2    0    0 -0.42026529798E+00  0.22525364947E-01  0.57768535632E+02  0.58248088084E+02  0.74470750000E+01 0.  1.
        -31    1    1    2    0    0  0.42026529798E+00 -0.22525364947E-01  0.60540029492E+02  0.60997796905E+02  0.74470750000E+01 0.  1.
<mgrwt>
<rscale>  0 0.14921947E+02</rscale>
<asrwt>0</asrwt>
<pdfrwt beam="1">  1        2 0.98600841E+00 0.14921947E+02</pdfrwt>
<pdfrwt beam="2">  1       -2 0.99534756E+00 0.14921947E+02</pdfrwt>
<totfact>-0.29230177E-13</totfact>
</mgrwt>
</event>
<event>
 4    1  0.4882314E-019  0.1490941E+02  0.7818608E-02  0.1870846E+00
          2   -1    0    0  501    0  0.00000000000E+00  0.00000000000E+00  0.11993427176E+03  0.11993427178E+03  0.25500000000E-02 0. -1.
         -2   -1    0    0    0  501 -0.00000000000E+00 -0.00000000000E+00 -0.46335535232E+00  0.46336236902E+00  0.25500000000E-02 0.  1.
         31    1    1    2    0    0  0.13283398239E+00 -0.30526508561E+00  0.59304123397E+02  0.59770802316E+02  0.74470750000E+01 0.  1.
        -31    1    1    2    0    0 -0.13283398239E+00  0.30526508561E+00  0.60166793008E+02  0.60626831837E+02  0.74470750000E+01 0. -1.
<mgrwt>
<rscale>  0 0.14909408E+02</rscale>
<asrwt>0</asrwt>
<pdfrwt beam="1">  1        2 0.99553188E+00 0.14909408E+02</pdfrwt>
<pdfrwt beam="2">  1       -2 0.98416973E+00 0.14909408E+02</pdfrwt>
<totfact> 0.56983635E-13</totfact>
</mgrwt>
</event>
<event>
 4    1  0.4882314E-019  0.1496263E+02  0.7818608E-02  0.1869211E+00
         -2   -1    0    0    0  501 -0.00000000000E+00  0.00000000000E+00  0.11906986792E+03  0.11906986795E+03  0.25500000000E-02 0.  1.
          2   -1    0    0  501    0  0.00000000000E+00 -0.00000000000E+00 -0.47005710052E+00  0.47006401719E+00  0.25500000000E-02 0. -1.
         31    1    1    2    0    0  0.16036025532E+00 -0.64789978720E+00  0.61346714068E+02  0.61800677525E+02  0.74470750000E+01 0.  1.
        -31    1    1    2    0    0 -0.16036025532E+00  0.64789978720E+00  0.57253096752E+02  0.57739254440E+02  0.74470750000E+01 0.  1.
<mgrwt>
<rscale>  0 0.14962627E+02</rscale>
<asrwt>0</asrwt>
<pdfrwt beam="2">  1        2 0.99832021E+00 0.14962627E+02</pdfrwt>
<pdfrwt beam="1">  1       -2 0.98843980E+00 0.14962627E+02</pdfrwt>
<totfact> 0.54856159E-14</totfact>
</mgrwt>
</event>
<event>
 4    1  0.4882314E-019  0.1491700E+02  0.7818608E-02  0.1870612E+00
         -2   -1    0    0    0  501 -0.00000000000E+00  0.00000000000E+00  0.11829335341E+03  0.11829335343E+03  0.25500000000E-02 0. -1.
          2   -1    0    0  501    0  0.00000000000E+00 -0.00000000000E+00 -0.47026119700E+00  0.47026811066E+00  0.25500000000E-02 0.  1.
         31    1    1    2    0    0 -0.21694625375E+00 -0.18188528904E+00  0.61301523399E+02  0.61752861027E+02  0.74470750000E+01 0. -1.
        -31    1    1    2    0    0  0.21694625375E+00  0.18188528904E+00  0.56521568810E+02  0.57010760517E+02  0.74470750000E+01 0.  1.
<mgrwt>
<rscale>  0 0.14916995E+02</rscale>
<asrwt>0</asrwt>
<pdfrwt beam="2">  1        2 0.99872617E+00 0.14916995E+02</pdfrwt>
<pdfrwt beam="1">  1       -2 0.98202072E+00 0.14916995E+02</pdfrwt>
<totfact> 0.37055929E-13</totfact>
</mgrwt>
</event>
<event>
 4    1  0.4882314E-019  0.1493627E+02  0.7818608E-02  0.1870020E+00
         -2   -1    0    0    0  501 -0.00000000000E+00  0.00000000000E+00  0.11866387432E+03  0.11866387435E+03  0.25500000000E-02 0.  1.
          2   -1    0    0  501    0  0.00000000000E+00 -0.00000000000E+00 -0.47000507674E+00  0.47001199417E+00  0.25500000000E-02 0. -1.
         31    1    1    2    0    0  0.22240790998E+00  0.49534486413E+00  0.60204418307E+02  0.60665688338E+02  0.74470750000E+01 0.  1.
        -31    1    1    2    0    0 -0.22240790998E+00 -0.49534486413E+00  0.57989450938E+02  0.58468198005E+02  0.74470750000E+01 0. -1.
<mgrwt>
<rscale>  0 0.14936270E+02</rscale>
<asrwt>0</asrwt>
<pdfrwt beam="2">  1        2 0.99819673E+00 0.14936270E+02</pdfrwt>
<pdfrwt beam="1">  1       -2 0.98508233E+00 0.14936270E+02</pdfrwt>
<totfact> 0.23969225E-13</totfact>
</mgrwt>
</event>
<event>
 4    1 -0.4882314E-019  0.1493857E+02  0.7818608E-02  0.1869949E+00
         -2   -1    0    0    0  501 -0.00000000000E+00  0.00000000000E+00  0.11976853393E+03  0.11976853396E+03  0.25500000000E-02 0. -1.
          2   -1    0    0  501    0  0.00000000000E+00 -0.00000000000E+00 -0.46581317512E+00  0.46582015480E+00  0.25500000000E-02 0.  1.
         31    1    1    2    0    0  0.35304661265E+00 -0.36392107894E+00  0.61843411896E+02  0.62292243510E+02  0.74470750000E+01 0. -1.
        -31    1    1    2    0    0 -0.35304661265E+00  0.36392107894E+00  0.57459308860E+02  0.57942110604E+02  0.74470750000E+01 0.  1.
<mgrwt>
<rscale>  0 0.14938565E+02</rscale>
<asrwt>0</asrwt>
<pdfrwt beam="2">  1        2 0.98936459E+00 0.14938565E+02</pdfrwt>
<pdfrwt beam="1">  1       -2 0.99418176E+00 0.14938565E+02</pdfrwt>
<totfact>-0.18823435E-13</totfact>
</mgrwt>
</event>
<event>
 4    1  0.4882314E-019  0.1490378E+02  0.7818608E-02  0.1871019E+00
         -2   -1    0    0    0  501 -0.00000000000E+00  0.00000000000E+00  0.11844024181E+03  0.11844024184E+03  0.25500000000E-02 0. -1.
          2   -1    0    0  501    0  0.00000000000E+00 -0.00000000000E+00 -0.46884616377E+00  0.46885309830E+00  0.25500000000E-02 0.  1.
         31    1    1    2    0    0 -0.29315621800E-01 -0.26600751145E+00  0.59073632702E+02  0.59541788905E+02  0.74470750000E+01 0. -1.
        -31    1    1    2    0    0  0.29315621800E-01  0.26600751145E+00  0.58897762949E+02  0.59367306035E+02  0.74470750000E+01 0.  1.
<mgrwt>
<rscale>  0 0.14903780E+02</rscale>
<asrwt>0</asrwt>
<pdfrwt beam="2">  1        2 0.99573775E+00 0.14903780E+02</pdfrwt>
<pdfrwt beam="1">  1       -2 0.98322359E+00 0.14903780E+02</pdfrwt>
<totfact> 0.69526709E-13</totfact>
</mgrwt>
</event>
<event>
 4    1 -0.4882314E-019  0.1499711E+02  0.7818608E-02  0.1868157E+00
          2   -1    0    0  501    0  0.00000000000E+00  0.00000000000E+00  0.11962415963E+03  0.11962415965E+03  0.25500000000E-02 0. -1.
         -2   -1    0    0    0  501 -0.00000000000E+00 -0.00000000000E+00 -0.47003778456E+00  0.47004470151E+00  0.25500000000E-02 0.  1.
         31    1    1    2    0    0  0.58927850196E+00  0.60361832885E+00  0.57652487862E+02  0.58137594437E+02  0.74470750000E+01 0. -1.
        -31    1    1    2    0    0 -0.58927850196E+00 -0.60361832885E+00  0.61501633980E+02  0.61956609917E+02  0.74470750000E+01 0. -1.
<mgrwt>
<rscale>  0 0.14997105E+02</rscale>
<asrwt>0</asrwt>
<pdfrwt beam="1">  1        2 0.99302291E+00 0.14997105E+02</pdfrwt>
<pdfrwt beam="2">  1       -2 0.99829754E+00 0.14997105E+02</pdfrwt>
<totfact>-0.73218246E-14</totfact>
</mgrwt>
</event>
<event>
 4    1 -0.4882314E-019  0.1493755E+02  0.7818608E-02  0.1869980E+00
         -2   -1    0    0    0  501 -0.00000000000E+00  0.00000000000E+00  0.12003384518E+03  0.12003384521E+03  0.25500000000E-02 0. -1.
          2   -1    0    0  501    0  0.00000000000E+00 -0.00000000000E+00 -0.46472069601E+00  0.46472769209E+00  0.25500000000E-02 0.  1.
         31    1    1    2    0    0  0.56102472077E+00 -0.15539653005E-01  0.60537803967E+02  0.60996718153E+02  0.74470750000E+01 0. -1.
        -31    1    1    2    0    0 -0.56102472077E+00  0.15539653005E-01  0.59031320520E+02  0.59501854749E+02  0.74470750000E+01 0.  1.
<mgrwt>
<rscale>  0 0.14937555E+02</rscale>
<asrwt>0</asrwt>
<pdfrwt beam="2">  1        2 0.98706165E+00 0.14937555E+02</pdfrwt>
<pdfrwt beam="1">  1       -2 0.99636651E+00 0.14937555E+02</pdfrwt>
<totfact>-0.22707626E-13</totfact>
</mgrwt>
</event>
<event>
 4    1 -0.4882314E-019  0.1491881E+02  0.7818608E-02  0.1870556E+00
         -2   -1    0    0    0  501 -0.00000000000E+00  0.00000000000E+00  0.11969295119E+03  0.11969295121E+03  0.25500000000E-02 0.  1.
          2   -1    0    0  501    0  0.00000000000E+00 -0.00000000000E+00 -0.46487530678E+00  0.46488230053E+00  0.25500000000E-02 0. -1.
         31    1    1    2    0    0  0.17951937533E+00 -0.13193730662E+00  0.56664004000E+02  0.57151709599E+02  0.74470750000E+01 0. -1.
        -31    1    1    2    0    0 -0.17951937533E+00  0.13193730662E+00  0.62564071880E+02  0.63006123916E+02  0.74470750000E+01 0.  1.
<mgrwt>
<rscale>  0 0.14918809E+02</rscale>
<asrwt>0</asrwt>
<pdfrwt beam="2">  1        2 0.98737793E+00 0.14918809E+02</pdfrwt>
<pdfrwt beam="1">  1       -2 0.99354904E+00 0.14918809E+02</pdfrwt>
<totfact>-0.22790201E-13</totfact>
</mgrwt>
</event>
<event>
 4    1 -0.4882314E-019  0.1494041E+02  0.7818608E-02  0.1869892E+00
         -2   -1    0    0    0  501 -0.00000000000E+00  0.00000000000E+00  0.11998109814E+03  0.11998109817E+03  0.25500000000E-02 0.  1.
          2   -1    0    0  501    0  0.00000000000E+00 -0.00000000000E+00 -0.46510250440E+00  0.46510949474E+00  0.25500000000E-02 0. -1.
         31    1    1    2    0    0 -0.32074010102E+00  0.47718404997E+00  0.58789679735E+02  0.59262264117E+02  0.74470750000E+01 0. -1.
        -31    1    1    2    0    0  0.32074010102E+00 -0.47718404997E+00  0.60726315903E+02  0.61183943547E+02  0.74470750000E+01 0.  1.
<mgrwt>
<rscale>  0 0.14940406E+02</rscale>
<asrwt>0</asrwt>
<pdfrwt beam="2">  1        2 0.98786779E+00 0.14940406E+02</pdfrwt>
<pdfrwt beam="1">  1       -2 0.99593352E+00 0.14940406E+02</pdfrwt>
<totfact>-0.21453791E-13</totfact>
</mgrwt>
</event>
<event>
 4    1  0.4882314E-019  0.1489568E+02  0.7818608E-02  0.1871269E+00
          2   -1    0    0  501    0  0.00000000000E+00  0.00000000000E+00  0.12000823560E+03  0.12000823563E+03  0.25500000000E-02 0. -1.
         -2   -1    0    0    0  501 -0.00000000000E+00 -0.00000000000E+00 -0.46221730819E+00  0.46222434217E+00  0.25500000000E-02 0.  1.
         31    1    1    2    0    0 -0.10054165764E+00 -0.20713142424E-01  0.59537879071E+02  0.60001904203E+02  0.74470750000E+01 0.  1.
        -31    1    1    2    0    0  0.10054165764E+00  0.20713142424E-01  0.60008139225E+02  0.60468555770E+02  0.74470750000E+01 0. -1.
<mgrwt>
<rscale>  0 0.14895678E+02</rscale>
<asrwt>0</asrwt>
<pdfrwt beam="1">  1        2 0.99613405E+00 0.14895678E+02</pdfrwt>
<pdfrwt beam="2">  1       -2 0.98176416E+00 0.14895678E+02</pdfrwt>
<totfact> 0.89154460E-13</totfact>
</mgrwt>
</event>
<event>
 4    1  0.4882314E-019  0.1494904E+02  0.7818608E-02  0.1869628E+00
         -2   -1    0    0    0  501 -0.00000000000E+00  0.00000000000E+00  0.11884812951E+03  0.11884812954E+03  0.25500000000E-02 0.  1.
          2   -1    0    0  501    0  0.00000000000E+00 -0.00000000000E+00 -0.47007915774E+00  0.47008607408E+00  0.25500000000E-02 0. -1.
         31    1    1    2    0    0 -0.57960801087E+00  0.27044348098E+00  0.59354862867E+02  0.59823638782E+02  0.74470750000E+01 0. -1.
        -31    1    1    2    0    0  0.57960801087E+00 -0.27044348098E+00  0.59023187490E+02  0.59494576834E+02  0.74470750000E+01 0. -1.
<mgrwt>
<rscale>  0 0.14949039E+02</rscale>
<asrwt>0</asrwt>
<pdfrwt beam="2">  1        2 0.99835955E+00 0.14949039E+02</pdfrwt>
<pdfrwt beam="1">  1       -2 0.98660649E+00 0.14949039E+02</pdfrwt>
<totfact> 0.13473063E-13</totfact>
</mgrwt>
</event>
<event>
 4    1 -0.4882314E-019  0.1493563E+02  0.7818608E-02  0.1870039E+00
          2   -1    0    0  501    0  0.00000000000E+00  0.00000000000E+00  0.11949028813E+03  0.11949028816E+03  0.25500000000E-02 0.  1.
         -2   -1    0    0    0  501 -0.00000000000E+00 -0.00000000000E+00 -0.46671445239E+00  0.46672141858E+00  0.25500000000E-02 0. -1.
         31    1    1    2    0    0 -0.44495927715E+00  0.21584664068E+00  0.61555655584E+02  0.62006469332E+02  0.74470750000E+01 0. -1.
        -31    1    1    2    0    0  0.44495927715E+00 -0.21584664068E+00  0.57467918092E+02  0.57950540243E+02  0.74470750000E+01 0.  1.
<mgrwt>
<rscale>  0 0.14935630E+02</rscale>
<asrwt>0</asrwt>
<pdfrwt beam="1">  1        2 0.99188848E+00 0.14935630E+02</pdfrwt>
<pdfrwt beam="2">  1       -2 0.99126244E+00 0.14935630E+02</pdfrwt>
<totfact>-0.67460147E-14</totfact>
</mgrwt>
</event>
<event>
 4    1  0.4882314E-019  0.1493821E+02  0.7818608E-02  0.1869960E+00
          2   -1    0    0  501    0  0.00000000000E+00  0.00000000000E+00  0.11984632902E+03  0.11984632904E+03  0.25500000000E-02 0. -1.
         -2   -1    0    0    0  501 -0.00000000000E+00 -0.00000000000E+00 -0.46548841131E+00  0.46549539586E+00  0.25500000000E-02 0.  1.
         31    1    1    2    0    0 -0.19814397642E+00  0.44368493445E+00  0.62139351938E+02  0.62585893799E+02  0.74470750000E+01 0.  1.
        -31    1    1    2    0    0  0.19814397642E+00 -0.44368493445E+00  0.57241488667E+02  0.57725930640E+02  0.74470750000E+01 0.  1.
<mgrwt>
<rscale>  0 0.14938206E+02</rscale>
<asrwt>0</asrwt>
<pdfrwt beam="1">  1        2 0.99482234E+00 0.14938206E+02</pdfrwt>
<pdfrwt beam="2">  1       -2 0.98867997E+00 0.14938206E+02</pdfrwt>
<totfact> 0.97771436E-14</totfact>
</mgrwt>
</event>
<event>
 4    1  0.4882314E-019  0.1491603E+02  0.7818608E-02  0.1870642E+00
          2   -1    0    0  501    0  0.00000000000E+00  0.00000000000E+00  0.11977927195E+03  0.11977927198E+03  0.25500000000E-02 0.  1.
         -2   -1    0    0    0  501 -0.00000000000E+00 -0.00000000000E+00 -0.46436736800E+00  0.46437436941E+00  0.25500000000E-02 0. -1.
         31    1    1    2    0    0  0.35357427480E+00 -0.10235109188E+00  0.60996495375E+02  0.61450523713E+02  0.74470750000E+01 0. -1.
        -31    1    1    2    0    0 -0.35357427480E+00  0.10235109188E+00  0.58318409208E+02  0.58793122634E+02  0.74470750000E+01 0. -1.
<mgrwt>
<rscale>  0 0.14916033E+02</rscale>
<asrwt>0</asrwt>
<pdfrwt beam="1">  1        2 0.99425860E+00 0.14916033E+02</pdfrwt>
<pdfrwt beam="2">  1       -2 0.98630601E+00 0.14916033E+02</pdfrwt>
<totfact> 0.34392034E-13</totfact>
</mgrwt>
</event>
<event>
 4    1  0.4882314E-019  0.1489818E+02  0.7818608E-02  0.1871192E+00
         -2   -1    0    0    0  501 -0.00000000000E+00  0.00000000000E+00  0.11812321846E+03  0.11812321849E+03  0.25500000000E-02 0.  1.
          2   -1    0    0  501    0  0.00000000000E+00 -0.00000000000E+00 -0.46975099810E+00  0.46975791927E+00  0.25500000000E-02 0. -1.
         31    1    1    2    0    0  0.82154407273E-01  0.12652265044E+00  0.58149953727E+02  0.58625069738E+02  0.74470750000E+01 0. -1.
        -31    1    1    2    0    0 -0.82154407273E-01 -0.12652265044E+00  0.59503513733E+02  0.59967906666E+02  0.74470750000E+01 0. -1.
<mgrwt>
<rscale>  0 0.14898176E+02</rscale>
<asrwt>0</asrwt>
<pdfrwt beam="2">  1        2 0.99764125E+00 0.14898176E+02</pdfrwt>
<pdfrwt beam="1">  1       -2 0.98060970E+00 0.14898176E+02</pdfrwt>
<totfact> 0.79277216E-13</totfact>
</mgrwt>
</event>
<event>
 4    1 -0.4882314E-019  0.1496585E+02  0.7818608E-02  0.1869112E+00
          2   -1    0    0  501    0  0.00000000000E+00  0.00000000000E+00  0.12002063184E+03  0.12002063187E+03  0.25500000000E-02 0. -1.
         -2   -1    0    0    0  501 -0.00000000000E+00 -0.00000000000E+00 -0.46653413856E+00  0.46654110745E+00  0.25500000000E-02 0.  1.
         31    1    1    2    0    0  0.37780454162E+00 -0.31350237185E+00  0.64143805530E+02  0.64576526183E+02  0.74470750000E+01 0. -1.
        -31    1    1    2    0    0 -0.37780454162E+00  0.31350237185E+00  0.55410292173E+02  0.55910646793E+02  0.74470750000E+01 0.  1.
<mgrwt>
<rscale>  0 0.14965847E+02</rscale>
<asrwt>0</asrwt>
<pdfrwt beam="1">  1        2 0.99627225E+00 0.14965847E+02</pdfrwt>
<pdfrwt beam="2">  1       -2 0.99089799E+00 0.14965847E+02</pdfrwt>
<totfact>-0.31605636E-14</totfact>
</mgrwt>
</event>
<event>
 4    1  0.4882314E-019  0.1491360E+02  0.7818608E-02  0.1870717E+00
         -2   -1    0    0    0  501 -0.00000000000E+00  0.00000000000E+00  0.11910025974E+03  0.11910025977E+03  0.25500000000E-02 0.  1.
          2   -1    0    0  501    0  0.00000000000E+00 -0.00000000000E+00 -0.46686232831E+00  0.46686929231E+00  0.25500000000E-02 0. -1.
         31    1    1    2    0    0 -0.66107499352E-01  0.25712486968E+00  0.57129378423E+02  0.57613325615E+02  0.74470750000E+01 0. -1.
        -31    1    1    2    0    0  0.66107499352E-01 -0.25712486968E+00  0.61504018989E+02  0.61953803445E+02  0.74470750000E+01 0.  1.
<mgrwt>
<rscale>  0 0.14913597E+02</rscale>
<asrwt>0</asrwt>
<pdfrwt beam="2">  1        2 0.99156265E+00 0.14913597E+02</pdfrwt>
<pdfrwt beam="1">  1       -2 0.98866468E+00 0.14913597E+02</pdfrwt>
<totfact> 0.12741670E-13</totfact>
</mgrwt>
</event>
<event>
 4    1  0.4882314E-019  0.1489541E+02  0.7818608E-02  0.1871277E+00
         -2   -1    0    0    0  501 -0.00000000000E+00  0.00000000000E+00  0.11833269608E+03  0.11833269611E+03  0.25500000000E-02 0. -1.
          2   -1    0    0  501    0  0.00000000000E+00 -0.00000000000E+00 -0.46874556025E+00  0.46875249626E+00  0.25500000000E-02 0.  1.
         31    1    1    2    0    0 -0.17162427091E-02  0.98034051052E-02  0.58162228749E+02  0.58637052093E+02  0.74470750000E+01 0.  1.
        -31    1    1    2    0    0  0.17162427091E-02 -0.98034051052E-02  0.59701721772E+02  0.60164396512E+02  0.74470750000E+01 0. -1.
<mgrwt>
<rscale>  0 0.14895414E+02</rscale>
<asrwt>0</asrwt>
<pdfrwt beam="2">  1        2 0.99552137E+00 0.14895414E+02</pdfrwt>
<pdfrwt beam="1">  1       -2 0.98233350E+00 0.14895414E+02</pdfrwt>
<totfact> 0.86530276E-13</totfact>
</mgrwt>
</event>
<event>
 4    1 -0.4882314E-019  0.1491612E+02  0.7818608E-02  0.1870639E+00
         -2   -1    0    0    0  501 -0.00000000000E+00  0.00000000000E+00  0.12009419567E+03  0.12009419570E+03  0.25500000000E-02 0.  1.
          2   -1    0    0  501    0  0.00000000000E+00 -0.00000000000E+00 -0.46315520825E+00  0.46316222798E+00  0.25500000000E-02 0. -1.
         31    1    1    2    0    0  0.21939489817E+00 -0.31881839060E+00  0.58860172719E+02  0.59330671982E+02  0.74470750000E+01 0.  1.
        -31    1    1    2    0    0 -0.21939489817E+00  0.31881839060E+00  0.60770867741E+02  0.61226685941E+02  0.74470750000E+01 0.  1.
<mgrwt>
<rscale>  0 0.14916122E+02</rscale>
<asrwt>0</asrwt>
<pdfrwt beam="2">  1        2 0.98375131E+00 0.14916122E+02</pdfrwt>
<pdfrwt beam="1">  1       -2 0.99685258E+00 0.14916122E+02</pdfrwt>
<totfact>-0.35231381E-13</totfact>
</mgrwt>
</event>
<event>
 4    1 -0.4882314E-019  0.1489487E+02  0.7818608E-02  0.1871293E+00
         -2   -1    0    0    0  501 -0.00000000000E+00  0.00000000000E+00  0.11994910125E+03  0.11994910127E+03  0.25500000000E-02 0.  1.
          2   -1    0    0  501    0  0.00000000000E+00 -0.00000000000E+00 -0.46239528281E+00  0.46240231408E+00  0.25500000000E-02 0. -1.
         31    1    1    2    0    0 -0.47749685470E-01  0.29210470308E-01  0.59358682027E+02  0.59824035231E+02  0.74470750000E+01 0.  1.
        -31    1    1    2    0    0  0.47749685470E-01 -0.29210470308E-01  0.60128023937E+02  0.60587468357E+02  0.74470750000E+01 0.  1.
<mgrwt>
<rscale>  0 0.14894875E+02</rscale>
<asrwt>0</asrwt>
<pdfrwt beam="2">  1        2 0.98213887E+00 0.14894875E+02</pdfrwt>
<pdfrwt beam="1">  1       -2 0.99564656E+00 0.14894875E+02</pdfrwt>
<totfact>-0.54290149E-13</totfact>
</mgrwt>
</event>
<event>
 4    1  0.4882314E-019  0.1490898E+02  0.7818608E-02  0.1870859E+00
         -2   -1    0    0    0  501 -0.00000000000E+00  0.00000000000E+00  0.11840971978E+03  0.11840971981E+03  0.25500000000E-02 0. -1.
          2   -1    0    0  501    0  0.00000000000E+00 -0.00000000000E+00 -0.46929444623E+00  0.46930137413E+00  0.25500000000E-02 0.  1.
         31    1    1    2    0    0 -0.72623725903E-01 -0.82312028140E-01  0.61472234136E+02  0.61921777633E+02  0.74470750000E+01 0. -1.
        -31    1    1    2    0    0  0.72623725903E-01  0.82312028140E-01  0.56468191198E+02  0.56957243549E+02  0.74470750000E+01 0.  1.
<mgrwt>
<rscale>  0 0.14908982E+02</rscale>
<asrwt>0</asrwt>
<pdfrwt beam="2">  1        2 0.99668503E+00 0.14908982E+02</pdfrwt>
<pdfrwt beam="1">  1       -2 0.98297492E+00 0.14908982E+02</pdfrwt>
<totfact> 0.63135450E-13</totfact>
</mgrwt>
</event>
<event>
 4    1 -0.4882314E-019  0.1494749E+02  0.7818608E-02  0.1869675E+00
          2   -1    0    0  501    0  0.00000000000E+00  0.00000000000E+00  0.11882803221E+03  0.11882803224E+03  0.25500000000E-02 0.  1.
         -2   -1    0    0    0  501 -0.00000000000E+00 -0.00000000000E+00 -0.47006108002E+00  0.47006799663E+00  0.25500000000E-02 0. -1.
         31    1    1    2    0    0 -0.51668598134E+00 -0.36058867434E+00  0.58935239007E+02  0.59407224405E+02  0.74470750000E+01 0.  1.
        -31    1    1    2    0    0  0.51668598134E+00  0.36058867434E+00  0.59422732127E+02  0.59890875833E+02  0.74470750000E+01 0. -1.
<mgrwt>
<rscale>  0 0.14947488E+02</rscale>
<asrwt>0</asrwt>
<pdfrwt beam="1">  1        2 0.98644016E+00 0.14947488E+02</pdfrwt>
<pdfrwt beam="2">  1       -2 0.99832064E+00 0.14947488E+02</pdfrwt>
<totfact>-0.14262764E-13</totfact>
</mgrwt>
</event>
<event>
 4    1 -0.4882314E-019  0.1492554E+02  0.7818608E-02  0.1870349E+00
         -2   -1    0    0    0  501 -0.00000000000E+00  0.00000000000E+00  0.12017226699E+03  0.12017226702E+03  0.25500000000E-02 0. -1.
          2   -1    0    0  501    0  0.00000000000E+00 -0.00000000000E+00 -0.46343866881E+00  0.46344568424E+00  0.25500000000E-02 0.  1.
         31    1    1    2    0    0 -0.29370711001E+00 -0.35511264253E+00  0.58666387133E+02  0.59138957331E+02  0.74470750000E+01 0.  1.
        -31    1    1    2    0    0  0.29370711001E+00  0.35511264253E+00  0.61042441189E+02  0.61496755372E+02  0.74470750000E+01 0.  1.
<mgrwt>
<rscale>  0 0.14925535E+02</rscale>
<asrwt>0</asrwt>
<pdfrwt beam="2">  1        2 0.98435352E+00 0.14925535E+02</pdfrwt>
<pdfrwt beam="1">  1       -2 0.99750048E+00 0.14925535E+02</pdfrwt>
<totfact>-0.27236120E-13</totfact>
</mgrwt>
</event>
<event>
 4    1 -0.4882314E-019  0.1493234E+02  0.7818608E-02  0.1870140E+00
          2   -1    0    0  501    0  0.00000000000E+00  0.00000000000E+00  0.11944791749E+03  0.11944791752E+03  0.25500000000E-02 0. -1.
         -2   -1    0    0    0  501 -0.00000000000E+00 -0.00000000000E+00 -0.46667431399E+00  0.46668128079E+00  0.25500000000E-02 0.  1.
         31    1    1    2    0    0 -0.24654091981E-01 -0.43646305667E+00  0.57032959168E+02  0.57518766201E+02  0.74470750000E+01 0.  1.
        -31    1    1    2    0    0  0.24654091981E-01  0.43646305667E+00  0.61948284010E+02  0.62395832598E+02  0.74470750000E+01 0. -1.
<mgrwt>
<rscale>  0 0.14932340E+02</rscale>
<asrwt>0</asrwt>
<pdfrwt beam="1">  1        2 0.99153780E+00 0.14932340E+02</pdfrwt>
<pdfrwt beam="2">  1       -2 0.99117616E+00 0.14932340E+02</pdfrwt>
<totfact>-0.64665501E-14</totfact>
</mgrwt>
</event>
<event>
 4    1 -0.4882314E-019  0.1501562E+02  0.7818608E-02  0.1867592E+00
          2   -1    0    0  501    0  0.00000000000E+00  0.00000000000E+00  0.12021796522E+03  0.12021796524E+03  0.25500000000E-02 0.  1.
         -2   -1    0    0    0  501 -0.00000000000E+00 -0.00000000000E+00 -0.46887189209E+00  0.46887882624E+00  0.25500000000E-02 0. -1.
         31    1    1    2    0    0 -0.63435153824E+00  0.55970698136E+00  0.56346815763E+02  0.56843102013E+02  0.74470750000E+01 0. -1.
        -31    1    1    2    0    0  0.63435153824E+00 -0.55970698136E+00  0.63402277560E+02  0.63843742056E+02  0.74470750000E+01 0.  1.
<mgrwt>
<rscale>  0 0.15015625E+02</rscale>
<asrwt>0</asrwt>
<pdfrwt beam="1">  1        2 0.99792327E+00 0.15015625E+02</pdfrwt>
<pdfrwt beam="2">  1       -2 0.99585024E+00 0.15015625E+02</pdfrwt>
<totfact>-0.64253206E-14</totfact>
</mgrwt>
</event>
<event>
 4    1 -0.4882314E-019  0.1495206E+02  0.7818608E-02  0.1869535E+00
         -2   -1    0    0    0  501 -0.00000000000E+00  0.00000000000E+00  0.12023699809E+03  0.12023699811E+03  0.25500000000E-02 0. -1.
          2   -1    0    0  501    0  0.00000000000E+00 -0.00000000000E+00 -0.46483709444E+00  0.46484408877E+00  0.25500000000E-02 0.  1.
         31    1    1    2    0    0  0.10978129293E+00  0.64764983959E+00  0.60085830622E+02  0.60549132693E+02  0.74470750000E+01 0. -1.
        -31    1    1    2    0    0 -0.10978129293E+00 -0.64764983959E+00  0.59686330369E+02  0.60152709508E+02  0.74470750000E+01 0.  1.
<mgrwt>
<rscale>  0 0.14952062E+02</rscale>
<asrwt>0</asrwt>
<pdfrwt beam="2">  1        2 0.98731436E+00 0.14952062E+02</pdfrwt>
<pdfrwt beam="1">  1       -2 0.99804728E+00 0.14952062E+02</pdfrwt>
<totfact>-0.14253124E-13</totfact>
</mgrwt>
</event>
<event>
 4    1 -0.4882314E-019  0.1491218E+02  0.7818608E-02  0.1870760E+00
          2   -1    0    0  501    0  0.00000000000E+00  0.00000000000E+00  0.11868016634E+03  0.11868016637E+03  0.25500000000E-02 0. -1.
         -2   -1    0    0    0  501 -0.00000000000E+00 -0.00000000000E+00 -0.46842582428E+00  0.46843276503E+00  0.25500000000E-02 0.  1.
         31    1    1    2    0    0  0.27411666471E+00  0.19607637828E+00  0.60257040980E+02  0.60716418699E+02  0.74470750000E+01 0.  1.
        -31    1    1    2    0    0 -0.27411666471E+00 -0.19607637828E+00  0.57954699535E+02  0.58432180433E+02  0.74470750000E+01 0.  1.
<mgrwt>
<rscale>  0 0.14912179E+02</rscale>
<asrwt>0</asrwt>
<pdfrwt beam="1">  1        2 0.98520398E+00 0.14912179E+02</pdfrwt>
<pdfrwt beam="2">  1       -2 0.99485649E+00 0.14912179E+02</pdfrwt>
<totfact>-0.33663438E-13</totfact>
</mgrwt>
</event>
<event>
 4    1  0.4882314E-019  0.1491815E+02  0.7818608E-02  0.1870577E+00
          2   -1    0    0  501    0  0.00000000000E+00  0.00000000000E+00  0.12010819384E+03  0.12010819387E+03  0.25500000000E-02 0.  1.
         -2   -1    0    0    0  501 -0.00000000000E+00 -0.00000000000E+00 -0.46322687889E+00  0.46323389754E+00  0.25500000000E-02 0. -1.
         31    1    1    2    0    0  0.98139290186E-01 -0.47797424702E-02  0.56498072455E+02  0.56986847354E+02  0.74470750000E+01 0. -1.
        -31    1    1    2    0    0 -0.98139290186E-01  0.47797424702E-02  0.63146894505E+02  0.63584580409E+02  0.74470750000E+01 0.  1.
<mgrwt>
<rscale>  0 0.14918146E+02</rscale>
<asrwt>0</asrwt>
<pdfrwt beam="1">  1        2 0.99696892E+00 0.14918146E+02</pdfrwt>
<pdfrwt beam="2">  1       -2 0.98390339E+00 0.14918146E+02</pdfrwt>
<totfact> 0.48038683E-13</totfact>
</mgrwt>
</event>
<event>
 4    1 -0.4882314E-019  0.1491409E+02  0.7818608E-02  0.1870701E+00
          2   -1    0    0  501    0  0.00000000000E+00  0.00000000000E+00  0.11872763759E+03  0.11872763761E+03  0.25500000000E-02 0. -1.
         -2   -1    0    0    0  501 -0.00000000000E+00 -0.00000000000E+00 -0.46835866795E+00  0.46836560969E+00  0.25500000000E-02 0.  1.
         31    1    1    2    0    0  0.21389229104E+00  0.31765760917E+00  0.59482673724E+02  0.59948261491E+02  0.74470750000E+01 0.  1.
        -31    1    1    2    0    0 -0.21389229104E+00 -0.31765760917E+00  0.58776605193E+02  0.59247741732E+02  0.74470750000E+01 0. -1.
<mgrwt>
<rscale>  0 0.14914092E+02</rscale>
<asrwt>0</asrwt>
<pdfrwt beam="1">  1        2 0.98559595E+00 0.14914092E+02</pdfrwt>
<pdfrwt beam="2">  1       -2 0.99471598E+00 0.14914092E+02</pdfrwt>
<totfact>-0.31643525E-13</totfact>
</mgrwt>
</event>
<event>
 4    1  0.4882314E-019  0.1490152E+02  0.7818608E-02  0.1871089E+00
          2   -1    0    0  501    0  0.00000000000E+00  0.00000000000E+00  0.11935630301E+03  0.11935630304E+03  0.25500000000E-02 0. -1.
         -2   -1    0    0    0  501 -0.00000000000E+00 -0.00000000000E+00 -0.46510676008E+00  0.46511375036E+00  0.25500000000E-02 0.  1.
         31    1    1    2    0    0  0.17340958216E+00  0.57997565685E-02  0.60712215703E+02  0.61167492724E+02  0.74470750000E+01 0. -1.
        -31    1    1    2    0    0 -0.17340958216E+00 -0.57997565685E-02  0.58178980545E+02  0.58653924062E+02  0.74470750000E+01 0. -1.
<mgrwt>
<rscale>  0 0.14901523E+02</rscale>
<asrwt>0</asrwt>
<pdfrwt beam="1">  1        2 0.99076731E+00 0.14901523E+02</pdfrwt>
<pdfrwt beam="2">  1       -2 0.98785683E+00 0.14901523E+02</pdfrwt>
<totfact> 0.22895832E-13</totfact>
</mgrwt>
</event>
<event>
 4    1 -0.4882314E-019  0.1494857E+02  0.7818608E-02  0.1869642E+00
          2   -1    0    0  501    0  0.00000000000E+00  0.00000000000E+00  0.11886222612E+03  0.11886222615E+03  0.25500000000E-02 0.  1.
         -2   -1    0    0    0  501 -0.00000000000E+00 -0.00000000000E+00 -0.46999375532E+00  0.47000067292E+00  0.25500000000E-02 0. -1.
         31    1    1    2    0    0 -0.35586990836E+00 -0.40656206963E+00  0.61892102463E+02  0.62340863080E+02  0.74470750000E+01 0.  1.
        -31    1    1    2    0    0  0.35586990836E+00  0.40656206963E+00  0.56500129900E+02  0.56991363739E+02  0.74470750000E+01 0. -1.
<mgrwt>
<rscale>  0 0.14948568E+02</rscale>
<asrwt>0</asrwt>
<pdfrwt beam="1">  1        2 0.98672234E+00 0.14948568E+02</pdfrwt>
<pdfrwt beam="2">  1       -2 0.99817935E+00 0.14948568E+02</pdfrwt>
<totfact>-0.14637814E-13</totfact>
</mgrwt>
</event>
<event>
 4    1  0.4882314E-019  0.1492524E+02  0.7818608E-02  0.1870358E+00
         -2   -1    0    0    0  501 -0.00000000000E+00  0.00000000000E+00  0.11863396454E+03  0.11863396457E+03  0.25500000000E-02 0.  1.
          2   -1    0    0  501    0  0.00000000000E+00 -0.00000000000E+00 -0.46942954950E+00  0.46943647541E+00  0.25500000000E-02 0. -1.
         31    1    1    2    0    0  0.36394747815E+00  0.27007166725E+00  0.60378374616E+02  0.60837590713E+02  0.74470750000E+01 0.  1.
        -31    1    1    2    0    0 -0.36394747815E+00 -0.27007166725E+00  0.57786160374E+02  0.58265810329E+02  0.74470750000E+01 0. -1.
<mgrwt>
<rscale>  0 0.14925241E+02</rscale>
<asrwt>0</asrwt>
<pdfrwt beam="2">  1        2 0.99697827E+00 0.14925241E+02</pdfrwt>
<pdfrwt beam="1">  1       -2 0.98483025E+00 0.14925241E+02</pdfrwt>
<totfact> 0.37711042E-13</totfact>
</mgrwt>
</event>
<event>
 4    1  0.4882314E-019  0.1490167E+02  0.7818608E-02  0.1871084E+00
          2   -1    0    0  501    0  0.00000000000E+00  0.00000000000E+00  0.11990120557E+03  0.11990120560E+03  0.25500000000E-02 0. -1.
         -2   -1    0    0    0  501 -0.00000000000E+00 -0.00000000000E+00 -0.46300195731E+00  0.46300897936E+00  0.25500000000E-02 0.  1.
         31    1    1    2    0    0 -0.11465353886E+00 -0.12602282929E+00  0.58392765877E+02  0.58865975402E+02  0.74470750000E+01 0.  1.
        -31    1    1    2    0    0  0.11465353886E+00  0.12602282929E+00  0.61045437740E+02  0.61498239179E+02  0.74470750000E+01 0. -1.
<mgrwt>
<rscale>  0 0.14901667E+02</rscale>
<asrwt>0</asrwt>
<pdfrwt beam="1">  1        2 0.99525554E+00 0.14901667E+02</pdfrwt>
<pdfrwt beam="2">  1       -2 0.98342097E+00 0.14901667E+02</pdfrwt>
<totfact> 0.70480061E-13</totfact>
</mgrwt>
</event>
<event>
 4    1  0.4882314E-019  0.1490513E+02  0.7818608E-02  0.1870977E+00
         -2   -1    0    0    0  501 -0.00000000000E+00  0.00000000000E+00  0.11899996614E+03  0.11899996617E+03  0.25500000000E-02 0. -1.
          2   -1    0    0  501    0  0.00000000000E+00 -0.00000000000E+00 -0.46672525247E+00  0.46673221851E+00  0.25500000000E-02 0.  1.
         31    1    1    2    0    0  0.13845002833E+00  0.22423503344E+00  0.60156667970E+02  0.60616442300E+02  0.74470750000E+01 0. -1.
        -31    1    1    2    0    0 -0.13845002833E+00 -0.22423503344E+00  0.58376572921E+02  0.58850256090E+02  0.74470750000E+01 0. -1.
<mgrwt>
<rscale>  0 0.14905128E+02</rscale>
<asrwt>0</asrwt>
<pdfrwt beam="2">  1        2 0.99126940E+00 0.14905128E+02</pdfrwt>
<pdfrwt beam="1">  1       -2 0.98783425E+00 0.14905128E+02</pdfrwt>
<totfact> 0.22244076E-13</totfact>
</mgrwt>
</event>
<event>
 4    1 -0.4882314E-019  0.1493116E+02  0.7818608E-02  0.1870176E+00
          2   -1    0    0  501    0  0.00000000000E+00  0.00000000000E+00  0.11901886744E+03  0.11901886747E+03  0.25500000000E-02 0.  1.
         -2   -1    0    0    0  501 -0.00000000000E+00 -0.00000000000E+00 -0.46828286868E+00  0.46828981154E+00  0.25500000000E-02 0. -1.
         31    1    1    2    0    0  0.46297057468E+00 -0.20363866264E+00  0.60412006733E+02  0.60871383211E+02  0.74470750000E+01 0.  1.
        -31    1    1    2    0    0 -0.46297057468E+00  0.20363866264E+00  0.58138577842E+02  0.58615774071E+02  0.74470750000E+01 0. -1.
<mgrwt>
<rscale>  0 0.14931164E+02</rscale>
<asrwt>0</asrwt>
<pdfrwt beam="1">  1        2 0.98800342E+00 0.14931164E+02</pdfrwt>
<pdfrwt beam="2">  1       -2 0.99456519E+00 0.14931164E+02</pdfrwt>
<totfact>-0.22338434E-13</totfact>
</mgrwt>
</event>
<event>
 4    1 -0.4882314E-019  0.1497756E+02  0.7818608E-02  0.1868754E+00
         -2   -1    0    0    0  501 -0.00000000000E+00  0.00000000000E+00  0.11975139397E+03  0.11975139400E+03  0.25500000000E-02 0.  1.
          2   -1    0    0  501    0  0.00000000000E+00 -0.00000000000E+00 -0.46831513868E+00  0.46832208107E+00  0.25500000000E-02 0. -1.
         31    1    1    2    0    0 -0.16033889073E+00  0.26113931583E+00  0.53803663836E+02  0.54317465612E+02  0.74470750000E+01 0. -1.
        -31    1    1    2    0    0  0.16033889073E+00 -0.26113931583E+00  0.65479414999E+02  0.65902250470E+02  0.74470750000E+01 0.  1.
<mgrwt>
<rscale>  0 0.14977558E+02</rscale>
<asrwt>0</asrwt>
<pdfrwt beam="2">  1        2 0.99465731E+00 0.14977558E+02</pdfrwt>
<pdfrwt beam="1">  1       -2 0.99406073E+00 0.14977558E+02</pdfrwt>
<totfact>-0.12118283E-13</totfact>
</mgrwt>
</event>
<event>
 4    1  0.4882314E-019  0.1492290E+02  0.7818608E-02  0.1870430E+00
         -2   -1    0    0    0  501 -0.00000000000E+00  0.00000000000E+00  0.11877052606E+03  0.11877052609E+03  0.25500000000E-02 0.  1.
          2   -1    0    0  501    0  0.00000000000E+00 -0.00000000000E+00 -0.46874282278E+00  0.46874975883E+00  0.25500000000E-02 0. -1.
         31    1    1    2    0    0 -0.10370204297E+00 -0.44916105153E+00  0.59491864048E+02  0.59957929531E+02  0.74470750000E+01 0.  1.
        -31    1    1    2    0    0  0.10370204297E+00  0.44916105153E+00  0.58809919188E+02  0.59281346314E+02  0.74470750000E+01 0.  1.
<mgrwt>
<rscale>  0 0.14922901E+02</rscale>
<asrwt>0</asrwt>
<pdfrwt beam="2">  1        2 0.99553006E+00 0.14922901E+02</pdfrwt>
<pdfrwt beam="1">  1       -2 0.98595376E+00 0.14922901E+02</pdfrwt>
<totfact> 0.34123738E-13</totfact>
</mgrwt>
</event>
<event>
 4    1 -0.4882314E-019  0.1496109E+02  0.7818608E-02  0.1869258E+00
         -2   -1    0    0    0  501 -0.00000000000E+00  0.00000000000E+00  0.11987124213E+03  0.11987124216E+03  0.25500000000E-02 0. -1.
          2   -1    0    0  501    0  0.00000000000E+00 -0.00000000000E+00 -0.46681873526E+00  0.46682569990E+00  0.25500000000E-02 0.  1.
         31    1    1    2    0    0  0.42821675982E-01  0.49981737941E+00  0.63707673723E+02  0.64143419525E+02  0.74470750000E+01 0.  1.
        -31    1    1    2    0    0 -0.42821675982E-01 -0.49981737941E+00  0.55696749673E+02  0.56194648333E+02  0.74470750000E+01 0.  1.
<mgrwt>
<rscale>  0 0.14961091E+02</rscale>
<asrwt>0</asrwt>
<pdfrwt beam="2">  1        2 0.99149533E+00 0.14961091E+02</pdfrwt>
<pdfrwt beam="1">  1       -2 0.99503934E+00 0.14961091E+02</pdfrwt>
<totfact>-0.15702550E-13</totfact>
</mgrwt>
</event>
<event>
 4    1 -0.4882314E-019  0.1498294E+02  0.7818608E-02  0.1868590E+00
          2   -1    0    0  501    0  0.00000000000E+00  0.00000000000E+00  0.11951774610E+03  0.11951774613E+03  0.25500000000E-02 0.  1.
         -2   -1    0    0    0  501 -0.00000000000E+00 -0.00000000000E+00 -0.46956775533E+00  0.46957467920E+00  0.25500000000E-02 0. -1.
         31    1    1    2    0    0  0.15024463191E+00 -0.72971276528E-01  0.65906994940E+02  0.66326607077E+02  0.74470750000E+01 0.  1.
        -31    1    1    2    0    0 -0.15024463191E+00  0.72971276528E-01  0.53141183406E+02  0.53660713731E+02  0.74470750000E+01 0. -1.
<mgrwt>
<rscale>  0 0.14982937E+02</rscale>
<asrwt>0</asrwt>
<pdfrwt beam="1">  1        2 0.99213912E+00 0.14982937E+02</pdfrwt>
<pdfrwt beam="2">  1       -2 0.99729970E+00 0.14982937E+02</pdfrwt>
<totfact>-0.11180271E-13</totfact>
</mgrwt>
</event>
<event>
 4    1  0.4882314E-019  0.1495229E+02  0.7818608E-02  0.1869528E+00
         -2   -1    0    0    0  501 -0.00000000000E+00  0.00000000000E+00  0.11880286327E+03  0.11880286330E+03  0.25500000000E-02 0.  1.
          2   -1    0    0  501    0  0.00000000000E+00 -0.00000000000E+00 -0.47046299728E+00  0.47046990797E+00  0.25500000000E-02 0. -1.
         31    1    1    2    0    0  0.45876107741E+00  0.41405704927E+00  0.57348337961E+02  0.57833145322E+02  0.74470750000E+01 0.  1.
        -31    1    1    2    0    0 -0.45876107741E+00 -0.41405704927E+00  0.60984062314E+02  0.61440187885E+02  0.74470750000E+01 0.  1.
<mgrwt>
<rscale>  0 0.14952293E+02</rscale>
<asrwt>0</asrwt>
<pdfrwt beam="2">  1        2 0.99917002E+00 0.14952293E+02</pdfrwt>
<pdfrwt beam="1">  1       -2 0.98623537E+00 0.14952293E+02</pdfrwt>
<totfact> 0.85377388E-14</totfact>
</mgrwt>
</event>
<event>
 4    1 -0.4882314E-019  0.1497913E+02  0.7818608E-02  0.1868706E+00
         -2   -1    0    0    0  501 -0.00000000000E+00  0.00000000000E+00  0.11967480315E+03  0.11967480318E+03  0.25500000000E-02 0.  1.
          2   -1    0    0  501    0  0.00000000000E+00 -0.00000000000E+00 -0.46871315839E+00  0.46872009488E+00  0.25500000000E-02 0. -1.
         31    1    1    2    0    0 -0.32070158695E+00 -0.71923788423E+00  0.58637401700E+02  0.59113652880E+02  0.74470750000E+01 0. -1.
        -31    1    1    2    0    0  0.32070158695E+00  0.71923788423E+00  0.60568688293E+02  0.61029870394E+02  0.74470750000E+01 0. -1.
<mgrwt>
<rscale>  0 0.14979129E+02</rscale>
<asrwt>0</asrwt>
<pdfrwt beam="2">  1        2 0.99549687E+00 0.14979129E+02</pdfrwt>
<pdfrwt beam="1">  1       -2 0.99343071E+00 0.14979129E+02</pdfrwt>
<totfact>-0.10457400E-13</totfact>
</mgrwt>
</event>
<event>
 4    1 -0.4882314E-019  0.1498870E+02  0.7818608E-02  0.1868413E+00
         -2   -1    0    0    0  501 -0.00000000000E+00  0.00000000000E+00  0.12018858804E+03  0.12018858806E+03  0.25500000000E-02 0.  1.
          2   -1    0    0  501    0  0.00000000000E+00 -0.00000000000E+00 -0.46730631360E+00  0.46731327097E+00  0.25500000000E-02 0. -1.
         31    1    1    2    0    0 -0.57894128078E-01  0.70950357211E+00  0.63457322881E+02  0.63896772222E+02  0.74470750000E+01 0.  1.
        -31    1    1    2    0    0  0.57894128078E-01 -0.70950357211E+00  0.56263958842E+02  0.56759129114E+02  0.74470750000E+01 0. -1.
<mgrwt>
<rscale>  0 0.14988703E+02</rscale>
<asrwt>0</asrwt>
<pdfrwt beam="2">  1        2 0.99253705E+00 0.14988703E+02</pdfrwt>
<pdfrwt beam="1">  1       -2 0.99766741E+00 0.14988703E+02</pdfrwt>
<totfact>-0.97631737E-14</totfact>
</mgrwt>
</event>
<event>
 4    1  0.4882314E-019  0.1493343E+02  0.7818608E-02  0.1870107E+00
          2   -1    0    0  501    0  0.00000000000E+00  0.00000000000E+00  0.12017436716E+03  0.12017436719E+03  0.25500000000E-02 0. -1.
         -2   -1    0    0    0  501 -0.00000000000E+00 -0.00000000000E+00 -0.46392104232E+00  0.46392805046E+00  0.25500000000E-02 0.  1.
         31    1    1    2    0    0  0.31771326168E+00  0.35164402795E+00  0.61966775401E+02  0.62414459662E+02  0.74470750000E+01 0. -1.
        -31    1    1    2    0    0 -0.31771326168E+00 -0.35164402795E+00  0.57743670718E+02  0.58223835577E+02  0.74470750000E+01 0.  1.
<mgrwt>
<rscale>  0 0.14933431E+02</rscale>
<asrwt>0</asrwt>
<pdfrwt beam="1">  1        2 0.99752183E+00 0.14933431E+02</pdfrwt>
<pdfrwt beam="2">  1       -2 0.98537420E+00 0.14933431E+02</pdfrwt>
<totfact> 0.28069837E-13</totfact>
</mgrwt>
</event>
<event>
 4    1  0.4882314E-019  0.1491801E+02  0.7818608E-02  0.1870581E+00
          2   -1    0    0  501    0  0.00000000000E+00  0.00000000000E+00  0.11988202267E+03  0.11988202269E+03  0.25500000000E-02 0. -1.
         -2   -1    0    0    0  501 -0.00000000000E+00 -0.00000000000E+00 -0.46409248593E+00  0.46409949149E+00  0.25500000000E-02 0.  1.
         31    1    1    2    0    0 -0.31904779927E+00  0.18863896690E+00  0.61331787600E+02  0.61783367280E+02  0.74470750000E+01 0.  1.
        -31    1    1    2    0    0  0.31904779927E+00 -0.18863896690E+00  0.58086142579E+02  0.58562754904E+02  0.74470750000E+01 0. -1.
<mgrwt>
<rscale>  0 0.14918012E+02</rscale>
<asrwt>0</asrwt>
<pdfrwt beam="1">  1        2 0.99510594E+00 0.14918012E+02</pdfrwt>
<pdfrwt beam="2">  1       -2 0.98572769E+00 0.14918012E+02</pdfrwt>
<totfact> 0.38548564E-13</totfact>
</mgrwt>
</event>
<event>
 4    1 -0.4882314E-019  0.1497545E+02  0.7818608E-02  0.1868819E+00
         -2   -1    0    0    0  501 -0.00000000000E+00  0.00000000000E+00  0.11960897087E+03  0.11960897090E+03  0.25500000000E-02 0.  1.
          2   -1    0    0  501    0  0.00000000000E+00 -0.00000000000E+00 -0.46874075937E+00  0.46874769545E+00  0.25500000000E-02 0. -1.
         31    1    1    2    0    0  0.66109753927E-01 -0.73873517686E+00  0.61484319469E+02  0.61938118851E+02  0.74470750000E+01 0.  1.
        -31    1    1    2    0    0 -0.66109753927E-01  0.73873517686E+00  0.57655910640E+02  0.58139599740E+02  0.74470750000E+01 0.  1.
<mgrwt>
<rscale>  0 0.14975449E+02</rscale>
<asrwt>0</asrwt>
<pdfrwt beam="2">  1        2 0.99555313E+00 0.14975449E+02</pdfrwt>
<pdfrwt beam="1">  1       -2 0.99288659E+00 0.14975449E+02</pdfrwt>
<totfact>-0.95148087E-14</totfact>
</mgrwt>
</event>
<event>
 4    1 -0.4882314E-019  0.1502806E+02  0.7818608E-02  0.1867213E+00
          2   -1    0    0  501    0  0.00000000000E+00  0.00000000000E+00  0.12017656998E+03  0.12017657001E+03  0.25500000000E-02 0. -1.
         -2   -1    0    0    0  501 -0.00000000000E+00 -0.00000000000E+00 -0.46981068891E+00  0.46981760920E+00  0.25500000000E-02 0.  1.
         31    1    1    2    0    0  0.66926003075E-01 -0.97540776701E+00  0.61572039390E+02  0.62028468143E+02  0.74470750000E+01 0.  1.
        -31    1    1    2    0    0 -0.66926003075E-01  0.97540776701E+00  0.58134719901E+02  0.58617919474E+02  0.74470750000E+01 0.  1.
<mgrwt>
<rscale>  0 0.15028061E+02</rscale>
<asrwt>0</asrwt>
<pdfrwt beam="1">  1        2 0.99758874E+00 0.15028061E+02</pdfrwt>
<pdfrwt beam="2">  1       -2 0.99783505E+00 0.15028061E+02</pdfrwt>
<totfact>-0.47785485E-14</totfact>
</mgrwt>
</event>
<event>
 4    1 -0.4882314E-019  0.1497123E+02  0.7818608E-02  0.1868948E+00
         -2   -1    0    0    0  501 -0.00000000000E+00  0.00000000000E+00  0.12023403252E+03  0.12023403255E+03  0.25500000000E-02 0. -1.
          2   -1    0    0  501    0  0.00000000000E+00 -0.00000000000E+00 -0.46604137259E+00  0.46604834885E+00  0.25500000000E-02 0.  1.
         31    1    1    2    0    0 -0.69720983758E+00 -0.29533398649E+00  0.59505296647E+02  0.59974265972E+02  0.74470750000E+01 0.  1.
        -31    1    1    2    0    0  0.69720983758E+00  0.29533398649E+00  0.60262694500E+02  0.60725814924E+02  0.74470750000E+01 0. -1.
<mgrwt>
<rscale>  0 0.14971233E+02</rscale>
<asrwt>0</asrwt>
<pdfrwt beam="2">  1        2 0.98986224E+00 0.14971233E+02</pdfrwt>
<pdfrwt beam="1">  1       -2 0.99803272E+00 0.14971233E+02</pdfrwt>
<totfact>-0.10614606E-13</totfact>
</mgrwt>
</event>
<event>
 4    1 -0.4882314E-019  0.1496014E+02  0.7818608E-02  0.1869287E+00
         -2   -1    0    0    0  501 -0.00000000000E+00  0.00000000000E+00  0.11949209914E+03  0.11949209916E+03  0.25500000000E-02 0.  1.
          2   -1    0    0  501    0  0.00000000000E+00 -0.00000000000E+00 -0.46824057319E+00  0.46824751669E+00  0.25500000000E-02 0. -1.
         31    1    1    2    0    0 -0.13862242288E-01 -0.41740512066E+00  0.54989219477E+02  0.55492770736E+02  0.74470750000E+01 0. -1.
        -31    1    1    2    0    0  0.13862242288E-01  0.41740512066E+00  0.64034639086E+02  0.64467575944E+02  0.74470750000E+01 0.  1.
<mgrwt>
<rscale>  0 0.14960143E+02</rscale>
<asrwt>0</asrwt>
<pdfrwt beam="2">  1        2 0.99449115E+00 0.14960143E+02</pdfrwt>
<pdfrwt beam="1">  1       -2 0.99191608E+00 0.14960143E+02</pdfrwt>
<totfact>-0.79972719E-14</totfact>
</mgrwt>
</event>
<event>
 4    1 -0.4882314E-019  0.1492639E+02  0.7818608E-02  0.1870323E+00
         -2   -1    0    0    0  501 -0.00000000000E+00  0.00000000000E+00  0.11957399473E+03  0.11957399476E+03  0.25500000000E-02 0.  1.
          2   -1    0    0  501    0  0.00000000000E+00 -0.00000000000E+00 -0.46581080714E+00  0.46581778685E+00  0.25500000000E-02 0. -1.
         31    1    1    2    0    0 -0.30549153873E-01 -0.31372378104E+00  0.56534304066E+02  0.57023554941E+02  0.74470750000E+01 0. -1.
        -31    1    1    2    0    0  0.30549153873E-01  0.31372378104E+00  0.62573879861E+02  0.63016257607E+02  0.74470750000E+01 0. -1.
<mgrwt>
<rscale>  0 0.14926390E+02</rscale>
<asrwt>0</asrwt>
<pdfrwt beam="2">  1        2 0.98935335E+00 0.14926390E+02</pdfrwt>
<pdfrwt beam="1">  1       -2 0.99257316E+00 0.14926390E+02</pdfrwt>
<totfact>-0.15085842E-13</totfact>
</mgrwt>
</event>
<event>
 4    1 -0.4882314E-019  0.1491778E+02  0.7818608E-02  0.1870588E+00
         -2   -1    0    0    0  501 -0.00000000000E+00  0.00000000000E+00  0.12014218818E+03  0.12014218821E+03  0.25500000000E-02 0. -1.
          2   -1    0    0  501    0  0.00000000000E+00 -0.00000000000E+00 -0.46307302319E+00  0.46308004417E+00  0.25500000000E-02 0.  1.
         31    1    1    2    0    0  0.94799591015E-01 -0.40293430766E+00  0.60397471917E+02  0.60856264123E+02  0.74470750000E+01 0.  1.
        -31    1    1    2    0    0 -0.94799591015E-01  0.40293430766E+00  0.59281643242E+02  0.59749004130E+02  0.74470750000E+01 0.  1.
<mgrwt>
<rscale>  0 0.14917779E+02</rscale>
<asrwt>0</asrwt>
<pdfrwt beam="2">  1        2 0.98357893E+00 0.14917779E+02</pdfrwt>
<pdfrwt beam="1">  1       -2 0.99724874E+00 0.14917779E+02</pdfrwt>
<totfact>-0.33192064E-13</totfact>
</mgrwt>
</event>
<event>
 4    1 -0.4882314E-019  0.1497824E+02  0.7818608E-02  0.1868733E+00
          2   -1    0    0  501    0  0.00000000000E+00  0.00000000000E+00  0.12001121884E+03  0.12001121887E+03  0.25500000000E-02 0. -1.
         -2   -1    0    0    0  501 -0.00000000000E+00 -0.00000000000E+00 -0.46734378882E+00  0.46735074564E+00  0.25500000000E-02 0.  1.
         31    1    1    2    0    0  0.42766005783E+00 -0.55079332376E+00  0.62800061913E+02  0.63243916456E+02  0.74470750000E+01 0.  1.
        -31    1    1    2    0    0 -0.42766005783E+00  0.55079332376E+00  0.56743813138E+02  0.57234653156E+02  0.74470750000E+01 0.  1.
<mgrwt>
<rscale>  0 0.14978240E+02</rscale>
<asrwt>0</asrwt>
<pdfrwt beam="1">  1        2 0.99620111E+00 0.14978240E+02</pdfrwt>
<pdfrwt beam="2">  1       -2 0.99261066E+00 0.14978240E+02</pdfrwt>
<totfact>-0.81760343E-14</totfact>
</mgrwt>
</event>
<event>
 4    1 -0.4882314E-019  0.1495298E+02  0.7818608E-02  0.1869507E+00
          2   -1    0    0  501    0  0.00000000000E+00  0.00000000000E+00  0.11933959340E+03  0.11933959343E+03  0.25500000000E-02 0.  1.
         -2   -1    0    0    0  501 -0.00000000000E+00 -0.00000000000E+00 -0.46839000965E+00  0.46839695093E+00  0.25500000000E-02 0. -1.
         31    1    1    2    0    0  0.52414938621E+00 -0.29945274367E+00  0.57247782076E+02  0.57733282284E+02  0.74470750000E+01 0. -1.
        -31    1    1    2    0    0 -0.52414938621E+00  0.29945274367E+00  0.61623421315E+02  0.62074708096E+02  0.74470750000E+01 0.  1.
<mgrwt>
<rscale>  0 0.14952978E+02</rscale>
<asrwt>0</asrwt>
<pdfrwt beam="1">  1        2 0.99065629E+00 0.14952978E+02</pdfrwt>
<pdfrwt beam="2">  1       -2 0.99480233E+00 0.14952978E+02</pdfrwt>
<totfact>-0.16866984E-13</totfact>
</mgrwt>
</event>
<event>
 4    1  0.4882314E-019  0.1491819E+02  0.7818608E-02  0.1870575E+00
         -2   -1    0    0    0  501 -0.00000000000E+00  0.00000000000E+00  0.11858009682E+03  0.11858009684E+03  0.25500000000E-02 0.  1.
          2   -1    0    0  501    0  0.00000000000E+00 -0.00000000000E+00 -0.46919907983E+00  0.46920600914E+00  0.25500000000E-02 0. -1.
         31    1    1    2    0    0 -0.24411368076E+00 -0.42018922759E-01  0.56316465149E+02  0.56807257723E+02  0.74470750000E+01 0.  1.
        -31    1    1    2    0    0  0.24411368076E+00  0.42018922759E-01  0.61794432588E+02  0.62242045131E+02  0.74470750000E+01 0. -1.
<mgrwt>
<rscale>  0 0.14918188E+02</rscale>
<asrwt>0</asrwt>
<pdfrwt beam="2">  1        2 0.99648895E+00 0.14918188E+02</pdfrwt>
<pdfrwt beam="1">  1       -2 0.98438293E+00 0.14918188E+02</pdfrwt>
<totfact> 0.46847676E-13</totfact>
</mgrwt>
</event>
<event>
 4    1 -0.4882314E-019  0.1491387E+02  0.7818608E-02  0.1870708E+00
          2   -1    0    0  501    0  0.00000000000E+00  0.00000000000E+00  0.11841240734E+03  0.11841240736E+03  0.25500000000E-02 0.  1.
         -2   -1    0    0    0  501 -0.00000000000E+00 -0.00000000000E+00 -0.46959132208E+00  0.46959824560E+00  0.25500000000E-02 0. -1.
         31    1    1    2    0    0  0.13262463396E+00 -0.26853074040E+00  0.57064498541E+02  0.57549158273E+02  0.74470750000E+01 0.  1.
        -31    1    1    2    0    0 -0.13262463396E+00  0.26853074040E+00  0.60878317472E+02  0.61332847336E+02  0.74470750000E+01 0. -1.
<mgrwt>
<rscale>  0 0.14913866E+02</rscale>
<asrwt>0</asrwt>
<pdfrwt beam="1">  1        2 0.98299960E+00 0.14913866E+02</pdfrwt>
<pdfrwt beam="2">  1       -2 0.99731312E+00 0.14913866E+02</pdfrwt>
<totfact>-0.35998039E-13</totfact>
</mgrwt>
</event>
<event>
 4    1  0.4882314E-019  0.1491160E+02  0.7818608E-02  0.1870778E+00
          2   -1    0    0  501    0  0.00000000000E+00  0.00000000000E+00  0.11995808807E+03  0.11995808810E+03  0.25500000000E-02 0.  1.
         -2   -1    0    0    0  501 -0.00000000000E+00 -0.00000000000E+00 -0.46339962910E+00  0.46340664513E+00  0.25500000000E-02 0. -1.
         31    1    1    2    0    0  0.10769820402E+00  0.16103938852E+00  0.62203456120E+02  0.62647956167E+02  0.74470750000E+01 0.  1.
        -31    1    1    2    0    0 -0.10769820402E+00 -0.16103938852E+00  0.57291232321E+02  0.57773538575E+02  0.74470750000E+01 0. -1.
<mgrwt>
<rscale>  0 0.14911601E+02</rscale>
<asrwt>0</asrwt>
<pdfrwt beam="1">  1        2 0.99572917E+00 0.14911601E+02</pdfrwt>
<pdfrwt beam="2">  1       -2 0.98426417E+00 0.14911601E+02</pdfrwt>
<totfact> 0.54258286E-13</totfact>
</mgrwt>
</event>
<event>
 4    1 -0.4882314E-019  0.1495541E+02  0.7818608E-02  0.1869432E+00
          2   -1    0    0  501    0  0.00000000000E+00  0.00000000000E+00  0.11895578876E+03  0.11895578878E+03  0.25500000000E-02 0. -1.
         -2   -1    0    0    0  501 -0.00000000000E+00 -0.00000000000E+00 -0.47005411384E+00  0.47006103054E+00  0.25500000000E-02 0.  1.
         31    1    1    2    0    0 -0.61966165443E+00  0.18869817507E+00  0.60790459116E+02  0.61248334125E+02  0.74470750000E+01 0.  1.
        -31    1    1    2    0    0  0.61966165443E+00 -0.18869817507E+00  0.57695275526E+02  0.58177515688E+02  0.74470750000E+01 0.  1.
<mgrwt>
<rscale>  0 0.14955410E+02</rscale>
<asrwt>0</asrwt>
<pdfrwt beam="1">  1        2 0.98749648E+00 0.14955410E+02</pdfrwt>
<pdfrwt beam="2">  1       -2 0.99831013E+00 0.14955410E+02</pdfrwt>
<totfact>-0.12335125E-13</totfact>
</mgrwt>
</event>
<event>
 4    1 -0.4882314E-019  0.1493088E+02  0.7818608E-02  0.1870185E+00
         -2   -1    0    0    0  501 -0.00000000000E+00  0.00000000000E+00  0.11952094021E+03  0.11952094024E+03  0.25500000000E-02 0. -1.
          2   -1    0    0  501    0  0.00000000000E+00 -0.00000000000E+00 -0.46629811871E+00  0.46630509112E+00  0.25500000000E-02 0.  1.
         31    1    1    2    0    0 -0.23027196255E+00  0.43050744260E+00  0.61041913972E+02  0.61496443387E+02  0.74470750000E+01 0. -1.
        -31    1    1    2    0    0  0.23027196255E+00 -0.43050744260E+00  0.58012728119E+02  0.58490801941E+02  0.74470750000E+01 0.  1.
<mgrwt>
<rscale>  0 0.14930882E+02</rscale>
<asrwt>0</asrwt>
<pdfrwt beam="2">  1        2 0.99038262E+00 0.14930882E+02</pdfrwt>
<pdfrwt beam="1">  1       -2 0.99213850E+00 0.14930882E+02</pdfrwt>
<totfact>-0.11984796E-13</totfact>
</mgrwt>
</event>
<event>
 4    1 -0.4882314E-019  0.1495039E+02  0.7818608E-02  0.1869586E+00
         -2   -1    0    0    0  501 -0.00000000000E+00  0.00000000000E+00  0.11957260641E+03  0.11957260644E+03  0.25500000000E-02 0.  1.
          2   -1    0    0  501    0  0.00000000000E+00 -0.00000000000E+00 -0.46731544305E+00  0.46732240029E+00  0.25500000000E-02 0. -1.
         31    1    1    2    0    0 -0.16653868499E+00  0.24723604478E+00  0.64170372979E+02  0.64601738019E+02  0.74470750000E+01 0.  1.
        -31    1    1    2    0    0  0.16653868499E+00 -0.24723604478E+00  0.54934917991E+02  0.55438190821E+02  0.74470750000E+01 0. -1.
<mgrwt>
<rscale>  0 0.14950391E+02</rscale>
<asrwt>0</asrwt>
<pdfrwt beam="2">  1        2 0.99253657E+00 0.14950391E+02</pdfrwt>
<pdfrwt beam="1">  1       -2 0.99257412E+00 0.14950391E+02</pdfrwt>
<totfact>-0.11526209E-13</totfact>
</mgrwt>
</event>
<event>
 4    1 -0.4882314E-019  0.1493761E+02  0.7818608E-02  0.1869978E+00
          2   -1    0    0  501    0  0.00000000000E+00  0.00000000000E+00  0.11927352416E+03  0.11927352419E+03  0.25500000000E-02 0.  1.
         -2   -1    0    0    0  501 -0.00000000000E+00 -0.00000000000E+00 -0.46768646439E+00  0.46769341611E+00  0.25500000000E-02 0. -1.
         31    1    1    2    0    0  0.37067973290E+00  0.12097147246E+00  0.56077767231E+02  0.56571432200E+02  0.74470750000E+01 0. -1.
        -31    1    1    2    0    0 -0.37067973290E+00 -0.12097147246E+00  0.62728070468E+02  0.63169785406E+02  0.74470750000E+01 0.  1.
<mgrwt>
<rscale>  0 0.14937608E+02</rscale>
<asrwt>0</asrwt>
<pdfrwt beam="1">  1        2 0.99010417E+00 0.14937608E+02</pdfrwt>
<pdfrwt beam="2">  1       -2 0.99331180E+00 0.14937608E+02</pdfrwt>
<totfact>-0.16132262E-13</totfact>
</mgrwt>
</event>
<event>
 4    1 -0.4882314E-019  0.1496033E+02  0.7818608E-02  0.1869281E+00
          2   -1    0    0  501    0  0.00000000000E+00  0.00000000000E+00  0.11947994165E+03  0.11947994167E+03  0.25500000000E-02 0.  1.
         -2   -1    0    0    0  501 -0.00000000000E+00 -0.00000000000E+00 -0.46830014876E+00  0.46830709137E+00  0.25500000000E-02 0. -1.
         31    1    1    2    0    0  0.81252734711E-01  0.43740095696E+00  0.55143361727E+02  0.55645729308E+02  0.74470750000E+01 0. -1.
        -31    1    1    2    0    0 -0.81252734711E-01 -0.43740095696E+00  0.63868279771E+02  0.64302519457E+02  0.74470750000E+01 0.  1.
<mgrwt>
<rscale>  0 0.14960333E+02</rscale>
<asrwt>0</asrwt>
<pdfrwt beam="1">  1        2 0.99181604E+00 0.14960333E+02</pdfrwt>
<pdfrwt beam="2">  1       -2 0.99461679E+00 0.14960333E+02</pdfrwt>
<totfact>-0.15370686E-13</totfact>
</mgrwt>
</event>
<event>
 4    1  0.4882314E-019  0.1490538E+02  0.7818608E-02  0.1870970E+00
         -2   -1    0    0    0  501 -0.00000000000E+00  0.00000000000E+00  0.11894974104E+03  0.11894974107E+03  0.25500000000E-02 0. -1.
          2   -1    0    0  501    0  0.00000000000E+00 -0.00000000000E+00 -0.46693806970E+00  0.46694503257E+00  0.25500000000E-02 0.  1.
         31    1    1    2    0    0  0.13262746297E+00 -0.36005074619E-01  0.57202481588E+02  0.57685368269E+02  0.74470750000E+01 0.  1.
        -31    1    1    2    0    0 -0.13262746297E+00  0.36005074619E-01  0.61280321382E+02  0.61731317831E+02  0.74470750000E+01 0. -1.
<mgrwt>
<rscale>  0 0.14905379E+02</rscale>
<asrwt>0</asrwt>
<pdfrwt beam="2">  1        2 0.99171799E+00 0.14905379E+02</pdfrwt>
<pdfrwt beam="1">  1       -2 0.98742071E+00 0.14905379E+02</pdfrwt>
<totfact> 0.26440612E-13</totfact>
</mgrwt>
</event>
<event>
 4    1  0.4882314E-019  0.1492371E+02  0.7818608E-02  0.1870406E+00
         -2   -1    0    0    0  501 -0.00000000000E+00  0.00000000000E+00  0.11870423050E+03  0.11870423052E+03  0.25500000000E-02 0. -1.
          2   -1    0    0  501    0  0.00000000000E+00 -0.00000000000E+00 -0.46905536749E+00  0.46906229892E+00  0.25500000000E-02 0.  1.
         31    1    1    2    0    0 -0.40315669262E+00 -0.32807504612E-01  0.57215539041E+02  0.57699570583E+02  0.74470750000E+01 0.  1.
        -31    1    1    2    0    0  0.40315669262E+00  0.32807504612E-01  0.61019636087E+02  0.61473722239E+02  0.74470750000E+01 0. -1.
<mgrwt>
<rscale>  0 0.14923709E+02</rscale>
<asrwt>0</asrwt>
<pdfrwt beam="2">  1        2 0.99618904E+00 0.14923709E+02</pdfrwt>
<pdfrwt beam="1">  1       -2 0.98540817E+00 0.14923709E+02</pdfrwt>
<totfact> 0.37003994E-13</totfact>
</mgrwt>
</event>
<event>
 4    1  0.4882314E-019  0.1492785E+02  0.7818608E-02  0.1870278E+00
         -2   -1    0    0    0  501 -0.00000000000E+00  0.00000000000E+00  0.11910482965E+03  0.11910482968E+03  0.25500000000E-02 0.  1.
          2   -1    0    0  501    0  0.00000000000E+00 -0.00000000000E+00 -0.46773701562E+00  0.46774396659E+00  0.25500000000E-02 0. -1.
         31    1    1    2    0    0  0.77768527170E-01 -0.37772449380E+00  0.61883070989E+02  0.62330747828E+02  0.74470750000E+01 0.  1.
        -31    1    1    2    0    0 -0.77768527170E-01  0.37772449380E+00  0.56754021650E+02  0.57241825820E+02  0.74470750000E+01 0. -1.
<mgrwt>
<rscale>  0 0.14927847E+02</rscale>
<asrwt>0</asrwt>
<pdfrwt beam="2">  1        2 0.99341324E+00 0.14927847E+02</pdfrwt>
<pdfrwt beam="1">  1       -2 0.98870970E+00 0.14927847E+02</pdfrwt>
<totfact> 0.10743833E-13</totfact>
</mgrwt>
</event>
<event>
 4    1  0.4882314E-019  0.1490321E+02  0.7818608E-02  0.1871037E+00
          2   -1    0    0  501    0  0.00000000000E+00  0.00000000000E+00  0.12020216876E+03  0.12020216879E+03  0.25500000000E-02 0. -1.
         -2   -1    0    0    0  501 -0.00000000000E+00 -0.00000000000E+00 -0.46193806730E+00  0.46194510553E+00  0.25500000000E-02 0.  1.
         31    1    1    2    0    0  0.16720978671E+00  0.13445761017E+00  0.58685149550E+02  0.59156164021E+02  0.74470750000E+01 0.  1.
        -31    1    1    2    0    0 -0.16720978671E+00 -0.13445761017E+00  0.61055081142E+02  0.61507949871E+02  0.74470750000E+01 0. -1.
<mgrwt>
<rscale>  0 0.14903206E+02</rscale>
<asrwt>0</asrwt>
<pdfrwt beam="1">  1        2 0.99773532E+00 0.14903206E+02</pdfrwt>
<pdfrwt beam="2">  1       -2 0.98117940E+00 0.14903206E+02</pdfrwt>
<totfact> 0.69383991E-13</totfact>
</mgrwt>
</event>
<event>
 4    1  0.4882314E-019  0.1492643E+02  0.7818608E-02  0.1870322E+00
         -2   -1    0    0    0  501 -0.00000000000E+00  0.00000000000E+00  0.11859807235E+03  0.11859807237E+03  0.25500000000E-02 0. -1.
          2   -1    0    0  501    0  0.00000000000E+00 -0.00000000000E+00 -0.46964649362E+00  0.46965341633E+00  0.25500000000E-02 0.  1.
         31    1    1    2    0    0  0.34110065773E+00 -0.24346450750E+00  0.57029976794E+02  0.57515674418E+02  0.74470750000E+01 0.  1.
        -31    1    1    2    0    0 -0.34110065773E+00  0.24346450750E+00  0.61098449060E+02  0.61552051373E+02  0.74470750000E+01 0. -1.
<mgrwt>
<rscale>  0 0.14926431E+02</rscale>
<asrwt>0</asrwt>
<pdfrwt beam="2">  1        2 0.99743600E+00 0.14926431E+02</pdfrwt>
<pdfrwt beam="1">  1       -2 0.98453526E+00 0.14926431E+02</pdfrwt>
<totfact> 0.36426411E-13</totfact>
</mgrwt>
</event>
<event>
 4    1 -0.4882314E-019  0.1495755E+02  0.7818608E-02  0.1869367E+00
         -2   -1    0    0    0  501 -0.00000000000E+00  0.00000000000E+00  0.12000108583E+03  0.12000108585E+03  0.25500000000E-02 0. -1.
          2   -1    0    0  501    0  0.00000000000E+00 -0.00000000000E+00 -0.46609279663E+00  0.46609977213E+00  0.25500000000E-02 0.  1.
         31    1    1    2    0    0 -0.29180947770E+00 -0.27654883915E+00  0.55272378121E+02  0.55773258299E+02  0.74470750000E+01 0.  1.
        -31    1    1    2    0    0  0.29180947770E+00  0.27654883915E+00  0.64262614910E+02  0.64693927328E+02  0.74470750000E+01 0. -1.
<mgrwt>
<rscale>  0 0.14957548E+02</rscale>
<asrwt>0</asrwt>
<pdfrwt beam="2">  1        2 0.98996362E+00 0.14957548E+02</pdfrwt>
<pdfrwt beam="1">  1       -2 0.99610698E+00 0.14957548E+02</pdfrwt>
<totfact>-0.16616349E-13</totfact>
</mgrwt>
</event>
<event>
 4    1 -0.4882314E-019  0.1496542E+02  0.7818608E-02  0.1869126E+00
          2   -1    0    0  501    0  0.00000000000E+00  0.00000000000E+00  0.11935537658E+03  0.11935537661E+03  0.25500000000E-02 0. -1.
         -2   -1    0    0    0  501 -0.00000000000E+00 -0.00000000000E+00 -0.46910769774E+00  0.46911462840E+00  0.25500000000E-02 0.  1.
         31    1    1    2    0    0  0.45224151230E+00 -0.43653627856E+00  0.62405964053E+02  0.62851876358E+02  0.74470750000E+01 0.  1.
        -31    1    1    2    0    0 -0.45224151230E+00  0.43653627856E+00  0.56480304828E+02  0.56972614876E+02  0.74470750000E+01 0.  1.
<mgrwt>
<rscale>  0 0.14965419E+02</rscale>
<asrwt>0</asrwt>
<pdfrwt beam="1">  1        2 0.99079273E+00 0.14965419E+02</pdfrwt>
<pdfrwt beam="2">  1       -2 0.99632114E+00 0.14965419E+02</pdfrwt>
<totfact>-0.15006986E-13</totfact>
</mgrwt>
</event>
<event>
 4    1 -0.4882314E-019  0.1494819E+02  0.7818608E-02  0.1869654E+00
         -2   -1    0    0    0  501 -0.00000000000E+00  0.00000000000E+00  0.11951130845E+03  0.11951130848E+03  0.25500000000E-02 0.  1.
          2   -1    0    0  501    0  0.00000000000E+00 -0.00000000000E+00 -0.46741743241E+00  0.46742438813E+00  0.25500000000E-02 0. -1.
         31    1    1    2    0    0  0.48591654773E+00 -0.17320915614E+00  0.56550634877E+02  0.57041207450E+02  0.74470750000E+01 0. -1.
        -31    1    1    2    0    0 -0.48591654773E+00  0.17320915614E+00  0.62493256143E+02  0.62937525417E+02  0.74470750000E+01 0.  1.
<mgrwt>
<rscale>  0 0.14948189E+02</rscale>
<asrwt>0</asrwt>
<pdfrwt beam="2">  1        2 0.99275035E+00 0.14948189E+02</pdfrwt>
<pdfrwt beam="1">  1       -2 0.99206811E+00 0.14948189E+02</pdfrwt>
<totfact>-0.97194295E-14</totfact>
</mgrwt>
</event>
<event>
 4    1 -0.4882314E-019  0.1490542E+02  0.7818608E-02  0.1870968E+00
          2   -1    0    0  501    0  0.00000000000E+00  0.00000000000E+00  0.11860836185E+03  0.11860836188E+03  0.25500000000E-02 0. -1.
         -2   -1    0    0    0  501 -0.00000000000E+00 -0.00000000000E+00 -0.46828487805E+00  0.46829182089E+00  0.25500000000E-02 0.  1.
         31    1    1    2    0    0 -0.26631895225E-01 -0.20595569423E+00  0.60684968791E+02  0.61140555201E+02  0.74470750000E+01 0. -1.
        -31    1    1    2    0    0  0.26631895225E-01  0.20595569423E+00  0.57455108181E+02  0.57936098498E+02  0.74470750000E+01 0.  1.
<mgrwt>
<rscale>  0 0.14905424E+02</rscale>
<asrwt>0</asrwt>
<pdfrwt beam="1">  1        2 0.98460909E+00 0.14905424E+02</pdfrwt>
<pdfrwt beam="2">  1       -2 0.99455595E+00 0.14905424E+02</pdfrwt>
<totfact>-0.37044729E-13</totfact>
</mgrwt>
</event>
<event>
 4    1 -0.4882314E-019  0.1495575E+02  0.7818608E-02  0.1869422E+00
         -2   -1    0    0    0  501 -0.00000000000E+00  0.00000000000E+00  0.12013398804E+03  0.12013398807E+03  0.25500000000E-02 0.  1.
          2   -1    0    0  501    0  0.00000000000E+00 -0.00000000000E+00 -0.46546539547E+00  0.46547238037E+00  0.25500000000E-02 0. -1.
         31    1    1    2    0    0 -0.37848692753E+00 -0.58534097553E-01  0.55322649343E+02  0.55822944521E+02  0.74470750000E+01 0. -1.
        -31    1    1    2    0    0  0.37848692753E+00  0.58534097553E-01  0.64345873304E+02  0.64776515929E+02  0.74470750000E+01 0.  1.
<mgrwt>
<rscale>  0 0.14955753E+02</rscale>
<asrwt>0</asrwt>
<pdfrwt beam="2">  1        2 0.98864044E+00 0.14955753E+02</pdfrwt>
<pdfrwt beam="1">  1       -2 0.99720072E+00 0.14955753E+02</pdfrwt>
<totfact>-0.15782779E-13</totfact>
</mgrwt>
</event>
<event>
 4    1 -0.4882314E-019  0.1495352E+02  0.7818608E-02  0.1869490E+00
          2   -1    0    0  501    0  0.00000000000E+00  0.00000000000E+00  0.11952441520E+03  0.11952441522E+03  0.25500000000E-02 0. -1.
         -2   -1    0    0    0  501 -0.00000000000E+00 -0.00000000000E+00 -0.46769962069E+00  0.46770657221E+00  0.25500000000E-02 0.  1.
         31    1    1    2    0    0 -0.40339805011E+00 -0.46933017738E+00  0.61494165159E+02  0.61946543692E+02  0.74470750000E+01 0. -1.
        -31    1    1    2    0    0  0.40339805011E+00  0.46933017738E+00  0.57562550416E+02  0.58045578102E+02  0.74470750000E+01 0. -1.
<mgrwt>
<rscale>  0 0.14953520E+02</rscale>
<asrwt>0</asrwt>
<pdfrwt beam="1">  1        2 0.99217882E+00 0.14953520E+02</pdfrwt>
<pdfrwt beam="2">  1       -2 0.99334777E+00 0.14953520E+02</pdfrwt>
<totfact>-0.13696816E-13</totfact>
</mgrwt>
</event>
<event>
 4    1 -0.4882314E-019  0.1501363E+02  0.7818608E-02  0.1867653E+00
          2   -1    0    0  501    0  0.00000000000E+00  0.00000000000E+00  0.12006116254E+03  0.12006116256E+03  0.25500000000E-02 0. -1.
         -2   -1    0    0    0  501 -0.00000000000E+00 -0.00000000000E+00 -0.46935954566E+00  0.46936647260E+00  0.25500000000E-02 0.  1.
         31    1    1    2    0    0  0.71645766297E+00 -0.67215897948E-01  0.64715454835E+02  0.65146502977E+02  0.74470750000E+01 0. -1.
        -31    1    1    2    0    0 -0.71645766297E+00  0.67215897948E-01  0.54876348155E+02  0.55384026058E+02  0.74470750000E+01 0.  1.
<mgrwt>
<rscale>  0 0.15013630E+02</rscale>
<asrwt>0</asrwt>
<pdfrwt beam="1">  1        2 0.99663074E+00 0.15013630E+02</pdfrwt>
<pdfrwt beam="2">  1       -2 0.99687688E+00 0.15013630E+02</pdfrwt>
<totfact>-0.78114645E-14</totfact>
</mgrwt>
</event>
<event>
 4    1 -0.4882314E-019  0.1495646E+02  0.7818608E-02  0.1869400E+00
         -2   -1    0    0    0  501 -0.00000000000E+00  0.00000000000E+00  0.11981549100E+03  0.11981549103E+03  0.25500000000E-02 0. -1.
          2   -1    0    0  501    0  0.00000000000E+00 -0.00000000000E+00 -0.46674669548E+00  0.46675366120E+00  0.25500000000E-02 0.  1.
         31    1    1    2    0    0 -0.32775494330E+00 -0.59214619604E+00  0.60343302857E+02  0.60804861534E+02  0.74470750000E+01 0.  1.
        -31    1    1    2    0    0  0.32775494330E+00  0.59214619604E+00  0.59005441451E+02  0.59477383158E+02  0.74470750000E+01 0.  1.
<mgrwt>
<rscale>  0 0.14956457E+02</rscale>
<asrwt>0</asrwt>
<pdfrwt beam="2">  1        2 0.99134112E+00 0.14956457E+02</pdfrwt>
<pdfrwt beam="1">  1       -2 0.99457776E+00 0.14956457E+02</pdfrwt>
<totfact>-0.15929005E-13</totfact>
</mgrwt>
</event>
<event>
 4    1  0.4882314E-019  0.1492408E+02  0.7818608E-02  0.1870394E+00
          2   -1    0    0  501    0  0.00000000000E+00  0.00000000000E+00  0.12016857975E+03  0.12016857978E+03  0.25500000000E-02 0.  1.
         -2   -1    0    0    0  501 -0.00000000000E+00 -0.00000000000E+00 -0.46336230579E+00  0.46336932238E+00  0.25500000000E-02 0. -1.
         31    1    1    2    0    0  0.86742504619E-01  0.45745417716E+00  0.60494200718E+02  0.60952637639E+02  0.74470750000E+01 0.  1.
        -31    1    1    2    0    0 -0.86742504619E-01 -0.45745417716E+00  0.59211016728E+02  0.59679311462E+02  0.74470750000E+01 0.  1.
<mgrwt>
<rscale>  0 0.14924077E+02</rscale>
<asrwt>0</asrwt>
<pdfrwt beam="1">  1        2 0.99746936E+00 0.14924077E+02</pdfrwt>
<pdfrwt beam="2">  1       -2 0.98419183E+00 0.14924077E+02</pdfrwt>
<totfact> 0.39433887E-13</totfact>
</mgrwt>
</event>
<event>
 4    1 -0.4882314E-019  0.1492382E+02  0.7818608E-02  0.1870402E+00
         -2   -1    0    0    0  501 -0.00000000000E+00  0.00000000000E+00  0.11957012453E+03  0.11957012456E+03  0.25500000000E-02 0.  1.
          2   -1    0    0  501    0  0.00000000000E+00 -0.00000000000E+00 -0.46566559599E+00  0.46567257788E+00  0.25500000000E-02 0. -1.
         31    1    1    2    0    0 -0.26788993462E+00  0.37335192565E+00  0.58746650709E+02  0.59218570164E+02  0.74470750000E+01 0. -1.
        -31    1    1    2    0    0  0.26788993462E+00 -0.37335192565E+00  0.60357808225E+02  0.60817226971E+02  0.74470750000E+01 0.  1.
<mgrwt>
<rscale>  0 0.14923822E+02</rscale>
<asrwt>0</asrwt>
<pdfrwt beam="2">  1        2 0.98904600E+00 0.14923822E+02</pdfrwt>
<pdfrwt beam="1">  1       -2 0.99253996E+00 0.14923822E+02</pdfrwt>
<totfact>-0.15465052E-13</totfact>
</mgrwt>
</event>
<event>
 4    1 -0.4882314E-019  0.1492749E+02  0.7818608E-02  0.1870289E+00
         -2   -1    0    0    0  501 -0.00000000000E+00  0.00000000000E+00  0.12032881043E+03  0.12032881045E+03  0.25500000000E-02 0.  1.
          2   -1    0    0  501    0  0.00000000000E+00 -0.00000000000E+00 -0.46295728879E+00  0.46296431153E+00  0.25500000000E-02 0. -1.
         31    1    1    2    0    0 -0.34121096960E+00 -0.34406324503E+00  0.58982511889E+02  0.59452758046E+02  0.74470750000E+01 0.  1.
        -31    1    1    2    0    0  0.34121096960E+00  0.34406324503E+00  0.60883341250E+02  0.61339016720E+02  0.74470750000E+01 0.  1.
<mgrwt>
<rscale>  0 0.14927495E+02</rscale>
<asrwt>0</asrwt>
<pdfrwt beam="2">  1        2 0.98333990E+00 0.14927495E+02</pdfrwt>
<pdfrwt beam="1">  1       -2 0.99879091E+00 0.14927495E+02</pdfrwt>
<totfact>-0.17657586E-13</totfact>
</mgrwt>
</event>
<event>
 4    1  0.4882314E-019  0.1497808E+02  0.7818608E-02  0.1868738E+00
          2   -1    0    0  501    0  0.00000000000E+00  0.00000000000E+00  0.12045557771E+03  0.12045557773E+03  0.25500000000E-02 0. -1.
         -2   -1    0    0    0  501 -0.00000000000E+00 -0.00000000000E+00 -0.46561006984E+00  0.46561705256E+00  0.25500000000E-02 0.  1.
         31    1    1    2    0    0 -0.16033158140E+00 -0.64660511323E-01  0.53757467739E+02  0.54271117097E+02  0.74470750000E+01 0.  1.
        -31    1    1    2    0    0  0.16033158140E+00  0.64660511323E-01  0.66232499896E+02  0.66650077688E+02  0.74470750000E+01 0. -1.
<mgrwt>
<rscale>  0 0.14978084E+02</rscale>
<asrwt>0</asrwt>
<pdfrwt beam="1">  1        2 0.99986104E+00 0.14978084E+02</pdfrwt>
<pdfrwt beam="2">  1       -2 0.98895673E+00 0.14978084E+02</pdfrwt>
<totfact> 0.35438317E-15</totfact>
</mgrwt>
</event>
<event>
 4    1 -0.4882314E-019  0.1492282E+02  0.7818608E-02  0.1870433E+00
          2   -1    0    0  501    0  0.00000000000E+00  0.00000000000E+00  0.11875495972E+03  0.11875495975E+03  0.25500000000E-02 0. -1.
         -2   -1    0    0    0  501 -0.00000000000E+00 -0.00000000000E+00 -0.46879932197E+00  0.46880625719E+00  0.25500000000E-02 0.  1.
         31    1    1    2    0    0 -0.37123405189E+00 -0.26176184313E+00  0.58455827669E+02  0.58930035199E+02  0.74470750000E+01 0. -1.
        -31    1    1    2    0    0  0.37123405189E+00  0.26176184313E+00  0.59830332732E+02  0.60293730809E+02  0.74470750000E+01 0. -1.
<mgrwt>
<rscale>  0 0.14922823E+02</rscale>
<asrwt>0</asrwt>
<pdfrwt beam="1">  1        2 0.98582551E+00 0.14922823E+02</pdfrwt>
<pdfrwt beam="2">  1       -2 0.99564907E+00 0.14922823E+02</pdfrwt>
<totfact>-0.29502514E-13</totfact>
</mgrwt>
</event>
<event>
 4    1 -0.4882314E-019  0.1499376E+02  0.7818608E-02  0.1868259E+00
          2   -1    0    0  501    0  0.00000000000E+00  0.00000000000E+00  0.11988600963E+03  0.11988600965E+03  0.25500000000E-02 0.  1.
         -2   -1    0    0    0  501 -0.00000000000E+00 -0.00000000000E+00 -0.46880217807E+00  0.46880911324E+00  0.25500000000E-02 0. -1.
         31    1    1    2    0    0  0.48238516774E+00  0.68591276011E+00  0.58080418257E+02  0.58561908121E+02  0.74470750000E+01 0. -1.
        -31    1    1    2    0    0 -0.48238516774E+00 -0.68591276011E+00  0.61336789192E+02  0.61792910647E+02  0.74470750000E+01 0.  1.
<mgrwt>
<rscale>  0 0.14993764E+02</rscale>
<asrwt>0</asrwt>
<pdfrwt beam="1">  1        2 0.99517785E+00 0.14993764E+02</pdfrwt>
<pdfrwt beam="2">  1       -2 0.99569204E+00 0.14993764E+02</pdfrwt>
<totfact>-0.11305790E-13</totfact>
</mgrwt>
</event>
<event>
 4    1 -0.4882314E-019  0.1493809E+02  0.7818608E-02  0.1869964E+00
          2   -1    0    0  501    0  0.00000000000E+00  0.00000000000E+00  0.11887642153E+03  0.11887642156E+03  0.25500000000E-02 0. -1.
         -2   -1    0    0    0  501 -0.00000000000E+00 -0.00000000000E+00 -0.46927904586E+00  0.46928597399E+00  0.25500000000E-02 0.  1.
         31    1    1    2    0    0 -0.15085713407E+00 -0.14894510627E+00  0.54955215747E+02  0.55457908420E+02  0.74470750000E+01 0.  1.
        -31    1    1    2    0    0  0.15085713407E+00  0.14894510627E+00  0.63451926738E+02  0.63887799112E+02  0.74470750000E+01 0. -1.
<mgrwt>
<rscale>  0 0.14938089E+02</rscale>
<asrwt>0</asrwt>
<pdfrwt beam="1">  1        2 0.98683381E+00 0.14938089E+02</pdfrwt>
<pdfrwt beam="2">  1       -2 0.99666790E+00 0.14938089E+02</pdfrwt>
<totfact>-0.22363179E-13</totfact>
</mgrwt>
</event>
<event>
 4    1 -0.4882314E-019  0.1492538E+02  0.7818608E-02  0.1870354E+00
          2   -1    0    0  501    0  0.00000000000E+00  0.00000000000E+00  0.11863008028E+03  0.11863008031E+03  0.25500000000E-02 0. -1.
         -2   -1    0    0    0  501 -0.00000000000E+00 -0.00000000000E+00 -0.46945343665E+00  0.46946036220E+00  0.25500000000E-02 0.  1.
         31    1    1    2    0    0 -0.29822354286E+00  0.35035740684E+00  0.57921219604E+02  0.58399814161E+02  0.74470750000E+01 0. -1.
        -31    1    1    2    0    0  0.29822354286E+00 -0.35035740684E+00  0.60239407245E+02  0.60699726514E+02  0.74470750000E+01 0. -1.
<mgrwt>
<rscale>  0 0.14925376E+02</rscale>
<asrwt>0</asrwt>
<pdfrwt beam="1">  1        2 0.98479833E+00 0.14925376E+02</pdfrwt>
<pdfrwt beam="2">  1       -2 0.99702867E+00 0.14925376E+02</pdfrwt>
<totfact>-0.28551547E-13</totfact>
</mgrwt>
</event>
<event>
 4    1 -0.4882314E-019  0.1489494E+02  0.7818608E-02  0.1871291E+00
         -2   -1    0    0    0  501 -0.00000000000E+00  0.00000000000E+00  0.11990528080E+03  0.11990528083E+03  0.25500000000E-02 0. -1.
          2   -1    0    0  501    0  0.00000000000E+00 -0.00000000000E+00 -0.46256839595E+00  0.46257542458E+00  0.25500000000E-02 0.  1.
         31    1    1    2    0    0 -0.68471115336E-01  0.34689410328E-01  0.59726096875E+02  0.60188632362E+02  0.74470750000E+01 0. -1.
        -31    1    1    2    0    0  0.68471115336E-01 -0.34689410328E-01  0.59716615530E+02  0.60179223891E+02  0.74470750000E+01 0.  1.
<mgrwt>
<rscale>  0 0.14894941E+02</rscale>
<asrwt>0</asrwt>
<pdfrwt beam="2">  1        2 0.98250377E+00 0.14894941E+02</pdfrwt>
<pdfrwt beam="1">  1       -2 0.99528565E+00 0.14894941E+02</pdfrwt>
<totfact>-0.52165774E-13</totfact>
</mgrwt>
</event>
<event>
 4    1 -0.4882314E-019  0.1499512E+02  0.7818608E-02  0.1868217E+00
          2   -1    0    0  501    0  0.00000000000E+00  0.00000000000E+00  0.11992213897E+03  0.11992213899E+03  0.25500000000E-02 0. -1.
         -2   -1    0    0    0  501 -0.00000000000E+00 -0.00000000000E+00 -0.46874567334E+00  0.46875260935E+00  0.25500000000E-02 0.  1.
         31    1    1    2    0    0  0.70305784485E+00  0.45738309703E+00  0.61539599153E+02  0.61994231019E+02  0.74470750000E+01 0. -1.
        -31    1    1    2    0    0 -0.70305784485E+00 -0.45738309703E+00  0.57913794140E+02  0.58396660584E+02  0.74470750000E+01 0.  1.
<mgrwt>
<rscale>  0 0.14995120E+02</rscale>
<asrwt>0</asrwt>
<pdfrwt beam="1">  1        2 0.99547612E+00 0.14995120E+02</pdfrwt>
<pdfrwt beam="2">  1       -2 0.99557367E+00 0.14995120E+02</pdfrwt>
<totfact>-0.11022608E-13</totfact>
</mgrwt>
</event>
<event>
 4    1  0.4882314E-019  0.1489949E+02  0.7818608E-02  0.1871151E+00
         -2   -1    0    0    0  501 -0.00000000000E+00  0.00000000000E+00  0.11892209289E+03  0.11892209292E+03  0.25500000000E-02 0.  1.
          2   -1    0    0  501    0  0.00000000000E+00 -0.00000000000E+00 -0.46667768519E+00  0.46668465194E+00  0.25500000000E-02 0. -1.
         31    1    1    2    0    0  0.11884497053E+00  0.96617972323E-01  0.58204077338E+02  0.58678761098E+02  0.74470750000E+01 0. -1.
        -31    1    1    2    0    0 -0.11884497053E+00 -0.96617972323E-01  0.60251337866E+02  0.60710016470E+02  0.74470750000E+01 0.  1.
<mgrwt>
<rscale>  0 0.14899491E+02</rscale>
<asrwt>0</asrwt>
<pdfrwt beam="2">  1        2 0.99116623E+00 0.14899491E+02</pdfrwt>
<pdfrwt beam="1">  1       -2 0.98718995E+00 0.14899491E+02</pdfrwt>
<totfact> 0.30640173E-13</totfact>
</mgrwt>
</event>
<event>
 4    1 -0.4882314E-019  0.1494155E+02  0.7818608E-02  0.1869857E+00
         -2   -1    0    0    0  501 -0.00000000000E+00  0.00000000000E+00  0.11996065140E+03  0.11996065142E+03  0.25500000000E-02 0. -1.
          2   -1    0    0  501    0  0.00000000000E+00 -0.00000000000E+00 -0.46525280582E+00  0.46525979391E+00  0.25500000000E-02 0.  1.
         31    1    1    2    0    0  0.35066266031E+00 -0.46045558797E+00  0.60845205006E+02  0.61301981060E+02  0.74470750000E+01 0.  1.
        -31    1    1    2    0    0 -0.35066266031E+00  0.46045558797E+00  0.58650193586E+02  0.59123930158E+02  0.74470750000E+01 0.  1.
<mgrwt>
<rscale>  0 0.14941546E+02</rscale>
<asrwt>0</asrwt>
<pdfrwt beam="2">  1        2 0.98818514E+00 0.14941546E+02</pdfrwt>
<pdfrwt beam="1">  1       -2 0.99576569E+00 0.14941546E+02</pdfrwt>
<totfact>-0.20930187E-13</totfact>
</mgrwt>
</event>
<event>
 4    1 -0.4882314E-019  0.1495196E+02  0.7818608E-02  0.1869538E+00
          2   -1    0    0  501    0  0.00000000000E+00  0.00000000000E+00  0.11880854331E+03  0.11880854334E+03  0.25500000000E-02 0.  1.
         -2   -1    0    0    0  501 -0.00000000000E+00 -0.00000000000E+00 -0.47041981247E+00  0.47042672380E+00  0.25500000000E-02 0. -1.
         31    1    1    2    0    0  0.51403022226E+00 -0.24579713185E+00  0.56562767784E+02  0.57053748946E+02  0.74470750000E+01 0.  1.
        -31    1    1    2    0    0 -0.51403022226E+00  0.24579713185E+00  0.61775355715E+02  0.62225221117E+02  0.74470750000E+01 0.  1.
<mgrwt>
<rscale>  0 0.14951964E+02</rscale>
<asrwt>0</asrwt>
<pdfrwt beam="1">  1        2 0.98628198E+00 0.14951964E+02</pdfrwt>
<pdfrwt beam="2">  1       -2 0.99907886E+00 0.14951964E+02</pdfrwt>
<totfact>-0.85562478E-14</totfact>
</mgrwt>
</event>
<event>
 4    1  0.4882314E-019  0.1491900E+02  0.7818608E-02  0.1870550E+00
         -2   -1    0    0    0  501 -0.00000000000E+00  0.00000000000E+00  0.11877743680E+03  0.11877743683E+03  0.25500000000E-02 0.  1.
          2   -1    0    0  501    0  0.00000000000E+00 -0.00000000000E+00 -0.46847059603E+00  0.46847753612E+00  0.25500000000E-02 0. -1.
         31    1    1    2    0    0 -0.20435883840E+00  0.35058869004E+00  0.58008652612E+02  0.58486129799E+02  0.74470750000E+01 0. -1.
        -31    1    1    2    0    0  0.20435883840E+00 -0.35058869004E+00  0.60300313593E+02  0.60759784565E+02  0.74470750000E+01 0.  1.
<mgrwt>
<rscale>  0 0.14919002E+02</rscale>
<asrwt>0</asrwt>
<pdfrwt beam="2">  1        2 0.99495440E+00 0.14919002E+02</pdfrwt>
<pdfrwt beam="1">  1       -2 0.98600865E+00 0.14919002E+02</pdfrwt>
<totfact> 0.35727321E-13</totfact>
</mgrwt>
</event>
<event>
 4    1 -0.4882314E-019  0.1493235E+02  0.7818608E-02  0.1870140E+00
         -2   -1    0    0    0  501 -0.00000000000E+00  0.00000000000E+00  0.12006461392E+03  0.12006461395E+03  0.25500000000E-02 0. -1.
          2   -1    0    0  501    0  0.00000000000E+00 -0.00000000000E+00 -0.46427774408E+00  0.46428474684E+00  0.25500000000E-02 0.  1.
         31    1    1    2    0    0  0.67712946720E-01 -0.84038993518E-01  0.64018939845E+02  0.64450719410E+02  0.74470750000E+01 0. -1.
        -31    1    1    2    0    0 -0.67712946720E-01  0.84038993518E-01  0.55581396331E+02  0.56078179283E+02  0.74470750000E+01 0.  1.
<mgrwt>
<rscale>  0 0.14932348E+02</rscale>
<asrwt>0</asrwt>
<pdfrwt beam="2">  1        2 0.98612544E+00 0.14932348E+02</pdfrwt>
<pdfrwt beam="1">  1       -2 0.99661726E+00 0.14932348E+02</pdfrwt>
<totfact>-0.25062873E-13</totfact>
</mgrwt>
</event>
<event>
 4    1 -0.4882314E-019  0.1493088E+02  0.7818608E-02  0.1870185E+00
         -2   -1    0    0    0  501 -0.00000000000E+00  0.00000000000E+00  0.12038414997E+03  0.12038414999E+03  0.25500000000E-02 0. -1.
          2   -1    0    0  501    0  0.00000000000E+00 -0.00000000000E+00 -0.46295418019E+00  0.46296120297E+00  0.25500000000E-02 0.  1.
         31    1    1    2    0    0  0.28156279642E+00  0.86608525102E-01  0.56459943529E+02  0.56949722809E+02  0.74470750000E+01 0.  1.
        -31    1    1    2    0    0 -0.28156279642E+00 -0.86608525102E-01  0.63461252257E+02  0.63897388387E+02  0.74470750000E+01 0. -1.
<mgrwt>
<rscale>  0 0.14930877E+02</rscale>
<asrwt>0</asrwt>
<pdfrwt beam="2">  1        2 0.98333506E+00 0.14930877E+02</pdfrwt>
<pdfrwt beam="1">  1       -2 0.99924847E+00 0.14930877E+02</pdfrwt>
<totfact>-0.11405766E-13</totfact>
</mgrwt>
</event>
<event>
 4    1  0.4882314E-019  0.1491787E+02  0.7818608E-02  0.1870585E+00
         -2   -1    0    0    0  501 -0.00000000000E+00  0.00000000000E+00  0.11879499196E+03  0.11879499199E+03  0.25500000000E-02 0. -1.
          2   -1    0    0  501    0  0.00000000000E+00 -0.00000000000E+00 -0.46833056136E+00  0.46833750352E+00  0.25500000000E-02 0.  1.
         31    1    1    2    0    0  0.44698653703E-01  0.33724779315E+00  0.57187488435E+02  0.57671340314E+02  0.74470750000E+01 0.  1.
        -31    1    1    2    0    0 -0.44698653703E-01 -0.33724779315E+00  0.61139172964E+02  0.61591989177E+02  0.74470750000E+01 0.  1.
<mgrwt>
<rscale>  0 0.14917874E+02</rscale>
<asrwt>0</asrwt>
<pdfrwt beam="2">  1        2 0.99465874E+00 0.14917874E+02</pdfrwt>
<pdfrwt beam="1">  1       -2 0.98615265E+00 0.14917874E+02</pdfrwt>
<totfact> 0.35016623E-13</totfact>
</mgrwt>
</event>
<event>
 4    1  0.4882314E-019  0.1489775E+02  0.7818608E-02  0.1871205E+00
          2   -1    0    0  501    0  0.00000000000E+00  0.00000000000E+00  0.12027653853E+03  0.12027653856E+03  0.25500000000E-02 0. -1.
         -2   -1    0    0    0  501 -0.00000000000E+00 -0.00000000000E+00 -0.46131423806E+00  0.46132128580E+00  0.25500000000E-02 0.  1.
         31    1    1    2    0    0 -0.99957344234E-01 -0.14679881246E-01  0.60950971598E+02  0.61404316394E+02  0.74470750000E+01 0. -1.
        -31    1    1    2    0    0  0.99957344234E-01  0.14679881246E-01  0.58864252693E+02  0.59333543449E+02  0.74470750000E+01 0.  1.
<mgrwt>
<rscale>  0 0.14897746E+02</rscale>
<asrwt>0</asrwt>
<pdfrwt beam="1">  1        2 0.99834510E+00 0.14897746E+02</pdfrwt>
<pdfrwt beam="2">  1       -2 0.97986175E+00 0.14897746E+02</pdfrwt>
<totfact> 0.68354011E-13</totfact>
</mgrwt>
</event>
<event>
 4    1  0.4882314E-019  0.1493439E+02  0.7818608E-02  0.1870077E+00
         -2   -1    0    0    0  501 -0.00000000000E+00  0.00000000000E+00  0.11881366378E+03  0.11881366380E+03  0.25500000000E-02 0.  1.
          2   -1    0    0  501    0  0.00000000000E+00 -0.00000000000E+00 -0.46929463735E+00  0.46930156525E+00  0.25500000000E-02 0. -1.
         31    1    1    2    0    0  0.30083373161E+00 -0.40407014841E+00  0.57452994642E+02  0.57935820465E+02  0.74470750000E+01 0.  1.
        -31    1    1    2    0    0 -0.30083373161E+00  0.40407014841E+00  0.60891374497E+02  0.61347144904E+02  0.74470750000E+01 0.  1.
<mgrwt>
<rscale>  0 0.14934394E+02</rscale>
<asrwt>0</asrwt>
<pdfrwt beam="2">  1        2 0.99669881E+00 0.14934394E+02</pdfrwt>
<pdfrwt beam="1">  1       -2 0.98631502E+00 0.14934394E+02</pdfrwt>
<totfact> 0.25154948E-13</totfact>
</mgrwt>
</event>
<event>
 4    1 -0.4882314E-019  0.1496618E+02  0.7818608E-02  0.1869102E+00
          2   -1    0    0  501    0  0.00000000000E+00  0.00000000000E+00  0.11980433223E+03  0.11980433226E+03  0.25500000000E-02 0. -1.
         -2   -1    0    0    0  501 -0.00000000000E+00 -0.00000000000E+00 -0.46739697810E+00  0.46740393412E+00  0.25500000000E-02 0.  1.
         31    1    1    2    0    0 -0.58692581775E+00  0.41372511983E-01  0.56151907839E+02  0.56646640444E+02  0.74470750000E+01 0. -1.
        -31    1    1    2    0    0  0.58692581775E+00 -0.41372511983E-01  0.63185027417E+02  0.63625095751E+02  0.74470750000E+01 0.  1.
<mgrwt>
<rscale>  0 0.14966176E+02</rscale>
<asrwt>0</asrwt>
<pdfrwt beam="1">  1        2 0.99449086E+00 0.14966176E+02</pdfrwt>
<pdfrwt beam="2">  1       -2 0.99271654E+00 0.14966176E+02</pdfrwt>
<totfact>-0.10258741E-13</totfact>
</mgrwt>
</event>
<event>
 4    1  0.4882314E-019  0.1496547E+02  0.7818608E-02  0.1869124E+00
          2   -1    0    0  501    0  0.00000000000E+00  0.00000000000E+00  0.12030688255E+03  0.12030688257E+03  0.25500000000E-02 0.  1.
         -2   -1    0    0    0  501 -0.00000000000E+00 -0.00000000000E+00 -0.46540043560E+00  0.46540742146E+00  0.25500000000E-02 0. -1.
         31    1    1    2    0    0  0.23669072398E-01  0.54095990595E+00  0.55974032683E+02  0.56469854424E+02  0.74470750000E+01 0. -1.
        -31    1    1    2    0    0 -0.23669072398E-01 -0.54095990595E+00  0.63867449427E+02  0.64302435570E+02  0.74470750000E+01 0.  1.
<mgrwt>
<rscale>  0 0.14965467E+02</rscale>
<asrwt>0</asrwt>
<pdfrwt beam="1">  1        2 0.99862979E+00 0.14965467E+02</pdfrwt>
<pdfrwt beam="2">  1       -2 0.98850848E+00 0.14965467E+02</pdfrwt>
<totfact> 0.44114072E-14</totfact>
</mgrwt>
</event>
<event>
 4    1 -0.4882314E-019  0.1489925E+02  0.7818608E-02  0.1871159E+00
         -2   -1    0    0    0  501 -0.00000000000E+00  0.00000000000E+00  0.12005053488E+03  0.12005053491E+03  0.25500000000E-02 0. -1.
          2   -1    0    0  501    0  0.00000000000E+00 -0.00000000000E+00 -0.46227601195E+00  0.46228304504E+00  0.25500000000E-02 0.  1.
         31    1    1    2    0    0  0.38202898126E-01  0.37734489911E-01  0.58278778638E+02  0.58752683759E+02  0.74470750000E+01 0.  1.
        -31    1    1    2    0    0 -0.38202898126E-01 -0.37734489911E-01  0.61309480230E+02  0.61760134192E+02  0.74470750000E+01 0. -1.
<mgrwt>
<rscale>  0 0.14899249E+02</rscale>
<asrwt>0</asrwt>
<pdfrwt beam="2">  1        2 0.98188970E+00 0.14899249E+02</pdfrwt>
<pdfrwt beam="1">  1       -2 0.99648430E+00 0.14899249E+02</pdfrwt>
<totfact>-0.51463435E-13</totfact>
</mgrwt>
</event>
<event>
 4    1 -0.4882314E-019  0.1490681E+02  0.7818608E-02  0.1870926E+00
          2   -1    0    0  501    0  0.00000000000E+00  0.00000000000E+00  0.11821522507E+03  0.11821522510E+03  0.25500000000E-02 0.  1.
         -2   -1    0    0    0  501 -0.00000000000E+00 -0.00000000000E+00 -0.46992938947E+00  0.46993630801E+00  0.25500000000E-02 0. -1.
         31    1    1    2    0    0  0.13160430262E+00 -0.15315777765E+00  0.57030771459E+02  0.57515290108E+02  0.74470750000E+01 0. -1.
        -31    1    1    2    0    0 -0.13160430262E+00  0.15315777765E+00  0.60714524225E+02  0.61169871301E+02  0.74470750000E+01 0.  1.
<mgrwt>
<rscale>  0 0.14906807E+02</rscale>
<asrwt>0</asrwt>
<pdfrwt beam="1">  1        2 0.98137195E+00 0.14906807E+02</pdfrwt>
<pdfrwt beam="2">  1       -2 0.99802168E+00 0.14906807E+02</pdfrwt>
<totfact>-0.37545377E-13</totfact>
</mgrwt>
</event>
<event>
 4    1  0.4882314E-019  0.1494420E+02  0.7818608E-02  0.1869776E+00
         -2   -1    0    0    0  501 -0.00000000000E+00  0.00000000000E+00  0.11867568856E+03  0.11867568859E+03  0.25500000000E-02 0. -1.
          2   -1    0    0  501    0  0.00000000000E+00 -0.00000000000E+00 -0.47045765389E+00  0.47046456467E+00  0.25500000000E-02 0.  1.
         31    1    1    2    0    0  0.22382708487E+00  0.18067263847E+00  0.54804490098E+02  0.55308894421E+02  0.74470750000E+01 0.  1.
        -31    1    1    2    0    0 -0.22382708487E+00 -0.18067263847E+00  0.63400740809E+02  0.63837258731E+02  0.74470750000E+01 0. -1.
<mgrwt>
<rscale>  0 0.14944203E+02</rscale>
<asrwt>0</asrwt>
<pdfrwt beam="2">  1        2 0.99915449E+00 0.14944203E+02</pdfrwt>
<pdfrwt beam="1">  1       -2 0.98518376E+00 0.14944203E+02</pdfrwt>
<totfact> 0.12136738E-13</totfact>
</mgrwt>
</event>
<event>
 4    1 -0.4882314E-019  0.1499531E+02  0.7818608E-02  0.1868212E+00
          2   -1    0    0  501    0  0.00000000000E+00  0.00000000000E+00  0.12002880268E+03  0.12002880271E+03  0.25500000000E-02 0.  1.
         -2   -1    0    0    0  501 -0.00000000000E+00 -0.00000000000E+00 -0.46834074567E+00  0.46834768768E+00  0.25500000000E-02 0. -1.
         31    1    1    2    0    0  0.85768019219E+00  0.40826521496E-01  0.58684588623E+02  0.59161449864E+02  0.74470750000E+01 0.  1.
        -31    1    1    2    0    0 -0.85768019219E+00 -0.40826521496E-01  0.60875873314E+02  0.61335700534E+02  0.74470750000E+01 0.  1.
<mgrwt>
<rscale>  0 0.14995306E+02</rscale>
<asrwt>0</asrwt>
<pdfrwt beam="1">  1        2 0.99635475E+00 0.14995306E+02</pdfrwt>
<pdfrwt beam="2">  1       -2 0.99472044E+00 0.14995306E+02</pdfrwt>
<totfact>-0.10008376E-13</totfact>
</mgrwt>
</event>
<event>
 4    1 -0.4882314E-019  0.1492755E+02  0.7818608E-02  0.1870287E+00
         -2   -1    0    0    0  501 -0.00000000000E+00  0.00000000000E+00  0.11992712232E+03  0.11992712234E+03  0.25500000000E-02 0. -1.
          2   -1    0    0  501    0  0.00000000000E+00 -0.00000000000E+00 -0.46451148186E+00  0.46451848110E+00  0.25500000000E-02 0.  1.
         31    1    1    2    0    0 -0.13273313309E+00 -0.75075157215E-01  0.63563422721E+02  0.63998366295E+02  0.74470750000E+01 0. -1.
        -31    1    1    2    0    0  0.13273313309E+00  0.75075157215E-01  0.55899188113E+02  0.56393274530E+02  0.74470750000E+01 0.  1.
<mgrwt>
<rscale>  0 0.14927551E+02</rscale>
<asrwt>0</asrwt>
<pdfrwt beam="2">  1        2 0.98661562E+00 0.14927551E+02</pdfrwt>
<pdfrwt beam="1">  1       -2 0.99548232E+00 0.14927551E+02</pdfrwt>
<totfact>-0.26477155E-13</totfact>
</mgrwt>
</event>
<event>
 4    1  0.4882314E-019  0.1490063E+02  0.7818608E-02  0.1871116E+00
          2   -1    0    0  501    0  0.00000000000E+00  0.00000000000E+00  0.11938249614E+03  0.11938249617E+03  0.25500000000E-02 0.  1.
         -2   -1    0    0    0  501 -0.00000000000E+00 -0.00000000000E+00 -0.46494917376E+00  0.46495616641E+00  0.25500000000E-02 0. -1.
         31    1    1    2    0    0 -0.81688282540E-02 -0.59074109801E-03  0.57692573846E+02  0.58171230605E+02  0.74470750000E+01 0. -1.
        -31    1    1    2    0    0  0.81688282540E-02  0.59074109801E-03  0.61224973118E+02  0.61676221727E+02  0.74470750000E+01 0.  1.
<mgrwt>
<rscale>  0 0.14900633E+02</rscale>
<asrwt>0</asrwt>
<pdfrwt beam="1">  1        2 0.99098259E+00 0.14900633E+02</pdfrwt>
<pdfrwt beam="2">  1       -2 0.98752427E+00 0.14900633E+02</pdfrwt>
<totfact> 0.26660601E-13</totfact>
</mgrwt>
</event>
<event>
 4    1  0.4882314E-019  0.1492382E+02  0.7818608E-02  0.1870402E+00
         -2   -1    0    0    0  501 -0.00000000000E+00  0.00000000000E+00  0.11912801004E+03  0.11912801006E+03  0.25500000000E-02 0.  1.
          2   -1    0    0  501    0  0.00000000000E+00 -0.00000000000E+00 -0.46739369090E+00  0.46740064698E+00  0.25500000000E-02 0. -1.
         31    1    1    2    0    0 -0.18297497775E+00  0.94942687015E-01  0.55942881387E+02  0.56436755735E+02  0.74470750000E+01 0. -1.
        -31    1    1    2    0    0  0.18297497775E+00 -0.94942687015E-01  0.62717734959E+02  0.63158654976E+02  0.74470750000E+01 0.  1.
<mgrwt>
<rscale>  0 0.14923820E+02</rscale>
<asrwt>0</asrwt>
<pdfrwt beam="2">  1        2 0.99268768E+00 0.14923820E+02</pdfrwt>
<pdfrwt beam="1">  1       -2 0.98889853E+00 0.14923820E+02</pdfrwt>
<totfact> 0.96305581E-14</totfact>
</mgrwt>
</event>
<event>
 4    1  0.4882314E-019  0.1493514E+02  0.7818608E-02  0.1870054E+00
         -2   -1    0    0    0  501 -0.00000000000E+00  0.00000000000E+00  0.11898145978E+03  0.11898145981E+03  0.25500000000E-02 0.  1.
          2   -1    0    0  501    0  0.00000000000E+00 -0.00000000000E+00 -0.46867969901E+00  0.46868663600E+00  0.25500000000E-02 0. -1.
         31    1    1    2    0    0 -0.21221855105E+00 -0.41217698039E+00  0.61665851465E+02  0.62115626774E+02  0.74470750000E+01 0.  1.
        -31    1    1    2    0    0  0.21221855105E+00  0.41217698039E+00  0.56846928616E+02  0.57334519669E+02  0.74470750000E+01 0.  1.
<mgrwt>
<rscale>  0 0.14935141E+02</rscale>
<asrwt>0</asrwt>
<pdfrwt beam="2">  1        2 0.99540346E+00 0.14935141E+02</pdfrwt>
<pdfrwt beam="1">  1       -2 0.98769739E+00 0.14935141E+02</pdfrwt>
<totfact> 0.17046773E-13</totfact>
</mgrwt>
</event>
<event>
 4    1 -0.4882314E-019  0.1494603E+02  0.7818608E-02  0.1869720E+00
          2   -1    0    0  501    0  0.00000000000E+00  0.00000000000E+00  0.11912154968E+03  0.11912154971E+03  0.25500000000E-02 0.  1.
         -2   -1    0    0    0  501 -0.00000000000E+00 -0.00000000000E+00 -0.46881133521E+00  0.46881827025E+00  0.25500000000E-02 0. -1.
         31    1    1    2    0    0 -0.72493337763E-01 -0.21473035056E+00  0.54690627103E+02  0.55195787732E+02  0.74470750000E+01 0. -1.
        -31    1    1    2    0    0  0.72493337763E-01  0.21473035056E+00  0.63962111242E+02  0.64394580245E+02  0.74470750000E+01 0.  1.
<mgrwt>
<rscale>  0 0.14946029E+02</rscale>
<asrwt>0</asrwt>
<pdfrwt beam="1">  1        2 0.98885684E+00 0.14946029E+02</pdfrwt>
<pdfrwt beam="2">  1       -2 0.99568653E+00 0.14946029E+02</pdfrwt>
<totfact>-0.19443969E-13</totfact>
</mgrwt>
</event>
<event>
 4    1  0.4882314E-019  0.1497291E+02  0.7818608E-02  0.1868896E+00
         -2   -1    0    0    0  501 -0.00000000000E+00  0.00000000000E+00  0.11919516261E+03  0.11919516263E+03  0.25500000000E-02 0. -1.
          2   -1    0    0  501    0  0.00000000000E+00 -0.00000000000E+00 -0.47020882051E+00  0.47021573494E+00  0.25500000000E-02 0.  1.
         31    1    1    2    0    0 -0.36427700266E+00  0.29496689084E+00  0.54511561115E+02  0.55019895715E+02  0.74470750000E+01 0.  1.
        -31    1    1    2    0    0  0.36427700266E+00 -0.29496689084E+00  0.64213392670E+02  0.64645482653E+02  0.74470750000E+01 0. -1.
<mgrwt>
<rscale>  0 0.14972913E+02</rscale>
<asrwt>0</asrwt>
<pdfrwt beam="2">  1        2 0.99864529E+00 0.14972913E+02</pdfrwt>
<pdfrwt beam="1">  1       -2 0.98947707E+00 0.14972913E+02</pdfrwt>
<totfact> 0.16031334E-14</totfact>
</mgrwt>
</event>
<event>
 4    1  0.4882314E-019  0.1490092E+02  0.7818608E-02  0.1871107E+00
          2   -1    0    0  501    0  0.00000000000E+00  0.00000000000E+00  0.12005696138E+03  0.12005696141E+03  0.25500000000E-02 0. -1.
         -2   -1    0    0    0  501 -0.00000000000E+00 -0.00000000000E+00 -0.46235468922E+00  0.46236172110E+00  0.25500000000E-02 0.  1.
         31    1    1    2    0    0 -0.17414030323E+00 -0.91120421905E-01  0.60674795292E+02  0.61130420721E+02  0.74470750000E+01 0.  1.
        -31    1    1    2    0    0  0.17414030323E+00  0.91120421905E-01  0.58919811400E+02  0.59388902408E+02  0.74470750000E+01 0. -1.
<mgrwt>
<rscale>  0 0.14900916E+02</rscale>
<asrwt>0</asrwt>
<pdfrwt beam="1">  1        2 0.99653809E+00 0.14900916E+02</pdfrwt>
<pdfrwt beam="2">  1       -2 0.98205637E+00 0.14900916E+02</pdfrwt>
<totfact> 0.78659113E-13</totfact>
</mgrwt>
</event>
<event>
 4    1 -0.4882314E-019  0.1497810E+02  0.7818608E-02  0.1868738E+00
         -2   -1    0    0    0  501 -0.00000000000E+00  0.00000000000E+00  0.12006934314E+03  0.12006934317E+03  0.25500000000E-02 0.  1.
          2   -1    0    0  501    0  0.00000000000E+00 -0.00000000000E+00 -0.46710862864E+00  0.46711558896E+00  0.25500000000E-02 0. -1.
         31    1    1    2    0    0 -0.75247840954E+00 -0.23920048246E+00  0.59326337583E+02  0.59797129511E+02  0.74470750000E+01 0. -1.
        -31    1    1    2    0    0  0.75247840954E+00  0.23920048246E+00  0.60275896931E+02  0.60739329248E+02  0.74470750000E+01 0. -1.
<mgrwt>
<rscale>  0 0.14978097E+02</rscale>
<asrwt>0</asrwt>
<pdfrwt beam="2">  1        2 0.99211500E+00 0.14978097E+02</pdfrwt>
<pdfrwt beam="1">  1       -2 0.99667978E+00 0.14978097E+02</pdfrwt>
<totfact>-0.12802964E-13</totfact>
</mgrwt>
</event>
<event>
 4    1  0.4882314E-019  0.1493535E+02  0.7818608E-02  0.1870048E+00
          2   -1    0    0  501    0  0.00000000000E+00  0.00000000000E+00  0.12015915875E+03  0.12015915878E+03  0.25500000000E-02 0. -1.
         -2   -1    0    0    0  501 -0.00000000000E+00 -0.00000000000E+00 -0.46409888147E+00  0.46410588693E+00  0.25500000000E-02 0.  1.
         31    1    1    2    0    0  0.13532730924E+00  0.35036409924E+00  0.56555377075E+02  0.57044812828E+02  0.74470750000E+01 0.  1.
        -31    1    1    2    0    0 -0.13532730924E+00 -0.35036409924E+00  0.63139682798E+02  0.63578451840E+02  0.74470750000E+01 0.  1.
<mgrwt>
<rscale>  0 0.14935348E+02</rscale>
<asrwt>0</asrwt>
<pdfrwt beam="1">  1        2 0.99739755E+00 0.14935348E+02</pdfrwt>
<pdfrwt beam="2">  1       -2 0.98574999E+00 0.14935348E+02</pdfrwt>
<totfact> 0.25885482E-13</totfact>
</mgrwt>
</event>
<event>
 4    1 -0.4882314E-019  0.1495553E+02  0.7818608E-02  0.1869428E+00
          2   -1    0    0  501    0  0.00000000000E+00  0.00000000000E+00  0.11928357692E+03  0.11928357695E+03  0.25500000000E-02 0. -1.
         -2   -1    0    0    0  501 -0.00000000000E+00 -0.00000000000E+00 -0.46877014205E+00  0.46877707770E+00  0.25500000000E-02 0.  1.
         31    1    1    2    0    0 -0.29913600673E+00 -0.16586200667E+00  0.54731034691E+02  0.55236419842E+02  0.74470750000E+01 0.  1.
        -31    1    1    2    0    0  0.29913600673E+00  0.16586200667E+00  0.64083772087E+02  0.64515934183E+02  0.74470750000E+01 0. -1.
<mgrwt>
<rscale>  0 0.14955534E+02</rscale>
<asrwt>0</asrwt>
<pdfrwt beam="1">  1        2 0.99019625E+00 0.14955534E+02</pdfrwt>
<pdfrwt beam="2">  1       -2 0.99560469E+00 0.14955534E+02</pdfrwt>
<totfact>-0.17043620E-13</totfact>
</mgrwt>
</event>
<event>
 4    1 -0.4882314E-019  0.1493880E+02  0.7818608E-02  0.1869942E+00
         -2   -1    0    0    0  501 -0.00000000000E+00  0.00000000000E+00  0.11953120508E+03  0.11953120511E+03  0.25500000000E-02 0. -1.
          2   -1    0    0  501    0  0.00000000000E+00 -0.00000000000E+00 -0.46675278245E+00  0.46675974807E+00  0.25500000000E-02 0.  1.
         31    1    1    2    0    0 -0.32845421252E+00 -0.25479206809E+00  0.56317014269E+02  0.56808782977E+02  0.74470750000E+01 0.  1.
        -31    1    1    2    0    0  0.32845421252E+00  0.25479206809E+00  0.62747438032E+02  0.63189181881E+02  0.74470750000E+01 0.  1.
<mgrwt>
<rscale>  0 0.14938801E+02</rscale>
<asrwt>0</asrwt>
<pdfrwt beam="2">  1        2 0.99134485E+00 0.14938801E+02</pdfrwt>
<pdfrwt beam="1">  1       -2 0.99222713E+00 0.14938801E+02</pdfrwt>
<totfact>-0.11393435E-13</totfact>
</mgrwt>
</event>
<event>
 4    1 -0.4882314E-019  0.1501862E+02  0.7818608E-02  0.1867501E+00
         -2   -1    0    0    0  501 -0.00000000000E+00  0.00000000000E+00  0.12015319603E+03  0.12015319606E+03  0.25500000000E-02 0. -1.
          2   -1    0    0  501    0  0.00000000000E+00 -0.00000000000E+00 -0.46931209426E+00  0.46931902190E+00  0.25500000000E-02 0.  1.
         31    1    1    2    0    0 -0.81119544664E+00 -0.39717598424E+00  0.62566212877E+02  0.63014329376E+02  0.74470750000E+01 0. -1.
        -31    1    1    2    0    0  0.81119544664E+00  0.39717598424E+00  0.57117671057E+02  0.57608185702E+02  0.74470750000E+01 0.  1.
<mgrwt>
<rscale>  0 0.15018624E+02</rscale>
<asrwt>0</asrwt>
<pdfrwt beam="2">  1        2 0.99677946E+00 0.15018624E+02</pdfrwt>
<pdfrwt beam="1">  1       -2 0.99739135E+00 0.15018624E+02</pdfrwt>
<totfact>-0.67214903E-14</totfact>
</mgrwt>
</event>
<event>
 4    1 -0.4882314E-019  0.1494597E+02  0.7818608E-02  0.1869722E+00
          2   -1    0    0  501    0  0.00000000000E+00  0.00000000000E+00  0.11908453353E+03  0.11908453356E+03  0.25500000000E-02 0. -1.
         -2   -1    0    0    0  501 -0.00000000000E+00 -0.00000000000E+00 -0.46895332818E+00  0.46896026113E+00  0.25500000000E-02 0.  1.
         31    1    1    2    0    0 -0.13773285070E+00  0.42555344178E+00  0.55853236998E+02  0.56349295251E+02  0.74470750000E+01 0.  1.
        -31    1    1    2    0    0  0.13773285070E+00 -0.42555344178E+00  0.62762343208E+02  0.63204198572E+02  0.74470750000E+01 0.  1.
<mgrwt>
<rscale>  0 0.14945970E+02</rscale>
<asrwt>0</asrwt>
<pdfrwt beam="1">  1        2 0.98855193E+00 0.14945970E+02</pdfrwt>
<pdfrwt beam="2">  1       -2 0.99598570E+00 0.14945970E+02</pdfrwt>
<totfact>-0.19597443E-13</totfact>
</mgrwt>
</event>
<event>
 4    1  0.4882314E-019  0.1496791E+02  0.7818608E-02  0.1869049E+00
         -2   -1    0    0    0  501 -0.00000000000E+00  0.00000000000E+00  0.11912081193E+03  0.11912081196E+03  0.25500000000E-02 0.  1.
          2   -1    0    0  501    0  0.00000000000E+00 -0.00000000000E+00 -0.47018798967E+00  0.47019490440E+00  0.25500000000E-02 0. -1.
         31    1    1    2    0    0 -0.12604876203E+00  0.73099333488E+00  0.59489946690E+02  0.59958843574E+02  0.74470750000E+01 0.  1.
        -31    1    1    2    0    0  0.12604876203E+00 -0.73099333488E+00  0.59160677249E+02  0.59632163286E+02  0.74470750000E+01 0.  1.
<mgrwt>
<rscale>  0 0.14967911E+02</rscale>
<asrwt>0</asrwt>
<pdfrwt beam="2">  1        2 0.99859878E+00 0.14967911E+02</pdfrwt>
<pdfrwt beam="1">  1       -2 0.98886212E+00 0.14967911E+02</pdfrwt>
<totfact> 0.33904075E-14</totfact>
</mgrwt>
</event>
<event>
 4    1 -0.4882314E-019  0.1500107E+02  0.7818608E-02  0.1868036E+00
          2   -1    0    0  501    0  0.00000000000E+00  0.00000000000E+00  0.11982967114E+03  0.11982967117E+03  0.25500000000E-02 0. -1.
         -2   -1    0    0    0  501 -0.00000000000E+00 -0.00000000000E+00 -0.46947967000E+00  0.46948659516E+00  0.25500000000E-02 0.  1.
         31    1    1    2    0    0  0.25359988517E+00 -0.44575152615E-01  0.52815275031E+02  0.53338339893E+02  0.74470750000E+01 0.  1.
        -31    1    1    2    0    0 -0.25359988517E+00  0.44575152615E-01  0.66544916440E+02  0.66960817871E+02  0.74470750000E+01 0. -1.
<mgrwt>
<rscale>  0 0.15001068E+02</rscale>
<asrwt>0</asrwt>
<pdfrwt beam="1">  1        2 0.99471761E+00 0.15001068E+02</pdfrwt>
<pdfrwt beam="2">  1       -2 0.99712351E+00 0.15001068E+02</pdfrwt>
<totfact>-0.95599093E-14</totfact>
</mgrwt>
</event>
<event>
 4    1 -0.4882314E-019  0.1492485E+02  0.7818608E-02  0.1870370E+00
          2   -1    0    0  501    0  0.00000000000E+00  0.00000000000E+00  0.11844712892E+03  0.11844712895E+03  0.25500000000E-02 0.  1.
         -2   -1    0    0    0  501 -0.00000000000E+00 -0.00000000000E+00 -0.47014540413E+00  0.47015231949E+00  0.25500000000E-02 0. -1.
         31    1    1    2    0    0  0.37604436762E+00 -0.81463531560E-01  0.56723433855E+02  0.57211492902E+02  0.74470750000E+01 0. -1.
        -31    1    1    2    0    0 -0.37604436762E+00  0.81463531560E-01  0.61253549660E+02  0.61705788364E+02  0.74470750000E+01 0.  1.
<mgrwt>
<rscale>  0 0.14924850E+02</rscale>
<asrwt>0</asrwt>
<pdfrwt beam="1">  1        2 0.98329128E+00 0.14924850E+02</pdfrwt>
<pdfrwt beam="2">  1       -2 0.99848636E+00 0.14924850E+02</pdfrwt>
<totfact>-0.21700097E-13</totfact>
</mgrwt>
</event>
<event>
 4    1 -0.4882314E-019  0.1500660E+02  0.7818608E-02  0.1867867E+00
          2   -1    0    0  501    0  0.00000000000E+00  0.00000000000E+00  0.12006307958E+03  0.12006307961E+03  0.25500000000E-02 0. -1.
         -2   -1    0    0    0  501 -0.00000000000E+00 -0.00000000000E+00 -0.46891236817E+00  0.46891930171E+00  0.25500000000E-02 0.  1.
         31    1    1    2    0    0 -0.45230445955E+00 -0.50713808155E+00  0.64740398737E+02  0.65170851790E+02  0.74470750000E+01 0. -1.
        -31    1    1    2    0    0  0.45230445955E+00  0.50713808155E+00  0.54853768475E+02  0.55361147119E+02  0.74470750000E+01 0.  1.
<mgrwt>
<rscale>  0 0.15006596E+02</rscale>
<asrwt>0</asrwt>
<pdfrwt beam="1">  1        2 0.99664290E+00 0.15006596E+02</pdfrwt>
<pdfrwt beam="2">  1       -2 0.99593089E+00 0.15006596E+02</pdfrwt>
<totfact>-0.89624740E-14</totfact>
</mgrwt>
</event>
<event>
 4    1  0.4882314E-019  0.1495278E+02  0.7818608E-02  0.1869513E+00
         -2   -1    0    0    0  501 -0.00000000000E+00  0.00000000000E+00  0.11921140389E+03  0.11921140392E+03  0.25500000000E-02 0. -1.
          2   -1    0    0  501    0  0.00000000000E+00 -0.00000000000E+00 -0.46888145273E+00  0.46888838673E+00  0.25500000000E-02 0.  1.
         31    1    1    2    0    0  0.41081375039E-01 -0.36368696971E+00  0.54961487249E+02  0.55464925517E+02  0.74470750000E+01 0. -1.
        -31    1    1    2    0    0 -0.41081375039E-01  0.36368696971E+00  0.63781035189E+02  0.64215366788E+02  0.74470750000E+01 0. -1.
<mgrwt>
<rscale>  0 0.14952783E+02</rscale>
<asrwt>0</asrwt>
<pdfrwt beam="2">  1        2 0.99583780E+00 0.14952783E+02</pdfrwt>
<pdfrwt beam="1">  1       -2 0.98960039E+00 0.14952783E+02</pdfrwt>
<totfact> 0.29215628E-14</totfact>
</mgrwt>
</event>
<event>
 4    1  0.4882314E-019  0.1491304E+02  0.7818608E-02  0.1870734E+00
         -2   -1    0    0    0  501 -0.00000000000E+00  0.00000000000E+00  0.11879945441E+03  0.11879945444E+03  0.25500000000E-02 0.  1.
          2   -1    0    0  501    0  0.00000000000E+00 -0.00000000000E+00 -0.46800950557E+00  0.46801645249E+00  0.25500000000E-02 0. -1.
         31    1    1    2    0    0 -0.43727585905E-01  0.18296980561E+00  0.61761825836E+02  0.62209464286E+02  0.74470750000E+01 0.  1.
        -31    1    1    2    0    0  0.43727585905E-01 -0.18296980561E+00  0.56569619073E+02  0.57058006608E+02  0.74470750000E+01 0. -1.
<mgrwt>
<rscale>  0 0.14913040E+02</rscale>
<asrwt>0</asrwt>
<pdfrwt beam="2">  1        2 0.99397970E+00 0.14913040E+02</pdfrwt>
<pdfrwt beam="1">  1       -2 0.98618690E+00 0.14913040E+02</pdfrwt>
<totfact> 0.36699608E-13</totfact>
</mgrwt>
</event>
<event>
 4    1 -0.4882314E-019  0.1498189E+02  0.7818608E-02  0.1868622E+00
         -2   -1    0    0    0  501 -0.00000000000E+00  0.00000000000E+00  0.11949404289E+03  0.11949404292E+03  0.25500000000E-02 0. -1.
          2   -1    0    0  501    0  0.00000000000E+00 -0.00000000000E+00 -0.46959516491E+00  0.46960208838E+00  0.25500000000E-02 0.  1.
         31    1    1    2    0    0  0.71042095154E+00 -0.12124155352E-01  0.56406169193E+02  0.56900085185E+02  0.74470750000E+01 0.  1.
        -31    1    1    2    0    0 -0.71042095154E+00  0.12124155352E-01  0.62618278531E+02  0.63063559820E+02  0.74470750000E+01 0. -1.
<mgrwt>
<rscale>  0 0.14981888E+02</rscale>
<asrwt>0</asrwt>
<pdfrwt beam="2">  1        2 0.99735691E+00 0.14981888E+02</pdfrwt>
<pdfrwt beam="1">  1       -2 0.99194335E+00 0.14981888E+02</pdfrwt>
<totfact>-0.52065895E-14</totfact>
</mgrwt>
</event>
<event>
 4    1  0.4882314E-019  0.1490212E+02  0.7818608E-02  0.1871070E+00
         -2   -1    0    0    0  501 -0.00000000000E+00  0.00000000000E+00  0.11870600273E+03  0.11870600276E+03  0.25500000000E-02 0. -1.
          2   -1    0    0  501    0  0.00000000000E+00 -0.00000000000E+00 -0.46769236093E+00  0.46769931256E+00  0.25500000000E-02 0.  1.
         31    1    1    2    0    0 -0.18811884416E+00 -0.95368090223E-01  0.60095217253E+02  0.60555252014E+02  0.74470750000E+01 0. -1.
        -31    1    1    2    0    0  0.18811884416E+00  0.95368090223E-01  0.58143093119E+02  0.58618450059E+02  0.74470750000E+01 0.  1.
<mgrwt>
<rscale>  0 0.14902122E+02</rscale>
<asrwt>0</asrwt>
<pdfrwt beam="2">  1        2 0.99330572E+00 0.14902122E+02</pdfrwt>
<pdfrwt beam="1">  1       -2 0.98541155E+00 0.14902122E+02</pdfrwt>
<totfact> 0.49649879E-13</totfact>
</mgrwt>
</event>
<event>
 4    1 -0.4882314E-019  0.1495111E+02  0.7818608E-02  0.1869564E+00
         -2   -1    0    0    0  501 -0.00000000000E+00  0.00000000000E+00  0.11939651175E+03  0.11939651178E+03  0.25500000000E-02 0.  1.
          2   -1    0    0  501    0  0.00000000000E+00 -0.00000000000E+00 -0.46804997793E+00  0.46805692425E+00  0.25500000000E-02 0. -1.
         31    1    1    2    0    0 -0.52614161520E+00 -0.20666147305E+00  0.62068154832E+02  0.62515872419E+02  0.74470750000E+01 0.  1.
        -31    1    1    2    0    0  0.52614161520E+00  0.20666147305E+00  0.56860306942E+02  0.57348696285E+02  0.74470750000E+01 0. -1.
<mgrwt>
<rscale>  0 0.14951114E+02</rscale>
<asrwt>0</asrwt>
<pdfrwt beam="2">  1        2 0.99408483E+00 0.14951114E+02</pdfrwt>
<pdfrwt beam="1">  1       -2 0.99112412E+00 0.14951114E+02</pdfrwt>
<totfact>-0.51167466E-14</totfact>
</mgrwt>
</event>
<event>
 4    1 -0.4882314E-019  0.1494805E+02  0.7818608E-02  0.1869658E+00
          2   -1    0    0  501    0  0.00000000000E+00  0.00000000000E+00  0.11903384987E+03  0.11903384990E+03  0.25500000000E-02 0. -1.
         -2   -1    0    0    0  501 -0.00000000000E+00 -0.00000000000E+00 -0.46928386543E+00  0.46929079349E+00  0.25500000000E-02 0.  1.
         31    1    1    2    0    0  0.27152547870E+00 -0.36358926173E+00  0.55740850225E+02  0.56237951893E+02  0.74470750000E+01 0.  1.
        -31    1    1    2    0    0 -0.27152547870E+00  0.36358926173E+00  0.62823715780E+02  0.63265188798E+02  0.74470750000E+01 0. -1.
<mgrwt>
<rscale>  0 0.14948054E+02</rscale>
<asrwt>0</asrwt>
<pdfrwt beam="1">  1        2 0.98813558E+00 0.14948054E+02</pdfrwt>
<pdfrwt beam="2">  1       -2 0.99668328E+00 0.14948054E+02</pdfrwt>
<totfact>-0.18700603E-13</totfact>
</mgrwt>
</event>
<event>
 4    1 -0.4882314E-019  0.1498863E+02  0.7818608E-02  0.1868416E+00
          2   -1    0    0  501    0  0.00000000000E+00  0.00000000000E+00  0.11971111357E+03  0.11971111360E+03  0.25500000000E-02 0. -1.
         -2   -1    0    0    0  501 -0.00000000000E+00 -0.00000000000E+00 -0.46916583361E+00  0.46917276342E+00  0.25500000000E-02 0.  1.
         31    1    1    2    0    0  0.90742367145E-01 -0.72356297754E+00  0.56275603811E+02  0.56770892964E+02  0.74470750000E+01 0. -1.
        -31    1    1    2    0    0 -0.90742367145E-01  0.72356297754E+00  0.62966343925E+02  0.63409393396E+02  0.74470750000E+01 0. -1.
<mgrwt>
<rscale>  0 0.14988633E+02</rscale>
<asrwt>0</asrwt>
<pdfrwt beam="1">  1        2 0.99373469E+00 0.14988633E+02</pdfrwt>
<pdfrwt beam="2">  1       -2 0.99645572E+00 0.14988633E+02</pdfrwt>
<totfact>-0.11803697E-13</totfact>
</mgrwt>
</event>
<event>
 4    1  0.4882314E-019  0.1491839E+02  0.7818608E-02  0.1870569E+00
         -2   -1    0    0    0  501 -0.00000000000E+00  0.00000000000E+00  0.11877814029E+03  0.11877814031E+03  0.25500000000E-02 0.  1.
          2   -1    0    0  501    0  0.00000000000E+00 -0.00000000000E+00 -0.46842947238E+00  0.46843641307E+00  0.25500000000E-02 0. -1.
         31    1    1    2    0    0 -0.35636114544E+00  0.19560416703E+00  0.60147331581E+02  0.60607967105E+02  0.74470750000E+01 0. -1.
        -31    1    1    2    0    0  0.35636114544E+00 -0.19560416703E+00  0.58162379233E+02  0.58638609621E+02  0.74470750000E+01 0.  1.
<mgrwt>
<rscale>  0 0.14918391E+02</rscale>
<asrwt>0</asrwt>
<pdfrwt beam="2">  1        2 0.99486743E+00 0.14918391E+02</pdfrwt>
<pdfrwt beam="1">  1       -2 0.98601413E+00 0.14918391E+02</pdfrwt>
<totfact> 0.35974886E-13</totfact>
</mgrwt>
</event>
<event>
 4    1  0.4882314E-019  0.1490971E+02  0.7818608E-02  0.1870836E+00
          2   -1    0    0  501    0  0.00000000000E+00  0.00000000000E+00  0.11961713174E+03  0.11961713177E+03  0.25500000000E-02 0. -1.
         -2   -1    0    0    0  501 -0.00000000000E+00 -0.00000000000E+00 -0.46460272830E+00  0.46460972616E+00  0.25500000000E-02 0.  1.
         31    1    1    2    0    0  0.25847522099E+00  0.21370880242E+00  0.59102477041E+02  0.59570749528E+02  0.74470750000E+01 0.  1.
        -31    1    1    2    0    0 -0.25847522099E+00 -0.21370880242E+00  0.60050051975E+02  0.60510991970E+02  0.74470750000E+01 0. -1.
<mgrwt>
<rscale>  0 0.14909711E+02</rscale>
<asrwt>0</asrwt>
<pdfrwt beam="1">  1        2 0.99291986E+00 0.14909711E+02</pdfrwt>
<pdfrwt beam="2">  1       -2 0.98679881E+00 0.14909711E+02</pdfrwt>
<totfact> 0.31676218E-13</totfact>
</mgrwt>
</event>
<event>
 4    1  0.4882314E-019  0.1494189E+02  0.7818608E-02  0.1869847E+00
         -2   -1    0    0    0  501 -0.00000000000E+00  0.00000000000E+00  0.11859934910E+03  0.11859934912E+03  0.25500000000E-02 0. -1.
          2   -1    0    0  501    0  0.00000000000E+00 -0.00000000000E+00 -0.47061486444E+00  0.47062177290E+00  0.25500000000E-02 0.  1.
         31    1    1    2    0    0 -0.36842101605E+00  0.32301233524E+00  0.56349888571E+02  0.56841964595E+02  0.74470750000E+01 0. -1.
        -31    1    1    2    0    0  0.36842101605E+00 -0.32301233524E+00  0.61778845660E+02  0.62228006300E+02  0.74470750000E+01 0.  1.
<mgrwt>
<rscale>  0 0.14941891E+02</rscale>
<asrwt>0</asrwt>
<pdfrwt beam="2">  1        2 0.99948451E+00 0.14941891E+02</pdfrwt>
<pdfrwt beam="1">  1       -2 0.98455383E+00 0.14941891E+02</pdfrwt>
<totfact> 0.91407192E-14</totfact>
</mgrwt>
</event>
<event>
 4    1 -0.4882314E-019  0.1499163E+02  0.7818608E-02  0.1868324E+00
          2   -1    0    0  501    0  0.00000000000E+00  0.00000000000E+00  0.12037838283E+03  0.12037838286E+03  0.25500000000E-02 0.  1.
         -2   -1    0    0    0  501 -0.00000000000E+00 -0.00000000000E+00 -0.46675200208E+00  0.46675896772E+00  0.25500000000E-02 0. -1.
         31    1    1    2    0    0  0.12511333347E-02 -0.63215729342E+00  0.55334182724E+02  0.55836639657E+02  0.74470750000E+01 0.  1.
        -31    1    1    2    0    0 -0.12511333347E-02  0.63215729342E+00  0.64577448106E+02  0.65008502170E+02  0.74470750000E+01 0.  1.
<mgrwt>
<rscale>  0 0.14991634E+02</rscale>
<asrwt>0</asrwt>
<pdfrwt beam="1">  1        2 0.99923218E+00 0.14991634E+02</pdfrwt>
<pdfrwt beam="2">  1       -2 0.99137034E+00 0.14991634E+02</pdfrwt>
<totfact>-0.13756414E-14</totfact>
</mgrwt>
</event>
<event>
 4    1 -0.4882314E-019  0.1496635E+02  0.7818608E-02  0.1869097E+00
         -2   -1    0    0    0  501 -0.00000000000E+00  0.00000000000E+00  0.11971203172E+03  0.11971203174E+03  0.25500000000E-02 0.  1.
          2   -1    0    0  501    0  0.00000000000E+00 -0.00000000000E+00 -0.46776798970E+00  0.46777494021E+00  0.25500000000E-02 0. -1.
         31    1    1    2    0    0 -0.22109978880E+00 -0.57276295806E+00  0.62854216999E+02  0.63296828223E+02  0.74470750000E+01 0.  1.
        -31    1    1    2    0    0  0.22109978880E+00  0.57276295806E+00  0.56390046729E+02  0.56882978462E+02  0.74470750000E+01 0. -1.
<mgrwt>
<rscale>  0 0.14966346E+02</rscale>
<asrwt>0</asrwt>
<pdfrwt beam="2">  1        2 0.99349848E+00 0.14966346E+02</pdfrwt>
<pdfrwt beam="1">  1       -2 0.99373073E+00 0.14966346E+02</pdfrwt>
<totfact>-0.13005778E-13</totfact>
</mgrwt>
</event>
<event>
 4    1  0.4882314E-019  0.1489727E+02  0.7818608E-02  0.1871220E+00
         -2   -1    0    0    0  501 -0.00000000000E+00  0.00000000000E+00  0.11849573528E+03  0.11849573531E+03  0.25500000000E-02 0.  1.
          2   -1    0    0  501    0  0.00000000000E+00 -0.00000000000E+00 -0.46821737871E+00  0.46822432255E+00  0.25500000000E-02 0. -1.
         31    1    1    2    0    0 -0.61108405322E-01 -0.64008686242E-01  0.58022131940E+02  0.58498158538E+02  0.74470750000E+01 0. -1.
        -31    1    1    2    0    0  0.61108405322E-01  0.64008686242E-01  0.60005385962E+02  0.60465801093E+02  0.74470750000E+01 0.  1.
<mgrwt>
<rscale>  0 0.14897272E+02</rscale>
<asrwt>0</asrwt>
<pdfrwt beam="2">  1        2 0.99440945E+00 0.14897272E+02</pdfrwt>
<pdfrwt beam="1">  1       -2 0.98367725E+00 0.14897272E+02</pdfrwt>
<totfact> 0.72175491E-13</totfact>
</mgrwt>
</event>
<event>
 4    1 -0.4882314E-019  0.1497676E+02  0.7818608E-02  0.1868778E+00
          2   -1    0    0  501    0  0.00000000000E+00  0.00000000000E+00  0.11968000651E+03  0.11968000653E+03  0.25500000000E-02 0. -1.
         -2   -1    0    0    0  501 -0.00000000000E+00 -0.00000000000E+00 -0.46854480452E+00  0.46855174351E+00  0.25500000000E-02 0.  1.
         31    1    1    2    0    0 -0.12269620310E+00  0.48131512508E+00  0.54724492899E+02  0.55231112316E+02  0.74470750000E+01 0.  1.
        -31    1    1    2    0    0  0.12269620310E+00 -0.48131512508E+00  0.64486968805E+02  0.64917445962E+02  0.74470750000E+01 0. -1.
<mgrwt>
<rscale>  0 0.14976764E+02</rscale>
<asrwt>0</asrwt>
<pdfrwt beam="1">  1        2 0.99347234E+00 0.14976764E+02</pdfrwt>
<pdfrwt beam="2">  1       -2 0.99514088E+00 0.14976764E+02</pdfrwt>
<totfact>-0.13553282E-13</totfact>
</mgrwt>
</event>
<event>
 4    1  0.4882314E-019  0.1492004E+02  0.7818608E-02  0.1870518E+00
         -2   -1    0    0    0  501 -0.00000000000E+00  0.00000000000E+00  0.11908761692E+03  0.11908761695E+03  0.25500000000E-02 0. -1.
          2   -1    0    0  501    0  0.00000000000E+00 -0.00000000000E+00 -0.46731566160E+00  0.46732261884E+00  0.25500000000E-02 0.  1.
         31    1    1    2    0    0 -0.24084614562E+00 -0.36471295686E+00  0.59666487531E+02  0.60131020969E+02  0.74470750000E+01 0. -1.
        -31    1    1    2    0    0  0.24084614562E+00  0.36471295686E+00  0.58953813731E+02  0.59423918601E+02  0.74470750000E+01 0.  1.
<mgrwt>
<rscale>  0 0.14920044E+02</rscale>
<asrwt>0</asrwt>
<pdfrwt beam="2">  1        2 0.99252129E+00 0.14920044E+02</pdfrwt>
<pdfrwt beam="1">  1       -2 0.98856389E+00 0.14920044E+02</pdfrwt>
<totfact> 0.12826413E-13</totfact>
</mgrwt>
</event>
<event>
 4    1 -0.4882314E-019  0.1493216E+02  0.7818608E-02  0.1870146E+00
         -2   -1    0    0    0  501 -0.00000000000E+00  0.00000000000E+00  0.11997348499E+03  0.11997348502E+03  0.25500000000E-02 0.  1.
          2   -1    0    0  501    0  0.00000000000E+00 -0.00000000000E+00 -0.46461852122E+00  0.46462551884E+00  0.25500000000E-02 0. -1.
         31    1    1    2    0    0  0.16401093951E-01 -0.52305955482E+00  0.58966639908E+02  0.59437340186E+02  0.74470750000E+01 0. -1.
        -31    1    1    2    0    0 -0.16401093951E-01  0.52305955482E+00  0.60542226564E+02  0.61000770353E+02  0.74470750000E+01 0.  1.
<mgrwt>
<rscale>  0 0.14932157E+02</rscale>
<asrwt>0</asrwt>
<pdfrwt beam="2">  1        2 0.98684356E+00 0.14932157E+02</pdfrwt>
<pdfrwt beam="1">  1       -2 0.99586656E+00 0.14932157E+02</pdfrwt>
<totfact>-0.24854499E-13</totfact>
</mgrwt>
</event>
<event>
 4    1 -0.4882314E-019  0.1494764E+02  0.7818608E-02  0.1869670E+00
          2   -1    0    0  501    0  0.00000000000E+00  0.00000000000E+00  0.11884810007E+03  0.11884810010E+03  0.25500000000E-02 0. -1.
         -2   -1    0    0    0  501 -0.00000000000E+00 -0.00000000000E+00 -0.46999143016E+00  0.46999834779E+00  0.25500000000E-02 0.  1.
         31    1    1    2    0    0 -0.94347045879E-01  0.59629248978E+00  0.60674096616E+02  0.61132392333E+02  0.74470750000E+01 0.  1.
        -31    1    1    2    0    0  0.94347045879E-01 -0.59629248978E+00  0.57704012024E+02  0.58185706113E+02  0.74470750000E+01 0. -1.
<mgrwt>
<rscale>  0 0.14947642E+02</rscale>
<asrwt>0</asrwt>
<pdfrwt beam="1">  1        2 0.98660552E+00 0.14947642E+02</pdfrwt>
<pdfrwt beam="2">  1       -2 0.99817396E+00 0.14947642E+02</pdfrwt>
<totfact>-0.14926781E-13</totfact>
</mgrwt>
</event>
<event>
 4    1  0.4882314E-019  0.1492995E+02  0.7818608E-02  0.1870214E+00
          2   -1    0    0  501    0  0.00000000000E+00  0.00000000000E+00  0.12002688191E+03  0.12002688194E+03  0.25500000000E-02 0. -1.
         -2   -1    0    0    0  501 -0.00000000000E+00 -0.00000000000E+00 -0.46427443297E+00  0.46428143578E+00  0.25500000000E-02 0.  1.
         31    1    1    2    0    0  0.15337105490E+00  0.41501985186E+00  0.57628662360E+02  0.58109529474E+02  0.74470750000E+01 0. -1.
        -31    1    1    2    0    0 -0.15337105490E+00 -0.41501985186E+00  0.61933945117E+02  0.62381633900E+02  0.74470750000E+01 0. -1.
<mgrwt>
<rscale>  0 0.14929948E+02</rscale>
<asrwt>0</asrwt>
<pdfrwt beam="1">  1        2 0.99630524E+00 0.14929948E+02</pdfrwt>
<pdfrwt beam="2">  1       -2 0.98611724E+00 0.14929948E+02</pdfrwt>
<totfact> 0.28926642E-13</totfact>
</mgrwt>
</event>
<event>
 4    1 -0.4882314E-019  0.1501530E+02  0.7818608E-02  0.1867602E+00
          2   -1    0    0  501    0  0.00000000000E+00  0.00000000000E+00  0.12020167027E+03  0.12020167029E+03  0.25500000000E-02 0.  1.
         -2   -1    0    0    0  501 -0.00000000000E+00 -0.00000000000E+00 -0.46891497806E+00  0.46892191157E+00  0.25500000000E-02 0. -1.
         31    1    1    2    0    0 -0.93349112337E-01  0.87417092929E+00  0.62796880193E+02  0.63243023148E+02  0.74470750000E+01 0.  1.
        -31    1    1    2    0    0  0.93349112337E-01 -0.87417092929E+00  0.56935875096E+02  0.57427569057E+02  0.74470750000E+01 0. -1.
<mgrwt>
<rscale>  0 0.15015297E+02</rscale>
<asrwt>0</asrwt>
<pdfrwt beam="1">  1        2 0.99778889E+00 0.15015297E+02</pdfrwt>
<pdfrwt beam="2">  1       -2 0.99594087E+00 0.15015297E+02</pdfrwt>
<totfact>-0.66811757E-14</totfact>
</mgrwt>
</event>
<event>
 4    1  0.4882314E-019  0.1492579E+02  0.7818608E-02  0.1870342E+00
         -2   -1    0    0    0  501 -0.00000000000E+00  0.00000000000E+00  0.11897820627E+03  0.11897820630E+03  0.25500000000E-02 0. -1.
          2   -1    0    0  501    0  0.00000000000E+00 -0.00000000000E+00 -0.46810557110E+00  0.46811251660E+00  0.25500000000E-02 0.  1.
         31    1    1    2    0    0  0.36749199036E+00 -0.16434101793E+00  0.57081128930E+02  0.57566277145E+02  0.74470750000E+01 0.  1.
        -31    1    1    2    0    0 -0.36749199036E+00  0.16434101793E+00  0.61428971769E+02  0.61880041669E+02  0.74470750000E+01 0. -1.
<mgrwt>
<rscale>  0 0.14925787E+02</rscale>
<asrwt>0</asrwt>
<pdfrwt beam="2">  1        2 0.99418879E+00 0.14925787E+02</pdfrwt>
<pdfrwt beam="1">  1       -2 0.98766574E+00 0.14925787E+02</pdfrwt>
<totfact> 0.19522578E-13</totfact>
</mgrwt>
</event>
<event>
 4    1  0.4882314E-019  0.1495101E+02  0.7818608E-02  0.1869567E+00
         -2   -1    0    0    0  501 -0.00000000000E+00  0.00000000000E+00  0.11893132033E+03  0.11893132036E+03  0.25500000000E-02 0.  1.
          2   -1    0    0  501    0  0.00000000000E+00 -0.00000000000E+00 -0.46987419798E+00  0.46988111734E+00  0.25500000000E-02 0. -1.
         31    1    1    2    0    0 -0.44295498204E+00  0.38405053083E+00  0.56964235137E+02  0.57451951357E+02  0.74470750000E+01 0. -1.
        -31    1    1    2    0    0  0.44295498204E+00 -0.38405053083E+00  0.61497210999E+02  0.61949250122E+02  0.74470750000E+01 0.  1.
<mgrwt>
<rscale>  0 0.14951010E+02</rscale>
<asrwt>0</asrwt>
<pdfrwt beam="2">  1        2 0.99792872E+00 0.14951010E+02</pdfrwt>
<pdfrwt beam="1">  1       -2 0.98729267E+00 0.14951010E+02</pdfrwt>
<totfact> 0.12216116E-13</totfact>
</mgrwt>
</event>
<event>
 4    1 -0.4882314E-019  0.1491328E+02  0.7818608E-02  0.1870726E+00
         -2   -1    0    0    0  501 -0.00000000000E+00  0.00000000000E+00  0.12029712341E+03  0.12029712343E+03  0.25500000000E-02 0.  1.
          2   -1    0    0  501    0  0.00000000000E+00 -0.00000000000E+00 -0.46219779955E+00  0.46220483382E+00  0.25500000000E-02 0. -1.
         31    1    1    2    0    0 -0.15838740087E+00  0.16817953893E+00  0.62335806301E+02  0.62779495412E+02  0.74470750000E+01 0.  1.
        -31    1    1    2    0    0  0.15838740087E+00 -0.16817953893E+00  0.57499119307E+02  0.57979832856E+02  0.74470750000E+01 0. -1.
<mgrwt>
<rscale>  0 0.14913282E+02</rscale>
<asrwt>0</asrwt>
<pdfrwt beam="2">  1        2 0.98173193E+00 0.14913282E+02</pdfrwt>
<pdfrwt beam="1">  1       -2 0.99852262E+00 0.14913282E+02</pdfrwt>
<totfact>-0.27654103E-13</totfact>
</mgrwt>
</event>
<event>
 4    1 -0.4882314E-019  0.1503818E+02  0.7818608E-02  0.1866906E+00
          2   -1    0    0  501    0  0.00000000000E+00  0.00000000000E+00  0.12027504125E+03  0.12027504127E+03  0.25500000000E-02 0.  1.
         -2   -1    0    0    0  501 -0.00000000000E+00 -0.00000000000E+00 -0.47005839673E+00  0.47006531337E+00  0.25500000000E-02 0. -1.
         31    1    1    2    0    0 -0.45508186718E+00 -0.68806051959E+00  0.54841782350E+02  0.55351246997E+02  0.74470750000E+01 0.  1.
        -31    1    1    2    0    0  0.45508186718E+00  0.68806051959E+00  0.64963200499E+02  0.65393859589E+02  0.74470750000E+01 0.  1.
<mgrwt>
<rscale>  0 0.15038180E+02</rscale>
<asrwt>0</asrwt>
<pdfrwt beam="1">  1        2 0.99840502E+00 0.15038180E+02</pdfrwt>
<pdfrwt beam="2">  1       -2 0.99836229E+00 0.15038180E+02</pdfrwt>
<totfact>-0.27527881E-14</totfact>
</mgrwt>
</event>
<event>
 4    1  0.4882314E-019  0.1490646E+02  0.7818608E-02  0.1870936E+00
          2   -1    0    0  501    0  0.00000000000E+00  0.00000000000E+00  0.12003784616E+03  0.12003784619E+03  0.25500000000E-02 0. -1.
         -2   -1    0    0    0  501 -0.00000000000E+00 -0.00000000000E+00 -0.46277234835E+00  0.46277937389E+00  0.25500000000E-02 0.  1.
         31    1    1    2    0    0 -0.12183854872E+00  0.17375080677E+00  0.58041348181E+02  0.58517536335E+02  0.74470750000E+01 0. -1.
        -31    1    1    2    0    0  0.12183854872E+00 -0.17375080677E+00  0.61533725633E+02  0.61983089228E+02  0.74470750000E+01 0. -1.
<mgrwt>
<rscale>  0 0.14906458E+02</rscale>
<asrwt>0</asrwt>
<pdfrwt beam="1">  1        2 0.99638348E+00 0.14906458E+02</pdfrwt>
<pdfrwt beam="2">  1       -2 0.98293947E+00 0.14906458E+02</pdfrwt>
<totfact> 0.67214221E-13</totfact>
</mgrwt>
</event>
<event>
 4    1 -0.4882314E-019  0.1498689E+02  0.7818608E-02  0.1868469E+00
         -2   -1    0    0    0  501 -0.00000000000E+00  0.00000000000E+00  0.11979831180E+03  0.11979831183E+03  0.25500000000E-02 0. -1.
          2   -1    0    0  501    0  0.00000000000E+00 -0.00000000000E+00 -0.46871511609E+00  0.46872205256E+00  0.25500000000E-02 0.  1.
         31    1    1    2    0    0 -0.17218123570E+00  0.25252818316E+00  0.53452141201E+02  0.53969285172E+02  0.74470750000E+01 0.  1.
        -31    1    1    2    0    0  0.17218123570E+00 -0.25252818316E+00  0.65877455485E+02  0.66297748710E+02  0.74470750000E+01 0. -1.
<mgrwt>
<rscale>  0 0.14986887E+02</rscale>
<asrwt>0</asrwt>
<pdfrwt beam="2">  1        2 0.99550502E+00 0.14986887E+02</pdfrwt>
<pdfrwt beam="1">  1       -2 0.99445198E+00 0.14986887E+02</pdfrwt>
<totfact>-0.11259660E-13</totfact>
</mgrwt>
</event>
<event>
 4    1 -0.4882314E-019  0.1495809E+02  0.7818608E-02  0.1869350E+00
          2   -1    0    0  501    0  0.00000000000E+00  0.00000000000E+00  0.11949137530E+03  0.11949137533E+03  0.25500000000E-02 0. -1.
         -2   -1    0    0    0  501 -0.00000000000E+00 -0.00000000000E+00 -0.46811483481E+00  0.46812178017E+00  0.25500000000E-02 0.  1.
         31    1    1    2    0    0  0.38836906814E+00 -0.40269784660E+00  0.62761160739E+02  0.63203917754E+02  0.74470750000E+01 0.  1.
        -31    1    1    2    0    0 -0.38836906814E+00  0.40269784660E+00  0.56262099730E+02  0.56755579357E+02  0.74470750000E+01 0.  1.
<mgrwt>
<rscale>  0 0.14958089E+02</rscale>
<asrwt>0</asrwt>
<pdfrwt beam="1">  1        2 0.99190905E+00 0.14958089E+02</pdfrwt>
<pdfrwt beam="2">  1       -2 0.99422512E+00 0.14958089E+02</pdfrwt>
<totfact>-0.15098451E-13</totfact>
</mgrwt>
</event>
<event>
 4    1 -0.4882314E-019  0.1499734E+02  0.7818608E-02  0.1868150E+00
         -2   -1    0    0    0  501 -0.00000000000E+00  0.00000000000E+00  0.12022794058E+03  0.12022794061E+03  0.25500000000E-02 0.  1.
          2   -1    0    0  501    0  0.00000000000E+00 -0.00000000000E+00 -0.46769169376E+00  0.46769864540E+00  0.25500000000E-02 0. -1.
         31    1    1    2    0    0  0.75993504623E+00 -0.70625171768E-01  0.63375272832E+02  0.63815880639E+02  0.74470750000E+01 0.  1.
        -31    1    1    2    0    0 -0.75993504623E+00  0.70625171768E-01  0.56384976053E+02  0.56879758612E+02  0.74470750000E+01 0. -1.
<mgrwt>
<rscale>  0 0.14997337E+02</rscale>
<asrwt>0</asrwt>
<pdfrwt beam="2">  1        2 0.99335366E+00 0.14997337E+02</pdfrwt>
<pdfrwt beam="1">  1       -2 0.99799599E+00 0.14997337E+02</pdfrwt>
<totfact>-0.81747113E-14</totfact>
</mgrwt>
</event>
<event>
 4    1  0.4882314E-019  0.1491401E+02  0.7818608E-02  0.1870704E+00
          2   -1    0    0  501    0  0.00000000000E+00  0.00000000000E+00  0.11986342699E+03  0.11986342701E+03  0.25500000000E-02 0.  1.
         -2   -1    0    0    0  501 -0.00000000000E+00 -0.00000000000E+00 -0.46391517905E+00  0.46392218728E+00  0.25500000000E-02 0. -1.
         31    1    1    2    0    0 -0.33231801027E+00 -0.13676247575E+00  0.60806617771E+02  0.61262001519E+02  0.74470750000E+01 0. -1.
        -31    1    1    2    0    0  0.33231801027E+00  0.13676247575E+00  0.58592894036E+02  0.59065347682E+02  0.74470750000E+01 0. -1.
<mgrwt>
<rscale>  0 0.14914005E+02</rscale>
<asrwt>0</asrwt>
<pdfrwt beam="1">  1        2 0.99495071E+00 0.14914005E+02</pdfrwt>
<pdfrwt beam="2">  1       -2 0.98535196E+00 0.14914005E+02</pdfrwt>
<totfact> 0.43988686E-13</totfact>
</mgrwt>
</event>
<event>
 4    1 -0.4882314E-019  0.1490394E+02  0.7818608E-02  0.1871014E+00
         -2   -1    0    0    0  501 -0.00000000000E+00  0.00000000000E+00  0.12003849631E+03  0.12003849633E+03  0.25500000000E-02 0. -1.
          2   -1    0    0  501    0  0.00000000000E+00 -0.00000000000E+00 -0.46261338699E+00  0.46262041495E+00  0.25500000000E-02 0.  1.
         31    1    1    2    0    0  0.94970651816E-01  0.21580373706E+00  0.58723773558E+02  0.59194561386E+02  0.74470750000E+01 0.  1.
        -31    1    1    2    0    0 -0.94970651816E-01 -0.21580373706E+00  0.60852109361E+02  0.61306555363E+02  0.74470750000E+01 0. -1.
<mgrwt>
<rscale>  0 0.14903938E+02</rscale>
<asrwt>0</asrwt>
<pdfrwt beam="2">  1        2 0.98260315E+00 0.14903938E+02</pdfrwt>
<pdfrwt beam="1">  1       -2 0.99638754E+00 0.14903938E+02</pdfrwt>
<totfact>-0.46284872E-13</totfact>
</mgrwt>
</event>
<event>
 4    1  0.4882314E-019  0.1490550E+02  0.7818608E-02  0.1870966E+00
         -2   -1    0    0    0  501 -0.00000000000E+00  0.00000000000E+00  0.11864150970E+03  0.11864150973E+03  0.25500000000E-02 0. -1.
          2   -1    0    0  501    0  0.00000000000E+00 -0.00000000000E+00 -0.46815857644E+00  0.46816552115E+00  0.25500000000E-02 0.  1.
         31    1    1    2    0    0  0.26461654264E+00 -0.72617292064E-01  0.58318780480E+02  0.58792978985E+02  0.74470750000E+01 0.  1.
        -31    1    1    2    0    0 -0.26461654264E+00  0.72617292064E-01  0.59854570644E+02  0.60316696265E+02  0.74470750000E+01 0.  1.
<mgrwt>
<rscale>  0 0.14905496E+02</rscale>
<asrwt>0</asrwt>
<pdfrwt beam="2">  1        2 0.99428986E+00 0.14905496E+02</pdfrwt>
<pdfrwt beam="1">  1       -2 0.98488213E+00 0.14905496E+02</pdfrwt>
<totfact> 0.53558991E-13</totfact>
</mgrwt>
</event>
<event>
 4    1  0.4882314E-019  0.1494041E+02  0.7818608E-02  0.1869892E+00
          2   -1    0    0  501    0  0.00000000000E+00  0.00000000000E+00  0.12013039172E+03  0.12013039175E+03  0.25500000000E-02 0. -1.
         -2   -1    0    0    0  501 -0.00000000000E+00 -0.00000000000E+00 -0.46452477239E+00  0.46453177143E+00  0.25500000000E-02 0.  1.
         31    1    1    2    0    0 -0.19823863441E+00 -0.55146187928E+00  0.60158986597E+02  0.60621002987E+02  0.74470750000E+01 0. -1.
        -31    1    1    2    0    0  0.19823863441E+00  0.55146187928E+00  0.59506880354E+02  0.59973920535E+02  0.74470750000E+01 0. -1.
<mgrwt>
<rscale>  0 0.14940411E+02</rscale>
<asrwt>0</asrwt>
<pdfrwt beam="1">  1        2 0.99716320E+00 0.14940411E+02</pdfrwt>
<pdfrwt beam="2">  1       -2 0.98665018E+00 0.14940411E+02</pdfrwt>
<totfact> 0.20084357E-13</totfact>
</mgrwt>
</event>
<event>
 4    1  0.4882314E-019  0.1491808E+02  0.7818608E-02  0.1870579E+00
          2   -1    0    0  501    0  0.00000000000E+00  0.00000000000E+00  0.12004191932E+03  0.12004191934E+03  0.25500000000E-02 0. -1.
         -2   -1    0    0    0  501 -0.00000000000E+00 -0.00000000000E+00 -0.46347871022E+00  0.46348572505E+00  0.25500000000E-02 0.  1.
         31    1    1    2    0    0  0.21401666446E+00  0.25670108642E+00  0.57703430917E+02  0.58182957679E+02  0.74470750000E+01 0.  1.
        -31    1    1    2    0    0 -0.21401666446E+00 -0.25670108642E+00  0.61875009689E+02  0.62322447389E+02  0.74470750000E+01 0. -1.
<mgrwt>
<rscale>  0 0.14918083E+02</rscale>
<asrwt>0</asrwt>
<pdfrwt beam="1">  1        2 0.99642300E+00 0.14918083E+02</pdfrwt>
<pdfrwt beam="2">  1       -2 0.98443413E+00 0.14918083E+02</pdfrwt>
<totfact> 0.46766837E-13</totfact>
</mgrwt>
</event>
<event>
 4    1 -0.4882314E-019  0.1495891E+02  0.7818608E-02  0.1869325E+00
          2   -1    0    0  501    0  0.00000000000E+00  0.00000000000E+00  0.11981095671E+03  0.11981095673E+03  0.25500000000E-02 0. -1.
         -2   -1    0    0    0  501 -0.00000000000E+00 -0.00000000000E+00 -0.46691730009E+00  0.46692426326E+00  0.25500000000E-02 0.  1.
         31    1    1    2    0    0  0.29307671931E+00  0.68287646177E-01  0.64710987126E+02  0.65138785206E+02  0.74470750000E+01 0. -1.
        -31    1    1    2    0    0 -0.29307671931E+00 -0.68287646177E-01  0.54633052279E+02  0.55139095790E+02  0.74470750000E+01 0.  1.
<mgrwt>
<rscale>  0 0.14958908E+02</rscale>
<asrwt>0</asrwt>
<pdfrwt beam="1">  1        2 0.99454167E+00 0.14958908E+02</pdfrwt>
<pdfrwt beam="2">  1       -2 0.99170192E+00 0.14958908E+02</pdfrwt>
<totfact>-0.72199199E-14</totfact>
</mgrwt>
</event>
<event>
 4    1  0.4882314E-019  0.1490688E+02  0.7818608E-02  0.1870923E+00
         -2   -1    0    0    0  501 -0.00000000000E+00  0.00000000000E+00  0.11837961289E+03  0.11837961291E+03  0.25500000000E-02 0.  1.
          2   -1    0    0  501    0  0.00000000000E+00 -0.00000000000E+00 -0.46928168781E+00  0.46928861591E+00  0.25500000000E-02 0. -1.
         31    1    1    2    0    0 -0.14938958666E+00 -0.22026813974E+00  0.60191238272E+02  0.60650761958E+02  0.74470750000E+01 0.  1.
        -31    1    1    2    0    0  0.14938958666E+00  0.22026813974E+00  0.57719092926E+02  0.58198139571E+02  0.74470750000E+01 0. -1.
<mgrwt>
<rscale>  0 0.14906884E+02</rscale>
<asrwt>0</asrwt>
<pdfrwt beam="2">  1        2 0.99665704E+00 0.14906884E+02</pdfrwt>
<pdfrwt beam="1">  1       -2 0.98272587E+00 0.14906884E+02</pdfrwt>
<totfact> 0.66991585E-13</totfact>
</mgrwt>
</event>
<event>
 4    1  0.4882314E-019  0.1491088E+02  0.7818608E-02  0.1870800E+00
         -2   -1    0    0    0  501 -0.00000000000E+00  0.00000000000E+00  0.11888867267E+03  0.11888867270E+03  0.25500000000E-02 0. -1.
          2   -1    0    0  501    0  0.00000000000E+00 -0.00000000000E+00 -0.46752304069E+00  0.46752999484E+00  0.25500000000E-02 0.  1.
         31    1    1    2    0    0  0.20407151864E+00  0.24982598669E+00  0.58060964950E+02  0.58537497685E+02  0.74470750000E+01 0.  1.
        -31    1    1    2    0    0 -0.20407151864E+00 -0.24982598669E+00  0.60360184679E+02  0.60818705008E+02  0.74470750000E+01 0. -1.
<mgrwt>
<rscale>  0 0.14910883E+02</rscale>
<asrwt>0</asrwt>
<pdfrwt beam="2">  1        2 0.99295351E+00 0.14910883E+02</pdfrwt>
<pdfrwt beam="1">  1       -2 0.98692059E+00 0.14910883E+02</pdfrwt>
<totfact> 0.30086706E-13</totfact>
</mgrwt>
</event>
<event>
 4    1 -0.4882314E-019  0.1494251E+02  0.7818608E-02  0.1869828E+00
         -2   -1    0    0    0  501 -0.00000000000E+00  0.00000000000E+00  0.12024972480E+03  0.12024972483E+03  0.25500000000E-02 0. -1.
          2   -1    0    0  501    0  0.00000000000E+00 -0.00000000000E+00 -0.46419439756E+00  0.46420140157E+00  0.25500000000E-02 0.  1.
         31    1    1    2    0    0 -0.14223894257E+00 -0.57897792288E+00  0.59304663671E+02  0.59773384600E+02  0.74470750000E+01 0. -1.
        -31    1    1    2    0    0  0.14223894257E+00  0.57897792288E+00  0.60480866735E+02  0.60940541633E+02  0.74470750000E+01 0.  1.
<mgrwt>
<rscale>  0 0.14942513E+02</rscale>
<asrwt>0</asrwt>
<pdfrwt beam="2">  1        2 0.98595494E+00 0.14942513E+02</pdfrwt>
<pdfrwt beam="1">  1       -2 0.99814720E+00 0.14942513E+02</pdfrwt>
<totfact>-0.16664082E-13</totfact>
</mgrwt>
</event>
<event>
 4    1 -0.4882314E-019  0.1495571E+02  0.7818608E-02  0.1869423E+00
          2   -1    0    0  501    0  0.00000000000E+00  0.00000000000E+00  0.11886317564E+03  0.11886317566E+03  0.25500000000E-02 0. -1.
         -2   -1    0    0    0  501 -0.00000000000E+00 -0.00000000000E+00 -0.47043915040E+00  0.47044606144E+00  0.25500000000E-02 0.  1.
         31    1    1    2    0    0  0.63361357223E+00  0.13123625608E+00  0.57586832425E+02  0.58069965420E+02  0.74470750000E+01 0.  1.
        -31    1    1    2    0    0 -0.63361357223E+00 -0.13123625608E+00  0.60805904061E+02  0.61263656305E+02  0.74470750000E+01 0. -1.
<mgrwt>
<rscale>  0 0.14955709E+02</rscale>
<asrwt>0</asrwt>
<pdfrwt beam="1">  1        2 0.98673388E+00 0.14955709E+02</pdfrwt>
<pdfrwt beam="2">  1       -2 0.99912157E+00 0.14955709E+02</pdfrwt>
<totfact>-0.76573011E-14</totfact>
</mgrwt>
</event>
<event>
 4    1 -0.4882314E-019  0.1498774E+02  0.7818608E-02  0.1868443E+00
          2   -1    0    0  501    0  0.00000000000E+00  0.00000000000E+00  0.12017183899E+03  0.12017183902E+03  0.25500000000E-02 0. -1.
         -2   -1    0    0    0  501 -0.00000000000E+00 -0.00000000000E+00 -0.46731106655E+00  0.46731802386E+00  0.25500000000E-02 0.  1.
         31    1    1    2    0    0 -0.10598524294E+00 -0.54738481514E+00  0.64867772736E+02  0.65296230586E+02  0.74470750000E+01 0. -1.
        -31    1    1    2    0    0  0.10598524294E+00  0.54738481514E+00  0.54836755189E+02  0.55342926456E+02  0.74470750000E+01 0.  1.
<mgrwt>
<rscale>  0 0.14987735E+02</rscale>
<asrwt>0</asrwt>
<pdfrwt beam="1">  1        2 0.99752896E+00 0.14987735E+02</pdfrwt>
<pdfrwt beam="2">  1       -2 0.99254657E+00 0.14987735E+02</pdfrwt>
<totfact>-0.60388298E-14</totfact>
</mgrwt>
</event>
<event>
 4    1  0.4882314E-019  0.1494297E+02  0.7818608E-02  0.1869814E+00
          2   -1    0    0  501    0  0.00000000000E+00  0.00000000000E+00  0.12010049133E+03  0.12010049136E+03  0.25500000000E-02 0. -1.
         -2   -1    0    0    0  501 -0.00000000000E+00 -0.00000000000E+00 -0.46479946532E+00  0.46480646022E+00  0.25500000000E-02 0.  1.
         31    1    1    2    0    0 -0.16852455210E-01 -0.16867433956E+00  0.64490580684E+02  0.64919355034E+02  0.74470750000E+01 0. -1.
        -31    1    1    2    0    0  0.16852455210E-01  0.16867433956E+00  0.55145111182E+02  0.55645942784E+02  0.74470750000E+01 0.  1.
<mgrwt>
<rscale>  0 0.14942967E+02</rscale>
<asrwt>0</asrwt>
<pdfrwt beam="1">  1        2 0.99691824E+00 0.14942967E+02</pdfrwt>
<pdfrwt beam="2">  1       -2 0.98723042E+00 0.14942967E+02</pdfrwt>
<totfact> 0.16730342E-13</totfact>
</mgrwt>
</event>
<event>
 4    1 -0.4882314E-019  0.1491830E+02  0.7818608E-02  0.1870572E+00
         -2   -1    0    0    0  501 -0.00000000000E+00  0.00000000000E+00  0.12028943627E+03  0.12028943629E+03  0.25500000000E-02 0. -1.
          2   -1    0    0  501    0  0.00000000000E+00 -0.00000000000E+00 -0.46253845254E+00  0.46254548163E+00  0.25500000000E-02 0.  1.
         31    1    1    2    0    0  0.32677005737E+00  0.23851691516E+00  0.58879392796E+02  0.59349856707E+02  0.74470750000E+01 0.  1.
        -31    1    1    2    0    0 -0.32677005737E+00 -0.23851691516E+00  0.60947505017E+02  0.61402125067E+02  0.74470750000E+01 0.  1.
<mgrwt>
<rscale>  0 0.14918300E+02</rscale>
<asrwt>0</asrwt>
<pdfrwt beam="2">  1        2 0.98245247E+00 0.14918300E+02</pdfrwt>
<pdfrwt beam="1">  1       -2 0.99846187E+00 0.14918300E+02</pdfrwt>
<totfact>-0.25353937E-13</totfact>
</mgrwt>
</event>
<event>
 4    1  0.4882314E-019  0.1491692E+02  0.7818608E-02  0.1870614E+00
          2   -1    0    0  501    0  0.00000000000E+00  0.00000000000E+00  0.11940283655E+03  0.11940283658E+03  0.25500000000E-02 0.  1.
         -2   -1    0    0    0  501 -0.00000000000E+00 -0.00000000000E+00 -0.46588650732E+00  0.46589348590E+00  0.25500000000E-02 0. -1.
         31    1    1    2    0    0  0.18640172626E+00  0.27609779465E+00  0.57521751799E+02  0.58002774344E+02  0.74470750000E+01 0.  1.
        -31    1    1    2    0    0 -0.18640172626E+00 -0.27609779465E+00  0.61415198246E+02  0.61865955721E+02  0.74470750000E+01 0.  1.
<mgrwt>
<rscale>  0 0.14916915E+02</rscale>
<asrwt>0</asrwt>
<pdfrwt beam="1">  1        2 0.99115853E+00 0.14916915E+02</pdfrwt>
<pdfrwt beam="2">  1       -2 0.98950800E+00 0.14916915E+02</pdfrwt>
<totfact> 0.51528839E-14</totfact>
</mgrwt>
</event>
<event>
 4    1 -0.4882314E-019  0.1492801E+02  0.7818608E-02  0.1870273E+00
         -2   -1    0    0    0  501 -0.00000000000E+00  0.00000000000E+00  0.12014914883E+03  0.12014914886E+03  0.25500000000E-02 0.  1.
          2   -1    0    0  501    0  0.00000000000E+00 -0.00000000000E+00 -0.46368151839E+00  0.46368853015E+00  0.25500000000E-02 0. -1.
         31    1    1    2    0    0 -0.17409071124E+00  0.45718988664E+00  0.58917694171E+02  0.59388491668E+02  0.74470750000E+01 0. -1.
        -31    1    1    2    0    0  0.17409071124E+00 -0.45718988664E+00  0.60767773140E+02  0.61224345718E+02  0.74470750000E+01 0. -1.
<mgrwt>
<rscale>  0 0.14928009E+02</rscale>
<asrwt>0</asrwt>
<pdfrwt beam="2">  1        2 0.98486662E+00 0.14928009E+02</pdfrwt>
<pdfrwt beam="1">  1       -2 0.99731133E+00 0.14928009E+02</pdfrwt>
<totfact>-0.26382040E-13</totfact>
</mgrwt>
</event>
<event>
 4    1  0.4882314E-019  0.1490442E+02  0.7818608E-02  0.1870999E+00
          2   -1    0    0  501    0  0.00000000000E+00  0.00000000000E+00  0.11974214584E+03  0.11974214587E+03  0.25500000000E-02 0.  1.
         -2   -1    0    0    0  501 -0.00000000000E+00 -0.00000000000E+00 -0.46378847651E+00  0.46379548666E+00  0.25500000000E-02 0. -1.
         31    1    1    2    0    0  0.10042844338E-01 -0.57971305132E-01  0.57459166824E+02  0.57939781150E+02  0.74470750000E+01 0. -1.
        -31    1    1    2    0    0 -0.10042844338E-01  0.57971305132E-01  0.61819190541E+02  0.62266160205E+02  0.74470750000E+01 0.  1.
<mgrwt>
<rscale>  0 0.14904422E+02</rscale>
<asrwt>0</asrwt>
<pdfrwt beam="1">  1        2 0.99394683E+00 0.14904422E+02</pdfrwt>
<pdfrwt beam="2">  1       -2 0.98508004E+00 0.14904422E+02</pdfrwt>
<totfact> 0.52111051E-13</totfact>
</mgrwt>
</event>
<event>
 4    1 -0.4882314E-019  0.1494738E+02  0.7818608E-02  0.1869679E+00
          2   -1    0    0  501    0  0.00000000000E+00  0.00000000000E+00  0.11927093211E+03  0.11927093214E+03  0.25500000000E-02 0.  1.
         -2   -1    0    0    0  501 -0.00000000000E+00 -0.00000000000E+00 -0.46830859197E+00  0.46831553445E+00  0.25500000000E-02 0. -1.
         31    1    1    2    0    0  0.41901139463E-01 -0.27696453346E+00  0.63923137339E+02  0.64356078799E+02  0.74470750000E+01 0.  1.
        -31    1    1    2    0    0 -0.41901139463E-01  0.27696453346E+00  0.54879486177E+02  0.55383168871E+02  0.74470750000E+01 0. -1.
<mgrwt>
<rscale>  0 0.14947377E+02</rscale>
<asrwt>0</asrwt>
<pdfrwt beam="1">  1        2 0.99008788E+00 0.14947377E+02</pdfrwt>
<pdfrwt beam="2">  1       -2 0.99462785E+00 0.14947377E+02</pdfrwt>
<totfact>-0.17744259E-13</totfact>
</mgrwt>
</event>
<event>
 4    1 -0.4882314E-019  0.1492113E+02  0.7818608E-02  0.1870485E+00
         -2   -1    0    0    0  501 -0.00000000000E+00  0.00000000000E+00  0.11986437101E+03  0.11986437104E+03  0.25500000000E-02 0. -1.
          2   -1    0    0  501    0  0.00000000000E+00 -0.00000000000E+00 -0.46435466463E+00  0.46436166623E+00  0.25500000000E-02 0.  1.
         31    1    1    2    0    0  0.24484432131E-01  0.38760708898E+00  0.61507529365E+02  0.61957936807E+02  0.74470750000E+01 0. -1.
        -31    1    1    2    0    0 -0.24484432131E-01 -0.38760708898E+00  0.57892486982E+02  0.58370795898E+02  0.74470750000E+01 0.  1.
<mgrwt>
<rscale>  0 0.14921126E+02</rscale>
<asrwt>0</asrwt>
<pdfrwt beam="2">  1        2 0.98628184E+00 0.14921126E+02</pdfrwt>
<pdfrwt beam="1">  1       -2 0.99496215E+00 0.14921126E+02</pdfrwt>
<totfact>-0.28409674E-13</totfact>
</mgrwt>
</event>
<event>
 4    1 -0.4882314E-019  0.1491596E+02  0.7818608E-02  0.1870644E+00
          2   -1    0    0  501    0  0.00000000000E+00  0.00000000000E+00  0.11909761311E+03  0.11909761314E+03  0.25500000000E-02 0.  1.
         -2   -1    0    0    0  501 -0.00000000000E+00 -0.00000000000E+00 -0.46702070552E+00  0.46702766715E+00  0.25500000000E-02 0. -1.
         31    1    1    2    0    0  0.15502011181E+00 -0.18701115283E+00  0.61894601764E+02  0.62341476226E+02  0.74470750000E+01 0.  1.
        -31    1    1    2    0    0 -0.15502011181E+00  0.18701115283E+00  0.56735990639E+02  0.57223164577E+02  0.74470750000E+01 0. -1.
<mgrwt>
<rscale>  0 0.14915960E+02</rscale>
<asrwt>0</asrwt>
<pdfrwt beam="1">  1        2 0.98864411E+00 0.14915960E+02</pdfrwt>
<pdfrwt beam="2">  1       -2 0.99189762E+00 0.14915960E+02</pdfrwt>
<totfact>-0.13074844E-13</totfact>
</mgrwt>
</event>
<event>
 4    1  0.4882314E-019  0.1491232E+02  0.7818608E-02  0.1870756E+00
          2   -1    0    0  501    0  0.00000000000E+00  0.00000000000E+00  0.12021310135E+03  0.12021310138E+03  0.25500000000E-02 0. -1.
         -2   -1    0    0    0  501 -0.00000000000E+00 -0.00000000000E+00 -0.46246118119E+00  0.46246821145E+00  0.25500000000E-02 0.  1.
         31    1    1    2    0    0 -0.30212757479E-01 -0.36420901520E+00  0.59528991135E+02  0.59994110316E+02  0.74470750000E+01 0. -1.
        -31    1    1    2    0    0  0.30212757479E-01  0.36420901520E+00  0.60221649035E+02  0.60681459273E+02  0.74470750000E+01 0. -1.
<mgrwt>
<rscale>  0 0.14912320E+02</rscale>
<asrwt>0</asrwt>
<pdfrwt beam="1">  1        2 0.99783004E+00 0.14912320E+02</pdfrwt>
<pdfrwt beam="2">  1       -2 0.98228658E+00 0.14912320E+02</pdfrwt>
<totfact> 0.54173680E-13</totfact>
</mgrwt>
</event>
<event>
 4    1 -0.4882314E-019  0.1493119E+02  0.7818608E-02  0.1870175E+00
         -2   -1    0    0    0  501 -0.00000000000E+00  0.00000000000E+00  0.11962725649E+03  0.11962725652E+03  0.25500000000E-02 0.  1.
          2   -1    0    0  501    0  0.00000000000E+00 -0.00000000000E+00 -0.46590312076E+00  0.46591009909E+00  0.25500000000E-02 0. -1.
         31    1    1    2    0    0  0.33207667253E+00  0.15467161404E+00  0.56549711421E+02  0.57039135565E+02  0.74470750000E+01 0. -1.
        -31    1    1    2    0    0 -0.33207667253E+00 -0.15467161404E+00  0.62611641953E+02  0.63054031056E+02  0.74470750000E+01 0.  1.
<mgrwt>
<rscale>  0 0.14931193E+02</rscale>
<asrwt>0</asrwt>
<pdfrwt beam="2">  1        2 0.98955036E+00 0.14931193E+02</pdfrwt>
<pdfrwt beam="1">  1       -2 0.99301433E+00 0.14931193E+02</pdfrwt>
<totfact>-0.16244212E-13</totfact>
</mgrwt>
</event>
<event>
 4    1  0.4882314E-019  0.1489923E+02  0.7818608E-02  0.1871159E+00
         -2   -1    0    0    0  501 -0.00000000000E+00  0.00000000000E+00  0.11837400179E+03  0.11837400182E+03  0.25500000000E-02 0. -1.
          2   -1    0    0  501    0  0.00000000000E+00 -0.00000000000E+00 -0.46882229321E+00  0.46882922809E+00  0.25500000000E-02 0.  1.
         31    1    1    2    0    0 -0.13840324163E+00  0.12665952173E+00  0.59364018042E+02  0.59829597711E+02  0.74470750000E+01 0. -1.
        -31    1    1    2    0    0  0.13840324163E+00 -0.12665952173E+00  0.58541161457E+02  0.59013233337E+02  0.74470750000E+01 0.  1.
<mgrwt>
<rscale>  0 0.14899233E+02</rscale>
<asrwt>0</asrwt>
<pdfrwt beam="2">  1        2 0.99568506E+00 0.14899233E+02</pdfrwt>
<pdfrwt beam="1">  1       -2 0.98267568E+00 0.14899233E+02</pdfrwt>
<totfact> 0.78918962E-13</totfact>
</mgrwt>
</event>
<event>
 4    1 -0.4882314E-019  0.1494177E+02  0.7818608E-02  0.1869851E+00
          2   -1    0    0  501    0  0.00000000000E+00  0.00000000000E+00  0.11924494027E+03  0.11924494030E+03  0.25500000000E-02 0. -1.
         -2   -1    0    0    0  501 -0.00000000000E+00 -0.00000000000E+00 -0.46805943386E+00  0.46806638004E+00  0.25500000000E-02 0.  1.
         31    1    1    2    0    0  0.55369164631E+00 -0.21925249674E+00  0.59578796648E+02  0.60045371030E+02  0.74470750000E+01 0.  1.
        -31    1    1    2    0    0 -0.55369164631E+00  0.21925249674E+00  0.59198084193E+02  0.59667635652E+02  0.74470750000E+01 0. -1.
<mgrwt>
<rscale>  0 0.14941772E+02</rscale>
<asrwt>0</asrwt>
<pdfrwt beam="1">  1        2 0.98987090E+00 0.14941772E+02</pdfrwt>
<pdfrwt beam="2">  1       -2 0.99409990E+00 0.14941772E+02</pdfrwt>
<totfact>-0.17803143E-13</totfact>
</mgrwt>
</event>
<event>
 4    1  0.4882314E-019  0.1491915E+02  0.7818608E-02  0.1870546E+00
          2   -1    0    0  501    0  0.00000000000E+00  0.00000000000E+00  0.12021375339E+03  0.12021375342E+03  0.25500000000E-02 0. -1.
         -2   -1    0    0    0  501 -0.00000000000E+00 -0.00000000000E+00 -0.46288267969E+00  0.46288970355E+00  0.25500000000E-02 0.  1.
         31    1    1    2    0    0  0.36726603178E-01 -0.41822864316E+00  0.60688326092E+02  0.61144976195E+02  0.74470750000E+01 0. -1.
        -31    1    1    2    0    0 -0.36726603178E-01  0.41822864316E+00  0.59062544622E+02  0.59531666929E+02  0.74470750000E+01 0.  1.
<mgrwt>
<rscale>  0 0.14919154E+02</rscale>
<asrwt>0</asrwt>
<pdfrwt beam="1">  1        2 0.99783892E+00 0.14919154E+02</pdfrwt>
<pdfrwt beam="2">  1       -2 0.98317844E+00 0.14919154E+02</pdfrwt>
<totfact> 0.44625782E-13</totfact>
</mgrwt>
</event>
<event>
 4    1  0.4882314E-019  0.1491232E+02  0.7818608E-02  0.1870756E+00
         -2   -1    0    0    0  501 -0.00000000000E+00  0.00000000000E+00  0.11905304990E+03  0.11905304993E+03  0.25500000000E-02 0.  1.
          2   -1    0    0  501    0  0.00000000000E+00 -0.00000000000E+00 -0.46696733926E+00  0.46697430168E+00  0.25500000000E-02 0. -1.
         31    1    1    2    0    0 -0.21012654832E+00 -0.17913600948E+00  0.57344019025E+02  0.57826219718E+02  0.74470750000E+01 0. -1.
        -31    1    1    2    0    0  0.21012654832E+00  0.17913600948E+00  0.61242063540E+02  0.61693804516E+02  0.74470750000E+01 0. -1.
<mgrwt>
<rscale>  0 0.14912318E+02</rscale>
<asrwt>0</asrwt>
<pdfrwt beam="2">  1        2 0.99178327E+00 0.14912318E+02</pdfrwt>
<pdfrwt beam="1">  1       -2 0.98827518E+00 0.14912318E+02</pdfrwt>
<totfact> 0.16513390E-13</totfact>
</mgrwt>
</event>
<event>
 4    1 -0.4882314E-019  0.1499983E+02  0.7818608E-02  0.1868074E+00
         -2   -1    0    0    0  501 -0.00000000000E+00  0.00000000000E+00  0.11988403547E+03  0.11988403550E+03  0.25500000000E-02 0. -1.
          2   -1    0    0  501    0  0.00000000000E+00 -0.00000000000E+00 -0.46918931352E+00  0.46919624297E+00  0.25500000000E-02 0.  1.
         31    1    1    2    0    0 -0.35514284381E+00 -0.41610433128E+00  0.54087829399E+02  0.54600837763E+02  0.74470750000E+01 0.  1.
        -31    1    1    2    0    0  0.35514284381E+00  0.41610433128E+00  0.65327016761E+02  0.65752393980E+02  0.74470750000E+01 0. -1.
<mgrwt>
<rscale>  0 0.14999830E+02</rscale>
<asrwt>0</asrwt>
<pdfrwt beam="2">  1        2 0.99651100E+00 0.14999830E+02</pdfrwt>
<pdfrwt beam="1">  1       -2 0.99516473E+00 0.14999830E+02</pdfrwt>
<totfact>-0.96696405E-14</totfact>
</mgrwt>
</event>
<event>
 4    1 -0.4882314E-019  0.1499210E+02  0.7818608E-02  0.1868310E+00
         -2   -1    0    0    0  501 -0.00000000000E+00  0.00000000000E+00  0.11983586801E+03  0.11983586804E+03  0.25500000000E-02 0. -1.
          2   -1    0    0  501    0  0.00000000000E+00 -0.00000000000E+00 -0.46889450341E+00  0.46890143722E+00  0.25500000000E-02 0.  1.
         31    1    1    2    0    0 -0.63104909798E+00  0.32371138477E+00  0.55844597082E+02  0.56343419859E+02  0.74470750000E+01 0.  1.
        -31    1    1    2    0    0  0.63104909798E+00 -0.32371138477E+00  0.63522376427E+02  0.63961349619E+02  0.74470750000E+01 0. -1.
<mgrwt>
<rscale>  0 0.14992104E+02</rscale>
<asrwt>0</asrwt>
<pdfrwt beam="2">  1        2 0.99588575E+00 0.14992104E+02</pdfrwt>
<pdfrwt beam="1">  1       -2 0.99476401E+00 0.14992104E+02</pdfrwt>
<totfact>-0.10754716E-13</totfact>
</mgrwt>
</event>
<event>
 4    1  0.4882314E-019  0.1492827E+02  0.7818608E-02  0.1870265E+00
          2   -1    0    0  501    0  0.00000000000E+00  0.00000000000E+00  0.12015110580E+03  0.12015110583E+03  0.25500000000E-02 0.  1.
         -2   -1    0    0    0  501 -0.00000000000E+00 -0.00000000000E+00 -0.46369001776E+00  0.46369702940E+00  0.25500000000E-02 0. -1.
         31    1    1    2    0    0  0.19076830334E+00  0.32464185989E+00  0.62554683098E+02  0.62997532399E+02  0.74470750000E+01 0.  1.
        -31    1    1    2    0    0 -0.19076830334E+00 -0.32464185989E+00  0.57132732685E+02  0.57617270458E+02  0.74470750000E+01 0.  1.
<mgrwt>
<rscale>  0 0.14928268E+02</rscale>
<asrwt>0</asrwt>
<pdfrwt beam="1">  1        2 0.99732758E+00 0.14928268E+02</pdfrwt>
<pdfrwt beam="2">  1       -2 0.98488466E+00 0.14928268E+02</pdfrwt>
<totfact> 0.34127965E-13</totfact>
</mgrwt>
</event>
<event>
 4    1  0.4882314E-019  0.1494544E+02  0.7818608E-02  0.1869738E+00
          2   -1    0    0  501    0  0.00000000000E+00  0.00000000000E+00  0.12006389218E+03  0.12006389221E+03  0.25500000000E-02 0.  1.
         -2   -1    0    0    0  501 -0.00000000000E+00 -0.00000000000E+00 -0.46509510634E+00  0.46510209679E+00  0.25500000000E-02 0. -1.
         31    1    1    2    0    0 -0.16653858210E+00  0.57340130391E+00  0.58496487711E+02  0.58971641699E+02  0.74470750000E+01 0. -1.
        -31    1    1    2    0    0  0.16653858210E+00 -0.57340130391E+00  0.61102309364E+02  0.61557352606E+02  0.74470750000E+01 0. -1.
<mgrwt>
<rscale>  0 0.14945441E+02</rscale>
<asrwt>0</asrwt>
<pdfrwt beam="1">  1        2 0.99661805E+00 0.14945441E+02</pdfrwt>
<pdfrwt beam="2">  1       -2 0.98785477E+00 0.14945441E+02</pdfrwt>
<totfact> 0.13101061E-13</totfact>
</mgrwt>
</event>
<event>
 4    1  0.4882314E-019  0.1491147E+02  0.7818608E-02  0.1870782E+00
          2   -1    0    0  501    0  0.00000000000E+00  0.00000000000E+00  0.12016866579E+03  0.12016866581E+03  0.25500000000E-02 0. -1.
         -2   -1    0    0    0  501 -0.00000000000E+00 -0.00000000000E+00 -0.46257972582E+00  0.46258675428E+00  0.25500000000E-02 0.  1.
         31    1    1    2    0    0  0.21722923971E-01  0.34889067913E+00  0.60524614837E+02  0.60982047553E+02  0.74470750000E+01 0. -1.
        -31    1    1    2    0    0 -0.21722923971E-01 -0.34889067913E+00  0.59181471225E+02  0.59649205015E+02  0.74470750000E+01 0.  1.
<mgrwt>
<rscale>  0 0.14911474E+02</rscale>
<asrwt>0</asrwt>
<pdfrwt beam="1">  1        2 0.99746360E+00 0.14911474E+02</pdfrwt>
<pdfrwt beam="2">  1       -2 0.98253601E+00 0.14911474E+02</pdfrwt>
<totfact> 0.57758644E-13</totfact>
</mgrwt>
</event>
<event>
 4    1 -0.4882314E-019  0.1495769E+02  0.7818608E-02  0.1869362E+00
          2   -1    0    0  501    0  0.00000000000E+00  0.00000000000E+00  0.11967464492E+03  0.11967464494E+03  0.25500000000E-02 0.  1.
         -2   -1    0    0    0  501 -0.00000000000E+00 -0.00000000000E+00 -0.46737320129E+00  0.46738015767E+00  0.25500000000E-02 0. -1.
         31    1    1    2    0    0  0.28584639462E+00  0.54215692665E+00  0.62125429128E+02  0.62573185253E+02  0.74470750000E+01 0. -1.
        -31    1    1    2    0    0 -0.28584639462E+00 -0.54215692665E+00  0.57081842588E+02  0.57568839850E+02  0.74470750000E+01 0. -1.
<mgrwt>
<rscale>  0 0.14957693E+02</rscale>
<asrwt>0</asrwt>
<pdfrwt beam="1">  1        2 0.99341832E+00 0.14957693E+02</pdfrwt>
<pdfrwt beam="2">  1       -2 0.99266205E+00 0.14957693E+02</pdfrwt>
<totfact>-0.11048256E-13</totfact>
</mgrwt>
</event>
<event>
 4    1 -0.4882314E-019  0.1490662E+02  0.7818608E-02  0.1870932E+00
          2   -1    0    0  501    0  0.00000000000E+00  0.00000000000E+00  0.11843043579E+03  0.11843043582E+03  0.25500000000E-02 0. -1.
         -2   -1    0    0    0  501 -0.00000000000E+00 -0.00000000000E+00 -0.46906358257E+00  0.46907051389E+00  0.25500000000E-02 0.  1.
         31    1    1    2    0    0  0.20719114005E+00 -0.18938933219E+00  0.58033700289E+02  0.58510239205E+02  0.74470750000E+01 0.  1.
        -31    1    1    2    0    0 -0.20719114005E+00  0.18938933219E+00  0.59927671916E+02  0.60389267125E+02  0.74470750000E+01 0.  1.
<mgrwt>
<rscale>  0 0.14906618E+02</rscale>
<asrwt>0</asrwt>
<pdfrwt beam="1">  1        2 0.98314431E+00 0.14906618E+02</pdfrwt>
<pdfrwt beam="2">  1       -2 0.99619735E+00 0.14906618E+02</pdfrwt>
<totfact>-0.43339993E-13</totfact>
</mgrwt>
</event>
<event>
 4    1  0.4882314E-019  0.1491041E+02  0.7818608E-02  0.1870815E+00
         -2   -1    0    0    0  501 -0.00000000000E+00  0.00000000000E+00  0.11875170331E+03  0.11875170333E+03  0.25500000000E-02 0. -1.
          2   -1    0    0  501    0  0.00000000000E+00 -0.00000000000E+00 -0.46803251108E+00  0.46803945766E+00  0.25500000000E-02 0.  1.
         31    1    1    2    0    0 -0.26050321360E+00 -0.18631334598E+00  0.60231516141E+02  0.60690996345E+02  0.74470750000E+01 0. -1.
        -31    1    1    2    0    0  0.26050321360E+00  0.18631334598E+00  0.58052154654E+02  0.58528746447E+02  0.74470750000E+01 0.  1.
<mgrwt>
<rscale>  0 0.14910409E+02</rscale>
<asrwt>0</asrwt>
<pdfrwt beam="2">  1        2 0.99402680E+00 0.14910409E+02</pdfrwt>
<pdfrwt beam="1">  1       -2 0.98579225E+00 0.14910409E+02</pdfrwt>
<totfact> 0.41715857E-13</totfact>
</mgrwt>
</event>
<event>
 4    1 -0.4882314E-019  0.1490349E+02  0.7818608E-02  0.1871028E+00
          2   -1    0    0  501    0  0.00000000000E+00  0.00000000000E+00  0.11832056857E+03  0.11832056860E+03  0.25500000000E-02 0. -1.
         -2   -1    0    0    0  501 -0.00000000000E+00 -0.00000000000E+00 -0.46930193684E+00  0.46930886463E+00  0.25500000000E-02 0.  1.
         31    1    1    2    0    0  0.29665585427E-01  0.24694526362E-01  0.56846095641E+02  0.57331832393E+02  0.74470750000E+01 0.  1.
        -31    1    1    2    0    0 -0.29665585427E-01 -0.24694526362E-01  0.61005170989E+02  0.61458045066E+02  0.74470750000E+01 0. -1.
<mgrwt>
<rscale>  0 0.14903488E+02</rscale>
<asrwt>0</asrwt>
<pdfrwt beam="1">  1        2 0.98223782E+00 0.14903488E+02</pdfrwt>
<pdfrwt beam="2">  1       -2 0.99669791E+00 0.14903488E+02</pdfrwt>
<totfact>-0.46826699E-13</totfact>
</mgrwt>
</event>
<event>
 4    1 -0.4882314E-019  0.1492476E+02  0.7818608E-02  0.1870373E+00
          2   -1    0    0  501    0  0.00000000000E+00  0.00000000000E+00  0.11856705302E+03  0.11856705304E+03  0.25500000000E-02 0. -1.
         -2   -1    0    0    0  501 -0.00000000000E+00 -0.00000000000E+00 -0.46966434097E+00  0.46967126341E+00  0.25500000000E-02 0.  1.
         31    1    1    2    0    0 -0.21626564586E+00 -0.26166011664E+00  0.56367980709E+02  0.56858802416E+02  0.74470750000E+01 0.  1.
        -31    1    1    2    0    0  0.21626564586E+00  0.26166011664E+00  0.61729407965E+02  0.62177921891E+02  0.74470750000E+01 0. -1.
<mgrwt>
<rscale>  0 0.14924762E+02</rscale>
<asrwt>0</asrwt>
<pdfrwt beam="1">  1        2 0.98427892E+00 0.14924762E+02</pdfrwt>
<pdfrwt beam="2">  1       -2 0.99747273E+00 0.14924762E+02</pdfrwt>
<totfact>-0.27798249E-13</totfact>
</mgrwt>
</event>
<event>
 4    1  0.4882314E-019  0.1493239E+02  0.7818608E-02  0.1870139E+00
         -2   -1    0    0    0  501 -0.00000000000E+00  0.00000000000E+00  0.11889489319E+03  0.11889489321E+03  0.25500000000E-02 0. -1.
          2   -1    0    0  501    0  0.00000000000E+00 -0.00000000000E+00 -0.46884827260E+00  0.46885520709E+00  0.25500000000E-02 0.  1.
         31    1    1    2    0    0  0.39379558405E+00  0.30278119230E+00  0.60779511833E+02  0.61236057484E+02  0.74470750000E+01 0.  1.
        -31    1    1    2    0    0 -0.39379558405E+00 -0.30278119230E+00  0.57646533081E+02  0.58127690937E+02  0.74470750000E+01 0.  1.
<mgrwt>
<rscale>  0 0.14932392E+02</rscale>
<asrwt>0</asrwt>
<pdfrwt beam="2">  1        2 0.99575723E+00 0.14932392E+02</pdfrwt>
<pdfrwt beam="1">  1       -2 0.98698299E+00 0.14932392E+02</pdfrwt>
<totfact> 0.22652543E-13</totfact>
</mgrwt>
</event>
<event>
 4    1 -0.4882314E-019  0.1493859E+02  0.7818608E-02  0.1869948E+00
         -2   -1    0    0    0  501 -0.00000000000E+00  0.00000000000E+00  0.12019540485E+03  0.12019540488E+03  0.25500000000E-02 0.  1.
          2   -1    0    0  501    0  0.00000000000E+00 -0.00000000000E+00 -0.46416025576E+00  0.46416726029E+00  0.25500000000E-02 0. -1.
         31    1    1    2    0    0  0.31606355300E+00 -0.65589419419E-01  0.56015407667E+02  0.56509194121E+02  0.74470750000E+01 0. -1.
        -31    1    1    2    0    0 -0.31606355300E+00  0.65589419419E-01  0.63715836929E+02  0.64150378017E+02  0.74470750000E+01 0.  1.
<mgrwt>
<rscale>  0 0.14938588E+02</rscale>
<asrwt>0</asrwt>
<pdfrwt beam="2">  1        2 0.98588099E+00 0.14938588E+02</pdfrwt>
<pdfrwt beam="1">  1       -2 0.99769776E+00 0.14938588E+02</pdfrwt>
<totfact>-0.20031869E-13</totfact>
</mgrwt>
</event>
<event>
 4    1 -0.4882314E-019  0.1493573E+02  0.7818608E-02  0.1870036E+00
          2   -1    0    0  501    0  0.00000000000E+00  0.00000000000E+00  0.11861584726E+03  0.11861584728E+03  0.25500000000E-02 0.  1.
         -2   -1    0    0    0  501 -0.00000000000E+00 -0.00000000000E+00 -0.47016167368E+00  0.47016858880E+00  0.25500000000E-02 0. -1.
         31    1    1    2    0    0 -0.28421497593E+00 -0.35384876081E+00  0.61645682511E+02  0.62095531927E+02  0.74470750000E+01 0.  1.
        -31    1    1    2    0    0  0.28421497593E+00  0.35384876081E+00  0.56500003071E+02  0.56990483944E+02  0.74470750000E+01 0. -1.
<mgrwt>
<rscale>  0 0.14935734E+02</rscale>
<asrwt>0</asrwt>
<pdfrwt beam="1">  1        2 0.98468650E+00 0.14935734E+02</pdfrwt>
<pdfrwt beam="2">  1       -2 0.99852640E+00 0.14935734E+02</pdfrwt>
<totfact>-0.16802444E-13</totfact>
</mgrwt>
</event>
<event>
 4    1  0.4882314E-019  0.1492066E+02  0.7818608E-02  0.1870499E+00
         -2   -1    0    0    0  501 -0.00000000000E+00  0.00000000000E+00  0.11918576931E+03  0.11918576933E+03  0.25500000000E-02 0. -1.
          2   -1    0    0  501    0  0.00000000000E+00 -0.00000000000E+00 -0.46696942647E+00  0.46697638886E+00  0.25500000000E-02 0.  1.
         31    1    1    2    0    0 -0.35945934690E+00 -0.24221258044E+00  0.60150202469E+02  0.60611002805E+02  0.74470750000E+01 0.  1.
        -31    1    1    2    0    0  0.35945934690E+00  0.24221258044E+00  0.58568597411E+02  0.59041742917E+02  0.74470750000E+01 0.  1.
<mgrwt>
<rscale>  0 0.14920661E+02</rscale>
<asrwt>0</asrwt>
<pdfrwt beam="2">  1        2 0.99179200E+00 0.14920661E+02</pdfrwt>
<pdfrwt beam="1">  1       -2 0.98937262E+00 0.14920661E+02</pdfrwt>
<totfact> 0.60399038E-14</totfact>
</mgrwt>
</event>
<event>
 4    1  0.4882314E-019  0.1492499E+02  0.7818608E-02  0.1870366E+00
         -2   -1    0    0    0  501 -0.00000000000E+00  0.00000000000E+00  0.11879699445E+03  0.11879699448E+03  0.25500000000E-02 0. -1.
          2   -1    0    0  501    0  0.00000000000E+00 -0.00000000000E+00 -0.46876933983E+00  0.46877627549E+00  0.25500000000E-02 0.  1.
         31    1    1    2    0    0  0.10807517232E+00  0.36570527445E+00  0.56841801851E+02  0.57328830307E+02  0.74470750000E+01 0.  1.
        -31    1    1    2    0    0 -0.10807517232E+00 -0.36570527445E+00  0.61486423258E+02  0.61936940445E+02  0.74470750000E+01 0.  1.
<mgrwt>
<rscale>  0 0.14924986E+02</rscale>
<asrwt>0</asrwt>
<pdfrwt beam="2">  1        2 0.99558703E+00 0.14924986E+02</pdfrwt>
<pdfrwt beam="1">  1       -2 0.98617284E+00 0.14924986E+02</pdfrwt>
<totfact> 0.31459365E-13</totfact>
</mgrwt>
</event>
<event>
 4    1 -0.4882314E-019  0.1496725E+02  0.7818608E-02  0.1869070E+00
          2   -1    0    0  501    0  0.00000000000E+00  0.00000000000E+00  0.11986607207E+03  0.11986607209E+03  0.25500000000E-02 0. -1.
         -2   -1    0    0    0  501 -0.00000000000E+00 -0.00000000000E+00 -0.46722309853E+00  0.46723005715E+00  0.25500000000E-02 0.  1.
         31    1    1    2    0    0 -0.23061949704E+00  0.67127171506E+00  0.58053708089E+02  0.58533714559E+02  0.74470750000E+01 0.  1.
        -31    1    1    2    0    0  0.23061949704E+00 -0.67127171506E+00  0.61345140878E+02  0.61799587591E+02  0.74470750000E+01 0. -1.
<mgrwt>
<rscale>  0 0.14967247E+02</rscale>
<asrwt>0</asrwt>
<pdfrwt beam="1">  1        2 0.99499994E+00 0.14967247E+02</pdfrwt>
<pdfrwt beam="2">  1       -2 0.99235066E+00 0.14967247E+02</pdfrwt>
<totfact>-0.88799287E-14</totfact>
</mgrwt>
</event>
<event>
 4    1  0.4882314E-019  0.1491398E+02  0.7818608E-02  0.1870705E+00
          2   -1    0    0  501    0  0.00000000000E+00  0.00000000000E+00  0.11972677443E+03  0.11972677446E+03  0.25500000000E-02 0.  1.
         -2   -1    0    0    0  501 -0.00000000000E+00 -0.00000000000E+00 -0.46444320649E+00  0.46445020676E+00  0.25500000000E-02 0. -1.
         31    1    1    2    0    0  0.38222742972E+00  0.39384278520E-01  0.59724577347E+02  0.60188302138E+02  0.74470750000E+01 0.  1.
        -31    1    1    2    0    0 -0.38222742972E+00 -0.39384278520E-01  0.59537753878E+02  0.60002922527E+02  0.74470750000E+01 0. -1.
<mgrwt>
<rscale>  0 0.14913981E+02</rscale>
<asrwt>0</asrwt>
<pdfrwt beam="1">  1        2 0.99382514E+00 0.14913981E+02</pdfrwt>
<pdfrwt beam="2">  1       -2 0.98646480E+00 0.14913981E+02</pdfrwt>
<totfact> 0.33641767E-13</totfact>
</mgrwt>
</event>
<event>
 4    1  0.4882314E-019  0.1489702E+02  0.7818608E-02  0.1871227E+00
         -2   -1    0    0    0  501 -0.00000000000E+00  0.00000000000E+00  0.11809621707E+03  0.11809621709E+03  0.25500000000E-02 0.  1.
          2   -1    0    0  501    0  0.00000000000E+00 -0.00000000000E+00 -0.46978539042E+00  0.46979231109E+00  0.25500000000E-02 0. -1.
         31    1    1    2    0    0 -0.11887623443E+00 -0.22147496929E-01  0.59466692754E+02  0.59931303133E+02  0.74470750000E+01 0.  1.
        -31    1    1    2    0    0  0.11887623443E+00  0.22147496929E-01  0.58159738920E+02  0.58634706270E+02  0.74470750000E+01 0. -1.
<mgrwt>
<rscale>  0 0.14897018E+02</rscale>
<asrwt>0</asrwt>
<pdfrwt beam="2">  1        2 0.99771309E+00 0.14897018E+02</pdfrwt>
<pdfrwt beam="1">  1       -2 0.98038672E+00 0.14897018E+02</pdfrwt>
<totfact> 0.80557006E-13</totfact>
</mgrwt>
</event>
<event>
 4    1 -0.4882314E-019  0.1494779E+02  0.7818608E-02  0.1869666E+00
         -2   -1    0    0    0  501 -0.00000000000E+00  0.00000000000E+00  0.11966571321E+03  0.11966571324E+03  0.25500000000E-02 0. -1.
          2   -1    0    0  501    0  0.00000000000E+00 -0.00000000000E+00 -0.46678952366E+00  0.46679648874E+00  0.25500000000E-02 0.  1.
         31    1    1    2    0    0  0.21267295417E+00 -0.42531363870E+00  0.56246333871E+02  0.56739185062E+02  0.74470750000E+01 0.  1.
        -31    1    1    2    0    0 -0.21267295417E+00  0.42531363870E+00  0.62952589819E+02  0.63393324668E+02  0.74470750000E+01 0. -1.
<mgrwt>
<rscale>  0 0.14947792E+02</rscale>
<asrwt>0</asrwt>
<pdfrwt beam="2">  1        2 0.99142692E+00 0.14947792E+02</pdfrwt>
<pdfrwt beam="1">  1       -2 0.99333964E+00 0.14947792E+02</pdfrwt>
<totfact>-0.14471342E-13</totfact>
</mgrwt>
</event>
<event>
 4    1  0.4882314E-019  0.1490212E+02  0.7818608E-02  0.1871070E+00
         -2   -1    0    0    0  501 -0.00000000000E+00  0.00000000000E+00  0.11806640360E+03  0.11806640362E+03  0.25500000000E-02 0. -1.
          2   -1    0    0  501    0  0.00000000000E+00 -0.00000000000E+00 -0.47022591504E+00  0.47023282922E+00  0.25500000000E-02 0.  1.
         31    1    1    2    0    0  0.69227356140E-01 -0.20579726545E+00  0.57918671321E+02  0.58395877925E+02  0.74470750000E+01 0.  1.
        -31    1    1    2    0    0 -0.69227356140E-01  0.20579726545E+00  0.59677506360E+02  0.60140758528E+02  0.74470750000E+01 0. -1.
<mgrwt>
<rscale>  0 0.14902120E+02</rscale>
<asrwt>0</asrwt>
<pdfrwt beam="2">  1        2 0.99864394E+00 0.14902120E+02</pdfrwt>
<pdfrwt beam="1">  1       -2 0.98014385E+00 0.14902120E+02</pdfrwt>
<totfact> 0.55209507E-13</totfact>
</mgrwt>
</event>
<event>
 4    1 -0.4882314E-019  0.1496464E+02  0.7818608E-02  0.1869149E+00
         -2   -1    0    0    0  501 -0.00000000000E+00  0.00000000000E+00  0.11985557056E+03  0.11985557059E+03  0.25500000000E-02 0. -1.
          2   -1    0    0  501    0  0.00000000000E+00 -0.00000000000E+00 -0.46710130925E+00  0.46710826968E+00  0.25500000000E-02 0.  1.
         31    1    1    2    0    0 -0.19452431186E+00  0.66338136820E+00  0.61460827735E+02  0.61914216352E+02  0.74470750000E+01 0.  1.
        -31    1    1    2    0    0  0.19452431186E+00 -0.66338136820E+00  0.57927641514E+02  0.58408462503E+02  0.74470750000E+01 0.  1.
<mgrwt>
<rscale>  0 0.14964640E+02</rscale>
<asrwt>0</asrwt>
<pdfrwt beam="2">  1        2 0.99209265E+00 0.14964640E+02</pdfrwt>
<pdfrwt beam="1">  1       -2 0.99491209E+00 0.14964640E+02</pdfrwt>
<totfact>-0.15054905E-13</totfact>
</mgrwt>
</event>
<event>
 4    1 -0.4882314E-019  0.1494268E+02  0.7818608E-02  0.1869823E+00
          2   -1    0    0  501    0  0.00000000000E+00  0.00000000000E+00  0.11899609302E+03  0.11899609305E+03  0.25500000000E-02 0. -1.
         -2   -1    0    0    0  501 -0.00000000000E+00 -0.00000000000E+00 -0.46909509425E+00  0.46910202510E+00  0.25500000000E-02 0.  1.
         31    1    1    2    0    0  0.31817541332E+00 -0.37023224276E+00  0.56452003845E+02  0.56943181959E+02  0.74470750000E+01 0.  1.
        -31    1    1    2    0    0 -0.31817541332E+00  0.37023224276E+00  0.62074994084E+02  0.62522013116E+02  0.74470750000E+01 0. -1.
<mgrwt>
<rscale>  0 0.14942677E+02</rscale>
<asrwt>0</asrwt>
<pdfrwt beam="1">  1        2 0.98782182E+00 0.14942677E+02</pdfrwt>
<pdfrwt beam="2">  1       -2 0.99628270E+00 0.14942677E+02</pdfrwt>
<totfact>-0.20715457E-13</totfact>
</mgrwt>
</event>
<event>
 4    1 -0.4882314E-019  0.1489945E+02  0.7818608E-02  0.1871152E+00
          2   -1    0    0  501    0  0.00000000000E+00  0.00000000000E+00  0.11841173357E+03  0.11841173360E+03  0.25500000000E-02 0.  1.
         -2   -1    0    0    0  501 -0.00000000000E+00 -0.00000000000E+00 -0.46868663126E+00  0.46869356815E+00  0.25500000000E-02 0. -1.
         31    1    1    2    0    0  0.13662916982E+00 -0.10506695535E+00  0.58182552275E+02  0.58657463480E+02  0.74470750000E+01 0. -1.
        -31    1    1    2    0    0 -0.13662916982E+00  0.10506695535E+00  0.59760494667E+02  0.60222963689E+02  0.74470750000E+01 0.  1.
<mgrwt>
<rscale>  0 0.14899451E+02</rscale>
<asrwt>0</asrwt>
<pdfrwt beam="1">  1        2 0.98298655E+00 0.14899451E+02</pdfrwt>
<pdfrwt beam="2">  1       -2 0.99539933E+00 0.14899451E+02</pdfrwt>
<totfact>-0.47803902E-13</totfact>
</mgrwt>
</event>
<event>
 4    1 -0.4882314E-019  0.1501644E+02  0.7818608E-02  0.1867567E+00
          2   -1    0    0  501    0  0.00000000000E+00  0.00000000000E+00  0.11979772710E+03  0.11979772713E+03  0.25500000000E-02 0. -1.
         -2   -1    0    0    0  501 -0.00000000000E+00 -0.00000000000E+00 -0.47056778606E+00  0.47057469522E+00  0.25500000000E-02 0.  1.
         31    1    1    2    0    0  0.61868915044E+00  0.52875101320E+00  0.55642334069E+02  0.56144373009E+02  0.74470750000E+01 0.  1.
        -31    1    1    2    0    0 -0.61868915044E+00 -0.52875101320E+00  0.63684825249E+02  0.64123928817E+02  0.74470750000E+01 0.  1.
<mgrwt>
<rscale>  0 0.15016440E+02</rscale>
<asrwt>0</asrwt>
<pdfrwt beam="1">  1        2 0.99446247E+00 0.15016440E+02</pdfrwt>
<pdfrwt beam="2">  1       -2 0.99942443E+00 0.15016440E+02</pdfrwt>
<totfact>-0.24325276E-14</totfact>
</mgrwt>
</event>
<event>
 4    1 -0.4882314E-019  0.1497852E+02  0.7818608E-02  0.1868725E+00
         -2   -1    0    0    0  501 -0.00000000000E+00  0.00000000000E+00  0.11991218700E+03  0.11991218703E+03  0.25500000000E-02 0. -1.
          2   -1    0    0  501    0  0.00000000000E+00 -0.00000000000E+00 -0.46774745054E+00  0.46775440135E+00  0.25500000000E-02 0.  1.
         31    1    1    2    0    0 -0.20075414229E+00  0.73524468975E+00  0.61505360428E+02  0.61959254146E+02  0.74470750000E+01 0.  1.
        -31    1    1    2    0    0  0.20075414229E+00 -0.73524468975E+00  0.57939079124E+02  0.58420687285E+02  0.74470750000E+01 0.  1.
<mgrwt>
<rscale>  0 0.14978523E+02</rscale>
<asrwt>0</asrwt>
<pdfrwt beam="2">  1        2 0.99346148E+00 0.14978523E+02</pdfrwt>
<pdfrwt beam="1">  1       -2 0.99538558E+00 0.14978523E+02</pdfrwt>
<totfact>-0.13422241E-13</totfact>
</mgrwt>
</event>
<event>
 4    1 -0.4882314E-019  0.1502531E+02  0.7818608E-02  0.1867297E+00
          2   -1    0    0  501    0  0.00000000000E+00  0.00000000000E+00  0.12016285999E+03  0.12016286002E+03  0.25500000000E-02 0. -1.
         -2   -1    0    0    0  501 -0.00000000000E+00 -0.00000000000E+00 -0.46969224229E+00  0.46969916433E+00  0.25500000000E-02 0.  1.
         31    1    1    2    0    0  0.57106763499E+00  0.79568509261E+00  0.61032627335E+02  0.61493087078E+02  0.74470750000E+01 0. -1.
        -31    1    1    2    0    0 -0.57106763499E+00 -0.79568509261E+00  0.58660540416E+02  0.59139472105E+02  0.74470750000E+01 0. -1.
<mgrwt>
<rscale>  0 0.15025310E+02</rscale>
<asrwt>0</asrwt>
<pdfrwt beam="1">  1        2 0.99747440E+00 0.15025310E+02</pdfrwt>
<pdfrwt beam="2">  1       -2 0.99758402E+00 0.15025310E+02</pdfrwt>
<totfact>-0.53749905E-14</totfact>
</mgrwt>
</event>
<event>
 4    1 -0.4882314E-019  0.1493757E+02  0.7818608E-02  0.1869980E+00
         -2   -1    0    0    0  501 -0.00000000000E+00  0.00000000000E+00  0.11944886306E+03  0.11944886309E+03  0.25500000000E-02 0. -1.
          2   -1    0    0  501    0  0.00000000000E+00 -0.00000000000E+00 -0.46699755914E+00  0.46700452111E+00  0.25500000000E-02 0.  1.
         31    1    1    2    0    0  0.35703084435E+00 -0.31152584957E+00  0.62020660431E+02  0.62467957912E+02  0.74470750000E+01 0. -1.
        -31    1    1    2    0    0 -0.35703084435E+00  0.31152584957E+00  0.56961205071E+02  0.57447909697E+02  0.74470750000E+01 0.  1.
<mgrwt>
<rscale>  0 0.14937570E+02</rscale>
<asrwt>0</asrwt>
<pdfrwt beam="2">  1        2 0.99186005E+00 0.14937570E+02</pdfrwt>
<pdfrwt beam="1">  1       -2 0.99154829E+00 0.14937570E+02</pdfrwt>
<totfact>-0.81596744E-14</totfact>
</mgrwt>
</event>
<event>
 4    1 -0.4882314E-019  0.1493936E+02  0.7818608E-02  0.1869925E+00
          2   -1    0    0  501    0  0.00000000000E+00  0.00000000000E+00  0.11946906359E+03  0.11946906362E+03  0.25500000000E-02 0. -1.
         -2   -1    0    0    0  501 -0.00000000000E+00 -0.00000000000E+00 -0.46703046086E+00  0.46703742234E+00  0.25500000000E-02 0.  1.
         31    1    1    2    0    0 -0.34582737494E+00 -0.38148500804E+00  0.57345965742E+02  0.57829783333E+02  0.74470750000E+01 0.  1.
        -31    1    1    2    0    0  0.34582737494E+00  0.38148500804E+00  0.61656067387E+02  0.62106317707E+02  0.74470750000E+01 0. -1.
<mgrwt>
<rscale>  0 0.14939359E+02</rscale>
<asrwt>0</asrwt>
<pdfrwt beam="1">  1        2 0.99171560E+00 0.14939359E+02</pdfrwt>
<pdfrwt beam="2">  1       -2 0.99193031E+00 0.14939359E+02</pdfrwt>
<totfact>-0.99295196E-14</totfact>
</mgrwt>
</event>
<event>
 4    1 -0.4882314E-019  0.1492344E+02  0.7818608E-02  0.1870414E+00
          2   -1    0    0  501    0  0.00000000000E+00  0.00000000000E+00  0.11858110076E+03  0.11858110079E+03  0.25500000000E-02 0. -1.
         -2   -1    0    0    0  501 -0.00000000000E+00 -0.00000000000E+00 -0.46952535063E+00  0.46953227512E+00  0.25500000000E-02 0.  1.
         31    1    1    2    0    0  0.18738854053E+00 -0.40792110926E+00  0.60089982765E+02  0.60551353981E+02  0.74470750000E+01 0.  1.
        -31    1    1    2    0    0 -0.18738854053E+00  0.40792110926E+00  0.58021592646E+02  0.58499279084E+02  0.74470750000E+01 0.  1.
<mgrwt>
<rscale>  0 0.14923438E+02</rscale>
<asrwt>0</asrwt>
<pdfrwt beam="1">  1        2 0.98439393E+00 0.14923438E+02</pdfrwt>
<pdfrwt beam="2">  1       -2 0.99717917E+00 0.14923438E+02</pdfrwt>
<totfact>-0.29472620E-13</totfact>
</mgrwt>
</event>
<event>
 4    1 -0.4882314E-019  0.1489913E+02  0.7818608E-02  0.1871162E+00
          2   -1    0    0  501    0  0.00000000000E+00  0.00000000000E+00  0.11867868297E+03  0.11867868300E+03  0.25500000000E-02 0.  1.
         -2   -1    0    0    0  501 -0.00000000000E+00 -0.00000000000E+00 -0.46761238246E+00  0.46761933529E+00  0.25500000000E-02 0. -1.
         31    1    1    2    0    0 -0.14710047367E+00 -0.28352281200E-01  0.60074082621E+02  0.60534095940E+02  0.74470750000E+01 0.  1.
        -31    1    1    2    0    0  0.14710047367E+00  0.28352281200E-01  0.58136987966E+02  0.58612206393E+02  0.74470750000E+01 0. -1.
<mgrwt>
<rscale>  0 0.14899133E+02</rscale>
<asrwt>0</asrwt>
<pdfrwt beam="1">  1        2 0.98518499E+00 0.14899133E+02</pdfrwt>
<pdfrwt beam="2">  1       -2 0.99313563E+00 0.14899133E+02</pdfrwt>
<totfact>-0.29941456E-13</totfact>
</mgrwt>
</event>
<event>
 4    1 -0.4882314E-019  0.1492481E+02  0.7818608E-02  0.1870372E+00
          2   -1    0    0  501    0  0.00000000000E+00  0.00000000000E+00  0.11869025397E+03  0.11869025400E+03  0.25500000000E-02 0.  1.
         -2   -1    0    0    0  501 -0.00000000000E+00 -0.00000000000E+00 -0.46917975715E+00  0.46918668674E+00  0.25500000000E-02 0. -1.
         31    1    1    2    0    0 -0.74497414997E-01 -0.42931662084E+00  0.60680975878E+02  0.61137792095E+02  0.74470750000E+01 0. -1.
        -31    1    1    2    0    0  0.74497414997E-01  0.42931662084E+00  0.57540098339E+02  0.58021648594E+02  0.74470750000E+01 0. -1.
<mgrwt>
<rscale>  0 0.14924809E+02</rscale>
<asrwt>0</asrwt>
<pdfrwt beam="1">  1        2 0.98529363E+00 0.14924809E+02</pdfrwt>
<pdfrwt beam="2">  1       -2 0.99645172E+00 0.14924809E+02</pdfrwt>
<totfact>-0.29314078E-13</totfact>
</mgrwt>
</event>
<event>
 4    1 -0.4882314E-019  0.1490376E+02  0.7818608E-02  0.1871019E+00
          2   -1    0    0  501    0  0.00000000000E+00  0.00000000000E+00  0.11819890522E+03  0.11819890525E+03  0.25500000000E-02 0. -1.
         -2   -1    0    0    0  501 -0.00000000000E+00 -0.00000000000E+00 -0.46980239072E+00  0.46980931113E+00  0.25500000000E-02 0.  1.
         31    1    1    2    0    0 -0.22173634533E+00  0.30370200824E-02  0.57671842457E+02  0.58151092120E+02  0.74470750000E+01 0.  1.
        -31    1    1    2    0    0  0.22173634533E+00 -0.30370200824E-02  0.60057260376E+02  0.60517622443E+02  0.74470750000E+01 0. -1.
<mgrwt>
<rscale>  0 0.14903763E+02</rscale>
<asrwt>0</asrwt>
<pdfrwt beam="1">  1        2 0.98123596E+00 0.14903763E+02</pdfrwt>
<pdfrwt beam="2">  1       -2 0.99775249E+00 0.14903763E+02</pdfrwt>
<totfact>-0.42482453E-13</totfact>
</mgrwt>
</event>
<event>
 4    1  0.4882314E-019  0.1494991E+02  0.7818608E-02  0.1869601E+00
          2   -1    0    0  501    0  0.00000000000E+00  0.00000000000E+00  0.12038605598E+03  0.12038605601E+03  0.25500000000E-02 0.  1.
         -2   -1    0    0    0  501 -0.00000000000E+00 -0.00000000000E+00 -0.46412818778E+00  0.46413519279E+00  0.25500000000E-02 0. -1.
         31    1    1    2    0    0 -0.24631668184E+00 -0.29110690161E+00  0.55755545537E+02  0.56251979515E+02  0.74470750000E+01 0. -1.
        -31    1    1    2    0    0  0.24631668184E+00  0.29110690161E+00  0.64166382254E+02  0.64598211684E+02  0.74470750000E+01 0.  1.
<mgrwt>
<rscale>  0 0.14949915E+02</rscale>
<asrwt>0</asrwt>
<pdfrwt beam="1">  1        2 0.99927394E+00 0.14949915E+02</pdfrwt>
<pdfrwt beam="2">  1       -2 0.98581915E+00 0.14949915E+02</pdfrwt>
<totfact> 0.86917269E-14</totfact>
</mgrwt>
</event>
<event>
 4    1 -0.4882314E-019  0.1503879E+02  0.7818608E-02  0.1866887E+00
          2   -1    0    0  501    0  0.00000000000E+00  0.00000000000E+00  0.12035812397E+03  0.12035812400E+03  0.25500000000E-02 0. -1.
         -2   -1    0    0    0  501 -0.00000000000E+00 -0.00000000000E+00 -0.46977185934E+00  0.46977878020E+00  0.25500000000E-02 0.  1.
         31    1    1    2    0    0 -0.49921814250E+00 -0.80767764278E+00  0.56527975414E+02  0.57024314922E+02  0.74470750000E+01 0.  1.
        -31    1    1    2    0    0  0.49921814250E+00  0.80767764278E+00  0.63360376700E+02  0.63803587858E+02  0.74470750000E+01 0. -1.
<mgrwt>
<rscale>  0 0.15038787E+02</rscale>
<asrwt>0</asrwt>
<pdfrwt beam="1">  1        2 0.99908964E+00 0.15038787E+02</pdfrwt>
<pdfrwt beam="2">  1       -2 0.99775876E+00 0.15038787E+02</pdfrwt>
<totfact>-0.21876748E-14</totfact>
</mgrwt>
</event>
<event>
 4    1 -0.4882314E-019  0.1501194E+02  0.7818608E-02  0.1867704E+00
         -2   -1    0    0    0  501 -0.00000000000E+00  0.00000000000E+00  0.12013158080E+03  0.12013158082E+03  0.25500000000E-02 0.  1.
          2   -1    0    0  501    0  0.00000000000E+00 -0.00000000000E+00 -0.46897870382E+00  0.46898563639E+00  0.25500000000E-02 0. -1.
         31    1    1    2    0    0  0.68492973394E+00  0.65569133891E-01  0.64957865074E+02  0.65386975684E+02  0.74470750000E+01 0.  1.
        -31    1    1    2    0    0 -0.68492973394E+00 -0.65569133891E-01  0.54704737017E+02  0.55213590775E+02  0.74470750000E+01 0. -1.
<mgrwt>
<rscale>  0 0.15011938E+02</rscale>
<asrwt>0</asrwt>
<pdfrwt beam="2">  1        2 0.99607344E+00 0.15011938E+02</pdfrwt>
<pdfrwt beam="1">  1       -2 0.99720986E+00 0.15011938E+02</pdfrwt>
<totfact>-0.79696947E-14</totfact>
</mgrwt>
</event>
<event>
 4    1  0.4882314E-019  0.1493054E+02  0.7818608E-02  0.1870196E+00
         -2   -1    0    0    0  501 -0.00000000000E+00  0.00000000000E+00  0.11893508147E+03  0.11893508149E+03  0.25500000000E-02 0.  1.
          2   -1    0    0  501    0  0.00000000000E+00 -0.00000000000E+00 -0.46857330639E+00  0.46858024496E+00  0.25500000000E-02 0. -1.
         31    1    1    2    0    0 -0.35618705886E+00  0.18954269222E+00  0.61867487241E+02  0.62315388944E+02  0.74470750000E+01 0. -1.
        -31    1    1    2    0    0  0.35618705886E+00 -0.18954269222E+00  0.56599020920E+02  0.57088272796E+02  0.74470750000E+01 0.  1.
<mgrwt>
<rscale>  0 0.14930535E+02</rscale>
<asrwt>0</asrwt>
<pdfrwt beam="2">  1        2 0.99517686E+00 0.14930535E+02</pdfrwt>
<pdfrwt beam="1">  1       -2 0.98731302E+00 0.14930535E+02</pdfrwt>
<totfact> 0.21047692E-13</totfact>
</mgrwt>
</event>
<event>
 4    1 -0.4882314E-019  0.1496468E+02  0.7818608E-02  0.1869148E+00
         -2   -1    0    0    0  501 -0.00000000000E+00  0.00000000000E+00  0.12009326731E+03  0.12009326734E+03  0.25500000000E-02 0.  1.
          2   -1    0    0  501    0  0.00000000000E+00 -0.00000000000E+00 -0.46617906789E+00  0.46618604209E+00  0.25500000000E-02 0. -1.
         31    1    1    2    0    0 -0.30206274556E+00 -0.67640634695E-01  0.54526727455E+02  0.55033796436E+02  0.74470750000E+01 0. -1.
        -31    1    1    2    0    0  0.30206274556E+00  0.67640634695E-01  0.65100360787E+02  0.65525656943E+02  0.74470750000E+01 0.  1.
<mgrwt>
<rscale>  0 0.14964677E+02</rscale>
<asrwt>0</asrwt>
<pdfrwt beam="2">  1        2 0.99014909E+00 0.14964677E+02</pdfrwt>
<pdfrwt beam="1">  1       -2 0.99686991E+00 0.14964677E+02</pdfrwt>
<totfact>-0.14491580E-13</totfact>
</mgrwt>
</event>
<event>
 4    1 -0.4882314E-019  0.1490139E+02  0.7818608E-02  0.1871093E+00
         -2   -1    0    0    0  501 -0.00000000000E+00  0.00000000000E+00  0.11973389687E+03  0.11973389689E+03  0.25500000000E-02 0.  1.
          2   -1    0    0  501    0  0.00000000000E+00 -0.00000000000E+00 -0.46363159826E+00  0.46363861078E+00  0.25500000000E-02 0. -1.
         31    1    1    2    0    0 -0.40297917447E-01 -0.78559355349E-01  0.57902880462E+02  0.58379879131E+02  0.74470750000E+01 0. -1.
        -31    1    1    2    0    0  0.40297917447E-01  0.78559355349E-01  0.61367384805E+02  0.61817656373E+02  0.74470750000E+01 0.  1.
<mgrwt>
<rscale>  0 0.14901388E+02</rscale>
<asrwt>0</asrwt>
<pdfrwt beam="2">  1        2 0.98474787E+00 0.14901388E+02</pdfrwt>
<pdfrwt beam="1">  1       -2 0.99387732E+00 0.14901388E+02</pdfrwt>
<totfact>-0.35090670E-13</totfact>
</mgrwt>
</event>
<event>
 4    1  0.4882314E-019  0.1490577E+02  0.7818608E-02  0.1870958E+00
         -2   -1    0    0    0  501 -0.00000000000E+00  0.00000000000E+00  0.11868855415E+03  0.11868855418E+03  0.25500000000E-02 0. -1.
          2   -1    0    0  501    0  0.00000000000E+00 -0.00000000000E+00 -0.46799001123E+00  0.46799695844E+00  0.25500000000E-02 0.  1.
         31    1    1    2    0    0 -0.25807230437E+00 -0.13413634479E+00  0.59463594290E+02  0.59928812485E+02  0.74470750000E+01 0. -1.
        -31    1    1    2    0    0  0.25807230437E+00  0.13413634479E+00  0.58756969849E+02  0.59227738652E+02  0.74470750000E+01 0. -1.
<mgrwt>
<rscale>  0 0.14905767E+02</rscale>
<asrwt>0</asrwt>
<pdfrwt beam="2">  1        2 0.99393482E+00 0.14905767E+02</pdfrwt>
<pdfrwt beam="1">  1       -2 0.98526973E+00 0.14905767E+02</pdfrwt>
<totfact> 0.49364709E-13</totfact>
</mgrwt>
</event>
<event>
 4    1  0.4882314E-019  0.1491891E+02  0.7818608E-02  0.1870553E+00
         -2   -1    0    0    0  501 -0.00000000000E+00  0.00000000000E+00  0.11894292838E+03  0.11894292841E+03  0.25500000000E-02 0. -1.
          2   -1    0    0  501    0  0.00000000000E+00 -0.00000000000E+00 -0.46781332755E+00  0.46782027739E+00  0.25500000000E-02 0.  1.
         31    1    1    2    0    0  0.36606432107E+00 -0.11322247668E+00  0.57682327317E+02  0.58162330018E+02  0.74470750000E+01 0.  1.
        -31    1    1    2    0    0 -0.36606432107E+00  0.11322247668E+00  0.60792787739E+02  0.61248418670E+02  0.74470750000E+01 0. -1.
<mgrwt>
<rscale>  0 0.14918915E+02</rscale>
<asrwt>0</asrwt>
<pdfrwt beam="2">  1        2 0.99356939E+00 0.14918915E+02</pdfrwt>
<pdfrwt beam="1">  1       -2 0.98737162E+00 0.14918915E+02</pdfrwt>
<totfact> 0.23640805E-13</totfact>
</mgrwt>
</event>
<event>
 4    1  0.4882314E-019  0.1492516E+02  0.7818608E-02  0.1870361E+00
         -2   -1    0    0    0  501 -0.00000000000E+00  0.00000000000E+00  0.11860206278E+03  0.11860206281E+03  0.25500000000E-02 0. -1.
          2   -1    0    0  501    0  0.00000000000E+00 -0.00000000000E+00 -0.46955099478E+00  0.46955791889E+00  0.25500000000E-02 0.  1.
         31    1    1    2    0    0 -0.32671321590E+00  0.33853276517E+00  0.58274132829E+02  0.58749934715E+02  0.74470750000E+01 0.  1.
        -31    1    1    2    0    0  0.32671321590E+00 -0.33853276517E+00  0.59858378959E+02  0.60321686014E+02  0.74470750000E+01 0.  1.
<mgrwt>
<rscale>  0 0.14925164E+02</rscale>
<asrwt>0</asrwt>
<pdfrwt beam="2">  1        2 0.99723412E+00 0.14925164E+02</pdfrwt>
<pdfrwt beam="1">  1       -2 0.98456747E+00 0.14925164E+02</pdfrwt>
<totfact> 0.38109020E-13</totfact>
</mgrwt>
</event>
<event>
 4    1 -0.4882314E-019  0.1497468E+02  0.7818608E-02  0.1868842E+00
         -2   -1    0    0    0  501 -0.00000000000E+00  0.00000000000E+00  0.11990457544E+03  0.11990457546E+03  0.25500000000E-02 0.  1.
          2   -1    0    0  501    0  0.00000000000E+00 -0.00000000000E+00 -0.46753710223E+00  0.46754405618E+00  0.25500000000E-02 0. -1.
         31    1    1    2    0    0  0.84527179195E-01  0.51605764843E+00  0.55115739273E+02  0.55619035429E+02  0.74470750000E+01 0. -1.
        -31    1    1    2    0    0 -0.84527179195E-01 -0.51605764843E+00  0.64321299062E+02  0.64753084092E+02  0.74470750000E+01 0.  1.
<mgrwt>
<rscale>  0 0.14974680E+02</rscale>
<asrwt>0</asrwt>
<pdfrwt beam="2">  1        2 0.99301622E+00 0.14974680E+02</pdfrwt>
<pdfrwt beam="1">  1       -2 0.99532090E+00 0.14974680E+02</pdfrwt>
<totfact>-0.13912438E-13</totfact>
</mgrwt>
</event>
<event>
 4    1 -0.4882314E-019  0.1490466E+02  0.7818608E-02  0.1870992E+00
         -2   -1    0    0    0  501 -0.00000000000E+00  0.00000000000E+00  0.11969052206E+03  0.11969052209E+03  0.25500000000E-02 0. -1.
          2   -1    0    0  501    0  0.00000000000E+00 -0.00000000000E+00 -0.46400302440E+00  0.46401003130E+00  0.25500000000E-02 0.  1.
         31    1    1    2    0    0 -0.17884146680E+00  0.12751763400E+00  0.61009926218E+02  0.61463145610E+02  0.74470750000E+01 0. -1.
        -31    1    1    2    0    0  0.17884146680E+00 -0.12751763400E+00  0.58216592821E+02  0.58691386512E+02  0.74470750000E+01 0.  1.
<mgrwt>
<rscale>  0 0.14904655E+02</rscale>
<asrwt>0</asrwt>
<pdfrwt beam="2">  1        2 0.98553233E+00 0.14904655E+02</pdfrwt>
<pdfrwt beam="1">  1       -2 0.99352174E+00 0.14904655E+02</pdfrwt>
<totfact>-0.29884411E-13</totfact>
</mgrwt>
</event>
<event>
 4    1 -0.4882314E-019  0.1494547E+02  0.7818608E-02  0.1869737E+00
          2   -1    0    0  501    0  0.00000000000E+00  0.00000000000E+00  0.11960300681E+03  0.11960300683E+03  0.25500000000E-02 0. -1.
         -2   -1    0    0    0  501 -0.00000000000E+00 -0.00000000000E+00 -0.46688937970E+00  0.46689634329E+00  0.25500000000E-02 0.  1.
         31    1    1    2    0    0  0.27781585658E+00 -0.53364863783E+00  0.60729633668E+02  0.61187492954E+02  0.74470750000E+01 0. -1.
        -31    1    1    2    0    0 -0.27781585658E+00  0.53364863783E+00  0.58406483760E+02  0.58882410224E+02  0.74470750000E+01 0.  1.
<mgrwt>
<rscale>  0 0.14945473E+02</rscale>
<asrwt>0</asrwt>
<pdfrwt beam="1">  1        2 0.99282197E+00 0.14945473E+02</pdfrwt>
<pdfrwt beam="2">  1       -2 0.99163616E+00 0.14945473E+02</pdfrwt>
<totfact>-0.79876188E-14</totfact>
</mgrwt>
</event>
<event>
 4    1 -0.4882314E-019  0.1490732E+02  0.7818608E-02  0.1870910E+00
         -2   -1    0    0    0  501 -0.00000000000E+00  0.00000000000E+00  0.11997696814E+03  0.11997696816E+03  0.25500000000E-02 0.  1.
          2   -1    0    0  501    0  0.00000000000E+00 -0.00000000000E+00 -0.46306087769E+00  0.46306789886E+00  0.25500000000E-02 0. -1.
         31    1    1    2    0    0 -0.23945410954E+00 -0.11963089184E+00  0.61071881331E+02  0.61524834540E+02  0.74470750000E+01 0.  1.
        -31    1    1    2    0    0  0.23945410954E+00  0.11963089184E+00  0.58442025928E+02  0.58915201523E+02  0.74470750000E+01 0. -1.
<mgrwt>
<rscale>  0 0.14907322E+02</rscale>
<asrwt>0</asrwt>
<pdfrwt beam="2">  1        2 0.98354803E+00 0.14907322E+02</pdfrwt>
<pdfrwt beam="1">  1       -2 0.99588249E+00 0.14907322E+02</pdfrwt>
<totfact>-0.41930016E-13</totfact>
</mgrwt>
</event>
<event>
 4    1  0.4882314E-019  0.1490284E+02  0.7818608E-02  0.1871048E+00
          2   -1    0    0  501    0  0.00000000000E+00  0.00000000000E+00  0.11954488489E+03  0.11954488491E+03  0.25500000000E-02 0.  1.
         -2   -1    0    0    0  501 -0.00000000000E+00 -0.00000000000E+00 -0.46445524827E+00  0.46446224835E+00  0.25500000000E-02 0. -1.
         31    1    1    2    0    0  0.15745721428E-01  0.10483611246E+00  0.57677491678E+02  0.58156368619E+02  0.74470750000E+01 0. -1.
        -31    1    1    2    0    0 -0.15745721428E-01 -0.10483611246E+00  0.61402937960E+02  0.61852978544E+02  0.74470750000E+01 0.  1.
<mgrwt>
<rscale>  0 0.14902841E+02</rscale>
<asrwt>0</asrwt>
<pdfrwt beam="1">  1        2 0.99232125E+00 0.14902841E+02</pdfrwt>
<pdfrwt beam="2">  1       -2 0.98648448E+00 0.14902841E+02</pdfrwt>
<totfact> 0.37292605E-13</totfact>
</mgrwt>
</event>
<event>
 4    1 -0.4882314E-019  0.1494791E+02  0.7818608E-02  0.1869662E+00
          2   -1    0    0  501    0  0.00000000000E+00  0.00000000000E+00  0.11942620282E+03  0.11942620284E+03  0.25500000000E-02 0.  1.
         -2   -1    0    0    0  501 -0.00000000000E+00 -0.00000000000E+00 -0.46773319065E+00  0.46774014168E+00  0.25500000000E-02 0. -1.
         31    1    1    2    0    0 -0.58707365859E+00  0.21951242701E+00  0.60207757385E+02  0.60669809762E+02  0.74470750000E+01 0.  1.
        -31    1    1    2    0    0  0.58707365859E+00 -0.21951242701E+00  0.58750712241E+02  0.59224133224E+02  0.74470750000E+01 0. -1.
<mgrwt>
<rscale>  0 0.14947912E+02</rscale>
<asrwt>0</asrwt>
<pdfrwt beam="1">  1        2 0.99136701E+00 0.14947912E+02</pdfrwt>
<pdfrwt beam="2">  1       -2 0.99341561E+00 0.14947912E+02</pdfrwt>
<totfact>-0.14685996E-13</totfact>
</mgrwt>
</event>
<event>
 4    1  0.4882314E-019  0.1492652E+02  0.7818608E-02  0.1870319E+00
         -2   -1    0    0    0  501 -0.00000000000E+00  0.00000000000E+00  0.11850732565E+03  0.11850732568E+03  0.25500000000E-02 0. -1.
          2   -1    0    0  501    0  0.00000000000E+00 -0.00000000000E+00 -0.47001171484E+00  0.47001863217E+00  0.25500000000E-02 0.  1.
         31    1    1    2    0    0  0.48838299417E+00  0.14032789038E-01  0.59425371424E+02  0.59892173193E+02  0.74470750000E+01 0.  1.
        -31    1    1    2    0    0 -0.48838299417E+00 -0.14032789038E-01  0.58611942511E+02  0.59085171117E+02  0.74470750000E+01 0.  1.
<mgrwt>
<rscale>  0 0.14926519E+02</rscale>
<asrwt>0</asrwt>
<pdfrwt beam="2">  1        2 0.99820557E+00 0.14926519E+02</pdfrwt>
<pdfrwt beam="1">  1       -2 0.98378793E+00 0.14926519E+02</pdfrwt>
<totfact> 0.33500920E-13</totfact>
</mgrwt>
</event>
<event>
 4    1 -0.4882314E-019  0.1494637E+02  0.7818608E-02  0.1869709E+00
         -2   -1    0    0    0  501 -0.00000000000E+00  0.00000000000E+00  0.11989796626E+03  0.11989796628E+03  0.25500000000E-02 0.  1.
          2   -1    0    0  501    0  0.00000000000E+00 -0.00000000000E+00 -0.46579668390E+00  0.46580366382E+00  0.25500000000E-02 0. -1.
         31    1    1    2    0    0 -0.45237072911E-01  0.12789438685E+00  0.54809888350E+02  0.55313661878E+02  0.74470750000E+01 0. -1.
        -31    1    1    2    0    0  0.45237072911E-01 -0.12789438685E+00  0.64622281223E+02  0.65050108070E+02  0.74470750000E+01 0.  1.
<mgrwt>
<rscale>  0 0.14946370E+02</rscale>
<asrwt>0</asrwt>
<pdfrwt beam="2">  1        2 0.98933384E+00 0.14946370E+02</pdfrwt>
<pdfrwt beam="1">  1       -2 0.99525186E+00 0.14946370E+02</pdfrwt>
<totfact>-0.18942076E-13</totfact>
</mgrwt>
</event>
<event>
 4    1 -0.4882314E-019  0.1501393E+02  0.7818608E-02  0.1867644E+00
         -2   -1    0    0    0  501 -0.00000000000E+00  0.00000000000E+00  0.11970015644E+03  0.11970015647E+03  0.25500000000E-02 0.  1.
          2   -1    0    0  501    0  0.00000000000E+00 -0.00000000000E+00 -0.47079383431E+00  0.47080074014E+00  0.25500000000E-02 0. -1.
         31    1    1    2    0    0 -0.32085206292E+00  0.36654361459E+00  0.66108683682E+02  0.66528597494E+02  0.74470750000E+01 0.  1.
        -31    1    1    2    0    0  0.32085206292E+00 -0.36654361459E+00  0.53120678926E+02  0.53642359716E+02  0.74470750000E+01 0. -1.
<mgrwt>
<rscale>  0 0.15013928E+02</rscale>
<asrwt>0</asrwt>
<pdfrwt beam="2">  1        2 0.99989945E+00 0.15013928E+02</pdfrwt>
<pdfrwt beam="1">  1       -2 0.99365755E+00 0.15013928E+02</pdfrwt>
<totfact>-0.38624547E-15</totfact>
</mgrwt>
</event>
<event>
 4    1 -0.4882314E-019  0.1491886E+02  0.7818608E-02  0.1870555E+00
          2   -1    0    0  501    0  0.00000000000E+00  0.00000000000E+00  0.11837856180E+03  0.11837856183E+03  0.25500000000E-02 0.  1.
         -2   -1    0    0    0  501 -0.00000000000E+00 -0.00000000000E+00 -0.47004025034E+00  0.47004716725E+00  0.25500000000E-02 0. -1.
         31    1    1    2    0    0  0.13458153316E-01  0.41727448058E+00  0.59745952346E+02  0.60209733821E+02  0.74470750000E+01 0.  1.
        -31    1    1    2    0    0 -0.13458153316E-01 -0.41727448058E+00  0.58162569207E+02  0.58638875176E+02  0.74470750000E+01 0.  1.
<mgrwt>
<rscale>  0 0.14918861E+02</rscale>
<asrwt>0</asrwt>
<pdfrwt beam="1">  1        2 0.98272345E+00 0.14918861E+02</pdfrwt>
<pdfrwt beam="2">  1       -2 0.99826164E+00 0.14918861E+02</pdfrwt>
<totfact>-0.26871998E-13</totfact>
</mgrwt>
</event>
<event>
 4    1 -0.4882314E-019  0.1498766E+02  0.7818608E-02  0.1868445E+00
          2   -1    0    0  501    0  0.00000000000E+00  0.00000000000E+00  0.11934069112E+03  0.11934069115E+03  0.25500000000E-02 0.  1.
         -2   -1    0    0    0  501 -0.00000000000E+00 -0.00000000000E+00 -0.47056108649E+00  0.47056799575E+00  0.25500000000E-02 0. -1.
         31    1    1    2    0    0 -0.15500737293E+00  0.14729346189E+00  0.52975977698E+02  0.53497279012E+02  0.74470750000E+01 0. -1.
        -31    1    1    2    0    0  0.15500737293E+00 -0.14729346189E+00  0.65894152338E+02  0.66313980133E+02  0.74470750000E+01 0.  1.
<mgrwt>
<rscale>  0 0.14987662E+02</rscale>
<asrwt>0</asrwt>
<pdfrwt beam="1">  1        2 0.99068332E+00 0.14987662E+02</pdfrwt>
<pdfrwt beam="2">  1       -2 0.99939529E+00 0.14987662E+02</pdfrwt>
<totfact>-0.34074464E-14</totfact>
</mgrwt>
</event>
<event>
 4    1  0.4882314E-019  0.1491589E+02  0.7818608E-02  0.1870646E+00
          2   -1    0    0  501    0  0.00000000000E+00  0.00000000000E+00  0.11999401885E+03  0.11999401888E+03  0.25500000000E-02 0. -1.
         -2   -1    0    0    0  501 -0.00000000000E+00 -0.00000000000E+00 -0.46352758598E+00  0.46353460007E+00  0.25500000000E-02 0.  1.
         31    1    1    2    0    0 -0.23487358958E+00  0.30785087257E+00  0.60653514319E+02  0.61110209156E+02  0.74470750000E+01 0. -1.
        -31    1    1    2    0    0  0.23487358958E+00 -0.30785087257E+00  0.58876976948E+02  0.59347344324E+02  0.74470750000E+01 0.  1.
<mgrwt>
<rscale>  0 0.14915892E+02</rscale>
<asrwt>0</asrwt>
<pdfrwt beam="1">  1        2 0.99602733E+00 0.14915892E+02</pdfrwt>
<pdfrwt beam="2">  1       -2 0.98453603E+00 0.14915892E+02</pdfrwt>
<totfact> 0.48502830E-13</totfact>
</mgrwt>
</event>
<event>
 4    1 -0.4882314E-019  0.1493898E+02  0.7818608E-02  0.1869936E+00
          2   -1    0    0  501    0  0.00000000000E+00  0.00000000000E+00  0.11867105651E+03  0.11867105653E+03  0.25500000000E-02 0.  1.
         -2   -1    0    0    0  501 -0.00000000000E+00 -0.00000000000E+00 -0.47014693901E+00  0.47015385435E+00  0.25500000000E-02 0. -1.
         31    1    1    2    0    0 -0.82797714547E-03 -0.31040758167E+00  0.55209999591E+02  0.55710854728E+02  0.74470750000E+01 0. -1.
        -31    1    1    2    0    0  0.82797714547E-03  0.31040758167E+00  0.62990909976E+02  0.63430355660E+02  0.74470750000E+01 0.  1.
<mgrwt>
<rscale>  0 0.14938976E+02</rscale>
<asrwt>0</asrwt>
<pdfrwt beam="1">  1        2 0.98514289E+00 0.14938976E+02</pdfrwt>
<pdfrwt beam="2">  1       -2 0.99849706E+00 0.14938976E+02</pdfrwt>
<totfact>-0.15870492E-13</totfact>
</mgrwt>
</event>
<event>
 4    1 -0.4882314E-019  0.1493946E+02  0.7818608E-02  0.1869921E+00
          2   -1    0    0  501    0  0.00000000000E+00  0.00000000000E+00  0.11903170805E+03  0.11903170808E+03  0.25500000000E-02 0. -1.
         -2   -1    0    0    0  501 -0.00000000000E+00 -0.00000000000E+00 -0.46875294804E+00  0.46875988394E+00  0.25500000000E-02 0.  1.
         31    1    1    2    0    0 -0.10229364222E+00  0.46904805872E+00  0.56659031671E+02  0.57148361884E+02  0.74470750000E+01 0.  1.
        -31    1    1    2    0    0  0.10229364222E+00 -0.46904805872E+00  0.61903923432E+02  0.62352106078E+02  0.74470750000E+01 0. -1.
<mgrwt>
<rscale>  0 0.14939462E+02</rscale>
<asrwt>0</asrwt>
<pdfrwt beam="1">  1        2 0.98811348E+00 0.14939462E+02</pdfrwt>
<pdfrwt beam="2">  1       -2 0.99556006E+00 0.14939462E+02</pdfrwt>
<totfact>-0.21456506E-13</totfact>
</mgrwt>
</event>
<event>
 4    1 -0.4882314E-019  0.1491071E+02  0.7818608E-02  0.1870805E+00
          2   -1    0    0  501    0  0.00000000000E+00  0.00000000000E+00  0.11871219784E+03  0.11871219787E+03  0.25500000000E-02 0. -1.
         -2   -1    0    0    0  501 -0.00000000000E+00 -0.00000000000E+00 -0.46820746907E+00  0.46821441306E+00  0.25500000000E-02 0.  1.
         31    1    1    2    0    0 -0.12992729662E+00  0.28202857007E+00  0.57808479206E+02  0.58287010692E+02  0.74470750000E+01 0. -1.
        -31    1    1    2    0    0  0.12992729662E+00 -0.28202857007E+00  0.60435511164E+02  0.60893401587E+02  0.74470750000E+01 0.  1.
<mgrwt>
<rscale>  0 0.14910715E+02</rscale>
<asrwt>0</asrwt>
<pdfrwt beam="1">  1        2 0.98546704E+00 0.14910715E+02</pdfrwt>
<pdfrwt beam="2">  1       -2 0.99439562E+00 0.14910715E+02</pdfrwt>
<totfact>-0.32128729E-13</totfact>
</mgrwt>
</event>
<event>
 4    1 -0.4882314E-019  0.1493991E+02  0.7818608E-02  0.1869908E+00
          2   -1    0    0  501    0  0.00000000000E+00  0.00000000000E+00  0.11893315153E+03  0.11893315156E+03  0.25500000000E-02 0.  1.
         -2   -1    0    0    0  501 -0.00000000000E+00 -0.00000000000E+00 -0.46916945291E+00  0.46917638266E+00  0.25500000000E-02 0. -1.
         31    1    1    2    0    0  0.54579065867E+00 -0.20821454545E+00  0.59288609750E+02  0.59757337733E+02  0.74470750000E+01 0.  1.
        -31    1    1    2    0    0 -0.54579065867E+00  0.20821454545E+00  0.59175372328E+02  0.59644990208E+02  0.74470750000E+01 0. -1.
<mgrwt>
<rscale>  0 0.14939909E+02</rscale>
<asrwt>0</asrwt>
<pdfrwt beam="1">  1        2 0.98730199E+00 0.14939909E+02</pdfrwt>
<pdfrwt beam="2">  1       -2 0.99643793E+00 0.14939909E+02</pdfrwt>
<totfact>-0.21729095E-13</totfact>
</mgrwt>
</event>
<event>
 4    1  0.4882314E-019  0.1492285E+02  0.7818608E-02  0.1870432E+00
          2   -1    0    0  501    0  0.00000000000E+00  0.00000000000E+00  0.12036709450E+03  0.12036709453E+03  0.25500000000E-02 0.  1.
         -2   -1    0    0    0  501 -0.00000000000E+00 -0.00000000000E+00 -0.46252226017E+00  0.46252928951E+00  0.25500000000E-02 0. -1.
         31    1    1    2    0    0  0.67585250879E-01  0.30083981527E+00  0.57160440073E+02  0.57644339772E+02  0.74470750000E+01 0. -1.
        -31    1    1    2    0    0 -0.67585250879E-01 -0.30083981527E+00  0.62744132172E+02  0.63185284049E+02  0.74470750000E+01 0.  1.
<mgrwt>
<rscale>  0 0.14922853E+02</rscale>
<asrwt>0</asrwt>
<pdfrwt beam="1">  1        2 0.99910387E+00 0.14922853E+02</pdfrwt>
<pdfrwt beam="2">  1       -2 0.98242064E+00 0.14922853E+02</pdfrwt>
<totfact> 0.25061730E-13</totfact>
</mgrwt>
</event>
<event>
 4    1  0.4882314E-019  0.1490284E+02  0.7818608E-02  0.1871048E+00
          2   -1    0    0  501    0  0.00000000000E+00  0.00000000000E+00  0.11914586246E+03  0.11914586249E+03  0.25500000000E-02 0.  1.
         -2   -1    0    0    0  501 -0.00000000000E+00 -0.00000000000E+00 -0.46601072374E+00  0.46601770046E+00  0.25500000000E-02 0. -1.
         31    1    1    2    0    0 -0.98906040484E-01  0.12488978593E-01  0.61218859936E+02  0.61670233308E+02  0.74470750000E+01 0.  1.
        -31    1    1    2    0    0  0.98906040484E-01 -0.12488978593E-01  0.57460991802E+02  0.57941646881E+02  0.74470750000E+01 0. -1.
<mgrwt>
<rscale>  0 0.14902841E+02</rscale>
<asrwt>0</asrwt>
<pdfrwt beam="1">  1        2 0.98903471E+00 0.14902841E+02</pdfrwt>
<pdfrwt beam="2">  1       -2 0.98976249E+00 0.14902841E+02</pdfrwt>
<totfact> 0.36818685E-14</totfact>
</mgrwt>
</event>
<event>
 4    1  0.4882314E-019  0.1490872E+02  0.7818608E-02  0.1870867E+00
         -2   -1    0    0    0  501 -0.00000000000E+00  0.00000000000E+00  0.11850380368E+03  0.11850380371E+03  0.25500000000E-02 0. -1.
          2   -1    0    0  501    0  0.00000000000E+00 -0.00000000000E+00 -0.46890517905E+00  0.46891211270E+00  0.25500000000E-02 0.  1.
         31    1    1    2    0    0  0.13383494110E+00 -0.13316781215E+00  0.56862978208E+02  0.57348869756E+02  0.74470750000E+01 0.  1.
        -31    1    1    2    0    0 -0.13383494110E+00  0.13316781215E+00  0.61171920295E+02  0.61623846067E+02  0.74470750000E+01 0. -1.
<mgrwt>
<rscale>  0 0.14908717E+02</rscale>
<asrwt>0</asrwt>
<pdfrwt beam="2">  1        2 0.99586470E+00 0.14908717E+02</pdfrwt>
<pdfrwt beam="1">  1       -2 0.98374966E+00 0.14908717E+02</pdfrwt>
<totfact> 0.60491206E-13</totfact>
</mgrwt>
</event>
<event>
 4    1 -0.4882314E-019  0.1492215E+02  0.7818608E-02  0.1870453E+00
         -2   -1    0    0    0  501 -0.00000000000E+00  0.00000000000E+00  0.12021507499E+03  0.12021507502E+03  0.25500000000E-02 0. -1.
          2   -1    0    0  501    0  0.00000000000E+00 -0.00000000000E+00 -0.46306380918E+00  0.46307083030E+00  0.25500000000E-02 0.  1.
         31    1    1    2    0    0  0.31114216190E+00  0.32401236219E+00  0.59201498305E+02  0.59669742090E+02  0.74470750000E+01 0.  1.
        -31    1    1    2    0    0 -0.31114216190E+00 -0.32401236219E+00  0.60550512874E+02  0.61008403755E+02  0.74470750000E+01 0. -1.
<mgrwt>
<rscale>  0 0.14922155E+02</rscale>
<asrwt>0</asrwt>
<pdfrwt beam="2">  1        2 0.98356172E+00 0.14922155E+02</pdfrwt>
<pdfrwt beam="1">  1       -2 0.99785134E+00 0.14922155E+02</pdfrwt>
<totfact>-0.27710061E-13</totfact>
</mgrwt>
</event>
<event>
 4    1 -0.4882314E-019  0.1500360E+02  0.7818608E-02  0.1867959E+00
         -2   -1    0    0    0  501 -0.00000000000E+00  0.00000000000E+00  0.12004461188E+03  0.12004461191E+03  0.25500000000E-02 0.  1.
          2   -1    0    0  501    0  0.00000000000E+00 -0.00000000000E+00 -0.46879704825E+00  0.46880398350E+00  0.25500000000E-02 0. -1.
         31    1    1    2    0    0  0.68083785791E+00  0.50415054399E+00  0.57243490014E+02  0.57732086252E+02  0.74470750000E+01 0. -1.
        -31    1    1    2    0    0 -0.68083785791E+00 -0.50415054399E+00  0.62332324820E+02  0.62781329641E+02  0.74470750000E+01 0.  1.
<mgrwt>
<rscale>  0 0.15003597E+02</rscale>
<asrwt>0</asrwt>
<pdfrwt beam="2">  1        2 0.99568632E+00 0.15003597E+02</pdfrwt>
<pdfrwt beam="1">  1       -2 0.99648924E+00 0.15003597E+02</pdfrwt>
<totfact>-0.97018828E-14</totfact>
</mgrwt>
</event>
<event>
 4    1  0.4882314E-019  0.1490704E+02  0.7818608E-02  0.1870919E+00
         -2   -1    0    0    0  501 -0.00000000000E+00  0.00000000000E+00  0.11845578360E+03  0.11845578363E+03  0.25500000000E-02 0.  1.
          2   -1    0    0  501    0  0.00000000000E+00 -0.00000000000E+00 -0.46898950774E+00  0.46899644014E+00  0.25500000000E-02 0. -1.
         31    1    1    2    0    0 -0.17781187358E+00 -0.23510520257E-01  0.56977727152E+02  0.57462618173E+02  0.74470750000E+01 0.  1.
        -31    1    1    2    0    0  0.17781187358E+00  0.23510520257E-01  0.61009066940E+02  0.61462161895E+02  0.74470750000E+01 0.  1.
<mgrwt>
<rscale>  0 0.14907036E+02</rscale>
<asrwt>0</asrwt>
<pdfrwt beam="2">  1        2 0.99604150E+00 0.14907036E+02</pdfrwt>
<pdfrwt beam="1">  1       -2 0.98335329E+00 0.14907036E+02</pdfrwt>
<totfact> 0.64702965E-13</totfact>
</mgrwt>
</event>
<event>
 4    1  0.4882314E-019  0.1490429E+02  0.7818608E-02  0.1871003E+00
         -2   -1    0    0    0  501 -0.00000000000E+00  0.00000000000E+00  0.11838361072E+03  0.11838361075E+03  0.25500000000E-02 0.  1.
          2   -1    0    0  501    0  0.00000000000E+00 -0.00000000000E+00 -0.46910225931E+00  0.46910919006E+00  0.25500000000E-02 0. -1.
         31    1    1    2    0    0 -0.23408029896E+00 -0.83718300517E-01  0.58023726294E+02  0.58500201209E+02  0.74470750000E+01 0. -1.
        -31    1    1    2    0    0  0.23408029896E+00  0.83718300517E-01  0.59890782165E+02  0.60352518727E+02  0.74470750000E+01 0.  1.
<mgrwt>
<rscale>  0 0.14904286E+02</rscale>
<asrwt>0</asrwt>
<pdfrwt beam="2">  1        2 0.99627762E+00 0.14904286E+02</pdfrwt>
<pdfrwt beam="1">  1       -2 0.98275745E+00 0.14904286E+02</pdfrwt>
<totfact> 0.71157491E-13</totfact>
</mgrwt>
</event>
<event>
 4    1  0.4882314E-019  0.1494685E+02  0.7818608E-02  0.1869695E+00
         -2   -1    0    0    0  501 -0.00000000000E+00  0.00000000000E+00  0.11891930045E+03  0.11891930048E+03  0.25500000000E-02 0.  1.
          2   -1    0    0  501    0  0.00000000000E+00 -0.00000000000E+00 -0.46966048669E+00  0.46966740920E+00  0.25500000000E-02 0. -1.
         31    1    1    2    0    0  0.53019046336E+00 -0.33402330980E+00  0.59044110292E+02  0.59515196041E+02  0.74470750000E+01 0.  1.
        -31    1    1    2    0    0 -0.53019046336E+00  0.33402330980E+00  0.59405529672E+02  0.59873771847E+02  0.74470750000E+01 0.  1.
<mgrwt>
<rscale>  0 0.14946854E+02</rscale>
<asrwt>0</asrwt>
<pdfrwt beam="2">  1        2 0.99747623E+00 0.14946854E+02</pdfrwt>
<pdfrwt beam="1">  1       -2 0.98719152E+00 0.14946854E+02</pdfrwt>
<totfact> 0.14813308E-13</totfact>
</mgrwt>
</event>
<event>
 4    1 -0.4882314E-019  0.1495057E+02  0.7818608E-02  0.1869581E+00
          2   -1    0    0  501    0  0.00000000000E+00  0.00000000000E+00  0.11918913651E+03  0.11918913653E+03  0.25500000000E-02 0.  1.
         -2   -1    0    0    0  501 -0.00000000000E+00 -0.00000000000E+00 -0.46883023069E+00  0.46883716546E+00  0.25500000000E-02 0. -1.
         31    1    1    2    0    0 -0.23212639403E+00 -0.30990417957E+00  0.55193391635E+02  0.55694877049E+02  0.74470750000E+01 0. -1.
        -31    1    1    2    0    0  0.23212639403E+00  0.30990417957E+00  0.63526914641E+02  0.63963096651E+02  0.74470750000E+01 0.  1.
<mgrwt>
<rscale>  0 0.14950570E+02</rscale>
<asrwt>0</asrwt>
<pdfrwt beam="1">  1        2 0.98941585E+00 0.14950570E+02</pdfrwt>
<pdfrwt beam="2">  1       -2 0.99572871E+00 0.14950570E+02</pdfrwt>
<totfact>-0.18229459E-13</totfact>
</mgrwt>
</event>
<event>
 4    1 -0.4882314E-019  0.1499768E+02  0.7818608E-02  0.1868139E+00
         -2   -1    0    0    0  501 -0.00000000000E+00  0.00000000000E+00  0.12006300536E+03  0.12006300539E+03  0.25500000000E-02 0.  1.
          2   -1    0    0  501    0  0.00000000000E+00 -0.00000000000E+00 -0.46835581725E+00  0.46836275904E+00  0.25500000000E-02 0. -1.
         31    1    1    2    0    0  0.52493817578E-01  0.68069390983E+00  0.64254604230E+02  0.64688323448E+02  0.74470750000E+01 0.  1.
        -31    1    1    2    0    0 -0.52493817578E-01 -0.68069390983E+00  0.55340045313E+02  0.55843044697E+02  0.74470750000E+01 0. -1.
<mgrwt>
<rscale>  0 0.14997683E+02</rscale>
<asrwt>0</asrwt>
<pdfrwt beam="2">  1        2 0.99475343E+00 0.14997683E+02</pdfrwt>
<pdfrwt beam="1">  1       -2 0.99663768E+00 0.14997683E+02</pdfrwt>
<totfact>-0.10505443E-13</totfact>
</mgrwt>
</event>
<event>
 4    1 -0.4882314E-019  0.1491171E+02  0.7818608E-02  0.1870775E+00
          2   -1    0    0  501    0  0.00000000000E+00  0.00000000000E+00  0.11845245956E+03  0.11845245959E+03  0.25500000000E-02 0.  1.
         -2   -1    0    0    0  501 -0.00000000000E+00 -0.00000000000E+00 -0.46929649637E+00  0.46930342424E+00  0.25500000000E-02 0. -1.
         31    1    1    2    0    0  0.93226770982E-01  0.33581941481E+00  0.58220600445E+02  0.58695985452E+02  0.74470750000E+01 0.  1.
        -31    1    1    2    0    0 -0.93226770982E-01 -0.33581941481E+00  0.59762562620E+02  0.60225777562E+02  0.74470750000E+01 0. -1.
<mgrwt>
<rscale>  0 0.14911705E+02</rscale>
<asrwt>0</asrwt>
<pdfrwt beam="1">  1        2 0.98332834E+00 0.14911705E+02</pdfrwt>
<pdfrwt beam="2">  1       -2 0.99669079E+00 0.14911705E+02</pdfrwt>
<totfact>-0.38993971E-13</totfact>
</mgrwt>
</event>
<event>
 4    1 -0.4882314E-019  0.1493062E+02  0.7818608E-02  0.1870193E+00
         -2   -1    0    0    0  501 -0.00000000000E+00  0.00000000000E+00  0.11986773952E+03  0.11986773955E+03  0.25500000000E-02 0.  1.
          2   -1    0    0  501    0  0.00000000000E+00 -0.00000000000E+00 -0.46493248007E+00  0.46493947297E+00  0.25500000000E-02 0. -1.
         31    1    1    2    0    0  0.20085105829E+00 -0.10545920085E+00  0.63485393689E+02  0.63921088858E+02  0.74470750000E+01 0.  1.
        -31    1    1    2    0    0 -0.20085105829E+00  0.10545920085E+00  0.55917413353E+02  0.56411590165E+02  0.74470750000E+01 0. -1.
<mgrwt>
<rscale>  0 0.14930617E+02</rscale>
<asrwt>0</asrwt>
<pdfrwt beam="2">  1        2 0.98750446E+00 0.14930617E+02</pdfrwt>
<pdfrwt beam="1">  1       -2 0.99499478E+00 0.14930617E+02</pdfrwt>
<totfact>-0.23824481E-13</totfact>
</mgrwt>
</event>
<event>
 4    1 -0.4882314E-019  0.1498800E+02  0.7818608E-02  0.1868435E+00
         -2   -1    0    0    0  501 -0.00000000000E+00  0.00000000000E+00  0.12020922992E+03  0.12020922994E+03  0.25500000000E-02 0. -1.
          2   -1    0    0  501    0  0.00000000000E+00 -0.00000000000E+00 -0.46718199746E+00  0.46718895668E+00  0.25500000000E-02 0.  1.
         31    1    1    2    0    0  0.76036766869E+00  0.22870634502E+00  0.57731403824E+02  0.58215155923E+02  0.74470750000E+01 0. -1.
        -31    1    1    2    0    0 -0.76036766869E+00 -0.22870634502E+00  0.62010644096E+02  0.62461262978E+02  0.74470750000E+01 0.  1.
<mgrwt>
<rscale>  0 0.14987996E+02</rscale>
<asrwt>0</asrwt>
<pdfrwt beam="2">  1        2 0.99227470E+00 0.14987996E+02</pdfrwt>
<pdfrwt beam="1">  1       -2 0.99783706E+00 0.14987996E+02</pdfrwt>
<totfact>-0.93863912E-14</totfact>
</mgrwt>
</event>
<event>
 4    1 -0.4882314E-019  0.1494952E+02  0.7818608E-02  0.1869613E+00
          2   -1    0    0  501    0  0.00000000000E+00  0.00000000000E+00  0.11924856836E+03  0.11924856838E+03  0.25500000000E-02 0.  1.
         -2   -1    0    0    0  501 -0.00000000000E+00 -0.00000000000E+00 -0.46853090146E+00  0.46853784065E+00  0.25500000000E-02 0. -1.
         31    1    1    2    0    0  0.29468663857E+00 -0.47707784235E+00  0.61905714898E+02  0.62354558025E+02  0.74470750000E+01 0. -1.
        -31    1    1    2    0    0 -0.29468663857E+00  0.47707784235E+00  0.56874322558E+02  0.57362548200E+02  0.74470750000E+01 0. -1.
<mgrwt>
<rscale>  0 0.14949523E+02</rscale>
<asrwt>0</asrwt>
<pdfrwt beam="1">  1        2 0.98990480E+00 0.14949523E+02</pdfrwt>
<pdfrwt beam="2">  1       -2 0.99509742E+00 0.14949523E+02</pdfrwt>
<totfact>-0.17975159E-13</totfact>
</mgrwt>
</event>
<event>
 4    1  0.4882314E-019  0.1490931E+02  0.7818608E-02  0.1870849E+00
          2   -1    0    0  501    0  0.00000000000E+00  0.00000000000E+00  0.12023322350E+03  0.12023322352E+03  0.25500000000E-02 0. -1.
         -2   -1    0    0    0  501 -0.00000000000E+00 -0.00000000000E+00 -0.46219719414E+00  0.46220422842E+00  0.25500000000E-02 0.  1.
         31    1    1    2    0    0  0.11288008882E+00 -0.31183591161E+00  0.60327065224E+02  0.60785884119E+02  0.74470750000E+01 0.  1.
        -31    1    1    2    0    0 -0.11288008882E+00  0.31183591161E+00  0.59443961079E+02  0.59909543634E+02  0.74470750000E+01 0.  1.
<mgrwt>
<rscale>  0 0.14909310E+02</rscale>
<asrwt>0</asrwt>
<pdfrwt beam="1">  1        2 0.99799424E+00 0.14909310E+02</pdfrwt>
<pdfrwt beam="2">  1       -2 0.98172865E+00 0.14909310E+02</pdfrwt>
<totfact> 0.56983861E-13</totfact>
</mgrwt>
</event>
<event>
 4    1  0.4882314E-019  0.1493937E+02  0.7818608E-02  0.1869924E+00
          2   -1    0    0  501    0  0.00000000000E+00  0.00000000000E+00  0.12020430248E+03  0.12020430251E+03  0.25500000000E-02 0. -1.
         -2   -1    0    0    0  501 -0.00000000000E+00 -0.00000000000E+00 -0.46417463141E+00  0.46418163572E+00  0.25500000000E-02 0.  1.
         31    1    1    2    0    0  0.38584648926E+00  0.24398195126E+00  0.56970341660E+02  0.57456828660E+02  0.74470750000E+01 0.  1.
        -31    1    1    2    0    0 -0.38584648926E+00 -0.24398195126E+00  0.62769786188E+02  0.63211655483E+02  0.74470750000E+01 0. -1.
<mgrwt>
<rscale>  0 0.14939372E+02</rscale>
<asrwt>0</asrwt>
<pdfrwt beam="1">  1        2 0.99777145E+00 0.14939372E+02</pdfrwt>
<pdfrwt beam="2">  1       -2 0.98591169E+00 0.14939372E+02</pdfrwt>
<totfact> 0.21916552E-13</totfact>
</mgrwt>
</event>
<event>
 4    1  0.4882314E-019  0.1495431E+02  0.7818608E-02  0.1869466E+00
         -2   -1    0    0    0  501 -0.00000000000E+00  0.00000000000E+00  0.11895602923E+03  0.11895602926E+03  0.25500000000E-02 0. -1.
          2   -1    0    0  501    0  0.00000000000E+00 -0.00000000000E+00 -0.46998412019E+00  0.46999103792E+00  0.25500000000E-02 0.  1.
         31    1    1    2    0    0 -0.15279311217E+00  0.41805164790E+00  0.55243445855E+02  0.55744913211E+02  0.74470750000E+01 0.  1.
        -31    1    1    2    0    0  0.15279311217E+00 -0.41805164790E+00  0.63242599259E+02  0.63681107089E+02  0.74470750000E+01 0. -1.
<mgrwt>
<rscale>  0 0.14954312E+02</rscale>
<asrwt>0</asrwt>
<pdfrwt beam="2">  1        2 0.99816207E+00 0.14954312E+02</pdfrwt>
<pdfrwt beam="1">  1       -2 0.98749789E+00 0.14954312E+02</pdfrwt>
<totfact> 0.10109916E-13</totfact>
</mgrwt>
</event>
<event>
 4    1 -0.4882314E-019  0.1492692E+02  0.7818608E-02  0.1870307E+00
          2   -1    0    0  501    0  0.00000000000E+00  0.00000000000E+00  0.11833762703E+03  0.11833762706E+03  0.25500000000E-02 0. -1.
         -2   -1    0    0    0  501 -0.00000000000E+00 -0.00000000000E+00 -0.47071078356E+00  0.47071769062E+00  0.25500000000E-02 0.  1.
         31    1    1    2    0    0  0.86722247584E-01  0.41712293227E-01  0.62792073038E+02  0.63232211910E+02  0.74470750000E+01 0. -1.
        -31    1    1    2    0    0 -0.86722247584E-01 -0.41712293227E-01  0.55074843211E+02  0.55576132840E+02  0.74470750000E+01 0.  1.
<mgrwt>
<rscale>  0 0.14926917E+02</rscale>
<asrwt>0</asrwt>
<pdfrwt beam="1">  1        2 0.98239052E+00 0.14926917E+02</pdfrwt>
<pdfrwt beam="2">  1       -2 0.99967867E+00 0.14926917E+02</pdfrwt>
<totfact>-0.59121611E-14</totfact>
</mgrwt>
</event>
<event>
 4    1 -0.4882314E-019  0.1493897E+02  0.7818608E-02  0.1869937E+00
          2   -1    0    0  501    0  0.00000000000E+00  0.00000000000E+00  0.11896231955E+03  0.11896231958E+03  0.25500000000E-02 0.  1.
         -2   -1    0    0    0  501 -0.00000000000E+00 -0.00000000000E+00 -0.46899560828E+00  0.46900254060E+00  0.25500000000E-02 0. -1.
         31    1    1    2    0    0 -0.98311319154E-01 -0.33677219095E+00  0.62920831826E+02  0.63360974459E+02  0.74470750000E+01 0.  1.
        -31    1    1    2    0    0  0.98311319154E-01  0.33677219095E+00  0.55572492119E+02  0.56070347663E+02  0.74470750000E+01 0. -1.
<mgrwt>
<rscale>  0 0.14938972E+02</rscale>
<asrwt>0</asrwt>
<pdfrwt beam="1">  1        2 0.98754173E+00 0.14938972E+02</pdfrwt>
<pdfrwt beam="2">  1       -2 0.99607113E+00 0.14938972E+02</pdfrwt>
<totfact>-0.22070487E-13</totfact>
</mgrwt>
</event>
<event>
 4    1 -0.4882314E-019  0.1490882E+02  0.7818608E-02  0.1870864E+00
          2   -1    0    0  501    0  0.00000000000E+00  0.00000000000E+00  0.11811812125E+03  0.11811812128E+03  0.25500000000E-02 0.  1.
         -2   -1    0    0    0  501 -0.00000000000E+00 -0.00000000000E+00 -0.47044289802E+00  0.47044980901E+00  0.25500000000E-02 0. -1.
         31    1    1    2    0    0  0.22761727515E-01 -0.27490386092E+00  0.60273749526E+02  0.60732692170E+02  0.74470750000E+01 0.  1.
        -31    1    1    2    0    0 -0.22761727515E-01  0.27490386092E+00  0.57373928826E+02  0.57855878916E+02  0.74470750000E+01 0. -1.
<mgrwt>
<rscale>  0 0.14908822E+02</rscale>
<asrwt>0</asrwt>
<pdfrwt beam="1">  1        2 0.98057328E+00 0.14908822E+02</pdfrwt>
<pdfrwt beam="2">  1       -2 0.99910466E+00 0.14908822E+02</pdfrwt>
<totfact>-0.21376431E-13</totfact>
</mgrwt>
</event>
<event>
 4    1 -0.4882314E-019  0.1490625E+02  0.7818608E-02  0.1870943E+00
          2   -1    0    0  501    0  0.00000000000E+00  0.00000000000E+00  0.11835617960E+03  0.11835617962E+03  0.25500000000E-02 0. -1.
         -2   -1    0    0    0  501 -0.00000000000E+00 -0.00000000000E+00 -0.46933446818E+00  0.46934139549E+00  0.25500000000E-02 0.  1.
         31    1    1    2    0    0  0.20302340639E+00 -0.15729434381E+00  0.57704324950E+02  0.58183451289E+02  0.74470750000E+01 0.  1.
        -31    1    1    2    0    0 -0.20302340639E+00  0.15729434381E+00  0.60182520179E+02  0.60642069731E+02  0.74470750000E+01 0. -1.
<mgrwt>
<rscale>  0 0.14906247E+02</rscale>
<asrwt>0</asrwt>
<pdfrwt beam="1">  1        2 0.98253255E+00 0.14906247E+02</pdfrwt>
<pdfrwt beam="2">  1       -2 0.99676791E+00 0.14906247E+02</pdfrwt>
<totfact>-0.43983330E-13</totfact>
</mgrwt>
</event>
<event>
 4    1 -0.4882314E-019  0.1499893E+02  0.7818608E-02  0.1868101E+00
          2   -1    0    0  501    0  0.00000000000E+00  0.00000000000E+00  0.12003474708E+03  0.12003474711E+03  0.25500000000E-02 0.  1.
         -2   -1    0    0    0  501 -0.00000000000E+00 -0.00000000000E+00 -0.46854399396E+00  0.46855093296E+00  0.25500000000E-02 0. -1.
         31    1    1    2    0    0  0.68485612218E+00 -0.77168457816E-01  0.64242371471E+02  0.64676241396E+02  0.74470750000E+01 0.  1.
        -31    1    1    2    0    0 -0.68485612218E+00  0.77168457816E-01  0.55323831614E+02  0.55827056643E+02  0.74470750000E+01 0. -1.
<mgrwt>
<rscale>  0 0.14998931E+02</rscale>
<asrwt>0</asrwt>
<pdfrwt beam="1">  1        2 0.99640558E+00 0.14998931E+02</pdfrwt>
<pdfrwt beam="2">  1       -2 0.99515063E+00 0.14998931E+02</pdfrwt>
<totfact>-0.98554120E-14</totfact>
</mgrwt>
</event>
<event>
 4    1 -0.4882314E-019  0.1499839E+02  0.7818608E-02  0.1868118E+00
          2   -1    0    0  501    0  0.00000000000E+00  0.00000000000E+00  0.11987492556E+03  0.11987492559E+03  0.25500000000E-02 0.  1.
         -2   -1    0    0    0  501 -0.00000000000E+00 -0.00000000000E+00 -0.46913474531E+00  0.46914167558E+00  0.25500000000E-02 0. -1.
         31    1    1    2    0    0 -0.61398644723E+00 -0.57455849360E+00  0.57551552589E+02  0.58037464006E+02  0.74470750000E+01 0. -1.
        -31    1    1    2    0    0  0.61398644723E+00  0.57455849360E+00  0.61854238229E+02  0.62306603259E+02  0.74470750000E+01 0.  1.
<mgrwt>
<rscale>  0 0.14998388E+02</rscale>
<asrwt>0</asrwt>
<pdfrwt beam="1">  1        2 0.99508895E+00 0.14998388E+02</pdfrwt>
<pdfrwt beam="2">  1       -2 0.99639526E+00 0.14998388E+02</pdfrwt>
<totfact>-0.10553256E-13</totfact>
</mgrwt>
</event>
<event>
 4    1 -0.4882314E-019  0.1493922E+02  0.7818608E-02  0.1869929E+00
          2   -1    0    0  501    0  0.00000000000E+00  0.00000000000E+00  0.11859894791E+03  0.11859894794E+03  0.25500000000E-02 0. -1.
         -2   -1    0    0    0  501 -0.00000000000E+00 -0.00000000000E+00 -0.47044810216E+00  0.47045501308E+00  0.25500000000E-02 0.  1.
         31    1    1    2    0    0 -0.85025081252E-01 -0.54019921181E+00  0.60599275060E+02  0.61057596647E+02  0.74470750000E+01 0. -1.
        -31    1    1    2    0    0  0.85025081252E-01  0.54019921181E+00  0.57529224748E+02  0.58011806304E+02  0.74470750000E+01 0.  1.
<mgrwt>
<rscale>  0 0.14939219E+02</rscale>
<asrwt>0</asrwt>
<pdfrwt beam="1">  1        2 0.98454913E+00 0.14939219E+02</pdfrwt>
<pdfrwt beam="2">  1       -2 0.99913174E+00 0.14939219E+02</pdfrwt>
<totfact>-0.10660314E-13</totfact>
</mgrwt>
</event>
<event>
 4    1 -0.4882314E-019  0.1490516E+02  0.7818608E-02  0.1870976E+00
         -2   -1    0    0    0  501 -0.00000000000E+00  0.00000000000E+00  0.11950522898E+03  0.11950522901E+03  0.25500000000E-02 0.  1.
          2   -1    0    0  501    0  0.00000000000E+00 -0.00000000000E+00 -0.46475396389E+00  0.46476095947E+00  0.25500000000E-02 0. -1.
         31    1    1    2    0    0  0.25248823287E+00  0.11504374723E+00  0.58948896273E+02  0.59418080440E+02  0.74470750000E+01 0.  1.
        -31    1    1    2    0    0 -0.25248823287E+00 -0.11504374723E+00  0.60091578742E+02  0.60551909525E+02  0.74470750000E+01 0. -1.
<mgrwt>
<rscale>  0 0.14905160E+02</rscale>
<asrwt>0</asrwt>
<pdfrwt beam="2">  1        2 0.98711520E+00 0.14905160E+02</pdfrwt>
<pdfrwt beam="1">  1       -2 0.99199582E+00 0.14905160E+02</pdfrwt>
<totfact>-0.16588582E-13</totfact>
</mgrwt>
</event>
<event>
 4    1  0.4882314E-019  0.1489970E+02  0.7818608E-02  0.1871145E+00
         -2   -1    0    0    0  501 -0.00000000000E+00  0.00000000000E+00  0.11831759871E+03  0.11831759874E+03  0.25500000000E-02 0.  1.
          2   -1    0    0  501    0  0.00000000000E+00 -0.00000000000E+00 -0.46907545456E+00  0.46908238570E+00  0.25500000000E-02 0. -1.
         31    1    1    2    0    0  0.16801584531E+00  0.10118151806E-01  0.58013975588E+02  0.58490243813E+02  0.74470750000E+01 0. -1.
        -31    1    1    2    0    0 -0.16801584531E+00 -0.10118151806E-01  0.59834547669E+02  0.60296437312E+02  0.74470750000E+01 0.  1.
<mgrwt>
<rscale>  0 0.14899704E+02</rscale>
<asrwt>0</asrwt>
<pdfrwt beam="2">  1        2 0.99621872E+00 0.14899704E+02</pdfrwt>
<pdfrwt beam="1">  1       -2 0.98221139E+00 0.14899704E+02</pdfrwt>
<totfact> 0.80497928E-13</totfact>
</mgrwt>
</event>
<event>
 4    1  0.4882314E-019  0.1491512E+02  0.7818608E-02  0.1870670E+00
          2   -1    0    0  501    0  0.00000000000E+00  0.00000000000E+00  0.12037421360E+03  0.12037421363E+03  0.25500000000E-02 0. -1.
         -2   -1    0    0    0  501 -0.00000000000E+00 -0.00000000000E+00 -0.46201594055E+00  0.46202297759E+00  0.25500000000E-02 0.  1.
         31    1    1    2    0    0 -0.26221890926E+00 -0.27331923295E+00  0.60874266716E+02  0.61329264927E+02  0.74470750000E+01 0. -1.
        -31    1    1    2    0    0  0.26221890926E+00  0.27331923295E+00  0.59037930945E+02  0.59506971680E+02  0.74470750000E+01 0.  1.
<mgrwt>
<rscale>  0 0.14915124E+02</rscale>
<asrwt>0</asrwt>
<pdfrwt beam="1">  1        2 0.99915855E+00 0.14915124E+02</pdfrwt>
<pdfrwt beam="2">  1       -2 0.98134954E+00 0.14915124E+02</pdfrwt>
<totfact> 0.29239146E-13</totfact>
</mgrwt>
</event>
<event>
 4    1 -0.4882314E-019  0.1491796E+02  0.7818608E-02  0.1870582E+00
          2   -1    0    0  501    0  0.00000000000E+00  0.00000000000E+00  0.11868543515E+03  0.11868543518E+03  0.25500000000E-02 0. -1.
         -2   -1    0    0    0  501 -0.00000000000E+00 -0.00000000000E+00 -0.46876805529E+00  0.46877499097E+00  0.25500000000E-02 0.  1.
         31    1    1    2    0    0  0.20018202065E+00 -0.20837698302E+00  0.61556354727E+02  0.62005864458E+02  0.74470750000E+01 0. -1.
        -31    1    1    2    0    0 -0.20018202065E+00  0.20837698302E+00  0.56660312366E+02  0.57148345709E+02  0.74470750000E+01 0.  1.
<mgrwt>
<rscale>  0 0.14917956E+02</rscale>
<asrwt>0</asrwt>
<pdfrwt beam="1">  1        2 0.98525038E+00 0.14917956E+02</pdfrwt>
<pdfrwt beam="2">  1       -2 0.99558063E+00 0.14917956E+02</pdfrwt>
<totfact>-0.32469987E-13</totfact>
</mgrwt>
</event>
<event>
 4    1  0.4882314E-019  0.1493057E+02  0.7818608E-02  0.1870195E+00
         -2   -1    0    0    0  501 -0.00000000000E+00  0.00000000000E+00  0.11867596070E+03  0.11867596073E+03  0.25500000000E-02 0.  1.
          2   -1    0    0  501    0  0.00000000000E+00 -0.00000000000E+00 -0.46959853024E+00  0.46960545366E+00  0.25500000000E-02 0. -1.
         31    1    1    2    0    0  0.27785235782E+00  0.21337952893E+00  0.56024813380E+02  0.56518681629E+02  0.74470750000E+01 0.  1.
        -31    1    1    2    0    0 -0.27785235782E+00 -0.21337952893E+00  0.62181548794E+02  0.62626884557E+02  0.74470750000E+01 0.  1.
<mgrwt>
<rscale>  0 0.14930569E+02</rscale>
<asrwt>0</asrwt>
<pdfrwt beam="2">  1        2 0.99733712E+00 0.14930569E+02</pdfrwt>
<pdfrwt beam="1">  1       -2 0.98517890E+00 0.14930569E+02</pdfrwt>
<totfact> 0.31311049E-13</totfact>
</mgrwt>
</event>
<event>
 4    1  0.4882314E-019  0.1492592E+02  0.7818608E-02  0.1870338E+00
          2   -1    0    0  501    0  0.00000000000E+00  0.00000000000E+00  0.11990616037E+03  0.11990616040E+03  0.25500000000E-02 0.  1.
         -2   -1    0    0    0  501 -0.00000000000E+00 -0.00000000000E+00 -0.46449084875E+00  0.46449784830E+00  0.25500000000E-02 0. -1.
         31    1    1    2    0    0 -0.42175077520E+00 -0.25414830063E-01  0.61667906602E+02  0.62117373982E+02  0.74470750000E+01 0.  1.
        -31    1    1    2    0    0  0.42175077520E+00  0.25414830063E-01  0.57773762923E+02  0.58253284267E+02  0.74470750000E+01 0. -1.
<mgrwt>
<rscale>  0 0.14925915E+02</rscale>
<asrwt>0</asrwt>
<pdfrwt beam="1">  1        2 0.99530882E+00 0.14925915E+02</pdfrwt>
<pdfrwt beam="2">  1       -2 0.98657130E+00 0.14925915E+02</pdfrwt>
<totfact> 0.28165070E-13</totfact>
</mgrwt>
</event>
<event>
 4    1 -0.4882314E-019  0.1498317E+02  0.7818608E-02  0.1868583E+00
         -2   -1    0    0    0  501 -0.00000000000E+00  0.00000000000E+00  0.12007552848E+03  0.12007552851E+03  0.25500000000E-02 0.  1.
          2   -1    0    0  501    0  0.00000000000E+00 -0.00000000000E+00 -0.46740078103E+00  0.46740773700E+00  0.25500000000E-02 0. -1.
         31    1    1    2    0    0  0.57564892853E+00 -0.33891551743E-01  0.55165865988E+02  0.55669239411E+02  0.74470750000E+01 0.  1.
        -31    1    1    2    0    0 -0.57564892853E+00  0.33891551743E-01  0.64442261714E+02  0.64873696837E+02  0.74470750000E+01 0.  1.
<mgrwt>
<rscale>  0 0.14983166E+02</rscale>
<asrwt>0</asrwt>
<pdfrwt beam="2">  1        2 0.99273330E+00 0.14983166E+02</pdfrwt>
<pdfrwt beam="1">  1       -2 0.99673334E+00 0.14983166E+02</pdfrwt>
<totfact>-0.12129887E-13</totfact>
</mgrwt>
</event>
<event>
 4    1 -0.4882314E-019  0.1491924E+02  0.7818608E-02  0.1870543E+00
          2   -1    0    0  501    0  0.00000000000E+00  0.00000000000E+00  0.11841600587E+03  0.11841600589E+03  0.25500000000E-02 0.  1.
         -2   -1    0    0    0  501 -0.00000000000E+00 -0.00000000000E+00 -0.46991529386E+00  0.46992221261E+00  0.25500000000E-02 0. -1.
         31    1    1    2    0    0  0.14037328164E+00 -0.36274200901E+00  0.60478518579E+02  0.60936536019E+02  0.74470750000E+01 0. -1.
        -31    1    1    2    0    0 -0.14037328164E+00  0.36274200901E+00  0.57467571994E+02  0.57949392088E+02  0.74470750000E+01 0. -1.
<mgrwt>
<rscale>  0 0.14919237E+02</rscale>
<asrwt>0</asrwt>
<pdfrwt beam="1">  1        2 0.98303203E+00 0.14919237E+02</pdfrwt>
<pdfrwt beam="2">  1       -2 0.99799856E+00 0.14919237E+02</pdfrwt>
<totfact>-0.28637026E-13</totfact>
</mgrwt>
</event>
<event>
 4    1 -0.4882314E-019  0.1493072E+02  0.7818608E-02  0.1870190E+00
          2   -1    0    0  501    0  0.00000000000E+00  0.00000000000E+00  0.11901927167E+03  0.11901927170E+03  0.25500000000E-02 0.  1.
         -2   -1    0    0    0  501 -0.00000000000E+00 -0.00000000000E+00 -0.46825370248E+00  0.46826064578E+00  0.25500000000E-02 0. -1.
         31    1    1    2    0    0  0.37684488655E+00 -0.26441794746E+00  0.61248422946E+02  0.61701216911E+02  0.74470750000E+01 0.  1.
        -31    1    1    2    0    0 -0.37684488655E+00  0.26441794746E+00  0.57302595026E+02  0.57786315436E+02  0.74470750000E+01 0. -1.
<mgrwt>
<rscale>  0 0.14930724E+02</rscale>
<asrwt>0</asrwt>
<pdfrwt beam="1">  1        2 0.98800652E+00 0.14930724E+02</pdfrwt>
<pdfrwt beam="2">  1       -2 0.99450351E+00 0.14930724E+02</pdfrwt>
<totfact>-0.22304839E-13</totfact>
</mgrwt>
</event>
<event>
 4    1  0.4882314E-019  0.1489644E+02  0.7818608E-02  0.1871245E+00
          2   -1    0    0  501    0  0.00000000000E+00  0.00000000000E+00  0.12039795296E+03  0.12039795299E+03  0.25500000000E-02 0. -1.
         -2   -1    0    0    0  501 -0.00000000000E+00 -0.00000000000E+00 -0.46076843950E+00  0.46077549560E+00  0.25500000000E-02 0.  1.
         31    1    1    2    0    0  0.31003535553E-01  0.12641684914E+00  0.59873824146E+02  0.60335318731E+02  0.74470750000E+01 0.  1.
        -31    1    1    2    0    0 -0.31003535553E-01 -0.12641684914E+00  0.60063360375E+02  0.60523409752E+02  0.74470750000E+01 0.  1.
<mgrwt>
<rscale>  0 0.14896443E+02</rscale>
<asrwt>0</asrwt>
<pdfrwt beam="1">  1        2 0.99934453E+00 0.14896443E+02</pdfrwt>
<pdfrwt beam="2">  1       -2 0.97871065E+00 0.14896443E+02</pdfrwt>
<totfact> 0.36368879E-13</totfact>
</mgrwt>
</event>
<event>
 4    1  0.4882314E-019  0.1491913E+02  0.7818608E-02  0.1870546E+00
          2   -1    0    0  501    0  0.00000000000E+00  0.00000000000E+00  0.12004634981E+03  0.12004634984E+03  0.25500000000E-02 0.  1.
         -2   -1    0    0    0  501 -0.00000000000E+00 -0.00000000000E+00 -0.46352646441E+00  0.46353347852E+00  0.25500000000E-02 0. -1.
         31    1    1    2    0    0  0.13601086687E+00  0.16171587439E-01  0.56486543217E+02  0.56975496936E+02  0.74470750000E+01 0. -1.
        -31    1    1    2    0    0 -0.13601086687E+00 -0.16171587439E-01  0.63096280132E+02  0.63534386382E+02  0.74470750000E+01 0.  1.
<mgrwt>
<rscale>  0 0.14919127E+02</rscale>
<asrwt>0</asrwt>
<pdfrwt beam="1">  1        2 0.99646003E+00 0.14919127E+02</pdfrwt>
<pdfrwt beam="2">  1       -2 0.98453531E+00 0.14919127E+02</pdfrwt>
<totfact> 0.45246891E-13</totfact>
</mgrwt>
</event>
<event>
 4    1 -0.4882314E-019  0.1494069E+02  0.7818608E-02  0.1869884E+00
         -2   -1    0    0    0  501 -0.00000000000E+00  0.00000000000E+00  0.11990758120E+03  0.11990758123E+03  0.25500000000E-02 0. -1.
          2   -1    0    0  501    0  0.00000000000E+00 -0.00000000000E+00 -0.46540509486E+00  0.46541208066E+00  0.25500000000E-02 0.  1.
         31    1    1    2    0    0  0.22969222706E+00  0.52206440543E+00  0.60910252696E+02  0.61366465756E+02  0.74470750000E+01 0.  1.
        -31    1    1    2    0    0 -0.22969222706E+00 -0.52206440543E+00  0.58531923412E+02  0.59006527555E+02  0.74470750000E+01 0.  1.
<mgrwt>
<rscale>  0 0.14940686E+02</rscale>
<asrwt>0</asrwt>
<pdfrwt beam="2">  1        2 0.98850565E+00 0.14940686E+02</pdfrwt>
<pdfrwt beam="1">  1       -2 0.99532813E+00 0.14940686E+02</pdfrwt>
<totfact>-0.20726026E-13</totfact>
</mgrwt>
</event>
<event>
 4    1 -0.4882314E-019  0.1499127E+02  0.7818608E-02  0.1868335E+00
          2   -1    0    0  501    0  0.00000000000E+00  0.00000000000E+00  0.12005915817E+03  0.12005915820E+03  0.25500000000E-02 0. -1.
         -2   -1    0    0    0  501 -0.00000000000E+00 -0.00000000000E+00 -0.46797053539E+00  0.46797748289E+00  0.25500000000E-02 0.  1.
         31    1    1    2    0    0 -0.40414196333E-01  0.43075793563E+00  0.53896003433E+02  0.54409790460E+02  0.74470750000E+01 0.  1.
        -31    1    1    2    0    0  0.40414196333E-01 -0.43075793563E+00  0.65695184200E+02  0.66117345220E+02  0.74470750000E+01 0. -1.
<mgrwt>
<rscale>  0 0.14991273E+02</rscale>
<asrwt>0</asrwt>
<pdfrwt beam="1">  1        2 0.99660269E+00 0.14991273E+02</pdfrwt>
<pdfrwt beam="2">  1       -2 0.99393818E+00 0.14991273E+02</pdfrwt>
<totfact>-0.93074749E-14</totfact>
</mgrwt>
</event>
<event>
 4    1 -0.4882314E-019  0.1490124E+02  0.7818608E-02  0.1871097E+00
          2   -1    0    0  501    0  0.00000000000E+00  0.00000000000E+00  0.11879927079E+03  0.11879927082E+03  0.25500000000E-02 0.  1.
         -2   -1    0    0    0  501 -0.00000000000E+00 -0.00000000000E+00 -0.46726991408E+00  0.46727687199E+00  0.25500000000E-02 0. -1.
         31    1    1    2    0    0  0.75379715216E-01  0.14025459855E+00  0.60492365581E+02  0.60949245878E+02  0.74470750000E+01 0.  1.
        -31    1    1    2    0    0 -0.75379715216E-01 -0.14025459855E+00  0.57839635295E+02  0.58317301811E+02  0.74470750000E+01 0. -1.
<mgrwt>
<rscale>  0 0.14901240E+02</rscale>
<asrwt>0</asrwt>
<pdfrwt beam="1">  1        2 0.98617926E+00 0.14901240E+02</pdfrwt>
<pdfrwt beam="2">  1       -2 0.99241510E+00 0.14901240E+02</pdfrwt>
<totfact>-0.21888937E-13</totfact>
</mgrwt>
</event>
<event>
 4    1  0.4882314E-019  0.1490765E+02  0.7818608E-02  0.1870900E+00
          2   -1    0    0  501    0  0.00000000000E+00  0.00000000000E+00  0.11966240143E+03  0.11966240145E+03  0.25500000000E-02 0. -1.
         -2   -1    0    0    0  501 -0.00000000000E+00 -0.00000000000E+00 -0.46429869896E+00  0.46430570140E+00  0.25500000000E-02 0.  1.
         31    1    1    2    0    0 -0.16052856822E+00 -0.36111513721E-01  0.61783959016E+02  0.62231371439E+02  0.74470750000E+01 0. -1.
        -31    1    1    2    0    0  0.16052856822E+00  0.36111513721E-01  0.57414143711E+02  0.57895335716E+02  0.74470750000E+01 0.  1.
<mgrwt>
<rscale>  0 0.14907652E+02</rscale>
<asrwt>0</asrwt>
<pdfrwt beam="1">  1        2 0.99329166E+00 0.14907652E+02</pdfrwt>
<pdfrwt beam="2">  1       -2 0.98615701E+00 0.14907652E+02</pdfrwt>
<totfact> 0.39087145E-13</totfact>
</mgrwt>
</event>
<event>
 4    1 -0.4882314E-019  0.1494496E+02  0.7818608E-02  0.1869753E+00
         -2   -1    0    0    0  501 -0.00000000000E+00  0.00000000000E+00  0.12020846904E+03  0.12020846907E+03  0.25500000000E-02 0. -1.
          2   -1    0    0  501    0  0.00000000000E+00 -0.00000000000E+00 -0.46450611016E+00  0.46451310948E+00  0.25500000000E-02 0.  1.
         31    1    1    2    0    0  0.28450437123E+00  0.27189624366E+00  0.63695199220E+02  0.64130275222E+02  0.74470750000E+01 0.  1.
        -31    1    1    2    0    0 -0.28450437123E+00 -0.27189624366E+00  0.56048763713E+02  0.56542706958E+02  0.74470750000E+01 0.  1.
<mgrwt>
<rscale>  0 0.14944965E+02</rscale>
<asrwt>0</asrwt>
<pdfrwt beam="2">  1        2 0.98661317E+00 0.14944965E+02</pdfrwt>
<pdfrwt beam="1">  1       -2 0.99780865E+00 0.14944965E+02</pdfrwt>
<totfact>-0.17264103E-13</totfact>
</mgrwt>
</event>
<event>
 4    1 -0.4882314E-019  0.1492448E+02  0.7818608E-02  0.1870382E+00
         -2   -1    0    0    0  501 -0.00000000000E+00  0.00000000000E+00  0.12013743599E+03  0.12013743602E+03  0.25500000000E-02 0. -1.
          2   -1    0    0  501    0  0.00000000000E+00 -0.00000000000E+00 -0.46350733516E+00  0.46351434956E+00  0.25500000000E-02 0.  1.
         31    1    1    2    0    0 -0.39499609791E+00 -0.22542909068E+00  0.58716063274E+02  0.59188190145E+02  0.74470750000E+01 0.  1.
        -31    1    1    2    0    0  0.39499609791E+00  0.22542909068E+00  0.60957865384E+02  0.61412760225E+02  0.74470750000E+01 0.  1.
<mgrwt>
<rscale>  0 0.14924478E+02</rscale>
<asrwt>0</asrwt>
<pdfrwt beam="2">  1        2 0.98449771E+00 0.14924478E+02</pdfrwt>
<pdfrwt beam="1">  1       -2 0.99721304E+00 0.14924478E+02</pdfrwt>
<totfact>-0.28733819E-13</totfact>
</mgrwt>
</event>
<event>
 4    1 -0.4882314E-019  0.1493835E+02  0.7818608E-02  0.1869955E+00
         -2   -1    0    0    0  501 -0.00000000000E+00  0.00000000000E+00  0.11976270095E+03  0.11976270098E+03  0.25500000000E-02 0. -1.
          2   -1    0    0  501    0  0.00000000000E+00 -0.00000000000E+00 -0.46582274324E+00  0.46582972278E+00  0.25500000000E-02 0.  1.
         31    1    1    2    0    0 -0.24247886565E-01 -0.50480496120E+00  0.57455085487E+02  0.57937908061E+02  0.74470750000E+01 0.  1.
        -31    1    1    2    0    0  0.24247886565E-01  0.50480496120E+00  0.61841792723E+02  0.62290622643E+02  0.74470750000E+01 0. -1.
<mgrwt>
<rscale>  0 0.14938355E+02</rscale>
<asrwt>0</asrwt>
<pdfrwt beam="2">  1        2 0.98938465E+00 0.14938355E+02</pdfrwt>
<pdfrwt beam="1">  1       -2 0.99413361E+00 0.14938355E+02</pdfrwt>
<totfact>-0.18737167E-13</totfact>
</mgrwt>
</event>
<event>
 4    1 -0.4882314E-019  0.1496229E+02  0.7818608E-02  0.1869221E+00
          2   -1    0    0  501    0  0.00000000000E+00  0.00000000000E+00  0.11957364208E+03  0.11957364210E+03  0.25500000000E-02 0. -1.
         -2   -1    0    0    0  501 -0.00000000000E+00 -0.00000000000E+00 -0.46805567610E+00  0.46806262233E+00  0.25500000000E-02 0.  1.
         31    1    1    2    0    0  0.23051226610E+00 -0.32255055604E+00  0.54796600903E+02  0.55301750165E+02  0.74470750000E+01 0.  1.
        -31    1    1    2    0    0 -0.23051226610E+00  0.32255055604E+00  0.64308985499E+02  0.64739954562E+02  0.74470750000E+01 0. -1.
<mgrwt>
<rscale>  0 0.14962291E+02</rscale>
<asrwt>0</asrwt>
<pdfrwt beam="1">  1        2 0.99258880E+00 0.14962291E+02</pdfrwt>
<pdfrwt beam="2">  1       -2 0.99410263E+00 0.14962291E+02</pdfrwt>
<totfact>-0.14284548E-13</totfact>
</mgrwt>
</event>
<event>
 4    1 -0.4882314E-019  0.1493389E+02  0.7818608E-02  0.1870093E+00
         -2   -1    0    0    0  501 -0.00000000000E+00  0.00000000000E+00  0.12041209448E+03  0.12041209451E+03  0.25500000000E-02 0.  1.
          2   -1    0    0  501    0  0.00000000000E+00 -0.00000000000E+00 -0.46303335565E+00  0.46304037723E+00  0.25500000000E-02 0. -1.
         31    1    1    2    0    0 -0.34017767524E+00 -0.36342795487E+00  0.61757335571E+02  0.62206713654E+02  0.74470750000E+01 0.  1.
        -31    1    1    2    0    0  0.34017767524E+00  0.36342795487E+00  0.58191725551E+02  0.58668421228E+02  0.74470750000E+01 0. -1.
<mgrwt>
<rscale>  0 0.14933887E+02</rscale>
<asrwt>0</asrwt>
<pdfrwt beam="2">  1        2 0.98350346E+00 0.14933887E+02</pdfrwt>
<pdfrwt beam="1">  1       -2 0.99948019E+00 0.14933887E+02</pdfrwt>
<totfact>-0.78078581E-14</totfact>
</mgrwt>
</event>
<event>
 4    1  0.4882314E-019  0.1491828E+02  0.7818608E-02  0.1870572E+00
         -2   -1    0    0    0  501 -0.00000000000E+00  0.00000000000E+00  0.11859064722E+03  0.11859064725E+03  0.25500000000E-02 0. -1.
          2   -1    0    0  501    0  0.00000000000E+00 -0.00000000000E+00 -0.46916316544E+00  0.46917009528E+00  0.25500000000E-02 0.  1.
         31    1    1    2    0    0 -0.42047576857E+00 -0.34983406760E-01  0.59401947050E+02  0.59868424592E+02  0.74470750000E+01 0.  1.
        -31    1    1    2    0    0  0.42047576857E+00  0.34983406760E-01  0.58719537005E+02  0.59191392751E+02  0.74470750000E+01 0. -1.
<mgrwt>
<rscale>  0 0.14918281E+02</rscale>
<asrwt>0</asrwt>
<pdfrwt beam="2">  1        2 0.99641332E+00 0.14918281E+02</pdfrwt>
<pdfrwt beam="1">  1       -2 0.98446987E+00 0.14918281E+02</pdfrwt>
<totfact> 0.46409379E-13</totfact>
</mgrwt>
</event>
<event>
 4    1  0.4882314E-019  0.1491581E+02  0.7818608E-02  0.1870649E+00
          2   -1    0    0  501    0  0.00000000000E+00  0.00000000000E+00  0.12028757890E+03  0.12028757893E+03  0.25500000000E-02 0. -1.
         -2   -1    0    0    0  501 -0.00000000000E+00 -0.00000000000E+00 -0.46239106049E+00  0.46239809182E+00  0.25500000000E-02 0.  1.
         31    1    1    2    0    0  0.13240146114E+00  0.29720209151E+00  0.58004713343E+02  0.58481719838E+02  0.74470750000E+01 0.  1.
        -31    1    1    2    0    0 -0.13240146114E+00 -0.29720209151E+00  0.61820474501E+02  0.62268257184E+02  0.74470750000E+01 0. -1.
<mgrwt>
<rscale>  0 0.14915807E+02</rscale>
<asrwt>0</asrwt>
<pdfrwt beam="1">  1        2 0.99844529E+00 0.14915807E+02</pdfrwt>
<pdfrwt beam="2">  1       -2 0.98214055E+00 0.14915807E+02</pdfrwt>
<totfact> 0.42799075E-13</totfact>
</mgrwt>
</event>
<event>
 4    1 -0.4882314E-019  0.1495282E+02  0.7818608E-02  0.1869511E+00
         -2   -1    0    0    0  501 -0.00000000000E+00  0.00000000000E+00  0.12003455371E+03  0.12003455374E+03  0.25500000000E-02 0. -1.
          2   -1    0    0  501    0  0.00000000000E+00 -0.00000000000E+00 -0.46566858091E+00  0.46567556276E+00  0.25500000000E-02 0.  1.
         31    1    1    2    0    0 -0.46761879777E+00 -0.46175489289E+00  0.60405097967E+02  0.60865973018E+02  0.74470750000E+01 0. -1.
        -31    1    1    2    0    0  0.46761879777E+00  0.46175489289E+00  0.59163787163E+02  0.59634256284E+02  0.74470750000E+01 0.  1.
<mgrwt>
<rscale>  0 0.14952825E+02</rscale>
<asrwt>0</asrwt>
<pdfrwt beam="2">  1        2 0.98906716E+00 0.14952825E+02</pdfrwt>
<pdfrwt beam="1">  1       -2 0.99638021E+00 0.14952825E+02</pdfrwt>
<totfact>-0.17587098E-13</totfact>
</mgrwt>
</event>
<event>
 4    1  0.4882314E-019  0.1493379E+02  0.7818608E-02  0.1870096E+00
         -2   -1    0    0    0  501 -0.00000000000E+00  0.00000000000E+00  0.11896532419E+03  0.11896532422E+03  0.25500000000E-02 0. -1.
          2   -1    0    0  501    0  0.00000000000E+00 -0.00000000000E+00 -0.46865844254E+00  0.46866537984E+00  0.25500000000E-02 0.  1.
         31    1    1    2    0    0 -0.77222001756E-01  0.47738857869E+00  0.61235375295E+02  0.61688442813E+02  0.74470750000E+01 0.  1.
        -31    1    1    2    0    0  0.77222001756E-01 -0.47738857869E+00  0.57261290456E+02  0.57745546788E+02  0.74470750000E+01 0.  1.
<mgrwt>
<rscale>  0 0.14933790E+02</rscale>
<asrwt>0</asrwt>
<pdfrwt beam="2">  1        2 0.99535796E+00 0.14933790E+02</pdfrwt>
<pdfrwt beam="1">  1       -2 0.98756379E+00 0.14933790E+02</pdfrwt>
<totfact> 0.18323548E-13</totfact>
</mgrwt>
</event>
<event>
 4    1 -0.4882314E-019  0.1496695E+02  0.7818608E-02  0.1869079E+00
         -2   -1    0    0    0  501 -0.00000000000E+00  0.00000000000E+00  0.12036443721E+03  0.12036443723E+03  0.25500000000E-02 0. -1.
          2   -1    0    0  501    0  0.00000000000E+00 -0.00000000000E+00 -0.46526996282E+00  0.46527695064E+00  0.25500000000E-02 0.  1.
         31    1    1    2    0    0 -0.59828672365E+00 -0.40806862122E+00  0.61062031629E+02  0.61518737794E+02  0.74470750000E+01 0.  1.
        -31    1    1    2    0    0  0.59828672365E+00  0.40806862122E+00  0.58837135615E+02  0.59310976391E+02  0.74470750000E+01 0. -1.
<mgrwt>
<rscale>  0 0.14966948E+02</rscale>
<asrwt>0</asrwt>
<pdfrwt beam="2">  1        2 0.98823425E+00 0.14966948E+02</pdfrwt>
<pdfrwt beam="1">  1       -2 0.99910462E+00 0.14966948E+02</pdfrwt>
<totfact>-0.63632599E-14</totfact>
</mgrwt>
</event>
<event>
 4    1  0.4882314E-019  0.1491223E+02  0.7818608E-02  0.1870759E+00
          2   -1    0    0  501    0  0.00000000000E+00  0.00000000000E+00  0.11954351043E+03  0.11954351046E+03  0.25500000000E-02 0.  1.
         -2   -1    0    0    0  501 -0.00000000000E+00 -0.00000000000E+00 -0.46504573482E+00  0.46505272601E+00  0.25500000000E-02 0. -1.
         31    1    1    2    0    0  0.24185825370E+00 -0.99066744584E-01  0.57465727543E+02  0.57946847004E+02  0.74470750000E+01 0. -1.
        -31    1    1    2    0    0 -0.24185825370E+00  0.99066744584E-01  0.61612737152E+02  0.62061716179E+02  0.74470750000E+01 0.  1.
<mgrwt>
<rscale>  0 0.14912226E+02</rscale>
<asrwt>0</asrwt>
<pdfrwt beam="1">  1        2 0.99231477E+00 0.14912226E+02</pdfrwt>
<pdfrwt beam="2">  1       -2 0.98773372E+00 0.14912226E+02</pdfrwt>
<totfact> 0.21690353E-13</totfact>
</mgrwt>
</event>
<event>
 4    1 -0.4882314E-019  0.1490276E+02  0.7818608E-02  0.1871050E+00
          2   -1    0    0  501    0  0.00000000000E+00  0.00000000000E+00  0.11871000776E+03  0.11871000779E+03  0.25500000000E-02 0. -1.
         -2   -1    0    0    0  501 -0.00000000000E+00 -0.00000000000E+00 -0.46771681657E+00  0.46772376784E+00  0.25500000000E-02 0.  1.
         31    1    1    2    0    0 -0.15641537375E+00  0.13978601599E+00  0.57985939389E+02  0.58462570067E+02  0.74470750000E+01 0.  1.
        -31    1    1    2    0    0  0.15641537375E+00 -0.13978601599E+00  0.60256351558E+02  0.60715161492E+02  0.74470750000E+01 0. -1.
<mgrwt>
<rscale>  0 0.14902763E+02</rscale>
<asrwt>0</asrwt>
<pdfrwt beam="1">  1        2 0.98544487E+00 0.14902763E+02</pdfrwt>
<pdfrwt beam="2">  1       -2 0.99335759E+00 0.14902763E+02</pdfrwt>
<totfact>-0.29685924E-13</totfact>
</mgrwt>
</event>
<event>
 4    1  0.4882314E-019  0.1492762E+02  0.7818608E-02  0.1870285E+00
         -2   -1    0    0    0  501 -0.00000000000E+00  0.00000000000E+00  0.11869511913E+03  0.11869511916E+03  0.25500000000E-02 0.  1.
          2   -1    0    0  501    0  0.00000000000E+00 -0.00000000000E+00 -0.46933734869E+00  0.46934427596E+00  0.25500000000E-02 0. -1.
         31    1    1    2    0    0  0.93955844842E-01  0.31166793803E+00  0.56088085519E+02  0.56581253325E+02  0.74470750000E+01 0.  1.
        -31    1    1    2    0    0 -0.93955844842E-01 -0.31166793803E+00  0.62137696265E+02  0.62583210111E+02  0.74470750000E+01 0.  1.
<mgrwt>
<rscale>  0 0.14927621E+02</rscale>
<asrwt>0</asrwt>
<pdfrwt beam="2">  1        2 0.99678525E+00 0.14927621E+02</pdfrwt>
<pdfrwt beam="1">  1       -2 0.98533516E+00 0.14927621E+02</pdfrwt>
<totfact> 0.33999295E-13</totfact>
</mgrwt>
</event>
<event>
 4    1  0.4882314E-019  0.1489913E+02  0.7818608E-02  0.1871162E+00
         -2   -1    0    0    0  501 -0.00000000000E+00  0.00000000000E+00  0.11795662013E+03  0.11795662016E+03  0.25500000000E-02 0.  1.
          2   -1    0    0  501    0  0.00000000000E+00 -0.00000000000E+00 -0.47047484232E+00  0.47048175284E+00  0.25500000000E-02 0. -1.
         31    1    1    2    0    0 -0.15200219546E+00  0.11634168698E+00  0.58914838503E+02  0.59383952057E+02  0.74470750000E+01 0.  1.
        -31    1    1    2    0    0  0.15200219546E+00 -0.11634168698E+00  0.58571306786E+02  0.59043149855E+02  0.74470750000E+01 0. -1.
<mgrwt>
<rscale>  0 0.14899132E+02</rscale>
<asrwt>0</asrwt>
<pdfrwt beam="2">  1        2 0.99916680E+00 0.14899132E+02</pdfrwt>
<pdfrwt beam="1">  1       -2 0.97923814E+00 0.14899132E+02</pdfrwt>
<totfact> 0.41733195E-13</totfact>
</mgrwt>
</event>
<event>
 4    1  0.4882314E-019  0.1493605E+02  0.7818608E-02  0.1870026E+00
         -2   -1    0    0    0  501 -0.00000000000E+00  0.00000000000E+00  0.11863587398E+03  0.11863587401E+03  0.25500000000E-02 0.  1.
          2   -1    0    0  501    0  0.00000000000E+00 -0.00000000000E+00 -0.47010212439E+00  0.47010904039E+00  0.25500000000E-02 0. -1.
         31    1    1    2    0    0  0.55723081507E+00 -0.41679533997E-01  0.59201291425E+02  0.59670462340E+02  0.74470750000E+01 0. -1.
        -31    1    1    2    0    0 -0.55723081507E+00  0.41679533997E-01  0.58964480434E+02  0.59435520712E+02  0.74470750000E+01 0. -1.
<mgrwt>
<rscale>  0 0.14936049E+02</rscale>
<asrwt>0</asrwt>
<pdfrwt beam="2">  1        2 0.99840109E+00 0.14936049E+02</pdfrwt>
<pdfrwt beam="1">  1       -2 0.98485160E+00 0.14936049E+02</pdfrwt>
<totfact> 0.23197744E-13</totfact>
</mgrwt>
</event>
<event>
 4    1  0.4882314E-019  0.1491897E+02  0.7818608E-02  0.1870551E+00
         -2   -1    0    0    0  501 -0.00000000000E+00  0.00000000000E+00  0.11834052819E+03  0.11834052822E+03  0.25500000000E-02 0.  1.
          2   -1    0    0  501    0  0.00000000000E+00 -0.00000000000E+00 -0.47019837068E+00  0.47020528526E+00  0.25500000000E-02 0. -1.
         31    1    1    2    0    0  0.30278529768E+00 -0.90503351742E-01  0.56611444859E+02  0.57100039272E+02  0.74470750000E+01 0. -1.
        -31    1    1    2    0    0 -0.30278529768E+00  0.90503351742E-01  0.61258884960E+02  0.61710694231E+02  0.74470750000E+01 0.  1.
<mgrwt>
<rscale>  0 0.14918973E+02</rscale>
<asrwt>0</asrwt>
<pdfrwt beam="2">  1        2 0.99859485E+00 0.14918973E+02</pdfrwt>
<pdfrwt beam="1">  1       -2 0.98241027E+00 0.14918973E+02</pdfrwt>
<totfact> 0.37220856E-13</totfact>
</mgrwt>
</event>
<event>
 4    1  0.4882314E-019  0.1494972E+02  0.7818608E-02  0.1869607E+00
         -2   -1    0    0    0  501 -0.00000000000E+00  0.00000000000E+00  0.11893065831E+03  0.11893065833E+03  0.25500000000E-02 0. -1.
          2   -1    0    0  501    0  0.00000000000E+00 -0.00000000000E+00 -0.46979558106E+00  0.46980250157E+00  0.25500000000E-02 0.  1.
         31    1    1    2    0    0 -0.18468592741E-01 -0.61378817907E+00  0.57683598790E+02  0.58165570335E+02  0.74470750000E+01 0.  1.
        -31    1    1    2    0    0  0.18468592741E-01  0.61378817907E+00  0.60777263936E+02  0.61234890500E+02  0.74470750000E+01 0. -1.
<mgrwt>
<rscale>  0 0.14949717E+02</rscale>
<asrwt>0</asrwt>
<pdfrwt beam="2">  1        2 0.99776239E+00 0.14949717E+02</pdfrwt>
<pdfrwt beam="1">  1       -2 0.98728655E+00 0.14949717E+02</pdfrwt>
<totfact> 0.12992852E-13</totfact>
</mgrwt>
</event>
<event>
 4    1  0.4882314E-019  0.1491698E+02  0.7818608E-02  0.1870613E+00
          2   -1    0    0  501    0  0.00000000000E+00  0.00000000000E+00  0.11971660801E+03  0.11971660804E+03  0.25500000000E-02 0.  1.
         -2   -1    0    0    0  501 -0.00000000000E+00 -0.00000000000E+00 -0.46466933877E+00  0.46467633562E+00  0.25500000000E-02 0. -1.
         31    1    1    2    0    0 -0.21633246537E+00  0.23958118659E+00  0.57557203007E+02  0.58037873350E+02  0.74470750000E+01 0. -1.
        -31    1    1    2    0    0  0.21633246537E+00 -0.23958118659E+00  0.61694735663E+02  0.62143411022E+02  0.74470750000E+01 0. -1.
<mgrwt>
<rscale>  0 0.14916978E+02</rscale>
<asrwt>0</asrwt>
<pdfrwt beam="1">  1        2 0.99374295E+00 0.14916978E+02</pdfrwt>
<pdfrwt beam="2">  1       -2 0.98694291E+00 0.14916978E+02</pdfrwt>
<totfact> 0.28117698E-13</totfact>
</mgrwt>
</event>
<event>
 4    1 -0.4882314E-019  0.1493846E+02  0.7818608E-02  0.1869952E+00
         -2   -1    0    0    0  501 -0.00000000000E+00  0.00000000000E+00  0.11974231949E+03  0.11974231952E+03  0.25500000000E-02 0.  1.
          2   -1    0    0  501    0  0.00000000000E+00 -0.00000000000E+00 -0.46590850534E+00  0.46591548359E+00  0.25500000000E-02 0. -1.
         31    1    1    2    0    0 -0.21657679573E+00 -0.34045316724E+00  0.56343433759E+02  0.56834886009E+02  0.74470750000E+01 0. -1.
        -31    1    1    2    0    0  0.21657679573E+00  0.34045316724E+00  0.62932977229E+02  0.63373348995E+02  0.74470750000E+01 0.  1.
<mgrwt>
<rscale>  0 0.14938459E+02</rscale>
<asrwt>0</asrwt>
<pdfrwt beam="2">  1        2 0.98956544E+00 0.14938459E+02</pdfrwt>
<pdfrwt beam="1">  1       -2 0.99396579E+00 0.14938459E+02</pdfrwt>
<totfact>-0.18199763E-13</totfact>
</mgrwt>
</event>
<event>
 4    1 -0.4882314E-019  0.1494069E+02  0.7818608E-02  0.1869884E+00
         -2   -1    0    0    0  501 -0.00000000000E+00  0.00000000000E+00  0.11936591424E+03  0.11936591427E+03  0.25500000000E-02 0. -1.
          2   -1    0    0  501    0  0.00000000000E+00 -0.00000000000E+00 -0.46751747900E+00  0.46752443323E+00  0.25500000000E-02 0.  1.
         31    1    1    2    0    0  0.70684154503E-01 -0.90712619838E-03  0.54757680799E+02  0.55261808960E+02  0.74470750000E+01 0.  1.
        -31    1    1    2    0    0 -0.70684154503E-01  0.90712619838E-03  0.64140715964E+02  0.64571629742E+02  0.74470750000E+01 0. -1.
<mgrwt>
<rscale>  0 0.14940692E+02</rscale>
<asrwt>0</asrwt>
<pdfrwt beam="2">  1        2 0.99295730E+00 0.14940692E+02</pdfrwt>
<pdfrwt beam="1">  1       -2 0.99086671E+00 0.14940692E+02</pdfrwt>
<totfact>-0.42481508E-14</totfact>
</mgrwt>
</event>
<event>
 4    1  0.4882314E-019  0.1492776E+02  0.7818608E-02  0.1870281E+00
         -2   -1    0    0    0  501 -0.00000000000E+00  0.00000000000E+00  0.11863255848E+03  0.11863255851E+03  0.25500000000E-02 0.  1.
          2   -1    0    0  501    0  0.00000000000E+00 -0.00000000000E+00 -0.46959364042E+00  0.46960056391E+00  0.25500000000E-02 0. -1.
         31    1    1    2    0    0  0.46348731346E+00 -0.91183825924E-01  0.60403324560E+02  0.60862498133E+02  0.74470750000E+01 0.  1.
        -31    1    1    2    0    0 -0.46348731346E+00  0.91183825924E-01  0.57759640281E+02  0.58239660940E+02  0.74470750000E+01 0. -1.
<mgrwt>
<rscale>  0 0.14927761E+02</rscale>
<asrwt>0</asrwt>
<pdfrwt beam="2">  1        2 0.99732534E+00 0.14927761E+02</pdfrwt>
<pdfrwt beam="1">  1       -2 0.98481998E+00 0.14927761E+02</pdfrwt>
<totfact> 0.34764679E-13</totfact>
</mgrwt>
</event>
<event>
 4    1 -0.4882314E-019  0.1492806E+02  0.7818608E-02  0.1870272E+00
         -2   -1    0    0    0  501 -0.00000000000E+00  0.00000000000E+00  0.11997804064E+03  0.11997804066E+03  0.25500000000E-02 0. -1.
          2   -1    0    0  501    0  0.00000000000E+00 -0.00000000000E+00 -0.46434613617E+00  0.46435313790E+00  0.25500000000E-02 0.  1.
         31    1    1    2    0    0 -0.39642405396E+00  0.30623927619E+00  0.59404950440E+02  0.59872013473E+02  0.74470750000E+01 0. -1.
        -31    1    1    2    0    0  0.39642405396E+00 -0.30623927619E+00  0.60108744060E+02  0.60570380328E+02  0.74470750000E+01 0.  1.
<mgrwt>
<rscale>  0 0.14928063E+02</rscale>
<asrwt>0</asrwt>
<pdfrwt beam="2">  1        2 0.98626740E+00 0.14928063E+02</pdfrwt>
<pdfrwt beam="1">  1       -2 0.99590198E+00 0.14928063E+02</pdfrwt>
<totfact>-0.26970067E-13</totfact>
</mgrwt>
</event>
<event>
 4    1 -0.4882314E-019  0.1495987E+02  0.7818608E-02  0.1869296E+00
         -2   -1    0    0    0  501 -0.00000000000E+00  0.00000000000E+00  0.11955317946E+03  0.11955317949E+03  0.25500000000E-02 0. -1.
          2   -1    0    0  501    0  0.00000000000E+00 -0.00000000000E+00 -0.46798418971E+00  0.46799113701E+00  0.25500000000E-02 0.  1.
         31    1    1    2    0    0  0.95116057505E-01 -0.16877271124E+00  0.54143023159E+02  0.54653118979E+02  0.74470750000E+01 0.  1.
        -31    1    1    2    0    0 -0.95116057505E-01  0.16877271124E+00  0.64942172116E+02  0.65368051650E+02  0.74470750000E+01 0. -1.
<mgrwt>
<rscale>  0 0.14959868E+02</rscale>
<asrwt>0</asrwt>
<pdfrwt beam="2">  1        2 0.99395074E+00 0.14959868E+02</pdfrwt>
<pdfrwt beam="1">  1       -2 0.99241901E+00 0.14959868E+02</pdfrwt>
<totfact>-0.99578912E-14</totfact>
</mgrwt>
</event>
<event>
 4    1  0.4882314E-019  0.1494868E+02  0.7818608E-02  0.1869639E+00
         -2   -1    0    0    0  501 -0.00000000000E+00  0.00000000000E+00  0.11889989572E+03  0.11889989574E+03  0.25500000000E-02 0. -1.
          2   -1    0    0  501    0  0.00000000000E+00 -0.00000000000E+00 -0.46985173012E+00  0.46985864980E+00  0.25500000000E-02 0.  1.
         31    1    1    2    0    0 -0.79935718180E-01  0.62797267849E+00  0.58592839819E+02  0.59067593006E+02  0.74470750000E+01 0. -1.
        -31    1    1    2    0    0  0.79935718180E-01 -0.62797267849E+00  0.59837204167E+02  0.60302161387E+02  0.74470750000E+01 0.  1.
<mgrwt>
<rscale>  0 0.14948677E+02</rscale>
<asrwt>0</asrwt>
<pdfrwt beam="2">  1        2 0.99788015E+00 0.14948677E+02</pdfrwt>
<pdfrwt beam="1">  1       -2 0.98703265E+00 0.14948677E+02</pdfrwt>
<totfact> 0.13927509E-13</totfact>
</mgrwt>
</event>
<event>
 4    1 -0.4882314E-019  0.1491358E+02  0.7818608E-02  0.1870717E+00
         -2   -1    0    0    0  501 -0.00000000000E+00  0.00000000000E+00  0.12006081680E+03  0.12006081682E+03  0.25500000000E-02 0.  1.
          2   -1    0    0  501    0  0.00000000000E+00 -0.00000000000E+00 -0.46312583272E+00  0.46313285290E+00  0.25500000000E-02 0. -1.
         31    1    1    2    0    0  0.20808727655E+00 -0.25010297833E+00  0.58204668649E+02  0.58680049680E+02  0.74470750000E+01 0. -1.
        -31    1    1    2    0    0 -0.20808727655E+00  0.25010297833E+00  0.61393022314E+02  0.61843899996E+02  0.74470750000E+01 0. -1.
<mgrwt>
<rscale>  0 0.14913576E+02</rscale>
<asrwt>0</asrwt>
<pdfrwt beam="2">  1        2 0.98368810E+00 0.14913576E+02</pdfrwt>
<pdfrwt beam="1">  1       -2 0.99657634E+00 0.14913576E+02</pdfrwt>
<totfact>-0.37431341E-13</totfact>
</mgrwt>
</event>
<event>
 4    1 -0.4882314E-019  0.1495811E+02  0.7818608E-02  0.1869349E+00
          2   -1    0    0  501    0  0.00000000000E+00  0.00000000000E+00  0.11906442338E+03  0.11906442341E+03  0.25500000000E-02 0. -1.
         -2   -1    0    0    0  501 -0.00000000000E+00 -0.00000000000E+00 -0.46979489328E+00  0.46980181380E+00  0.25500000000E-02 0.  1.
         31    1    1    2    0    0  0.35137358764E-01 -0.44777115395E+00  0.63492641624E+02  0.63929462692E+02  0.74470750000E+01 0. -1.
        -31    1    1    2    0    0 -0.35137358764E-01  0.44777115395E+00  0.55101986861E+02  0.55604762527E+02  0.74470750000E+01 0.  1.
<mgrwt>
<rscale>  0 0.14958111E+02</rscale>
<asrwt>0</asrwt>
<pdfrwt beam="1">  1        2 0.98839261E+00 0.14958111E+02</pdfrwt>
<pdfrwt beam="2">  1       -2 0.99776534E+00 0.14958111E+02</pdfrwt>
<totfact>-0.13787977E-13</totfact>
</mgrwt>
</event>
<event>
 4    1 -0.4882314E-019  0.1492387E+02  0.7818608E-02  0.1870400E+00
         -2   -1    0    0    0  501 -0.00000000000E+00  0.00000000000E+00  0.12001246109E+03  0.12001246112E+03  0.25500000000E-02 0.  1.
          2   -1    0    0  501    0  0.00000000000E+00 -0.00000000000E+00 -0.46395235994E+00  0.46395936761E+00  0.25500000000E-02 0. -1.
         31    1    1    2    0    0  0.32264172649E+00  0.31629447655E+00  0.60839805167E+02  0.61295554151E+02  0.74470750000E+01 0. -1.
        -31    1    1    2    0    0 -0.32264172649E+00 -0.31629447655E+00  0.58708703561E+02  0.59180866331E+02  0.74470750000E+01 0. -1.
<mgrwt>
<rscale>  0 0.14923872E+02</rscale>
<asrwt>0</asrwt>
<pdfrwt beam="2">  1        2 0.98543535E+00 0.14923872E+02</pdfrwt>
<pdfrwt beam="1">  1       -2 0.99618334E+00 0.14923872E+02</pdfrwt>
<totfact>-0.29739992E-13</totfact>
</mgrwt>
</event>
<event>
 4    1 -0.4882314E-019  0.1491756E+02  0.7818608E-02  0.1870595E+00
         -2   -1    0    0    0  501 -0.00000000000E+00  0.00000000000E+00  0.11994078306E+03  0.11994078309E+03  0.25500000000E-02 0. -1.
          2   -1    0    0  501    0  0.00000000000E+00 -0.00000000000E+00 -0.46383730948E+00  0.46384431889E+00  0.25500000000E-02 0.  1.
         31    1    1    2    0    0 -0.38779789397E+00  0.13253897947E+00  0.60391896239E+02  0.60850702636E+02  0.74470750000E+01 0. -1.
        -31    1    1    2    0    0  0.38779789397E+00 -0.13253897947E+00  0.59085049516E+02  0.59553924775E+02  0.74470750000E+01 0.  1.
<mgrwt>
<rscale>  0 0.14917565E+02</rscale>
<asrwt>0</asrwt>
<pdfrwt beam="2">  1        2 0.98518966E+00 0.14917565E+02</pdfrwt>
<pdfrwt beam="1">  1       -2 0.99558970E+00 0.14917565E+02</pdfrwt>
<totfact>-0.32766973E-13</totfact>
</mgrwt>
</event>
<event>
 4    1  0.4882314E-019  0.1490107E+02  0.7818608E-02  0.1871102E+00
         -2   -1    0    0    0  501 -0.00000000000E+00  0.00000000000E+00  0.11820766760E+03  0.11820766762E+03  0.25500000000E-02 0. -1.
          2   -1    0    0  501    0  0.00000000000E+00 -0.00000000000E+00 -0.46959780790E+00  0.46960473133E+00  0.25500000000E-02 0.  1.
         31    1    1    2    0    0  0.72260433669E-01 -0.19520560593E-01  0.57161887867E+02  0.57644999377E+02  0.74470750000E+01 0.  1.
        -31    1    1    2    0    0 -0.72260433669E-01  0.19520560593E-01  0.60576181920E+02  0.61032272977E+02  0.74470750000E+01 0. -1.
<mgrwt>
<rscale>  0 0.14901070E+02</rscale>
<asrwt>0</asrwt>
<pdfrwt beam="2">  1        2 0.99732002E+00 0.14901070E+02</pdfrwt>
<pdfrwt beam="1">  1       -2 0.98130672E+00 0.14901070E+02</pdfrwt>
<totfact> 0.76609291E-13</totfact>
</mgrwt>
</event>
<event>
 4    1 -0.4882314E-019  0.1493579E+02  0.7818608E-02  0.1870034E+00
         -2   -1    0    0    0  501 -0.00000000000E+00  0.00000000000E+00  0.11970659876E+03  0.11970659878E+03  0.25500000000E-02 0. -1.
          2   -1    0    0  501    0  0.00000000000E+00 -0.00000000000E+00 -0.46588081582E+00  0.46588779449E+00  0.25500000000E-02 0.  1.
         31    1    1    2    0    0 -0.11334977318E-01  0.45791071955E+00  0.57067219120E+02  0.57552899448E+02  0.74470750000E+01 0. -1.
        -31    1    1    2    0    0  0.11334977318E-01 -0.45791071955E+00  0.62173498821E+02  0.62619587131E+02  0.74470750000E+01 0.  1.
<mgrwt>
<rscale>  0 0.14935786E+02</rscale>
<asrwt>0</asrwt>
<pdfrwt beam="2">  1        2 0.98950571E+00 0.14935786E+02</pdfrwt>
<pdfrwt beam="1">  1       -2 0.99367020E+00 0.14935786E+02</pdfrwt>
<totfact>-0.17861030E-13</totfact>
</mgrwt>
</event>
<event>
 4    1 -0.4882314E-019  0.1497178E+02  0.7818608E-02  0.1868931E+00
          2   -1    0    0  501    0  0.00000000000E+00  0.00000000000E+00  0.11984940301E+03  0.11984940304E+03  0.25500000000E-02 0. -1.
         -2   -1    0    0    0  501 -0.00000000000E+00 -0.00000000000E+00 -0.46757100109E+00  0.46757795453E+00  0.25500000000E-02 0.  1.
         31    1    1    2    0    0  0.51597778676E+00  0.49893535695E+00  0.61730757935E+02  0.62182478005E+02  0.74470750000E+01 0. -1.
        -31    1    1    2    0    0 -0.51597778676E+00 -0.49893535695E+00  0.57651074076E+02  0.58134502989E+02  0.74470750000E+01 0. -1.
<mgrwt>
<rscale>  0 0.14971777E+02</rscale>
<asrwt>0</asrwt>
<pdfrwt beam="1">  1        2 0.99486498E+00 0.14971777E+02</pdfrwt>
<pdfrwt beam="2">  1       -2 0.99308616E+00 0.14971777E+02</pdfrwt>
<totfact>-0.10651457E-13</totfact>
</mgrwt>
</event>
<event>
 4    1 -0.4882314E-019  0.1498158E+02  0.7818608E-02  0.1868631E+00
          2   -1    0    0  501    0  0.00000000000E+00  0.00000000000E+00  0.11984199755E+03  0.11984199757E+03  0.25500000000E-02 0. -1.
         -2   -1    0    0    0  501 -0.00000000000E+00 -0.00000000000E+00 -0.46821275647E+00  0.46821970038E+00  0.25500000000E-02 0.  1.
         31    1    1    2    0    0  0.28527388474E+00 -0.61831932198E+00  0.63181287818E+02  0.63622305494E+02  0.74470750000E+01 0. -1.
        -31    1    1    2    0    0 -0.28527388474E+00  0.61831932198E+00  0.56192496971E+02  0.56687911779E+02  0.74470750000E+01 0.  1.
<mgrwt>
<rscale>  0 0.14981585E+02</rscale>
<asrwt>0</asrwt>
<pdfrwt beam="1">  1        2 0.99480905E+00 0.14981585E+02</pdfrwt>
<pdfrwt beam="2">  1       -2 0.99444364E+00 0.14981585E+02</pdfrwt>
<totfact>-0.12142479E-13</totfact>
</mgrwt>
</event>
<event>
 4    1  0.4882314E-019  0.1492897E+02  0.7818608E-02  0.1870244E+00
         -2   -1    0    0    0  501 -0.00000000000E+00  0.00000000000E+00  0.11882451623E+03  0.11882451626E+03  0.25500000000E-02 0.  1.
          2   -1    0    0  501    0  0.00000000000E+00 -0.00000000000E+00 -0.46891111444E+00  0.46891804800E+00  0.25500000000E-02 0. -1.
         31    1    1    2    0    0  0.67176573373E-01 -0.21052807193E+00  0.62846503981E+02  0.63286576961E+02  0.74470750000E+01 0.  1.
        -31    1    1    2    0    0 -0.67176573373E-01  0.21052807193E+00  0.55509101135E+02  0.56006857344E+02  0.74470750000E+01 0. -1.
<mgrwt>
<rscale>  0 0.14928972E+02</rscale>
<asrwt>0</asrwt>
<pdfrwt beam="2">  1        2 0.99588785E+00 0.14928972E+02</pdfrwt>
<pdfrwt beam="1">  1       -2 0.98640158E+00 0.14928972E+02</pdfrwt>
<totfact> 0.27879449E-13</totfact>
</mgrwt>
</event>
<event>
 4    1 -0.4882314E-019  0.1502724E+02  0.7818608E-02  0.1867238E+00
          2   -1    0    0  501    0  0.00000000000E+00  0.00000000000E+00  0.12026439928E+03  0.12026439930E+03  0.25500000000E-02 0.  1.
         -2   -1    0    0    0  501 -0.00000000000E+00 -0.00000000000E+00 -0.46941613391E+00  0.46942306002E+00  0.25500000000E-02 0. -1.
         31    1    1    2    0    0  0.82895945665E+00  0.54165493306E+00  0.60880809585E+02  0.61342582808E+02  0.74470750000E+01 0. -1.
        -31    1    1    2    0    0 -0.82895945665E+00 -0.54165493306E+00  0.58914173558E+02  0.59391239555E+02  0.74470750000E+01 0.  1.
<mgrwt>
<rscale>  0 0.15027238E+02</rscale>
<asrwt>0</asrwt>
<pdfrwt beam="1">  1        2 0.99831172E+00 0.15027238E+02</pdfrwt>
<pdfrwt beam="2">  1       -2 0.99700316E+00 0.15027238E+02</pdfrwt>
<totfact>-0.45823188E-14</totfact>
</mgrwt>
</event>
<event>
 4    1 -0.4882314E-019  0.1499858E+02  0.7818608E-02  0.1868112E+00
         -2   -1    0    0    0  501 -0.00000000000E+00  0.00000000000E+00  0.12041688655E+03  0.12041688658E+03  0.25500000000E-02 0. -1.
          2   -1    0    0  501    0  0.00000000000E+00 -0.00000000000E+00 -0.46703510906E+00  0.46704207048E+00  0.25500000000E-02 0.  1.
         31    1    1    2    0    0 -0.36966508977E+00 -0.75945679848E+00  0.62060863431E+02  0.62511783871E+02  0.74470750000E+01 0. -1.
        -31    1    1    2    0    0  0.36966508977E+00  0.75945679848E+00  0.57888988009E+02  0.58372144776E+02  0.74470750000E+01 0. -1.
<mgrwt>
<rscale>  0 0.14998578E+02</rscale>
<asrwt>0</asrwt>
<pdfrwt beam="2">  1        2 0.99197055E+00 0.14998578E+02</pdfrwt>
<pdfrwt beam="1">  1       -2 0.99955290E+00 0.14998578E+02</pdfrwt>
<totfact>-0.23043640E-14</totfact>
</mgrwt>
</event>
<event>
 4    1  0.4882314E-019  0.1492533E+02  0.7818608E-02  0.1870356E+00
          2   -1    0    0  501    0  0.00000000000E+00  0.00000000000E+00  0.12007379347E+03  0.12007379349E+03  0.25500000000E-02 0.  1.
         -2   -1    0    0    0  501 -0.00000000000E+00 -0.00000000000E+00 -0.46380604161E+00  0.46381305149E+00  0.25500000000E-02 0. -1.
         31    1    1    2    0    0 -0.19466849887E+00 -0.38795823351E+00  0.58110150299E+02  0.58587002835E+02  0.74470750000E+01 0. -1.
        -31    1    1    2    0    0  0.19466849887E+00  0.38795823351E+00  0.61499837126E+02  0.61950603709E+02  0.74470750000E+01 0. -1.
<mgrwt>
<rscale>  0 0.14925331E+02</rscale>
<asrwt>0</asrwt>
<pdfrwt beam="1">  1        2 0.99668927E+00 0.14925331E+02</pdfrwt>
<pdfrwt beam="2">  1       -2 0.98512771E+00 0.14925331E+02</pdfrwt>
<totfact> 0.36826653E-13</totfact>
</mgrwt>
</event>
<event>
 4    1 -0.4882314E-019  0.1495921E+02  0.7818608E-02  0.1869316E+00
          2   -1    0    0  501    0  0.00000000000E+00  0.00000000000E+00  0.11900566859E+03  0.11900566861E+03  0.25500000000E-02 0.  1.
         -2   -1    0    0    0  501 -0.00000000000E+00 -0.00000000000E+00 -0.47009613230E+00  0.47010304839E+00  0.25500000000E-02 0. -1.
         31    1    1    2    0    0 -0.60390472437E+00  0.15771258255E+00  0.56792930756E+02  0.57282505916E+02  0.74470750000E+01 0. -1.
        -31    1    1    2    0    0  0.60390472437E+00 -0.15771258255E+00  0.61742641698E+02  0.62193265746E+02  0.74470750000E+01 0.  1.
<mgrwt>
<rscale>  0 0.14959214E+02</rscale>
<asrwt>0</asrwt>
<pdfrwt beam="1">  1        2 0.98790927E+00 0.14959214E+02</pdfrwt>
<pdfrwt beam="2">  1       -2 0.99840066E+00 0.14959214E+02</pdfrwt>
<totfact>-0.11146657E-13</totfact>
</mgrwt>
</event>
<event>
 4    1  0.4882314E-019  0.1491179E+02  0.7818608E-02  0.1870772E+00
          2   -1    0    0  501    0  0.00000000000E+00  0.00000000000E+00  0.12004322840E+03  0.12004322842E+03  0.25500000000E-02 0. -1.
         -2   -1    0    0    0  501 -0.00000000000E+00 -0.00000000000E+00 -0.46308294408E+00  0.46308996491E+00  0.25500000000E-02 0.  1.
         31    1    1    2    0    0  0.22735855500E+00  0.28224261256E+00  0.59702503370E+02  0.60166262868E+02  0.74470750000E+01 0.  1.
        -31    1    1    2    0    0 -0.22735855500E+00 -0.28224261256E+00  0.59877642082E+02  0.60340055520E+02  0.74470750000E+01 0.  1.
<mgrwt>
<rscale>  0 0.14911793E+02</rscale>
<asrwt>0</asrwt>
<pdfrwt beam="1">  1        2 0.99643055E+00 0.14911793E+02</pdfrwt>
<pdfrwt beam="2">  1       -2 0.98359680E+00 0.14911793E+02</pdfrwt>
<totfact> 0.57453135E-13</totfact>
</mgrwt>
</event>
<event>
 4    1 -0.4882314E-019  0.1495345E+02  0.7818608E-02  0.1869492E+00
         -2   -1    0    0    0  501 -0.00000000000E+00  0.00000000000E+00  0.11983157339E+03  0.11983157342E+03  0.25500000000E-02 0.  1.
          2   -1    0    0  501    0  0.00000000000E+00 -0.00000000000E+00 -0.46649661864E+00  0.46650358809E+00  0.25500000000E-02 0. -1.
         31    1    1    2    0    0 -0.21064462111E+00  0.52374097180E+00  0.62513621248E+02  0.62958164231E+02  0.74470750000E+01 0.  1.
        -31    1    1    2    0    0  0.21064462111E+00 -0.52374097180E+00  0.56851455527E+02  0.57339912778E+02  0.74470750000E+01 0. -1.
<mgrwt>
<rscale>  0 0.14953454E+02</rscale>
<asrwt>0</asrwt>
<pdfrwt beam="2">  1        2 0.99081256E+00 0.14953454E+02</pdfrwt>
<pdfrwt beam="1">  1       -2 0.99470867E+00 0.14953454E+02</pdfrwt>
<totfact>-0.16645339E-13</totfact>
</mgrwt>
</event>
<event>
 4    1  0.4882314E-019  0.1490845E+02  0.7818608E-02  0.1870875E+00
         -2   -1    0    0    0  501 -0.00000000000E+00  0.00000000000E+00  0.11865439956E+03  0.11865439959E+03  0.25500000000E-02 0.  1.
          2   -1    0    0  501    0  0.00000000000E+00 -0.00000000000E+00 -0.46829318714E+00  0.46830012985E+00  0.25500000000E-02 0. -1.
         31    1    1    2    0    0  0.23671165540E+00 -0.21461166102E+00  0.58560306885E+02  0.59032792236E+02  0.74470750000E+01 0.  1.
        -31    1    1    2    0    0 -0.23671165540E+00  0.21461166102E+00  0.59625799491E+02  0.60089907485E+02  0.74470750000E+01 0.  1.
<mgrwt>
<rscale>  0 0.14908449E+02</rscale>
<asrwt>0</asrwt>
<pdfrwt beam="2">  1        2 0.99457505E+00 0.14908449E+02</pdfrwt>
<pdfrwt beam="1">  1       -2 0.98498983E+00 0.14908449E+02</pdfrwt>
<totfact> 0.50670317E-13</totfact>
</mgrwt>
</event>
<event>
 4    1 -0.4882314E-019  0.1500828E+02  0.7818608E-02  0.1867816E+00
         -2   -1    0    0    0  501 -0.00000000000E+00  0.00000000000E+00  0.11988537879E+03  0.11988537882E+03  0.25500000000E-02 0.  1.
          2   -1    0    0  501    0  0.00000000000E+00 -0.00000000000E+00 -0.46971291522E+00  0.46971983695E+00  0.25500000000E-02 0. -1.
         31    1    1    2    0    0 -0.23332064036E-01 -0.46842418699E+00  0.53326421335E+02  0.53845947889E+02  0.74470750000E+01 0. -1.
        -31    1    1    2    0    0  0.23332064036E-01  0.46842418699E+00  0.66089244539E+02  0.66509150764E+02  0.74470750000E+01 0.  1.
<mgrwt>
<rscale>  0 0.15008282E+02</rscale>
<asrwt>0</asrwt>
<pdfrwt beam="2">  1        2 0.99761877E+00 0.15008282E+02</pdfrwt>
<pdfrwt beam="1">  1       -2 0.99518016E+00 0.15008282E+02</pdfrwt>
<totfact>-0.74385234E-14</totfact>
</mgrwt>
</event>
<event>
 4    1 -0.4882314E-019  0.1498201E+02  0.7818608E-02  0.1868618E+00
         -2   -1    0    0    0  501 -0.00000000000E+00  0.00000000000E+00  0.11945102647E+03  0.11945102650E+03  0.25500000000E-02 0. -1.
          2   -1    0    0  501    0  0.00000000000E+00 -0.00000000000E+00 -0.46977201496E+00  0.46977893582E+00  0.25500000000E-02 0.  1.
         31    1    1    2    0    0 -0.44982798624E+00  0.33594508805E+00  0.54816244249E+02  0.55322642416E+02  0.74470750000E+01 0.  1.
        -31    1    1    2    0    0  0.44982798624E+00 -0.33594508805E+00  0.64165010207E+02  0.64598163017E+02  0.74470750000E+01 0. -1.
<mgrwt>
<rscale>  0 0.14982011E+02</rscale>
<asrwt>0</asrwt>
<pdfrwt beam="2">  1        2 0.99772964E+00 0.14982011E+02</pdfrwt>
<pdfrwt beam="1">  1       -2 0.99158912E+00 0.14982011E+02</pdfrwt>
<totfact>-0.39382088E-14</totfact>
</mgrwt>
</event>
<event>
 4    1  0.4882314E-019  0.1494174E+02  0.7818608E-02  0.1869851E+00
          2   -1    0    0  501    0  0.00000000000E+00  0.00000000000E+00  0.12003474352E+03  0.12003474354E+03  0.25500000000E-02 0.  1.
         -2   -1    0    0    0  501 -0.00000000000E+00 -0.00000000000E+00 -0.46497789410E+00  0.46498488632E+00  0.25500000000E-02 0. -1.
         31    1    1    2    0    0  0.39651861082E+00 -0.24937472078E-01  0.63365710585E+02  0.63803056767E+02  0.74470750000E+01 0.  1.
        -31    1    1    2    0    0 -0.39651861082E+00  0.24937472078E-01  0.56204055038E+02  0.56696671663E+02  0.74470750000E+01 0. -1.
<mgrwt>
<rscale>  0 0.14941744E+02</rscale>
<asrwt>0</asrwt>
<pdfrwt beam="1">  1        2 0.99637606E+00 0.14941744E+02</pdfrwt>
<pdfrwt beam="2">  1       -2 0.98760585E+00 0.14941744E+02</pdfrwt>
<totfact> 0.15564468E-13</totfact>
</mgrwt>
</event>
<event>
 4    1 -0.4882314E-019  0.1494606E+02  0.7818608E-02  0.1869719E+00
         -2   -1    0    0    0  501 -0.00000000000E+00  0.00000000000E+00  0.11953608956E+03  0.11953608959E+03  0.25500000000E-02 0. -1.
          2   -1    0    0  501    0  0.00000000000E+00 -0.00000000000E+00 -0.46718716653E+00  0.46719412568E+00  0.25500000000E-02 0.  1.
         31    1    1    2    0    0  0.42807926351E+00 -0.41502232702E+00  0.58104354187E+02  0.58582680008E+02  0.74470750000E+01 0.  1.
        -31    1    1    2    0    0 -0.42807926351E+00  0.41502232702E+00  0.60964548211E+02  0.61420603709E+02  0.74470750000E+01 0. -1.
<mgrwt>
<rscale>  0 0.14946056E+02</rscale>
<asrwt>0</asrwt>
<pdfrwt beam="2">  1        2 0.99226400E+00 0.14946056E+02</pdfrwt>
<pdfrwt beam="1">  1       -2 0.99227111E+00 0.14946056E+02</pdfrwt>
<totfact>-0.10788470E-13</totfact>
</mgrwt>
</event>
<event>
 4    1 -0.4882314E-019  0.1501568E+02  0.7818608E-02  0.1867590E+00
         -2   -1    0    0    0  501 -0.00000000000E+00  0.00000000000E+00  0.12009222459E+03  0.12009222462E+03  0.25500000000E-02 0.  1.
          2   -1    0    0  501    0  0.00000000000E+00 -0.00000000000E+00 -0.46936646246E+00  0.46937338930E+00  0.25500000000E-02 0. -1.
         31    1    1    2    0    0 -0.48200080282E+00 -0.63328911358E+00  0.55598085607E+02  0.56100262291E+02  0.74470750000E+01 0. -1.
        -31    1    1    2    0    0  0.48200080282E+00  0.63328911358E+00  0.64024772521E+02  0.64461335716E+02  0.74470750000E+01 0. -1.
<mgrwt>
<rscale>  0 0.15015683E+02</rscale>
<asrwt>0</asrwt>
<pdfrwt beam="2">  1        2 0.99689252E+00 0.15015683E+02</pdfrwt>
<pdfrwt beam="1">  1       -2 0.99688764E+00 0.15015683E+02</pdfrwt>
<totfact>-0.73944574E-14</totfact>
</mgrwt>
</event>
<event>
 4    1 -0.4882314E-019  0.1496305E+02  0.7818608E-02  0.1869198E+00
         -2   -1    0    0    0  501 -0.00000000000E+00  0.00000000000E+00  0.11976856855E+03  0.11976856857E+03  0.25500000000E-02 0.  1.
          2   -1    0    0  501    0  0.00000000000E+00 -0.00000000000E+00 -0.46734153522E+00  0.46734849207E+00  0.25500000000E-02 0. -1.
         31    1    1    2    0    0  0.43429840772E+00 -0.56373038827E+00  0.60365433676E+02  0.60827221834E+02  0.74470750000E+01 0. -1.
        -31    1    1    2    0    0 -0.43429840772E+00  0.56373038827E+00  0.58935793336E+02  0.59408695233E+02  0.74470750000E+01 0. -1.
<mgrwt>
<rscale>  0 0.14963054E+02</rscale>
<asrwt>0</asrwt>
<pdfrwt beam="2">  1        2 0.99259809E+00 0.14963054E+02</pdfrwt>
<pdfrwt beam="1">  1       -2 0.99419469E+00 0.14963054E+02</pdfrwt>
<totfact>-0.14344135E-13</totfact>
</mgrwt>
</event>
<event>
 4    1 -0.4882314E-019  0.1494058E+02  0.7818608E-02  0.1869887E+00
         -2   -1    0    0    0  501 -0.00000000000E+00  0.00000000000E+00  0.11971405892E+03  0.11971405895E+03  0.25500000000E-02 0.  1.
          2   -1    0    0  501    0  0.00000000000E+00 -0.00000000000E+00 -0.46615081641E+00  0.46615779104E+00  0.25500000000E-02 0. -1.
         31    1    1    2    0    0  0.46639341855E+00 -0.35626933764E+00  0.59277943410E+02  0.59746781936E+02  0.74470750000E+01 0. -1.
        -31    1    1    2    0    0 -0.46639341855E+00  0.35626933764E+00  0.59969964698E+02  0.60433434807E+02  0.74470750000E+01 0. -1.
<mgrwt>
<rscale>  0 0.14940579E+02</rscale>
<asrwt>0</asrwt>
<pdfrwt beam="2">  1        2 0.99007719E+00 0.14940579E+02</pdfrwt>
<pdfrwt beam="1">  1       -2 0.99373412E+00 0.14940579E+02</pdfrwt>
<totfact>-0.16985022E-13</totfact>
</mgrwt>
</event>
<event>
 4    1 -0.4882314E-019  0.1499961E+02  0.7818608E-02  0.1868080E+00
         -2   -1    0    0    0  501 -0.00000000000E+00  0.00000000000E+00  0.11975245731E+03  0.11975245734E+03  0.25500000000E-02 0.  1.
          2   -1    0    0  501    0  0.00000000000E+00 -0.00000000000E+00 -0.46969092619E+00  0.46969784824E+00  0.25500000000E-02 0. -1.
         31    1    1    2    0    0 -0.10448822990E+00  0.75900058904E+00  0.63235961598E+02  0.63677568774E+02  0.74470750000E+01 0. -1.
        -31    1    1    2    0    0  0.10448822990E+00 -0.75900058904E+00  0.56046804786E+02  0.56544586412E+02  0.74470750000E+01 0.  1.
<mgrwt>
<rscale>  0 0.14999608E+02</rscale>
<asrwt>0</asrwt>
<pdfrwt beam="2">  1        2 0.99756793E+00 0.14999608E+02</pdfrwt>
<pdfrwt beam="1">  1       -2 0.99408089E+00 0.14999608E+02</pdfrwt>
<totfact>-0.74691093E-14</totfact>
</mgrwt>
</event>
<event>
 4    1 -0.4882314E-019  0.1499807E+02  0.7818608E-02  0.1868127E+00
          2   -1    0    0  501    0  0.00000000000E+00  0.00000000000E+00  0.12010011250E+03  0.12010011253E+03  0.25500000000E-02 0.  1.
         -2   -1    0    0    0  501 -0.00000000000E+00 -0.00000000000E+00 -0.46823544315E+00  0.46824238672E+00  0.25500000000E-02 0. -1.
         31    1    1    2    0    0 -0.55151813037E+00  0.64800496223E+00  0.61658604232E+02  0.62112530818E+02  0.74470750000E+01 0.  1.
        -31    1    1    2    0    0  0.55151813037E+00 -0.64800496223E+00  0.57973272825E+02  0.58455824096E+02  0.74470750000E+01 0. -1.
<mgrwt>
<rscale>  0 0.14998073E+02</rscale>
<asrwt>0</asrwt>
<pdfrwt beam="1">  1        2 0.99694352E+00 0.14998073E+02</pdfrwt>
<pdfrwt beam="2">  1       -2 0.99449995E+00 0.14998073E+02</pdfrwt>
<totfact>-0.89155667E-14</totfact>
</mgrwt>
</event>
<event>
 4    1  0.4882314E-019  0.1490516E+02  0.7818608E-02  0.1870976E+00
         -2   -1    0    0    0  501 -0.00000000000E+00  0.00000000000E+00  0.11827956697E+03  0.11827956700E+03  0.25500000000E-02 0. -1.
          2   -1    0    0  501    0  0.00000000000E+00 -0.00000000000E+00 -0.46956997326E+00  0.46957689710E+00  0.25500000000E-02 0.  1.
         31    1    1    2    0    0 -0.11220036283E+00 -0.49656101214E-01  0.60966663982E+02  0.61419932414E+02  0.74470750000E+01 0. -1.
        -31    1    1    2    0    0  0.11220036283E+00  0.49656101214E-01  0.56843333014E+02  0.57329211479E+02  0.74470750000E+01 0.  1.
<mgrwt>
<rscale>  0 0.14905160E+02</rscale>
<asrwt>0</asrwt>
<pdfrwt beam="2">  1        2 0.99726354E+00 0.14905160E+02</pdfrwt>
<pdfrwt beam="1">  1       -2 0.98190101E+00 0.14905160E+02</pdfrwt>
<totfact> 0.69359515E-13</totfact>
</mgrwt>
</event>
<event>
 4    1 -0.4882314E-019  0.1496681E+02  0.7818608E-02  0.1869083E+00
          2   -1    0    0  501    0  0.00000000000E+00  0.00000000000E+00  0.11944066389E+03  0.11944066392E+03  0.25500000000E-02 0. -1.
         -2   -1    0    0    0  501 -0.00000000000E+00 -0.00000000000E+00 -0.46885965386E+00  0.46886658819E+00  0.25500000000E-02 0.  1.
         31    1    1    2    0    0 -0.20623323066E+00 -0.61946999383E+00  0.62216051174E+02  0.62663563775E+02  0.74470750000E+01 0. -1.
        -31    1    1    2    0    0  0.20623323066E+00  0.61946999383E+00  0.56755753067E+02  0.57245966736E+02  0.74470750000E+01 0. -1.
<mgrwt>
<rscale>  0 0.14966807E+02</rscale>
<asrwt>0</asrwt>
<pdfrwt beam="1">  1        2 0.99149589E+00 0.14966807E+02</pdfrwt>
<pdfrwt beam="2">  1       -2 0.99579918E+00 0.14966807E+02</pdfrwt>
<totfact>-0.15044172E-13</totfact>
</mgrwt>
</event>
<event>
 4    1 -0.4882314E-019  0.1497061E+02  0.7818608E-02  0.1868967E+00
         -2   -1    0    0    0  501 -0.00000000000E+00  0.00000000000E+00  0.11949869544E+03  0.11949869547E+03  0.25500000000E-02 0.  1.
          2   -1    0    0  501    0  0.00000000000E+00 -0.00000000000E+00 -0.46887046337E+00  0.46887739754E+00  0.25500000000E-02 0. -1.
         31    1    1    2    0    0  0.61892668316E+00  0.12424165386E+00  0.62842161481E+02  0.63285027391E+02  0.74470750000E+01 0.  1.
        -31    1    1    2    0    0 -0.61892668316E+00 -0.12424165386E+00  0.56187663500E+02  0.56682545478E+02  0.74470750000E+01 0.  1.
<mgrwt>
<rscale>  0 0.14970615E+02</rscale>
<asrwt>0</asrwt>
<pdfrwt beam="2">  1        2 0.99582394E+00 0.14970615E+02</pdfrwt>
<pdfrwt beam="1">  1       -2 0.99197583E+00 0.14970615E+02</pdfrwt>
<totfact>-0.70770019E-14</totfact>
</mgrwt>
</event>
<event>
 4    1 -0.4882314E-019  0.1493967E+02  0.7818608E-02  0.1869915E+00
          2   -1    0    0  501    0  0.00000000000E+00  0.00000000000E+00  0.11948219841E+03  0.11948219844E+03  0.25500000000E-02 0. -1.
         -2   -1    0    0    0  501 -0.00000000000E+00 -0.00000000000E+00 -0.46699852605E+00  0.46700548801E+00  0.25500000000E-02 0.  1.
         31    1    1    2    0    0 -0.52490388415E+00 -0.54048735205E-02  0.61537982617E+02  0.61989174731E+02  0.74470750000E+01 0.  1.
        -31    1    1    2    0    0  0.52490388415E+00  0.54048735205E-02  0.57477217269E+02  0.57960029196E+02  0.74470750000E+01 0. -1.
<mgrwt>
<rscale>  0 0.14939669E+02</rscale>
<asrwt>0</asrwt>
<pdfrwt beam="1">  1        2 0.99182394E+00 0.14939669E+02</pdfrwt>
<pdfrwt beam="2">  1       -2 0.99186317E+00 0.14939669E+02</pdfrwt>
<totfact>-0.95732616E-14</totfact>
</mgrwt>
</event>
<event>
 4    1  0.4882314E-019  0.1497075E+02  0.7818608E-02  0.1868963E+00
         -2   -1    0    0    0  501 -0.00000000000E+00  0.00000000000E+00  0.11909086140E+03  0.11909086142E+03  0.25500000000E-02 0. -1.
          2   -1    0    0  501    0  0.00000000000E+00 -0.00000000000E+00 -0.47048436836E+00  0.47049127874E+00  0.25500000000E-02 0.  1.
         31    1    1    2    0    0 -0.63129584869E+00 -0.21310111492E+00  0.56453683156E+02  0.56946652355E+02  0.74470750000E+01 0.  1.
        -31    1    1    2    0    0  0.63129584869E+00  0.21310111492E+00  0.62166693871E+02  0.62614700346E+02  0.74470750000E+01 0. -1.
<mgrwt>
<rscale>  0 0.14970745E+02</rscale>
<asrwt>0</asrwt>
<pdfrwt beam="2">  1        2 0.99922476E+00 0.14970745E+02</pdfrwt>
<pdfrwt beam="1">  1       -2 0.98861692E+00 0.14970745E+02</pdfrwt>
<totfact> 0.24601898E-14</totfact>
</mgrwt>
</event>
<event>
 4    1  0.4882314E-019  0.1493975E+02  0.7818608E-02  0.1869913E+00
         -2   -1    0    0    0  501 -0.00000000000E+00  0.00000000000E+00  0.11903596190E+03  0.11903596193E+03  0.25500000000E-02 0. -1.
          2   -1    0    0  501    0  0.00000000000E+00 -0.00000000000E+00 -0.46875436547E+00  0.46876130136E+00  0.25500000000E-02 0.  1.
         31    1    1    2    0    0  0.17793966278E+00 -0.42542942494E+00  0.56427752321E+02  0.56918914350E+02  0.74470750000E+01 0.  1.
        -31    1    1    2    0    0 -0.17793966278E+00  0.42542942494E+00  0.62139455217E+02  0.62585808882E+02  0.74470750000E+01 0. -1.
<mgrwt>
<rscale>  0 0.14939751E+02</rscale>
<asrwt>0</asrwt>
<pdfrwt beam="2">  1        2 0.99556320E+00 0.14939751E+02</pdfrwt>
<pdfrwt beam="1">  1       -2 0.98814866E+00 0.14939751E+02</pdfrwt>
<totfact> 0.13006983E-13</totfact>
</mgrwt>
</event>
<event>
 4    1 -0.4882314E-019  0.1501796E+02  0.7818608E-02  0.1867521E+00
          2   -1    0    0  501    0  0.00000000000E+00  0.00000000000E+00  0.12013371255E+03  0.12013371257E+03  0.25500000000E-02 0. -1.
         -2   -1    0    0    0  501 -0.00000000000E+00 -0.00000000000E+00 -0.46934696980E+00  0.46935389692E+00  0.25500000000E-02 0.  1.
         31    1    1    2    0    0 -0.67507705165E+00 -0.54982243426E+00  0.56542057038E+02  0.57037015822E+02  0.74470750000E+01 0.  1.
        -31    1    1    2    0    0  0.67507705165E+00  0.54982243426E+00  0.63122308538E+02  0.63566050648E+02  0.74470750000E+01 0. -1.
<mgrwt>
<rscale>  0 0.15017964E+02</rscale>
<asrwt>0</asrwt>
<pdfrwt beam="1">  1        2 0.99723054E+00 0.15017964E+02</pdfrwt>
<pdfrwt beam="2">  1       -2 0.99685262E+00 0.15017964E+02</pdfrwt>
<totfact>-0.68844687E-14</totfact>
</mgrwt>
</event>
<event>
 4    1  0.4882314E-019  0.1491652E+02  0.7818608E-02  0.1870627E+00
         -2   -1    0    0    0  501 -0.00000000000E+00  0.00000000000E+00  0.11834277692E+03  0.11834277694E+03  0.25500000000E-02 0.  1.
          2   -1    0    0  501    0  0.00000000000E+00 -0.00000000000E+00 -0.47003514735E+00  0.47004206433E+00  0.25500000000E-02 0. -1.
         31    1    1    2    0    0  0.30579169245E+00  0.20914496757E+00  0.60304456482E+02  0.60763670460E+02  0.74470750000E+01 0. -1.
        -31    1    1    2    0    0 -0.30579169245E+00 -0.20914496757E+00  0.57568285287E+02  0.58049148548E+02  0.74470750000E+01 0. -1.
<mgrwt>
<rscale>  0 0.14916525E+02</rscale>
<asrwt>0</asrwt>
<pdfrwt beam="2">  1        2 0.99824965E+00 0.14916525E+02</pdfrwt>
<pdfrwt beam="1">  1       -2 0.98242752E+00 0.14916525E+02</pdfrwt>
<totfact> 0.44464924E-13</totfact>
</mgrwt>
</event>
<event>
 4    1 -0.4882314E-019  0.1494384E+02  0.7818608E-02  0.1869787E+00
         -2   -1    0    0    0  501 -0.00000000000E+00  0.00000000000E+00  0.12038186403E+03  0.12038186405E+03  0.25500000000E-02 0. -1.
          2   -1    0    0  501    0  0.00000000000E+00 -0.00000000000E+00 -0.46376730532E+00  0.46377431578E+00  0.25500000000E-02 0.  1.
         31    1    1    2    0    0 -0.11193358341E+00 -0.59801720902E-01  0.64774284331E+02  0.65201096172E+02  0.74470750000E+01 0. -1.
        -31    1    1    2    0    0  0.11193358341E+00  0.59801720902E-01  0.55143812389E+02  0.55644542196E+02  0.74470750000E+01 0.  1.
<mgrwt>
<rscale>  0 0.14943841E+02</rscale>
<asrwt>0</asrwt>
<pdfrwt beam="2">  1        2 0.98505545E+00 0.14943841E+02</pdfrwt>
<pdfrwt beam="1">  1       -2 0.99923629E+00 0.14943841E+02</pdfrwt>
<totfact>-0.87058462E-14</totfact>
</mgrwt>
</event>
<event>
 4    1 -0.4882314E-019  0.1492501E+02  0.7818608E-02  0.1870366E+00
          2   -1    0    0  501    0  0.00000000000E+00  0.00000000000E+00  0.11921964838E+03  0.11921964841E+03  0.25500000000E-02 0.  1.
         -2   -1    0    0    0  501 -0.00000000000E+00 -0.00000000000E+00 -0.46710885900E+00  0.46711581932E+00  0.25500000000E-02 0. -1.
         31    1    1    2    0    0  0.33204923257E+00 -0.34095763711E+00  0.58899330577E+02  0.59370165717E+02  0.74470750000E+01 0. -1.
        -31    1    1    2    0    0 -0.33204923257E+00  0.34095763711E+00  0.59853208943E+02  0.60316598508E+02  0.74470750000E+01 0. -1.
<mgrwt>
<rscale>  0 0.14925009E+02</rscale>
<asrwt>0</asrwt>
<pdfrwt beam="1">  1        2 0.98965391E+00 0.14925009E+02</pdfrwt>
<pdfrwt beam="2">  1       -2 0.99208808E+00 0.14925009E+02</pdfrwt>
<totfact>-0.12618110E-13</totfact>
</mgrwt>
</event>
<event>
 4    1 -0.4882314E-019  0.1492421E+02  0.7818608E-02  0.1870390E+00
          2   -1    0    0  501    0  0.00000000000E+00  0.00000000000E+00  0.11872589222E+03  0.11872589225E+03  0.25500000000E-02 0.  1.
         -2   -1    0    0    0  501 -0.00000000000E+00 -0.00000000000E+00 -0.46900126062E+00  0.46900819285E+00  0.25500000000E-02 0. -1.
         31    1    1    2    0    0 -0.21041392304E+00 -0.35391966104E+00  0.60993787695E+02  0.61448113043E+02  0.74470750000E+01 0.  1.
        -31    1    1    2    0    0  0.21041392304E+00  0.35391966104E+00  0.57263103268E+02  0.57746787400E+02  0.74470750000E+01 0. -1.
<mgrwt>
<rscale>  0 0.14924210E+02</rscale>
<asrwt>0</asrwt>
<pdfrwt beam="1">  1        2 0.98558683E+00 0.14924210E+02</pdfrwt>
<pdfrwt beam="2">  1       -2 0.99607530E+00 0.14924210E+02</pdfrwt>
<totfact>-0.29412640E-13</totfact>
</mgrwt>
</event>
<event>
 4    1  0.4882314E-019  0.1490801E+02  0.7818608E-02  0.1870889E+00
          2   -1    0    0  501    0  0.00000000000E+00  0.00000000000E+00  0.11980941395E+03  0.11980941397E+03  0.25500000000E-02 0.  1.
         -2   -1    0    0    0  501 -0.00000000000E+00 -0.00000000000E+00 -0.46375106470E+00  0.46375807541E+00  0.25500000000E-02 0. -1.
         31    1    1    2    0    0  0.18730640502E+00 -0.23677295563E+00  0.60560106143E+02  0.61017018341E+02  0.74470750000E+01 0. -1.
        -31    1    1    2    0    0 -0.18730640502E+00  0.23677295563E+00  0.58785556738E+02  0.59256153707E+02  0.74470750000E+01 0.  1.
<mgrwt>
<rscale>  0 0.14908007E+02</rscale>
<asrwt>0</asrwt>
<pdfrwt beam="1">  1        2 0.99450274E+00 0.14908007E+02</pdfrwt>
<pdfrwt beam="2">  1       -2 0.98500302E+00 0.14908007E+02</pdfrwt>
<totfact> 0.50814673E-13</totfact>
</mgrwt>
</event>
<event>
 4    1 -0.4882314E-019  0.1492337E+02  0.7818608E-02  0.1870416E+00
          2   -1    0    0  501    0  0.00000000000E+00  0.00000000000E+00  0.11917935044E+03  0.11917935046E+03  0.25500000000E-02 0. -1.
         -2   -1    0    0    0  501 -0.00000000000E+00 -0.00000000000E+00 -0.46716393653E+00  0.46717089603E+00  0.25500000000E-02 0.  1.
         31    1    1    2    0    0  0.83233998510E-01 -0.33610190751E+00  0.61864577559E+02  0.62312155917E+02  0.74470750000E+01 0. -1.
        -31    1    1    2    0    0 -0.83233998510E-01  0.33610190751E+00  0.56847608940E+02  0.57334365442E+02  0.74470750000E+01 0.  1.
<mgrwt>
<rscale>  0 0.14923366E+02</rscale>
<asrwt>0</asrwt>
<pdfrwt beam="1">  1        2 0.98932115E+00 0.14923366E+02</pdfrwt>
<pdfrwt beam="2">  1       -2 0.99220329E+00 0.14923366E+02</pdfrwt>
<totfact>-0.13595406E-13</totfact>
</mgrwt>
</event>
<event>
 4    1 -0.4882314E-019  0.1490261E+02  0.7818608E-02  0.1871055E+00
         -2   -1    0    0    0  501 -0.00000000000E+00  0.00000000000E+00  0.11998847533E+03  0.11998847535E+03  0.25500000000E-02 0.  1.
          2   -1    0    0  501    0  0.00000000000E+00 -0.00000000000E+00 -0.46272395428E+00  0.46273098055E+00  0.25500000000E-02 0. -1.
         31    1    1    2    0    0 -0.10091685987E+00  0.21431247176E+00  0.59090202005E+02  0.59558097796E+02  0.74470750000E+01 0. -1.
        -31    1    1    2    0    0  0.10091685987E+00 -0.21431247176E+00  0.60435549367E+02  0.60893108538E+02  0.74470750000E+01 0. -1.
<mgrwt>
<rscale>  0 0.14902613E+02</rscale>
<asrwt>0</asrwt>
<pdfrwt beam="2">  1        2 0.98283552E+00 0.14902613E+02</pdfrwt>
<pdfrwt beam="1">  1       -2 0.99597485E+00 0.14902613E+02</pdfrwt>
<totfact>-0.46848744E-13</totfact>
</mgrwt>
</event>
<event>
 4    1  0.4882314E-019  0.1491596E+02  0.7818608E-02  0.1870644E+00
          2   -1    0    0  501    0  0.00000000000E+00  0.00000000000E+00  0.11993467750E+03  0.11993467752E+03  0.25500000000E-02 0. -1.
         -2   -1    0    0    0  501 -0.00000000000E+00 -0.00000000000E+00 -0.46376136840E+00  0.46376837895E+00  0.25500000000E-02 0.  1.
         31    1    1    2    0    0 -0.25470633189E+00 -0.13198989117E+00  0.57448547377E+02  0.57929930247E+02  0.74470750000E+01 0.  1.
        -31    1    1    2    0    0  0.25470633189E+00  0.13198989117E+00  0.62022368751E+02  0.62468515655E+02  0.74470750000E+01 0. -1.
<mgrwt>
<rscale>  0 0.14915964E+02</rscale>
<asrwt>0</asrwt>
<pdfrwt beam="1">  1        2 0.99553859E+00 0.14915964E+02</pdfrwt>
<pdfrwt beam="2">  1       -2 0.98502879E+00 0.14915964E+02</pdfrwt>
<totfact> 0.45258437E-13</totfact>
</mgrwt>
</event>
<event>
 4    1  0.4882314E-019  0.1491032E+02  0.7818608E-02  0.1870818E+00
         -2   -1    0    0    0  501 -0.00000000000E+00  0.00000000000E+00  0.11855219766E+03  0.11855219769E+03  0.25500000000E-02 0.  1.
          2   -1    0    0  501    0  0.00000000000E+00 -0.00000000000E+00 -0.46881439845E+00  0.46882133344E+00  0.25500000000E-02 0. -1.
         31    1    1    2    0    0 -0.17274255651E+00  0.22875064146E+00  0.60603862728E+02  0.61060373979E+02  0.74470750000E+01 0.  1.
        -31    1    1    2    0    0  0.17274255651E+00 -0.22875064146E+00  0.57479520535E+02  0.57960645043E+02  0.74470750000E+01 0. -1.
<mgrwt>
<rscale>  0 0.14910317E+02</rscale>
<asrwt>0</asrwt>
<pdfrwt beam="2">  1        2 0.99567426E+00 0.14910317E+02</pdfrwt>
<pdfrwt beam="1">  1       -2 0.98414906E+00 0.14910317E+02</pdfrwt>
<totfact> 0.56263851E-13</totfact>
</mgrwt>
</event>
<event>
 4    1  0.4882314E-019  0.1491415E+02  0.7818608E-02  0.1870700E+00
         -2   -1    0    0    0  501 -0.00000000000E+00  0.00000000000E+00  0.11827399929E+03  0.11827399932E+03  0.25500000000E-02 0.  1.
          2   -1    0    0  501    0  0.00000000000E+00 -0.00000000000E+00 -0.47015892804E+00  0.47016584321E+00  0.25500000000E-02 0. -1.
         31    1    1    2    0    0 -0.22124759496E+00  0.13069783667E+00  0.61196125950E+02  0.61648120732E+02  0.74470750000E+01 0.  1.
        -31    1    1    2    0    0  0.22124759496E+00 -0.13069783667E+00  0.56607714414E+02  0.57096044430E+02  0.74470750000E+01 0. -1.
<mgrwt>
<rscale>  0 0.14914153E+02</rscale>
<asrwt>0</asrwt>
<pdfrwt beam="2">  1        2 0.99850919E+00 0.14914153E+02</pdfrwt>
<pdfrwt beam="1">  1       -2 0.98185984E+00 0.14914153E+02</pdfrwt>
<totfact> 0.43706208E-13</totfact>
</mgrwt>
</event>
<event>
 4    1 -0.4882314E-019  0.1495880E+02  0.7818608E-02  0.1869328E+00
         -2   -1    0    0    0  501 -0.00000000000E+00  0.00000000000E+00  0.11980811828E+03  0.11980811831E+03  0.25500000000E-02 0.  1.
          2   -1    0    0  501    0  0.00000000000E+00 -0.00000000000E+00 -0.46692169354E+00  0.46692865665E+00  0.25500000000E-02 0. -1.
         31    1    1    2    0    0  0.52826087385E+00  0.44408478502E+00  0.60305382321E+02  0.60767378862E+02  0.74470750000E+01 0.  1.
        -31    1    1    2    0    0 -0.52826087385E+00 -0.44408478502E+00  0.59035814268E+02  0.59507668104E+02  0.74470750000E+01 0. -1.
<mgrwt>
<rscale>  0 0.14958801E+02</rscale>
<asrwt>0</asrwt>
<pdfrwt beam="2">  1        2 0.99171112E+00 0.14958801E+02</pdfrwt>
<pdfrwt beam="1">  1       -2 0.99451824E+00 0.14958801E+02</pdfrwt>
<totfact>-0.15468366E-13</totfact>
</mgrwt>
</event>
<event>
 4    1 -0.4882314E-019  0.1493119E+02  0.7818608E-02  0.1870175E+00
          2   -1    0    0  501    0  0.00000000000E+00  0.00000000000E+00  0.11940630841E+03  0.11940630844E+03  0.25500000000E-02 0. -1.
         -2   -1    0    0    0  501 -0.00000000000E+00 -0.00000000000E+00 -0.46676522128E+00  0.46677218672E+00  0.25500000000E-02 0.  1.
         31    1    1    2    0    0  0.31477431260E+00  0.14105381633E+00  0.56286385487E+02  0.56777945509E+02  0.74470750000E+01 0.  1.
        -31    1    1    2    0    0 -0.31477431260E+00 -0.14105381633E+00  0.62653157706E+02  0.63095135119E+02  0.74470750000E+01 0.  1.
<mgrwt>
<rscale>  0 0.14931193E+02</rscale>
<asrwt>0</asrwt>
<pdfrwt beam="1">  1        2 0.99119450E+00 0.14931193E+02</pdfrwt>
<pdfrwt beam="2">  1       -2 0.99136714E+00 0.14931193E+02</pdfrwt>
<totfact>-0.76706346E-14</totfact>
</mgrwt>
</event>
<event>
 4    1 -0.4882314E-019  0.1491889E+02  0.7818608E-02  0.1870554E+00
         -2   -1    0    0    0  501 -0.00000000000E+00  0.00000000000E+00  0.11964458048E+03  0.11964458051E+03  0.25500000000E-02 0.  1.
          2   -1    0    0  501    0  0.00000000000E+00 -0.00000000000E+00 -0.46506850391E+00  0.46507549476E+00  0.25500000000E-02 0. -1.
         31    1    1    2    0    0  0.37095537573E-01  0.18780432019E+00  0.56494891340E+02  0.56983930367E+02  0.74470750000E+01 0. -1.
        -31    1    1    2    0    0 -0.37095537573E-01 -0.18780432019E+00  0.62684620636E+02  0.63125725634E+02  0.74470750000E+01 0.  1.
<mgrwt>
<rscale>  0 0.14918894E+02</rscale>
<asrwt>0</asrwt>
<pdfrwt beam="2">  1        2 0.98778513E+00 0.14918894E+02</pdfrwt>
<pdfrwt beam="1">  1       -2 0.99315067E+00 0.14918894E+02</pdfrwt>
<totfact>-0.20440277E-13</totfact>
</mgrwt>
</event>
<event>
 4    1  0.4882314E-019  0.1490468E+02  0.7818608E-02  0.1870991E+00
          2   -1    0    0  501    0  0.00000000000E+00  0.00000000000E+00  0.11989421349E+03  0.11989421352E+03  0.25500000000E-02 0. -1.
         -2   -1    0    0    0  501 -0.00000000000E+00 -0.00000000000E+00 -0.46321637119E+00  0.46322339000E+00  0.25500000000E-02 0.  1.
         31    1    1    2    0    0 -0.12111189911E-01  0.20165560408E+00  0.61282342589E+02  0.61733501852E+02  0.74470750000E+01 0. -1.
        -31    1    1    2    0    0  0.12111189911E-01 -0.20165560408E+00  0.58148654533E+02  0.58623935058E+02  0.74470750000E+01 0.  1.
<mgrwt>
<rscale>  0 0.14904682E+02</rscale>
<asrwt>0</asrwt>
<pdfrwt beam="1">  1        2 0.99519950E+00 0.14904682E+02</pdfrwt>
<pdfrwt beam="2">  1       -2 0.98387441E+00 0.14904682E+02</pdfrwt>
<totfact> 0.63711174E-13</totfact>
</mgrwt>
</event>
<event>
 4    1 -0.4882314E-019  0.1492304E+02  0.7818608E-02  0.1870426E+00
          2   -1    0    0  501    0  0.00000000000E+00  0.00000000000E+00  0.11873791349E+03  0.11873791352E+03  0.25500000000E-02 0. -1.
         -2   -1    0    0    0  501 -0.00000000000E+00 -0.00000000000E+00 -0.46888057647E+00  0.46888751048E+00  0.25500000000E-02 0.  1.
         31    1    1    2    0    0 -0.56131531604E-01 -0.43869655489E+00  0.60258109854E+02  0.60718154902E+02  0.74470750000E+01 0.  1.
        -31    1    1    2    0    0  0.56131531604E-01  0.43869655489E+00  0.58010923061E+02  0.58488646128E+02  0.74470750000E+01 0.  1.
<mgrwt>
<rscale>  0 0.14923045E+02</rscale>
<asrwt>0</asrwt>
<pdfrwt beam="1">  1        2 0.98568524E+00 0.14923045E+02</pdfrwt>
<pdfrwt beam="2">  1       -2 0.99582039E+00 0.14923045E+02</pdfrwt>
<totfact>-0.29727892E-13</totfact>
</mgrwt>
</event>
<event>
 4    1  0.4882314E-019  0.1490512E+02  0.7818608E-02  0.1870978E+00
         -2   -1    0    0    0  501 -0.00000000000E+00  0.00000000000E+00  0.11822337666E+03  0.11822337669E+03  0.25500000000E-02 0.  1.
          2   -1    0    0  501    0  0.00000000000E+00 -0.00000000000E+00 -0.46979068603E+00  0.46979760661E+00  0.25500000000E-02 0. -1.
         31    1    1    2    0    0  0.91423454783E-02 -0.49370070922E-01  0.61117942050E+02  0.61569995025E+02  0.74470750000E+01 0.  1.
        -31    1    1    2    0    0 -0.91423454783E-02  0.49370070922E-01  0.56635643922E+02  0.57123179266E+02  0.74470750000E+01 0. -1.
<mgrwt>
<rscale>  0 0.14905120E+02</rscale>
<asrwt>0</asrwt>
<pdfrwt beam="2">  1        2 0.99772855E+00 0.14905120E+02</pdfrwt>
<pdfrwt beam="1">  1       -2 0.98143821E+00 0.14905120E+02</pdfrwt>
<totfact> 0.66252824E-13</totfact>
</mgrwt>
</event>
<event>
 4    1  0.4882314E-019  0.1494621E+02  0.7818608E-02  0.1869714E+00
          2   -1    0    0  501    0  0.00000000000E+00  0.00000000000E+00  0.12037409227E+03  0.12037409229E+03  0.25500000000E-02 0.  1.
         -2   -1    0    0    0  501 -0.00000000000E+00 -0.00000000000E+00 -0.46394416933E+00  0.46395117712E+00  0.25500000000E-02 0. -1.
         31    1    1    2    0    0 -0.31141721611E+00 -0.14465908236E+00  0.64159593744E+02  0.64591255619E+02  0.74470750000E+01 0.  1.
        -31    1    1    2    0    0  0.31141721611E+00  0.14465908236E+00  0.55750554353E+02  0.56246787852E+02  0.74470750000E+01 0.  1.
<mgrwt>
<rscale>  0 0.14946208E+02</rscale>
<asrwt>0</asrwt>
<pdfrwt beam="1">  1        2 0.99917349E+00 0.14946208E+02</pdfrwt>
<pdfrwt beam="2">  1       -2 0.98542942E+00 0.14946208E+02</pdfrwt>
<totfact> 0.11053546E-13</totfact>
</mgrwt>
</event>
<event>
 4    1 -0.4882314E-019  0.1494449E+02  0.7818608E-02  0.1869767E+00
          2   -1    0    0  501    0  0.00000000000E+00  0.00000000000E+00  0.11899372966E+03  0.11899372969E+03  0.25500000000E-02 0.  1.
         -2   -1    0    0    0  501 -0.00000000000E+00 -0.00000000000E+00 -0.46921843094E+00  0.46922535996E+00  0.25500000000E-02 0. -1.
         31    1    1    2    0    0 -0.59807221785E+00 -0.60246894955E-01  0.58308999177E+02  0.58785709412E+02  0.74470750000E+01 0.  1.
        -31    1    1    2    0    0  0.59807221785E+00  0.60246894955E-01  0.60215512057E+02  0.60677245639E+02  0.74470750000E+01 0. -1.
<mgrwt>
<rscale>  0 0.14944493E+02</rscale>
<asrwt>0</asrwt>
<pdfrwt beam="1">  1        2 0.98780330E+00 0.14944493E+02</pdfrwt>
<pdfrwt beam="2">  1       -2 0.99654353E+00 0.14944493E+02</pdfrwt>
<totfact>-0.19981134E-13</totfact>
</mgrwt>
</event>
<event>
 4    1  0.4882314E-019  0.1490020E+02  0.7818608E-02  0.1871129E+00
          2   -1    0    0  501    0  0.00000000000E+00  0.00000000000E+00  0.11999419384E+03  0.11999419387E+03  0.25500000000E-02 0.  1.
         -2   -1    0    0    0  501 -0.00000000000E+00 -0.00000000000E+00 -0.46255197965E+00  0.46255900853E+00  0.25500000000E-02 0. -1.
         31    1    1    2    0    0 -0.11171647897E+00  0.16775997054E+00  0.60303701918E+02  0.60762126485E+02  0.74470750000E+01 0.  1.
        -31    1    1    2    0    0  0.11171647897E+00 -0.16775997054E+00  0.59227939946E+02  0.59694626394E+02  0.74470750000E+01 0. -1.
<mgrwt>
<rscale>  0 0.14900198E+02</rscale>
<asrwt>0</asrwt>
<pdfrwt beam="1">  1        2 0.99602071E+00 0.14900198E+02</pdfrwt>
<pdfrwt beam="2">  1       -2 0.98247183E+00 0.14900198E+02</pdfrwt>
<totfact> 0.78647709E-13</totfact>
</mgrwt>
</event>
<event>
 4    1 -0.4882314E-019  0.1495871E+02  0.7818608E-02  0.1869331E+00
         -2   -1    0    0    0  501 -0.00000000000E+00  0.00000000000E+00  0.11963462373E+03  0.11963462376E+03  0.25500000000E-02 0. -1.
          2   -1    0    0  501    0  0.00000000000E+00 -0.00000000000E+00 -0.46759304132E+00  0.46759999443E+00  0.25500000000E-02 0.  1.
         31    1    1    2    0    0 -0.95308287161E-02  0.34659284115E+00  0.64411513705E+02  0.64841516340E+02  0.74470750000E+01 0. -1.
        -31    1    1    2    0    0  0.95308287161E-02 -0.34659284115E+00  0.54755516983E+02  0.55260707411E+02  0.74470750000E+01 0.  1.
<mgrwt>
<rscale>  0 0.14958708E+02</rscale>
<asrwt>0</asrwt>
<pdfrwt beam="2">  1        2 0.99312586E+00 0.14958708E+02</pdfrwt>
<pdfrwt beam="1">  1       -2 0.99308922E+00 0.14958708E+02</pdfrwt>
<totfact>-0.12301408E-13</totfact>
</mgrwt>
</event>
<event>
 4    1 -0.4882314E-019  0.1491792E+02  0.7818608E-02  0.1870584E+00
          2   -1    0    0  501    0  0.00000000000E+00  0.00000000000E+00  0.11872921067E+03  0.11872921070E+03  0.25500000000E-02 0. -1.
         -2   -1    0    0    0  501 -0.00000000000E+00 -0.00000000000E+00 -0.46859298829E+00  0.46859992657E+00  0.25500000000E-02 0.  1.
         31    1    1    2    0    0 -0.15131640654E+00 -0.38025243958E+00  0.58344329568E+02  0.58819105802E+02  0.74470750000E+01 0.  1.
        -31    1    1    2    0    0  0.15131640654E+00  0.38025243958E+00  0.59916288112E+02  0.60378704820E+02  0.74470750000E+01 0.  1.
<mgrwt>
<rscale>  0 0.14917921E+02</rscale>
<asrwt>0</asrwt>
<pdfrwt beam="1">  1        2 0.98561090E+00 0.14917921E+02</pdfrwt>
<pdfrwt beam="2">  1       -2 0.99521173E+00 0.14917921E+02</pdfrwt>
<totfact>-0.31284175E-13</totfact>
</mgrwt>
</event>
<event>
 4    1 -0.4882314E-019  0.1496303E+02  0.7818608E-02  0.1869199E+00
          2   -1    0    0  501    0  0.00000000000E+00  0.00000000000E+00  0.11992099758E+03  0.11992099760E+03  0.25500000000E-02 0.  1.
         -2   -1    0    0    0  501 -0.00000000000E+00 -0.00000000000E+00 -0.46674590948E+00  0.46675287521E+00  0.25500000000E-02 0. -1.
         31    1    1    2    0    0  0.63137835655E+00  0.25397246832E+00  0.57910345807E+02  0.58391182710E+02  0.74470750000E+01 0.  1.
        -31    1    1    2    0    0 -0.63137835655E+00 -0.25397246832E+00  0.61543905860E+02  0.61996567770E+02  0.74470750000E+01 0. -1.
<mgrwt>
<rscale>  0 0.14963029E+02</rscale>
<asrwt>0</asrwt>
<pdfrwt beam="1">  1        2 0.99545015E+00 0.14963029E+02</pdfrwt>
<pdfrwt beam="2">  1       -2 0.99134285E+00 0.14963029E+02</pdfrwt>
<totfact>-0.53162135E-14</totfact>
</mgrwt>
</event>
<event>
 4    1 -0.4882314E-019  0.1496728E+02  0.7818608E-02  0.1869069E+00
         -2   -1    0    0    0  501 -0.00000000000E+00  0.00000000000E+00  0.11989943246E+03  0.11989943249E+03  0.25500000000E-02 0. -1.
          2   -1    0    0  501    0  0.00000000000E+00 -0.00000000000E+00 -0.46709508874E+00  0.46710204927E+00  0.25500000000E-02 0.  1.
         31    1    1    2    0    0 -0.36176009577E+00  0.44100060763E+00  0.55939189158E+02  0.56435601898E+02  0.74470750000E+01 0.  1.
        -31    1    1    2    0    0  0.36176009577E+00 -0.44100060763E+00  0.63493148216E+02  0.63930932641E+02  0.74470750000E+01 0.  1.
<mgrwt>
<rscale>  0 0.14967279E+02</rscale>
<asrwt>0</asrwt>
<pdfrwt beam="2">  1        2 0.99208090E+00 0.14967279E+02</pdfrwt>
<pdfrwt beam="1">  1       -2 0.99527472E+00 0.14967279E+02</pdfrwt>
<totfact>-0.14910703E-13</totfact>
</mgrwt>
</event>
<event>
 4    1  0.4882314E-019  0.1492853E+02  0.7818608E-02  0.1870257E+00
         -2   -1    0    0    0  501 -0.00000000000E+00  0.00000000000E+00  0.11911918546E+03  0.11911918548E+03  0.25500000000E-02 0. -1.
          2   -1    0    0  501    0  0.00000000000E+00 -0.00000000000E+00 -0.46772314060E+00  0.46773009178E+00  0.25500000000E-02 0.  1.
         31    1    1    2    0    0  0.54659413271E-01  0.37634170904E+00  0.62002648898E+02  0.62449435684E+02  0.74470750000E+01 0. -1.
        -31    1    1    2    0    0 -0.54659413271E-01 -0.37634170904E+00  0.56648813418E+02  0.57137479893E+02  0.74470750000E+01 0.  1.
<mgrwt>
<rscale>  0 0.14928525E+02</rscale>
<asrwt>0</asrwt>
<pdfrwt beam="2">  1        2 0.99338436E+00 0.14928525E+02</pdfrwt>
<pdfrwt beam="1">  1       -2 0.98882829E+00 0.14928525E+02</pdfrwt>
<totfact> 0.97489238E-14</totfact>
</mgrwt>
</event>
<event>
 4    1 -0.4882314E-019  0.1495436E+02  0.7818608E-02  0.1869464E+00
         -2   -1    0    0    0  501 -0.00000000000E+00  0.00000000000E+00  0.12003184406E+03  0.12003184409E+03  0.25500000000E-02 0.  1.
          2   -1    0    0  501    0  0.00000000000E+00 -0.00000000000E+00 -0.46577456985E+00  0.46578155011E+00  0.25500000000E-02 0. -1.
         31    1    1    2    0    0 -0.63581174168E+00  0.10291861011E+00  0.61278119080E+02  0.61732338793E+02  0.74470750000E+01 0. -1.
        -31    1    1    2    0    0  0.63581174168E+00 -0.10291861011E+00  0.58287950409E+02  0.58765286843E+02  0.74470750000E+01 0. -1.
<mgrwt>
<rscale>  0 0.14954358E+02</rscale>
<asrwt>0</asrwt>
<pdfrwt beam="2">  1        2 0.98929132E+00 0.14954358E+02</pdfrwt>
<pdfrwt beam="1">  1       -2 0.99635868E+00 0.14954358E+02</pdfrwt>
<totfact>-0.17217289E-13</totfact>
</mgrwt>
</event>
<event>
 4    1 -0.4882314E-019  0.1500728E+02  0.7818608E-02  0.1867846E+00
         -2   -1    0    0    0  501 -0.00000000000E+00  0.00000000000E+00  0.12019759543E+03  0.12019759545E+03  0.25500000000E-02 0. -1.
          2   -1    0    0  501    0  0.00000000000E+00 -0.00000000000E+00 -0.46843054953E+00  0.46843749021E+00  0.25500000000E-02 0.  1.
         31    1    1    2    0    0  0.79504800184E+00  0.45185012109E+00  0.59082950573E+02  0.59557453306E+02  0.74470750000E+01 0.  1.
        -31    1    1    2    0    0 -0.79504800184E+00 -0.45185012109E+00  0.60646214304E+02  0.61108579637E+02  0.74470750000E+01 0.  1.
<mgrwt>
<rscale>  0 0.15007284E+02</rscale>
<asrwt>0</asrwt>
<pdfrwt beam="2">  1        2 0.99491586E+00 0.15007284E+02</pdfrwt>
<pdfrwt beam="1">  1       -2 0.99775119E+00 0.15007284E+02</pdfrwt>
<totfact>-0.78457343E-14</totfact>
</mgrwt>
</event>
<event>
 4    1 -0.4882314E-019  0.1496377E+02  0.7818608E-02  0.1869176E+00
          2   -1    0    0  501    0  0.00000000000E+00  0.00000000000E+00  0.11925961738E+03  0.11925961741E+03  0.25500000000E-02 0.  1.
         -2   -1    0    0    0  501 -0.00000000000E+00 -0.00000000000E+00 -0.46938095333E+00  0.46938787995E+00  0.25500000000E-02 0. -1.
         31    1    1    2    0    0 -0.42617615527E+00 -0.45354602740E+00  0.62306004626E+02  0.62752565435E+02  0.74470750000E+01 0. -1.
        -31    1    1    2    0    0  0.42617615527E+00  0.45354602740E+00  0.56484231805E+02  0.56976439857E+02  0.74470750000E+01 0. -1.
<mgrwt>
<rscale>  0 0.14963771E+02</rscale>
<asrwt>0</asrwt>
<pdfrwt beam="1">  1        2 0.99000319E+00 0.14963771E+02</pdfrwt>
<pdfrwt beam="2">  1       -2 0.99689608E+00 0.14963771E+02</pdfrwt>
<totfact>-0.14615146E-13</totfact>
</mgrwt>
</event>
<event>
 4    1  0.4882314E-019  0.1490236E+02  0.7818608E-02  0.1871063E+00
         -2   -1    0    0    0  501 -0.00000000000E+00  0.00000000000E+00  0.11810561556E+03  0.11810561559E+03  0.25500000000E-02 0.  1.
          2   -1    0    0  501    0  0.00000000000E+00 -0.00000000000E+00 -0.47008489228E+00  0.47009180853E+00  0.25500000000E-02 0. -1.
         31    1    1    2    0    0  0.21310519379E+00 -0.12346759858E+00  0.58641072671E+02  0.59112562016E+02  0.74470750000E+01 0.  1.
        -31    1    1    2    0    0 -0.21310519379E+00  0.12346759858E+00  0.58994457999E+02  0.59463145382E+02  0.74470750000E+01 0. -1.
<mgrwt>
<rscale>  0 0.14902359E+02</rscale>
<asrwt>0</asrwt>
<pdfrwt beam="2">  1        2 0.99834695E+00 0.14902359E+02</pdfrwt>
<pdfrwt beam="1">  1       -2 0.98046691E+00 0.14902359E+02</pdfrwt>
<totfact> 0.61591520E-13</totfact>
</mgrwt>
</event>
<event>
 4    1 -0.4882314E-019  0.1495178E+02  0.7818608E-02  0.1869544E+00
          2   -1    0    0  501    0  0.00000000000E+00  0.00000000000E+00  0.11909568533E+03  0.11909568536E+03  0.25500000000E-02 0.  1.
         -2   -1    0    0    0  501 -0.00000000000E+00 -0.00000000000E+00 -0.46927392835E+00  0.46928085656E+00  0.25500000000E-02 0. -1.
         31    1    1    2    0    0 -0.11921539509E+00  0.50870807163E-01  0.54172936543E+02  0.54682563765E+02  0.74470750000E+01 0. -1.
        -31    1    1    2    0    0  0.11921539509E+00 -0.50870807163E-01  0.64453474863E+02  0.64882402453E+02  0.74470750000E+01 0.  1.
<mgrwt>
<rscale>  0 0.14951778E+02</rscale>
<asrwt>0</asrwt>
<pdfrwt beam="1">  1        2 0.98864680E+00 0.14951778E+02</pdfrwt>
<pdfrwt beam="2">  1       -2 0.99666429E+00 0.14951778E+02</pdfrwt>
<totfact>-0.17633446E-13</totfact>
</mgrwt>
</event>
<event>
 4    1 -0.4882314E-019  0.1500486E+02  0.7818608E-02  0.1867920E+00
          2   -1    0    0  501    0  0.00000000000E+00  0.00000000000E+00  0.11975031815E+03  0.11975031818E+03  0.25500000000E-02 0.  1.
         -2   -1    0    0    0  501 -0.00000000000E+00 -0.00000000000E+00 -0.47002832057E+00  0.47003523766E+00  0.25500000000E-02 0. -1.
         31    1    1    2    0    0 -0.26298615221E+00 -0.43124754167E+00  0.53578445607E+02  0.54095876884E+02  0.74470750000E+01 0. -1.
        -31    1    1    2    0    0  0.26298615221E+00  0.43124754167E+00  0.65701844225E+02  0.66124476533E+02  0.74470750000E+01 0.  1.
<mgrwt>
<rscale>  0 0.15004860E+02</rscale>
<asrwt>0</asrwt>
<pdfrwt beam="1">  1        2 0.99406600E+00 0.15004860E+02</pdfrwt>
<pdfrwt beam="2">  1       -2 0.99828163E+00 0.15004860E+02</pdfrwt>
<totfact>-0.68175872E-14</totfact>
</mgrwt>
</event>
<event>
 4    1 -0.4882314E-019  0.1503251E+02  0.7818608E-02  0.1867078E+00
         -2   -1    0    0    0  501 -0.00000000000E+00  0.00000000000E+00  0.12021089582E+03  0.12021089585E+03  0.25500000000E-02 0.  1.
          2   -1    0    0  501    0  0.00000000000E+00 -0.00000000000E+00 -0.46995464415E+00  0.46996156232E+00  0.25500000000E-02 0. -1.
         31    1    1    2    0    0 -0.98664923356E+00  0.22484964433E+00  0.60717327281E+02  0.61180689701E+02  0.74470750000E+01 0.  1.
        -31    1    1    2    0    0  0.98664923356E+00 -0.22484964433E+00  0.59023613894E+02  0.59500167708E+02  0.74470750000E+01 0. -1.
<mgrwt>
<rscale>  0 0.15032510E+02</rscale>
<asrwt>0</asrwt>
<pdfrwt beam="2">  1        2 0.99814071E+00 0.15032510E+02</pdfrwt>
<pdfrwt beam="1">  1       -2 0.99787377E+00 0.15032510E+02</pdfrwt>
<totfact>-0.38608121E-14</totfact>
</mgrwt>
</event>
<event>
 4    1 -0.4882314E-019  0.1492702E+02  0.7818608E-02  0.1870304E+00
         -2   -1    0    0    0  501 -0.00000000000E+00  0.00000000000E+00  0.12027609629E+03  0.12027609632E+03  0.25500000000E-02 0.  1.
          2   -1    0    0  501    0  0.00000000000E+00 -0.00000000000E+00 -0.46313071959E+00  0.46313773970E+00  0.25500000000E-02 0. -1.
         31    1    1    2    0    0 -0.21228524900E+00  0.44564799499E+00  0.59605216030E+02  0.60070661485E+02  0.74470750000E+01 0. -1.
        -31    1    1    2    0    0  0.21228524900E+00 -0.44564799499E+00  0.60207749543E+02  0.60668572575E+02  0.74470750000E+01 0.  1.
<mgrwt>
<rscale>  0 0.14927020E+02</rscale>
<asrwt>0</asrwt>
<pdfrwt beam="2">  1        2 0.98370521E+00 0.14927020E+02</pdfrwt>
<pdfrwt beam="1">  1       -2 0.99835646E+00 0.14927020E+02</pdfrwt>
<totfact>-0.21719361E-13</totfact>
</mgrwt>
</event>
<event>
 4    1 -0.4882314E-019  0.1499101E+02  0.7818608E-02  0.1868343E+00
          2   -1    0    0  501    0  0.00000000000E+00  0.00000000000E+00  0.12017159935E+03  0.12017159938E+03  0.25500000000E-02 0. -1.
         -2   -1    0    0    0  501 -0.00000000000E+00 -0.00000000000E+00 -0.46751644374E+00  0.46752339799E+00  0.25500000000E-02 0.  1.
         31    1    1    2    0    0 -0.19428709458E+00  0.77758683372E+00  0.57557393965E+02  0.58042699066E+02  0.74470750000E+01 0. -1.
        -31    1    1    2    0    0  0.19428709458E+00 -0.77758683372E+00  0.62146688945E+02  0.62596423713E+02  0.74470750000E+01 0. -1.
<mgrwt>
<rscale>  0 0.14991013E+02</rscale>
<asrwt>0</asrwt>
<pdfrwt beam="1">  1        2 0.99752867E+00 0.14991013E+02</pdfrwt>
<pdfrwt beam="2">  1       -2 0.99298108E+00 0.14991013E+02</pdfrwt>
<totfact>-0.66434112E-14</totfact>
</mgrwt>
</event>
<event>
 4    1 -0.4882314E-019  0.1495195E+02  0.7818608E-02  0.1869538E+00
         -2   -1    0    0    0  501 -0.00000000000E+00  0.00000000000E+00  0.12009002792E+03  0.12009002795E+03  0.25500000000E-02 0. -1.
          2   -1    0    0  501    0  0.00000000000E+00 -0.00000000000E+00 -0.46539887632E+00  0.46540586221E+00  0.25500000000E-02 0.  1.
         31    1    1    2    0    0  0.45098483206E+00 -0.47168221803E+00  0.59220405896E+02  0.59690378387E+02  0.74470750000E+01 0.  1.
        -31    1    1    2    0    0 -0.45098483206E+00  0.47168221803E+00  0.60404223146E+02  0.60865055421E+02  0.74470750000E+01 0. -1.
<mgrwt>
<rscale>  0 0.14951948E+02</rscale>
<asrwt>0</asrwt>
<pdfrwt beam="2">  1        2 0.98849830E+00 0.14951948E+02</pdfrwt>
<pdfrwt beam="1">  1       -2 0.99683668E+00 0.14951948E+02</pdfrwt>
<totfact>-0.17383439E-13</totfact>
</mgrwt>
</event>
<event>
 4    1 -0.4882314E-019  0.1492921E+02  0.7818608E-02  0.1870236E+00
          2   -1    0    0  501    0  0.00000000000E+00  0.00000000000E+00  0.11942954496E+03  0.11942954499E+03  0.25500000000E-02 0.  1.
         -2   -1    0    0    0  501 -0.00000000000E+00 -0.00000000000E+00 -0.46655034933E+00  0.46655731798E+00  0.25500000000E-02 0. -1.
         31    1    1    2    0    0  0.36152760749E+00  0.33729863849E+00  0.58436955634E+02  0.58911638769E+02  0.74470750000E+01 0. -1.
        -31    1    1    2    0    0 -0.36152760749E+00 -0.33729863849E+00  0.60526038979E+02  0.60984463539E+02  0.74470750000E+01 0.  1.
<mgrwt>
<rscale>  0 0.14929208E+02</rscale>
<asrwt>0</asrwt>
<pdfrwt beam="1">  1        2 0.99138486E+00 0.14929208E+02</pdfrwt>
<pdfrwt beam="2">  1       -2 0.99091330E+00 0.14929208E+02</pdfrwt>
<totfact>-0.50464263E-14</totfact>
</mgrwt>
</event>
<event>
 4    1 -0.4882314E-019  0.1499816E+02  0.7818608E-02  0.1868125E+00
          2   -1    0    0  501    0  0.00000000000E+00  0.00000000000E+00  0.12004858404E+03  0.12004858407E+03  0.25500000000E-02 0. -1.
         -2   -1    0    0    0  501 -0.00000000000E+00 -0.00000000000E+00 -0.46844214748E+00  0.46844908799E+00  0.25500000000E-02 0.  1.
         31    1    1    2    0    0  0.75527544920E+00 -0.37375326086E+00  0.57707387674E+02  0.58192023944E+02  0.74470750000E+01 0.  1.
        -31    1    1    2    0    0 -0.75527544920E+00  0.37375326086E+00  0.61872754222E+02  0.62325009214E+02  0.74470750000E+01 0. -1.
<mgrwt>
<rscale>  0 0.14998165E+02</rscale>
<asrwt>0</asrwt>
<pdfrwt beam="1">  1        2 0.99651915E+00 0.14998165E+02</pdfrwt>
<pdfrwt beam="2">  1       -2 0.99493561E+00 0.14998165E+02</pdfrwt>
<totfact>-0.97114734E-14</totfact>
</mgrwt>
</event>
<event>
 4    1 -0.4882314E-019  0.1492316E+02  0.7818608E-02  0.1870422E+00
          2   -1    0    0  501    0  0.00000000000E+00  0.00000000000E+00  0.11891290010E+03  0.11891290013E+03  0.25500000000E-02 0. -1.
         -2   -1    0    0    0  501 -0.00000000000E+00 -0.00000000000E+00 -0.46819769452E+00  0.46820463865E+00  0.25500000000E-02 0.  1.
         31    1    1    2    0    0 -0.28180745710E+00  0.34481263510E+00  0.58151327561E+02  0.58627929644E+02  0.74470750000E+01 0.  1.
        -31    1    1    2    0    0  0.28180745710E+00 -0.34481263510E+00  0.60293374847E+02  0.60753175125E+02  0.74470750000E+01 0. -1.
<mgrwt>
<rscale>  0 0.14923158E+02</rscale>
<asrwt>0</asrwt>
<pdfrwt beam="1">  1        2 0.98712650E+00 0.14923158E+02</pdfrwt>
<pdfrwt beam="2">  1       -2 0.99438154E+00 0.14923158E+02</pdfrwt>
<totfact>-0.25023431E-13</totfact>
</mgrwt>
</event>
<event>
 4    1  0.4882314E-019  0.1492991E+02  0.7818608E-02  0.1870215E+00
          2   -1    0    0  501    0  0.00000000000E+00  0.00000000000E+00  0.12024152861E+03  0.12024152863E+03  0.25500000000E-02 0. -1.
         -2   -1    0    0    0  501 -0.00000000000E+00 -0.00000000000E+00 -0.46344335119E+00  0.46345036656E+00  0.25500000000E-02 0.  1.
         31    1    1    2    0    0 -0.26408531971E+00  0.32705642606E+00  0.57464567172E+02  0.57946631595E+02  0.74470750000E+01 0.  1.
        -31    1    1    2    0    0  0.26408531971E+00 -0.32705642606E+00  0.62313518084E+02  0.62758347405E+02  0.74470750000E+01 0.  1.
<mgrwt>
<rscale>  0 0.14929911E+02</rscale>
<asrwt>0</asrwt>
<pdfrwt beam="1">  1        2 0.99807322E+00 0.14929911E+02</pdfrwt>
<pdfrwt beam="2">  1       -2 0.98436560E+00 0.14929911E+02</pdfrwt>
<totfact> 0.30697335E-13</totfact>
</mgrwt>
</event>
<event>
 4    1 -0.4882314E-019  0.1492732E+02  0.7818608E-02  0.1870294E+00
          2   -1    0    0  501    0  0.00000000000E+00  0.00000000000E+00  0.11916212249E+03  0.11916212251E+03  0.25500000000E-02 0. -1.
         -2   -1    0    0    0  501 -0.00000000000E+00 -0.00000000000E+00 -0.46747921643E+00  0.46748617123E+00  0.25500000000E-02 0.  1.
         31    1    1    2    0    0  0.27010406723E+00 -0.13179696382E+00  0.62522584990E+02  0.62965251421E+02  0.74470750000E+01 0.  1.
        -31    1    1    2    0    0 -0.27010406723E+00  0.13179696382E+00  0.56172058281E+02  0.56664357265E+02  0.74470750000E+01 0.  1.
<mgrwt>
<rscale>  0 0.14927322E+02</rscale>
<asrwt>0</asrwt>
<pdfrwt beam="1">  1        2 0.98918131E+00 0.14927322E+02</pdfrwt>
<pdfrwt beam="2">  1       -2 0.99286973E+00 0.14927322E+02</pdfrwt>
<totfact>-0.16431187E-13</totfact>
</mgrwt>
</event>
<event>
 4    1 -0.4882314E-019  0.1498196E+02  0.7818608E-02  0.1868619E+00
          2   -1    0    0  501    0  0.00000000000E+00  0.00000000000E+00  0.12021371876E+03  0.12021371879E+03  0.25500000000E-02 0.  1.
         -2   -1    0    0    0  501 -0.00000000000E+00 -0.00000000000E+00 -0.46678830346E+00  0.46679526855E+00  0.25500000000E-02 0. -1.
         31    1    1    2    0    0 -0.64789544587E+00  0.45801972135E+00  0.58567077530E+02  0.59043975535E+02  0.74470750000E+01 0.  1.
        -31    1    1    2    0    0  0.64789544587E+00 -0.45801972135E+00  0.61179852928E+02  0.61636538522E+02  0.74470750000E+01 0.  1.
<mgrwt>
<rscale>  0 0.14981960E+02</rscale>
<asrwt>0</asrwt>
<pdfrwt beam="1">  1        2 0.99787093E+00 0.14981960E+02</pdfrwt>
<pdfrwt beam="2">  1       -2 0.99144190E+00 0.14981960E+02</pdfrwt>
<totfact>-0.34389047E-14</totfact>
</mgrwt>
</event>
<event>
 4    1 -0.4882314E-019  0.1494966E+02  0.7818608E-02  0.1869608E+00
         -2   -1    0    0    0  501 -0.00000000000E+00  0.00000000000E+00  0.11970773804E+03  0.11970773807E+03  0.25500000000E-02 0. -1.
          2   -1    0    0  501    0  0.00000000000E+00 -0.00000000000E+00 -0.46674256078E+00  0.46674952656E+00  0.25500000000E-02 0.  1.
         31    1    1    2    0    0 -0.48322022298E+00 -0.46201983123E-01  0.63017262984E+02  0.63457623628E+02  0.74470750000E+01 0. -1.
        -31    1    1    2    0    0  0.48322022298E+00  0.46201983123E-01  0.56223732496E+02  0.56716863967E+02  0.74470750000E+01 0.  1.
<mgrwt>
<rscale>  0 0.14949664E+02</rscale>
<asrwt>0</asrwt>
<pdfrwt beam="2">  1        2 0.99132891E+00 0.14949664E+02</pdfrwt>
<pdfrwt beam="1">  1       -2 0.99368675E+00 0.14949664E+02</pdfrwt>
<totfact>-0.15186662E-13</totfact>
</mgrwt>
</event>
<event>
 4    1  0.4882314E-019  0.1489841E+02  0.7818608E-02  0.1871185E+00
          2   -1    0    0  501    0  0.00000000000E+00  0.00000000000E+00  0.12030351028E+03  0.12030351031E+03  0.25500000000E-02 0.  1.
         -2   -1    0    0    0  501 -0.00000000000E+00 -0.00000000000E+00 -0.46125179349E+00  0.46125884219E+00  0.25500000000E-02 0. -1.
         31    1    1    2    0    0 -0.13776508501E+00  0.11228706167E+00  0.59831058987E+02  0.60293002356E+02  0.74470750000E+01 0. -1.
        -31    1    1    2    0    0  0.13776508501E+00 -0.11228706167E+00  0.60011199500E+02  0.60471766793E+02  0.74470750000E+01 0.  1.
<mgrwt>
<rscale>  0 0.14898408E+02</rscale>
<asrwt>0</asrwt>
<pdfrwt beam="1">  1        2 0.99856761E+00 0.14898408E+02</pdfrwt>
<pdfrwt beam="2">  1       -2 0.97973047E+00 0.14898408E+02</pdfrwt>
<totfact> 0.61977645E-13</totfact>
</mgrwt>
</event>
<event>
 4    1 -0.4882314E-019  0.1499429E+02  0.7818608E-02  0.1868243E+00
         -2   -1    0    0    0  501 -0.00000000000E+00  0.00000000000E+00  0.11951072784E+03  0.11951072786E+03  0.25500000000E-02 0.  1.
          2   -1    0    0  501    0  0.00000000000E+00 -0.00000000000E+00 -0.47030724686E+00  0.47031415985E+00  0.25500000000E-02 0. -1.
         31    1    1    2    0    0 -0.68195200549E+00  0.26003608645E+00  0.63235436850E+02  0.63676621118E+02  0.74470750000E+01 0.  1.
        -31    1    1    2    0    0  0.68195200549E+00 -0.26003608645E+00  0.55804983739E+02  0.56304420905E+02  0.74470750000E+01 0. -1.
<mgrwt>
<rscale>  0 0.14994289E+02</rscale>
<asrwt>0</asrwt>
<pdfrwt beam="2">  1        2 0.99886388E+00 0.14994289E+02</pdfrwt>
<pdfrwt beam="1">  1       -2 0.99208720E+00 0.14994289E+02</pdfrwt>
<totfact>-0.27938053E-14</totfact>
</mgrwt>
</event>
<event>
 4    1  0.4882314E-019  0.1491492E+02  0.7818608E-02  0.1870676E+00
         -2   -1    0    0    0  501 -0.00000000000E+00  0.00000000000E+00  0.11830371056E+03  0.11830371058E+03  0.25500000000E-02 0. -1.
          2   -1    0    0  501    0  0.00000000000E+00 -0.00000000000E+00 -0.47008951143E+00  0.47009642761E+00  0.25500000000E-02 0.  1.
         31    1    1    2    0    0  0.15606613811E+00  0.27699255637E+00  0.60762852261E+02  0.61218332405E+02  0.74470750000E+01 0.  1.
        -31    1    1    2    0    0 -0.15606613811E+00 -0.27699255637E+00  0.57070768784E+02  0.57555474607E+02  0.74470750000E+01 0.  1.
<mgrwt>
<rscale>  0 0.14914925E+02</rscale>
<asrwt>0</asrwt>
<pdfrwt beam="2">  1        2 0.99836335E+00 0.14914925E+02</pdfrwt>
<pdfrwt beam="1">  1       -2 0.98210494E+00 0.14914925E+02</pdfrwt>
<totfact> 0.44968674E-13</totfact>
</mgrwt>
</event>
<event>
 4    1  0.4882314E-019  0.1491390E+02  0.7818608E-02  0.1870707E+00
         -2   -1    0    0    0  501 -0.00000000000E+00  0.00000000000E+00  0.11849744615E+03  0.11849744618E+03  0.25500000000E-02 0.  1.
          2   -1    0    0  501    0  0.00000000000E+00 -0.00000000000E+00 -0.46925635610E+00  0.46926328456E+00  0.25500000000E-02 0. -1.
         31    1    1    2    0    0  0.13890573747E+00 -0.50313316965E-02  0.61866296147E+02  0.62313055174E+02  0.74470750000E+01 0.  1.
        -31    1    1    2    0    0 -0.13890573747E+00  0.50313316965E-02  0.56161893647E+02  0.56653654288E+02  0.74470750000E+01 0. -1.
<mgrwt>
<rscale>  0 0.14913899E+02</rscale>
<asrwt>0</asrwt>
<pdfrwt beam="2">  1        2 0.99660737E+00 0.14913899E+02</pdfrwt>
<pdfrwt beam="1">  1       -2 0.98369999E+00 0.14913899E+02</pdfrwt>
<totfact> 0.54307427E-13</totfact>
</mgrwt>
</event>
<event>
 4    1  0.4882314E-019  0.1492581E+02  0.7818608E-02  0.1870341E+00
         -2   -1    0    0    0  501 -0.00000000000E+00  0.00000000000E+00  0.11856841262E+03  0.11856841264E+03  0.25500000000E-02 0.  1.
          2   -1    0    0  501    0  0.00000000000E+00 -0.00000000000E+00 -0.46972480037E+00  0.46973172193E+00  0.25500000000E-02 0. -1.
         31    1    1    2    0    0 -0.19736810215E+00 -0.42345207172E+00  0.60111759428E+02  0.60573103053E+02  0.74470750000E+01 0.  1.
        -31    1    1    2    0    0  0.19736810215E+00  0.42345207172E+00  0.57986928388E+02  0.58465041313E+02  0.74470750000E+01 0. -1.
<mgrwt>
<rscale>  0 0.14925808E+02</rscale>
<asrwt>0</asrwt>
<pdfrwt beam="2">  1        2 0.99760067E+00 0.14925808E+02</pdfrwt>
<pdfrwt beam="1">  1       -2 0.98429066E+00 0.14925808E+02</pdfrwt>
<totfact> 0.36989710E-13</totfact>
</mgrwt>
</event>
<event>
 4    1 -0.4882314E-019  0.1490298E+02  0.7818608E-02  0.1871044E+00
         -2   -1    0    0    0  501 -0.00000000000E+00  0.00000000000E+00  0.12037164390E+03  0.12037164392E+03  0.25500000000E-02 0.  1.
          2   -1    0    0  501    0  0.00000000000E+00 -0.00000000000E+00 -0.46127363568E+00  0.46128068405E+00  0.25500000000E-02 0. -1.
         31    1    1    2    0    0 -0.61377343978E-01 -0.21307287143E+00  0.58910546090E+02  0.59379799039E+02  0.74470750000E+01 0. -1.
        -31    1    1    2    0    0  0.61377343978E-01  0.21307287143E+00  0.60999824171E+02  0.61453125569E+02  0.74470750000E+01 0.  1.
<mgrwt>
<rscale>  0 0.14902979E+02</rscale>
<asrwt>0</asrwt>
<pdfrwt beam="2">  1        2 0.97977880E+00 0.14902979E+02</pdfrwt>
<pdfrwt beam="1">  1       -2 0.99913116E+00 0.14902979E+02</pdfrwt>
<totfact>-0.23689397E-13</totfact>
</mgrwt>
</event>
<event>
 4    1 -0.4882314E-019  0.1496698E+02  0.7818608E-02  0.1869078E+00
         -2   -1    0    0    0  501 -0.00000000000E+00  0.00000000000E+00  0.11978013114E+03  0.11978013116E+03  0.25500000000E-02 0.  1.
          2   -1    0    0  501    0  0.00000000000E+00 -0.00000000000E+00 -0.46754162305E+00  0.46754857692E+00  0.25500000000E-02 0. -1.
         31    1    1    2    0    0  0.45301117730E+00 -0.78952675180E-01  0.64287213507E+02  0.64718746891E+02  0.74470750000E+01 0.  1.
        -31    1    1    2    0    0 -0.45301117730E+00  0.78952675180E-01  0.55025376006E+02  0.55528932848E+02  0.74470750000E+01 0. -1.
<mgrwt>
<rscale>  0 0.14966979E+02</rscale>
<asrwt>0</asrwt>
<pdfrwt beam="2">  1        2 0.99302177E+00 0.14966979E+02</pdfrwt>
<pdfrwt beam="1">  1       -2 0.99429195E+00 0.14966979E+02</pdfrwt>
<totfact>-0.13974477E-13</totfact>
</mgrwt>
</event>
<event>
 4    1  0.4882314E-019  0.1494196E+02  0.7818608E-02  0.1869845E+00
          2   -1    0    0  501    0  0.00000000000E+00  0.00000000000E+00  0.12037139505E+03  0.12037139508E+03  0.25500000000E-02 0. -1.
         -2   -1    0    0    0  501 -0.00000000000E+00 -0.00000000000E+00 -0.46369091172E+00  0.46369792334E+00  0.25500000000E-02 0.  1.
         31    1    1    2    0    0  0.25209275220E+00 -0.24059177984E+00  0.63875703926E+02  0.64309298808E+02  0.74470750000E+01 0. -1.
        -31    1    1    2    0    0 -0.25209275220E+00  0.24059177984E+00  0.56032000212E+02  0.56525794191E+02  0.74470750000E+01 0.  1.
<mgrwt>
<rscale>  0 0.14941961E+02</rscale>
<asrwt>0</asrwt>
<pdfrwt beam="1">  1        2 0.99914909E+00 0.14941961E+02</pdfrwt>
<pdfrwt beam="2">  1       -2 0.98489348E+00 0.14941961E+02</pdfrwt>
<totfact> 0.13257711E-13</totfact>
</mgrwt>
</event>
<event>
 4    1 -0.4882314E-019  0.1491006E+02  0.7818608E-02  0.1870826E+00
          2   -1    0    0  501    0  0.00000000000E+00  0.00000000000E+00  0.11884990430E+03  0.11884990433E+03  0.25500000000E-02 0.  1.
         -2   -1    0    0    0  501 -0.00000000000E+00 -0.00000000000E+00 -0.46762375214E+00  0.46763070480E+00  0.25500000000E-02 0. -1.
         31    1    1    2    0    0 -0.98567291616E-01 -0.33161042573E-01  0.61817533775E+02  0.62264574384E+02  0.74470750000E+01 0.  1.
        -31    1    1    2    0    0  0.98567291616E-01  0.33161042573E-01  0.56564746774E+02  0.57052960649E+02  0.74470750000E+01 0. -1.
<mgrwt>
<rscale>  0 0.14910058E+02</rscale>
<asrwt>0</asrwt>
<pdfrwt beam="1">  1        2 0.98660086E+00 0.14910058E+02</pdfrwt>
<pdfrwt beam="2">  1       -2 0.99316530E+00 0.14910058E+02</pdfrwt>
<totfact>-0.24169929E-13</totfact>
</mgrwt>
</event>
<event>
 4    1 -0.4882314E-019  0.1490489E+02  0.7818608E-02  0.1870985E+00
         -2   -1    0    0    0  501 -0.00000000000E+00  0.00000000000E+00  0.11955358383E+03  0.11955358386E+03  0.25500000000E-02 0.  1.
          2   -1    0    0  501    0  0.00000000000E+00 -0.00000000000E+00 -0.46454933287E+00  0.46455633153E+00  0.25500000000E-02 0. -1.
         31    1    1    2    0    0  0.17808199728E+00 -0.18279034515E+00  0.60527674123E+02  0.60984615980E+02  0.74470750000E+01 0.  1.
        -31    1    1    2    0    0 -0.17808199728E+00  0.18279034515E+00  0.58561360378E+02  0.59033524212E+02  0.74470750000E+01 0. -1.
<mgrwt>
<rscale>  0 0.14904893E+02</rscale>
<asrwt>0</asrwt>
<pdfrwt beam="2">  1        2 0.98668381E+00 0.14904893E+02</pdfrwt>
<pdfrwt beam="1">  1       -2 0.99239396E+00 0.14904893E+02</pdfrwt>
<totfact>-0.20178673E-13</totfact>
</mgrwt>
</event>
<event>
 4    1 -0.4882314E-019  0.1489912E+02  0.7818608E-02  0.1871163E+00
          2   -1    0    0  501    0  0.00000000000E+00  0.00000000000E+00  0.11859905457E+03  0.11859905459E+03  0.25500000000E-02 0.  1.
         -2   -1    0    0    0  501 -0.00000000000E+00 -0.00000000000E+00 -0.46792541387E+00  0.46793236204E+00  0.25500000000E-02 0. -1.
         31    1    1    2    0    0  0.13491714754E+00 -0.42616415368E-01  0.58024142469E+02  0.58500256872E+02  0.74470750000E+01 0. -1.
        -31    1    1    2    0    0 -0.13491714754E+00  0.42616415368E-01  0.60106986685E+02  0.60566730085E+02  0.74470750000E+01 0. -1.
<mgrwt>
<rscale>  0 0.14899118E+02</rscale>
<asrwt>0</asrwt>
<pdfrwt beam="1">  1        2 0.98452916E+00 0.14899118E+02</pdfrwt>
<pdfrwt beam="2">  1       -2 0.99379522E+00 0.14899118E+02</pdfrwt>
<totfact>-0.36128602E-13</totfact>
</mgrwt>
</event>
<event>
 4    1 -0.4882314E-019  0.1498463E+02  0.7818608E-02  0.1868538E+00
         -2   -1    0    0    0  501 -0.00000000000E+00  0.00000000000E+00  0.11975158431E+03  0.11975158434E+03  0.25500000000E-02 0.  1.
          2   -1    0    0  501    0  0.00000000000E+00 -0.00000000000E+00 -0.46875679033E+00  0.46876372618E+00  0.25500000000E-02 0. -1.
         31    1    1    2    0    0 -0.80898408143E+00 -0.42480102513E-01  0.58518178020E+02  0.58995697679E+02  0.74470750000E+01 0.  1.
        -31    1    1    2    0    0  0.80898408143E+00  0.42480102513E-01  0.60764649500E+02  0.61224650385E+02  0.74470750000E+01 0. -1.
<mgrwt>
<rscale>  0 0.14984630E+02</rscale>
<asrwt>0</asrwt>
<pdfrwt beam="2">  1        2 0.99559167E+00 0.14984630E+02</pdfrwt>
<pdfrwt beam="1">  1       -2 0.99406595E+00 0.14984630E+02</pdfrwt>
<totfact>-0.10958519E-13</totfact>
</mgrwt>
</event>
<event>
 4    1  0.4882314E-019  0.1491830E+02  0.7818608E-02  0.1870572E+00
         -2   -1    0    0    0  501 -0.00000000000E+00  0.00000000000E+00  0.11890631073E+03  0.11890631076E+03  0.25500000000E-02 0. -1.
          2   -1    0    0  501    0  0.00000000000E+00 -0.00000000000E+00 -0.46791862761E+00  0.46792557588E+00  0.25500000000E-02 0.  1.
         31    1    1    2    0    0  0.22391651654E-01  0.54229591464E-02  0.62608789820E+02  0.63050138933E+02  0.74470750000E+01 0. -1.
        -31    1    1    2    0    0 -0.22391651654E-01 -0.54229591464E-02  0.55829602285E+02  0.56324097402E+02  0.74470750000E+01 0.  1.
<mgrwt>
<rscale>  0 0.14918297E+02</rscale>
<asrwt>0</asrwt>
<pdfrwt beam="2">  1        2 0.99379096E+00 0.14918297E+02</pdfrwt>
<pdfrwt beam="1">  1       -2 0.98706971E+00 0.14918297E+02</pdfrwt>
<totfact> 0.26567019E-13</totfact>
</mgrwt>
</event>
<event>
 4    1 -0.4882314E-019  0.1495526E+02  0.7818608E-02  0.1869437E+00
          2   -1    0    0  501    0  0.00000000000E+00  0.00000000000E+00  0.11886849268E+03  0.11886849270E+03  0.25500000000E-02 0.  1.
         -2   -1    0    0    0  501 -0.00000000000E+00 -0.00000000000E+00 -0.47038959717E+00  0.47039650894E+00  0.25500000000E-02 0. -1.
         31    1    1    2    0    0 -0.29196969316E+00 -0.50317870404E+00  0.61935008211E+02  0.62383832867E+02  0.74470750000E+01 0.  1.
        -31    1    1    2    0    0  0.29196969316E+00  0.50317870404E+00  0.56463094868E+02  0.56955056345E+02  0.74470750000E+01 0.  1.
<mgrwt>
<rscale>  0 0.14955255E+02</rscale>
<asrwt>0</asrwt>
<pdfrwt beam="1">  1        2 0.98677743E+00 0.14955255E+02</pdfrwt>
<pdfrwt beam="2">  1       -2 0.99901693E+00 0.14955255E+02</pdfrwt>
<totfact>-0.84430504E-14</totfact>
</mgrwt>
</event>
<event>
 4    1  0.4882314E-019  0.1489844E+02  0.7818608E-02  0.1871183E+00
          2   -1    0    0  501    0  0.00000000000E+00  0.00000000000E+00  0.12025487393E+03  0.12025487396E+03  0.25500000000E-02 0. -1.
         -2   -1    0    0    0  501 -0.00000000000E+00 -0.00000000000E+00 -0.46144058852E+00  0.46144763434E+00  0.25500000000E-02 0.  1.
         31    1    1    2    0    0  0.10310796651E-02 -0.16182063453E+00  0.59279976951E+02  0.59746136113E+02  0.74470750000E+01 0.  1.
        -31    1    1    2    0    0 -0.10310796651E-02  0.16182063453E+00  0.60513456394E+02  0.60970185483E+02  0.74470750000E+01 0. -1.
<mgrwt>
<rscale>  0 0.14898444E+02</rscale>
<asrwt>0</asrwt>
<pdfrwt beam="1">  1        2 0.99816701E+00 0.14898444E+02</pdfrwt>
<pdfrwt beam="2">  1       -2 0.98012843E+00 0.14898444E+02</pdfrwt>
<totfact> 0.70969880E-13</totfact>
</mgrwt>
</event>
<event>
 4    1 -0.4882314E-019  0.1496157E+02  0.7818608E-02  0.1869243E+00
          2   -1    0    0  501    0  0.00000000000E+00  0.00000000000E+00  0.11949232235E+03  0.11949232238E+03  0.25500000000E-02 0.  1.
         -2   -1    0    0    0  501 -0.00000000000E+00 -0.00000000000E+00 -0.46832913165E+00  0.46833607383E+00  0.25500000000E-02 0. -1.
         31    1    1    2    0    0 -0.79472294930E-02 -0.70880981217E+00  0.59732019067E+02  0.60198633725E+02  0.74470750000E+01 0. -1.
        -31    1    1    2    0    0  0.79472294930E-02  0.70880981217E+00  0.59291974153E+02  0.59762024727E+02  0.74470750000E+01 0. -1.
<mgrwt>
<rscale>  0 0.14961571E+02</rscale>
<asrwt>0</asrwt>
<pdfrwt beam="1">  1        2 0.99191866E+00 0.14961571E+02</pdfrwt>
<pdfrwt beam="2">  1       -2 0.99467851E+00 0.14961571E+02</pdfrwt>
<totfact>-0.15262312E-13</totfact>
</mgrwt>
</event>
<event>
 4    1 -0.4882314E-019  0.1492887E+02  0.7818608E-02  0.1870247E+00
          2   -1    0    0  501    0  0.00000000000E+00  0.00000000000E+00  0.11898232952E+03  0.11898232954E+03  0.25500000000E-02 0. -1.
         -2   -1    0    0    0  501 -0.00000000000E+00 -0.00000000000E+00 -0.46828275461E+00  0.46828969748E+00  0.25500000000E-02 0.  1.
         31    1    1    2    0    0  0.15835908718E+00  0.12357540810E-01  0.55389539475E+02  0.55888149366E+02  0.74470750000E+01 0.  1.
        -31    1    1    2    0    0 -0.15835908718E+00 -0.12357540810E-01  0.63124507286E+02  0.63562469874E+02  0.74470750000E+01 0. -1.
<mgrwt>
<rscale>  0 0.14928870E+02</rscale>
<asrwt>0</asrwt>
<pdfrwt beam="1">  1        2 0.98770130E+00 0.14928870E+02</pdfrwt>
<pdfrwt beam="2">  1       -2 0.99456376E+00 0.14928870E+02</pdfrwt>
<totfact>-0.23233136E-13</totfact>
</mgrwt>
</event>
<event>
 4    1  0.4882314E-019  0.1489751E+02  0.7818608E-02  0.1871212E+00
         -2   -1    0    0    0  501 -0.00000000000E+00  0.00000000000E+00  0.11819099930E+03  0.11819099933E+03  0.25500000000E-02 0. -1.
          2   -1    0    0  501    0  0.00000000000E+00 -0.00000000000E+00 -0.46943972468E+00  0.46944665044E+00  0.25500000000E-02 0.  1.
         31    1    1    2    0    0  0.45502225376E-01 -0.13825092978E+00  0.58366372305E+02  0.58839727445E+02  0.74470750000E+01 0.  1.
        -31    1    1    2    0    0 -0.45502225376E-01  0.13825092978E+00  0.59355187269E+02  0.59820718531E+02  0.74470750000E+01 0. -1.
<mgrwt>
<rscale>  0 0.14897512E+02</rscale>
<asrwt>0</asrwt>
<pdfrwt beam="2">  1        2 0.99698506E+00 0.14897512E+02</pdfrwt>
<pdfrwt beam="1">  1       -2 0.98116759E+00 0.14897512E+02</pdfrwt>
<totfact> 0.85272076E-13</totfact>
</mgrwt>
</event>
<event>
 4    1  0.4882314E-019  0.1492705E+02  0.7818608E-02  0.1870303E+00
         -2   -1    0    0    0  501 -0.00000000000E+00  0.00000000000E+00  0.11845901325E+03  0.11845901327E+03  0.25500000000E-02 0.  1.
          2   -1    0    0  501    0  0.00000000000E+00 -0.00000000000E+00 -0.47023653479E+00  0.47024344881E+00  0.25500000000E-02 0. -1.
         31    1    1    2    0    0  0.27975577767E-01  0.34182029515E+00  0.56148143148E+02  0.56640890960E+02  0.74470750000E+01 0. -1.
        -31    1    1    2    0    0 -0.27975577767E-01 -0.34182029515E+00  0.61840633564E+02  0.62288365763E+02  0.74470750000E+01 0. -1.
<mgrwt>
<rscale>  0 0.14927045E+02</rscale>
<asrwt>0</asrwt>
<pdfrwt beam="2">  1        2 0.99867953E+00 0.14927045E+02</pdfrwt>
<pdfrwt beam="1">  1       -2 0.98339031E+00 0.14927045E+02</pdfrwt>
<totfact> 0.28523971E-13</totfact>
</mgrwt>
</event>
<event>
 4    1 -0.4882314E-019  0.1495266E+02  0.7818608E-02  0.1869517E+00
         -2   -1    0    0    0  501 -0.00000000000E+00  0.00000000000E+00  0.11939366832E+03  0.11939366834E+03  0.25500000000E-02 0. -1.
          2   -1    0    0  501    0  0.00000000000E+00 -0.00000000000E+00 -0.46815789383E+00  0.46816483855E+00  0.25500000000E-02 0.  1.
         31    1    1    2    0    0 -0.11375716321E+00  0.17366438721E+00  0.54434424419E+02  0.54941865530E+02  0.74470750000E+01 0.  1.
        -31    1    1    2    0    0  0.11375716321E+00 -0.17366438721E+00  0.64491086005E+02  0.64919967654E+02  0.74470750000E+01 0. -1.
<mgrwt>
<rscale>  0 0.14952659E+02</rscale>
<asrwt>0</asrwt>
<pdfrwt beam="2">  1        2 0.99431304E+00 0.14952659E+02</pdfrwt>
<pdfrwt beam="1">  1       -2 0.99110150E+00 0.14952659E+02</pdfrwt>
<totfact>-0.49180614E-14</totfact>
</mgrwt>
</event>
<event>
 4    1 -0.4882314E-019  0.1490203E+02  0.7818608E-02  0.1871073E+00
         -2   -1    0    0    0  501 -0.00000000000E+00  0.00000000000E+00  0.11969395549E+03  0.11969395552E+03  0.25500000000E-02 0.  1.
          2   -1    0    0  501    0  0.00000000000E+00 -0.00000000000E+00 -0.46382643536E+00  0.46383344493E+00  0.25500000000E-02 0. -1.
         31    1    1    2    0    0 -0.11356434629E+00 -0.20765658286E+00  0.59196143947E+02  0.59663208113E+02  0.74470750000E+01 0.  1.
        -31    1    1    2    0    0  0.11356434629E+00  0.20765658286E+00  0.60033985109E+02  0.60494580850E+02  0.74470750000E+01 0.  1.
<mgrwt>
<rscale>  0 0.14902033E+02</rscale>
<asrwt>0</asrwt>
<pdfrwt beam="2">  1        2 0.98515883E+00 0.14902033E+02</pdfrwt>
<pdfrwt beam="1">  1       -2 0.99354867E+00 0.14902033E+02</pdfrwt>
<totfact>-0.31817205E-13</totfact>
</mgrwt>
</event>
<event>
 4    1  0.4882314E-019  0.1493903E+02  0.7818608E-02  0.1869935E+00
          2   -1    0    0  501    0  0.00000000000E+00  0.00000000000E+00  0.12000565947E+03  0.12000565950E+03  0.25500000000E-02 0.  1.
         -2   -1    0    0    0  501 -0.00000000000E+00 -0.00000000000E+00 -0.46492137589E+00  0.46492836895E+00  0.25500000000E-02 0. -1.
         31    1    1    2    0    0 -0.45299611831E+00 -0.35941630455E+00  0.59628945021E+02  0.60094961485E+02  0.74470750000E+01 0. -1.
        -31    1    1    2    0    0  0.45299611831E+00  0.35941630455E+00  0.59911793078E+02  0.60375626385E+02  0.74470750000E+01 0.  1.
<mgrwt>
<rscale>  0 0.14939025E+02</rscale>
<asrwt>0</asrwt>
<pdfrwt beam="1">  1        2 0.99613511E+00 0.14939025E+02</pdfrwt>
<pdfrwt beam="2">  1       -2 0.98748535E+00 0.14939025E+02</pdfrwt>
<totfact> 0.17161260E-13</totfact>
</mgrwt>
</event>
<event>
 4    1  0.4882314E-019  0.1494034E+02  0.7818608E-02  0.1869894E+00
         -2   -1    0    0    0  501 -0.00000000000E+00  0.00000000000E+00  0.11886931842E+03  0.11886931844E+03  0.25500000000E-02 0.  1.
          2   -1    0    0  501    0  0.00000000000E+00 -0.00000000000E+00 -0.46944876300E+00  0.46945568862E+00  0.25500000000E-02 0. -1.
         31    1    1    2    0    0  0.26897028269E+00  0.50374948037E+00  0.60284460227E+02  0.60745379902E+02  0.74470750000E+01 0.  1.
        -31    1    1    2    0    0 -0.26897028269E+00 -0.50374948037E+00  0.58115409425E+02  0.58593394229E+02  0.74470750000E+01 0. -1.
<mgrwt>
<rscale>  0 0.14940344E+02</rscale>
<asrwt>0</asrwt>
<pdfrwt beam="2">  1        2 0.99702669E+00 0.14940344E+02</pdfrwt>
<pdfrwt beam="1">  1       -2 0.98677648E+00 0.14940344E+02</pdfrwt>
<totfact> 0.19746174E-13</totfact>
</mgrwt>
</event>
<event>
 4    1  0.4882314E-019  0.1491540E+02  0.7818608E-02  0.1870661E+00
          2   -1    0    0  501    0  0.00000000000E+00  0.00000000000E+00  0.12038227415E+03  0.12038227418E+03  0.25500000000E-02 0.  1.
         -2   -1    0    0    0  501 -0.00000000000E+00 -0.00000000000E+00 -0.46200180588E+00  0.46200884314E+00  0.25500000000E-02 0. -1.
         31    1    1    2    0    0  0.28422437414E+00 -0.53626175096E-01  0.57746209773E+02  0.58225143439E+02  0.74470750000E+01 0. -1.
        -31    1    1    2    0    0 -0.28422437414E+00  0.53626175096E-01  0.62174062574E+02  0.62619139584E+02  0.74470750000E+01 0.  1.
<mgrwt>
<rscale>  0 0.14915395E+02</rscale>
<asrwt>0</asrwt>
<pdfrwt beam="1">  1        2 0.99922508E+00 0.14915395E+02</pdfrwt>
<pdfrwt beam="2">  1       -2 0.98131988E+00 0.14915395E+02</pdfrwt>
<totfact> 0.27277546E-13</totfact>
</mgrwt>
</event>
<event>
 4    1 -0.4882314E-019  0.1494756E+02  0.7818608E-02  0.1869673E+00
          2   -1    0    0  501    0  0.00000000000E+00  0.00000000000E+00  0.11915473641E+03  0.11915473644E+03  0.25500000000E-02 0. -1.
         -2   -1    0    0    0  501 -0.00000000000E+00 -0.00000000000E+00 -0.46877654033E+00  0.46878347589E+00  0.25500000000E-02 0.  1.
         31    1    1    2    0    0 -0.49613549860E+00 -0.98969649952E-01  0.62363896191E+02  0.62808999511E+02  0.74470750000E+01 0. -1.
        -31    1    1    2    0    0  0.49613549860E+00  0.98969649952E-01  0.56322063681E+02  0.56814520404E+02  0.74470750000E+01 0.  1.
<mgrwt>
<rscale>  0 0.14947557E+02</rscale>
<asrwt>0</asrwt>
<pdfrwt beam="1">  1        2 0.98913096E+00 0.14947557E+02</pdfrwt>
<pdfrwt beam="2">  1       -2 0.99561401E+00 0.14947557E+02</pdfrwt>
<totfact>-0.18962180E-13</totfact>
</mgrwt>
</event>
<event>
 4    1  0.4882314E-019  0.1491181E+02  0.7818608E-02  0.1870772E+00
          2   -1    0    0  501    0  0.00000000000E+00  0.00000000000E+00  0.11992679784E+03  0.11992679787E+03  0.25500000000E-02 0. -1.
         -2   -1    0    0    0  501 -0.00000000000E+00 -0.00000000000E+00 -0.46353365499E+00  0.46354066899E+00  0.25500000000E-02 0.  1.
         31    1    1    2    0    0 -0.34469206368E+00  0.10152471042E+00  0.59329183931E+02  0.59795820187E+02  0.74470750000E+01 0. -1.
        -31    1    1    2    0    0  0.34469206368E+00 -0.10152471042E+00  0.60134080256E+02  0.60594518351E+02  0.74470750000E+01 0. -1.
<mgrwt>
<rscale>  0 0.14911812E+02</rscale>
<asrwt>0</asrwt>
<pdfrwt beam="1">  1        2 0.99547155E+00 0.14911812E+02</pdfrwt>
<pdfrwt beam="2">  1       -2 0.98454675E+00 0.14911812E+02</pdfrwt>
<totfact> 0.52075995E-13</totfact>
</mgrwt>
</event>
<event>
 4    1 -0.4882314E-019  0.1494717E+02  0.7818608E-02  0.1869685E+00
         -2   -1    0    0    0  501 -0.00000000000E+00  0.00000000000E+00  0.11974621299E+03  0.11974621302E+03  0.25500000000E-02 0. -1.
          2   -1    0    0  501    0  0.00000000000E+00 -0.00000000000E+00 -0.46643670258E+00  0.46644367293E+00  0.25500000000E-02 0.  1.
         31    1    1    2    0    0 -0.60784974388E+00  0.40515511752E-01  0.58383597106E+02  0.58859786442E+02  0.74470750000E+01 0.  1.
        -31    1    1    2    0    0  0.60784974388E+00 -0.40515511752E-01  0.60896179179E+02  0.61352870246E+02  0.74470750000E+01 0. -1.
<mgrwt>
<rscale>  0 0.14947167E+02</rscale>
<asrwt>0</asrwt>
<pdfrwt beam="2">  1        2 0.99068306E+00 0.14947167E+02</pdfrwt>
<pdfrwt beam="1">  1       -2 0.99400235E+00 0.14947167E+02</pdfrwt>
<totfact>-0.16429997E-13</totfact>
</mgrwt>
</event>
<event>
 4    1 -0.4882314E-019  0.1493784E+02  0.7818608E-02  0.1869971E+00
         -2   -1    0    0    0  501 -0.00000000000E+00  0.00000000000E+00  0.11964198901E+03  0.11964198903E+03  0.25500000000E-02 0. -1.
          2   -1    0    0  501    0  0.00000000000E+00 -0.00000000000E+00 -0.46626039585E+00  0.46626736884E+00  0.25500000000E-02 0.  1.
         31    1    1    2    0    0  0.45928918615E+00 -0.75877697926E-02  0.62312306371E+02  0.62757417533E+02  0.74470750000E+01 0. -1.
        -31    1    1    2    0    0 -0.45928918615E+00  0.75877697926E-02  0.56863422238E+02  0.57350838868E+02  0.74470750000E+01 0.  1.
<mgrwt>
<rscale>  0 0.14937837E+02</rscale>
<asrwt>0</asrwt>
<pdfrwt beam="2">  1        2 0.99030671E+00 0.14937837E+02</pdfrwt>
<pdfrwt beam="1">  1       -2 0.99313910E+00 0.14937837E+02</pdfrwt>
<totfact>-0.15424594E-13</totfact>
</mgrwt>
</event>
<event>
 4    1 -0.4882314E-019  0.1491668E+02  0.7818608E-02  0.1870622E+00
          2   -1    0    0  501    0  0.00000000000E+00  0.00000000000E+00  0.11841996593E+03  0.11841996595E+03  0.25500000000E-02 0.  1.
         -2   -1    0    0    0  501 -0.00000000000E+00 -0.00000000000E+00 -0.46973883555E+00  0.46974575690E+00  0.25500000000E-02 0. -1.
         31    1    1    2    0    0 -0.98705105323E-02 -0.39736207864E+00  0.59770138230E+02  0.60233598134E+02  0.74470750000E+01 0. -1.
        -31    1    1    2    0    0  0.98705105323E-02  0.39736207864E+00  0.58180088861E+02  0.58656113578E+02  0.74470750000E+01 0. -1.
<mgrwt>
<rscale>  0 0.14916685E+02</rscale>
<asrwt>0</asrwt>
<pdfrwt beam="1">  1        2 0.98306332E+00 0.14916685E+02</pdfrwt>
<pdfrwt beam="2">  1       -2 0.99762542E+00 0.14916685E+02</pdfrwt>
<totfact>-0.32546687E-13</totfact>
</mgrwt>
</event>
<event>
 4    1  0.4882314E-019  0.1491555E+02  0.7818608E-02  0.1870656E+00
          2   -1    0    0  501    0  0.00000000000E+00  0.00000000000E+00  0.12013392366E+03  0.12013392369E+03  0.25500000000E-02 0. -1.
         -2   -1    0    0    0  501 -0.00000000000E+00 -0.00000000000E+00 -0.46296677579E+00  0.46297379837E+00  0.25500000000E-02 0.  1.
         31    1    1    2    0    0 -0.29211050469E+00  0.14376553565E+00  0.61705917836E+02  0.62154526940E+02  0.74470750000E+01 0.  1.
        -31    1    1    2    0    0  0.29211050469E+00 -0.14376553565E+00  0.57965039052E+02  0.58442370549E+02  0.74470750000E+01 0.  1.
<mgrwt>
<rscale>  0 0.14915554E+02</rscale>
<asrwt>0</asrwt>
<pdfrwt beam="1">  1        2 0.99717953E+00 0.14915554E+02</pdfrwt>
<pdfrwt beam="2">  1       -2 0.98335386E+00 0.14915554E+02</pdfrwt>
<totfact> 0.52066209E-13</totfact>
</mgrwt>
</event>
<event>
 4    1 -0.4882314E-019  0.1492990E+02  0.7818608E-02  0.1870215E+00
          2   -1    0    0  501    0  0.00000000000E+00  0.00000000000E+00  0.11889880217E+03  0.11889880219E+03  0.25500000000E-02 0. -1.
         -2   -1    0    0    0  501 -0.00000000000E+00 -0.00000000000E+00 -0.46867635921E+00  0.46868329625E+00  0.25500000000E-02 0.  1.
         31    1    1    2    0    0 -0.30311667493E+00 -0.41359329580E+00  0.58734806043E+02  0.59207257208E+02  0.74470750000E+01 0.  1.
        -31    1    1    2    0    0  0.30311667493E+00  0.41359329580E+00  0.59695319763E+02  0.60160228281E+02  0.74470750000E+01 0.  1.
<mgrwt>
<rscale>  0 0.14929899E+02</rscale>
<asrwt>0</asrwt>
<pdfrwt beam="1">  1        2 0.98701389E+00 0.14929899E+02</pdfrwt>
<pdfrwt beam="2">  1       -2 0.99539368E+00 0.14929899E+02</pdfrwt>
<totfact>-0.25123964E-13</totfact>
</mgrwt>
</event>
<event>
 4    1 -0.4882314E-019  0.1493447E+02  0.7818608E-02  0.1870075E+00
         -2   -1    0    0    0  501 -0.00000000000E+00  0.00000000000E+00  0.12017965739E+03  0.12017965742E+03  0.25500000000E-02 0.  1.
          2   -1    0    0  501    0  0.00000000000E+00 -0.00000000000E+00 -0.46396532953E+00  0.46397233700E+00  0.25500000000E-02 0. -1.
         31    1    1    2    0    0  0.32946177169E+00  0.15770599912E+00  0.56553908591E+02  0.57043289870E+02  0.74470750000E+01 0. -1.
        -31    1    1    2    0    0 -0.32946177169E+00 -0.15770599912E+00  0.63161783469E+02  0.63600339884E+02  0.74470750000E+01 0.  1.
<mgrwt>
<rscale>  0 0.14934473E+02</rscale>
<asrwt>0</asrwt>
<pdfrwt beam="2">  1        2 0.98546807E+00 0.14934473E+02</pdfrwt>
<pdfrwt beam="1">  1       -2 0.99756594E+00 0.14934473E+02</pdfrwt>
<totfact>-0.22286755E-13</totfact>
</mgrwt>
</event>
<event>
 4    1  0.4882314E-019  0.1492785E+02  0.7818608E-02  0.1870278E+00
         -2   -1    0    0    0  501 -0.00000000000E+00  0.00000000000E+00  0.11893591207E+03  0.11893591209E+03  0.25500000000E-02 0. -1.
          2   -1    0    0  501    0  0.00000000000E+00 -0.00000000000E+00 -0.46840162427E+00  0.46840856538E+00  0.25500000000E-02 0.  1.
         31    1    1    2    0    0 -0.22629103172E+00 -0.15538751024E+00  0.62588579623E+02  0.63030663793E+02  0.74470750000E+01 0. -1.
        -31    1    1    2    0    0  0.22629103172E+00  0.15538751024E+00  0.55878930817E+02  0.56373656864E+02  0.74470750000E+01 0.  1.
<mgrwt>
<rscale>  0 0.14927852E+02</rscale>
<asrwt>0</asrwt>
<pdfrwt beam="2">  1        2 0.99481370E+00 0.14927852E+02</pdfrwt>
<pdfrwt beam="1">  1       -2 0.98731847E+00 0.14927852E+02</pdfrwt>
<totfact> 0.21796918E-13</totfact>
</mgrwt>
</event>
<event>
 4    1  0.4882314E-019  0.1490870E+02  0.7818608E-02  0.1870867E+00
         -2   -1    0    0    0  501 -0.00000000000E+00  0.00000000000E+00  0.11870271417E+03  0.11870271420E+03  0.25500000000E-02 0. -1.
          2   -1    0    0  501    0  0.00000000000E+00 -0.00000000000E+00 -0.46811851334E+00  0.46812545864E+00  0.25500000000E-02 0.  1.
         31    1    1    2    0    0  0.18850410238E+00 -0.86035478920E-01  0.61162908358E+02  0.61614959391E+02  0.74470750000E+01 0. -1.
        -31    1    1    2    0    0 -0.18850410238E+00  0.86035478920E-01  0.57071687298E+02  0.57555880264E+02  0.74470750000E+01 0.  1.
<mgrwt>
<rscale>  0 0.14908703E+02</rscale>
<asrwt>0</asrwt>
<pdfrwt beam="2">  1        2 0.99420713E+00 0.14908703E+02</pdfrwt>
<pdfrwt beam="1">  1       -2 0.98538788E+00 0.14908703E+02</pdfrwt>
<totfact> 0.46606322E-13</totfact>
</mgrwt>
</event>
<event>
 4    1  0.4882314E-019  0.1496841E+02  0.7818608E-02  0.1869034E+00
         -2   -1    0    0    0  501 -0.00000000000E+00  0.00000000000E+00  0.11906244029E+03  0.11906244032E+03  0.25500000000E-02 0. -1.
          2   -1    0    0  501    0  0.00000000000E+00 -0.00000000000E+00 -0.47044972504E+00  0.47045663593E+00  0.25500000000E-02 0.  1.
         31    1    1    2    0    0  0.69398618757E-01  0.61525396814E+00  0.55993482089E+02  0.56489931104E+02  0.74470750000E+01 0.  1.
        -31    1    1    2    0    0 -0.69398618757E-01 -0.61525396814E+00  0.62598508476E+02  0.63042965850E+02  0.74470750000E+01 0. -1.
<mgrwt>
<rscale>  0 0.14968408E+02</rscale>
<asrwt>0</asrwt>
<pdfrwt beam="2">  1        2 0.99915054E+00 0.14968408E+02</pdfrwt>
<pdfrwt beam="1">  1       -2 0.98838162E+00 0.14968408E+02</pdfrwt>
<totfact> 0.31651446E-14</totfact>
</mgrwt>
</event>
<event>
 4    1 -0.4882314E-019  0.1499168E+02  0.7818608E-02  0.1868322E+00
         -2   -1    0    0    0  501 -0.00000000000E+00  0.00000000000E+00  0.11978278003E+03  0.11978278006E+03  0.25500000000E-02 0.  1.
          2   -1    0    0  501    0  0.00000000000E+00 -0.00000000000E+00 -0.46907594524E+00  0.46908287637E+00  0.25500000000E-02 0. -1.
         31    1    1    2    0    0 -0.10840058451E+00 -0.15171492005E+00  0.52974890921E+02  0.53496100440E+02  0.74470750000E+01 0. -1.
        -31    1    1    2    0    0  0.10840058451E+00  0.15171492005E+00  0.66338813164E+02  0.66755762494E+02  0.74470750000E+01 0.  1.
<mgrwt>
<rscale>  0 0.14991683E+02</rscale>
<asrwt>0</asrwt>
<pdfrwt beam="2">  1        2 0.99626788E+00 0.14991683E+02</pdfrwt>
<pdfrwt beam="1">  1       -2 0.99432654E+00 0.14991683E+02</pdfrwt>
<totfact>-0.10076763E-13</totfact>
</mgrwt>
</event>
<event>
 4    1 -0.4882314E-019  0.1494386E+02  0.7818608E-02  0.1869786E+00
          2   -1    0    0  501    0  0.00000000000E+00  0.00000000000E+00  0.11906423274E+03  0.11906423277E+03  0.25500000000E-02 0.  1.
         -2   -1    0    0    0  501 -0.00000000000E+00 -0.00000000000E+00 -0.46890096825E+00  0.46890790196E+00  0.25500000000E-02 0. -1.
         31    1    1    2    0    0  0.26196892019E+00  0.53865538605E+00  0.60175593555E+02  0.60637610137E+02  0.74470750000E+01 0. -1.
        -31    1    1    2    0    0 -0.26196892019E+00 -0.53865538605E+00  0.58419738215E+02  0.58895530531E+02  0.74470750000E+01 0.  1.
<mgrwt>
<rscale>  0 0.14943862E+02</rscale>
<asrwt>0</asrwt>
<pdfrwt beam="1">  1        2 0.98838364E+00 0.14943862E+02</pdfrwt>
<pdfrwt beam="2">  1       -2 0.99587427E+00 0.14943862E+02</pdfrwt>
<totfact>-0.20223919E-13</totfact>
</mgrwt>
</event>
<event>
 4    1 -0.4882314E-019  0.1501061E+02  0.7818608E-02  0.1867745E+00
          2   -1    0    0  501    0  0.00000000000E+00  0.00000000000E+00  0.11997039458E+03  0.11997039461E+03  0.25500000000E-02 0. -1.
         -2   -1    0    0    0  501 -0.00000000000E+00 -0.00000000000E+00 -0.46952577663E+00  0.46953270112E+00  0.25500000000E-02 0.  1.
         31    1    1    2    0    0  0.78960933530E+00 -0.10019954599E+00  0.55842969954E+02  0.56342965330E+02  0.74470750000E+01 0.  1.
        -31    1    1    2    0    0 -0.78960933530E+00  0.10019954599E+00  0.63657898851E+02  0.64096961980E+02  0.74470750000E+01 0. -1.
<mgrwt>
<rscale>  0 0.15010611E+02</rscale>
<asrwt>0</asrwt>
<pdfrwt beam="1">  1        2 0.99588159E+00 0.15010611E+02</pdfrwt>
<pdfrwt beam="2">  1       -2 0.99722562E+00 0.15010611E+02</pdfrwt>
<totfact>-0.81621895E-14</totfact>
</mgrwt>
</event>
<event>
 4    1  0.4882314E-019  0.1493442E+02  0.7818608E-02  0.1870076E+00
         -2   -1    0    0    0  501 -0.00000000000E+00  0.00000000000E+00  0.11871651196E+03  0.11871651199E+03  0.25500000000E-02 0. -1.
          2   -1    0    0  501    0  0.00000000000E+00 -0.00000000000E+00 -0.46968017728E+00  0.46968709949E+00  0.25500000000E-02 0.  1.
         31    1    1    2    0    0 -0.31081414126E+00 -0.54085478450E-02  0.62724849419E+02  0.63166148334E+02  0.74470750000E+01 0. -1.
        -31    1    1    2    0    0  0.31081414126E+00  0.54085478450E-02  0.55521982363E+02  0.56020050752E+02  0.74470750000E+01 0.  1.
<mgrwt>
<rscale>  0 0.14934418E+02</rscale>
<asrwt>0</asrwt>
<pdfrwt beam="2">  1        2 0.99751118E+00 0.14934418E+02</pdfrwt>
<pdfrwt beam="1">  1       -2 0.98551488E+00 0.14934418E+02</pdfrwt>
<totfact> 0.26981172E-13</totfact>
</mgrwt>
</event>
<event>
 4    1  0.4882314E-019  0.1491228E+02  0.7818608E-02  0.1870757E+00
          2   -1    0    0  501    0  0.00000000000E+00  0.00000000000E+00  0.12007928610E+03  0.12007928612E+03  0.25500000000E-02 0. -1.
         -2   -1    0    0    0  501 -0.00000000000E+00 -0.00000000000E+00 -0.46297420851E+00  0.46298123099E+00  0.25500000000E-02 0.  1.
         31    1    1    2    0    0  0.19791160020E-01  0.33066553781E+00  0.58520380824E+02  0.58993250709E+02  0.74470750000E+01 0. -1.
        -31    1    1    2    0    0 -0.19791160020E-01 -0.33066553781E+00  0.61095931063E+02  0.61549016645E+02  0.74470750000E+01 0. -1.
<mgrwt>
<rscale>  0 0.14912282E+02</rscale>
<asrwt>0</asrwt>
<pdfrwt beam="1">  1        2 0.99672781E+00 0.14912282E+02</pdfrwt>
<pdfrwt beam="2">  1       -2 0.98336787E+00 0.14912282E+02</pdfrwt>
<totfact> 0.57334697E-13</totfact>
</mgrwt>
</event>
<event>
 4    1 -0.4882314E-019  0.1494288E+02  0.7818608E-02  0.1869817E+00
          2   -1    0    0  501    0  0.00000000000E+00  0.00000000000E+00  0.11888260201E+03  0.11888260204E+03  0.25500000000E-02 0. -1.
         -2   -1    0    0    0  501 -0.00000000000E+00 -0.00000000000E+00 -0.46955550750E+00  0.46956243156E+00  0.25500000000E-02 0.  1.
         31    1    1    2    0    0 -0.51219669701E+00  0.14681820230E+00  0.61459548159E+02  0.61911379301E+02  0.74470750000E+01 0. -1.
        -31    1    1    2    0    0  0.51219669701E+00 -0.14681820230E+00  0.56953498347E+02  0.57440785171E+02  0.74470750000E+01 0.  1.
<mgrwt>
<rscale>  0 0.14942877E+02</rscale>
<asrwt>0</asrwt>
<pdfrwt beam="1">  1        2 0.98688720E+00 0.14942877E+02</pdfrwt>
<pdfrwt beam="2">  1       -2 0.99725294E+00 0.14942877E+02</pdfrwt>
<totfact>-0.19604150E-13</totfact>
</mgrwt>
</event>
<event>
 4    1  0.4882314E-019  0.1491001E+02  0.7818608E-02  0.1870827E+00
          2   -1    0    0  501    0  0.00000000000E+00  0.00000000000E+00  0.11999283110E+03  0.11999283113E+03  0.25500000000E-02 0. -1.
         -2   -1    0    0    0  501 -0.00000000000E+00 -0.00000000000E+00 -0.46316675688E+00  0.46317377644E+00  0.25500000000E-02 0.  1.
         31    1    1    2    0    0  0.72149834850E-01 -0.11135874502E-02  0.62480364480E+02  0.62922651553E+02  0.74470750000E+01 0. -1.
        -31    1    1    2    0    0 -0.72149834850E-01  0.11135874502E-02  0.57049299861E+02  0.57533353349E+02  0.74470750000E+01 0.  1.
<mgrwt>
<rscale>  0 0.14910012E+02</rscale>
<asrwt>0</asrwt>
<pdfrwt beam="1">  1        2 0.99601453E+00 0.14910012E+02</pdfrwt>
<pdfrwt beam="2">  1       -2 0.98377255E+00 0.14910012E+02</pdfrwt>
<totfact> 0.58889719E-13</totfact>
</mgrwt>
</event>
<event>
 4    1  0.4882314E-019  0.1496114E+02  0.7818608E-02  0.1869257E+00
          2   -1    0    0  501    0  0.00000000000E+00  0.00000000000E+00  0.12028448999E+03  0.12028449001E+03  0.25500000000E-02 0.  1.
         -2   -1    0    0    0  501 -0.00000000000E+00 -0.00000000000E+00 -0.46521780881E+00  0.46522479742E+00  0.25500000000E-02 0. -1.
         31    1    1    2    0    0  0.23628373367E+00 -0.19187046698E+00  0.65060737203E+02  0.65486266466E+02  0.74470750000E+01 0.  1.
        -31    1    1    2    0    0 -0.23628373367E+00  0.19187046698E+00  0.54758534974E+02  0.55263448343E+02  0.74470750000E+01 0.  1.
<mgrwt>
<rscale>  0 0.14961138E+02</rscale>
<asrwt>0</asrwt>
<pdfrwt beam="1">  1        2 0.99844313E+00 0.14961138E+02</pdfrwt>
<pdfrwt beam="2">  1       -2 0.98812137E+00 0.14961138E+02</pdfrwt>
<totfact> 0.63288495E-14</totfact>
</mgrwt>
</event>
<event>
 4    1  0.4882314E-019  0.1490608E+02  0.7818608E-02  0.1870948E+00
          2   -1    0    0  501    0  0.00000000000E+00  0.00000000000E+00  0.11947385432E+03  0.11947385435E+03  0.25500000000E-02 0. -1.
         -2   -1    0    0    0  501 -0.00000000000E+00 -0.00000000000E+00 -0.46493314395E+00  0.46494013684E+00  0.25500000000E-02 0.  1.
         31    1    1    2    0    0  0.27962743978E+00 -0.10300740428E+00  0.59448938798E+02  0.59914305906E+02  0.74470750000E+01 0. -1.
        -31    1    1    2    0    0 -0.27962743978E+00  0.10300740428E+00  0.59559982378E+02  0.60024488577E+02  0.74470750000E+01 0. -1.
<mgrwt>
<rscale>  0 0.14906076E+02</rscale>
<asrwt>0</asrwt>
<pdfrwt beam="1">  1        2 0.99173787E+00 0.14906076E+02</pdfrwt>
<pdfrwt beam="2">  1       -2 0.98749328E+00 0.14906076E+02</pdfrwt>
<totfact> 0.25508032E-13</totfact>
</mgrwt>
</event>
<event>
 4    1 -0.4882314E-019  0.1496013E+02  0.7818608E-02  0.1869288E+00
          2   -1    0    0  501    0  0.00000000000E+00  0.00000000000E+00  0.11934430915E+03  0.11934430918E+03  0.25500000000E-02 0. -1.
         -2   -1    0    0    0  501 -0.00000000000E+00 -0.00000000000E+00 -0.46881944104E+00  0.46882637596E+00  0.25500000000E-02 0.  1.
         31    1    1    2    0    0  0.68588631182E+00  0.11790281416E+00  0.58717741372E+02  0.59192198970E+02  0.74470750000E+01 0. -1.
        -31    1    1    2    0    0 -0.68588631182E+00 -0.11790281416E+00  0.60157748336E+02  0.60620936581E+02  0.74470750000E+01 0. -1.
<mgrwt>
<rscale>  0 0.14960127E+02</rscale>
<asrwt>0</asrwt>
<pdfrwt beam="1">  1        2 0.99069883E+00 0.14960127E+02</pdfrwt>
<pdfrwt beam="2">  1       -2 0.99571096E+00 0.14960127E+02</pdfrwt>
<totfact>-0.16166620E-13</totfact>
</mgrwt>
</event>
<event>
 4    1 -0.4882314E-019  0.1495705E+02  0.7818608E-02  0.1869382E+00
         -2   -1    0    0    0  501 -0.00000000000E+00  0.00000000000E+00  0.11938423627E+03  0.11938423630E+03  0.25500000000E-02 0. -1.
          2   -1    0    0  501    0  0.00000000000E+00 -0.00000000000E+00 -0.46846976845E+00  0.46847670855E+00  0.25500000000E-02 0.  1.
         31    1    1    2    0    0 -0.90099772298E-01 -0.38745162372E+00  0.54988022014E+02  0.55491438329E+02  0.74470750000E+01 0.  1.
        -31    1    1    2    0    0  0.90099772298E-01  0.38745162372E+00  0.63927744490E+02  0.64361274680E+02  0.74470750000E+01 0. -1.
<mgrwt>
<rscale>  0 0.14957048E+02</rscale>
<asrwt>0</asrwt>
<pdfrwt beam="2">  1        2 0.99497252E+00 0.14957048E+02</pdfrwt>
<pdfrwt beam="1">  1       -2 0.99102609E+00 0.14957048E+02</pdfrwt>
<totfact>-0.43008588E-14</totfact>
</mgrwt>
</event>
<event>
 4    1 -0.4882314E-019  0.1489689E+02  0.7818608E-02  0.1871231E+00
         -2   -1    0    0    0  501 -0.00000000000E+00  0.00000000000E+00  0.12024529341E+03  0.12024529344E+03  0.25500000000E-02 0. -1.
          2   -1    0    0  501    0  0.00000000000E+00 -0.00000000000E+00 -0.46138119628E+00  0.46138824300E+00  0.25500000000E-02 0.  1.
         31    1    1    2    0    0  0.12572382905E+00 -0.14613420777E-01  0.60429323168E+02  0.60886599877E+02  0.74470750000E+01 0.  1.
        -31    1    1    2    0    0 -0.12572382905E+00  0.14613420777E-01  0.59354589047E+02  0.59820081804E+02  0.74470750000E+01 0.  1.
<mgrwt>
<rscale>  0 0.14896892E+02</rscale>
<asrwt>0</asrwt>
<pdfrwt beam="2">  1        2 0.98000246E+00 0.14896892E+02</pdfrwt>
<pdfrwt beam="1">  1       -2 0.99808730E+00 0.14896892E+02</pdfrwt>
<totfact>-0.45855487E-13</totfact>
</mgrwt>
</event>
<event>
 4    1 -0.4882314E-019  0.1497319E+02  0.7818608E-02  0.1868888E+00
         -2   -1    0    0    0  501 -0.00000000000E+00  0.00000000000E+00  0.12026216936E+03  0.12026216938E+03  0.25500000000E-02 0. -1.
          2   -1    0    0  501    0  0.00000000000E+00 -0.00000000000E+00 -0.46605441144E+00  0.46606138751E+00  0.25500000000E-02 0.  1.
         31    1    1    2    0    0 -0.36304259476E+00 -0.63760740023E+00  0.58061753345E+02  0.58541988954E+02  0.74470750000E+01 0.  1.
        -31    1    1    2    0    0  0.36304259476E+00  0.63760740023E+00  0.61734361600E+02  0.62186241817E+02  0.74470750000E+01 0. -1.
<mgrwt>
<rscale>  0 0.14973194E+02</rscale>
<asrwt>0</asrwt>
<pdfrwt beam="2">  1        2 0.98989072E+00 0.14973194E+02</pdfrwt>
<pdfrwt beam="1">  1       -2 0.99826548E+00 0.14973194E+02</pdfrwt>
<totfact>-0.95422943E-14</totfact>
</mgrwt>
</event>
<event>
 4    1  0.4882314E-019  0.1492864E+02  0.7818608E-02  0.1870254E+00
         -2   -1    0    0    0  501 -0.00000000000E+00  0.00000000000E+00  0.11896097406E+03  0.11896097409E+03  0.25500000000E-02 0.  1.
          2   -1    0    0  501    0  0.00000000000E+00 -0.00000000000E+00 -0.46835249644E+00  0.46835943827E+00  0.25500000000E-02 0. -1.
         31    1    1    2    0    0 -0.28174049914E+00  0.34071263348E+00  0.57259205392E+02  0.57743146701E+02  0.74470750000E+01 0.  1.
        -31    1    1    2    0    0  0.28174049914E+00 -0.34071263348E+00  0.61233416172E+02  0.61686186825E+02  0.74470750000E+01 0. -1.
<mgrwt>
<rscale>  0 0.14928642E+02</rscale>
<asrwt>0</asrwt>
<pdfrwt beam="2">  1        2 0.99471059E+00 0.14928642E+02</pdfrwt>
<pdfrwt beam="1">  1       -2 0.98752529E+00 0.14928642E+02</pdfrwt>
<totfact> 0.19978364E-13</totfact>
</mgrwt>
</event>
<event>
 4    1 -0.4882314E-019  0.1501654E+02  0.7818608E-02  0.1867564E+00
          2   -1    0    0  501    0  0.00000000000E+00  0.00000000000E+00  0.11986009265E+03  0.11986009268E+03  0.25500000000E-02 0. -1.
         -2   -1    0    0    0  501 -0.00000000000E+00 -0.00000000000E+00 -0.47032945689E+00  0.47033636955E+00  0.25500000000E-02 0.  1.
         31    1    1    2    0    0 -0.83207766061E+00 -0.24510575279E+00  0.62928019684E+02  0.63373078018E+02  0.74470750000E+01 0. -1.
        -31    1    1    2    0    0  0.83207766061E+00  0.24510575279E+00  0.56461743507E+02  0.56957351027E+02  0.74470750000E+01 0.  1.
<mgrwt>
<rscale>  0 0.15016544E+02</rscale>
<asrwt>0</asrwt>
<pdfrwt beam="1">  1        2 0.99497618E+00 0.15016544E+02</pdfrwt>
<pdfrwt beam="2">  1       -2 0.99892227E+00 0.15016544E+02</pdfrwt>
<totfact>-0.41651947E-14</totfact>
</mgrwt>
</event>
<event>
 4    1 -0.4882314E-019  0.1490868E+02  0.7818608E-02  0.1870868E+00
          2   -1    0    0  501    0  0.00000000000E+00  0.00000000000E+00  0.11865544140E+03  0.11865544143E+03  0.25500000000E-02 0. -1.
         -2   -1    0    0    0  501 -0.00000000000E+00 -0.00000000000E+00 -0.46830356353E+00  0.46831050609E+00  0.25500000000E-02 0.  1.
         31    1    1    2    0    0  0.46521545393E-01 -0.29554722054E+00  0.57999674437E+02  0.58476582264E+02  0.74470750000E+01 0.  1.
        -31    1    1    2    0    0 -0.46521545393E-01  0.29554722054E+00  0.60187463401E+02  0.60647169671E+02  0.74470750000E+01 0. -1.
<mgrwt>
<rscale>  0 0.14908680E+02</rscale>
<asrwt>0</asrwt>
<pdfrwt beam="1">  1        2 0.98499853E+00 0.14908680E+02</pdfrwt>
<pdfrwt beam="2">  1       -2 0.99459703E+00 0.14908680E+02</pdfrwt>
<totfact>-0.34784002E-13</totfact>
</mgrwt>
</event>
<event>
 4    1  0.4882314E-019  0.1489952E+02  0.7818608E-02  0.1871150E+00
          2   -1    0    0  501    0  0.00000000000E+00  0.00000000000E+00  0.11992670474E+03  0.11992670476E+03  0.25500000000E-02 0. -1.
         -2   -1    0    0    0  501 -0.00000000000E+00 -0.00000000000E+00 -0.46277005262E+00  0.46277707819E+00  0.25500000000E-02 0.  1.
         31    1    1    2    0    0  0.98134777915E-01 -0.12758607478E-02  0.58324224253E+02  0.58797820477E+02  0.74470750000E+01 0.  1.
        -31    1    1    2    0    0 -0.98134777915E-01  0.12758607478E-02  0.61139710431E+02  0.61591661365E+02  0.74470750000E+01 0. -1.
<mgrwt>
<rscale>  0 0.14899518E+02</rscale>
<asrwt>0</asrwt>
<pdfrwt beam="1">  1        2 0.99546447E+00 0.14899518E+02</pdfrwt>
<pdfrwt beam="2">  1       -2 0.98293111E+00 0.14899518E+02</pdfrwt>
<totfact> 0.76777372E-13</totfact>
</mgrwt>
</event>
<event>
 4    1 -0.4882314E-019  0.1499008E+02  0.7818608E-02  0.1868371E+00
         -2   -1    0    0    0  501 -0.00000000000E+00  0.00000000000E+00  0.12006395737E+03  0.12006395740E+03  0.25500000000E-02 0. -1.
          2   -1    0    0  501    0  0.00000000000E+00 -0.00000000000E+00 -0.46787710409E+00  0.46788405298E+00  0.25500000000E-02 0.  1.
         31    1    1    2    0    0 -0.51427962836E+00 -0.40411468723E+00  0.64119751915E+02  0.64554080459E+02  0.74470750000E+01 0. -1.
        -31    1    1    2    0    0  0.51427962836E+00  0.40411468723E+00  0.55476328354E+02  0.55977760994E+02  0.74470750000E+01 0.  1.
<mgrwt>
<rscale>  0 0.14990076E+02</rscale>
<asrwt>0</asrwt>
<pdfrwt beam="2">  1        2 0.99374067E+00 0.14990076E+02</pdfrwt>
<pdfrwt beam="1">  1       -2 0.99664160E+00 0.14990076E+02</pdfrwt>
<totfact>-0.11448508E-13</totfact>
</mgrwt>
</event>
<event>
 4    1 -0.4882314E-019  0.1496563E+02  0.7818608E-02  0.1869119E+00
         -2   -1    0    0    0  501 -0.00000000000E+00  0.00000000000E+00  0.11998930603E+03  0.11998930606E+03  0.25500000000E-02 0. -1.
          2   -1    0    0  501    0  0.00000000000E+00 -0.00000000000E+00 -0.46664250926E+00  0.46664947653E+00  0.25500000000E-02 0.  1.
         31    1    1    2    0    0  0.45171857703E+00  0.29851358566E+00  0.63708103626E+02  0.64144170068E+02  0.74470750000E+01 0. -1.
        -31    1    1    2    0    0 -0.45171857703E+00 -0.29851358566E+00  0.55814559900E+02  0.56311785471E+02  0.74470750000E+01 0.  1.
<mgrwt>
<rscale>  0 0.14965632E+02</rscale>
<asrwt>0</asrwt>
<pdfrwt beam="2">  1        2 0.99112627E+00 0.14965632E+02</pdfrwt>
<pdfrwt beam="1">  1       -2 0.99601412E+00 0.14965632E+02</pdfrwt>
<totfact>-0.15162540E-13</totfact>
</mgrwt>
</event>
<event>
 4    1 -0.4882314E-019  0.1493042E+02  0.7818608E-02  0.1870199E+00
          2   -1    0    0  501    0  0.00000000000E+00  0.00000000000E+00  0.11883735961E+03  0.11883735964E+03  0.25500000000E-02 0. -1.
         -2   -1    0    0    0  501 -0.00000000000E+00 -0.00000000000E+00 -0.46895160348E+00  0.46895853644E+00  0.25500000000E-02 0.  1.
         31    1    1    2    0    0 -0.97736108563E-01  0.50758113043E+00  0.59641048335E+02  0.60106412000E+02  0.74470750000E+01 0. -1.
        -31    1    1    2    0    0  0.97736108563E-01 -0.50758113043E+00  0.58727359670E+02  0.59199906173E+02  0.74470750000E+01 0. -1.
<mgrwt>
<rscale>  0 0.14930423E+02</rscale>
<asrwt>0</asrwt>
<pdfrwt beam="1">  1        2 0.98650811E+00 0.14930423E+02</pdfrwt>
<pdfrwt beam="2">  1       -2 0.99597392E+00 0.14930423E+02</pdfrwt>
<totfact>-0.25826271E-13</totfact>
</mgrwt>
</event>
<event>
 4    1  0.4882314E-019  0.1491880E+02  0.7818608E-02  0.1870557E+00
          2   -1    0    0  501    0  0.00000000000E+00  0.00000000000E+00  0.11951406190E+03  0.11951406192E+03  0.25500000000E-02 0.  1.
         -2   -1    0    0    0  501 -0.00000000000E+00 -0.00000000000E+00 -0.46557032280E+00  0.46557730611E+00  0.25500000000E-02 0. -1.
         31    1    1    2    0    0  0.36959340898E+00 -0.61368364367E-01  0.57850206353E+02  0.58328772201E+02  0.74470750000E+01 0.  1.
        -31    1    1    2    0    0 -0.36959340898E+00  0.61368364367E-01  0.61198285221E+02  0.61650867028E+02  0.74470750000E+01 0.  1.
<mgrwt>
<rscale>  0 0.14918796E+02</rscale>
<asrwt>0</asrwt>
<pdfrwt beam="1">  1        2 0.99207560E+00 0.14918796E+02</pdfrwt>
<pdfrwt beam="2">  1       -2 0.98884264E+00 0.14918796E+02</pdfrwt>
<totfact> 0.10580370E-13</totfact>
</mgrwt>
</event>
<event>
 4    1 -0.4882314E-019  0.1490422E+02  0.7818608E-02  0.1871006E+00
          2   -1    0    0  501    0  0.00000000000E+00  0.00000000000E+00  0.11878094436E+03  0.11878094438E+03  0.25500000000E-02 0.  1.
         -2   -1    0    0    0  501 -0.00000000000E+00 -0.00000000000E+00 -0.46752862797E+00  0.46753558204E+00  0.25500000000E-02 0. -1.
         31    1    1    2    0    0  0.16129814050E+00  0.28616811996E-01  0.57401112301E+02  0.57882410588E+02  0.74470750000E+01 0. -1.
        -31    1    1    2    0    0 -0.16129814050E+00 -0.28616811996E-01  0.60912303428E+02  0.61366069379E+02  0.74470750000E+01 0.  1.
<mgrwt>
<rscale>  0 0.14904215E+02</rscale>
<asrwt>0</asrwt>
<pdfrwt beam="1">  1        2 0.98602987E+00 0.14904215E+02</pdfrwt>
<pdfrwt beam="2">  1       -2 0.99296181E+00 0.14904215E+02</pdfrwt>
<totfact>-0.25428995E-13</totfact>
</mgrwt>
</event>
<event>
 4    1  0.4882314E-019  0.1492089E+02  0.7818608E-02  0.1870492E+00
         -2   -1    0    0    0  501 -0.00000000000E+00  0.00000000000E+00  0.11900298915E+03  0.11900298918E+03  0.25500000000E-02 0.  1.
          2   -1    0    0  501    0  0.00000000000E+00 -0.00000000000E+00 -0.46770080924E+00  0.46770776074E+00  0.25500000000E-02 0. -1.
         31    1    1    2    0    0  0.98218296701E-01  0.46119025993E-01  0.55800430805E+02  0.56295282022E+02  0.74470750000E+01 0. -1.
        -31    1    1    2    0    0 -0.98218296701E-01 -0.46119025993E-01  0.62734857539E+02  0.63175414920E+02  0.74470750000E+01 0.  1.
<mgrwt>
<rscale>  0 0.14920886E+02</rscale>
<asrwt>0</asrwt>
<pdfrwt beam="2">  1        2 0.99333332E+00 0.14920886E+02</pdfrwt>
<pdfrwt beam="1">  1       -2 0.98786731E+00 0.14920886E+02</pdfrwt>
<totfact> 0.18775474E-13</totfact>
</mgrwt>
</event>
<event>
 4    1  0.4882314E-019  0.1492753E+02  0.7818608E-02  0.1870288E+00
         -2   -1    0    0    0  501 -0.00000000000E+00  0.00000000000E+00  0.11881638000E+03  0.11881638002E+03  0.25500000000E-02 0.  1.
          2   -1    0    0  501    0  0.00000000000E+00 -0.00000000000E+00 -0.46885289253E+00  0.46885982696E+00  0.25500000000E-02 0. -1.
         31    1    1    2    0    0  0.23674294625E+00 -0.35333845517E+00  0.61257508357E+02  0.61709984212E+02  0.74470750000E+01 0. -1.
        -31    1    1    2    0    0 -0.23674294625E+00  0.35333845517E+00  0.57090018748E+02  0.57575255640E+02  0.74470750000E+01 0. -1.
<mgrwt>
<rscale>  0 0.14927534E+02</rscale>
<asrwt>0</asrwt>
<pdfrwt beam="2">  1        2 0.99576442E+00 0.14927534E+02</pdfrwt>
<pdfrwt beam="1">  1       -2 0.98633382E+00 0.14927534E+02</pdfrwt>
<totfact> 0.29053654E-13</totfact>
</mgrwt>
</event>
<event>
 4    1  0.4882314E-019  0.1492546E+02  0.7818608E-02  0.1870352E+00
         -2   -1    0    0    0  501 -0.00000000000E+00  0.00000000000E+00  0.11862185167E+03  0.11862185170E+03  0.25500000000E-02 0.  1.
          2   -1    0    0  501    0  0.00000000000E+00 -0.00000000000E+00 -0.46949139844E+00  0.46949832343E+00  0.25500000000E-02 0. -1.
         31    1    1    2    0    0 -0.20920560721E+00 -0.42138178401E+00  0.59953782478E+02  0.60416357794E+02  0.74470750000E+01 0.  1.
        -31    1    1    2    0    0  0.20920560721E+00  0.42138178401E+00  0.58198577794E+02  0.58674992227E+02  0.74470750000E+01 0.  1.
<mgrwt>
<rscale>  0 0.14925462E+02</rscale>
<asrwt>0</asrwt>
<pdfrwt beam="2">  1        2 0.99710870E+00 0.14925462E+02</pdfrwt>
<pdfrwt beam="1">  1       -2 0.98473061E+00 0.14925462E+02</pdfrwt>
<totfact> 0.37610541E-13</totfact>
</mgrwt>
</event>
<event>
 4    1 -0.4882314E-019  0.1500360E+02  0.7818608E-02  0.1867959E+00
         -2   -1    0    0    0  501 -0.00000000000E+00  0.00000000000E+00  0.12010087022E+03  0.12010087025E+03  0.25500000000E-02 0.  1.
          2   -1    0    0  501    0  0.00000000000E+00 -0.00000000000E+00 -0.46857751701E+00  0.46858445551E+00  0.25500000000E-02 0. -1.
         31    1    1    2    0    0 -0.40327363560E+00 -0.74105127894E+00  0.62435879320E+02  0.62884097665E+02  0.74470750000E+01 0.  1.
        -31    1    1    2    0    0  0.40327363560E+00  0.74105127894E+00  0.57196413385E+02  0.57685357040E+02  0.74470750000E+01 0. -1.
<mgrwt>
<rscale>  0 0.15003598E+02</rscale>
<asrwt>0</asrwt>
<pdfrwt beam="2">  1        2 0.99522368E+00 0.15003598E+02</pdfrwt>
<pdfrwt beam="1">  1       -2 0.99695261E+00 0.15003598E+02</pdfrwt>
<totfact>-0.94263040E-14</totfact>
</mgrwt>
</event>
<event>
 4    1 -0.4882314E-019  0.1497724E+02  0.7818608E-02  0.1868764E+00
          2   -1    0    0  501    0  0.00000000000E+00  0.00000000000E+00  0.11940009976E+03  0.11940009979E+03  0.25500000000E-02 0.  1.
         -2   -1    0    0    0  501 -0.00000000000E+00 -0.00000000000E+00 -0.46967323554E+00  0.46968015785E+00  0.25500000000E-02 0. -1.
         31    1    1    2    0    0  0.19026297569E-02 -0.99142151041E-01  0.53210781682E+02  0.53729470926E+02  0.74470750000E+01 0. -1.
        -31    1    1    2    0    0 -0.19026297569E-02  0.99142151041E-01  0.65719644843E+02  0.66140309019E+02  0.74470750000E+01 0.  1.
<mgrwt>
<rscale>  0 0.14977242E+02</rscale>
<asrwt>0</asrwt>
<pdfrwt beam="1">  1        2 0.99116721E+00 0.14977242E+02</pdfrwt>
<pdfrwt beam="2">  1       -2 0.99751900E+00 0.14977242E+02</pdfrwt>
<totfact>-0.11323397E-13</totfact>
</mgrwt>
</event>
<event>
 4    1 -0.4882314E-019  0.1493650E+02  0.7818608E-02  0.1870012E+00
         -2   -1    0    0    0  501 -0.00000000000E+00  0.00000000000E+00  0.11981497861E+03  0.11981497864E+03  0.25500000000E-02 0.  1.
          2   -1    0    0  501    0  0.00000000000E+00 -0.00000000000E+00 -0.46550400484E+00  0.46551098916E+00  0.25500000000E-02 0. -1.
         31    1    1    2    0    0 -0.99841078410E-01  0.11010152740E-01  0.55221912828E+02  0.55721886830E+02  0.74470750000E+01 0. -1.
        -31    1    1    2    0    0  0.99841078410E-01 -0.11010152740E-01  0.64127561780E+02  0.64558602799E+02  0.74470750000E+01 0.  1.
<mgrwt>
<rscale>  0 0.14936502E+02</rscale>
<asrwt>0</asrwt>
<pdfrwt beam="2">  1        2 0.98871196E+00 0.14936502E+02</pdfrwt>
<pdfrwt beam="1">  1       -2 0.99456324E+00 0.14936502E+02</pdfrwt>
<totfact>-0.20486944E-13</totfact>
</mgrwt>
</event>
<event>
 4    1  0.4882314E-019  0.1490012E+02  0.7818608E-02  0.1871132E+00
         -2   -1    0    0    0  501 -0.00000000000E+00  0.00000000000E+00  0.11797595474E+03  0.11797595477E+03  0.25500000000E-02 0. -1.
          2   -1    0    0  501    0  0.00000000000E+00 -0.00000000000E+00 -0.47045983471E+00  0.47046674545E+00  0.25500000000E-02 0.  1.
         31    1    1    2    0    0 -0.16236191036E-01 -0.20720208957E+00  0.58473194177E+02  0.58945878225E+02  0.74470750000E+01 0.  1.
        -31    1    1    2    0    0  0.16236191036E-01  0.20720208957E+00  0.59032300730E+02  0.59500543290E+02  0.74470750000E+01 0.  1.
<mgrwt>
<rscale>  0 0.14900115E+02</rscale>
<asrwt>0</asrwt>
<pdfrwt beam="2">  1        2 0.99913571E+00 0.14900115E+02</pdfrwt>
<pdfrwt beam="1">  1       -2 0.97939789E+00 0.14900115E+02</pdfrwt>
<totfact> 0.42050214E-13</totfact>
</mgrwt>
</event>
<event>
 4    1 -0.4882314E-019  0.1495328E+02  0.7818608E-02  0.1869497E+00
         -2   -1    0    0    0  501 -0.00000000000E+00  0.00000000000E+00  0.11987188481E+03  0.11987188484E+03  0.25500000000E-02 0. -1.
          2   -1    0    0  501    0  0.00000000000E+00 -0.00000000000E+00 -0.46632920264E+00  0.46633617460E+00  0.25500000000E-02 0.  1.
         31    1    1    2    0    0 -0.49026096347E+00 -0.16349467955E+00  0.63061334447E+02  0.63501637101E+02  0.74470750000E+01 0. -1.
        -31    1    1    2    0    0  0.49026096347E+00  0.16349467955E+00  0.56344221162E+02  0.56836583911E+02  0.74470750000E+01 0. -1.
<mgrwt>
<rscale>  0 0.14953285E+02</rscale>
<asrwt>0</asrwt>
<pdfrwt beam="2">  1        2 0.99045965E+00 0.14953285E+02</pdfrwt>
<pdfrwt beam="1">  1       -2 0.99504061E+00 0.14953285E+02</pdfrwt>
<totfact>-0.17099659E-13</totfact>
</mgrwt>
</event>
<event>
 4    1 -0.4882314E-019  0.1490845E+02  0.7818608E-02  0.1870875E+00
          2   -1    0    0  501    0  0.00000000000E+00  0.00000000000E+00  0.11873299495E+03  0.11873299498E+03  0.25500000000E-02 0. -1.
         -2   -1    0    0    0  501 -0.00000000000E+00 -0.00000000000E+00 -0.46798333300E+00  0.46799028031E+00  0.25500000000E-02 0.  1.
         31    1    1    2    0    0  0.29342068349E+00  0.47148902884E-01  0.60212158306E+02  0.60671667627E+02  0.74470750000E+01 0. -1.
        -31    1    1    2    0    0 -0.29342068349E+00 -0.47148902884E-01  0.58052853315E+02  0.58529317635E+02  0.74470750000E+01 0. -1.
<mgrwt>
<rscale>  0 0.14908451E+02</rscale>
<asrwt>0</asrwt>
<pdfrwt beam="1">  1        2 0.98563715E+00 0.14908451E+02</pdfrwt>
<pdfrwt beam="2">  1       -2 0.99392215E+00 0.14908451E+02</pdfrwt>
<totfact>-0.30524362E-13</totfact>
</mgrwt>
</event>
<event>
 4    1 -0.4882314E-019  0.1500892E+02  0.7818608E-02  0.1867796E+00
          2   -1    0    0  501    0  0.00000000000E+00  0.00000000000E+00  0.12015962256E+03  0.12015962259E+03  0.25500000000E-02 0. -1.
         -2   -1    0    0    0  501 -0.00000000000E+00 -0.00000000000E+00 -0.46868094097E+00  0.46868787794E+00  0.25500000000E-02 0.  1.
         31    1    1    2    0    0 -0.56691821434E+00 -0.43213225936E+00  0.55091440023E+02  0.55597066688E+02  0.74470750000E+01 0.  1.
        -31    1    1    2    0    0  0.56691821434E+00  0.43213225936E+00  0.64599501600E+02  0.65031243780E+02  0.74470750000E+01 0. -1.
<mgrwt>
<rscale>  0 0.15008923E+02</rscale>
<asrwt>0</asrwt>
<pdfrwt beam="1">  1        2 0.99743927E+00 0.15008923E+02</pdfrwt>
<pdfrwt beam="2">  1       -2 0.99544438E+00 0.15008923E+02</pdfrwt>
<totfact>-0.77461805E-14</totfact>
</mgrwt>
</event>
<event>
 4    1 -0.4882314E-019  0.1491975E+02  0.7818608E-02  0.1870527E+00
         -2   -1    0    0    0  501 -0.00000000000E+00  0.00000000000E+00  0.12016467934E+03  0.12016467936E+03  0.25500000000E-02 0.  1.
          2   -1    0    0  501    0  0.00000000000E+00 -0.00000000000E+00 -0.46310840250E+00  0.46311542295E+00  0.25500000000E-02 0. -1.
         31    1    1    2    0    0  0.80010805258E-01  0.41300323316E+00  0.60800512184E+02  0.61256331765E+02  0.74470750000E+01 0. -1.
        -31    1    1    2    0    0 -0.80010805258E-01 -0.41300323316E+00  0.58901058751E+02  0.59371463022E+02  0.74470750000E+01 0. -1.
<mgrwt>
<rscale>  0 0.14919745E+02</rscale>
<asrwt>0</asrwt>
<pdfrwt beam="2">  1        2 0.98365449E+00 0.14919745E+02</pdfrwt>
<pdfrwt beam="1">  1       -2 0.99743501E+00 0.14919745E+02</pdfrwt>
<totfact>-0.31186400E-13</totfact>
</mgrwt>
</event>
<event>
 4    1 -0.4882314E-019  0.1494946E+02  0.7818608E-02  0.1869615E+00
          2   -1    0    0  501    0  0.00000000000E+00  0.00000000000E+00  0.11955494689E+03  0.11955494692E+03  0.25500000000E-02 0.  1.
         -2   -1    0    0    0  501 -0.00000000000E+00 -0.00000000000E+00 -0.46732647853E+00  0.46733343560E+00  0.25500000000E-02 0. -1.
         31    1    1    2    0    0 -0.35859355744E+00 -0.46309492924E+00  0.57425141769E+02  0.57908970630E+02  0.74470750000E+01 0. -1.
        -31    1    1    2    0    0  0.35859355744E+00  0.46309492924E+00  0.61662478642E+02  0.62113309722E+02  0.74470750000E+01 0.  1.
<mgrwt>
<rscale>  0 0.14949463E+02</rscale>
<asrwt>0</asrwt>
<pdfrwt beam="1">  1        2 0.99242819E+00 0.14949463E+02</pdfrwt>
<pdfrwt beam="2">  1       -2 0.99255934E+00 0.14949463E+02</pdfrwt>
<totfact>-0.11572650E-13</totfact>
</mgrwt>
</event>
<event>
 4    1  0.4882314E-019  0.1490583E+02  0.7818608E-02  0.1870956E+00
         -2   -1    0    0    0  501 -0.00000000000E+00  0.00000000000E+00  0.11828023084E+03  0.11828023087E+03  0.25500000000E-02 0.  1.
          2   -1    0    0  501    0  0.00000000000E+00 -0.00000000000E+00 -0.46960926514E+00  0.46961618840E+00  0.25500000000E-02 0. -1.
         31    1    1    2    0    0  0.24002854996E-01  0.29392957916E+00  0.58882500952E+02  0.59352294102E+02  0.74470750000E+01 0. -1.
        -31    1    1    2    0    0 -0.24002854996E-01 -0.29392957916E+00  0.58928120628E+02  0.59397552959E+02  0.74470750000E+01 0.  1.
<mgrwt>
<rscale>  0 0.14905825E+02</rscale>
<asrwt>0</asrwt>
<pdfrwt beam="2">  1        2 0.99734668E+00 0.14905825E+02</pdfrwt>
<pdfrwt beam="1">  1       -2 0.98190682E+00 0.14905825E+02</pdfrwt>
<totfact> 0.67788940E-13</totfact>
</mgrwt>
</event>
<event>
 4    1 -0.4882314E-019  0.1494641E+02  0.7818608E-02  0.1869708E+00
          2   -1    0    0  501    0  0.00000000000E+00  0.00000000000E+00  0.11874763185E+03  0.11874763187E+03  0.25500000000E-02 0. -1.
         -2   -1    0    0    0  501 -0.00000000000E+00 -0.00000000000E+00 -0.47031141299E+00  0.47031832591E+00  0.25500000000E-02 0.  1.
         31    1    1    2    0    0  0.37917681803E+00  0.25580882478E+00  0.62528763441E+02  0.62972330406E+02  0.74470750000E+01 0. -1.
        -31    1    1    2    0    0 -0.37917681803E+00 -0.25580882478E+00  0.55748556993E+02  0.56245619794E+02  0.74470750000E+01 0.  1.
<mgrwt>
<rscale>  0 0.14946408E+02</rscale>
<asrwt>0</asrwt>
<pdfrwt beam="1">  1        2 0.98577742E+00 0.14946408E+02</pdfrwt>
<pdfrwt beam="2">  1       -2 0.99884753E+00 0.14946408E+02</pdfrwt>
<totfact>-0.11346376E-13</totfact>
</mgrwt>
</event>
<event>
 4    1 -0.4882314E-019  0.1491578E+02  0.7818608E-02  0.1870650E+00
          2   -1    0    0  501    0  0.00000000000E+00  0.00000000000E+00  0.11901640267E+03  0.11901640270E+03  0.25500000000E-02 0. -1.
         -2   -1    0    0    0  501 -0.00000000000E+00 -0.00000000000E+00 -0.46732776213E+00  0.46733471919E+00  0.25500000000E-02 0.  1.
         31    1    1    2    0    0  0.38582585958E+00  0.10043578524E-01  0.58389819799E+02  0.58864071764E+02  0.74470750000E+01 0.  1.
        -31    1    1    2    0    0 -0.38582585958E+00 -0.10043578524E-01  0.60159255111E+02  0.60619665654E+02  0.74470750000E+01 0.  1.
<mgrwt>
<rscale>  0 0.14915775E+02</rscale>
<asrwt>0</asrwt>
<pdfrwt beam="1">  1        2 0.98797514E+00 0.14915775E+02</pdfrwt>
<pdfrwt beam="2">  1       -2 0.99254457E+00 0.14915775E+02</pdfrwt>
<totfact>-0.17600015E-13</totfact>
</mgrwt>
</event>
<event>
 4    1 -0.4882314E-019  0.1498879E+02  0.7818608E-02  0.1868411E+00
          2   -1    0    0  501    0  0.00000000000E+00  0.00000000000E+00  0.11990972052E+03  0.11990972054E+03  0.25500000000E-02 0. -1.
         -2   -1    0    0    0  501 -0.00000000000E+00 -0.00000000000E+00 -0.46839834263E+00  0.46840528378E+00  0.25500000000E-02 0.  1.
         31    1    1    2    0    0 -0.33443799948E+00 -0.26953422629E+00  0.53915309964E+02  0.54428890050E+02  0.74470750000E+01 0. -1.
        -31    1    1    2    0    0  0.33443799948E+00  0.26953422629E+00  0.65526012209E+02  0.65949235777E+02  0.74470750000E+01 0. -1.
<mgrwt>
<rscale>  0 0.14988787E+02</rscale>
<asrwt>0</asrwt>
<pdfrwt beam="1">  1        2 0.99537057E+00 0.14988787E+02</pdfrwt>
<pdfrwt beam="2">  1       -2 0.99483845E+00 0.14988787E+02</pdfrwt>
<totfact>-0.11479645E-13</totfact>
</mgrwt>
</event>
<event>
 4    1 -0.4882314E-019  0.1495666E+02  0.7818608E-02  0.1869394E+00
          2   -1    0    0  501    0  0.00000000000E+00  0.00000000000E+00  0.11955570401E+03  0.11955570404E+03  0.25500000000E-02 0.  1.
         -2   -1    0    0    0  501 -0.00000000000E+00 -0.00000000000E+00 -0.46777363301E+00  0.46778058344E+00  0.25500000000E-02 0. -1.
         31    1    1    2    0    0  0.38372941137E+00 -0.44015330769E+00  0.56700942848E+02  0.57190880647E+02  0.74470750000E+01 0. -1.
        -31    1    1    2    0    0 -0.38372941137E+00  0.44015330769E+00  0.62386987531E+02  0.62832603976E+02  0.74470750000E+01 0. -1.
<mgrwt>
<rscale>  0 0.14956661E+02</rscale>
<asrwt>0</asrwt>
<pdfrwt beam="1">  1        2 0.99243815E+00 0.14956661E+02</pdfrwt>
<pdfrwt beam="2">  1       -2 0.99350537E+00 0.14956661E+02</pdfrwt>
<totfact>-0.13714678E-13</totfact>
</mgrwt>
</event>
<event>
 4    1 -0.4882314E-019  0.1493239E+02  0.7818608E-02  0.1870139E+00
         -2   -1    0    0    0  501 -0.00000000000E+00  0.00000000000E+00  0.12035600604E+03  0.12035600607E+03  0.25500000000E-02 0. -1.
          2   -1    0    0  501    0  0.00000000000E+00 -0.00000000000E+00 -0.46315631501E+00  0.46316333472E+00  0.25500000000E-02 0.  1.
         31    1    1    2    0    0  0.10100492106E+00  0.12199513912E+00  0.64072551183E+02  0.64504076041E+02  0.74470750000E+01 0. -1.
        -31    1    1    2    0    0 -0.10100492106E+00 -0.12199513912E+00  0.55820298546E+02  0.56315093365E+02  0.74470750000E+01 0.  1.
<mgrwt>
<rscale>  0 0.14932390E+02</rscale>
<asrwt>0</asrwt>
<pdfrwt beam="2">  1        2 0.98376187E+00 0.14932390E+02</pdfrwt>
<pdfrwt beam="1">  1       -2 0.99901743E+00 0.14932390E+02</pdfrwt>
<totfact>-0.13623070E-13</totfact>
</mgrwt>
</event>
<event>
 4    1 -0.4882314E-019  0.1495464E+02  0.7818608E-02  0.1869456E+00
          2   -1    0    0  501    0  0.00000000000E+00  0.00000000000E+00  0.11933291703E+03  0.11933291705E+03  0.25500000000E-02 0. -1.
         -2   -1    0    0    0  501 -0.00000000000E+00 -0.00000000000E+00 -0.46852037103E+00  0.46852731038E+00  0.25500000000E-02 0.  1.
         31    1    1    2    0    0  0.29012529885E+00 -0.51639596347E-01  0.64269100294E+02  0.64699791483E+02  0.74470750000E+01 0. -1.
        -31    1    1    2    0    0 -0.29012529885E+00  0.51639596347E-01  0.54595296360E+02  0.55101652879E+02  0.74470750000E+01 0.  1.
<mgrwt>
<rscale>  0 0.14954641E+02</rscale>
<asrwt>0</asrwt>
<pdfrwt beam="1">  1        2 0.99060216E+00 0.14954641E+02</pdfrwt>
<pdfrwt beam="2">  1       -2 0.99507790E+00 0.14954641E+02</pdfrwt>
<totfact>-0.16870698E-13</totfact>
</mgrwt>
</event>
<event>
 4    1 -0.4882314E-019  0.1492062E+02  0.7818608E-02  0.1870501E+00
          2   -1    0    0  501    0  0.00000000000E+00  0.00000000000E+00  0.11871691700E+03  0.11871691702E+03  0.25500000000E-02 0. -1.
         -2   -1    0    0    0  501 -0.00000000000E+00 -0.00000000000E+00 -0.46881087782E+00  0.46881781286E+00  0.25500000000E-02 0.  1.
         31    1    1    2    0    0  0.35488689900E+00  0.19608625565E+00  0.57675682766E+02  0.58155891388E+02  0.74470750000E+01 0.  1.
        -31    1    1    2    0    0 -0.35488689900E+00 -0.19608625565E+00  0.60572423353E+02  0.61029843449E+02  0.74470750000E+01 0. -1.
<mgrwt>
<rscale>  0 0.14920616E+02</rscale>
<asrwt>0</asrwt>
<pdfrwt beam="1">  1        2 0.98551105E+00 0.14920616E+02</pdfrwt>
<pdfrwt beam="2">  1       -2 0.99567226E+00 0.14920616E+02</pdfrwt>
<totfact>-0.30939206E-13</totfact>
</mgrwt>
</event>
<event>
 4    1  0.4882314E-019  0.1489991E+02  0.7818608E-02  0.1871138E+00
         -2   -1    0    0    0  501 -0.00000000000E+00  0.00000000000E+00  0.11841951226E+03  0.11841951229E+03  0.25500000000E-02 0.  1.
          2   -1    0    0  501    0  0.00000000000E+00 -0.00000000000E+00 -0.46868468253E+00  0.46869161944E+00  0.25500000000E-02 0. -1.
         31    1    1    2    0    0  0.15705887082E+00 -0.10167637787E+00  0.58266489070E+02  0.58740766765E+02  0.74470750000E+01 0. -1.
        -31    1    1    2    0    0 -0.15705887082E+00  0.10167637787E+00  0.59684338510E+02  0.60147437144E+02  0.74470750000E+01 0. -1.
<mgrwt>
<rscale>  0 0.14899909E+02</rscale>
<asrwt>0</asrwt>
<pdfrwt beam="2">  1        2 0.99539547E+00 0.14899909E+02</pdfrwt>
<pdfrwt beam="1">  1       -2 0.98305085E+00 0.14899909E+02</pdfrwt>
<totfact> 0.75398786E-13</totfact>
</mgrwt>
</event>
<event>
 4    1 -0.4882314E-019  0.1499694E+02  0.7818608E-02  0.1868162E+00
         -2   -1    0    0    0  501 -0.00000000000E+00  0.00000000000E+00  0.11978475841E+03  0.11978475843E+03  0.25500000000E-02 0.  1.
          2   -1    0    0  501    0  0.00000000000E+00 -0.00000000000E+00 -0.46939727186E+00  0.46940419824E+00  0.25500000000E-02 0. -1.
         31    1    1    2    0    0  0.48545879432E+00 -0.49794324948E+00  0.55380588492E+02  0.55883379689E+02  0.74470750000E+01 0. -1.
        -31    1    1    2    0    0 -0.48545879432E+00  0.49794324948E+00  0.63934772642E+02  0.64370782942E+02  0.74470750000E+01 0. -1.
<mgrwt>
<rscale>  0 0.14996941E+02</rscale>
<asrwt>0</asrwt>
<pdfrwt beam="2">  1        2 0.99694773E+00 0.14996941E+02</pdfrwt>
<pdfrwt beam="1">  1       -2 0.99434555E+00 0.14996941E+02</pdfrwt>
<totfact>-0.88690800E-14</totfact>
</mgrwt>
</event>
<event>
 4    1  0.4882314E-019  0.1493778E+02  0.7818608E-02  0.1869973E+00
         -2   -1    0    0    0  501 -0.00000000000E+00  0.00000000000E+00  0.11855990772E+03  0.11855990775E+03  0.25500000000E-02 0. -1.
          2   -1    0    0  501    0  0.00000000000E+00 -0.00000000000E+00 -0.47051228924E+00  0.47051919921E+00  0.25500000000E-02 0.  1.
         31    1    1    2    0    0 -0.29252196649E+00 -0.93851257837E-01  0.62874541252E+02  0.63314779009E+02  0.74470750000E+01 0. -1.
        -31    1    1    2    0    0  0.29252196649E+00  0.93851257837E-01  0.55214854182E+02  0.55715647942E+02  0.74470750000E+01 0.  1.
<mgrwt>
<rscale>  0 0.14937778E+02</rscale>
<asrwt>0</asrwt>
<pdfrwt beam="2">  1        2 0.99926621E+00 0.14937778E+02</pdfrwt>
<pdfrwt beam="1">  1       -2 0.98422685E+00 0.14937778E+02</pdfrwt>
<totfact> 0.13825628E-13</totfact>
</mgrwt>
</event>
<event>
 4    1  0.4882314E-019  0.1489492E+02  0.7818608E-02  0.1871292E+00
         -2   -1    0    0    0  501 -0.00000000000E+00  0.00000000000E+00  0.11850745256E+03  0.11850745259E+03  0.25500000000E-02 0. -1.
          2   -1    0    0  501    0  0.00000000000E+00 -0.00000000000E+00 -0.46802349540E+00  0.46803044211E+00  0.25500000000E-02 0.  1.
         31    1    1    2    0    0  0.53578492256E-01 -0.50078347334E-01  0.59175934804E+02  0.59642732705E+02  0.74470750000E+01 0. -1.
        -31    1    1    2    0    0 -0.53578492256E-01  0.50078347334E-01  0.58863494263E+02  0.59332750328E+02  0.74470750000E+01 0.  1.
<mgrwt>
<rscale>  0 0.14894924E+02</rscale>
<asrwt>0</asrwt>
<pdfrwt beam="2">  1        2 0.99399969E+00 0.14894924E+02</pdfrwt>
<pdfrwt beam="1">  1       -2 0.98377254E+00 0.14894924E+02</pdfrwt>
<totfact> 0.73034044E-13</totfact>
</mgrwt>
</event>
<event>
 4    1 -0.4882314E-019  0.1495239E+02  0.7818608E-02  0.1869525E+00
          2   -1    0    0  501    0  0.00000000000E+00  0.00000000000E+00  0.11957910117E+03  0.11957910119E+03  0.25500000000E-02 0. -1.
         -2   -1    0    0    0  501 -0.00000000000E+00 -0.00000000000E+00 -0.46741511155E+00  0.46742206730E+00  0.25500000000E-02 0.  1.
         31    1    1    2    0    0 -0.25637017205E+00 -0.38007070016E+00  0.63358990828E+02  0.63796793213E+02  0.74470750000E+01 0. -1.
        -31    1    1    2    0    0  0.25637017205E+00  0.38007070016E+00  0.55752695227E+02  0.56249730049E+02  0.74470750000E+01 0.  1.
<mgrwt>
<rscale>  0 0.14952391E+02</rscale>
<asrwt>0</asrwt>
<pdfrwt beam="1">  1        2 0.99262865E+00 0.14952391E+02</pdfrwt>
<pdfrwt beam="2">  1       -2 0.99274763E+00 0.14952391E+02</pdfrwt>
<totfact>-0.11929721E-13</totfact>
</mgrwt>
</event>
<event>
 4    1 -0.4882314E-019  0.1492376E+02  0.7818608E-02  0.1870404E+00
         -2   -1    0    0    0  501 -0.00000000000E+00  0.00000000000E+00  0.11969165963E+03  0.11969165966E+03  0.25500000000E-02 0.  1.
          2   -1    0    0  501    0  0.00000000000E+00 -0.00000000000E+00 -0.46518921138E+00  0.46519620042E+00  0.25500000000E-02 0. -1.
         31    1    1    2    0    0  0.18649027442E+00 -0.39027478282E+00  0.58135830767E+02  0.58612463163E+02  0.74470750000E+01 0.  1.
        -31    1    1    2    0    0 -0.18649027442E+00  0.39027478282E+00  0.61090639656E+02  0.61544392699E+02  0.74470750000E+01 0.  1.
<mgrwt>
<rscale>  0 0.14923765E+02</rscale>
<asrwt>0</asrwt>
<pdfrwt beam="2">  1        2 0.98804201E+00 0.14923765E+02</pdfrwt>
<pdfrwt beam="1">  1       -2 0.99354095E+00 0.14923765E+02</pdfrwt>
<totfact>-0.20855370E-13</totfact>
</mgrwt>
</event>
<event>
 4    1 -0.4882314E-019  0.1501821E+02  0.7818608E-02  0.1867513E+00
          2   -1    0    0  501    0  0.00000000000E+00  0.00000000000E+00  0.12037145403E+03  0.12037145405E+03  0.25500000000E-02 0. -1.
         -2   -1    0    0    0  501 -0.00000000000E+00 -0.00000000000E+00 -0.46843517300E+00  0.46844211361E+00  0.25500000000E-02 0.  1.
         31    1    1    2    0    0 -0.44423848099E+00 -0.33753454253E+00  0.66268900753E+02  0.66688360382E+02  0.74470750000E+01 0. -1.
        -31    1    1    2    0    0  0.44423848099E+00  0.33753454253E+00  0.53634118101E+02  0.54151535785E+02  0.74470750000E+01 0.  1.
<mgrwt>
<rscale>  0 0.15018208E+02</rscale>
<asrwt>0</asrwt>
<pdfrwt beam="1">  1        2 0.99918881E+00 0.15018208E+02</pdfrwt>
<pdfrwt beam="2">  1       -2 0.99493122E+00 0.15018208E+02</pdfrwt>
<totfact>-0.30336702E-14</totfact>
</mgrwt>
</event>
<event>
 4    1 -0.4882314E-019  0.1496334E+02  0.7818608E-02  0.1869189E+00
          2   -1    0    0  501    0  0.00000000000E+00  0.00000000000E+00  0.11951887893E+03  0.11951887896E+03  0.25500000000E-02 0. -1.
         -2   -1    0    0    0  501 -0.00000000000E+00 -0.00000000000E+00 -0.46833573383E+00  0.46834267591E+00  0.25500000000E-02 0.  1.
         31    1    1    2    0    0 -0.48992345965E+00  0.50760030503E+00  0.58426648853E+02  0.58903564453E+02  0.74470750000E+01 0.  1.
        -31    1    1    2    0    0  0.48992345965E+00 -0.50760030503E+00  0.60623894346E+02  0.61083657182E+02  0.74470750000E+01 0.  1.
<mgrwt>
<rscale>  0 0.14963339E+02</rscale>
<asrwt>0</asrwt>
<pdfrwt beam="1">  1        2 0.99213830E+00 0.14963339E+02</pdfrwt>
<pdfrwt beam="2">  1       -2 0.99469334E+00 0.14963339E+02</pdfrwt>
<totfact>-0.15020337E-13</totfact>
</mgrwt>
</event>
<event>
 4    1  0.4882314E-019  0.1492011E+02  0.7818608E-02  0.1870516E+00
          2   -1    0    0  501    0  0.00000000000E+00  0.00000000000E+00  0.12000182145E+03  0.12000182147E+03  0.25500000000E-02 0. -1.
         -2   -1    0    0    0  501 -0.00000000000E+00 -0.00000000000E+00 -0.46375953840E+00  0.46376654898E+00  0.25500000000E-02 0.  1.
         31    1    1    2    0    0 -0.43936573521E+00  0.13519654832E-01  0.59899754115E+02  0.60362510668E+02  0.74470750000E+01 0. -1.
        -31    1    1    2    0    0  0.43936573521E+00 -0.13519654832E-01  0.59638307792E+02  0.60103077354E+02  0.74470750000E+01 0.  1.
<mgrwt>
<rscale>  0 0.14920109E+02</rscale>
<asrwt>0</asrwt>
<pdfrwt beam="1">  1        2 0.99609377E+00 0.14920109E+02</pdfrwt>
<pdfrwt beam="2">  1       -2 0.98502704E+00 0.14920109E+02</pdfrwt>
<totfact> 0.41980091E-13</totfact>
</mgrwt>
</event>
<event>
 4    1 -0.4882314E-019  0.1493727E+02  0.7818608E-02  0.1869989E+00
         -2   -1    0    0    0  501 -0.00000000000E+00  0.00000000000E+00  0.12013664113E+03  0.12013664116E+03  0.25500000000E-02 0. -1.
          2   -1    0    0  501    0  0.00000000000E+00 -0.00000000000E+00 -0.46430553616E+00  0.46431253850E+00  0.25500000000E-02 0.  1.
         31    1    1    2    0    0 -0.16643228719E+00  0.44221723881E+00  0.62368179618E+02  0.62812992372E+02  0.74470750000E+01 0.  1.
        -31    1    1    2    0    0  0.16643228719E+00 -0.44221723881E+00  0.57304155981E+02  0.57787961328E+02  0.74470750000E+01 0. -1.
<mgrwt>
<rscale>  0 0.14937273E+02</rscale>
<asrwt>0</asrwt>
<pdfrwt beam="2">  1        2 0.98618652E+00 0.14937273E+02</pdfrwt>
<pdfrwt beam="1">  1       -2 0.99721307E+00 0.14937273E+02</pdfrwt>
<totfact>-0.21961830E-13</totfact>
</mgrwt>
</event>
<event>
 4    1  0.4882314E-019  0.1491387E+02  0.7818608E-02  0.1870708E+00
          2   -1    0    0  501    0  0.00000000000E+00  0.00000000000E+00  0.12022541222E+03  0.12022541224E+03  0.25500000000E-02 0. -1.
         -2   -1    0    0    0  501 -0.00000000000E+00 -0.00000000000E+00 -0.46250983953E+00  0.46251686906E+00  0.25500000000E-02 0.  1.
         31    1    1    2    0    0  0.93437245668E-01 -0.43235855961E-02  0.56873251789E+02  0.57358821853E+02  0.74470750000E+01 0.  1.
        -31    1    1    2    0    0 -0.93437245668E-01  0.43235855961E-02  0.62889650588E+02  0.63329107260E+02  0.74470750000E+01 0. -1.
<mgrwt>
<rscale>  0 0.14913868E+02</rscale>
<asrwt>0</asrwt>
<pdfrwt beam="1">  1        2 0.99793224E+00 0.14913868E+02</pdfrwt>
<pdfrwt beam="2">  1       -2 0.98238992E+00 0.14913868E+02</pdfrwt>
<totfact> 0.51111349E-13</totfact>
</mgrwt>
</event>
<event>
 4    1  0.4882314E-019  0.1492922E+02  0.7818608E-02  0.1870236E+00
         -2   -1    0    0    0  501 -0.00000000000E+00  0.00000000000E+00  0.11869516999E+03  0.11869517001E+03  0.25500000000E-02 0. -1.
          2   -1    0    0  501    0  0.00000000000E+00 -0.00000000000E+00 -0.46943788054E+00  0.46944480632E+00  0.25500000000E-02 0.  1.
         31    1    1    2    0    0 -0.10716935747E-01 -0.45539134686E+00  0.60967727733E+02  0.61422554873E+02  0.74470750000E+01 0. -1.
        -31    1    1    2    0    0  0.10716935747E-01  0.45539134686E+00  0.57258004373E+02  0.57742059948E+02  0.74470750000E+01 0.  1.
<mgrwt>
<rscale>  0 0.14929223E+02</rscale>
<asrwt>0</asrwt>
<pdfrwt beam="2">  1        2 0.99699792E+00 0.14929223E+02</pdfrwt>
<pdfrwt beam="1">  1       -2 0.98533641E+00 0.14929223E+02</pdfrwt>
<totfact> 0.32477104E-13</totfact>
</mgrwt>
</event>
<event>
 4    1 -0.4882314E-019  0.1497795E+02  0.7818608E-02  0.1868742E+00
          2   -1    0    0  501    0  0.00000000000E+00  0.00000000000E+00  0.11939358730E+03  0.11939358733E+03  0.25500000000E-02 0. -1.
         -2   -1    0    0    0  501 -0.00000000000E+00 -0.00000000000E+00 -0.46974330951E+00  0.46975023079E+00  0.25500000000E-02 0.  1.
         31    1    1    2    0    0  0.58210466735E+00 -0.38205049014E+00  0.56456707118E+02  0.56950008894E+02  0.74470750000E+01 0.  1.
        -31    1    1    2    0    0 -0.58210466735E+00  0.38205049014E+00  0.62467136871E+02  0.62913328662E+02  0.74470750000E+01 0. -1.
<mgrwt>
<rscale>  0 0.14977951E+02</rscale>
<asrwt>0</asrwt>
<pdfrwt beam="1">  1        2 0.99111394E+00 0.14977951E+02</pdfrwt>
<pdfrwt beam="2">  1       -2 0.99766703E+00 0.14977951E+02</pdfrwt>
<totfact>-0.10861149E-13</totfact>
</mgrwt>
</event>
<event>
 4    1 -0.4882314E-019  0.1497061E+02  0.7818608E-02  0.1868967E+00
          2   -1    0    0  501    0  0.00000000000E+00  0.00000000000E+00  0.11964287896E+03  0.11964287899E+03  0.25500000000E-02 0.  1.
         -2   -1    0    0    0  501 -0.00000000000E+00 -0.00000000000E+00 -0.46830483933E+00  0.46831178187E+00  0.25500000000E-02 0. -1.
         31    1    1    2    0    0  0.67861977096E-01  0.25358457265E+00  0.53903184120E+02  0.54415816586E+02  0.74470750000E+01 0. -1.
        -31    1    1    2    0    0 -0.67861977096E-01 -0.25358457265E+00  0.65271390000E+02  0.65695374183E+02  0.74470750000E+01 0.  1.
<mgrwt>
<rscale>  0 0.14970606E+02</rscale>
<asrwt>0</asrwt>
<pdfrwt beam="1">  1        2 0.99316336E+00 0.14970606E+02</pdfrwt>
<pdfrwt beam="2">  1       -2 0.99463200E+00 0.14970606E+02</pdfrwt>
<totfact>-0.13947458E-13</totfact>
</mgrwt>
</event>
<event>
 4    1 -0.4882314E-019  0.1491351E+02  0.7818608E-02  0.1870719E+00
          2   -1    0    0  501    0  0.00000000000E+00  0.00000000000E+00  0.11842934210E+03  0.11842934213E+03  0.25500000000E-02 0.  1.
         -2   -1    0    0    0  501 -0.00000000000E+00 -0.00000000000E+00 -0.46950193937E+00  0.46950886421E+00  0.25500000000E-02 0. -1.
         31    1    1    2    0    0 -0.28186923872E+00  0.23782830948E+00  0.58254440231E+02  0.58729675167E+02  0.74470750000E+01 0. -1.
        -31    1    1    2    0    0  0.28186923872E+00 -0.23782830948E+00  0.59705399929E+02  0.60169175824E+02  0.74470750000E+01 0. -1.
<mgrwt>
<rscale>  0 0.14913513E+02</rscale>
<asrwt>0</asrwt>
<pdfrwt beam="1">  1        2 0.98313889E+00 0.14913513E+02</pdfrwt>
<pdfrwt beam="2">  1       -2 0.99712461E+00 0.14913513E+02</pdfrwt>
<totfact>-0.36838949E-13</totfact>
</mgrwt>
</event>
<event>
 4    1 -0.4882314E-019  0.1492532E+02  0.7818608E-02  0.1870356E+00
         -2   -1    0    0    0  501 -0.00000000000E+00  0.00000000000E+00  0.12021200911E+03  0.12021200914E+03  0.25500000000E-02 0. -1.
          2   -1    0    0  501    0  0.00000000000E+00 -0.00000000000E+00 -0.46327226738E+00  0.46327928534E+00  0.25500000000E-02 0.  1.
         31    1    1    2    0    0  0.10805451728E-01 -0.48131332023E+00  0.59674713041E+02  0.60139521796E+02  0.74470750000E+01 0.  1.
        -31    1    1    2    0    0 -0.10805451728E-01  0.48131332023E+00  0.60074023800E+02  0.60535766625E+02  0.74470750000E+01 0. -1.
<mgrwt>
<rscale>  0 0.14925323E+02</rscale>
<asrwt>0</asrwt>
<pdfrwt beam="2">  1        2 0.98400269E+00 0.14925323E+02</pdfrwt>
<pdfrwt beam="1">  1       -2 0.99782772E+00 0.14925323E+02</pdfrwt>
<totfact>-0.25957829E-13</totfact>
</mgrwt>
</event>
<event>
 4    1  0.4882314E-019  0.1492481E+02  0.7818608E-02  0.1870372E+00
          2   -1    0    0  501    0  0.00000000000E+00  0.00000000000E+00  0.11999319221E+03  0.11999319224E+03  0.25500000000E-02 0. -1.
         -2   -1    0    0    0  501 -0.00000000000E+00 -0.00000000000E+00 -0.46408541229E+00  0.46409241795E+00  0.25500000000E-02 0.  1.
         31    1    1    2    0    0 -0.23263758814E+00 -0.34188612226E+00  0.61701263545E+02  0.62150429246E+02  0.74470750000E+01 0. -1.
        -31    1    1    2    0    0  0.23263758814E+00  0.34188612226E+00  0.57827843256E+02  0.58306855412E+02  0.74470750000E+01 0.  1.
<mgrwt>
<rscale>  0 0.14924813E+02</rscale>
<asrwt>0</asrwt>
<pdfrwt beam="1">  1        2 0.99602511E+00 0.14924813E+02</pdfrwt>
<pdfrwt beam="2">  1       -2 0.98571625E+00 0.14924813E+02</pdfrwt>
<totfact> 0.34488347E-13</totfact>
</mgrwt>
</event>
<event>
 4    1 -0.4882314E-019  0.1490351E+02  0.7818608E-02  0.1871027E+00
         -2   -1    0    0    0  501 -0.00000000000E+00  0.00000000000E+00  0.12022546159E+03  0.12022546162E+03  0.25500000000E-02 0. -1.
          2   -1    0    0  501    0  0.00000000000E+00 -0.00000000000E+00 -0.46186742406E+00  0.46187446336E+00  0.25500000000E-02 0.  1.
         31    1    1    2    0    0  0.11648383407E+00 -0.52383324159E-01  0.58010283375E+02  0.58486478915E+02  0.74470750000E+01 0. -1.
        -31    1    1    2    0    0 -0.11648383407E+00  0.52383324159E-01  0.61753310795E+02  0.62200857171E+02  0.74470750000E+01 0. -1.
<mgrwt>
<rscale>  0 0.14903510E+02</rscale>
<asrwt>0</asrwt>
<pdfrwt beam="2">  1        2 0.98103065E+00 0.14903510E+02</pdfrwt>
<pdfrwt beam="1">  1       -2 0.99792734E+00 0.14903510E+02</pdfrwt>
<totfact>-0.41265042E-13</totfact>
</mgrwt>
</event>
<event>
 4    1 -0.4882314E-019  0.1494083E+02  0.7818608E-02  0.1869880E+00
         -2   -1    0    0    0  501 -0.00000000000E+00  0.00000000000E+00  0.11958475446E+03  0.11958475449E+03  0.25500000000E-02 0. -1.
          2   -1    0    0  501    0  0.00000000000E+00 -0.00000000000E+00 -0.46667026070E+00  0.46667722756E+00  0.25500000000E-02 0.  1.
         31    1    1    2    0    0 -0.34026698756E+00 -0.79905798785E-02  0.55686337331E+02  0.56183119679E+02  0.74470750000E+01 0.  1.
        -31    1    1    2    0    0  0.34026698756E+00  0.79905798785E-02  0.63431746871E+02  0.63868312038E+02  0.74470750000E+01 0.  1.
<mgrwt>
<rscale>  0 0.14940826E+02</rscale>
<asrwt>0</asrwt>
<pdfrwt beam="2">  1        2 0.99117199E+00 0.14940826E+02</pdfrwt>
<pdfrwt beam="1">  1       -2 0.99266923E+00 0.14940826E+02</pdfrwt>
<totfact>-0.13061936E-13</totfact>
</mgrwt>
</event>
<event>
 4    1  0.4882314E-019  0.1491621E+02  0.7818608E-02  0.1870636E+00
         -2   -1    0    0    0  501 -0.00000000000E+00  0.00000000000E+00  0.11846433511E+03  0.11846433514E+03  0.25500000000E-02 0. -1.
          2   -1    0    0  501    0  0.00000000000E+00 -0.00000000000E+00 -0.46953328331E+00  0.46954020769E+00  0.25500000000E-02 0.  1.
         31    1    1    2    0    0  0.31427000794E+00  0.66452053101E-01  0.60970797565E+02  0.61424752855E+02  0.74470750000E+01 0. -1.
        -31    1    1    2    0    0 -0.31427000794E+00 -0.66452053101E-01  0.57024004267E+02  0.57509122495E+02  0.74470750000E+01 0.  1.
<mgrwt>
<rscale>  0 0.14916214E+02</rscale>
<asrwt>0</asrwt>
<pdfrwt beam="2">  1        2 0.99719208E+00 0.14916214E+02</pdfrwt>
<pdfrwt beam="1">  1       -2 0.98342850E+00 0.14916214E+02</pdfrwt>
<totfact> 0.51024404E-13</totfact>
</mgrwt>
</event>
<event>
 4    1 -0.4882314E-019  0.1500583E+02  0.7818608E-02  0.1867891E+00
         -2   -1    0    0    0  501 -0.00000000000E+00  0.00000000000E+00  0.12033706266E+03  0.12033706269E+03  0.25500000000E-02 0. -1.
          2   -1    0    0  501    0  0.00000000000E+00 -0.00000000000E+00 -0.46779683080E+00  0.46780378088E+00  0.25500000000E-02 0.  1.
         31    1    1    2    0    0 -0.21530860018E+00 -0.35862294956E+00  0.66474040777E+02  0.66891195171E+02  0.74470750000E+01 0. -1.
        -31    1    1    2    0    0  0.21530860018E+00  0.35862294956E+00  0.53395225056E+02  0.53913671300E+02  0.74470750000E+01 0.  1.
<mgrwt>
<rscale>  0 0.15005828E+02</rscale>
<asrwt>0</asrwt>
<pdfrwt beam="2">  1        2 0.99357959E+00 0.15005828E+02</pdfrwt>
<pdfrwt beam="1">  1       -2 0.99889916E+00 0.15005828E+02</pdfrwt>
<totfact>-0.47927342E-14</totfact>
</mgrwt>
</event>
<event>
 4    1  0.4882314E-019  0.1493062E+02  0.7818608E-02  0.1870193E+00
         -2   -1    0    0    0  501 -0.00000000000E+00  0.00000000000E+00  0.11886766892E+03  0.11886766894E+03  0.25500000000E-02 0.  1.
          2   -1    0    0  501    0  0.00000000000E+00 -0.00000000000E+00 -0.46884420594E+00  0.46885114049E+00  0.25500000000E-02 0. -1.
         31    1    1    2    0    0 -0.29794361159E+00 -0.27445694381E+00  0.56575039726E+02  0.57064508611E+02  0.74470750000E+01 0. -1.
        -31    1    1    2    0    0  0.29794361159E+00  0.27445694381E+00  0.61823784984E+02  0.62272011473E+02  0.74470750000E+01 0.  1.
<mgrwt>
<rscale>  0 0.14930617E+02</rscale>
<asrwt>0</asrwt>
<pdfrwt beam="2">  1        2 0.99574773E+00 0.14930617E+02</pdfrwt>
<pdfrwt beam="1">  1       -2 0.98675784E+00 0.14930617E+02</pdfrwt>
<totfact> 0.24840596E-13</totfact>
</mgrwt>
</event>
<event>
 4    1 -0.4882314E-019  0.1499556E+02  0.7818608E-02  0.1868204E+00
          2   -1    0    0  501    0  0.00000000000E+00  0.00000000000E+00  0.11994465754E+03  0.11994465757E+03  0.25500000000E-02 0.  1.
         -2   -1    0    0    0  501 -0.00000000000E+00 -0.00000000000E+00 -0.46868515145E+00  0.46869208836E+00  0.25500000000E-02 0. -1.
         31    1    1    2    0    0  0.79254721479E+00  0.21240753570E+00  0.57403426564E+02  0.57890288956E+02  0.74470750000E+01 0. -1.
        -31    1    1    2    0    0 -0.79254721479E+00 -0.21240753570E+00  0.62072545824E+02  0.62523060699E+02  0.74470750000E+01 0.  1.
<mgrwt>
<rscale>  0 0.14995559E+02</rscale>
<asrwt>0</asrwt>
<pdfrwt beam="1">  1        2 0.99566182E+00 0.14995559E+02</pdfrwt>
<pdfrwt beam="2">  1       -2 0.99544636E+00 0.14995559E+02</pdfrwt>
<totfact>-0.10858782E-13</totfact>
</mgrwt>
</event>
<event>
 4    1 -0.4882314E-019  0.1490046E+02  0.7818608E-02  0.1871121E+00
          2   -1    0    0  501    0  0.00000000000E+00  0.00000000000E+00  0.11867698918E+03  0.11867698921E+03  0.25500000000E-02 0.  1.
         -2   -1    0    0    0  501 -0.00000000000E+00 -0.00000000000E+00 -0.46770224900E+00  0.46770920049E+00  0.25500000000E-02 0. -1.
         31    1    1    2    0    0  0.11548632687E+00 -0.16887113497E+00  0.59677345874E+02  0.60140555294E+02  0.74470750000E+01 0. -1.
        -31    1    1    2    0    0 -0.11548632687E+00  0.16887113497E+00  0.58531941062E+02  0.59004143118E+02  0.74470750000E+01 0. -1.
<mgrwt>
<rscale>  0 0.14900458E+02</rscale>
<asrwt>0</asrwt>
<pdfrwt beam="1">  1        2 0.98517173E+00 0.14900458E+02</pdfrwt>
<pdfrwt beam="2">  1       -2 0.99332569E+00 0.14900458E+02</pdfrwt>
<totfact>-0.30876002E-13</totfact>
</mgrwt>
</event>
<event>
 4    1  0.4882314E-019  0.1490474E+02  0.7818608E-02  0.1870989E+00
          2   -1    0    0  501    0  0.00000000000E+00  0.00000000000E+00  0.11982601597E+03  0.11982601600E+03  0.25500000000E-02 0.  1.
         -2   -1    0    0    0  501 -0.00000000000E+00 -0.00000000000E+00 -0.46348352313E+00  0.46349053789E+00  0.25500000000E-02 0. -1.
         31    1    1    2    0    0 -0.76850969227E-01 -0.88180043589E-01  0.57620511610E+02  0.58099879226E+02  0.74470750000E+01 0. -1.
        -31    1    1    2    0    0  0.76850969227E-01  0.88180043589E-01  0.61742020837E+02  0.62189627309E+02  0.74470750000E+01 0.  1.
<mgrwt>
<rscale>  0 0.14904739E+02</rscale>
<asrwt>0</asrwt>
<pdfrwt beam="1">  1        2 0.99463780E+00 0.14904739E+02</pdfrwt>
<pdfrwt beam="2">  1       -2 0.98443749E+00 0.14904739E+02</pdfrwt>
<totfact> 0.58522006E-13</totfact>
</mgrwt>
</event>
<event>
 4    1  0.4882314E-019  0.1493846E+02  0.7818608E-02  0.1869952E+00
          2   -1    0    0  501    0  0.00000000000E+00  0.00000000000E+00  0.11987781006E+03  0.11987781008E+03  0.25500000000E-02 0. -1.
         -2   -1    0    0    0  501 -0.00000000000E+00 -0.00000000000E+00 -0.46538199847E+00  0.46538898461E+00  0.25500000000E-02 0.  1.
         31    1    1    2    0    0 -0.10176639157E-01  0.44068958570E+00  0.56733587764E+02  0.57221964468E+02  0.74470750000E+01 0.  1.
        -31    1    1    2    0    0  0.10176639157E-01 -0.44068958570E+00  0.62678840292E+02  0.63121234599E+02  0.74470750000E+01 0. -1.
<mgrwt>
<rscale>  0 0.14938460E+02</rscale>
<asrwt>0</asrwt>
<pdfrwt beam="1">  1        2 0.99508177E+00 0.14938460E+02</pdfrwt>
<pdfrwt beam="2">  1       -2 0.98845584E+00 0.14938460E+02</pdfrwt>
<totfact> 0.11251142E-13</totfact>
</mgrwt>
</event>
<event>
 4    1 -0.4882314E-019  0.1496436E+02  0.7818608E-02  0.1869158E+00
          2   -1    0    0  501    0  0.00000000000E+00  0.00000000000E+00  0.11987736818E+03  0.11987736821E+03  0.25500000000E-02 0. -1.
         -2   -1    0    0    0  501 -0.00000000000E+00 -0.00000000000E+00 -0.46699912867E+00  0.46700609063E+00  0.25500000000E-02 0.  1.
         31    1    1    2    0    0 -0.60770707554E+00  0.21373135502E+00  0.57048477984E+02  0.57536099584E+02  0.74470750000E+01 0. -1.
        -31    1    1    2    0    0  0.60770707554E+00 -0.21373135502E+00  0.62361891067E+02  0.62808274714E+02  0.74470750000E+01 0. -1.
<mgrwt>
<rscale>  0 0.14964364E+02</rscale>
<asrwt>0</asrwt>
<pdfrwt beam="1">  1        2 0.99509149E+00 0.14964364E+02</pdfrwt>
<pdfrwt beam="2">  1       -2 0.99187718E+00 0.14964364E+02</pdfrwt>
<totfact>-0.74192207E-14</totfact>
</mgrwt>
</event>
<event>
 4    1 -0.4882314E-019  0.1493455E+02  0.7818608E-02  0.1870072E+00
          2   -1    0    0  501    0  0.00000000000E+00  0.00000000000E+00  0.11922101950E+03  0.11922101952E+03  0.25500000000E-02 0.  1.
         -2   -1    0    0    0  501 -0.00000000000E+00 -0.00000000000E+00 -0.46770079126E+00  0.46770774277E+00  0.25500000000E-02 0. -1.
         31    1    1    2    0    0 -0.45778907154E+00 -0.85295779992E-01  0.61705069499E+02  0.62154576454E+02  0.74470750000E+01 0.  1.
        -31    1    1    2    0    0  0.45778907154E+00  0.85295779992E-01  0.57048249205E+02  0.57534150812E+02  0.74470750000E+01 0. -1.
<mgrwt>
<rscale>  0 0.14934548E+02</rscale>
<asrwt>0</asrwt>
<pdfrwt beam="1">  1        2 0.98967014E+00 0.14934548E+02</pdfrwt>
<pdfrwt beam="2">  1       -2 0.99334040E+00 0.14934548E+02</pdfrwt>
<totfact>-0.16894745E-13</totfact>
</mgrwt>
</event>
<event>
 4    1  0.4882314E-019  0.1491310E+02  0.7818608E-02  0.1870732E+00
         -2   -1    0    0    0  501 -0.00000000000E+00  0.00000000000E+00  0.11826559060E+03  0.11826559062E+03  0.25500000000E-02 0.  1.
          2   -1    0    0  501    0  0.00000000000E+00 -0.00000000000E+00 -0.47012617825E+00  0.47013309389E+00  0.25500000000E-02 0. -1.
         31    1    1    2    0    0  0.36842322485E+00  0.51689208630E-01  0.59321195899E+02  0.59787972171E+02  0.74470750000E+01 0. -1.
        -31    1    1    2    0    0 -0.36842322485E+00 -0.51689208630E-01  0.58474268519E+02  0.58947751546E+02  0.74470750000E+01 0. -1.
<mgrwt>
<rscale>  0 0.14913103E+02</rscale>
<asrwt>0</asrwt>
<pdfrwt beam="2">  1        2 0.99843964E+00 0.14913103E+02</pdfrwt>
<pdfrwt beam="1">  1       -2 0.98179004E+00 0.14913103E+02</pdfrwt>
<totfact> 0.46018587E-13</totfact>
</mgrwt>
</event>
<event>
 4    1 -0.4882314E-019  0.1499780E+02  0.7818608E-02  0.1868136E+00
          2   -1    0    0  501    0  0.00000000000E+00  0.00000000000E+00  0.12006702366E+03  0.12006702369E+03  0.25500000000E-02 0. -1.
         -2   -1    0    0    0  501 -0.00000000000E+00 -0.00000000000E+00 -0.46834730320E+00  0.46835424511E+00  0.25500000000E-02 0.  1.
         31    1    1    2    0    0  0.42214561567E+00  0.39234335810E+00  0.65145038767E+02  0.65571847177E+02  0.74470750000E+01 0.  1.
        -31    1    1    2    0    0 -0.42214561567E+00 -0.39234335810E+00  0.54453637593E+02  0.54963530758E+02  0.74470750000E+01 0.  1.
<mgrwt>
<rscale>  0 0.14997798E+02</rscale>
<asrwt>0</asrwt>
<pdfrwt beam="1">  1        2 0.99667084E+00 0.14997798E+02</pdfrwt>
<pdfrwt beam="2">  1       -2 0.99473554E+00 0.14997798E+02</pdfrwt>
<totfact>-0.94541828E-14</totfact>
</mgrwt>
</event>
<event>
 4    1  0.4882314E-019  0.1490119E+02  0.7818608E-02  0.1871099E+00
          2   -1    0    0  501    0  0.00000000000E+00  0.00000000000E+00  0.11999219534E+03  0.11999219537E+03  0.25500000000E-02 0.  1.
         -2   -1    0    0    0  501 -0.00000000000E+00 -0.00000000000E+00 -0.46262118781E+00  0.46262821565E+00  0.25500000000E-02 0. -1.
         31    1    1    2    0    0 -0.17564536388E+00  0.14618166103E+00  0.59882043518E+02  0.60343767551E+02  0.74470750000E+01 0.  1.
        -31    1    1    2    0    0  0.17564536388E+00 -0.14618166103E+00  0.59647530637E+02  0.60111056034E+02  0.74470750000E+01 0.  1.
<mgrwt>
<rscale>  0 0.14901189E+02</rscale>
<asrwt>0</asrwt>
<pdfrwt beam="1">  1        2 0.99600476E+00 0.14901189E+02</pdfrwt>
<pdfrwt beam="2">  1       -2 0.98261820E+00 0.14901189E+02</pdfrwt>
<totfact> 0.76448837E-13</totfact>
</mgrwt>
</event>
<event>
 4    1 -0.4882314E-019  0.1502896E+02  0.7818608E-02  0.1867186E+00
         -2   -1    0    0    0  501 -0.00000000000E+00  0.00000000000E+00  0.12015321768E+03  0.12015321771E+03  0.25500000000E-02 0. -1.
          2   -1    0    0  501    0  0.00000000000E+00 -0.00000000000E+00 -0.46995813080E+00  0.46996504892E+00  0.25500000000E-02 0.  1.
         31    1    1    2    0    0 -0.51779809995E+00 -0.96861755840E-02  0.52936120566E+02  0.53459891464E+02  0.74470750000E+01 0.  1.
        -31    1    1    2    0    0  0.51779809995E+00  0.96861755840E-02  0.66747138987E+02  0.67163291296E+02  0.74470750000E+01 0. -1.
<mgrwt>
<rscale>  0 0.15028959E+02</rscale>
<asrwt>0</asrwt>
<pdfrwt beam="2">  1        2 0.99814623E+00 0.15028959E+02</pdfrwt>
<pdfrwt beam="1">  1       -2 0.99739687E+00 0.15028959E+02</pdfrwt>
<totfact>-0.44864769E-14</totfact>
</mgrwt>
</event>
<event>
 4    1 -0.4882314E-019  0.1496370E+02  0.7818608E-02  0.1869178E+00
         -2   -1    0    0    0  501 -0.00000000000E+00  0.00000000000E+00  0.12046160888E+03  0.12046160890E+03  0.25500000000E-02 0. -1.
          2   -1    0    0  501    0  0.00000000000E+00 -0.00000000000E+00 -0.46469298784E+00  0.46469998435E+00  0.25500000000E-02 0.  1.
         31    1    1    2    0    0  0.22746187818E+00 -0.18454535143E+00  0.65318438146E+02  0.65742247329E+02  0.74470750000E+01 0. -1.
        -31    1    1    2    0    0 -0.22746187818E+00  0.18454535143E+00  0.54678477743E+02  0.55184061560E+02  0.74470750000E+01 0.  1.
<mgrwt>
<rscale>  0 0.14963701E+02</rscale>
<asrwt>0</asrwt>
<pdfrwt beam="2">  1        2 0.98701655E+00 0.14963701E+02</pdfrwt>
<pdfrwt beam="1">  1       -2 0.99990333E+00 0.14963701E+02</pdfrwt>
<totfact>-0.85865900E-15</totfact>
</mgrwt>
</event>
<event>
 4    1  0.4882314E-019  0.1491682E+02  0.7818608E-02  0.1870617E+00
         -2   -1    0    0    0  501 -0.00000000000E+00  0.00000000000E+00  0.11880943452E+03  0.11880943454E+03  0.25500000000E-02 0. -1.
          2   -1    0    0  501    0  0.00000000000E+00 -0.00000000000E+00 -0.46820763290E+00  0.46821457689E+00  0.25500000000E-02 0.  1.
         31    1    1    2    0    0 -0.37405512081E+00 -0.97249028373E-01  0.60290056304E+02  0.60749478926E+02  0.74470750000E+01 0.  1.
        -31    1    1    2    0    0  0.37405512081E+00  0.97249028373E-01  0.58051170579E+02  0.58528170194E+02  0.74470750000E+01 0. -1.
<mgrwt>
<rscale>  0 0.14916823E+02</rscale>
<asrwt>0</asrwt>
<pdfrwt beam="2">  1        2 0.99439916E+00 0.14916823E+02</pdfrwt>
<pdfrwt beam="1">  1       -2 0.98627106E+00 0.14916823E+02</pdfrwt>
<totfact> 0.34399986E-13</totfact>
</mgrwt>
</event>
<event>
 4    1 -0.4882314E-019  0.1494033E+02  0.7818608E-02  0.1869895E+00
         -2   -1    0    0    0  501 -0.00000000000E+00  0.00000000000E+00  0.11946500195E+03  0.11946500198E+03  0.25500000000E-02 0.  1.
          2   -1    0    0  501    0  0.00000000000E+00 -0.00000000000E+00 -0.46710713406E+00  0.46711409440E+00  0.25500000000E-02 0. -1.
         31    1    1    2    0    0  0.16456575389E+00 -0.42238470702E+00  0.62491317818E+02  0.62935119126E+02  0.74470750000E+01 0.  1.
        -31    1    1    2    0    0 -0.16456575389E+00  0.42238470702E+00  0.56506576996E+02  0.56996996944E+02  0.74470750000E+01 0. -1.
<mgrwt>
<rscale>  0 0.14940331E+02</rscale>
<asrwt>0</asrwt>
<pdfrwt beam="2">  1        2 0.99209239E+00 0.14940331E+02</pdfrwt>
<pdfrwt beam="1">  1       -2 0.99168265E+00 0.14940331E+02</pdfrwt>
<totfact>-0.86228738E-14</totfact>
</mgrwt>
</event>
<event>
 4    1 -0.4882314E-019  0.1500899E+02  0.7818608E-02  0.1867794E+00
          2   -1    0    0  501    0  0.00000000000E+00  0.00000000000E+00  0.12007781092E+03  0.12007781095E+03  0.25500000000E-02 0.  1.
         -2   -1    0    0    0  501 -0.00000000000E+00 -0.00000000000E+00 -0.46900448093E+00  0.46901141312E+00  0.25500000000E-02 0. -1.
         31    1    1    2    0    0  0.37819096142E+00 -0.62147199805E+00  0.64413116172E+02  0.64846262166E+02  0.74470750000E+01 0. -1.
        -31    1    1    2    0    0 -0.37819096142E+00  0.62147199805E+00  0.55195690272E+02  0.55700560199E+02  0.74470750000E+01 0.  1.
<mgrwt>
<rscale>  0 0.15008991E+02</rscale>
<asrwt>0</asrwt>
<pdfrwt beam="1">  1        2 0.99676547E+00 0.15008991E+02</pdfrwt>
<pdfrwt beam="2">  1       -2 0.99612624E+00 0.15008991E+02</pdfrwt>
<totfact>-0.85641979E-14</totfact>
</mgrwt>
</event>
<event>
 4    1 -0.4882314E-019  0.1500171E+02  0.7818608E-02  0.1868016E+00
         -2   -1    0    0    0  501 -0.00000000000E+00  0.00000000000E+00  0.12010840442E+03  0.12010840444E+03  0.25500000000E-02 0. -1.
          2   -1    0    0  501    0  0.00000000000E+00 -0.00000000000E+00 -0.46843008947E+00  0.46843703016E+00  0.25500000000E-02 0.  1.
         31    1    1    2    0    0  0.33169979847E+00 -0.55066036366E+00  0.64843502007E+02  0.65272903491E+02  0.74470750000E+01 0. -1.
        -31    1    1    2    0    0 -0.33169979847E+00  0.55066036366E+00  0.54796472319E+02  0.55303937982E+02  0.74470750000E+01 0.  1.
<mgrwt>
<rscale>  0 0.15001708E+02</rscale>
<asrwt>0</asrwt>
<pdfrwt beam="2">  1        2 0.99491202E+00 0.15001708E+02</pdfrwt>
<pdfrwt beam="1">  1       -2 0.99701369E+00 0.15001708E+02</pdfrwt>
<totfact>-0.96148405E-14</totfact>
</mgrwt>
</event>
<event>
 4    1 -0.4882314E-019  0.1491279E+02  0.7818608E-02  0.1870742E+00
          2   -1    0    0  501    0  0.00000000000E+00  0.00000000000E+00  0.11908840702E+03  0.11908840705E+03  0.25500000000E-02 0. -1.
         -2   -1    0    0    0  501 -0.00000000000E+00 -0.00000000000E+00 -0.46685819028E+00  0.46686515433E+00  0.25500000000E-02 0.  1.
         31    1    1    2    0    0 -0.23614912321E+00 -0.14290915790E+00  0.57303319564E+02  0.57785859416E+02  0.74470750000E+01 0.  1.
        -31    1    1    2    0    0  0.23614912321E+00  0.14290915790E+00  0.61318229266E+02  0.61769412786E+02  0.74470750000E+01 0. -1.
<mgrwt>
<rscale>  0 0.14912789E+02</rscale>
<asrwt>0</asrwt>
<pdfrwt beam="1">  1        2 0.98856664E+00 0.14912789E+02</pdfrwt>
<pdfrwt beam="2">  1       -2 0.99155351E+00 0.14912789E+02</pdfrwt>
<totfact>-0.11145532E-13</totfact>
</mgrwt>
</event>
<event>
 4    1 -0.4882314E-019  0.1492066E+02  0.7818608E-02  0.1870499E+00
         -2   -1    0    0    0  501 -0.00000000000E+00  0.00000000000E+00  0.12015855342E+03  0.12015855345E+03  0.25500000000E-02 0.  1.
          2   -1    0    0  501    0  0.00000000000E+00 -0.00000000000E+00 -0.46318902637E+00  0.46319604559E+00  0.25500000000E-02 0. -1.
         31    1    1    2    0    0 -0.32726106838E-01  0.43627138757E+00  0.59210179011E+02  0.59678267638E+02  0.74470750000E+01 0. -1.
        -31    1    1    2    0    0  0.32726106838E-01 -0.43627138757E+00  0.60485185382E+02  0.60943481854E+02  0.74470750000E+01 0. -1.
<mgrwt>
<rscale>  0 0.14920663E+02</rscale>
<asrwt>0</asrwt>
<pdfrwt beam="2">  1        2 0.98382488E+00 0.14920663E+02</pdfrwt>
<pdfrwt beam="1">  1       -2 0.99738502E+00 0.14920663E+02</pdfrwt>
<totfact>-0.30731394E-13</totfact>
</mgrwt>
</event>
<event>
 4    1 -0.4882314E-019  0.1496935E+02  0.7818608E-02  0.1869005E+00
         -2   -1    0    0    0  501 -0.00000000000E+00  0.00000000000E+00  0.12005091656E+03  0.12005091659E+03  0.25500000000E-02 0. -1.
          2   -1    0    0  501    0  0.00000000000E+00 -0.00000000000E+00 -0.46663453044E+00  0.46664149783E+00  0.25500000000E-02 0.  1.
         31    1    1    2    0    0 -0.36430222599E+00  0.46453010905E+00  0.56077392653E+02  0.56572797324E+02  0.74470750000E+01 0.  1.
        -31    1    1    2    0    0  0.36430222599E+00 -0.46453010905E+00  0.63506889381E+02  0.63944760765E+02  0.74470750000E+01 0.  1.
<mgrwt>
<rscale>  0 0.14969345E+02</rscale>
<asrwt>0</asrwt>
<pdfrwt beam="2">  1        2 0.99111136E+00 0.14969345E+02</pdfrwt>
<pdfrwt beam="1">  1       -2 0.99652349E+00 0.14969345E+02</pdfrwt>
<totfact>-0.14185507E-13</totfact>
</mgrwt>
</event>
<event>
 4    1 -0.4882314E-019  0.1497492E+02  0.7818608E-02  0.1868835E+00
         -2   -1    0    0    0  501 -0.00000000000E+00  0.00000000000E+00  0.12002828779E+03  0.12002828782E+03  0.25500000000E-02 0. -1.
          2   -1    0    0  501    0  0.00000000000E+00 -0.00000000000E+00 -0.46706999720E+00  0.46707695810E+00  0.25500000000E-02 0.  1.
         31    1    1    2    0    0 -0.66255833820E+00  0.27277260045E+00  0.62190775443E+02  0.62639163985E+02  0.74470750000E+01 0. -1.
        -31    1    1    2    0    0  0.66255833820E+00 -0.27277260045E+00  0.57370442350E+02  0.57856200790E+02  0.74470750000E+01 0.  1.
<mgrwt>
<rscale>  0 0.14974917E+02</rscale>
<asrwt>0</asrwt>
<pdfrwt beam="2">  1        2 0.99203195E+00 0.14974917E+02</pdfrwt>
<pdfrwt beam="1">  1       -2 0.99633998E+00 0.14974917E+02</pdfrwt>
<totfact>-0.13590339E-13</totfact>
</mgrwt>
</event>
<event>
 4    1  0.4882314E-019  0.1493565E+02  0.7818608E-02  0.1870038E+00
         -2   -1    0    0    0  501 -0.00000000000E+00  0.00000000000E+00  0.11901618103E+03  0.11901618106E+03  0.25500000000E-02 0.  1.
          2   -1    0    0  501    0  0.00000000000E+00 -0.00000000000E+00 -0.46857496424E+00  0.46858190278E+00  0.25500000000E-02 0. -1.
         31    1    1    2    0    0 -0.47021827261E+00  0.19654434732E+00  0.61058315898E+02  0.61512897845E+02  0.74470750000E+01 0. -1.
        -31    1    1    2    0    0  0.47021827261E+00 -0.19654434732E+00  0.57489290169E+02  0.57971865116E+02  0.74470750000E+01 0. -1.
<mgrwt>
<rscale>  0 0.14935651E+02</rscale>
<asrwt>0</asrwt>
<pdfrwt beam="2">  1        2 0.99518303E+00 0.14935651E+02</pdfrwt>
<pdfrwt beam="1">  1       -2 0.98798362E+00 0.14935651E+02</pdfrwt>
<totfact> 0.14978518E-13</totfact>
</mgrwt>
</event>
<event>
 4    1 -0.4882314E-019  0.1489599E+02  0.7818608E-02  0.1871259E+00
          2   -1    0    0  501    0  0.00000000000E+00  0.00000000000E+00  0.11805159530E+03  0.11805159533E+03  0.25500000000E-02 0.  1.
         -2   -1    0    0    0  501 -0.00000000000E+00 -0.00000000000E+00 -0.46989795221E+00  0.46990487121E+00  0.25500000000E-02 0. -1.
         31    1    1    2    0    0 -0.88290727270E-01  0.32880109524E-01  0.58238902536E+02  0.58713180556E+02  0.74470750000E+01 0.  1.
        -31    1    1    2    0    0  0.88290727270E-01 -0.32880109524E-01  0.59342794812E+02  0.59808319643E+02  0.74470750000E+01 0.  1.
<mgrwt>
<rscale>  0 0.14895988E+02</rscale>
<asrwt>0</asrwt>
<pdfrwt beam="1">  1        2 0.98001869E+00 0.14895988E+02</pdfrwt>
<pdfrwt beam="2">  1       -2 0.99794970E+00 0.14895988E+02</pdfrwt>
<totfact>-0.48370927E-13</totfact>
</mgrwt>
</event>
<event>
 4    1 -0.4882314E-019  0.1494649E+02  0.7818608E-02  0.1869706E+00
          2   -1    0    0  501    0  0.00000000000E+00  0.00000000000E+00  0.11912242970E+03  0.11912242973E+03  0.25500000000E-02 0.  1.
         -2   -1    0    0    0  501 -0.00000000000E+00 -0.00000000000E+00 -0.46883667457E+00  0.46884360924E+00  0.25500000000E-02 0. -1.
         31    1    1    2    0    0 -0.43105872175E+00  0.26431432881E+00  0.62264267752E+02  0.62710076052E+02  0.74470750000E+01 0. -1.
        -31    1    1    2    0    0  0.43105872175E+00 -0.26431432881E+00  0.56389325274E+02  0.56881197285E+02  0.74470750000E+01 0. -1.
<mgrwt>
<rscale>  0 0.14946489E+02</rscale>
<asrwt>0</asrwt>
<pdfrwt beam="1">  1        2 0.98886432E+00 0.14946489E+02</pdfrwt>
<pdfrwt beam="2">  1       -2 0.99574016E+00 0.14946489E+02</pdfrwt>
<totfact>-0.19342745E-13</totfact>
</mgrwt>
</event>
<event>
 4    1 -0.4882314E-019  0.1500361E+02  0.7818608E-02  0.1867958E+00
          2   -1    0    0  501    0  0.00000000000E+00  0.00000000000E+00  0.11971356207E+03  0.11971356209E+03  0.25500000000E-02 0. -1.
         -2   -1    0    0    0  501 -0.00000000000E+00 -0.00000000000E+00 -0.47009426492E+00  0.47010118104E+00  0.25500000000E-02 0.  1.
         31    1    1    2    0    0  0.53227543642E+00 -0.72155633900E+00  0.58667549198E+02  0.59145111511E+02  0.74470750000E+01 0. -1.
        -31    1    1    2    0    0 -0.53227543642E+00  0.72155633900E+00  0.60575918604E+02  0.61038551765E+02  0.74470750000E+01 0.  1.
<mgrwt>
<rscale>  0 0.15003610E+02</rscale>
<asrwt>0</asrwt>
<pdfrwt beam="1">  1        2 0.99376262E+00 0.15003610E+02</pdfrwt>
<pdfrwt beam="2">  1       -2 0.99841994E+00 0.15003610E+02</pdfrwt>
<totfact>-0.65045904E-14</totfact>
</mgrwt>
</event>
<event>
 4    1 -0.4882314E-019  0.1498348E+02  0.7818608E-02  0.1868573E+00
          2   -1    0    0  501    0  0.00000000000E+00  0.00000000000E+00  0.11995733705E+03  0.11995733707E+03  0.25500000000E-02 0.  1.
         -2   -1    0    0    0  501 -0.00000000000E+00 -0.00000000000E+00 -0.46788103696E+00  0.46788798579E+00  0.25500000000E-02 0. -1.
         31    1    1    2    0    0  0.32274730939E+00 -0.41169446842E+00  0.54702392390E+02  0.55209458586E+02  0.74470750000E+01 0. -1.
        -31    1    1    2    0    0 -0.32274730939E+00  0.41169446842E+00  0.64787063621E+02  0.65215766474E+02  0.74470750000E+01 0.  1.
<mgrwt>
<rscale>  0 0.14983482E+02</rscale>
<asrwt>0</asrwt>
<pdfrwt beam="1">  1        2 0.99576002E+00 0.14983482E+02</pdfrwt>
<pdfrwt beam="2">  1       -2 0.99374556E+00 0.14983482E+02</pdfrwt>
<totfact>-0.10465668E-13</totfact>
</mgrwt>
</event>
<event>
 4    1  0.4882314E-019  0.1491079E+02  0.7818608E-02  0.1870803E+00
         -2   -1    0    0    0  501 -0.00000000000E+00  0.00000000000E+00  0.11854819963E+03  0.11854819966E+03  0.25500000000E-02 0. -1.
          2   -1    0    0  501    0  0.00000000000E+00 -0.00000000000E+00 -0.46885968012E+00  0.46886661445E+00  0.25500000000E-02 0.  1.
         31    1    1    2    0    0  0.20776291428E+00  0.26184948347E+00  0.58157002413E+02  0.58632820044E+02  0.74470750000E+01 0.  1.
        -31    1    1    2    0    0 -0.20776291428E+00 -0.26184948347E+00  0.59922337538E+02  0.60384246229E+02  0.74470750000E+01 0. -1.
<mgrwt>
<rscale>  0 0.14910786E+02</rscale>
<asrwt>0</asrwt>
<pdfrwt beam="2">  1        2 0.99576992E+00 0.14910786E+02</pdfrwt>
<pdfrwt beam="1">  1       -2 0.98411638E+00 0.14910786E+02</pdfrwt>
<totfact> 0.56018790E-13</totfact>
</mgrwt>
</event>
<event>
 4    1 -0.4882314E-019  0.1504353E+02  0.7818608E-02  0.1866743E+00
         -2   -1    0    0    0  501 -0.00000000000E+00  0.00000000000E+00  0.12036366014E+03  0.12036366016E+03  0.25500000000E-02 0.  1.
          2   -1    0    0  501    0  0.00000000000E+00 -0.00000000000E+00 -0.47004675157E+00  0.47005366839E+00  0.25500000000E-02 0. -1.
         31    1    1    2    0    0 -0.76006884970E+00  0.46755769663E+00  0.64502782634E+02  0.64937386831E+02  0.74470750000E+01 0.  1.
        -31    1    1    2    0    0  0.76006884970E+00 -0.46755769663E+00  0.55390830751E+02  0.55896327001E+02  0.74470750000E+01 0. -1.
<mgrwt>
<rscale>  0 0.15043532E+02</rscale>
<asrwt>0</asrwt>
<pdfrwt beam="2">  1        2 0.99834051E+00 0.15043532E+02</pdfrwt>
<pdfrwt beam="1">  1       -2 0.99913769E+00 0.15043532E+02</pdfrwt>
<totfact>-0.16009184E-14</totfact>
</mgrwt>
</event>
<event>
 4    1  0.4882314E-019  0.1493336E+02  0.7818608E-02  0.1870109E+00
         -2   -1    0    0    0  501 -0.00000000000E+00  0.00000000000E+00  0.11858009115E+03  0.11858009118E+03  0.25500000000E-02 0.  1.
          2   -1    0    0  501    0  0.00000000000E+00 -0.00000000000E+00 -0.47015403900E+00  0.47016095424E+00  0.25500000000E-02 0. -1.
         31    1    1    2    0    0  0.26376362165E+00 -0.44871362578E+00  0.57886550151E+02  0.58365936381E+02  0.74470750000E+01 0. -1.
        -31    1    1    2    0    0 -0.26376362165E+00  0.44871362578E+00  0.60223386964E+02  0.60684315755E+02  0.74470750000E+01 0.  1.
<mgrwt>
<rscale>  0 0.14933362E+02</rscale>
<asrwt>0</asrwt>
<pdfrwt beam="2">  1        2 0.99850906E+00 0.14933362E+02</pdfrwt>
<pdfrwt beam="1">  1       -2 0.98439078E+00 0.14933362E+02</pdfrwt>
<totfact> 0.24766718E-13</totfact>
</mgrwt>
</event>
<event>
 4    1 -0.4882314E-019  0.1496787E+02  0.7818608E-02  0.1869051E+00
         -2   -1    0    0    0  501 -0.00000000000E+00  0.00000000000E+00  0.11985782890E+03  0.11985782892E+03  0.25500000000E-02 0.  1.
          2   -1    0    0  501    0  0.00000000000E+00 -0.00000000000E+00 -0.46729392512E+00  0.46730088268E+00  0.25500000000E-02 0. -1.
         31    1    1    2    0    0  0.37467230986E+00  0.54834952176E+00  0.62352520408E+02  0.62799178289E+02  0.74470750000E+01 0.  1.
        -31    1    1    2    0    0 -0.37467230986E+00 -0.54834952176E+00  0.57038014563E+02  0.57525951517E+02  0.74470750000E+01 0. -1.
<mgrwt>
<rscale>  0 0.14967866E+02</rscale>
<asrwt>0</asrwt>
<pdfrwt beam="2">  1        2 0.99250024E+00 0.14967866E+02</pdfrwt>
<pdfrwt beam="1">  1       -2 0.99493236E+00 0.14967866E+02</pdfrwt>
<totfact>-0.14614842E-13</totfact>
</mgrwt>
</event>
<event>
 4    1 -0.4882314E-019  0.1495143E+02  0.7818608E-02  0.1869554E+00
         -2   -1    0    0    0  501 -0.00000000000E+00  0.00000000000E+00  0.12019778495E+03  0.12019778497E+03  0.25500000000E-02 0. -1.
          2   -1    0    0  501    0  0.00000000000E+00 -0.00000000000E+00 -0.46494914137E+00  0.46495613402E+00  0.25500000000E-02 0.  1.
         31    1    1    2    0    0  0.16779876994E+00 -0.37995705159E+00  0.63940374057E+02  0.64373930161E+02  0.74470750000E+01 0.  1.
        -31    1    1    2    0    0 -0.16779876994E+00  0.37995705159E+00  0.55792461747E+02  0.56288810945E+02  0.74470750000E+01 0.  1.
<mgrwt>
<rscale>  0 0.14951425E+02</rscale>
<asrwt>0</asrwt>
<pdfrwt beam="2">  1        2 0.98755019E+00 0.14951425E+02</pdfrwt>
<pdfrwt beam="1">  1       -2 0.99772397E+00 0.14951425E+02</pdfrwt>
<totfact>-0.15577214E-13</totfact>
</mgrwt>
</event>
<event>
 4    1  0.4882314E-019  0.1492383E+02  0.7818608E-02  0.1870402E+00
         -2   -1    0    0    0  501 -0.00000000000E+00  0.00000000000E+00  0.11879530099E+03  0.11879530102E+03  0.25500000000E-02 0.  1.
          2   -1    0    0  501    0  0.00000000000E+00 -0.00000000000E+00 -0.46870322684E+00  0.46871016348E+00  0.25500000000E-02 0. -1.
         31    1    1    2    0    0 -0.21250169681E+00 -0.24119957111E+00  0.56419333732E+02  0.56909607967E+02  0.74470750000E+01 0. -1.
        -31    1    1    2    0    0  0.21250169681E+00  0.24119957111E+00  0.61907264032E+02  0.62354403214E+02  0.74470750000E+01 0. -1.
<mgrwt>
<rscale>  0 0.14923827E+02</rscale>
<asrwt>0</asrwt>
<pdfrwt beam="2">  1        2 0.99544711E+00 0.14923827E+02</pdfrwt>
<pdfrwt beam="1">  1       -2 0.98615829E+00 0.14923827E+02</pdfrwt>
<totfact> 0.32162533E-13</totfact>
</mgrwt>
</event>
<event>
 4    1  0.4882314E-019  0.1490711E+02  0.7818608E-02  0.1870916E+00
          2   -1    0    0  501    0  0.00000000000E+00  0.00000000000E+00  0.11976972128E+03  0.11976972130E+03  0.25500000000E-02 0. -1.
         -2   -1    0    0    0  501 -0.00000000000E+00 -0.00000000000E+00 -0.46384915429E+00  0.46385616352E+00  0.25500000000E-02 0.  1.
         31    1    1    2    0    0  0.14425672555E+00  0.58697193602E-01  0.57483844101E+02  0.57964433181E+02  0.74470750000E+01 0.  1.
        -31    1    1    2    0    0 -0.14425672555E+00 -0.58697193602E-01  0.61822028020E+02  0.62269144285E+02  0.74470750000E+01 0. -1.
<mgrwt>
<rscale>  0 0.14907113E+02</rscale>
<asrwt>0</asrwt>
<pdfrwt beam="1">  1        2 0.99417534E+00 0.14907113E+02</pdfrwt>
<pdfrwt beam="2">  1       -2 0.98520930E+00 0.14907113E+02</pdfrwt>
<totfact> 0.49269536E-13</totfact>
</mgrwt>
</event>
<event>
 4    1 -0.4882314E-019  0.1492728E+02  0.7818608E-02  0.1870296E+00
         -2   -1    0    0    0  501 -0.00000000000E+00  0.00000000000E+00  0.12014049696E+03  0.12014049699E+03  0.25500000000E-02 0.  1.
          2   -1    0    0  501    0  0.00000000000E+00 -0.00000000000E+00 -0.46366931672E+00  0.46367632867E+00  0.25500000000E-02 0. -1.
         31    1    1    2    0    0 -0.41463501680E+00  0.10573196173E+00  0.61880119824E+02  0.62328093641E+02  0.74470750000E+01 0.  1.
        -31    1    1    2    0    0  0.41463501680E+00 -0.10573196173E+00  0.57796707822E+02  0.58276079678E+02  0.74470750000E+01 0. -1.
<mgrwt>
<rscale>  0 0.14927275E+02</rscale>
<asrwt>0</asrwt>
<pdfrwt beam="2">  1        2 0.98484053E+00 0.14927275E+02</pdfrwt>
<pdfrwt beam="1">  1       -2 0.99723969E+00 0.14927275E+02</pdfrwt>
<totfact>-0.26984438E-13</totfact>
</mgrwt>
</event>
<event>
 4    1  0.4882314E-019  0.1493929E+02  0.7818608E-02  0.1869927E+00
         -2   -1    0    0    0  501 -0.00000000000E+00  0.00000000000E+00  0.11889507663E+03  0.11889507666E+03  0.25500000000E-02 0.  1.
          2   -1    0    0  501    0  0.00000000000E+00 -0.00000000000E+00 -0.46928095191E+00  0.46928788001E+00  0.25500000000E-02 0. -1.
         31    1    1    2    0    0  0.55945731357E+00 -0.96477615742E-03  0.60442687153E+02  0.60902301679E+02  0.74470750000E+01 0. -1.
        -31    1    1    2    0    0 -0.55945731357E+00  0.96477615742E-03  0.57983108525E+02  0.58462062859E+02  0.74470750000E+01 0. -1.
<mgrwt>
<rscale>  0 0.14939292E+02</rscale>
<asrwt>0</asrwt>
<pdfrwt beam="2">  1        2 0.99667255E+00 0.14939292E+02</pdfrwt>
<pdfrwt beam="1">  1       -2 0.98698808E+00 0.14939292E+02</pdfrwt>
<totfact> 0.19521208E-13</totfact>
</mgrwt>
</event>
<event>
 4    1 -0.4882314E-019  0.1494896E+02  0.7818608E-02  0.1869630E+00
         -2   -1    0    0    0  501 -0.00000000000E+00  0.00000000000E+00  0.12005418674E+03  0.12005418677E+03  0.25500000000E-02 0.  1.
          2   -1    0    0  501    0  0.00000000000E+00 -0.00000000000E+00 -0.46535190446E+00  0.46535889105E+00  0.25500000000E-02 0. -1.
         31    1    1    2    0    0 -0.63171414359E+00  0.78654588447E-01  0.59304569999E+02  0.59773708251E+02  0.74470750000E+01 0. -1.
        -31    1    1    2    0    0  0.63171414359E+00 -0.78654588447E-01  0.60284264835E+02  0.60745837405E+02  0.74470750000E+01 0. -1.
<mgrwt>
<rscale>  0 0.14948962E+02</rscale>
<asrwt>0</asrwt>
<pdfrwt beam="2">  1        2 0.98839778E+00 0.14948962E+02</pdfrwt>
<pdfrwt beam="1">  1       -2 0.99653993E+00 0.14948962E+02</pdfrwt>
<totfact>-0.18548608E-13</totfact>
</mgrwt>
</event>
<event>
 4    1 -0.4882314E-019  0.1492287E+02  0.7818608E-02  0.1870431E+00
          2   -1    0    0  501    0  0.00000000000E+00  0.00000000000E+00  0.11861018631E+03  0.11861018634E+03  0.25500000000E-02 0.  1.
         -2   -1    0    0    0  501 -0.00000000000E+00 -0.00000000000E+00 -0.46937477775E+00  0.46938170447E+00  0.25500000000E-02 0. -1.
         31    1    1    2    0    0  0.20644064676E+00 -0.19574901899E+00  0.61982518650E+02  0.62428939441E+02  0.74470750000E+01 0.  1.
        -31    1    1    2    0    0 -0.20644064676E+00  0.19574901899E+00  0.56158292880E+02  0.56650628599E+02  0.74470750000E+01 0. -1.
<mgrwt>
<rscale>  0 0.14922874E+02</rscale>
<asrwt>0</asrwt>
<pdfrwt beam="1">  1        2 0.98463318E+00 0.14922874E+02</pdfrwt>
<pdfrwt beam="2">  1       -2 0.99686161E+00 0.14922874E+02</pdfrwt>
<totfact>-0.30376747E-13</totfact>
</mgrwt>
</event>
<event>
 4    1 -0.4882314E-019  0.1493118E+02  0.7818608E-02  0.1870176E+00
          2   -1    0    0  501    0  0.00000000000E+00  0.00000000000E+00  0.11895185893E+03  0.11895185896E+03  0.25500000000E-02 0.  1.
         -2   -1    0    0    0  501 -0.00000000000E+00 -0.00000000000E+00 -0.46854746419E+00  0.46855440313E+00  0.25500000000E-02 0. -1.
         31    1    1    2    0    0 -0.70503714508E-01 -0.32594689463E+00  0.55994113171E+02  0.56488147854E+02  0.74470750000E+01 0. -1.
        -31    1    1    2    0    0  0.70503714508E-01  0.32594689463E+00  0.62489198298E+02  0.62932265510E+02  0.74470750000E+01 0. -1.
<mgrwt>
<rscale>  0 0.14931176E+02</rscale>
<asrwt>0</asrwt>
<pdfrwt beam="1">  1        2 0.98745153E+00 0.14931176E+02</pdfrwt>
<pdfrwt beam="2">  1       -2 0.99512275E+00 0.14931176E+02</pdfrwt>
<totfact>-0.23915931E-13</totfact>
</mgrwt>
</event>
<event>
 4    1 -0.4882314E-019  0.1496628E+02  0.7818608E-02  0.1869099E+00
         -2   -1    0    0    0  501 -0.00000000000E+00  0.00000000000E+00  0.11948463539E+03  0.11948463542E+03  0.25500000000E-02 0. -1.
          2   -1    0    0  501    0  0.00000000000E+00 -0.00000000000E+00 -0.46865414924E+00  0.46866108661E+00  0.25500000000E-02 0.  1.
         31    1    1    2    0    0  0.38977722495E+00  0.31419083405E-01  0.64484647942E+02  0.64914417965E+02  0.74470750000E+01 0. -1.
        -31    1    1    2    0    0 -0.38977722495E+00 -0.31419083405E-01  0.54531333301E+02  0.55038878541E+02  0.74470750000E+01 0.  1.
<mgrwt>
<rscale>  0 0.14966280E+02</rscale>
<asrwt>0</asrwt>
<pdfrwt beam="2">  1        2 0.99536585E+00 0.14966280E+02</pdfrwt>
<pdfrwt beam="1">  1       -2 0.99185778E+00 0.14966280E+02</pdfrwt>
<totfact>-0.71364534E-14</totfact>
</mgrwt>
</event>
<event>
 4    1  0.4882314E-019  0.1492543E+02  0.7818608E-02  0.1870353E+00
          2   -1    0    0  501    0  0.00000000000E+00  0.00000000000E+00  0.12016992280E+03  0.12016992283E+03  0.25500000000E-02 0. -1.
         -2   -1    0    0    0  501 -0.00000000000E+00 -0.00000000000E+00 -0.46344092114E+00  0.46344793654E+00  0.25500000000E-02 0.  1.
         31    1    1    2    0    0 -0.29680787835E+00 -0.12898920240E-02  0.56774895537E+02  0.57261992507E+02  0.74470750000E+01 0.  1.
        -31    1    1    2    0    0  0.29680787835E+00  0.12898920240E-02  0.62931586342E+02  0.63371378256E+02  0.74470750000E+01 0. -1.
<mgrwt>
<rscale>  0 0.14925426E+02</rscale>
<asrwt>0</asrwt>
<pdfrwt beam="1">  1        2 0.99748111E+00 0.14925426E+02</pdfrwt>
<pdfrwt beam="2">  1       -2 0.98435821E+00 0.14925426E+02</pdfrwt>
<totfact> 0.37666181E-13</totfact>
</mgrwt>
</event>
<event>
 4    1 -0.4882314E-019  0.1498569E+02  0.7818608E-02  0.1868505E+00
          2   -1    0    0  501    0  0.00000000000E+00  0.00000000000E+00  0.11946961449E+03  0.11946961451E+03  0.25500000000E-02 0.  1.
         -2   -1    0    0    0  501 -0.00000000000E+00 -0.00000000000E+00 -0.46992960661E+00  0.46993652515E+00  0.25500000000E-02 0. -1.
         31    1    1    2    0    0 -0.35767604196E+00 -0.58772704454E+00  0.63171432162E+02  0.63612594057E+02  0.74470750000E+01 0.  1.
        -31    1    1    2    0    0  0.35767604196E+00  0.58772704454E+00  0.55828252719E+02  0.56326956983E+02  0.74470750000E+01 0. -1.
<mgrwt>
<rscale>  0 0.14985690E+02</rscale>
<asrwt>0</asrwt>
<pdfrwt beam="1">  1        2 0.99174413E+00 0.14985690E+02</pdfrwt>
<pdfrwt beam="2">  1       -2 0.99806363E+00 0.14985690E+02</pdfrwt>
<totfact>-0.89336553E-14</totfact>
</mgrwt>
</event>
<event>
 4    1  0.4882314E-019  0.1492236E+02  0.7818608E-02  0.1870447E+00
         -2   -1    0    0    0  501 -0.00000000000E+00  0.00000000000E+00  0.11845597096E+03  0.11845597099E+03  0.25500000000E-02 0. -1.
          2   -1    0    0  501    0  0.00000000000E+00 -0.00000000000E+00 -0.46995318350E+00  0.46996010169E+00  0.25500000000E-02 0.  1.
         31    1    1    2    0    0  0.35316536181E+00  0.17142407059E+00  0.57104763408E+02  0.57589643530E+02  0.74470750000E+01 0.  1.
        -31    1    1    2    0    0 -0.35316536181E+00 -0.17142407059E+00  0.60881254366E+02  0.61336287557E+02  0.74470750000E+01 0. -1.
<mgrwt>
<rscale>  0 0.14922356E+02</rscale>
<asrwt>0</asrwt>
<pdfrwt beam="2">  1        2 0.99808004E+00 0.14922356E+02</pdfrwt>
<pdfrwt beam="1">  1       -2 0.98336281E+00 0.14922356E+02</pdfrwt>
<totfact> 0.39053174E-13</totfact>
</mgrwt>
</event>
<event>
 4    1 -0.4882314E-019  0.1493059E+02  0.7818608E-02  0.1870194E+00
         -2   -1    0    0    0  501 -0.00000000000E+00  0.00000000000E+00  0.12012147605E+03  0.12012147607E+03  0.25500000000E-02 0. -1.
          2   -1    0    0  501    0  0.00000000000E+00 -0.00000000000E+00 -0.46394863453E+00  0.46395564226E+00  0.25500000000E-02 0.  1.
         31    1    1    2    0    0  0.47946728730E+00 -0.50387305140E-01  0.58228390087E+02  0.58704657106E+02  0.74470750000E+01 0.  1.
        -31    1    1    2    0    0 -0.47946728730E+00  0.50387305140E-01  0.61429137325E+02  0.61880774610E+02  0.74470750000E+01 0.  1.
<mgrwt>
<rscale>  0 0.14930589E+02</rscale>
<asrwt>0</asrwt>
<pdfrwt beam="2">  1        2 0.98543091E+00 0.14930589E+02</pdfrwt>
<pdfrwt beam="1">  1       -2 0.99708472E+00 0.14930589E+02</pdfrwt>
<totfact>-0.25462944E-13</totfact>
</mgrwt>
</event>
<event>
 4    1  0.4882314E-019  0.1492292E+02  0.7818608E-02  0.1870430E+00
          2   -1    0    0  501    0  0.00000000000E+00  0.00000000000E+00  0.11986634546E+03  0.11986634549E+03  0.25500000000E-02 0.  1.
         -2   -1    0    0    0  501 -0.00000000000E+00 -0.00000000000E+00 -0.46445850527E+00  0.46446550530E+00  0.25500000000E-02 0. -1.
         31    1    1    2    0    0 -0.32573996128E+00 -0.10748434932E-01  0.57048332765E+02  0.57533272281E+02  0.74470750000E+01 0. -1.
        -31    1    1    2    0    0  0.32573996128E+00  0.10748434932E-01  0.62353554191E+02  0.62797538712E+02  0.74470750000E+01 0. -1.
<mgrwt>
<rscale>  0 0.14922917E+02</rscale>
<asrwt>0</asrwt>
<pdfrwt beam="1">  1        2 0.99497934E+00 0.14922917E+02</pdfrwt>
<pdfrwt beam="2">  1       -2 0.98650161E+00 0.14922917E+02</pdfrwt>
<totfact> 0.29954726E-13</totfact>
</mgrwt>
</event>
<event>
 4    1  0.4882314E-019  0.1490492E+02  0.7818608E-02  0.1870984E+00
          2   -1    0    0  501    0  0.00000000000E+00  0.00000000000E+00  0.11968351841E+03  0.11968351844E+03  0.25500000000E-02 0.  1.
         -2   -1    0    0    0  501 -0.00000000000E+00 -0.00000000000E+00 -0.46404637774E+00  0.46405338399E+00  0.25500000000E-02 0. -1.
         31    1    1    2    0    0 -0.60412861913E-01 -0.27382583939E+00  0.59929071019E+02  0.60390654157E+02  0.74470750000E+01 0. -1.
        -31    1    1    2    0    0  0.60412861913E-01  0.27382583939E+00  0.59290401015E+02  0.59756917666E+02  0.74470750000E+01 0. -1.
<mgrwt>
<rscale>  0 0.14904915E+02</rscale>
<asrwt>0</asrwt>
<pdfrwt beam="1">  1        2 0.99346419E+00 0.14904915E+02</pdfrwt>
<pdfrwt beam="2">  1       -2 0.98562384E+00 0.14904915E+02</pdfrwt>
<totfact> 0.45972491E-13</totfact>
</mgrwt>
</event>
<event>
 4    1 -0.4882314E-019  0.1493073E+02  0.7818608E-02  0.1870190E+00
         -2   -1    0    0    0  501 -0.00000000000E+00  0.00000000000E+00  0.12011468028E+03  0.12011468031E+03  0.25500000000E-02 0.  1.
          2   -1    0    0  501    0  0.00000000000E+00 -0.00000000000E+00 -0.46398373247E+00  0.46399073967E+00  0.25500000000E-02 0. -1.
         31    1    1    2    0    0  0.46174480430E+00 -0.23719127069E+00  0.59362286221E+02  0.59829837201E+02  0.74470750000E+01 0. -1.
        -31    1    1    2    0    0 -0.46174480430E+00  0.23719127069E+00  0.60288410331E+02  0.60748833851E+02  0.74470750000E+01 0. -1.
<mgrwt>
<rscale>  0 0.14930731E+02</rscale>
<asrwt>0</asrwt>
<pdfrwt beam="2">  1        2 0.98550496E+00 0.14930731E+02</pdfrwt>
<pdfrwt beam="1">  1       -2 0.99702882E+00 0.14930731E+02</pdfrwt>
<totfact>-0.25482742E-13</totfact>
</mgrwt>
</event>
<event>
 4    1  0.4882314E-019  0.1493518E+02  0.7818608E-02  0.1870053E+00
         -2   -1    0    0    0  501 -0.00000000000E+00  0.00000000000E+00  0.11858415261E+03  0.11858415264E+03  0.25500000000E-02 0. -1.
          2   -1    0    0  501    0  0.00000000000E+00 -0.00000000000E+00 -0.47025224681E+00  0.47025916060E+00  0.25500000000E-02 0.  1.
         31    1    1    2    0    0  0.56317282698E-01 -0.51592722433E+00  0.60581945613E+02  0.61040154102E+02  0.74470750000E+01 0. -1.
        -31    1    1    2    0    0 -0.56317282698E-01  0.51592722433E+00  0.57531954753E+02  0.58014257698E+02  0.74470750000E+01 0.  1.
<mgrwt>
<rscale>  0 0.14935177E+02</rscale>
<asrwt>0</asrwt>
<pdfrwt beam="2">  1        2 0.99871694E+00 0.14935177E+02</pdfrwt>
<pdfrwt beam="1">  1       -2 0.98442517E+00 0.14935177E+02</pdfrwt>
<totfact> 0.21616408E-13</totfact>
</mgrwt>
</event>
<event>
 4    1 -0.4882314E-019  0.1493697E+02  0.7818608E-02  0.1869998E+00
         -2   -1    0    0    0  501 -0.00000000000E+00  0.00000000000E+00  0.11993766428E+03  0.11993766430E+03  0.25500000000E-02 0. -1.
          2   -1    0    0  501    0  0.00000000000E+00 -0.00000000000E+00 -0.46505675013E+00  0.46506374116E+00  0.25500000000E-02 0.  1.
         31    1    1    2    0    0  0.10993770419E+00  0.15400042693E+00  0.55444286458E+02  0.55942502888E+02  0.74470750000E+01 0.  1.
        -31    1    1    2    0    0 -0.10993770419E+00 -0.15400042693E+00  0.64028321067E+02  0.64460225156E+02  0.74470750000E+01 0. -1.
<mgrwt>
<rscale>  0 0.14936967E+02</rscale>
<asrwt>0</asrwt>
<pdfrwt beam="2">  1        2 0.98776961E+00 0.14936967E+02</pdfrwt>
<pdfrwt beam="1">  1       -2 0.99557400E+00 0.14936967E+02</pdfrwt>
<totfact>-0.22405540E-13</totfact>
</mgrwt>
</event>
<event>
 4    1  0.4882314E-019  0.1491503E+02  0.7818608E-02  0.1870672E+00
          2   -1    0    0  501    0  0.00000000000E+00  0.00000000000E+00  0.12040738948E+03  0.12040738950E+03  0.25500000000E-02 0.  1.
         -2   -1    0    0    0  501 -0.00000000000E+00 -0.00000000000E+00 -0.46188289741E+00  0.46188993647E+00  0.25500000000E-02 0. -1.
         31    1    1    2    0    0  0.35733466281E+00  0.28375451955E-01  0.61307349820E+02  0.61759036272E+02  0.74470750000E+01 0.  1.
        -31    1    1    2    0    0 -0.35733466281E+00 -0.28375451955E-01  0.58638156758E+02  0.59110243167E+02  0.74470750000E+01 0. -1.
<mgrwt>
<rscale>  0 0.14915031E+02</rscale>
<asrwt>0</asrwt>
<pdfrwt beam="1">  1        2 0.99943177E+00 0.14915031E+02</pdfrwt>
<pdfrwt beam="2">  1       -2 0.98106906E+00 0.14915031E+02</pdfrwt>
<totfact> 0.21437957E-13</totfact>
</mgrwt>
</event>
<event>
 4    1  0.4882314E-019  0.1492699E+02  0.7818608E-02  0.1870305E+00
         -2   -1    0    0    0  501 -0.00000000000E+00  0.00000000000E+00  0.11858674744E+03  0.11858674747E+03  0.25500000000E-02 0. -1.
          2   -1    0    0  501    0  0.00000000000E+00 -0.00000000000E+00 -0.46972648977E+00  0.46973341130E+00  0.25500000000E-02 0.  1.
         31    1    1    2    0    0 -0.13303140534E+00 -0.27006732410E-02  0.62859600036E+02  0.63299336073E+02  0.74470750000E+01 0. -1.
        -31    1    1    2    0    0  0.13303140534E+00  0.27006732410E-02  0.55257420920E+02  0.55757144810E+02  0.74470750000E+01 0.  1.
<mgrwt>
<rscale>  0 0.14926989E+02</rscale>
<asrwt>0</asrwt>
<pdfrwt beam="2">  1        2 0.99760485E+00 0.14926989E+02</pdfrwt>
<pdfrwt beam="1">  1       -2 0.98444228E+00 0.14926989E+02</pdfrwt>
<totfact> 0.35522204E-13</totfact>
</mgrwt>
</event>
<event>
 4    1 -0.4882314E-019  0.1501624E+02  0.7818608E-02  0.1867573E+00
          2   -1    0    0  501    0  0.00000000000E+00  0.00000000000E+00  0.12014737806E+03  0.12014737809E+03  0.25500000000E-02 0.  1.
         -2   -1    0    0    0  501 -0.00000000000E+00 -0.00000000000E+00 -0.46918583563E+00  0.46919276513E+00  0.25500000000E-02 0. -1.
         31    1    1    2    0    0 -0.19911488788E+00 -0.91054819493E+00  0.61527750261E+02  0.61983802101E+02  0.74470750000E+01 0.  1.
        -31    1    1    2    0    0  0.19911488788E+00  0.91054819493E+00  0.58150441966E+02  0.58632768753E+02  0.74470750000E+01 0. -1.
<mgrwt>
<rscale>  0 0.15016240E+02</rscale>
<asrwt>0</asrwt>
<pdfrwt beam="1">  1        2 0.99734220E+00 0.15016240E+02</pdfrwt>
<pdfrwt beam="2">  1       -2 0.99651216E+00 0.15016240E+02</pdfrwt>
<totfact>-0.71034453E-14</totfact>
</mgrwt>
</event>
<event>
 4    1  0.4882314E-019  0.1491503E+02  0.7818608E-02  0.1870672E+00
          2   -1    0    0  501    0  0.00000000000E+00  0.00000000000E+00  0.11990399341E+03  0.11990399344E+03  0.25500000000E-02 0. -1.
         -2   -1    0    0    0  501 -0.00000000000E+00 -0.00000000000E+00 -0.46382215977E+00  0.46382916941E+00  0.25500000000E-02 0.  1.
         31    1    1    2    0    0  0.21825604868E+00  0.62693488670E-01  0.62323414555E+02  0.62767176884E+02  0.74470750000E+01 0. -1.
        -31    1    1    2    0    0 -0.21825604868E+00 -0.62693488670E-01  0.57116756694E+02  0.57600645721E+02  0.74470750000E+01 0.  1.
<mgrwt>
<rscale>  0 0.14915033E+02</rscale>
<asrwt>0</asrwt>
<pdfrwt beam="1">  1        2 0.99528537E+00 0.14915033E+02</pdfrwt>
<pdfrwt beam="2">  1       -2 0.98515644E+00 0.14915033E+02</pdfrwt>
<totfact> 0.44952407E-13</totfact>
</mgrwt>
</event>
<event>
 4    1  0.4882314E-019  0.1491264E+02  0.7818608E-02  0.1870746E+00
         -2   -1    0    0    0  501 -0.00000000000E+00  0.00000000000E+00  0.11833671004E+03  0.11833671007E+03  0.25500000000E-02 0. -1.
          2   -1    0    0  501    0  0.00000000000E+00 -0.00000000000E+00 -0.46981435533E+00  0.46982127556E+00  0.25500000000E-02 0.  1.
         31    1    1    2    0    0 -0.16034149679E+00 -0.30709933918E+00  0.59994934131E+02  0.60456356712E+02  0.74470750000E+01 0. -1.
        -31    1    1    2    0    0  0.16034149679E+00  0.30709933918E+00  0.57871961558E+02  0.58350174636E+02  0.74470750000E+01 0.  1.
<mgrwt>
<rscale>  0 0.14912639E+02</rscale>
<asrwt>0</asrwt>
<pdfrwt beam="2">  1        2 0.99778240E+00 0.14912639E+02</pdfrwt>
<pdfrwt beam="1">  1       -2 0.98237553E+00 0.14912639E+02</pdfrwt>
<totfact> 0.54076182E-13</totfact>
</mgrwt>
</event>
<event>
 4    1 -0.4882314E-019  0.1500682E+02  0.7818608E-02  0.1867860E+00
          2   -1    0    0  501    0  0.00000000000E+00  0.00000000000E+00  0.12031869862E+03  0.12031869865E+03  0.25500000000E-02 0. -1.
         -2   -1    0    0    0  501 -0.00000000000E+00 -0.00000000000E+00 -0.46793002153E+00  0.46793696963E+00  0.25500000000E-02 0.  1.
         31    1    1    2    0    0 -0.46072415018E-01 -0.15936095970E+00  0.52660458268E+02  0.53184681156E+02  0.74470750000E+01 0.  1.
        -31    1    1    2    0    0  0.46072415018E-01  0.15936095970E+00  0.67190310335E+02  0.67601954466E+02  0.74470750000E+01 0. -1.
<mgrwt>
<rscale>  0 0.15006819E+02</rscale>
<asrwt>0</asrwt>
<pdfrwt beam="1">  1        2 0.99874841E+00 0.15006819E+02</pdfrwt>
<pdfrwt beam="2">  1       -2 0.99386079E+00 0.15006819E+02</pdfrwt>
<totfact>-0.43128802E-14</totfact>
</mgrwt>
</event>
<event>
 4    1 -0.4882314E-019  0.1494634E+02  0.7818608E-02  0.1869710E+00
         -2   -1    0    0    0  501 -0.00000000000E+00  0.00000000000E+00  0.11969706072E+03  0.11969706074E+03  0.25500000000E-02 0.  1.
          2   -1    0    0  501    0  0.00000000000E+00 -0.00000000000E+00 -0.46657675807E+00  0.46658372633E+00  0.25500000000E-02 0. -1.
         31    1    1    2    0    0  0.34717667802E-03  0.41491589274E+00  0.55868329571E+02  0.56364007402E+02  0.74470750000E+01 0. -1.
        -31    1    1    2    0    0 -0.34717667802E-03 -0.41491589274E+00  0.63362154389E+02  0.63799637069E+02  0.74470750000E+01 0.  1.
<mgrwt>
<rscale>  0 0.14946342E+02</rscale>
<asrwt>0</asrwt>
<pdfrwt beam="2">  1        2 0.99097779E+00 0.14946342E+02</pdfrwt>
<pdfrwt beam="1">  1       -2 0.99359709E+00 0.14946342E+02</pdfrwt>
<totfact>-0.15477415E-13</totfact>
</mgrwt>
</event>
<event>
 4    1 -0.4882314E-019  0.1502839E+02  0.7818608E-02  0.1867203E+00
         -2   -1    0    0    0  501 -0.00000000000E+00  0.00000000000E+00  0.12027161923E+03  0.12027161925E+03  0.25500000000E-02 0. -1.
          2   -1    0    0  501    0  0.00000000000E+00 -0.00000000000E+00 -0.46945988351E+00  0.46946680897E+00  0.25500000000E-02 0.  1.
         31    1    1    2    0    0 -0.98929960569E+00  0.15943643605E+00  0.59963485701E+02  0.60432463769E+02  0.74470750000E+01 0.  1.
        -31    1    1    2    0    0  0.98929960569E+00 -0.15943643605E+00  0.59838673643E+02  0.60308622295E+02  0.74470750000E+01 0.  1.
<mgrwt>
<rscale>  0 0.15028389E+02</rscale>
<asrwt>0</asrwt>
<pdfrwt beam="2">  1        2 0.99709595E+00 0.15028389E+02</pdfrwt>
<pdfrwt beam="1">  1       -2 0.99837178E+00 0.15028389E+02</pdfrwt>
<totfact>-0.43187203E-14</totfact>
</mgrwt>
</event>
<event>
 4    1 -0.4882314E-019  0.1495018E+02  0.7818608E-02  0.1869593E+00
          2   -1    0    0  501    0  0.00000000000E+00  0.00000000000E+00  0.11902594374E+03  0.11902594377E+03  0.25500000000E-02 0. -1.
         -2   -1    0    0    0  501 -0.00000000000E+00 -0.00000000000E+00 -0.46944855025E+00  0.46945547588E+00  0.25500000000E-02 0.  1.
         31    1    1    2    0    0 -0.36519202962E+00 -0.42618687377E+00  0.56712466849E+02  0.57202078832E+02  0.74470750000E+01 0.  1.
        -31    1    1    2    0    0  0.36519202962E+00  0.42618687377E+00  0.61844028340E+02  0.62293320411E+02  0.74470750000E+01 0. -1.
<mgrwt>
<rscale>  0 0.14950180E+02</rscale>
<asrwt>0</asrwt>
<pdfrwt beam="1">  1        2 0.98807157E+00 0.14950180E+02</pdfrwt>
<pdfrwt beam="2">  1       -2 0.99703140E+00 0.14950180E+02</pdfrwt>
<totfact>-0.17595650E-13</totfact>
</mgrwt>
</event>
<event>
 4    1  0.4882314E-019  0.1494178E+02  0.7818608E-02  0.1869850E+00
         -2   -1    0    0    0  501 -0.00000000000E+00  0.00000000000E+00  0.11874380189E+03  0.11874380192E+03  0.25500000000E-02 0.  1.
          2   -1    0    0  501    0  0.00000000000E+00 -0.00000000000E+00 -0.47003512722E+00  0.47004204421E+00  0.25500000000E-02 0. -1.
         31    1    1    2    0    0 -0.45915670087E+00  0.20476199404E+00  0.61691188271E+02  0.62141084547E+02  0.74470750000E+01 0.  1.
        -31    1    1    2    0    0  0.45915670087E+00 -0.20476199404E+00  0.56582578496E+02  0.57072759418E+02  0.74470750000E+01 0.  1.
<mgrwt>
<rscale>  0 0.14941777E+02</rscale>
<asrwt>0</asrwt>
<pdfrwt beam="2">  1        2 0.99826295E+00 0.14941777E+02</pdfrwt>
<pdfrwt beam="1">  1       -2 0.98574347E+00 0.14941777E+02</pdfrwt>
<totfact> 0.19048039E-13</totfact>
</mgrwt>
</event>
<event>
 4    1  0.4882314E-019  0.1491740E+02  0.7818608E-02  0.1870600E+00
          2   -1    0    0  501    0  0.00000000000E+00  0.00000000000E+00  0.11980751966E+03  0.11980751969E+03  0.25500000000E-02 0.  1.
         -2   -1    0    0    0  501 -0.00000000000E+00 -0.00000000000E+00 -0.46434293797E+00  0.46434993975E+00  0.25500000000E-02 0. -1.
         31    1    1    2    0    0  0.11092201170E+00 -0.36537768300E+00  0.58335354110E+02  0.58810018447E+02  0.74470750000E+01 0. -1.
        -31    1    1    2    0    0 -0.11092201170E+00  0.36537768300E+00  0.61007822617E+02  0.61461851184E+02  0.74470750000E+01 0.  1.
<mgrwt>
<rscale>  0 0.14917399E+02</rscale>
<asrwt>0</asrwt>
<pdfrwt beam="1">  1        2 0.99449197E+00 0.14917399E+02</pdfrwt>
<pdfrwt beam="2">  1       -2 0.98625522E+00 0.14917399E+02</pdfrwt>
<totfact> 0.34308457E-13</totfact>
</mgrwt>
</event>
<event>
 4    1  0.4882314E-019  0.1491693E+02  0.7818608E-02  0.1870614E+00
          2   -1    0    0  501    0  0.00000000000E+00  0.00000000000E+00  0.11960890420E+03  0.11960890423E+03  0.25500000000E-02 0. -1.
         -2   -1    0    0    0  501 -0.00000000000E+00 -0.00000000000E+00 -0.46508488167E+00  0.46509187228E+00  0.25500000000E-02 0.  1.
         31    1    1    2    0    0  0.10495654436E+00 -0.66184365883E-01  0.62734784228E+02  0.63175370790E+02  0.74470750000E+01 0. -1.
        -31    1    1    2    0    0 -0.10495654436E+00  0.66184365883E-01  0.56409035091E+02  0.56898625311E+02  0.74470750000E+01 0.  1.
<mgrwt>
<rscale>  0 0.14916932E+02</rscale>
<asrwt>0</asrwt>
<pdfrwt beam="1">  1        2 0.99285581E+00 0.14916932E+02</pdfrwt>
<pdfrwt beam="2">  1       -2 0.98781864E+00 0.14916932E+02</pdfrwt>
<totfact> 0.19953706E-13</totfact>
</mgrwt>
</event>
<event>
 4    1 -0.4882314E-019  0.1503127E+02  0.7818608E-02  0.1867116E+00
         -2   -1    0    0    0  501 -0.00000000000E+00  0.00000000000E+00  0.12026030882E+03  0.12026030885E+03  0.25500000000E-02 0.  1.
          2   -1    0    0  501    0  0.00000000000E+00 -0.00000000000E+00 -0.46968400806E+00  0.46969093021E+00  0.25500000000E-02 0. -1.
         31    1    1    2    0    0 -0.59803358055E+00  0.60202577870E+00  0.55454028626E+02  0.55958272812E+02  0.74470750000E+01 0. -1.
        -31    1    1    2    0    0  0.59803358055E+00 -0.60202577870E+00  0.64336596185E+02  0.64771726964E+02  0.74470750000E+01 0.  1.
<mgrwt>
<rscale>  0 0.15031269E+02</rscale>
<asrwt>0</asrwt>
<pdfrwt beam="2">  1        2 0.99756975E+00 0.15031269E+02</pdfrwt>
<pdfrwt beam="1">  1       -2 0.99828011E+00 0.15031269E+02</pdfrwt>
<totfact>-0.39865359E-14</totfact>
</mgrwt>
</event>
<event>
 4    1  0.4882314E-019  0.1491550E+02  0.7818608E-02  0.1870658E+00
          2   -1    0    0  501    0  0.00000000000E+00  0.00000000000E+00  0.12031136673E+03  0.12031136676E+03  0.25500000000E-02 0. -1.
         -2   -1    0    0    0  501 -0.00000000000E+00 -0.00000000000E+00 -0.46228039110E+00  0.46228742411E+00  0.25500000000E-02 0.  1.
         31    1    1    2    0    0 -0.17100255708E+00  0.29800022244E+00  0.61564898052E+02  0.62014624438E+02  0.74470750000E+01 0.  1.
        -31    1    1    2    0    0  0.17100255708E+00 -0.29800022244E+00  0.58284188286E+02  0.58759029742E+02  0.74470750000E+01 0. -1.
<mgrwt>
<rscale>  0 0.14915497E+02</rscale>
<asrwt>0</asrwt>
<pdfrwt beam="1">  1        2 0.99864107E+00 0.14915497E+02</pdfrwt>
<pdfrwt beam="2">  1       -2 0.98190713E+00 0.14915497E+02</pdfrwt>
<totfact> 0.40052265E-13</totfact>
</mgrwt>
</event>
<event>
 4    1  0.4882314E-019  0.1490489E+02  0.7818608E-02  0.1870985E+00
          2   -1    0    0  501    0  0.00000000000E+00  0.00000000000E+00  0.11981804843E+03  0.11981804846E+03  0.25500000000E-02 0. -1.
         -2   -1    0    0    0  501 -0.00000000000E+00 -0.00000000000E+00 -0.46352367801E+00  0.46353069216E+00  0.25500000000E-02 0.  1.
         31    1    1    2    0    0 -0.41413087573E-02 -0.25646570405E+00  0.58715343482E+02  0.59186284544E+02  0.74470750000E+01 0.  1.
        -31    1    1    2    0    0  0.41413087573E-02  0.25646570405E+00  0.60639181268E+02  0.61095294604E+02  0.74470750000E+01 0. -1.
<mgrwt>
<rscale>  0 0.14904889E+02</rscale>
<asrwt>0</asrwt>
<pdfrwt beam="1">  1        2 0.99457225E+00 0.14904889E+02</pdfrwt>
<pdfrwt beam="2">  1       -2 0.98452220E+00 0.14904889E+02</pdfrwt>
<totfact> 0.57583029E-13</totfact>
</mgrwt>
</event>
<event>
 4    1  0.4882314E-019  0.1493800E+02  0.7818608E-02  0.1869966E+00
          2   -1    0    0  501    0  0.00000000000E+00  0.00000000000E+00  0.12029630490E+03  0.12029630493E+03  0.25500000000E-02 0.  1.
         -2   -1    0    0    0  501 -0.00000000000E+00 -0.00000000000E+00 -0.46373450677E+00  0.46374151773E+00  0.25500000000E-02 0. -1.
         31    1    1    2    0    0 -0.55802554241E+00 -0.12361745088E+00  0.60072360270E+02  0.60534899589E+02  0.74470750000E+01 0. -1.
        -31    1    1    2    0    0  0.55802554241E+00  0.12361745088E+00  0.59760210127E+02  0.60225146860E+02  0.74470750000E+01 0. -1.
<mgrwt>
<rscale>  0 0.14938002E+02</rscale>
<asrwt>0</asrwt>
<pdfrwt beam="1">  1        2 0.99852856E+00 0.14938002E+02</pdfrwt>
<pdfrwt beam="2">  1       -2 0.98498336E+00 0.14938002E+02</pdfrwt>
<totfact> 0.20869929E-13</totfact>
</mgrwt>
</event>
<event>
 4    1 -0.4882314E-019  0.1491375E+02  0.7818608E-02  0.1870712E+00
         -2   -1    0    0    0  501 -0.00000000000E+00  0.00000000000E+00  0.11989809753E+03  0.11989809755E+03  0.25500000000E-02 0.  1.
          2   -1    0    0  501    0  0.00000000000E+00 -0.00000000000E+00 -0.46376523343E+00  0.46377224393E+00  0.25500000000E-02 0. -1.
         31    1    1    2    0    0  0.27958804906E+00  0.12599175218E+00  0.61557941671E+02  0.62007524964E+02  0.74470750000E+01 0.  1.
        -31    1    1    2    0    0 -0.27958804906E+00 -0.12599175218E+00  0.57876390623E+02  0.58354344834E+02  0.74470750000E+01 0. -1.
<mgrwt>
<rscale>  0 0.14913751E+02</rscale>
<asrwt>0</asrwt>
<pdfrwt beam="2">  1        2 0.98503581E+00 0.14913751E+02</pdfrwt>
<pdfrwt beam="1">  1       -2 0.99523615E+00 0.14913751E+02</pdfrwt>
<totfact>-0.34259392E-13</totfact>
</mgrwt>
</event>
<event>
 4    1 -0.4882314E-019  0.1493778E+02  0.7818608E-02  0.1869973E+00
          2   -1    0    0  501    0  0.00000000000E+00  0.00000000000E+00  0.11936481804E+03  0.11936481806E+03  0.25500000000E-02 0.  1.
         -2   -1    0    0    0  501 -0.00000000000E+00 -0.00000000000E+00 -0.46733950798E+00  0.46734646487E+00  0.25500000000E-02 0. -1.
         31    1    1    2    0    0 -0.53007645340E+00  0.12416714460E+00  0.58082881238E+02  0.58560877875E+02  0.74470750000E+01 0. -1.
        -31    1    1    2    0    0  0.53007645340E+00 -0.12416714460E+00  0.60814597291E+02  0.61271286654E+02  0.74470750000E+01 0.  1.
<mgrwt>
<rscale>  0 0.14937779E+02</rscale>
<asrwt>0</asrwt>
<pdfrwt beam="1">  1        2 0.99085618E+00 0.14937779E+02</pdfrwt>
<pdfrwt beam="2">  1       -2 0.99258075E+00 0.14937779E+02</pdfrwt>
<totfact>-0.13119138E-13</totfact>
</mgrwt>
</event>
<event>
 4    1  0.4882314E-019  0.1493762E+02  0.7818608E-02  0.1869978E+00
          2   -1    0    0  501    0  0.00000000000E+00  0.00000000000E+00  0.12023521308E+03  0.12023521311E+03  0.25500000000E-02 0. -1.
         -2   -1    0    0    0  501 -0.00000000000E+00 -0.00000000000E+00 -0.46394639440E+00  0.46395340216E+00  0.25500000000E-02 0.  1.
         31    1    1    2    0    0 -0.16344878734E+00 -0.32398887288E+00  0.56340382007E+02  0.56831586772E+02  0.74470750000E+01 0. -1.
        -31    1    1    2    0    0  0.16344878734E+00  0.32398887288E+00  0.63430884679E+02  0.63867579737E+02  0.74470750000E+01 0. -1.
<mgrwt>
<rscale>  0 0.14937619E+02</rscale>
<asrwt>0</asrwt>
<pdfrwt beam="1">  1        2 0.99802516E+00 0.14937619E+02</pdfrwt>
<pdfrwt beam="2">  1       -2 0.98542976E+00 0.14937619E+02</pdfrwt>
<totfact> 0.23252941E-13</totfact>
</mgrwt>
</event>
<event>
 4    1 -0.4882314E-019  0.1500945E+02  0.7818608E-02  0.1867780E+00
         -2   -1    0    0    0  501 -0.00000000000E+00  0.00000000000E+00  0.12024779296E+03  0.12024779299E+03  0.25500000000E-02 0. -1.
          2   -1    0    0  501    0  0.00000000000E+00 -0.00000000000E+00 -0.46837021682E+00  0.46837715839E+00  0.25500000000E-02 0.  1.
         31    1    1    2    0    0  0.70389908033E+00 -0.13509599199E+00  0.55143478376E+02  0.55648682449E+02  0.74470750000E+01 0. -1.
        -31    1    1    2    0    0 -0.70389908033E+00  0.13509599199E+00  0.64635944368E+02  0.65067487698E+02  0.74470750000E+01 0. -1.
<mgrwt>
<rscale>  0 0.15009451E+02</rscale>
<asrwt>0</asrwt>
<pdfrwt beam="2">  1        2 0.99478983E+00 0.15009451E+02</pdfrwt>
<pdfrwt beam="1">  1       -2 0.99816576E+00 0.15009451E+02</pdfrwt>
<totfact>-0.67501557E-14</totfact>
</mgrwt>
</event>
<event>
 4    1 -0.4882314E-019  0.1493866E+02  0.7818608E-02  0.1869946E+00
         -2   -1    0    0    0  501 -0.00000000000E+00  0.00000000000E+00  0.12002448090E+03  0.12002448093E+03  0.25500000000E-02 0.  1.
          2   -1    0    0  501    0  0.00000000000E+00 -0.00000000000E+00 -0.46482582185E+00  0.46483281635E+00  0.25500000000E-02 0. -1.
         31    1    1    2    0    0  0.81893144960E-02 -0.38913201646E+00  0.56353283067E+02  0.56844550568E+02  0.74470750000E+01 0. -1.
        -31    1    1    2    0    0 -0.81893144960E-02  0.38913201646E+00  0.63206372010E+02  0.63644763174E+02  0.74470750000E+01 0.  1.
<mgrwt>
<rscale>  0 0.14938661E+02</rscale>
<asrwt>0</asrwt>
<pdfrwt beam="2">  1        2 0.98728378E+00 0.14938661E+02</pdfrwt>
<pdfrwt beam="1">  1       -2 0.99628995E+00 0.14938661E+02</pdfrwt>
<totfact>-0.22248167E-13</totfact>
</mgrwt>
</event>
<event>
 4    1  0.4882314E-019  0.1490136E+02  0.7818608E-02  0.1871094E+00
          2   -1    0    0  501    0  0.00000000000E+00  0.00000000000E+00  0.11959508829E+03  0.11959508832E+03  0.25500000000E-02 0.  1.
         -2   -1    0    0    0  501 -0.00000000000E+00 -0.00000000000E+00 -0.46416769219E+00  0.46417469661E+00  0.25500000000E-02 0. -1.
         31    1    1    2    0    0  0.21941417970E+00  0.28750147285E-01  0.60117993612E+02  0.60577892429E+02  0.74470750000E+01 0.  1.
        -31    1    1    2    0    0 -0.21941417970E+00 -0.28750147285E-01  0.59012926984E+02  0.59481370583E+02  0.74470750000E+01 0. -1.
<mgrwt>
<rscale>  0 0.14901355E+02</rscale>
<asrwt>0</asrwt>
<pdfrwt beam="1">  1        2 0.99273399E+00 0.14901355E+02</pdfrwt>
<pdfrwt beam="2">  1       -2 0.98587769E+00 0.14901355E+02</pdfrwt>
<totfact> 0.44699185E-13</totfact>
</mgrwt>
</event>
<event>
 4    1  0.4882314E-019  0.1494397E+02  0.7818608E-02  0.1869783E+00
          2   -1    0    0  501    0  0.00000000000E+00  0.00000000000E+00  0.12034806403E+03  0.12034806406E+03  0.25500000000E-02 0.  1.
         -2   -1    0    0    0  501 -0.00000000000E+00 -0.00000000000E+00 -0.46390551225E+00  0.46391252063E+00  0.25500000000E-02 0. -1.
         31    1    1    2    0    0  0.23452745698E+00 -0.54213766092E+00  0.58723707554E+02  0.59196973498E+02  0.74470750000E+01 0. -1.
        -31    1    1    2    0    0 -0.23452745698E+00  0.54213766092E+00  0.61160450967E+02  0.61615003083E+02  0.74470750000E+01 0. -1.
<mgrwt>
<rscale>  0 0.14943969E+02</rscale>
<asrwt>0</asrwt>
<pdfrwt beam="1">  1        2 0.99895795E+00 0.14943969E+02</pdfrwt>
<pdfrwt beam="2">  1       -2 0.98534681E+00 0.14943969E+02</pdfrwt>
<totfact> 0.13949359E-13</totfact>
</mgrwt>
</event>
<event>
 4    1 -0.4882314E-019  0.1499835E+02  0.7818608E-02  0.1868119E+00
          2   -1    0    0  501    0  0.00000000000E+00  0.00000000000E+00  0.12005144084E+03  0.12005144087E+03  0.25500000000E-02 0.  1.
         -2   -1    0    0    0  501 -0.00000000000E+00 -0.00000000000E+00 -0.46844269370E+00  0.46844963420E+00  0.25500000000E-02 0. -1.
         31    1    1    2    0    0  0.26513654308E+00  0.83790549406E+00  0.59152123537E+02  0.59625540065E+02  0.74470750000E+01 0. -1.
        -31    1    1    2    0    0 -0.26513654308E+00 -0.83790549406E+00  0.60430874607E+02  0.60894350435E+02  0.74470750000E+01 0.  1.
<mgrwt>
<rscale>  0 0.14998352E+02</rscale>
<asrwt>0</asrwt>
<pdfrwt beam="1">  1        2 0.99654278E+00 0.14998352E+02</pdfrwt>
<pdfrwt beam="2">  1       -2 0.99493685E+00 0.14998352E+02</pdfrwt>
<totfact>-0.96697241E-14</totfact>
</mgrwt>
</event>
<event>
 4    1 -0.4882314E-019  0.1499570E+02  0.7818608E-02  0.1868200E+00
          2   -1    0    0  501    0  0.00000000000E+00  0.00000000000E+00  0.12009113935E+03  0.12009113938E+03  0.25500000000E-02 0. -1.
         -2   -1    0    0    0  501 -0.00000000000E+00 -0.00000000000E+00 -0.46812200486E+00  0.46812895012E+00  0.25500000000E-02 0.  1.
         31    1    1    2    0    0  0.65833965877E+00 -0.42495294418E+00  0.62870813947E+02  0.63315181186E+02  0.74470750000E+01 0. -1.
        -31    1    1    2    0    0 -0.65833965877E+00  0.42495294418E+00  0.56752203398E+02  0.57244087142E+02  0.74470750000E+01 0. -1.
<mgrwt>
<rscale>  0 0.14995696E+02</rscale>
<asrwt>0</asrwt>
<pdfrwt beam="1">  1        2 0.99686838E+00 0.14995696E+02</pdfrwt>
<pdfrwt beam="2">  1       -2 0.99425967E+00 0.14995696E+02</pdfrwt>
<totfact>-0.89921106E-14</totfact>
</mgrwt>
</event>
<event>
 4    1 -0.4882314E-019  0.1497641E+02  0.7818608E-02  0.1868789E+00
          2   -1    0    0  501    0  0.00000000000E+00  0.00000000000E+00  0.11972391556E+03  0.11972391559E+03  0.25500000000E-02 0. -1.
         -2   -1    0    0    0  501 -0.00000000000E+00 -0.00000000000E+00 -0.46835097676E+00  0.46835791861E+00  0.25500000000E-02 0.  1.
         31    1    1    2    0    0 -0.62023777084E+00  0.20971483862E+00  0.63085529548E+02  0.63526936331E+02  0.74470750000E+01 0.  1.
        -31    1    1    2    0    0  0.62023777084E+00 -0.20971483862E+00  0.56170035036E+02  0.56665337175E+02  0.74470750000E+01 0.  1.
<mgrwt>
<rscale>  0 0.14976412E+02</rscale>
<asrwt>0</asrwt>
<pdfrwt beam="1">  1        2 0.99383381E+00 0.14976412E+02</pdfrwt>
<pdfrwt beam="2">  1       -2 0.99473224E+00 0.14976412E+02</pdfrwt>
<totfact>-0.13268808E-13</totfact>
</mgrwt>
</event>
<event>
 4    1 -0.4882314E-019  0.1490194E+02  0.7818608E-02  0.1871076E+00
         -2   -1    0    0    0  501 -0.00000000000E+00  0.00000000000E+00  0.11994918122E+03  0.11994918124E+03  0.25500000000E-02 0.  1.
          2   -1    0    0  501    0  0.00000000000E+00 -0.00000000000E+00 -0.46283380645E+00  0.46284083105E+00  0.25500000000E-02 0. -1.
         31    1    1    2    0    0 -0.43194181516E-01 -0.20812502564E+00  0.60659239945E+02  0.61115034963E+02  0.74470750000E+01 0.  1.
        -31    1    1    2    0    0  0.43194181516E-01  0.20812502564E+00  0.58827107465E+02  0.59296987111E+02  0.74470750000E+01 0. -1.
<mgrwt>
<rscale>  0 0.14901941E+02</rscale>
<asrwt>0</asrwt>
<pdfrwt beam="2">  1        2 0.98306671E+00 0.14901941E+02</pdfrwt>
<pdfrwt beam="1">  1       -2 0.99565085E+00 0.14901941E+02</pdfrwt>
<totfact>-0.46392163E-13</totfact>
</mgrwt>
</event>
<event>
 4    1 -0.4882314E-019  0.1491197E+02  0.7818608E-02  0.1870767E+00
         -2   -1    0    0    0  501 -0.00000000000E+00  0.00000000000E+00  0.12015073484E+03  0.12015073486E+03  0.25500000000E-02 0.  1.
          2   -1    0    0  501    0  0.00000000000E+00 -0.00000000000E+00 -0.46267960508E+00  0.46268663202E+00  0.25500000000E-02 0. -1.
         31    1    1    2    0    0 -0.68581419934E-01  0.22359790612E+00  0.57583703635E+02  0.58063728349E+02  0.74470750000E+01 0. -1.
        -31    1    1    2    0    0  0.68581419934E-01 -0.22359790612E+00  0.62104351597E+02  0.62549693147E+02  0.74470750000E+01 0.  1.
<mgrwt>
<rscale>  0 0.14911971E+02</rscale>
<asrwt>0</asrwt>
<pdfrwt beam="2">  1        2 0.98274678E+00 0.14911971E+02</pdfrwt>
<pdfrwt beam="1">  1       -2 0.99731616E+00 0.14911971E+02</pdfrwt>
<totfact>-0.37540278E-13</totfact>
</mgrwt>
</event>
<event>
 4    1 -0.4882314E-019  0.1503541E+02  0.7818608E-02  0.1866990E+00
          2   -1    0    0  501    0  0.00000000000E+00  0.00000000000E+00  0.12021237934E+03  0.12021237936E+03  0.25500000000E-02 0.  1.
         -2   -1    0    0    0  501 -0.00000000000E+00 -0.00000000000E+00 -0.47013029079E+00  0.47013720637E+00  0.25500000000E-02 0. -1.
         31    1    1    2    0    0  0.55030404934E+00  0.55266358979E+00  0.65247729219E+02  0.65675972516E+02  0.74470750000E+01 0. -1.
        -31    1    1    2    0    0 -0.55030404934E+00 -0.55266358979E+00  0.54494519827E+02  0.55006544054E+02  0.74470750000E+01 0. -1.
<mgrwt>
<rscale>  0 0.15035412E+02</rscale>
<asrwt>0</asrwt>
<pdfrwt beam="1">  1        2 0.99788748E+00 0.15035412E+02</pdfrwt>
<pdfrwt beam="2">  1       -2 0.99851236E+00 0.15035412E+02</pdfrwt>
<totfact>-0.31707129E-14</totfact>
</mgrwt>
</event>
<event>
 4    1  0.4882314E-019  0.1490321E+02  0.7818608E-02  0.1871037E+00
          2   -1    0    0  501    0  0.00000000000E+00  0.00000000000E+00  0.12024671803E+03  0.12024671806E+03  0.25500000000E-02 0. -1.
         -2   -1    0    0    0  501 -0.00000000000E+00 -0.00000000000E+00 -0.46176713046E+00  0.46177417129E+00  0.25500000000E-02 0.  1.
         31    1    1    2    0    0  0.12278354615E+00  0.21653749759E+00  0.59290809461E+02  0.59757183476E+02  0.74470750000E+01 0. -1.
        -31    1    1    2    0    0 -0.12278354615E+00 -0.21653749759E+00  0.60494141443E+02  0.60951308757E+02  0.74470750000E+01 0. -1.
<mgrwt>
<rscale>  0 0.14903209E+02</rscale>
<asrwt>0</asrwt>
<pdfrwt beam="1">  1        2 0.99810227E+00 0.14903209E+02</pdfrwt>
<pdfrwt beam="2">  1       -2 0.98081910E+00 0.14903209E+02</pdfrwt>
<totfact> 0.64656722E-13</totfact>
</mgrwt>
</event>
<event>
 4    1  0.4882314E-019  0.1492584E+02  0.7818608E-02  0.1870340E+00
         -2   -1    0    0    0  501 -0.00000000000E+00  0.00000000000E+00  0.11851818054E+03  0.11851818057E+03  0.25500000000E-02 0. -1.
          2   -1    0    0  501    0  0.00000000000E+00 -0.00000000000E+00 -0.46992586162E+00  0.46993278022E+00  0.25500000000E-02 0.  1.
         31    1    1    2    0    0 -0.27807504175E+00  0.32854756814E+00  0.60824025649E+02  0.61279738017E+02  0.74470750000E+01 0. -1.
        -31    1    1    2    0    0  0.27807504175E+00 -0.32854756814E+00  0.57224229028E+02  0.57708375330E+02  0.74470750000E+01 0. -1.
<mgrwt>
<rscale>  0 0.14925840E+02</rscale>
<asrwt>0</asrwt>
<pdfrwt beam="2">  1        2 0.99802432E+00 0.14925840E+02</pdfrwt>
<pdfrwt beam="1">  1       -2 0.98387697E+00 0.14925840E+02</pdfrwt>
<totfact> 0.35382837E-13</totfact>
</mgrwt>
</event>
<event>
 4    1  0.4882314E-019  0.1495161E+02  0.7818608E-02  0.1869549E+00
          2   -1    0    0  501    0  0.00000000000E+00  0.00000000000E+00  0.12008615377E+03  0.12008615379E+03  0.25500000000E-02 0. -1.
         -2   -1    0    0    0  501 -0.00000000000E+00 -0.00000000000E+00 -0.46539259015E+00  0.46539957614E+00  0.25500000000E-02 0.  1.
         31    1    1    2    0    0 -0.33130281942E+00 -0.50030936334E+00  0.57698119349E+02  0.58179824454E+02  0.74470750000E+01 0. -1.
        -31    1    1    2    0    0  0.33130281942E+00  0.50030936334E+00  0.61922641828E+02  0.62371728917E+02  0.74470750000E+01 0. -1.
<mgrwt>
<rscale>  0 0.14951606E+02</rscale>
<asrwt>0</asrwt>
<pdfrwt beam="1">  1        2 0.99680459E+00 0.14951606E+02</pdfrwt>
<pdfrwt beam="2">  1       -2 0.98848488E+00 0.14951606E+02</pdfrwt>
<totfact> 0.85600474E-14</totfact>
</mgrwt>
</event>
<event>
 4    1 -0.4882314E-019  0.1491849E+02  0.7818608E-02  0.1870566E+00
          2   -1    0    0  501    0  0.00000000000E+00  0.00000000000E+00  0.11909434891E+03  0.11909434894E+03  0.25500000000E-02 0. -1.
         -2   -1    0    0    0  501 -0.00000000000E+00 -0.00000000000E+00 -0.46719176605E+00  0.46719872513E+00  0.25500000000E-02 0.  1.
         31    1    1    2    0    0 -0.38008977824E+00 -0.17858470508E+00  0.59881977122E+02  0.60344730266E+02  0.74470750000E+01 0. -1.
        -31    1    1    2    0    0  0.38008977824E+00  0.17858470508E+00  0.58745180020E+02  0.59216817395E+02  0.74470750000E+01 0.  1.
<mgrwt>
<rscale>  0 0.14918487E+02</rscale>
<asrwt>0</asrwt>
<pdfrwt beam="1">  1        2 0.98861853E+00 0.14918487E+02</pdfrwt>
<pdfrwt beam="2">  1       -2 0.99225940E+00 0.14918487E+02</pdfrwt>
<totfact>-0.14981551E-13</totfact>
</mgrwt>
</event>
<event>
 4    1  0.4882314E-019  0.1492934E+02  0.7818608E-02  0.1870232E+00
         -2   -1    0    0    0  501 -0.00000000000E+00  0.00000000000E+00  0.11858460819E+03  0.11858460821E+03  0.25500000000E-02 0. -1.
          2   -1    0    0  501    0  0.00000000000E+00 -0.00000000000E+00 -0.46988323851E+00  0.46989015773E+00  0.25500000000E-02 0.  1.
         31    1    1    2    0    0 -0.30250367404E+00 -0.38217843940E+00  0.57800561509E+02  0.58280368956E+02  0.74470750000E+01 0. -1.
        -31    1    1    2    0    0  0.30250367404E+00  0.38217843940E+00  0.60314163439E+02  0.60774129415E+02  0.74470750000E+01 0.  1.
<mgrwt>
<rscale>  0 0.14929345E+02</rscale>
<asrwt>0</asrwt>
<pdfrwt beam="2">  1        2 0.99793636E+00 0.14929345E+02</pdfrwt>
<pdfrwt beam="1">  1       -2 0.98442589E+00 0.14929345E+02</pdfrwt>
<totfact> 0.31881208E-13</totfact>
</mgrwt>
</event>
<event>
 4    1  0.4882314E-019  0.1491564E+02  0.7818608E-02  0.1870654E+00
          2   -1    0    0  501    0  0.00000000000E+00  0.00000000000E+00  0.12020226714E+03  0.12020226717E+03  0.25500000000E-02 0. -1.
         -2   -1    0    0    0  501 -0.00000000000E+00 -0.00000000000E+00 -0.46270881802E+00  0.46271584452E+00  0.25500000000E-02 0.  1.
         31    1    1    2    0    0 -0.17144341332E-01  0.31683807426E+00  0.61842572692E+02  0.62290154949E+02  0.74470750000E+01 0. -1.
        -31    1    1    2    0    0  0.17144341332E-01 -0.31683807426E+00  0.57896985630E+02  0.58374828063E+02  0.74470750000E+01 0.  1.
<mgrwt>
<rscale>  0 0.14915639E+02</rscale>
<asrwt>0</asrwt>
<pdfrwt beam="1">  1        2 0.99774250E+00 0.14915639E+02</pdfrwt>
<pdfrwt beam="2">  1       -2 0.98281021E+00 0.14915639E+02</pdfrwt>
<totfact> 0.50009584E-13</totfact>
</mgrwt>
</event>
<event>
 4    1 -0.4882314E-019  0.1495009E+02  0.7818608E-02  0.1869595E+00
          2   -1    0    0  501    0  0.00000000000E+00  0.00000000000E+00  0.11922948253E+03  0.11922948256E+03  0.25500000000E-02 0. -1.
         -2   -1    0    0    0  501 -0.00000000000E+00 -0.00000000000E+00 -0.46864125123E+00  0.46864818879E+00  0.25500000000E-02 0.  1.
         31    1    1    2    0    0 -0.11143469012E+00 -0.42565993848E+00  0.63167601564E+02  0.63606590991E+02  0.74470750000E+01 0. -1.
        -31    1    1    2    0    0  0.11143469012E+00  0.42565993848E+00  0.55593239718E+02  0.56091539759E+02  0.74470750000E+01 0.  1.
<mgrwt>
<rscale>  0 0.14950086E+02</rscale>
<asrwt>0</asrwt>
<pdfrwt beam="1">  1        2 0.98974789E+00 0.14950086E+02</pdfrwt>
<pdfrwt beam="2">  1       -2 0.99533025E+00 0.14950086E+02</pdfrwt>
<totfact>-0.18089107E-13</totfact>
</mgrwt>
</event>
<event>
 4    1 -0.4882314E-019  0.1492246E+02  0.7818608E-02  0.1870444E+00
          2   -1    0    0  501    0  0.00000000000E+00  0.00000000000E+00  0.11886883378E+03  0.11886883380E+03  0.25500000000E-02 0. -1.
         -2   -1    0    0    0  501 -0.00000000000E+00 -0.00000000000E+00 -0.46832731255E+00  0.46833425476E+00  0.25500000000E-02 0.  1.
         31    1    1    2    0    0 -0.40973272776E+00  0.16669854659E-01  0.57544775409E+02  0.58026099832E+02  0.74470750000E+01 0.  1.
        -31    1    1    2    0    0  0.40973272776E+00 -0.16669854659E-01  0.60855731054E+02  0.61311068226E+02  0.74470750000E+01 0. -1.
<mgrwt>
<rscale>  0 0.14922458E+02</rscale>
<asrwt>0</asrwt>
<pdfrwt beam="1">  1        2 0.98676320E+00 0.14922458E+02</pdfrwt>
<pdfrwt beam="2">  1       -2 0.99465429E+00 0.14922458E+02</pdfrwt>
<totfact>-0.26497289E-13</totfact>
</mgrwt>
</event>
<event>
 4    1 -0.4882314E-019  0.1490304E+02  0.7818608E-02  0.1871042E+00
          2   -1    0    0  501    0  0.00000000000E+00  0.00000000000E+00  0.11849279699E+03  0.11849279702E+03  0.25500000000E-02 0. -1.
         -2   -1    0    0    0  501 -0.00000000000E+00 -0.00000000000E+00 -0.46859139021E+00  0.46859832851E+00  0.25500000000E-02 0.  1.
         31    1    1    2    0    0  0.64810019893E-01 -0.22221635216E+00  0.59908557610E+02  0.60370090123E+02  0.74470750000E+01 0. -1.
        -31    1    1    2    0    0 -0.64810019893E-01  0.22221635216E+00  0.58115647990E+02  0.58591305223E+02  0.74470750000E+01 0.  1.
<mgrwt>
<rscale>  0 0.14903036E+02</rscale>
<asrwt>0</asrwt>
<pdfrwt beam="1">  1        2 0.98365605E+00 0.14903036E+02</pdfrwt>
<pdfrwt beam="2">  1       -2 0.99520054E+00 0.14903036E+02</pdfrwt>
<totfact>-0.43097607E-13</totfact>
</mgrwt>
</event>
<event>
 4    1 -0.4882314E-019  0.1493306E+02  0.7818608E-02  0.1870118E+00
         -2   -1    0    0    0  501 -0.00000000000E+00  0.00000000000E+00  0.12012350282E+03  0.12012350285E+03  0.25500000000E-02 0. -1.
          2   -1    0    0  501    0  0.00000000000E+00 -0.00000000000E+00 -0.46409411566E+00  0.46410112119E+00  0.25500000000E-02 0.  1.
         31    1    1    2    0    0  0.44741667037E-02 -0.53468516685E+00  0.60353071113E+02  0.60813140250E+02  0.74470750000E+01 0. -1.
        -31    1    1    2    0    0 -0.44741667037E-02  0.53468516685E+00  0.59306337592E+02  0.59774463719E+02  0.74470750000E+01 0.  1.
<mgrwt>
<rscale>  0 0.14933055E+02</rscale>
<asrwt>0</asrwt>
<pdfrwt beam="2">  1        2 0.98573878E+00 0.14933055E+02</pdfrwt>
<pdfrwt beam="1">  1       -2 0.99710268E+00 0.14933055E+02</pdfrwt>
<totfact>-0.24157578E-13</totfact>
</mgrwt>
</event>
<event>
 4    1  0.4882314E-019  0.1491774E+02  0.7818608E-02  0.1870589E+00
         -2   -1    0    0    0  501 -0.00000000000E+00  0.00000000000E+00  0.11847410218E+03  0.11847410220E+03  0.25500000000E-02 0. -1.
          2   -1    0    0  501    0  0.00000000000E+00 -0.00000000000E+00 -0.46959084341E+00  0.46959776694E+00  0.25500000000E-02 0.  1.
         31    1    1    2    0    0 -0.13387149520E+00  0.28929916000E+00  0.61174528311E+02  0.61626970197E+02  0.74470750000E+01 0.  1.
        -31    1    1    2    0    0  0.13387149520E+00 -0.28929916000E+00  0.56829983022E+02  0.57316729773E+02  0.74470750000E+01 0. -1.
<mgrwt>
<rscale>  0 0.14917743E+02</rscale>
<asrwt>0</asrwt>
<pdfrwt beam="2">  1        2 0.99731416E+00 0.14917743E+02</pdfrwt>
<pdfrwt beam="1">  1       -2 0.98350973E+00 0.14917743E+02</pdfrwt>
<totfact> 0.48540017E-13</totfact>
</mgrwt>
</event>
<event>
 4    1 -0.4882314E-019  0.1497230E+02  0.7818608E-02  0.1868915E+00
          2   -1    0    0  501    0  0.00000000000E+00  0.00000000000E+00  0.11928351652E+03  0.11928351654E+03  0.25500000000E-02 0.  1.
         -2   -1    0    0    0  501 -0.00000000000E+00 -0.00000000000E+00 -0.46982208276E+00  0.46982900288E+00  0.25500000000E-02 0. -1.
         31    1    1    2    0    0  0.25835906489E+00 -0.62242244009E+00  0.62283588442E+02  0.62730841492E+02  0.74470750000E+01 0.  1.
        -31    1    1    2    0    0 -0.25835906489E+00  0.62242244009E+00  0.56530105991E+02  0.57022504053E+02  0.74470750000E+01 0. -1.
<mgrwt>
<rscale>  0 0.14972301E+02</rscale>
<asrwt>0</asrwt>
<pdfrwt beam="1">  1        2 0.99020445E+00 0.14972301E+02</pdfrwt>
<pdfrwt beam="2">  1       -2 0.99783007E+00 0.14972301E+02</pdfrwt>
<totfact>-0.11108851E-13</totfact>
</mgrwt>
</event>
<event>
 4    1  0.4882314E-019  0.1491464E+02  0.7818608E-02  0.1870684E+00
         -2   -1    0    0    0  501 -0.00000000000E+00  0.00000000000E+00  0.11852610156E+03  0.11852610158E+03  0.25500000000E-02 0. -1.
          2   -1    0    0  501    0  0.00000000000E+00 -0.00000000000E+00 -0.46918976459E+00  0.46919669404E+00  0.25500000000E-02 0.  1.
         31    1    1    2    0    0  0.14895621819E+00  0.65290470978E-02  0.61910543303E+02  0.62357008657E+02  0.74470750000E+01 0. -1.
        -31    1    1    2    0    0 -0.14895621819E+00 -0.65290470978E-02  0.56146368489E+02  0.56638289621E+02  0.74470750000E+01 0.  1.
<mgrwt>
<rscale>  0 0.14914643E+02</rscale>
<asrwt>0</asrwt>
<pdfrwt beam="2">  1        2 0.99646745E+00 0.14914643E+02</pdfrwt>
<pdfrwt beam="1">  1       -2 0.98393638E+00 0.14914643E+02</pdfrwt>
<totfact> 0.52620824E-13</totfact>
</mgrwt>
</event>
<event>
 4    1  0.4882314E-019  0.1494782E+02  0.7818608E-02  0.1869665E+00
         -2   -1    0    0    0  501 -0.00000000000E+00  0.00000000000E+00  0.11901229470E+03  0.11901229473E+03  0.25500000000E-02 0. -1.
          2   -1    0    0  501    0  0.00000000000E+00 -0.00000000000E+00 -0.46935416234E+00  0.46936108936E+00  0.25500000000E-02 0.  1.
         31    1    1    2    0    0 -0.63235137970E+00 -0.13879304033E-01  0.59123134122E+02  0.59593657174E+02  0.74470750000E+01 0.  1.
        -31    1    1    2    0    0  0.63235137970E+00  0.13879304033E-01  0.59419806417E+02  0.59887998644E+02  0.74470750000E+01 0.  1.
<mgrwt>
<rscale>  0 0.14947820E+02</rscale>
<asrwt>0</asrwt>
<pdfrwt beam="2">  1        2 0.99683128E+00 0.14947820E+02</pdfrwt>
<pdfrwt beam="1">  1       -2 0.98795793E+00 0.14947820E+02</pdfrwt>
<totfact> 0.11865210E-13</totfact>
</mgrwt>
</event>
<event>
 4    1  0.4882314E-019  0.1490379E+02  0.7818608E-02  0.1871019E+00
         -2   -1    0    0    0  501 -0.00000000000E+00  0.00000000000E+00  0.11815725464E+03  0.11815725467E+03  0.25500000000E-02 0.  1.
          2   -1    0    0  501    0  0.00000000000E+00 -0.00000000000E+00 -0.46996986058E+00  0.46997677853E+00  0.25500000000E-02 0. -1.
         31    1    1    2    0    0  0.49518618802E-01  0.18038412259E+00  0.60371455381E+02  0.60829323039E+02  0.74470750000E+01 0.  1.
        -31    1    1    2    0    0 -0.49518618802E-01 -0.18038412259E+00  0.57315829396E+02  0.57797908405E+02  0.74470750000E+01 0. -1.
<mgrwt>
<rscale>  0 0.14903793E+02</rscale>
<asrwt>0</asrwt>
<pdfrwt beam="2">  1        2 0.99810535E+00 0.14903793E+02</pdfrwt>
<pdfrwt beam="1">  1       -2 0.98089295E+00 0.14903793E+02</pdfrwt>
<totfact> 0.63720550E-13</totfact>
</mgrwt>
</event>
<event>
 4    1  0.4882314E-019  0.1491895E+02  0.7818608E-02  0.1870552E+00
         -2   -1    0    0    0  501 -0.00000000000E+00  0.00000000000E+00  0.11852434512E+03  0.11852434515E+03  0.25500000000E-02 0. -1.
          2   -1    0    0  501    0  0.00000000000E+00 -0.00000000000E+00 -0.46946766851E+00  0.46947459385E+00  0.25500000000E-02 0.  1.
         31    1    1    2    0    0  0.37100247653E+00  0.20096113312E+00  0.58369363395E+02  0.58844027202E+02  0.74470750000E+01 0.  1.
        -31    1    1    2    0    0 -0.37100247653E+00 -0.20096113312E+00  0.59685514055E+02  0.60149792538E+02  0.74470750000E+01 0. -1.
<mgrwt>
<rscale>  0 0.14918949E+02</rscale>
<asrwt>0</asrwt>
<pdfrwt beam="2">  1        2 0.99705527E+00 0.14918949E+02</pdfrwt>
<pdfrwt beam="1">  1       -2 0.98392416E+00 0.14918949E+02</pdfrwt>
<totfact> 0.46871800E-13</totfact>
</mgrwt>
</event>
<event>
 4    1  0.4882314E-019  0.1489938E+02  0.7818608E-02  0.1871155E+00
          2   -1    0    0  501    0  0.00000000000E+00  0.00000000000E+00  0.11978040967E+03  0.11978040970E+03  0.25500000000E-02 0. -1.
         -2   -1    0    0    0  501 -0.00000000000E+00 -0.00000000000E+00 -0.46332670244E+00  0.46333371958E+00  0.25500000000E-02 0.  1.
         31    1    1    2    0    0 -0.26753857876E-01 -0.11193794642E+00  0.60952670426E+02  0.61406027424E+02  0.74470750000E+01 0. -1.
        -31    1    1    2    0    0  0.26753857876E-01  0.11193794642E+00  0.58364412543E+02  0.58837715994E+02  0.74470750000E+01 0.  1.
<mgrwt>
<rscale>  0 0.14899381E+02</rscale>
<asrwt>0</asrwt>
<pdfrwt beam="1">  1        2 0.99425940E+00 0.14899381E+02</pdfrwt>
<pdfrwt beam="2">  1       -2 0.98410425E+00 0.14899381E+02</pdfrwt>
<totfact> 0.65902863E-13</totfact>
</mgrwt>
</event>
<event>
 4    1  0.4882314E-019  0.1490509E+02  0.7818608E-02  0.1870979E+00
         -2   -1    0    0    0  501 -0.00000000000E+00  0.00000000000E+00  0.11813331374E+03  0.11813331376E+03  0.25500000000E-02 0. -1.
          2   -1    0    0  501    0  0.00000000000E+00 -0.00000000000E+00 -0.47014711129E+00  0.47015402662E+00  0.25500000000E-02 0.  1.
         31    1    1    2    0    0 -0.21715275801E+00  0.18514454979E+00  0.58906246938E+02  0.59375805580E+02  0.74470750000E+01 0. -1.
        -31    1    1    2    0    0  0.21715275801E+00 -0.18514454979E+00  0.58756919686E+02  0.59227662210E+02  0.74470750000E+01 0. -1.
<mgrwt>
<rscale>  0 0.14905093E+02</rscale>
<asrwt>0</asrwt>
<pdfrwt beam="2">  1        2 0.99847949E+00 0.14905093E+02</pdfrwt>
<pdfrwt beam="1">  1       -2 0.98069645E+00 0.14905093E+02</pdfrwt>
<totfact> 0.55212796E-13</totfact>
</mgrwt>
</event>
<event>
 4    1 -0.4882314E-019  0.1490969E+02  0.7818608E-02  0.1870837E+00
         -2   -1    0    0    0  501 -0.00000000000E+00  0.00000000000E+00  0.11989615944E+03  0.11989615946E+03  0.25500000000E-02 0. -1.
          2   -1    0    0  501    0  0.00000000000E+00 -0.00000000000E+00 -0.46352034888E+00  0.46352736308E+00  0.25500000000E-02 0.  1.
         31    1    1    2    0    0  0.27928901966E+00 -0.38325132910E-01  0.58177520452E+02  0.58652896631E+02  0.74470750000E+01 0.  1.
        -31    1    1    2    0    0 -0.27928901966E+00  0.38325132910E-01  0.61255118634E+02  0.61706790195E+02  0.74470750000E+01 0. -1.
<mgrwt>
<rscale>  0 0.14909693E+02</rscale>
<asrwt>0</asrwt>
<pdfrwt beam="2">  1        2 0.98451763E+00 0.14909693E+02</pdfrwt>
<pdfrwt beam="1">  1       -2 0.99521810E+00 0.14909693E+02</pdfrwt>
<totfact>-0.37312207E-13</totfact>
</mgrwt>
</event>
<event>
 4    1  0.4882314E-019  0.1492032E+02  0.7818608E-02  0.1870510E+00
          2   -1    0    0  501    0  0.00000000000E+00  0.00000000000E+00  0.11971702790E+03  0.11971702792E+03  0.25500000000E-02 0.  1.
         -2   -1    0    0    0  501 -0.00000000000E+00 -0.00000000000E+00 -0.46487579894E+00  0.46488279269E+00  0.25500000000E-02 0. -1.
         31    1    1    2    0    0  0.37639933299E+00  0.22779324461E+00  0.59935809061E+02  0.60398292195E+02  0.74470750000E+01 0. -1.
        -31    1    1    2    0    0 -0.37639933299E+00 -0.22779324461E+00  0.59316343037E+02  0.59783618522E+02  0.74470750000E+01 0. -1.
<mgrwt>
<rscale>  0 0.14920318E+02</rscale>
<asrwt>0</asrwt>
<pdfrwt beam="1">  1        2 0.99374812E+00 0.14920318E+02</pdfrwt>
<pdfrwt beam="2">  1       -2 0.98737973E+00 0.14920318E+02</pdfrwt>
<totfact> 0.23232100E-13</totfact>
</mgrwt>
</event>
<event>
 4    1  0.4882314E-019  0.1492193E+02  0.7818608E-02  0.1870460E+00
         -2   -1    0    0    0  501 -0.00000000000E+00  0.00000000000E+00  0.11843246474E+03  0.11843246476E+03  0.25500000000E-02 0. -1.
          2   -1    0    0  501    0  0.00000000000E+00 -0.00000000000E+00 -0.47001970620E+00  0.47002662341E+00  0.25500000000E-02 0.  1.
         31    1    1    2    0    0  0.92475827032E-01  0.14023195451E+00  0.55611257805E+02  0.56107924017E+02  0.74470750000E+01 0.  1.
        -31    1    1    2    0    0 -0.92475827032E-01 -0.14023195451E+00  0.62351187224E+02  0.62794567369E+02  0.74470750000E+01 0. -1.
<mgrwt>
<rscale>  0 0.14921931E+02</rscale>
<asrwt>0</asrwt>
<pdfrwt beam="2">  1        2 0.99821998E+00 0.14921931E+02</pdfrwt>
<pdfrwt beam="1">  1       -2 0.98316899E+00 0.14921931E+02</pdfrwt>
<totfact> 0.38420290E-13</totfact>
</mgrwt>
</event>
<event>
 4    1 -0.4882314E-019  0.1491303E+02  0.7818608E-02  0.1870734E+00
          2   -1    0    0  501    0  0.00000000000E+00  0.00000000000E+00  0.11815061995E+03  0.11815061997E+03  0.25500000000E-02 0.  1.
         -2   -1    0    0    0  501 -0.00000000000E+00 -0.00000000000E+00 -0.47057899120E+00  0.47058590019E+00  0.25500000000E-02 0. -1.
         31    1    1    2    0    0 -0.12520442490E+00 -0.25846451210E+00  0.56921015816E+02  0.57406824051E+02  0.74470750000E+01 0. -1.
        -31    1    1    2    0    0  0.12520442490E+00  0.25846451210E+00  0.60759025140E+02  0.61214381823E+02  0.74470750000E+01 0.  1.
<mgrwt>
<rscale>  0 0.14913029E+02</rscale>
<asrwt>0</asrwt>
<pdfrwt beam="1">  1        2 0.98084313E+00 0.14913029E+02</pdfrwt>
<pdfrwt beam="2">  1       -2 0.99939363E+00 0.14913029E+02</pdfrwt>
<totfact>-0.14163170E-13</totfact>
</mgrwt>
</event>
<event>
 4    1 -0.4882314E-019  0.1503091E+02  0.7818608E-02  0.1867127E+00
          2   -1    0    0  501    0  0.00000000000E+00  0.00000000000E+00  0.12035734183E+03  0.12035734185E+03  0.25500000000E-02 0. -1.
         -2   -1    0    0    0  501 -0.00000000000E+00 -0.00000000000E+00 -0.46928317131E+00  0.46929009938E+00  0.25500000000E-02 0.  1.
         31    1    1    2    0    0 -0.82544890042E+00  0.55725241820E+00  0.58522478681E+02  0.59002807841E+02  0.74470750000E+01 0. -1.
        -31    1    1    2    0    0  0.82544890042E+00 -0.55725241820E+00  0.61365579974E+02  0.61823824111E+02  0.74470750000E+01 0. -1.
<mgrwt>
<rscale>  0 0.15030914E+02</rscale>
<asrwt>0</asrwt>
<pdfrwt beam="1">  1        2 0.99907913E+00 0.15030914E+02</pdfrwt>
<pdfrwt beam="2">  1       -2 0.99672485E+00 0.15030914E+02</pdfrwt>
<totfact>-0.28757557E-14</totfact>
</mgrwt>
</event>
<event>
 4    1 -0.4882314E-019  0.1497676E+02  0.7818608E-02  0.1868779E+00
         -2   -1    0    0    0  501 -0.00000000000E+00  0.00000000000E+00  0.11996190102E+03  0.11996190105E+03  0.25500000000E-02 0.  1.
          2   -1    0    0  501    0  0.00000000000E+00 -0.00000000000E+00 -0.46744349321E+00  0.46745044854E+00  0.25500000000E-02 0. -1.
         31    1    1    2    0    0 -0.33223601472E+00 -0.28719843315E+00  0.54511003889E+02  0.55019099727E+02  0.74470750000E+01 0. -1.
        -31    1    1    2    0    0  0.33223601472E+00  0.28719843315E+00  0.64983453639E+02  0.65410251770E+02  0.74470750000E+01 0.  1.
<mgrwt>
<rscale>  0 0.14976759E+02</rscale>
<asrwt>0</asrwt>
<pdfrwt beam="2">  1        2 0.99282002E+00 0.14976759E+02</pdfrwt>
<pdfrwt beam="1">  1       -2 0.99579414E+00 0.14976759E+02</pdfrwt>
<totfact>-0.13663379E-13</totfact>
</mgrwt>
</event>
<event>
 4    1  0.4882314E-019  0.1491116E+02  0.7818608E-02  0.1870792E+00
         -2   -1    0    0    0  501 -0.00000000000E+00  0.00000000000E+00  0.11901754583E+03  0.11901754586E+03  0.25500000000E-02 0.  1.
          2   -1    0    0  501    0  0.00000000000E+00 -0.00000000000E+00 -0.46703383050E+00  0.46704079194E+00  0.25500000000E-02 0. -1.
         31    1    1    2    0    0  0.16480991872E+00  0.24898151683E+00  0.57722332624E+02  0.58201509978E+02  0.74470750000E+01 0. -1.
        -31    1    1    2    0    0 -0.16480991872E+00 -0.24898151683E+00  0.60828179376E+02  0.61283076672E+02  0.74470750000E+01 0.  1.
<mgrwt>
<rscale>  0 0.14911155E+02</rscale>
<asrwt>0</asrwt>
<pdfrwt beam="2">  1        2 0.99192278E+00 0.14911155E+02</pdfrwt>
<pdfrwt beam="1">  1       -2 0.98798216E+00 0.14911155E+02</pdfrwt>
<totfact> 0.19504151E-13</totfact>
</mgrwt>
</event>
<event>
 4    1 -0.4882314E-019  0.1495900E+02  0.7818608E-02  0.1869322E+00
          2   -1    0    0  501    0  0.00000000000E+00  0.00000000000E+00  0.11928563972E+03  0.11928563975E+03  0.25500000000E-02 0.  1.
         -2   -1    0    0    0  501 -0.00000000000E+00 -0.00000000000E+00 -0.46897932659E+00  0.46898625915E+00  0.25500000000E-02 0. -1.
         31    1    1    2    0    0 -0.63952909363E+00 -0.21517242015E+00  0.58052273038E+02  0.58531877021E+02  0.74470750000E+01 0. -1.
        -31    1    1    2    0    0  0.63952909363E+00  0.21517242015E+00  0.60764387354E+02  0.61222748984E+02  0.74470750000E+01 0. -1.
<mgrwt>
<rscale>  0 0.14958999E+02</rscale>
<asrwt>0</asrwt>
<pdfrwt beam="1">  1        2 0.99021504E+00 0.14958999E+02</pdfrwt>
<pdfrwt beam="2">  1       -2 0.99604729E+00 0.14958999E+02</pdfrwt>
<totfact>-0.16339079E-13</totfact>
</mgrwt>
</event>
<event>
 4    1  0.4882314E-019  0.1491115E+02  0.7818608E-02  0.1870792E+00
          2   -1    0    0  501    0  0.00000000000E+00  0.00000000000E+00  0.11946647102E+03  0.11946647105E+03  0.25500000000E-02 0. -1.
         -2   -1    0    0    0  501 -0.00000000000E+00 -0.00000000000E+00 -0.46527865989E+00  0.46528564759E+00  0.25500000000E-02 0.  1.
         31    1    1    2    0    0  0.24863826767E+00  0.25416195530E+00  0.59633939957E+02  0.60098187494E+02  0.74470750000E+01 0.  1.
        -31    1    1    2    0    0 -0.24863826767E+00 -0.25416195530E+00  0.59367252408E+02  0.59833569205E+02  0.74470750000E+01 0. -1.
<mgrwt>
<rscale>  0 0.14911153E+02</rscale>
<asrwt>0</asrwt>
<pdfrwt beam="1">  1        2 0.99167968E+00 0.14911153E+02</pdfrwt>
<pdfrwt beam="2">  1       -2 0.98822405E+00 0.14911153E+02</pdfrwt>
<totfact> 0.17191378E-13</totfact>
</mgrwt>
</event>
<event>
 4    1 -0.4882314E-019  0.1495722E+02  0.7818608E-02  0.1869377E+00
          2   -1    0    0  501    0  0.00000000000E+00  0.00000000000E+00  0.11928784299E+03  0.11928784302E+03  0.25500000000E-02 0. -1.
         -2   -1    0    0    0  501 -0.00000000000E+00 -0.00000000000E+00 -0.46885912325E+00  0.46886605758E+00  0.25500000000E-02 0.  1.
         31    1    1    2    0    0  0.52700696427E+00  0.21592862644E+00  0.62472195061E+02  0.62917075927E+02  0.74470750000E+01 0. -1.
        -31    1    1    2    0    0 -0.52700696427E+00 -0.21592862644E+00  0.56346788806E+02  0.56839633147E+02  0.74470750000E+01 0. -1.
<mgrwt>
<rscale>  0 0.14957220E+02</rscale>
<asrwt>0</asrwt>
<pdfrwt beam="1">  1        2 0.99023226E+00 0.14957220E+02</pdfrwt>
<pdfrwt beam="2">  1       -2 0.99579307E+00 0.14957220E+02</pdfrwt>
<totfact>-0.16732580E-13</totfact>
</mgrwt>
</event>
<event>
 4    1 -0.4882314E-019  0.1489925E+02  0.7818608E-02  0.1871158E+00
         -2   -1    0    0    0  501 -0.00000000000E+00  0.00000000000E+00  0.11982898134E+03  0.11982898136E+03  0.25500000000E-02 0.  1.
          2   -1    0    0  501    0  0.00000000000E+00 -0.00000000000E+00 -0.46313093762E+00  0.46313795772E+00  0.25500000000E-02 0. -1.
         31    1    1    2    0    0 -0.22045306270E-01 -0.41127109535E-01  0.58154693688E+02  0.58629595781E+02  0.74470750000E+01 0. -1.
        -31    1    1    2    0    0  0.22045306270E-01  0.41127109535E-01  0.61211156711E+02  0.61662523540E+02  0.74470750000E+01 0.  1.
<mgrwt>
<rscale>  0 0.14899253E+02</rscale>
<asrwt>0</asrwt>
<pdfrwt beam="2">  1        2 0.98369159E+00 0.14899253E+02</pdfrwt>
<pdfrwt beam="1">  1       -2 0.99465941E+00 0.14899253E+02</pdfrwt>
<totfact>-0.43201732E-13</totfact>
</mgrwt>
</event>
<event>
 4    1  0.4882314E-019  0.1492690E+02  0.7818608E-02  0.1870307E+00
          2   -1    0    0  501    0  0.00000000000E+00  0.00000000000E+00  0.12001687723E+03  0.12001687726E+03  0.25500000000E-02 0.  1.
         -2   -1    0    0    0  501 -0.00000000000E+00 -0.00000000000E+00 -0.46412337262E+00  0.46413037771E+00  0.25500000000E-02 0. -1.
         31    1    1    2    0    0 -0.15004500072E+00 -0.42745325092E+00  0.61368421431E+02  0.61820282309E+02  0.74470750000E+01 0. -1.
        -31    1    1    2    0    0  0.15004500072E+00  0.42745325092E+00  0.58184332430E+02  0.58660725329E+02  0.74470750000E+01 0.  1.
<mgrwt>
<rscale>  0 0.14926897E+02</rscale>
<asrwt>0</asrwt>
<pdfrwt beam="1">  1        2 0.99622127E+00 0.14926897E+02</pdfrwt>
<pdfrwt beam="2">  1       -2 0.98579732E+00 0.14926897E+02</pdfrwt>
<totfact> 0.32610598E-13</totfact>
</mgrwt>
</event>
<event>
 4    1 -0.4882314E-019  0.1494325E+02  0.7818608E-02  0.1869805E+00
          2   -1    0    0  501    0  0.00000000000E+00  0.00000000000E+00  0.11945100733E+03  0.11945100735E+03  0.25500000000E-02 0. -1.
         -2   -1    0    0    0  501 -0.00000000000E+00 -0.00000000000E+00 -0.46734452600E+00  0.46735148281E+00  0.25500000000E-02 0.  1.
         31    1    1    2    0    0 -0.34091502308E+00 -0.61941038685E-01  0.63473738049E+02  0.63910049349E+02  0.74470750000E+01 0. -1.
        -31    1    1    2    0    0  0.34091502308E+00  0.61941038685E-01  0.55509924750E+02  0.56008309486E+02  0.74470750000E+01 0.  1.
<mgrwt>
<rscale>  0 0.14943252E+02</rscale>
<asrwt>0</asrwt>
<pdfrwt beam="1">  1        2 0.99156889E+00 0.14943252E+02</pdfrwt>
<pdfrwt beam="2">  1       -2 0.99259416E+00 0.14943252E+02</pdfrwt>
<totfact>-0.12436055E-13</totfact>
</mgrwt>
</event>
<event>
 4    1 -0.4882314E-019  0.1501776E+02  0.7818608E-02  0.1867527E+00
          2   -1    0    0  501    0  0.00000000000E+00  0.00000000000E+00  0.11992164387E+03  0.11992164390E+03  0.25500000000E-02 0. -1.
         -2   -1    0    0    0  501 -0.00000000000E+00 -0.00000000000E+00 -0.47016394947E+00  0.47017086456E+00  0.25500000000E-02 0.  1.
         31    1    1    2    0    0 -0.22318369528E-01 -0.95681229541E+00  0.58993734731E+02  0.59469619567E+02  0.74470750000E+01 0.  1.
        -31    1    1    2    0    0  0.22318369528E-01  0.95681229541E+00  0.60457745190E+02  0.60922195195E+02  0.74470750000E+01 0. -1.
<mgrwt>
<rscale>  0 0.15017756E+02</rscale>
<asrwt>0</asrwt>
<pdfrwt beam="1">  1        2 0.99548376E+00 0.15017756E+02</pdfrwt>
<pdfrwt beam="2">  1       -2 0.99857414E+00 0.15017756E+02</pdfrwt>
<totfact>-0.50544239E-14</totfact>
</mgrwt>
</event>
