<event>
 4    1 -0.4926183E-019  0.1501314E+02  0.7818608E-02  0.1867668E+00
          2   -1    0    0  501    0  0.00000000000E+00  0.00000000000E+00  0.11995208362E+03  0.11995208365E+03  0.25500000000E-02 0. -1.
         -2   -1    0    0    0  501 -0.00000000000E+00 -0.00000000000E+00 -0.46975591900E+00  0.46976284010E+00  0.25500000000E-02 0.  1.
         31    1    1    2    0    0  0.72802523595E+00 -0.56692338991E+00  0.61310322567E+02  0.61767839546E+02  0.74470750000E+01 0. -1.
        -31    1    1    2    0    0 -0.72802523595E+00  0.56692338991E+00  0.58172005133E+02  0.58654006940E+02  0.74470750000E+01 0. -1.
<mgrwt>
<rscale>  0 0.15013144E+02</rscale>
<asrwt>0</asrwt>
<pdfrwt beam="1">  1        2 0.99573208E+00 0.15013144E+02</pdfrwt>
<pdfrwt beam="2">  1       -2 0.99771191E+00 0.15013144E+02</pdfrwt>
<totfact>-0.72384857E-14</totfact>
</mgrwt>
</event>
<event>
 4    1  0.4926183E-019  0.1491746E+02  0.7818608E-02  0.1870598E+00
          2   -1    0    0  501    0  0.00000000000E+00  0.00000000000E+00  0.12018970217E+03  0.12018970220E+03  0.25500000000E-02 0.  1.
         -2   -1    0    0    0  501 -0.00000000000E+00 -0.00000000000E+00 -0.46286995153E+00  0.46287697559E+00  0.25500000000E-02 0. -1.
         31    1    1    2    0    0  0.15782262684E+00  0.25928103269E+00  0.62173337491E+02  0.62618487329E+02  0.74470750000E+01 0.  1.
        -31    1    1    2    0    0 -0.15782262684E+00 -0.25928103269E+00  0.57553494730E+02  0.58034091845E+02  0.74470750000E+01 0. -1.
<mgrwt>
<rscale>  0 0.14917456E+02</rscale>
<asrwt>0</asrwt>
<pdfrwt beam="1">  1        2 0.99763994E+00 0.14917456E+02</pdfrwt>
<pdfrwt beam="2">  1       -2 0.98315075E+00 0.14917456E+02</pdfrwt>
<totfact> 0.47973472E-13</totfact>
</mgrwt>
</event>
<event>
 4    1 -0.4926183E-019  0.1499962E+02  0.7818608E-02  0.1868080E+00
         -2   -1    0    0    0  501 -0.00000000000E+00  0.00000000000E+00  0.11954888339E+03  0.11954888342E+03  0.25500000000E-02 0.  1.
          2   -1    0    0  501    0  0.00000000000E+00 -0.00000000000E+00 -0.47049146217E+00  0.47049837244E+00  0.25500000000E-02 0. -1.
         31    1    1    2    0    0 -0.46256947325E+00 -0.14599703984E+00  0.53589324005E+02  0.54106467812E+02  0.74470750000E+01 0. -1.
        -31    1    1    2    0    0  0.46256947325E+00  0.14599703984E+00  0.65489067925E+02  0.65912913981E+02  0.74470750000E+01 0.  1.
<mgrwt>
<rscale>  0 0.14999619E+02</rscale>
<asrwt>0</asrwt>
<pdfrwt beam="2">  1        2 0.99925483E+00 0.14999619E+02</pdfrwt>
<pdfrwt beam="1">  1       -2 0.99240422E+00 0.14999619E+02</pdfrwt>
<totfact>-0.21201275E-14</totfact>
</mgrwt>
</event>
<event>
 4    1 -0.4926183E-019  0.1499212E+02  0.7818608E-02  0.1868309E+00
         -2   -1    0    0    0  501 -0.00000000000E+00  0.00000000000E+00  0.12008297379E+03  0.12008297382E+03  0.25500000000E-02 0.  1.
          2   -1    0    0  501    0  0.00000000000E+00 -0.00000000000E+00 -0.46793044725E+00  0.46793739534E+00  0.25500000000E-02 0. -1.
         31    1    1    2    0    0 -0.73263361799E+00  0.31014998584E+00  0.57277124723E+02  0.57764702783E+02  0.74470750000E+01 0.  1.
        -31    1    1    2    0    0  0.73263361799E+00 -0.31014998584E+00  0.62337918623E+02  0.62786208432E+02  0.74470750000E+01 0.  1.
<mgrwt>
<rscale>  0 0.14992118E+02</rscale>
<asrwt>0</asrwt>
<pdfrwt beam="2">  1        2 0.99385413E+00 0.14992118E+02</pdfrwt>
<pdfrwt beam="1">  1       -2 0.99679928E+00 0.14992118E+02</pdfrwt>
<totfact>-0.11027750E-13</totfact>
</mgrwt>
</event>
<event>
 4    1  0.4926183E-019  0.1490937E+02  0.7818608E-02  0.1870847E+00
          2   -1    0    0  501    0  0.00000000000E+00  0.00000000000E+00  0.12004933357E+03  0.12004933359E+03  0.25500000000E-02 0.  1.
         -2   -1    0    0    0  501 -0.00000000000E+00 -0.00000000000E+00 -0.46290892202E+00  0.46291594549E+00  0.25500000000E-02 0. -1.
         31    1    1    2    0    0 -0.16617708942E+00  0.13631228127E+00  0.61888725922E+02  0.62335539768E+02  0.74470750000E+01 0.  1.
        -31    1    1    2    0    0  0.16617708942E+00 -0.13631228127E+00  0.57697698723E+02  0.58176709772E+02  0.74470750000E+01 0. -1.
<mgrwt>
<rscale>  0 0.14909371E+02</rscale>
<asrwt>0</asrwt>
<pdfrwt beam="1">  1        2 0.99647960E+00 0.14909371E+02</pdfrwt>
<pdfrwt beam="2">  1       -2 0.98322880E+00 0.14909371E+02</pdfrwt>
<totfact> 0.61991981E-13</totfact>
</mgrwt>
</event>
<event>
 4    1  0.4926183E-019  0.1491783E+02  0.7818608E-02  0.1870586E+00
         -2   -1    0    0    0  501 -0.00000000000E+00  0.00000000000E+00  0.11884725216E+03  0.11884725219E+03  0.25500000000E-02 0.  1.
          2   -1    0    0  501    0  0.00000000000E+00 -0.00000000000E+00 -0.46812187154E+00  0.46812881679E+00  0.25500000000E-02 0. -1.
         31    1    1    2    0    0  0.25008406218E+00  0.18559333496E+00  0.61444725042E+02  0.61895154483E+02  0.74470750000E+01 0.  1.
        -31    1    1    2    0    0 -0.25008406218E+00 -0.18559333496E+00  0.56934405247E+02  0.57420226522E+02  0.74470750000E+01 0.  1.
<mgrwt>
<rscale>  0 0.14917830E+02</rscale>
<asrwt>0</asrwt>
<pdfrwt beam="2">  1        2 0.99421898E+00 0.14917830E+02</pdfrwt>
<pdfrwt beam="1">  1       -2 0.98658305E+00 0.14917830E+02</pdfrwt>
<totfact> 0.31177415E-13</totfact>
</mgrwt>
</event>
<event>
 4    1 -0.4926183E-019  0.1496269E+02  0.7818608E-02  0.1869209E+00
         -2   -1    0    0    0  501 -0.00000000000E+00  0.00000000000E+00  0.12016458938E+03  0.12016458941E+03  0.25500000000E-02 0. -1.
          2   -1    0    0  501    0  0.00000000000E+00 -0.00000000000E+00 -0.46577870926E+00  0.46578568945E+00  0.25500000000E-02 0.  1.
         31    1    1    2    0    0  0.88336932774E-01  0.38575224071E+00  0.55045897170E+02  0.55548774329E+02  0.74470750000E+01 0.  1.
        -31    1    1    2    0    0 -0.88336932774E-01 -0.38575224071E+00  0.64652913502E+02  0.65081600768E+02  0.74470750000E+01 0. -1.
<mgrwt>
<rscale>  0 0.14962691E+02</rscale>
<asrwt>0</asrwt>
<pdfrwt beam="2">  1        2 0.98930430E+00 0.14962691E+02</pdfrwt>
<pdfrwt beam="1">  1       -2 0.99745634E+00 0.14962691E+02</pdfrwt>
<totfact>-0.13695153E-13</totfact>
</mgrwt>
</event>
<event>
 4    1  0.4926183E-019  0.1490472E+02  0.7818608E-02  0.1870990E+00
          2   -1    0    0  501    0  0.00000000000E+00  0.00000000000E+00  0.11974854313E+03  0.11974854316E+03  0.25500000000E-02 0. -1.
         -2   -1    0    0    0  501 -0.00000000000E+00 -0.00000000000E+00 -0.46378234614E+00  0.46378935638E+00  0.25500000000E-02 0.  1.
         31    1    1    2    0    0 -0.11347133739E+00 -0.25637609666E+00  0.59742067605E+02  0.60205084273E+02  0.74470750000E+01 0. -1.
        -31    1    1    2    0    0  0.11347133739E+00  0.25637609666E+00  0.59542693177E+02  0.60007248239E+02  0.74470750000E+01 0. -1.
<mgrwt>
<rscale>  0 0.14904722E+02</rscale>
<asrwt>0</asrwt>
<pdfrwt beam="1">  1        2 0.99399967E+00 0.14904722E+02</pdfrwt>
<pdfrwt beam="2">  1       -2 0.98506728E+00 0.14904722E+02</pdfrwt>
<totfact> 0.52079627E-13</totfact>
</mgrwt>
</event>
<event>
 4    1 -0.4926183E-019  0.1492512E+02  0.7818608E-02  0.1870362E+00
          2   -1    0    0  501    0  0.00000000000E+00  0.00000000000E+00  0.11856364324E+03  0.11856364327E+03  0.25500000000E-02 0.  1.
         -2   -1    0    0    0  501 -0.00000000000E+00 -0.00000000000E+00 -0.46970022880E+00  0.46970715072E+00  0.25500000000E-02 0. -1.
         31    1    1    2    0    0  0.16286788517E+00  0.44997804763E+00  0.58703779177E+02  0.59176191344E+02  0.74470750000E+01 0. -1.
        -31    1    1    2    0    0 -0.16286788517E+00 -0.44997804763E+00  0.59390163834E+02  0.59857159074E+02  0.74470750000E+01 0.  1.
<mgrwt>
<rscale>  0 0.14925118E+02</rscale>
<asrwt>0</asrwt>
<pdfrwt beam="1">  1        2 0.98425102E+00 0.14925118E+02</pdfrwt>
<pdfrwt beam="2">  1       -2 0.99754853E+00 0.14925118E+02</pdfrwt>
<totfact>-0.27309271E-13</totfact>
</mgrwt>
</event>
<event>
 4    1  0.4926183E-019  0.1494832E+02  0.7818608E-02  0.1869649E+00
          2   -1    0    0  501    0  0.00000000000E+00  0.00000000000E+00  0.12013812405E+03  0.12013812407E+03  0.25500000000E-02 0. -1.
         -2   -1    0    0    0  501 -0.00000000000E+00 -0.00000000000E+00 -0.46498711481E+00  0.46499410688E+00  0.25500000000E-02 0.  1.
         31    1    1    2    0    0  0.51319787211E+00 -0.37051643460E+00  0.60315403130E+02  0.60776701418E+02  0.74470750000E+01 0. -1.
        -31    1    1    2    0    0 -0.51319787211E+00  0.37051643460E+00  0.59357733802E+02  0.59826416762E+02  0.74470750000E+01 0.  1.
<mgrwt>
<rscale>  0 0.14948325E+02</rscale>
<asrwt>0</asrwt>
<pdfrwt beam="1">  1        2 0.99723096E+00 0.14948325E+02</pdfrwt>
<pdfrwt beam="2">  1       -2 0.98762864E+00 0.14948325E+02</pdfrwt>
<totfact> 0.12894053E-13</totfact>
</mgrwt>
</event>
<event>
 4    1 -0.4926183E-019  0.1492081E+02  0.7818608E-02  0.1870495E+00
          2   -1    0    0  501    0  0.00000000000E+00  0.00000000000E+00  0.11850778463E+03  0.11850778466E+03  0.25500000000E-02 0.  1.
         -2   -1    0    0    0  501 -0.00000000000E+00 -0.00000000000E+00 -0.46965045297E+00  0.46965737562E+00  0.25500000000E-02 0. -1.
         31    1    1    2    0    0  0.27711339899E+00 -0.22700633858E+00  0.61134764969E+02  0.61587715801E+02  0.74470750000E+01 0.  1.
        -31    1    1    2    0    0 -0.27711339899E+00  0.22700633858E+00  0.56903369211E+02  0.57389726235E+02  0.74470750000E+01 0.  1.
<mgrwt>
<rscale>  0 0.14920811E+02</rscale>
<asrwt>0</asrwt>
<pdfrwt beam="1">  1        2 0.98378874E+00 0.14920811E+02</pdfrwt>
<pdfrwt beam="2">  1       -2 0.99744138E+00 0.14920811E+02</pdfrwt>
<totfact>-0.30437176E-13</totfact>
</mgrwt>
</event>
<event>
 4    1  0.4926183E-019  0.1489452E+02  0.7818608E-02  0.1871304E+00
         -2   -1    0    0    0  501 -0.00000000000E+00  0.00000000000E+00  0.11849058982E+03  0.11849058984E+03  0.25500000000E-02 0.  1.
          2   -1    0    0  501    0  0.00000000000E+00 -0.00000000000E+00 -0.46806458305E+00  0.46807152916E+00  0.25500000000E-02 0. -1.
         31    1    1    2    0    0  0.92538565623E-02 -0.27587967262E-01  0.59358526433E+02  0.59823861737E+02  0.74470750000E+01 0.  1.
        -31    1    1    2    0    0 -0.92538565623E-02  0.27587967262E-01  0.58663998799E+02  0.59134799635E+02  0.74470750000E+01 0. -1.
<mgrwt>
<rscale>  0 0.14894518E+02</rscale>
<asrwt>0</asrwt>
<pdfrwt beam="2">  1        2 0.99408605E+00 0.14894518E+02</pdfrwt>
<pdfrwt beam="1">  1       -2 0.98363344E+00 0.14894518E+02</pdfrwt>
<totfact> 0.74961015E-13</totfact>
</mgrwt>
</event>
<event>
 4    1  0.4926183E-019  0.1491757E+02  0.7818608E-02  0.1870594E+00
         -2   -1    0    0    0  501 -0.00000000000E+00  0.00000000000E+00  0.11868233719E+03  0.11868233722E+03  0.25500000000E-02 0.  1.
          2   -1    0    0  501    0  0.00000000000E+00 -0.00000000000E+00 -0.46875592909E+00  0.46876286495E+00  0.25500000000E-02 0. -1.
         31    1    1    2    0    0  0.10411610199E+00  0.32733002809E+00  0.57207342279E+02  0.57691047155E+02  0.74470750000E+01 0.  1.
        -31    1    1    2    0    0 -0.10411610199E+00 -0.32733002809E+00  0.61006238982E+02  0.61460052928E+02  0.74470750000E+01 0. -1.
<mgrwt>
<rscale>  0 0.14917569E+02</rscale>
<asrwt>0</asrwt>
<pdfrwt beam="2">  1        2 0.99555488E+00 0.14917569E+02</pdfrwt>
<pdfrwt beam="1">  1       -2 0.98522466E+00 0.14917569E+02</pdfrwt>
<totfact> 0.42687707E-13</totfact>
</mgrwt>
</event>
<event>
 4    1 -0.4926183E-019  0.1492643E+02  0.7818608E-02  0.1870322E+00
          2   -1    0    0  501    0  0.00000000000E+00  0.00000000000E+00  0.11875849975E+03  0.11875849978E+03  0.25500000000E-02 0.  1.
         -2   -1    0    0    0  501 -0.00000000000E+00 -0.00000000000E+00 -0.46901188266E+00  0.46901881473E+00  0.25500000000E-02 0. -1.
         31    1    1    2    0    0  0.37649570048E+00 -0.28743659637E-01  0.61646063267E+02  0.62095399327E+02  0.74470750000E+01 0. -1.
        -31    1    1    2    0    0 -0.37649570048E+00  0.28743659637E-01  0.56643424604E+02  0.57132119269E+02  0.74470750000E+01 0. -1.
<mgrwt>
<rscale>  0 0.14926428E+02</rscale>
<asrwt>0</asrwt>
<pdfrwt beam="1">  1        2 0.98585654E+00 0.14926428E+02</pdfrwt>
<pdfrwt beam="2">  1       -2 0.99609884E+00 0.14926428E+02</pdfrwt>
<totfact>-0.28121253E-13</totfact>
</mgrwt>
</event>
<event>
 4    1 -0.4926183E-019  0.1496184E+02  0.7818608E-02  0.1869235E+00
         -2   -1    0    0    0  501 -0.00000000000E+00  0.00000000000E+00  0.11928974946E+03  0.11928974949E+03  0.25500000000E-02 0. -1.
          2   -1    0    0  501    0  0.00000000000E+00 -0.00000000000E+00 -0.46914134658E+00  0.46914827674E+00  0.25500000000E-02 0.  1.
         31    1    1    2    0    0  0.44820417468E+00  0.47959426119E+00  0.61592799464E+02  0.62044844826E+02  0.74470750000E+01 0.  1.
        -31    1    1    2    0    0 -0.44820417468E+00 -0.47959426119E+00  0.57227808650E+02  0.57714052938E+02  0.74470750000E+01 0.  1.
<mgrwt>
<rscale>  0 0.14961841E+02</rscale>
<asrwt>0</asrwt>
<pdfrwt beam="2">  1        2 0.99639018E+00 0.14961841E+02</pdfrwt>
<pdfrwt beam="1">  1       -2 0.99025036E+00 0.14961841E+02</pdfrwt>
<totfact>-0.45263650E-15</totfact>
</mgrwt>
</event>
<event>
 4    1 -0.4926183E-019  0.1496652E+02  0.7818608E-02  0.1869092E+00
          2   -1    0    0  501    0  0.00000000000E+00  0.00000000000E+00  0.11992411644E+03  0.11992411647E+03  0.25500000000E-02 0.  1.
         -2   -1    0    0    0  501 -0.00000000000E+00 -0.00000000000E+00 -0.46695145996E+00  0.46695842262E+00  0.25500000000E-02 0. -1.
         31    1    1    2    0    0 -0.62764312651E-01  0.64631539777E+00  0.62498497485E+02  0.62943965374E+02  0.74470750000E+01 0. -1.
        -31    1    1    2    0    0  0.62764312651E-01 -0.64631539777E+00  0.56958667497E+02  0.57447109519E+02  0.74470750000E+01 0. -1.
<mgrwt>
<rscale>  0 0.14966518E+02</rscale>
<asrwt>0</asrwt>
<pdfrwt beam="1">  1        2 0.99547764E+00 0.14966518E+02</pdfrwt>
<pdfrwt beam="2">  1       -2 0.99177782E+00 0.14966518E+02</pdfrwt>
<totfact>-0.67926981E-14</totfact>
</mgrwt>
</event>
<event>
 4    1  0.4926183E-019  0.1492839E+02  0.7818608E-02  0.1870261E+00
         -2   -1    0    0    0  501 -0.00000000000E+00  0.00000000000E+00  0.11877476898E+03  0.11877476901E+03  0.25500000000E-02 0. -1.
          2   -1    0    0  501    0  0.00000000000E+00 -0.00000000000E+00 -0.46907119101E+00  0.46907812221E+00  0.25500000000E-02 0.  1.
         31    1    1    2    0    0  0.34916351642E+00 -0.13876077230E+00  0.56454211049E+02  0.56944517216E+02  0.74470750000E+01 0.  1.
        -31    1    1    2    0    0 -0.34916351642E+00  0.13876077230E+00  0.61851486741E+02  0.62299329915E+02  0.74470750000E+01 0.  1.
<mgrwt>
<rscale>  0 0.14928394E+02</rscale>
<asrwt>0</asrwt>
<pdfrwt beam="2">  1        2 0.99622484E+00 0.14928394E+02</pdfrwt>
<pdfrwt beam="1">  1       -2 0.98599156E+00 0.14928394E+02</pdfrwt>
<totfact> 0.30578974E-13</totfact>
</mgrwt>
</event>
<event>
 4    1 -0.4926183E-019  0.1489943E+02  0.7818608E-02  0.1871153E+00
         -2   -1    0    0    0  501 -0.00000000000E+00  0.00000000000E+00  0.11945386973E+03  0.11945386976E+03  0.25500000000E-02 0.  1.
          2   -1    0    0  501    0  0.00000000000E+00 -0.00000000000E+00 -0.46459638501E+00  0.46460338297E+00  0.25500000000E-02 0. -1.
         31    1    1    2    0    0  0.52152291503E-01  0.69123806985E-02  0.57955629073E+02  0.58432154118E+02  0.74470750000E+01 0. -1.
        -31    1    1    2    0    0 -0.52152291503E-01 -0.69123806985E-02  0.61033644271E+02  0.61486319020E+02  0.74470750000E+01 0.  1.
<mgrwt>
<rscale>  0 0.14899430E+02</rscale>
<asrwt>0</asrwt>
<pdfrwt beam="2">  1        2 0.98678017E+00 0.14899430E+02</pdfrwt>
<pdfrwt beam="1">  1       -2 0.99156984E+00 0.14899430E+02</pdfrwt>
<totfact>-0.14255721E-13</totfact>
</mgrwt>
</event>
<event>
 4    1  0.4926183E-019  0.1491922E+02  0.7818608E-02  0.1870544E+00
          2   -1    0    0  501    0  0.00000000000E+00  0.00000000000E+00  0.11972747655E+03  0.11972747657E+03  0.25500000000E-02 0.  1.
         -2   -1    0    0    0  501 -0.00000000000E+00 -0.00000000000E+00 -0.46476673814E+00  0.46477373353E+00  0.25500000000E-02 0. -1.
         31    1    1    2    0    0  0.27616112238E+00  0.31208296740E-01  0.62298503030E+02  0.62742646141E+02  0.74470750000E+01 0.  1.
        -31    1    1    2    0    0 -0.27616112238E+00 -0.31208296740E-01  0.56964206779E+02  0.57449604167E+02  0.74470750000E+01 0. -1.
<mgrwt>
<rscale>  0 0.14919219E+02</rscale>
<asrwt>0</asrwt>
<pdfrwt beam="1">  1        2 0.99383362E+00 0.14919219E+02</pdfrwt>
<pdfrwt beam="2">  1       -2 0.98714933E+00 0.14919219E+02</pdfrwt>
<totfact> 0.25588494E-13</totfact>
</mgrwt>
</event>
<event>
 4    1 -0.4926183E-019  0.1492390E+02  0.7818608E-02  0.1870400E+00
         -2   -1    0    0    0  501 -0.00000000000E+00  0.00000000000E+00  0.11984335493E+03  0.11984335496E+03  0.25500000000E-02 0. -1.
          2   -1    0    0  501    0  0.00000000000E+00 -0.00000000000E+00 -0.46460891238E+00  0.46461591015E+00  0.25500000000E-02 0.  1.
         31    1    1    2    0    0  0.12538139082E+00  0.43558683001E+00  0.58659182684E+02  0.59131752008E+02  0.74470750000E+01 0.  1.
        -31    1    1    2    0    0 -0.12538139082E+00 -0.43558683001E+00  0.60719563333E+02  0.61176218858E+02  0.74470750000E+01 0.  1.
<mgrwt>
<rscale>  0 0.14923902E+02</rscale>
<asrwt>0</asrwt>
<pdfrwt beam="2">  1        2 0.98681910E+00 0.14923902E+02</pdfrwt>
<pdfrwt beam="1">  1       -2 0.99479048E+00 0.14923902E+02</pdfrwt>
<totfact>-0.26290394E-13</totfact>
</mgrwt>
</event>
<event>
 4    1  0.4926183E-019  0.1491145E+02  0.7818608E-02  0.1870783E+00
          2   -1    0    0  501    0  0.00000000000E+00  0.00000000000E+00  0.11942252415E+03  0.11942252417E+03  0.25500000000E-02 0. -1.
         -2   -1    0    0    0  501 -0.00000000000E+00 -0.00000000000E+00 -0.46546818292E+00  0.46547516777E+00  0.25500000000E-02 0.  1.
         31    1    1    2    0    0 -0.25309443001E+00 -0.81730730530E-01  0.61417199602E+02  0.61867617295E+02  0.74470750000E+01 0. -1.
        -31    1    1    2    0    0  0.25309443001E+00  0.81730730530E-01  0.57539856362E+02  0.58020382048E+02  0.74470750000E+01 0.  1.
<mgrwt>
<rscale>  0 0.14911446E+02</rscale>
<asrwt>0</asrwt>
<pdfrwt beam="1">  1        2 0.99131786E+00 0.14911446E+02</pdfrwt>
<pdfrwt beam="2">  1       -2 0.98862360E+00 0.14911446E+02</pdfrwt>
<totfact> 0.13405844E-13</totfact>
</mgrwt>
</event>
<event>
 4    1  0.4926183E-019  0.1490400E+02  0.7818608E-02  0.1871012E+00
          2   -1    0    0  501    0  0.00000000000E+00  0.00000000000E+00  0.12025910539E+03  0.12025910542E+03  0.25500000000E-02 0. -1.
         -2   -1    0    0    0  501 -0.00000000000E+00 -0.00000000000E+00 -0.46176848293E+00  0.46177552374E+00  0.25500000000E-02 0.  1.
         31    1    1    2    0    0 -0.59330318306E-01  0.14755464335E+00  0.61674611905E+02  0.62122797523E+02  0.74470750000E+01 0. -1.
        -31    1    1    2    0    0  0.59330318306E-01 -0.14755464335E+00  0.58122725007E+02  0.58598083423E+02  0.74470750000E+01 0.  1.
<mgrwt>
<rscale>  0 0.14903998E+02</rscale>
<asrwt>0</asrwt>
<pdfrwt beam="1">  1        2 0.99820471E+00 0.14903998E+02</pdfrwt>
<pdfrwt beam="2">  1       -2 0.98082235E+00 0.14903998E+02</pdfrwt>
<totfact> 0.61828215E-13</totfact>
</mgrwt>
</event>
<event>
 4    1 -0.4926183E-019  0.1496291E+02  0.7818608E-02  0.1869202E+00
          2   -1    0    0  501    0  0.00000000000E+00  0.00000000000E+00  0.11928167100E+03  0.11928167103E+03  0.25500000000E-02 0. -1.
         -2   -1    0    0    0  501 -0.00000000000E+00 -0.00000000000E+00 -0.46924025236E+00  0.46924718106E+00  0.25500000000E-02 0.  1.
         31    1    1    2    0    0 -0.56092864803E+00  0.44516984917E+00  0.59239354310E+02  0.59709905730E+02  0.74470750000E+01 0. -1.
        -31    1    1    2    0    0  0.56092864803E+00 -0.44516984917E+00  0.59573076438E+02  0.60041012479E+02  0.74470750000E+01 0.  1.
<mgrwt>
<rscale>  0 0.14962911E+02</rscale>
<asrwt>0</asrwt>
<pdfrwt beam="1">  1        2 0.99018438E+00 0.14962911E+02</pdfrwt>
<pdfrwt beam="2">  1       -2 0.99659915E+00 0.14962911E+02</pdfrwt>
<totfact>-0.15178282E-13</totfact>
</mgrwt>
</event>
<event>
 4    1  0.4926183E-019  0.1492592E+02  0.7818608E-02  0.1870338E+00
         -2   -1    0    0    0  501 -0.00000000000E+00  0.00000000000E+00  0.11836260241E+03  0.11836260244E+03  0.25500000000E-02 0. -1.
          2   -1    0    0  501    0  0.00000000000E+00 -0.00000000000E+00 -0.47054848474E+00  0.47055539418E+00  0.25500000000E-02 0.  1.
         31    1    1    2    0    0  0.44797753363E+00 -0.42964961561E-01  0.57471542252E+02  0.57953771445E+02  0.74470750000E+01 0.  1.
        -31    1    1    2    0    0 -0.44797753363E+00  0.42964961561E-01  0.60420511672E+02  0.60879386385E+02  0.74470750000E+01 0. -1.
<mgrwt>
<rscale>  0 0.14925918E+02</rscale>
<asrwt>0</asrwt>
<pdfrwt beam="2">  1        2 0.99933620E+00 0.14925918E+02</pdfrwt>
<pdfrwt beam="1">  1       -2 0.98259569E+00 0.14925918E+02</pdfrwt>
<totfact> 0.18363810E-13</totfact>
</mgrwt>
</event>
<event>
 4    1 -0.4926183E-019  0.1495325E+02  0.7818608E-02  0.1869498E+00
          2   -1    0    0  501    0  0.00000000000E+00  0.00000000000E+00  0.11926864251E+03  0.11926864253E+03  0.25500000000E-02 0.  1.
         -2   -1    0    0    0  501 -0.00000000000E+00 -0.00000000000E+00 -0.46868567949E+00  0.46869261639E+00  0.25500000000E-02 0. -1.
         31    1    1    2    0    0 -0.51057474708E-01  0.59459179890E+00  0.57067496515E+02  0.57554445795E+02  0.74470750000E+01 0. -1.
        -31    1    1    2    0    0  0.51057474708E-01 -0.59459179890E+00  0.61732460313E+02  0.62182889356E+02  0.74470750000E+01 0.  1.
<mgrwt>
<rscale>  0 0.14953250E+02</rscale>
<asrwt>0</asrwt>
<pdfrwt beam="1">  1        2 0.99007206E+00 0.14953250E+02</pdfrwt>
<pdfrwt beam="2">  1       -2 0.99542551E+00 0.14953250E+02</pdfrwt>
<totfact>-0.17442316E-13</totfact>
</mgrwt>
</event>
<event>
 4    1  0.4926183E-019  0.1491879E+02  0.7818608E-02  0.1870557E+00
          2   -1    0    0  501    0  0.00000000000E+00  0.00000000000E+00  0.12025393049E+03  0.12025393051E+03  0.25500000000E-02 0. -1.
         -2   -1    0    0    0  501 -0.00000000000E+00 -0.00000000000E+00 -0.46270547507E+00  0.46271250163E+00  0.25500000000E-02 0.  1.
         31    1    1    2    0    0  0.19220677836E+00 -0.38017668226E+00  0.60272889244E+02  0.60732706029E+02  0.74470750000E+01 0.  1.
        -31    1    1    2    0    0 -0.19220677836E+00  0.38017668226E+00  0.59518335767E+02  0.59983936986E+02  0.74470750000E+01 0.  1.
<mgrwt>
<rscale>  0 0.14918791E+02</rscale>
<asrwt>0</asrwt>
<pdfrwt beam="1">  1        2 0.99816967E+00 0.14918791E+02</pdfrwt>
<pdfrwt beam="2">  1       -2 0.98280476E+00 0.14918791E+02</pdfrwt>
<totfact> 0.42556792E-13</totfact>
</mgrwt>
</event>
<event>
 4    1 -0.4926183E-019  0.1493345E+02  0.7818608E-02  0.1870106E+00
         -2   -1    0    0    0  501 -0.00000000000E+00  0.00000000000E+00  0.11982133126E+03  0.11982133129E+03  0.25500000000E-02 0. -1.
          2   -1    0    0  501    0  0.00000000000E+00 -0.00000000000E+00 -0.46528885703E+00  0.46529584457E+00  0.25500000000E-02 0.  1.
         31    1    1    2    0    0  0.21711275050E+00 -0.10053111649E+00  0.63589241797E+02  0.64024275418E+02  0.74470750000E+01 0. -1.
        -31    1    1    2    0    0 -0.21711275050E+00  0.10053111649E+00  0.55766800605E+02  0.56262351712E+02  0.74470750000E+01 0.  1.
<mgrwt>
<rscale>  0 0.14933446E+02</rscale>
<asrwt>0</asrwt>
<pdfrwt beam="2">  1        2 0.98825698E+00 0.14933446E+02</pdfrwt>
<pdfrwt beam="1">  1       -2 0.99461399E+00 0.14933446E+02</pdfrwt>
<totfact>-0.21651516E-13</totfact>
</mgrwt>
</event>
<event>
 4    1  0.4926183E-019  0.1491124E+02  0.7818608E-02  0.1870789E+00
         -2   -1    0    0    0  501 -0.00000000000E+00  0.00000000000E+00  0.11891468840E+03  0.11891468843E+03  0.25500000000E-02 0. -1.
          2   -1    0    0  501    0  0.00000000000E+00 -0.00000000000E+00 -0.46744298581E+00  0.46744994115E+00  0.25500000000E-02 0.  1.
         31    1    1    2    0    0 -0.14153450320E-01  0.30317174305E+00  0.60726021917E+02  0.61181702962E+02  0.74470750000E+01 0.  1.
        -31    1    1    2    0    0  0.14153450320E-01 -0.30317174305E+00  0.57721223500E+02  0.58200435409E+02  0.74470750000E+01 0.  1.
<mgrwt>
<rscale>  0 0.14911238E+02</rscale>
<asrwt>0</asrwt>
<pdfrwt beam="2">  1        2 0.99278501E+00 0.14911238E+02</pdfrwt>
<pdfrwt beam="1">  1       -2 0.98713505E+00 0.14911238E+02</pdfrwt>
<totfact> 0.27827377E-13</totfact>
</mgrwt>
</event>
<event>
 4    1  0.4926183E-019  0.1491901E+02  0.7818608E-02  0.1870550E+00
          2   -1    0    0  501    0  0.00000000000E+00  0.00000000000E+00  0.12005168564E+03  0.12005168567E+03  0.25500000000E-02 0.  1.
         -2   -1    0    0    0  501 -0.00000000000E+00 -0.00000000000E+00 -0.46349862301E+00  0.46350563754E+00  0.25500000000E-02 0. -1.
         31    1    1    2    0    0  0.61162300831E-01  0.70457442902E-01  0.56399579048E+02  0.56889191838E+02  0.74470750000E+01 0. -1.
        -31    1    1    2    0    0 -0.61162300831E-01 -0.70457442902E-01  0.63188607972E+02  0.63625999471E+02  0.74470750000E+01 0.  1.
<mgrwt>
<rscale>  0 0.14919010E+02</rscale>
<asrwt>0</asrwt>
<pdfrwt beam="1">  1        2 0.99650392E+00 0.14919010E+02</pdfrwt>
<pdfrwt beam="2">  1       -2 0.98447657E+00 0.14919010E+02</pdfrwt>
<totfact> 0.45595590E-13</totfact>
</mgrwt>
</event>
<event>
 4    1  0.4926183E-019  0.1496960E+02  0.7818608E-02  0.1868998E+00
          2   -1    0    0  501    0  0.00000000000E+00  0.00000000000E+00  0.12027792991E+03  0.12027792994E+03  0.25500000000E-02 0. -1.
         -2   -1    0    0    0  501 -0.00000000000E+00 -0.00000000000E+00 -0.46576964338E+00  0.46577662371E+00  0.25500000000E-02 0.  1.
         31    1    1    2    0    0 -0.31659663812E+00 -0.59960504342E+00  0.62501578180E+02  0.62947326875E+02  0.74470750000E+01 0.  1.
        -31    1    1    2    0    0  0.31659663812E+00  0.59960504342E+00  0.57310582089E+02  0.57796379688E+02  0.74470750000E+01 0.  1.
<mgrwt>
<rscale>  0 0.14969600E+02</rscale>
<asrwt>0</asrwt>
<pdfrwt beam="1">  1        2 0.99839345E+00 0.14969600E+02</pdfrwt>
<pdfrwt beam="2">  1       -2 0.98928872E+00 0.14969600E+02</pdfrwt>
<totfact> 0.24192674E-14</totfact>
</mgrwt>
</event>
<event>
 4    1 -0.4926183E-019  0.1489856E+02  0.7818608E-02  0.1871180E+00
         -2   -1    0    0    0  501 -0.00000000000E+00  0.00000000000E+00  0.12029005022E+03  0.12029005025E+03  0.25500000000E-02 0.  1.
          2   -1    0    0  501    0  0.00000000000E+00 -0.00000000000E+00 -0.46131271935E+00  0.46131976712E+00  0.25500000000E-02 0. -1.
         31    1    1    2    0    0 -0.11326120163E+00 -0.40866351050E-01  0.58816966339E+02  0.59286667587E+02  0.74470750000E+01 0. -1.
        -31    1    1    2    0    0  0.11326120163E+00  0.40866351050E-01  0.61011771163E+02  0.61464702429E+02  0.74470750000E+01 0.  1.
<mgrwt>
<rscale>  0 0.14898558E+02</rscale>
<asrwt>0</asrwt>
<pdfrwt beam="2">  1        2 0.97985896E+00 0.14898558E+02</pdfrwt>
<pdfrwt beam="1">  1       -2 0.99845681E+00 0.14898558E+02</pdfrwt>
<totfact>-0.39203598E-13</totfact>
</mgrwt>
</event>
<event>
 4    1  0.4926183E-019  0.1490075E+02  0.7818608E-02  0.1871112E+00
          2   -1    0    0  501    0  0.00000000000E+00  0.00000000000E+00  0.11941801142E+03  0.11941801145E+03  0.25500000000E-02 0.  1.
         -2   -1    0    0    0  501 -0.00000000000E+00 -0.00000000000E+00 -0.46481807207E+00  0.46482506669E+00  0.25500000000E-02 0. -1.
         31    1    1    2    0    0 -0.21445680745E+00 -0.56097236653E-01  0.59496400561E+02  0.59961068573E+02  0.74470750000E+01 0.  1.
        -31    1    1    2    0    0  0.21445680745E+00  0.56097236653E-01  0.59456792785E+02  0.59921767939E+02  0.74470750000E+01 0. -1.
<mgrwt>
<rscale>  0 0.14900748E+02</rscale>
<asrwt>0</asrwt>
<pdfrwt beam="1">  1        2 0.99127517E+00 0.14900748E+02</pdfrwt>
<pdfrwt beam="2">  1       -2 0.98724804E+00 0.14900748E+02</pdfrwt>
<totfact> 0.29604913E-13</totfact>
</mgrwt>
</event>
<event>
 4    1 -0.4926183E-019  0.1493211E+02  0.7818608E-02  0.1870147E+00
          2   -1    0    0  501    0  0.00000000000E+00  0.00000000000E+00  0.11894584596E+03  0.11894584599E+03  0.25500000000E-02 0.  1.
         -2   -1    0    0    0  501 -0.00000000000E+00 -0.00000000000E+00 -0.46862954280E+00  0.46863648053E+00  0.25500000000E-02 0. -1.
         31    1    1    2    0    0 -0.34640803762E-01  0.52541309762E+00  0.58631228518E+02  0.59104628774E+02  0.74470750000E+01 0. -1.
        -31    1    1    2    0    0  0.34640803762E-01 -0.52541309762E+00  0.59845987901E+02  0.60309853696E+02  0.74470750000E+01 0.  1.
<mgrwt>
<rscale>  0 0.14932107E+02</rscale>
<asrwt>0</asrwt>
<pdfrwt beam="1">  1        2 0.98740249E+00 0.14932107E+02</pdfrwt>
<pdfrwt beam="2">  1       -2 0.99529619E+00 0.14932107E+02</pdfrwt>
<totfact>-0.23915348E-13</totfact>
</mgrwt>
</event>
<event>
 4    1  0.4926183E-019  0.1496306E+02  0.7818608E-02  0.1869198E+00
          2   -1    0    0  501    0  0.00000000000E+00  0.00000000000E+00  0.12022071511E+03  0.12022071513E+03  0.25500000000E-02 0. -1.
         -2   -1    0    0    0  501 -0.00000000000E+00 -0.00000000000E+00 -0.46558420928E+00  0.46559119239E+00  0.25500000000E-02 0.  1.
         31    1    1    2    0    0  0.34658840792E+00 -0.15775512847E+00  0.64779399423E+02  0.65207166216E+02  0.74470750000E+01 0. -1.
        -31    1    1    2    0    0 -0.34658840792E+00  0.15775512847E+00  0.54975731475E+02  0.55479140112E+02  0.74470750000E+01 0.  1.
<mgrwt>
<rscale>  0 0.14963060E+02</rscale>
<asrwt>0</asrwt>
<pdfrwt beam="1">  1        2 0.99791882E+00 0.14963060E+02</pdfrwt>
<pdfrwt beam="2">  1       -2 0.98889457E+00 0.14963060E+02</pdfrwt>
<totfact> 0.45357677E-14</totfact>
</mgrwt>
</event>
<event>
 4    1 -0.4926183E-019  0.1492824E+02  0.7818608E-02  0.1870266E+00
          2   -1    0    0  501    0  0.00000000000E+00  0.00000000000E+00  0.11885042174E+03  0.11885042177E+03  0.25500000000E-02 0. -1.
         -2   -1    0    0    0  501 -0.00000000000E+00 -0.00000000000E+00 -0.46876279594E+00  0.46876973170E+00  0.25500000000E-02 0.  1.
         31    1    1    2    0    0 -0.47754114729E+00  0.96064350929E-01  0.58152636815E+02  0.58629560535E+02  0.74470750000E+01 0. -1.
        -31    1    1    2    0    0  0.47754114729E+00 -0.96064350929E-01  0.60229022131E+02  0.60689630967E+02  0.74470750000E+01 0. -1.
<mgrwt>
<rscale>  0 0.14928238E+02</rscale>
<asrwt>0</asrwt>
<pdfrwt beam="1">  1        2 0.98661456E+00 0.14928238E+02</pdfrwt>
<pdfrwt beam="2">  1       -2 0.99557494E+00 0.14928238E+02</pdfrwt>
<totfact>-0.26320978E-13</totfact>
</mgrwt>
</event>
<event>
 4    1 -0.4926183E-019  0.1496479E+02  0.7818608E-02  0.1869145E+00
         -2   -1    0    0    0  501 -0.00000000000E+00  0.00000000000E+00  0.12007672335E+03  0.12007672337E+03  0.25500000000E-02 0.  1.
          2   -1    0    0  501    0  0.00000000000E+00 -0.00000000000E+00 -0.46625053107E+00  0.46625750420E+00  0.25500000000E-02 0. -1.
         31    1    1    2    0    0  0.18521780532E+00  0.32502280899E+00  0.64818763999E+02  0.65246233898E+02  0.74470750000E+01 0.  1.
        -31    1    1    2    0    0 -0.18521780532E+00 -0.32502280899E+00  0.54791708816E+02  0.55296746980E+02  0.74470750000E+01 0. -1.
<mgrwt>
<rscale>  0 0.14964793E+02</rscale>
<asrwt>0</asrwt>
<pdfrwt beam="2">  1        2 0.99029975E+00 0.14964793E+02</pdfrwt>
<pdfrwt beam="1">  1       -2 0.99673371E+00 0.14964793E+02</pdfrwt>
<totfact>-0.14668713E-13</totfact>
</mgrwt>
</event>
<event>
 4    1  0.4926183E-019  0.1491147E+02  0.7818608E-02  0.1870782E+00
         -2   -1    0    0    0  501 -0.00000000000E+00  0.00000000000E+00  0.11860837672E+03  0.11860837674E+03  0.25500000000E-02 0.  1.
          2   -1    0    0  501    0  0.00000000000E+00 -0.00000000000E+00 -0.46866456612E+00  0.46867150333E+00  0.25500000000E-02 0. -1.
         31    1    1    2    0    0  0.60661758863E-01  0.12083510281E+00  0.56412304951E+02  0.56901892384E+02  0.74470750000E+01 0. -1.
        -31    1    1    2    0    0 -0.60661758863E-01 -0.12083510281E+00  0.61727407199E+02  0.62175155863E+02  0.74470750000E+01 0.  1.
<mgrwt>
<rscale>  0 0.14911466E+02</rscale>
<asrwt>0</asrwt>
<pdfrwt beam="2">  1        2 0.99535916E+00 0.14911466E+02</pdfrwt>
<pdfrwt beam="1">  1       -2 0.98461235E+00 0.14911466E+02</pdfrwt>
<totfact> 0.51857208E-13</totfact>
</mgrwt>
</event>
<event>
 4    1 -0.4926183E-019  0.1492091E+02  0.7818608E-02  0.1870492E+00
         -2   -1    0    0    0  501 -0.00000000000E+00  0.00000000000E+00  0.11973414494E+03  0.11973414496E+03  0.25500000000E-02 0. -1.
          2   -1    0    0  501    0  0.00000000000E+00 -0.00000000000E+00 -0.46484594850E+00  0.46485294270E+00  0.25500000000E-02 0.  1.
         31    1    1    2    0    0  0.39784684457E-01 -0.42694085307E+00  0.60639739847E+02  0.61096815269E+02  0.74470750000E+01 0.  1.
        -31    1    1    2    0    0 -0.39784684457E-01  0.42694085307E+00  0.58629559142E+02  0.59102182638E+02  0.74470750000E+01 0.  1.
<mgrwt>
<rscale>  0 0.14920905E+02</rscale>
<asrwt>0</asrwt>
<pdfrwt beam="2">  1        2 0.98731713E+00 0.14920905E+02</pdfrwt>
<pdfrwt beam="1">  1       -2 0.99388941E+00 0.14920905E+02</pdfrwt>
<totfact>-0.23732427E-13</totfact>
</mgrwt>
</event>
<event>
 4    1 -0.4926183E-019  0.1503299E+02  0.7818608E-02  0.1867063E+00
         -2   -1    0    0    0  501 -0.00000000000E+00  0.00000000000E+00  0.12011274059E+03  0.12011274062E+03  0.25500000000E-02 0.  1.
          2   -1    0    0  501    0  0.00000000000E+00 -0.00000000000E+00 -0.47036884980E+00  0.47037576187E+00  0.25500000000E-02 0. -1.
         31    1    1    2    0    0 -0.51622739277E-02  0.80956281679E+00  0.54854719321E+02  0.55363838166E+02  0.74470750000E+01 0. -1.
        -31    1    1    2    0    0  0.51622739277E-02 -0.80956281679E+00  0.64787652422E+02  0.65219278216E+02  0.74470750000E+01 0. -1.
<mgrwt>
<rscale>  0 0.15032992E+02</rscale>
<asrwt>0</asrwt>
<pdfrwt beam="2">  1        2 0.99901383E+00 0.15032992E+02</pdfrwt>
<pdfrwt beam="1">  1       -2 0.99706557E+00 0.15032992E+02</pdfrwt>
<totfact>-0.28534366E-14</totfact>
</mgrwt>
</event>
<event>
 4    1 -0.4926183E-019  0.1491913E+02  0.7818608E-02  0.1870546E+00
         -2   -1    0    0    0  501 -0.00000000000E+00  0.00000000000E+00  0.12001754601E+03  0.12001754603E+03  0.25500000000E-02 0. -1.
          2   -1    0    0  501    0  0.00000000000E+00 -0.00000000000E+00 -0.46363773940E+00  0.46364475183E+00  0.25500000000E-02 0.  1.
         31    1    1    2    0    0  0.34314557181E+00 -0.24753776413E+00  0.59094676595E+02  0.59563568998E+02  0.74470750000E+01 0.  1.
        -31    1    1    2    0    0 -0.34314557181E+00  0.24753776413E+00  0.60459231673E+02  0.60917621788E+02  0.74470750000E+01 0. -1.
<mgrwt>
<rscale>  0 0.14919127E+02</rscale>
<asrwt>0</asrwt>
<pdfrwt beam="2">  1        2 0.98476984E+00 0.14919127E+02</pdfrwt>
<pdfrwt beam="1">  1       -2 0.99622278E+00 0.14919127E+02</pdfrwt>
<totfact>-0.32943888E-13</totfact>
</mgrwt>
</event>
<event>
 4    1  0.4926183E-019  0.1491329E+02  0.7818608E-02  0.1870726E+00
         -2   -1    0    0    0  501 -0.00000000000E+00  0.00000000000E+00  0.11816464049E+03  0.11816464052E+03  0.25500000000E-02 0.  1.
          2   -1    0    0  501    0  0.00000000000E+00 -0.00000000000E+00 -0.47053931899E+00  0.47054622856E+00  0.25500000000E-02 0. -1.
         31    1    1    2    0    0  0.50488140543E-01  0.15383096491E+00  0.61560882051E+02  0.62009897096E+02  0.74470750000E+01 0.  1.
        -31    1    1    2    0    0 -0.50488140543E-01 -0.15383096491E+00  0.56133219119E+02  0.56625289648E+02  0.74470750000E+01 0. -1.
<mgrwt>
<rscale>  0 0.14913285E+02</rscale>
<asrwt>0</asrwt>
<pdfrwt beam="2">  1        2 0.99931018E+00 0.14913285E+02</pdfrwt>
<pdfrwt beam="1">  1       -2 0.98095873E+00 0.14913285E+02</pdfrwt>
<totfact> 0.26200018E-13</totfact>
</mgrwt>
</event>
<event>
 4    1  0.4926183E-019  0.1496601E+02  0.7818608E-02  0.1869108E+00
          2   -1    0    0  501    0  0.00000000000E+00  0.00000000000E+00  0.12020663832E+03  0.12020663834E+03  0.25500000000E-02 0.  1.
         -2   -1    0    0    0  501 -0.00000000000E+00 -0.00000000000E+00 -0.46582227020E+00  0.46582924974E+00  0.25500000000E-02 0. -1.
         31    1    1    2    0    0 -0.34666517595E+00  0.59410283545E+00  0.57841917739E+02  0.58323404468E+02  0.74470750000E+01 0. -1.
        -31    1    1    2    0    0  0.34666517595E+00 -0.59410283545E+00  0.61898898307E+02  0.62349063125E+02  0.74470750000E+01 0.  1.
<mgrwt>
<rscale>  0 0.14966008E+02</rscale>
<asrwt>0</asrwt>
<pdfrwt beam="1">  1        2 0.99780439E+00 0.14966008E+02</pdfrwt>
<pdfrwt beam="2">  1       -2 0.98939780E+00 0.14966008E+02</pdfrwt>
<totfact> 0.26707497E-14</totfact>
</mgrwt>
</event>
<event>
 4    1 -0.4926183E-019  0.1501647E+02  0.7818608E-02  0.1867566E+00
          2   -1    0    0  501    0  0.00000000000E+00  0.00000000000E+00  0.12002795442E+03  0.12002795445E+03  0.25500000000E-02 0.  1.
         -2   -1    0    0    0  501 -0.00000000000E+00 -0.00000000000E+00 -0.46966699117E+00  0.46967391358E+00  0.25500000000E-02 0. -1.
         31    1    1    2    0    0 -0.94099576085E-01 -0.82191751479E+00  0.55928638006E+02  0.56428325143E+02  0.74470750000E+01 0. -1.
        -31    1    1    2    0    0  0.94099576085E-01  0.82191751479E+00  0.63629649427E+02  0.64069303222E+02  0.74470750000E+01 0.  1.
<mgrwt>
<rscale>  0 0.15016469E+02</rscale>
<asrwt>0</asrwt>
<pdfrwt beam="1">  1        2 0.99635870E+00 0.15016469E+02</pdfrwt>
<pdfrwt beam="2">  1       -2 0.99752624E+00 0.15016469E+02</pdfrwt>
<totfact>-0.69906659E-14</totfact>
</mgrwt>
</event>
<event>
 4    1 -0.4926183E-019  0.1498159E+02  0.7818608E-02  0.1868631E+00
          2   -1    0    0  501    0  0.00000000000E+00  0.00000000000E+00  0.11981943199E+03  0.11981943202E+03  0.25500000000E-02 0.  1.
         -2   -1    0    0    0  501 -0.00000000000E+00 -0.00000000000E+00 -0.46830126816E+00  0.46830821075E+00  0.25500000000E-02 0. -1.
         31    1    1    2    0    0 -0.33201698032E+00  0.64979001304E+00  0.56887017798E+02  0.57377035322E+02  0.74470750000E+01 0. -1.
        -31    1    1    2    0    0  0.33201698032E+00 -0.64979001304E+00  0.62464112922E+02  0.62910704904E+02  0.74470750000E+01 0. -1.
<mgrwt>
<rscale>  0 0.14981590E+02</rscale>
<asrwt>0</asrwt>
<pdfrwt beam="1">  1        2 0.99462320E+00 0.14981590E+02</pdfrwt>
<pdfrwt beam="2">  1       -2 0.99463016E+00 0.14981590E+02</pdfrwt>
<totfact>-0.12400767E-13</totfact>
</mgrwt>
</event>
<event>
 4    1 -0.4926183E-019  0.1499047E+02  0.7818608E-02  0.1868360E+00
          2   -1    0    0  501    0  0.00000000000E+00  0.00000000000E+00  0.11962470821E+03  0.11962470824E+03  0.25500000000E-02 0.  1.
         -2   -1    0    0    0  501 -0.00000000000E+00 -0.00000000000E+00 -0.46961953044E+00  0.46962645355E+00  0.25500000000E-02 0. -1.
         31    1    1    2    0    0  0.69798713836E+00  0.40913027832E+00  0.57534768476E+02  0.58020367831E+02  0.74470750000E+01 0.  1.
        -31    1    1    2    0    0 -0.69798713836E+00 -0.40913027832E+00  0.61620320206E+02  0.62073966862E+02  0.74470750000E+01 0.  1.
<mgrwt>
<rscale>  0 0.14990466E+02</rscale>
<asrwt>0</asrwt>
<pdfrwt beam="1">  1        2 0.99302398E+00 0.14990466E+02</pdfrwt>
<pdfrwt beam="2">  1       -2 0.99741272E+00 0.14990466E+02</pdfrwt>
<totfact>-0.10179059E-13</totfact>
</mgrwt>
</event>
<event>
 4    1 -0.4926183E-019  0.1494380E+02  0.7818608E-02  0.1869788E+00
          2   -1    0    0  501    0  0.00000000000E+00  0.00000000000E+00  0.11871800494E+03  0.11871800497E+03  0.25500000000E-02 0.  1.
         -2   -1    0    0    0  501 -0.00000000000E+00 -0.00000000000E+00 -0.47026429362E+00  0.47027120723E+00  0.25500000000E-02 0. -1.
         31    1    1    2    0    0  0.27053948460E+00  0.68382677894E-01  0.63437121733E+02  0.63873352876E+02  0.74470750000E+01 0.  1.
        -31    1    1    2    0    0 -0.27053948460E+00 -0.68382677894E-01  0.54810618912E+02  0.55314923298E+02  0.74470750000E+01 0. -1.
<mgrwt>
<rscale>  0 0.14943795E+02</rscale>
<asrwt>0</asrwt>
<pdfrwt beam="1">  1        2 0.98553206E+00 0.14943795E+02</pdfrwt>
<pdfrwt beam="2">  1       -2 0.99874687E+00 0.14943795E+02</pdfrwt>
<totfact>-0.12712080E-13</totfact>
</mgrwt>
</event>
<event>
 4    1 -0.4926183E-019  0.1498652E+02  0.7818608E-02  0.1868480E+00
          2   -1    0    0  501    0  0.00000000000E+00  0.00000000000E+00  0.11963488198E+03  0.11963488201E+03  0.25500000000E-02 0. -1.
         -2   -1    0    0    0  501 -0.00000000000E+00 -0.00000000000E+00 -0.46933266517E+00  0.46933959250E+00  0.25500000000E-02 0.  1.
         31    1    1    2    0    0 -0.71538029799E+00  0.42116420342E+00  0.59823376345E+02  0.60290832069E+02  0.74470750000E+01 0. -1.
        -31    1    1    2    0    0  0.71538029799E+00 -0.42116420342E+00  0.59342172971E+02  0.59813389531E+02  0.74470750000E+01 0.  1.
<mgrwt>
<rscale>  0 0.14986524E+02</rscale>
<asrwt>0</asrwt>
<pdfrwt beam="1">  1        2 0.99310574E+00 0.14986524E+02</pdfrwt>
<pdfrwt beam="2">  1       -2 0.99680618E+00 0.14986524E+02</pdfrwt>
<totfact>-0.11649834E-13</totfact>
</mgrwt>
</event>
<event>
 4    1 -0.4926183E-019  0.1503312E+02  0.7818608E-02  0.1867059E+00
         -2   -1    0    0    0  501 -0.00000000000E+00  0.00000000000E+00  0.12022727064E+03  0.12022727066E+03  0.25500000000E-02 0. -1.
          2   -1    0    0  501    0  0.00000000000E+00 -0.00000000000E+00 -0.46992895146E+00  0.46993587001E+00  0.25500000000E-02 0.  1.
         31    1    1    2    0    0 -0.65506429304E+00  0.73686213394E+00  0.61967586224E+02  0.62421252339E+02  0.74470750000E+01 0.  1.
        -31    1    1    2    0    0  0.65506429304E+00 -0.73686213394E+00  0.57789755462E+02  0.58275954196E+02  0.74470750000E+01 0.  1.
<mgrwt>
<rscale>  0 0.15033123E+02</rscale>
<asrwt>0</asrwt>
<pdfrwt beam="2">  1        2 0.99808689E+00 0.15033123E+02</pdfrwt>
<pdfrwt beam="1">  1       -2 0.99800895E+00 0.15033123E+02</pdfrwt>
<totfact>-0.37477254E-14</totfact>
</mgrwt>
</event>
<event>
 4    1 -0.4926183E-019  0.1490202E+02  0.7818608E-02  0.1871073E+00
          2   -1    0    0  501    0  0.00000000000E+00  0.00000000000E+00  0.11836798306E+03  0.11836798309E+03  0.25500000000E-02 0. -1.
         -2   -1    0    0    0  501 -0.00000000000E+00 -0.00000000000E+00 -0.46902127300E+00  0.46902820494E+00  0.25500000000E-02 0.  1.
         31    1    1    2    0    0 -0.19390840019E+00 -0.33623673610E-01  0.57825703302E+02  0.58303598683E+02  0.74470750000E+01 0.  1.
        -31    1    1    2    0    0  0.19390840019E+00  0.33623673610E-01  0.60073258484E+02  0.60533412608E+02  0.74470750000E+01 0. -1.
<mgrwt>
<rscale>  0 0.14902015E+02</rscale>
<asrwt>0</asrwt>
<pdfrwt beam="1">  1        2 0.98262756E+00 0.14902015E+02</pdfrwt>
<pdfrwt beam="2">  1       -2 0.99610578E+00 0.14902015E+02</pdfrwt>
<totfact>-0.47825692E-13</totfact>
</mgrwt>
</event>
<event>
 4    1 -0.4926183E-019  0.1499278E+02  0.7818608E-02  0.1868289E+00
         -2   -1    0    0    0  501 -0.00000000000E+00  0.00000000000E+00  0.12012352444E+03  0.12012352447E+03  0.25500000000E-02 0. -1.
          2   -1    0    0  501    0  0.00000000000E+00 -0.00000000000E+00 -0.46781368116E+00  0.46782063100E+00  0.25500000000E-02 0.  1.
         31    1    1    2    0    0  0.80881959126E+00 -0.92018995891E-01  0.62019799626E+02  0.62470610117E+02  0.74470750000E+01 0. -1.
        -31    1    1    2    0    0 -0.80881959126E+00  0.92018995891E-01  0.57635911134E+02  0.58120734983E+02  0.74470750000E+01 0.  1.
<mgrwt>
<rscale>  0 0.14992778E+02</rscale>
<asrwt>0</asrwt>
<pdfrwt beam="2">  1        2 0.99360840E+00 0.14992778E+02</pdfrwt>
<pdfrwt beam="1">  1       -2 0.99713361E+00 0.14992778E+02</pdfrwt>
<totfact>-0.10470561E-13</totfact>
</mgrwt>
</event>
<event>
 4    1 -0.4926183E-019  0.1494325E+02  0.7818608E-02  0.1869805E+00
          2   -1    0    0  501    0  0.00000000000E+00  0.00000000000E+00  0.11921740346E+03  0.11921740349E+03  0.25500000000E-02 0. -1.
         -2   -1    0    0    0  501 -0.00000000000E+00 -0.00000000000E+00 -0.46825989276E+00  0.46826683597E+00  0.25500000000E-02 0.  1.
         31    1    1    2    0    0  0.50435760837E+00  0.26232195024E-01  0.56704262552E+02  0.57193420796E+02  0.74470750000E+01 0.  1.
        -31    1    1    2    0    0 -0.50435760837E+00 -0.26232195024E-01  0.62044881016E+02  0.62492249528E+02  0.74470750000E+01 0.  1.
<mgrwt>
<rscale>  0 0.14943245E+02</rscale>
<asrwt>0</asrwt>
<pdfrwt beam="1">  1        2 0.98964486E+00 0.14943245E+02</pdfrwt>
<pdfrwt beam="2">  1       -2 0.99452308E+00 0.14943245E+02</pdfrwt>
<totfact>-0.18499692E-13</totfact>
</mgrwt>
</event>
<event>
 4    1  0.4926183E-019  0.1492117E+02  0.7818608E-02  0.1870484E+00
          2   -1    0    0  501    0  0.00000000000E+00  0.00000000000E+00  0.12034534472E+03  0.12034534474E+03  0.25500000000E-02 0. -1.
         -2   -1    0    0    0  501 -0.00000000000E+00 -0.00000000000E+00 -0.46250127085E+00  0.46250830051E+00  0.25500000000E-02 0.  1.
         31    1    1    2    0    0 -0.35924998239E+00 -0.26757137143E+00  0.60158683161E+02  0.60619524418E+02  0.74470750000E+01 0. -1.
        -31    1    1    2    0    0  0.35924998239E+00  0.26757137143E+00  0.59724160285E+02  0.60188328626E+02  0.74470750000E+01 0. -1.
<mgrwt>
<rscale>  0 0.14921166E+02</rscale>
<asrwt>0</asrwt>
<pdfrwt beam="1">  1        2 0.99892385E+00 0.14921166E+02</pdfrwt>
<pdfrwt beam="2">  1       -2 0.98237554E+00 0.14921166E+02</pdfrwt>
<totfact> 0.29777972E-13</totfact>
</mgrwt>
</event>
<event>
 4    1  0.4926183E-019  0.1489720E+02  0.7818608E-02  0.1871222E+00
         -2   -1    0    0    0  501 -0.00000000000E+00  0.00000000000E+00  0.11850785298E+03  0.11850785301E+03  0.25500000000E-02 0. -1.
          2   -1    0    0  501    0  0.00000000000E+00 -0.00000000000E+00 -0.46816513381E+00  0.46817207843E+00  0.25500000000E-02 0.  1.
         31    1    1    2    0    0 -0.22029048570E-01 -0.13839587583E+00  0.58575545892E+02  0.59047211122E+02  0.74470750000E+01 0. -1.
        -31    1    1    2    0    0  0.22029048570E-01  0.13839587583E+00  0.59464141953E+02  0.59928813963E+02  0.74470750000E+01 0. -1.
<mgrwt>
<rscale>  0 0.14897202E+02</rscale>
<asrwt>0</asrwt>
<pdfrwt beam="2">  1        2 0.99429933E+00 0.14897202E+02</pdfrwt>
<pdfrwt beam="1">  1       -2 0.98377702E+00 0.14897202E+02</pdfrwt>
<totfact> 0.71156718E-13</totfact>
</mgrwt>
</event>
<event>
 4    1 -0.4926183E-019  0.1495335E+02  0.7818608E-02  0.1869495E+00
         -2   -1    0    0    0  501 -0.00000000000E+00  0.00000000000E+00  0.11973244326E+03  0.11973244328E+03  0.25500000000E-02 0.  1.
          2   -1    0    0  501    0  0.00000000000E+00 -0.00000000000E+00 -0.46687622335E+00  0.46688318714E+00  0.25500000000E-02 0. -1.
         31    1    1    2    0    0 -0.64345811555E+00 -0.15159416422E+00  0.59081361522E+02  0.59552524921E+02  0.74470750000E+01 0. -1.
        -31    1    1    2    0    0  0.64345811555E+00  0.15159416422E+00  0.60184205512E+02  0.60646801551E+02  0.74470750000E+01 0.  1.
<mgrwt>
<rscale>  0 0.14953348E+02</rscale>
<asrwt>0</asrwt>
<pdfrwt beam="2">  1        2 0.99161249E+00 0.14953348E+02</pdfrwt>
<pdfrwt beam="1">  1       -2 0.99389213E+00 0.14953348E+02</pdfrwt>
<totfact>-0.15126948E-13</totfact>
</mgrwt>
</event>
<event>
 4    1 -0.4926183E-019  0.1490735E+02  0.7818608E-02  0.1870909E+00
          2   -1    0    0  501    0  0.00000000000E+00  0.00000000000E+00  0.11827620906E+03  0.11827620909E+03  0.25500000000E-02 0. -1.
         -2   -1    0    0    0  501 -0.00000000000E+00 -0.00000000000E+00 -0.46972141282E+00  0.46972833442E+00  0.25500000000E-02 0.  1.
         31    1    1    2    0    0  0.30928194063E+00 -0.43466504404E-01  0.58676552939E+02  0.59148071274E+02  0.74470750000E+01 0. -1.
        -31    1    1    2    0    0 -0.30928194063E+00  0.43466504404E-01  0.59129934711E+02  0.59597866150E+02  0.74470750000E+01 0.  1.
<mgrwt>
<rscale>  0 0.14907351E+02</rscale>
<asrwt>0</asrwt>
<pdfrwt beam="1">  1        2 0.98187449E+00 0.14907351E+02</pdfrwt>
<pdfrwt beam="2">  1       -2 0.99758377E+00 0.14907351E+02</pdfrwt>
<totfact>-0.40311574E-13</totfact>
</mgrwt>
</event>
<event>
 4    1 -0.4926183E-019  0.1493670E+02  0.7818608E-02  0.1870006E+00
          2   -1    0    0  501    0  0.00000000000E+00  0.00000000000E+00  0.11889406904E+03  0.11889406907E+03  0.25500000000E-02 0. -1.
         -2   -1    0    0    0  501 -0.00000000000E+00 -0.00000000000E+00 -0.46912224281E+00  0.46912917326E+00  0.25500000000E-02 0.  1.
         31    1    1    2    0    0 -0.15124061034E+00 -0.52440392851E+00  0.58097460360E+02  0.58575350614E+02  0.74470750000E+01 0.  1.
        -31    1    1    2    0    0  0.15124061034E+00  0.52440392851E+00  0.60327486435E+02  0.60787847624E+02  0.74470750000E+01 0. -1.
<mgrwt>
<rscale>  0 0.14936702E+02</rscale>
<asrwt>0</asrwt>
<pdfrwt beam="1">  1        2 0.98697844E+00 0.14936702E+02</pdfrwt>
<pdfrwt beam="2">  1       -2 0.99633677E+00 0.14936702E+02</pdfrwt>
<totfact>-0.23074160E-13</totfact>
</mgrwt>
</event>
<event>
 4    1 -0.4926183E-019  0.1493216E+02  0.7818608E-02  0.1870146E+00
          2   -1    0    0  501    0  0.00000000000E+00  0.00000000000E+00  0.11893850203E+03  0.11893850206E+03  0.25500000000E-02 0. -1.
         -2   -1    0    0    0  501 -0.00000000000E+00 -0.00000000000E+00 -0.46866170999E+00  0.46866864725E+00  0.25500000000E-02 0.  1.
         31    1    1    2    0    0  0.26154007567E+00 -0.92352462796E-02  0.62942147959E+02  0.63381711907E+02  0.74470750000E+01 0. -1.
        -31    1    1    2    0    0 -0.26154007567E+00  0.92352462796E-02  0.55527692366E+02  0.56025458803E+02  0.74470750000E+01 0.  1.
<mgrwt>
<rscale>  0 0.14932158E+02</rscale>
<asrwt>0</asrwt>
<pdfrwt beam="1">  1        2 0.98734203E+00 0.14932158E+02</pdfrwt>
<pdfrwt beam="2">  1       -2 0.99536399E+00 0.14932158E+02</pdfrwt>
<totfact>-0.24034847E-13</totfact>
</mgrwt>
</event>
<event>
 4    1 -0.4926183E-019  0.1493164E+02  0.7818608E-02  0.1870162E+00
         -2   -1    0    0    0  501 -0.00000000000E+00  0.00000000000E+00  0.12032913266E+03  0.12032913269E+03  0.25500000000E-02 0. -1.
          2   -1    0    0  501    0  0.00000000000E+00 -0.00000000000E+00 -0.46321307608E+00  0.46322009494E+00  0.25500000000E-02 0.  1.
         31    1    1    2    0    0  0.14142623414E+00 -0.50230074524E+00  0.59245585789E+02  0.59714074295E+02  0.74470750000E+01 0.  1.
        -31    1    1    2    0    0 -0.14142623414E+00  0.50230074524E+00  0.60620333794E+02  0.61078278486E+02  0.74470750000E+01 0. -1.
<mgrwt>
<rscale>  0 0.14931638E+02</rscale>
<asrwt>0</asrwt>
<pdfrwt beam="2">  1        2 0.98388113E+00 0.14931638E+02</pdfrwt>
<pdfrwt beam="1">  1       -2 0.99879569E+00 0.14931638E+02</pdfrwt>
<totfact>-0.16065898E-13</totfact>
</mgrwt>
</event>
<event>
 4    1 -0.4926183E-019  0.1492922E+02  0.7818608E-02  0.1870236E+00
          2   -1    0    0  501    0  0.00000000000E+00  0.00000000000E+00  0.11903099480E+03  0.11903099483E+03  0.25500000000E-02 0.  1.
         -2   -1    0    0    0  501 -0.00000000000E+00 -0.00000000000E+00 -0.46811342906E+00  0.46812037444E+00  0.25500000000E-02 0. -1.
         31    1    1    2    0    0  0.72073390976E-01 -0.15439039508E+00  0.55422146407E+02  0.55920499546E+02  0.74470750000E+01 0. -1.
        -31    1    1    2    0    0 -0.72073390976E-01  0.15439039508E+00  0.63140734968E+02  0.63578615660E+02  0.74470750000E+01 0.  1.
<mgrwt>
<rscale>  0 0.14929223E+02</rscale>
<asrwt>0</asrwt>
<pdfrwt beam="1">  1        2 0.98810229E+00 0.14929223E+02</pdfrwt>
<pdfrwt beam="2">  1       -2 0.99420714E+00 0.14929223E+02</pdfrwt>
<totfact>-0.21816596E-13</totfact>
</mgrwt>
</event>
<event>
 4    1 -0.4926183E-019  0.1491690E+02  0.7818608E-02  0.1870615E+00
         -2   -1    0    0    0  501 -0.00000000000E+00  0.00000000000E+00  0.11954512999E+03  0.11954513001E+03  0.25500000000E-02 0.  1.
          2   -1    0    0  501    0  0.00000000000E+00 -0.00000000000E+00 -0.46533099296E+00  0.46533797987E+00  0.25500000000E-02 0. -1.
         31    1    1    2    0    0 -0.39659210770E+00  0.10859284166E+00  0.59714532497E+02  0.60178512735E+02  0.74470750000E+01 0. -1.
        -31    1    1    2    0    0  0.39659210770E+00 -0.10859284166E+00  0.59365266498E+02  0.59831955259E+02  0.74470750000E+01 0.  1.
<mgrwt>
<rscale>  0 0.14916900E+02</rscale>
<asrwt>0</asrwt>
<pdfrwt beam="2">  1        2 0.98833729E+00 0.14916900E+02</pdfrwt>
<pdfrwt beam="1">  1       -2 0.99233052E+00 0.14916900E+02</pdfrwt>
<totfact>-0.15842833E-13</totfact>
</mgrwt>
</event>
<event>
 4    1 -0.4926183E-019  0.1490570E+02  0.7818608E-02  0.1870960E+00
          2   -1    0    0  501    0  0.00000000000E+00  0.00000000000E+00  0.11905171721E+03  0.11905171724E+03  0.25500000000E-02 0.  1.
         -2   -1    0    0    0  501 -0.00000000000E+00 -0.00000000000E+00 -0.46655799431E+00  0.46656496284E+00  0.25500000000E-02 0. -1.
         31    1    1    2    0    0 -0.16607388152E+00 -0.78782499612E-01  0.57459996544E+02  0.57940865683E+02  0.74470750000E+01 0. -1.
        -31    1    1    2    0    0  0.16607388152E+00  0.78782499612E-01  0.61125162671E+02  0.61577416516E+02  0.74470750000E+01 0.  1.
<mgrwt>
<rscale>  0 0.14905697E+02</rscale>
<asrwt>0</asrwt>
<pdfrwt beam="1">  1        2 0.98826078E+00 0.14905697E+02</pdfrwt>
<pdfrwt beam="2">  1       -2 0.99091724E+00 0.14905697E+02</pdfrwt>
<totfact>-0.69134937E-14</totfact>
</mgrwt>
</event>
<event>
 4    1 -0.4926183E-019  0.1490580E+02  0.7818608E-02  0.1870957E+00
          2   -1    0    0  501    0  0.00000000000E+00  0.00000000000E+00  0.11880044243E+03  0.11880044246E+03  0.25500000000E-02 0. -1.
         -2   -1    0    0    0  501 -0.00000000000E+00 -0.00000000000E+00 -0.46755160534E+00  0.46755855907E+00  0.25500000000E-02 0.  1.
         31    1    1    2    0    0 -0.27160607724E+00 -0.43182321877E-01  0.58319906973E+02  0.58794099279E+02  0.74470750000E+01 0.  1.
        -31    1    1    2    0    0  0.27160607724E+00  0.43182321877E-01  0.60012983850E+02  0.60473901736E+02  0.74470750000E+01 0.  1.
<mgrwt>
<rscale>  0 0.14905805E+02</rscale>
<asrwt>0</asrwt>
<pdfrwt beam="1">  1        2 0.98619128E+00 0.14905805E+02</pdfrwt>
<pdfrwt beam="2">  1       -2 0.99301105E+00 0.14905805E+02</pdfrwt>
<totfact>-0.25035119E-13</totfact>
</mgrwt>
</event>
<event>
 4    1 -0.4926183E-019  0.1494715E+02  0.7818608E-02  0.1869685E+00
         -2   -1    0    0    0  501 -0.00000000000E+00  0.00000000000E+00  0.11997348066E+03  0.11997348069E+03  0.25500000000E-02 0. -1.
          2   -1    0    0  501    0  0.00000000000E+00 -0.00000000000E+00 -0.46555221018E+00  0.46555919377E+00  0.25500000000E-02 0.  1.
         31    1    1    2    0    0 -0.84763935235E-01 -0.52082461555E+00  0.56998150924E+02  0.57485011769E+02  0.74470750000E+01 0. -1.
        -31    1    1    2    0    0  0.84763935235E-01  0.52082461555E+00  0.62509777531E+02  0.62954028117E+02  0.74470750000E+01 0. -1.
<mgrwt>
<rscale>  0 0.14947152E+02</rscale>
<asrwt>0</asrwt>
<pdfrwt beam="2">  1        2 0.98881901E+00 0.14947152E+02</pdfrwt>
<pdfrwt beam="1">  1       -2 0.99587425E+00 0.14947152E+02</pdfrwt>
<totfact>-0.19210557E-13</totfact>
</mgrwt>
</event>
<event>
 4    1  0.4926183E-019  0.1492043E+02  0.7818608E-02  0.1870506E+00
         -2   -1    0    0    0  501 -0.00000000000E+00  0.00000000000E+00  0.11850576909E+03  0.11850576912E+03  0.25500000000E-02 0. -1.
          2   -1    0    0  501    0  0.00000000000E+00 -0.00000000000E+00 -0.46963423592E+00  0.46964115881E+00  0.25500000000E-02 0.  1.
         31    1    1    2    0    0 -0.42475173332E+00  0.35277001058E-02  0.60008489117E+02  0.60470307743E+02  0.74470750000E+01 0.  1.
        -31    1    1    2    0    0  0.42475173332E+00 -0.35277001058E-02  0.58027645739E+02  0.58505102534E+02  0.74470750000E+01 0.  1.
<mgrwt>
<rscale>  0 0.14920426E+02</rscale>
<asrwt>0</asrwt>
<pdfrwt beam="2">  1        2 0.99740701E+00 0.14920426E+02</pdfrwt>
<pdfrwt beam="1">  1       -2 0.98377194E+00 0.14920426E+02</pdfrwt>
<totfact> 0.44498888E-13</totfact>
</mgrwt>
</event>
<event>
 4    1 -0.4926183E-019  0.1498750E+02  0.7818608E-02  0.1868450E+00
         -2   -1    0    0    0  501 -0.00000000000E+00  0.00000000000E+00  0.12011669583E+03  0.12011669586E+03  0.25500000000E-02 0.  1.
          2   -1    0    0  501    0  0.00000000000E+00 -0.00000000000E+00 -0.46751123702E+00  0.46751819135E+00  0.25500000000E-02 0. -1.
         31    1    1    2    0    0  0.24589306529E+00 -0.27478853579E-01  0.66241881526E+02  0.66659635558E+02  0.74470750000E+01 0.  1.
        -31    1    1    2    0    0 -0.24589306529E+00  0.27478853579E-01  0.53407303066E+02  0.53924578490E+02  0.74470750000E+01 0. -1.
<mgrwt>
<rscale>  0 0.14987505E+02</rscale>
<asrwt>0</asrwt>
<pdfrwt beam="2">  1        2 0.99296831E+00 0.14987505E+02</pdfrwt>
<pdfrwt beam="1">  1       -2 0.99707465E+00 0.14987505E+02</pdfrwt>
<totfact>-0.11125620E-13</totfact>
</mgrwt>
</event>
<event>
 4    1 -0.4926183E-019  0.1492372E+02  0.7818608E-02  0.1870405E+00
          2   -1    0    0  501    0  0.00000000000E+00  0.00000000000E+00  0.11935804544E+03  0.11935804547E+03  0.25500000000E-02 0. -1.
         -2   -1    0    0    0  501 -0.00000000000E+00 -0.00000000000E+00 -0.46648669662E+00  0.46649366622E+00  0.25500000000E-02 0.  1.
         31    1    1    2    0    0  0.16511788512E+00  0.81197387381E-01  0.62913923805E+02  0.63353410259E+02  0.74470750000E+01 0. -1.
        -31    1    1    2    0    0 -0.16511788512E+00 -0.81197387381E-01  0.55977634938E+02  0.56471128873E+02  0.74470750000E+01 0.  1.
<mgrwt>
<rscale>  0 0.14923721E+02</rscale>
<asrwt>0</asrwt>
<pdfrwt beam="1">  1        2 0.99079313E+00 0.14923721E+02</pdfrwt>
<pdfrwt beam="2">  1       -2 0.99077633E+00 0.14923721E+02</pdfrwt>
<totfact>-0.44260981E-14</totfact>
</mgrwt>
</event>
<event>
 4    1 -0.4926183E-019  0.1498823E+02  0.7818608E-02  0.1868428E+00
         -2   -1    0    0    0  501 -0.00000000000E+00  0.00000000000E+00  0.12012760674E+03  0.12012760677E+03  0.25500000000E-02 0.  1.
          2   -1    0    0  501    0  0.00000000000E+00 -0.00000000000E+00 -0.46751377268E+00  0.46752072696E+00  0.25500000000E-02 0. -1.
         31    1    1    2    0    0 -0.27375803785E-01 -0.30172922899E+00  0.53540697993E+02  0.54056979730E+02  0.74470750000E+01 0. -1.
        -31    1    1    2    0    0  0.27375803785E-01  0.30172922899E+00  0.66119394977E+02  0.66538147766E+02  0.74470750000E+01 0.  1.
<mgrwt>
<rscale>  0 0.14988226E+02</rscale>
<asrwt>0</asrwt>
<pdfrwt beam="2">  1        2 0.99297402E+00 0.14988226E+02</pdfrwt>
<pdfrwt beam="1">  1       -2 0.99716489E+00 0.14988226E+02</pdfrwt>
<totfact>-0.10890108E-13</totfact>
</mgrwt>
</event>
<event>
 4    1 -0.4926183E-019  0.1494370E+02  0.7818608E-02  0.1869791E+00
          2   -1    0    0  501    0  0.00000000000E+00  0.00000000000E+00  0.11876673981E+03  0.11876673984E+03  0.25500000000E-02 0. -1.
         -2   -1    0    0    0  501 -0.00000000000E+00 -0.00000000000E+00 -0.47006512818E+00  0.47007204472E+00  0.25500000000E-02 0.  1.
         31    1    1    2    0    0  0.32206653859E+00  0.50763636891E+00  0.59869513126E+02  0.60333895528E+02  0.74470750000E+01 0.  1.
        -31    1    1    2    0    0 -0.32206653859E+00 -0.50763636891E+00  0.58427161557E+02  0.58902916356E+02  0.74470750000E+01 0.  1.
<mgrwt>
<rscale>  0 0.14943697E+02</rscale>
<asrwt>0</asrwt>
<pdfrwt beam="1">  1        2 0.98593339E+00 0.14943697E+02</pdfrwt>
<pdfrwt beam="2">  1       -2 0.99832717E+00 0.14943697E+02</pdfrwt>
<totfact>-0.15352626E-13</totfact>
</mgrwt>
</event>
<event>
 4    1  0.4926183E-019  0.1494019E+02  0.7818608E-02  0.1869899E+00
         -2   -1    0    0    0  501 -0.00000000000E+00  0.00000000000E+00  0.11865673124E+03  0.11865673127E+03  0.25500000000E-02 0. -1.
          2   -1    0    0  501    0  0.00000000000E+00 -0.00000000000E+00 -0.47028046204E+00  0.47028737542E+00  0.25500000000E-02 0.  1.
         31    1    1    2    0    0  0.43606247708E+00 -0.36346089282E+00  0.60253525479E+02  0.60714648258E+02  0.74470750000E+01 0. -1.
        -31    1    1    2    0    0 -0.43606247708E+00  0.36346089282E+00  0.57932925299E+02  0.58412370386E+02  0.74470750000E+01 0.  1.
<mgrwt>
<rscale>  0 0.14940195E+02</rscale>
<asrwt>0</asrwt>
<pdfrwt beam="2">  1        2 0.99877904E+00 0.14940195E+02</pdfrwt>
<pdfrwt beam="1">  1       -2 0.98502554E+00 0.14940195E+02</pdfrwt>
<totfact> 0.17593818E-13</totfact>
</mgrwt>
</event>
<event>
 4    1 -0.4926183E-019  0.1500503E+02  0.7818608E-02  0.1867915E+00
          2   -1    0    0  501    0  0.00000000000E+00  0.00000000000E+00  0.12029144849E+03  0.12029144851E+03  0.25500000000E-02 0.  1.
         -2   -1    0    0    0  501 -0.00000000000E+00 -0.00000000000E+00 -0.46792437899E+00  0.46793132717E+00  0.25500000000E-02 0. -1.
         31    1    1    2    0    0 -0.68244852482E+00 -0.56976431067E+00  0.61489424260E+02  0.61945125629E+02  0.74470750000E+01 0. -1.
        -31    1    1    2    0    0  0.68244852482E+00  0.56976431067E+00  0.58334099849E+02  0.58814254213E+02  0.74470750000E+01 0.  1.
<mgrwt>
<rscale>  0 0.15005029E+02</rscale>
<asrwt>0</asrwt>
<pdfrwt beam="1">  1        2 0.99852304E+00 0.15005029E+02</pdfrwt>
<pdfrwt beam="2">  1       -2 0.99384798E+00 0.15005029E+02</pdfrwt>
<totfact>-0.49588992E-14</totfact>
</mgrwt>
</event>
<event>
 4    1 -0.4926183E-019  0.1492902E+02  0.7818608E-02  0.1870242E+00
         -2   -1    0    0    0  501 -0.00000000000E+00  0.00000000000E+00  0.12013469684E+03  0.12013469686E+03  0.25500000000E-02 0.  1.
          2   -1    0    0  501    0  0.00000000000E+00 -0.00000000000E+00 -0.46379987770E+00  0.46380688767E+00  0.25500000000E-02 0. -1.
         31    1    1    2    0    0 -0.33831090695E+00  0.29332865262E+00  0.57865643656E+02  0.58344598188E+02  0.74470750000E+01 0.  1.
        -31    1    1    2    0    0  0.33831090695E+00 -0.29332865262E+00  0.61805253303E+02  0.62253905563E+02  0.74470750000E+01 0. -1.
<mgrwt>
<rscale>  0 0.14929016E+02</rscale>
<asrwt>0</asrwt>
<pdfrwt beam="2">  1        2 0.98511659E+00 0.14929016E+02</pdfrwt>
<pdfrwt beam="1">  1       -2 0.99719281E+00 0.14929016E+02</pdfrwt>
<totfact>-0.26103810E-13</totfact>
</mgrwt>
</event>
<event>
 4    1 -0.4926183E-019  0.1490250E+02  0.7818608E-02  0.1871058E+00
          2   -1    0    0  501    0  0.00000000000E+00  0.00000000000E+00  0.11850721475E+03  0.11850721478E+03  0.25500000000E-02 0.  1.
         -2   -1    0    0    0  501 -0.00000000000E+00 -0.00000000000E+00 -0.46850089561E+00  0.46850783524E+00  0.25500000000E-02 0. -1.
         31    1    1    2    0    0 -0.17340662999E+00 -0.14379049971E+00  0.59874724266E+02  0.60336492089E+02  0.74470750000E+01 0.  1.
        -31    1    1    2    0    0  0.17340662999E+00  0.14379049971E+00  0.58163989588E+02  0.58639230524E+02  0.74470750000E+01 0. -1.
<mgrwt>
<rscale>  0 0.14902503E+02</rscale>
<asrwt>0</asrwt>
<pdfrwt beam="1">  1        2 0.98377452E+00 0.14902503E+02</pdfrwt>
<pdfrwt beam="2">  1       -2 0.99500959E+00 0.14902503E+02</pdfrwt>
<totfact>-0.42492868E-13</totfact>
</mgrwt>
</event>
<event>
 4    1 -0.4926183E-019  0.1501411E+02  0.7818608E-02  0.1867638E+00
         -2   -1    0    0    0  501 -0.00000000000E+00  0.00000000000E+00  0.11989871985E+03  0.11989871988E+03  0.25500000000E-02 0. -1.
          2   -1    0    0  501    0  0.00000000000E+00 -0.00000000000E+00 -0.47002563653E+00  0.47003255365E+00  0.25500000000E-02 0.  1.
         31    1    1    2    0    0  0.40206980213E+00  0.78432108811E+00  0.56935493315E+02  0.57427224769E+02  0.74470750000E+01 0.  1.
        -31    1    1    2    0    0 -0.40206980213E+00 -0.78432108811E+00  0.62493200903E+02  0.62941527665E+02  0.74470750000E+01 0. -1.
<mgrwt>
<rscale>  0 0.15014112E+02</rscale>
<asrwt>0</asrwt>
<pdfrwt beam="2">  1        2 0.99828078E+00 0.15014112E+02</pdfrwt>
<pdfrwt beam="1">  1       -2 0.99529306E+00 0.15014112E+02</pdfrwt>
<totfact>-0.57510000E-14</totfact>
</mgrwt>
</event>
<event>
 4    1 -0.4926183E-019  0.1492430E+02  0.7818608E-02  0.1870387E+00
          2   -1    0    0  501    0  0.00000000000E+00  0.00000000000E+00  0.11870516661E+03  0.11870516663E+03  0.25500000000E-02 0. -1.
         -2   -1    0    0    0  501 -0.00000000000E+00 -0.00000000000E+00 -0.46908853570E+00  0.46909546664E+00  0.25500000000E-02 0.  1.
         31    1    1    2    0    0  0.11164566664E+00  0.26846626486E+00  0.62107793234E+02  0.62553348794E+02  0.74470750000E+01 0. -1.
        -31    1    1    2    0    0 -0.11164566664E+00 -0.26846626486E+00  0.56128284837E+02  0.56620913307E+02  0.74470750000E+01 0.  1.
<mgrwt>
<rscale>  0 0.14924295E+02</rscale>
<asrwt>0</asrwt>
<pdfrwt beam="1">  1        2 0.98541618E+00 0.14924295E+02</pdfrwt>
<pdfrwt beam="2">  1       -2 0.99625924E+00 0.14924295E+02</pdfrwt>
<totfact>-0.29541710E-13</totfact>
</mgrwt>
</event>
<event>
 4    1  0.4926183E-019  0.1492569E+02  0.7818608E-02  0.1870345E+00
         -2   -1    0    0    0  501 -0.00000000000E+00  0.00000000000E+00  0.11864366892E+03  0.11864366895E+03  0.25500000000E-02 0. -1.
          2   -1    0    0  501    0  0.00000000000E+00 -0.00000000000E+00 -0.46941919197E+00  0.46942611804E+00  0.25500000000E-02 0.  1.
         31    1    1    2    0    0 -0.10582014553E-01 -0.44437229636E+00  0.60633030371E+02  0.61090268265E+02  0.74470750000E+01 0. -1.
        -31    1    1    2    0    0  0.10582014553E-01  0.44437229636E+00  0.57541219360E+02  0.58022826803E+02  0.74470750000E+01 0.  1.
<mgrwt>
<rscale>  0 0.14925686E+02</rscale>
<asrwt>0</asrwt>
<pdfrwt beam="2">  1        2 0.99695668E+00 0.14925686E+02</pdfrwt>
<pdfrwt beam="1">  1       -2 0.98491041E+00 0.14925686E+02</pdfrwt>
<totfact> 0.37058522E-13</totfact>
</mgrwt>
</event>
<event>
 4    1 -0.4926183E-019  0.1498718E+02  0.7818608E-02  0.1868460E+00
          2   -1    0    0  501    0  0.00000000000E+00  0.00000000000E+00  0.12008438568E+03  0.12008438571E+03  0.25500000000E-02 0.  1.
         -2   -1    0    0    0  501 -0.00000000000E+00 -0.00000000000E+00 -0.46761656323E+00  0.46762351600E+00  0.25500000000E-02 0. -1.
         31    1    1    2    0    0  0.48030255742E+00 -0.66241328563E+00  0.61091861134E+02  0.61549524001E+02  0.74470750000E+01 0.  1.
        -31    1    1    2    0    0 -0.48030255742E+00  0.66241328563E+00  0.58524907985E+02  0.59002485224E+02  0.74470750000E+01 0.  1.
<mgrwt>
<rscale>  0 0.14987177E+02</rscale>
<asrwt>0</asrwt>
<pdfrwt beam="1">  1        2 0.99680836E+00 0.14987177E+02</pdfrwt>
<pdfrwt beam="2">  1       -2 0.99319011E+00 0.14987177E+02</pdfrwt>
<totfact>-0.82197286E-14</totfact>
</mgrwt>
</event>
<event>
 4    1 -0.4926183E-019  0.1493129E+02  0.7818608E-02  0.1870173E+00
         -2   -1    0    0    0  501 -0.00000000000E+00  0.00000000000E+00  0.12031067784E+03  0.12031067786E+03  0.25500000000E-02 0.  1.
          2   -1    0    0  501    0  0.00000000000E+00 -0.00000000000E+00 -0.46326224616E+00  0.46326926427E+00  0.25500000000E-02 0. -1.
         31    1    1    2    0    0  0.54699741950E-01 -0.45785478746E+00  0.57873092741E+02  0.58352090044E+02  0.74470750000E+01 0.  1.
        -31    1    1    2    0    0 -0.54699741950E-01  0.45785478746E+00  0.61974322848E+02  0.62421857083E+02  0.74470750000E+01 0.  1.
<mgrwt>
<rscale>  0 0.14931285E+02</rscale>
<asrwt>0</asrwt>
<pdfrwt beam="2">  1        2 0.98398458E+00 0.14931285E+02</pdfrwt>
<pdfrwt beam="1">  1       -2 0.99864350E+00 0.14931285E+02</pdfrwt>
<totfact>-0.17553506E-13</totfact>
</mgrwt>
</event>
<event>
 4    1 -0.4926183E-019  0.1499720E+02  0.7818608E-02  0.1868154E+00
         -2   -1    0    0    0  501 -0.00000000000E+00  0.00000000000E+00  0.11970708503E+03  0.11970708506E+03  0.25500000000E-02 0.  1.
          2   -1    0    0  501    0  0.00000000000E+00 -0.00000000000E+00 -0.46971801832E+00  0.46972493998E+00  0.25500000000E-02 0. -1.
         31    1    1    2    0    0 -0.15382432303E+00 -0.85973070380E+00  0.58935556663E+02  0.59410618276E+02  0.74470750000E+01 0. -1.
        -31    1    1    2    0    0  0.15382432303E+00  0.85973070380E+00  0.60301810353E+02  0.60766191725E+02  0.74470750000E+01 0.  1.
<mgrwt>
<rscale>  0 0.14997199E+02</rscale>
<asrwt>0</asrwt>
<pdfrwt beam="2">  1        2 0.99762376E+00 0.14997199E+02</pdfrwt>
<pdfrwt beam="1">  1       -2 0.99370595E+00 0.14997199E+02</pdfrwt>
<totfact>-0.71335523E-14</totfact>
</mgrwt>
</event>
<event>
 4    1 -0.4926183E-019  0.1499205E+02  0.7818608E-02  0.1868311E+00
         -2   -1    0    0    0  501 -0.00000000000E+00  0.00000000000E+00  0.11995624013E+03  0.11995624016E+03  0.25500000000E-02 0.  1.
          2   -1    0    0  501    0  0.00000000000E+00 -0.00000000000E+00 -0.46842049566E+00  0.46842743649E+00  0.25500000000E-02 0. -1.
         31    1    1    2    0    0  0.75863585113E+00 -0.22477016345E+00  0.62351774406E+02  0.62799910411E+02  0.74470750000E+01 0.  1.
        -31    1    1    2    0    0 -0.75863585113E+00  0.22477016345E+00  0.57136045231E+02  0.57624757186E+02  0.74470750000E+01 0.  1.
<mgrwt>
<rscale>  0 0.14992049E+02</rscale>
<asrwt>0</asrwt>
<pdfrwt beam="2">  1        2 0.99488682E+00 0.14992049E+02</pdfrwt>
<pdfrwt beam="1">  1       -2 0.99575541E+00 0.14992049E+02</pdfrwt>
<totfact>-0.11593699E-13</totfact>
</mgrwt>
</event>
<event>
 4    1  0.4926183E-019  0.1489876E+02  0.7818608E-02  0.1871174E+00
          2   -1    0    0  501    0  0.00000000000E+00  0.00000000000E+00  0.11991136868E+03  0.11991136871E+03  0.25500000000E-02 0.  1.
         -2   -1    0    0    0  501 -0.00000000000E+00 -0.00000000000E+00 -0.46278228775E+00  0.46278931313E+00  0.25500000000E-02 0. -1.
         31    1    1    2    0    0  0.82428012201E-02  0.14770970869E+00  0.58822071068E+02  0.59291794178E+02  0.74470750000E+01 0. -1.
        -31    1    1    2    0    0 -0.82428012201E-02 -0.14770970869E+00  0.60626515329E+02  0.61082363847E+02  0.74470750000E+01 0.  1.
<mgrwt>
<rscale>  0 0.14898763E+02</rscale>
<asrwt>0</asrwt>
<pdfrwt beam="1">  1        2 0.99533776E+00 0.14898763E+02</pdfrwt>
<pdfrwt beam="2">  1       -2 0.98295652E+00 0.14898763E+02</pdfrwt>
<totfact> 0.77495807E-13</totfact>
</mgrwt>
</event>
<event>
 4    1  0.4926183E-019  0.1489915E+02  0.7818608E-02  0.1871162E+00
          2   -1    0    0  501    0  0.00000000000E+00  0.00000000000E+00  0.11951872044E+03  0.11951872047E+03  0.25500000000E-02 0. -1.
         -2   -1    0    0    0  501 -0.00000000000E+00 -0.00000000000E+00 -0.46432701064E+00  0.46433401265E+00  0.25500000000E-02 0.  1.
         31    1    1    2    0    0 -0.90959642063E-01 -0.44817011268E-01  0.58204353941E+02  0.58678923183E+02  0.74470750000E+01 0.  1.
        -31    1    1    2    0    0  0.90959642063E-01  0.44817011268E-01  0.60850039490E+02  0.61304131298E+02  0.74470750000E+01 0. -1.
<mgrwt>
<rscale>  0 0.14899153E+02</rscale>
<asrwt>0</asrwt>
<pdfrwt beam="1">  1        2 0.99210384E+00 0.14899153E+02</pdfrwt>
<pdfrwt beam="2">  1       -2 0.98621233E+00 0.14899153E+02</pdfrwt>
<totfact> 0.41772303E-13</totfact>
</mgrwt>
</event>
<event>
 4    1  0.4926183E-019  0.1491645E+02  0.7818608E-02  0.1870629E+00
          2   -1    0    0  501    0  0.00000000000E+00  0.00000000000E+00  0.11949640932E+03  0.11949640935E+03  0.25500000000E-02 0. -1.
         -2   -1    0    0    0  501 -0.00000000000E+00 -0.00000000000E+00 -0.46549249210E+00  0.46549947659E+00  0.25500000000E-02 0.  1.
         31    1    1    2    0    0  0.37108018754E+00  0.16767715414E+00  0.59362919786E+02  0.59829599595E+02  0.74470750000E+01 0. -1.
        -31    1    1    2    0    0 -0.37108018754E+00 -0.16767715414E+00  0.59667997046E+02  0.60132309233E+02  0.74470750000E+01 0.  1.
<mgrwt>
<rscale>  0 0.14916448E+02</rscale>
<asrwt>0</asrwt>
<pdfrwt beam="1">  1        2 0.99192900E+00 0.14916448E+02</pdfrwt>
<pdfrwt beam="2">  1       -2 0.98867741E+00 0.14916448E+02</pdfrwt>
<totfact> 0.12273179E-13</totfact>
</mgrwt>
</event>
<event>
 4    1 -0.4926183E-019  0.1492334E+02  0.7818608E-02  0.1870417E+00
          2   -1    0    0  501    0  0.00000000000E+00  0.00000000000E+00  0.11856418573E+03  0.11856418576E+03  0.25500000000E-02 0. -1.
         -2   -1    0    0    0  501 -0.00000000000E+00 -0.00000000000E+00 -0.46958630451E+00  0.46959322811E+00  0.25500000000E-02 0.  1.
         31    1    1    2    0    0 -0.12539459586E+00 -0.43841533111E+00  0.59831811908E+02  0.60295211867E+02  0.74470750000E+01 0. -1.
        -31    1    1    2    0    0  0.12539459586E+00  0.43841533111E+00  0.58262787522E+02  0.58738567124E+02  0.74470750000E+01 0.  1.
<mgrwt>
<rscale>  0 0.14923342E+02</rscale>
<asrwt>0</asrwt>
<pdfrwt beam="1">  1        2 0.98425457E+00 0.14923342E+02</pdfrwt>
<pdfrwt beam="2">  1       -2 0.99730755E+00 0.14923342E+02</pdfrwt>
<totfact>-0.29204701E-13</totfact>
</mgrwt>
</event>
<event>
 4    1 -0.4926183E-019  0.1497910E+02  0.7818608E-02  0.1868707E+00
          2   -1    0    0  501    0  0.00000000000E+00  0.00000000000E+00  0.12024741566E+03  0.12024741569E+03  0.25500000000E-02 0.  1.
         -2   -1    0    0    0  501 -0.00000000000E+00 -0.00000000000E+00 -0.46647915052E+00  0.46648612023E+00  0.25500000000E-02 0. -1.
         31    1    1    2    0    0  0.39854323594E+00 -0.45001462241E+00  0.64101608072E+02  0.64535543953E+02  0.74470750000E+01 0.  1.
        -31    1    1    2    0    0 -0.39854323594E+00  0.45001462241E+00  0.55679328440E+02  0.56178357857E+02  0.74470750000E+01 0. -1.
<mgrwt>
<rscale>  0 0.14979097E+02</rscale>
<asrwt>0</asrwt>
<pdfrwt beam="1">  1        2 0.99814700E+00 0.14979097E+02</pdfrwt>
<pdfrwt beam="2">  1       -2 0.99078889E+00 0.14979097E+02</pdfrwt>
<totfact>-0.16690168E-14</totfact>
</mgrwt>
</event>
<event>
 4    1  0.4926183E-019  0.1490884E+02  0.7818608E-02  0.1870863E+00
          2   -1    0    0  501    0  0.00000000000E+00  0.00000000000E+00  0.11958622155E+03  0.11958622158E+03  0.25500000000E-02 0.  1.
         -2   -1    0    0    0  501 -0.00000000000E+00 -0.00000000000E+00 -0.46466838666E+00  0.46467538353E+00  0.25500000000E-02 0. -1.
         31    1    1    2    0    0 -0.84342276609E-01  0.29054958650E+00  0.58483462528E+02  0.58956474182E+02  0.74470750000E+01 0.  1.
        -31    1    1    2    0    0  0.84342276609E-01 -0.29054958650E+00  0.60638090637E+02  0.61094422781E+02  0.74470750000E+01 0.  1.
<mgrwt>
<rscale>  0 0.14908837E+02</rscale>
<asrwt>0</asrwt>
<pdfrwt beam="1">  1        2 0.99266481E+00 0.14908837E+02</pdfrwt>
<pdfrwt beam="2">  1       -2 0.98693673E+00 0.14908837E+02</pdfrwt>
<totfact> 0.30513274E-13</totfact>
</mgrwt>
</event>
<event>
 4    1  0.4926183E-019  0.1490325E+02  0.7818608E-02  0.1871035E+00
          2   -1    0    0  501    0  0.00000000000E+00  0.00000000000E+00  0.12015265822E+03  0.12015265825E+03  0.25500000000E-02 0. -1.
         -2   -1    0    0    0  501 -0.00000000000E+00 -0.00000000000E+00 -0.46213105775E+00  0.46213809304E+00  0.25500000000E-02 0.  1.
         31    1    1    2    0    0  0.12739965312E+00 -0.17312676949E+00  0.58656601986E+02  0.59127845269E+02  0.74470750000E+01 0.  1.
        -31    1    1    2    0    0 -0.12739965312E+00  0.17312676949E+00  0.61033925178E+02  0.61486951073E+02  0.74470750000E+01 0. -1.
<mgrwt>
<rscale>  0 0.14903248E+02</rscale>
<asrwt>0</asrwt>
<pdfrwt beam="1">  1        2 0.99732753E+00 0.14903248E+02</pdfrwt>
<pdfrwt beam="2">  1       -2 0.98158619E+00 0.14903248E+02</pdfrwt>
<totfact> 0.72517583E-13</totfact>
</mgrwt>
</event>
<event>
 4    1 -0.4926183E-019  0.1495263E+02  0.7818608E-02  0.1869517E+00
          2   -1    0    0  501    0  0.00000000000E+00  0.00000000000E+00  0.11905780339E+03  0.11905780341E+03  0.25500000000E-02 0. -1.
         -2   -1    0    0    0  501 -0.00000000000E+00 -0.00000000000E+00 -0.46947705580E+00  0.46948398100E+00  0.25500000000E-02 0.  1.
         31    1    1    2    0    0  0.43091484048E+00  0.48553529324E+00  0.60272026232E+02  0.60733825042E+02  0.74470750000E+01 0.  1.
        -31    1    1    2    0    0 -0.43091484048E+00 -0.48553529324E+00  0.58316300099E+02  0.58793462353E+02  0.74470750000E+01 0.  1.
<mgrwt>
<rscale>  0 0.14952635E+02</rscale>
<asrwt>0</asrwt>
<pdfrwt beam="1">  1        2 0.98833524E+00 0.14952635E+02</pdfrwt>
<pdfrwt beam="2">  1       -2 0.99709275E+00 0.14952635E+02</pdfrwt>
<totfact>-0.16794443E-13</totfact>
</mgrwt>
</event>
<event>
 4    1 -0.4926183E-019  0.1492481E+02  0.7818608E-02  0.1870372E+00
          2   -1    0    0  501    0  0.00000000000E+00  0.00000000000E+00  0.11834108603E+03  0.11834108606E+03  0.25500000000E-02 0. -1.
         -2   -1    0    0    0  501 -0.00000000000E+00 -0.00000000000E+00 -0.47056387204E+00  0.47057078125E+00  0.25500000000E-02 0.  1.
         31    1    1    2    0    0  0.68622242078E-01  0.36972454679E+00  0.56585571980E+02  0.57074751752E+02  0.74470750000E+01 0.  1.
        -31    1    1    2    0    0 -0.68622242078E-01 -0.36972454679E+00  0.61284950179E+02  0.61736905087E+02  0.74470750000E+01 0. -1.
<mgrwt>
<rscale>  0 0.14924805E+02</rscale>
<asrwt>0</asrwt>
<pdfrwt beam="1">  1        2 0.98241791E+00 0.14924805E+02</pdfrwt>
<pdfrwt beam="2">  1       -2 0.99936803E+00 0.14924805E+02</pdfrwt>
<totfact>-0.11304864E-13</totfact>
</mgrwt>
</event>
<event>
 4    1 -0.4926183E-019  0.1491886E+02  0.7818608E-02  0.1870555E+00
          2   -1    0    0  501    0  0.00000000000E+00  0.00000000000E+00  0.11889888527E+03  0.11889888530E+03  0.25500000000E-02 0.  1.
         -2   -1    0    0    0  501 -0.00000000000E+00 -0.00000000000E+00 -0.46798289808E+00  0.46798984539E+00  0.25500000000E-02 0. -1.
         31    1    1    2    0    0 -0.29619876891E+00  0.15330309977E+00  0.57055167357E+02  0.57540092838E+02  0.74470750000E+01 0. -1.
        -31    1    1    2    0    0  0.29619876891E+00 -0.15330309977E+00  0.61375735018E+02  0.61826782308E+02  0.74470750000E+01 0.  1.
<mgrwt>
<rscale>  0 0.14918855E+02</rscale>
<asrwt>0</asrwt>
<pdfrwt beam="1">  1        2 0.98700884E+00 0.14918855E+02</pdfrwt>
<pdfrwt beam="2">  1       -2 0.99392668E+00 0.14918855E+02</pdfrwt>
<totfact>-0.24849284E-13</totfact>
</mgrwt>
</event>
<event>
 4    1 -0.4926183E-019  0.1500191E+02  0.7818608E-02  0.1868010E+00
         -2   -1    0    0    0  501 -0.00000000000E+00  0.00000000000E+00  0.12031215362E+03  0.12031215365E+03  0.25500000000E-02 0.  1.
          2   -1    0    0  501    0  0.00000000000E+00 -0.00000000000E+00 -0.46764949660E+00  0.46765644887E+00  0.25500000000E-02 0. -1.
         31    1    1    2    0    0  0.34587449240E+00 -0.22708270090E+00  0.66333859752E+02  0.66751861932E+02  0.74470750000E+01 0.  1.
        -31    1    1    2    0    0 -0.34587449240E+00  0.22708270090E+00  0.53510644372E+02  0.54027948165E+02  0.74470750000E+01 0. -1.
<mgrwt>
<rscale>  0 0.15001912E+02</rscale>
<asrwt>0</asrwt>
<pdfrwt beam="2">  1        2 0.99326708E+00 0.15001912E+02</pdfrwt>
<pdfrwt beam="1">  1       -2 0.99869198E+00 0.15001912E+02</pdfrwt>
<totfact>-0.57262744E-14</totfact>
</mgrwt>
</event>
<event>
 4    1 -0.4926183E-019  0.1495901E+02  0.7818608E-02  0.1869322E+00
         -2   -1    0    0    0  501 -0.00000000000E+00  0.00000000000E+00  0.12027644719E+03  0.12027644722E+03  0.25500000000E-02 0. -1.
          2   -1    0    0  501    0  0.00000000000E+00 -0.00000000000E+00 -0.46511645083E+00  0.46512344096E+00  0.25500000000E-02 0.  1.
         31    1    1    2    0    0 -0.28200135355E+00  0.27162147941E+00  0.55263686206E+02  0.55764569774E+02  0.74470750000E+01 0.  1.
        -31    1    1    2    0    0  0.28200135355E+00 -0.27162147941E+00  0.64547644532E+02  0.64977000882E+02  0.74470750000E+01 0. -1.
<mgrwt>
<rscale>  0 0.14959008E+02</rscale>
<asrwt>0</asrwt>
<pdfrwt beam="2">  1        2 0.98790667E+00 0.14959008E+02</pdfrwt>
<pdfrwt beam="1">  1       -2 0.99837578E+00 0.14959008E+02</pdfrwt>
<totfact>-0.11298100E-13</totfact>
</mgrwt>
</event>
<event>
 4    1  0.4926183E-019  0.1491877E+02  0.7818608E-02  0.1870558E+00
         -2   -1    0    0    0  501 -0.00000000000E+00  0.00000000000E+00  0.11865559458E+03  0.11865559461E+03  0.25500000000E-02 0.  1.
          2   -1    0    0  501    0  0.00000000000E+00 -0.00000000000E+00 -0.46893684446E+00  0.46894377764E+00  0.25500000000E-02 0. -1.
         31    1    1    2    0    0 -0.91593065136E-01  0.28382652331E+00  0.56638425326E+02  0.57126693378E+02  0.74470750000E+01 0. -1.
        -31    1    1    2    0    0  0.91593065136E-01 -0.28382652331E+00  0.61548232412E+02  0.61997845010E+02  0.74470750000E+01 0.  1.
<mgrwt>
<rscale>  0 0.14918766E+02</rscale>
<asrwt>0</asrwt>
<pdfrwt beam="2">  1        2 0.99593671E+00 0.14918766E+02</pdfrwt>
<pdfrwt beam="1">  1       -2 0.98500503E+00 0.14918766E+02</pdfrwt>
<totfact> 0.43227558E-13</totfact>
</mgrwt>
</event>
<event>
 4    1 -0.4926183E-019  0.1491103E+02  0.7818608E-02  0.1870796E+00
          2   -1    0    0  501    0  0.00000000000E+00  0.00000000000E+00  0.11848638447E+03  0.11848638449E+03  0.25500000000E-02 0. -1.
         -2   -1    0    0    0  501 -0.00000000000E+00 -0.00000000000E+00 -0.46911991740E+00  0.46912684788E+00  0.25500000000E-02 0.  1.
         31    1    1    2    0    0 -0.30762859660E+00  0.10914495861E+00  0.60115856102E+02  0.60576246409E+02  0.74470750000E+01 0. -1.
        -31    1    1    2    0    0  0.30762859660E+00 -0.10914495861E+00  0.57901408446E+02  0.58379264932E+02  0.74470750000E+01 0.  1.
<mgrwt>
<rscale>  0 0.14911034E+02</rscale>
<asrwt>0</asrwt>
<pdfrwt beam="1">  1        2 0.98360740E+00 0.14911034E+02</pdfrwt>
<pdfrwt beam="2">  1       -2 0.99631838E+00 0.14911034E+02</pdfrwt>
<totfact>-0.39452218E-13</totfact>
</mgrwt>
</event>
<event>
 4    1 -0.4926183E-019  0.1503369E+02  0.7818608E-02  0.1867042E+00
          2   -1    0    0  501    0  0.00000000000E+00  0.00000000000E+00  0.12021355734E+03  0.12021355736E+03  0.25500000000E-02 0. -1.
         -2   -1    0    0    0  501 -0.00000000000E+00 -0.00000000000E+00 -0.47001811298E+00  0.47002503022E+00  0.25500000000E-02 0.  1.
         31    1    1    2    0    0  0.39993550742E+00  0.42621646245E+00  0.66599756910E+02  0.67017372042E+02  0.74470750000E+01 0. -1.
        -31    1    1    2    0    0 -0.39993550742E+00 -0.42621646245E+00  0.53143782314E+02  0.53666210353E+02  0.74470750000E+01 0.  1.
<mgrwt>
<rscale>  0 0.15033691E+02</rscale>
<asrwt>0</asrwt>
<pdfrwt beam="1">  1        2 0.99789630E+00 0.15033691E+02</pdfrwt>
<pdfrwt beam="2">  1       -2 0.99827508E+00 0.15033691E+02</pdfrwt>
<totfact>-0.35859524E-14</totfact>
</mgrwt>
</event>
<event>
 4    1 -0.4926183E-019  0.1500003E+02  0.7818608E-02  0.1868068E+00
          2   -1    0    0  501    0  0.00000000000E+00  0.00000000000E+00  0.12020239566E+03  0.12020239569E+03  0.25500000000E-02 0.  1.
         -2   -1    0    0    0  501 -0.00000000000E+00 -0.00000000000E+00 -0.46795909186E+00  0.46796603953E+00  0.25500000000E-02 0. -1.
         31    1    1    2    0    0  0.60451176535E+00 -0.65144093927E+00  0.60177633070E+02  0.60643188057E+02  0.74470750000E+01 0. -1.
        -31    1    1    2    0    0 -0.60451176535E+00  0.65144093927E+00  0.59556803503E+02  0.60027173674E+02  0.74470750000E+01 0.  1.
<mgrwt>
<rscale>  0 0.15000030E+02</rscale>
<asrwt>0</asrwt>
<pdfrwt beam="1">  1        2 0.99778698E+00 0.15000030E+02</pdfrwt>
<pdfrwt beam="2">  1       -2 0.99391857E+00 0.15000030E+02</pdfrwt>
<totfact>-0.68873804E-14</totfact>
</mgrwt>
</event>
<event>
 4    1  0.4926183E-019  0.1494263E+02  0.7818608E-02  0.1869824E+00
          2   -1    0    0  501    0  0.00000000000E+00  0.00000000000E+00  0.11994582148E+03  0.11994582151E+03  0.25500000000E-02 0. -1.
         -2   -1    0    0    0  501 -0.00000000000E+00 -0.00000000000E+00 -0.46537779253E+00  0.46538477873E+00  0.25500000000E-02 0.  1.
         31    1    1    2    0    0 -0.35968930128E+00  0.15888723065E+00  0.63406463892E+02  0.63843505629E+02  0.74470750000E+01 0. -1.
        -31    1    1    2    0    0  0.35968930128E+00 -0.15888723065E+00  0.56073979799E+02  0.56567700661E+02  0.74470750000E+01 0. -1.
<mgrwt>
<rscale>  0 0.14942629E+02</rscale>
<asrwt>0</asrwt>
<pdfrwt beam="1">  1        2 0.99564410E+00 0.14942629E+02</pdfrwt>
<pdfrwt beam="2">  1       -2 0.98844911E+00 0.14942629E+02</pdfrwt>
<totfact> 0.10590175E-13</totfact>
</mgrwt>
</event>
<event>
 4    1  0.4926183E-019  0.1490982E+02  0.7818608E-02  0.1870833E+00
         -2   -1    0    0    0  501 -0.00000000000E+00  0.00000000000E+00  0.11877569357E+03  0.11877569360E+03  0.25500000000E-02 0.  1.
          2   -1    0    0  501    0  0.00000000000E+00 -0.00000000000E+00 -0.46790116540E+00  0.46790811393E+00  0.25500000000E-02 0. -1.
         31    1    1    2    0    0  0.42681783559E-03 -0.79887619412E-01  0.61811153194E+02  0.62258204018E+02  0.74470750000E+01 0.  1.
        -31    1    1    2    0    0 -0.42681783559E-03  0.79887619412E-01  0.56496639211E+02  0.56985397695E+02  0.74470750000E+01 0. -1.
<mgrwt>
<rscale>  0 0.14909822E+02</rscale>
<asrwt>0</asrwt>
<pdfrwt beam="2">  1        2 0.99374973E+00 0.14909822E+02</pdfrwt>
<pdfrwt beam="1">  1       -2 0.98598953E+00 0.14909822E+02</pdfrwt>
<totfact> 0.39970836E-13</totfact>
</mgrwt>
</event>
<event>
 4    1  0.4926183E-019  0.1489830E+02  0.7818608E-02  0.1871188E+00
          2   -1    0    0  501    0  0.00000000000E+00  0.00000000000E+00  0.12024648008E+03  0.12024648010E+03  0.25500000000E-02 0. -1.
         -2   -1    0    0    0  501 -0.00000000000E+00 -0.00000000000E+00 -0.46146405993E+00  0.46147110539E+00  0.25500000000E-02 0.  1.
         31    1    1    2    0    0  0.12496208334E+00  0.12109517853E+00  0.59685924099E+02  0.60148971240E+02  0.74470750000E+01 0.  1.
        -31    1    1    2    0    0 -0.12496208334E+00 -0.12109517853E+00  0.60099091918E+02  0.60558979970E+02  0.74470750000E+01 0.  1.
<mgrwt>
<rscale>  0 0.14898303E+02</rscale>
<asrwt>0</asrwt>
<pdfrwt beam="1">  1        2 0.99809780E+00 0.14898303E+02</pdfrwt>
<pdfrwt beam="2">  1       -2 0.98017783E+00 0.14898303E+02</pdfrwt>
<totfact> 0.72474582E-13</totfact>
</mgrwt>
</event>
<event>
 4    1 -0.4926183E-019  0.1501968E+02  0.7818608E-02  0.1867469E+00
          2   -1    0    0  501    0  0.00000000000E+00  0.00000000000E+00  0.11998247654E+03  0.11998247657E+03  0.25500000000E-02 0. -1.
         -2   -1    0    0    0  501 -0.00000000000E+00 -0.00000000000E+00 -0.47004576649E+00  0.47005268332E+00  0.25500000000E-02 0.  1.
         31    1    1    2    0    0  0.27052184061E-01  0.16010832611E+00  0.67416473512E+02  0.67826736567E+02  0.74470750000E+01 0. -1.
        -31    1    1    2    0    0 -0.27052184061E-01 -0.16010832611E+00  0.52095957262E+02  0.52625792683E+02  0.74470750000E+01 0.  1.
<mgrwt>
<rscale>  0 0.15019677E+02</rscale>
<asrwt>0</asrwt>
<pdfrwt beam="1">  1        2 0.99598579E+00 0.15019677E+02</pdfrwt>
<pdfrwt beam="2">  1       -2 0.99832609E+00 0.15019677E+02</pdfrwt>
<totfact>-0.54290088E-14</totfact>
</mgrwt>
</event>
<event>
 4    1  0.4926183E-019  0.1496514E+02  0.7818608E-02  0.1869134E+00
          2   -1    0    0  501    0  0.00000000000E+00  0.00000000000E+00  0.12032733715E+03  0.12032733718E+03  0.25500000000E-02 0.  1.
         -2   -1    0    0    0  501 -0.00000000000E+00 -0.00000000000E+00 -0.46530103650E+00  0.46530802386E+00  0.25500000000E-02 0. -1.
         31    1    1    2    0    0  0.42166633207E+00 -0.45917414314E+00  0.56897031140E+02  0.57385710085E+02  0.74470750000E+01 0. -1.
        -31    1    1    2    0    0 -0.42166633207E+00  0.45917414314E+00  0.62965004978E+02  0.63406935120E+02  0.74470750000E+01 0.  1.
<mgrwt>
<rscale>  0 0.14965141E+02</rscale>
<asrwt>0</asrwt>
<pdfrwt beam="1">  1        2 0.99879810E+00 0.14965141E+02</pdfrwt>
<pdfrwt beam="2">  1       -2 0.98829882E+00 0.14965141E+02</pdfrwt>
<totfact> 0.45493456E-14</totfact>
</mgrwt>
</event>
<event>
 4    1 -0.4926183E-019  0.1496547E+02  0.7818608E-02  0.1869124E+00
          2   -1    0    0  501    0  0.00000000000E+00  0.00000000000E+00  0.11920948684E+03  0.11920948687E+03  0.25500000000E-02 0. -1.
         -2   -1    0    0    0  501 -0.00000000000E+00 -0.00000000000E+00 -0.46968510317E+00  0.46969202531E+00  0.25500000000E-02 0.  1.
         31    1    1    2    0    0 -0.18420277864E+00  0.45919986960E+00  0.55081120986E+02  0.55584472744E+02  0.74470750000E+01 0.  1.
        -31    1    1    2    0    0  0.18420277864E+00 -0.45919986960E+00  0.63658680752E+02  0.64094706149E+02  0.74470750000E+01 0.  1.
<mgrwt>
<rscale>  0 0.14965472E+02</rscale>
<asrwt>0</asrwt>
<pdfrwt beam="1">  1        2 0.98959119E+00 0.14965472E+02</pdfrwt>
<pdfrwt beam="2">  1       -2 0.99753786E+00 0.14965472E+02</pdfrwt>
<totfact>-0.12978834E-13</totfact>
</mgrwt>
</event>
<event>
 4    1 -0.4926183E-019  0.1491914E+02  0.7818608E-02  0.1870546E+00
          2   -1    0    0  501    0  0.00000000000E+00  0.00000000000E+00  0.11882563127E+03  0.11882563129E+03  0.25500000000E-02 0. -1.
         -2   -1    0    0    0  501 -0.00000000000E+00 -0.00000000000E+00 -0.46828901027E+00  0.46829595305E+00  0.25500000000E-02 0.  1.
         31    1    1    2    0    0  0.24324637861E+00  0.85297531491E-01  0.56411275023E+02  0.56901294539E+02  0.74470750000E+01 0.  1.
        -31    1    1    2    0    0 -0.24324637861E+00 -0.85297531491E-01  0.61946067233E+02  0.62392632707E+02  0.74470750000E+01 0. -1.
<mgrwt>
<rscale>  0 0.14919136E+02</rscale>
<asrwt>0</asrwt>
<pdfrwt beam="1">  1        2 0.98640566E+00 0.14919136E+02</pdfrwt>
<pdfrwt beam="2">  1       -2 0.99457185E+00 0.14919136E+02</pdfrwt>
<totfact>-0.27905847E-13</totfact>
</mgrwt>
</event>
<event>
 4    1  0.4926183E-019  0.1491005E+02  0.7818608E-02  0.1870826E+00
          2   -1    0    0  501    0  0.00000000000E+00  0.00000000000E+00  0.12003030184E+03  0.12003030187E+03  0.25500000000E-02 0.  1.
         -2   -1    0    0    0  501 -0.00000000000E+00 -0.00000000000E+00 -0.46302482398E+00  0.46303184569E+00  0.25500000000E-02 0. -1.
         31    1    1    2    0    0  0.22464254125E+00  0.26085189184E+00  0.59784530250E+02  0.60247551745E+02  0.74470750000E+01 0.  1.
        -31    1    1    2    0    0 -0.22464254125E+00 -0.26085189184E+00  0.59782746768E+02  0.60245781970E+02  0.74470750000E+01 0. -1.
<mgrwt>
<rscale>  0 0.14910055E+02</rscale>
<asrwt>0</asrwt>
<pdfrwt beam="1">  1        2 0.99632319E+00 0.14910055E+02</pdfrwt>
<pdfrwt beam="2">  1       -2 0.98347342E+00 0.14910055E+02</pdfrwt>
<totfact> 0.60218715E-13</totfact>
</mgrwt>
</event>
<event>
 4    1 -0.4926183E-019  0.1494144E+02  0.7818608E-02  0.1869861E+00
         -2   -1    0    0    0  501 -0.00000000000E+00  0.00000000000E+00  0.12009936425E+03  0.12009936427E+03  0.25500000000E-02 0.  1.
          2   -1    0    0  501    0  0.00000000000E+00 -0.00000000000E+00 -0.46470866066E+00  0.46471565692E+00  0.25500000000E-02 0. -1.
         31    1    1    2    0    0  0.47716239246E+00 -0.31518685501E+00  0.58524120600E+02  0.58998802062E+02  0.74470750000E+01 0. -1.
        -31    1    1    2    0    0 -0.47716239246E+00  0.31518685501E+00  0.61110534986E+02  0.61565277868E+02  0.74470750000E+01 0.  1.
<mgrwt>
<rscale>  0 0.14941437E+02</rscale>
<asrwt>0</asrwt>
<pdfrwt beam="2">  1        2 0.98703827E+00 0.14941437E+02</pdfrwt>
<pdfrwt beam="1">  1       -2 0.99690817E+00 0.14941437E+02</pdfrwt>
<totfact>-0.20751844E-13</totfact>
</mgrwt>
</event>
<event>
 4    1 -0.4926183E-019  0.1491530E+02  0.7818608E-02  0.1870664E+00
         -2   -1    0    0    0  501 -0.00000000000E+00  0.00000000000E+00  0.12041307399E+03  0.12041307401E+03  0.25500000000E-02 0. -1.
          2   -1    0    0  501    0  0.00000000000E+00 -0.00000000000E+00 -0.46187797934E+00  0.46188501849E+00  0.25500000000E-02 0.  1.
         31    1    1    2    0    0  0.35688989142E+00 -0.14678061033E+00  0.59218250946E+02  0.59685920333E+02  0.74470750000E+01 0.  1.
        -31    1    1    2    0    0 -0.35688989142E+00  0.14678061033E+00  0.60732945061E+02  0.61189038698E+02  0.74470750000E+01 0. -1.
<mgrwt>
<rscale>  0 0.14915304E+02</rscale>
<asrwt>0</asrwt>
<pdfrwt beam="2">  1        2 0.98105883E+00 0.14915304E+02</pdfrwt>
<pdfrwt beam="1">  1       -2 0.99947873E+00 0.14915304E+02</pdfrwt>
<totfact>-0.11822079E-13</totfact>
</mgrwt>
</event>
<event>
 4    1 -0.4926183E-019  0.1496882E+02  0.7818608E-02  0.1869022E+00
          2   -1    0    0  501    0  0.00000000000E+00  0.00000000000E+00  0.11923627884E+03  0.11923627887E+03  0.25500000000E-02 0.  1.
         -2   -1    0    0    0  501 -0.00000000000E+00 -0.00000000000E+00 -0.46978962084E+00  0.46979654144E+00  0.25500000000E-02 0. -1.
         31    1    1    2    0    0  0.57921458010E+00  0.35437669964E+00  0.56900509714E+02  0.57389790069E+02  0.74470750000E+01 0.  1.
        -31    1    1    2    0    0 -0.57921458010E+00 -0.35437669964E+00  0.61865979507E+02  0.62316285341E+02  0.74470750000E+01 0.  1.
<mgrwt>
<rscale>  0 0.14968819E+02</rscale>
<asrwt>0</asrwt>
<pdfrwt beam="1">  1        2 0.98981359E+00 0.14968819E+02</pdfrwt>
<pdfrwt beam="2">  1       -2 0.99775984E+00 0.14968819E+02</pdfrwt>
<totfact>-0.11818862E-13</totfact>
</mgrwt>
</event>
<event>
 4    1  0.4926183E-019  0.1489697E+02  0.7818608E-02  0.1871229E+00
         -2   -1    0    0    0  501 -0.00000000000E+00  0.00000000000E+00  0.11890555677E+03  0.11890555679E+03  0.25500000000E-02 0. -1.
          2   -1    0    0  501    0  0.00000000000E+00 -0.00000000000E+00 -0.46658461412E+00  0.46659158226E+00  0.25500000000E-02 0.  1.
         31    1    1    2    0    0 -0.22168942536E-01  0.13513082253E+00  0.59598992828E+02  0.60062614196E+02  0.74470750000E+01 0. -1.
        -31    1    1    2    0    0  0.22168942536E-01 -0.13513082253E+00  0.58839979325E+02  0.59309534181E+02  0.74470750000E+01 0.  1.
<mgrwt>
<rscale>  0 0.14896969E+02</rscale>
<asrwt>0</asrwt>
<pdfrwt beam="2">  1        2 0.99096880E+00 0.14896969E+02</pdfrwt>
<pdfrwt beam="1">  1       -2 0.98705244E+00 0.14896969E+02</pdfrwt>
<totfact> 0.33035790E-13</totfact>
</mgrwt>
</event>
<event>
 4    1  0.4926183E-019  0.1495652E+02  0.7818608E-02  0.1869398E+00
         -2   -1    0    0    0  501 -0.00000000000E+00  0.00000000000E+00  0.11881932276E+03  0.11881932279E+03  0.25500000000E-02 0. -1.
          2   -1    0    0  501    0  0.00000000000E+00 -0.00000000000E+00 -0.47066356242E+00  0.47067047017E+00  0.25500000000E-02 0.  1.
         31    1    1    2    0    0 -0.32002660189E+00 -0.34487221995E+00  0.63114558050E+02  0.63554132185E+02  0.74470750000E+01 0. -1.
        -31    1    1    2    0    0  0.32002660189E+00  0.34487221995E+00  0.55234101151E+02  0.55735861076E+02  0.74470750000E+01 0.  1.
<mgrwt>
<rscale>  0 0.14956516E+02</rscale>
<asrwt>0</asrwt>
<pdfrwt beam="2">  1        2 0.99959484E+00 0.14956516E+02</pdfrwt>
<pdfrwt beam="1">  1       -2 0.98637313E+00 0.14956516E+02</pdfrwt>
<totfact> 0.41593297E-14</totfact>
</mgrwt>
</event>
<event>
 4    1 -0.4926183E-019  0.1499704E+02  0.7818608E-02  0.1868159E+00
          2   -1    0    0  501    0  0.00000000000E+00  0.00000000000E+00  0.12024014806E+03  0.12024014809E+03  0.25500000000E-02 0. -1.
         -2   -1    0    0    0  501 -0.00000000000E+00 -0.00000000000E+00 -0.46762587660E+00  0.46763282922E+00  0.25500000000E-02 0.  1.
         31    1    1    2    0    0 -0.66963879946E+00 -0.17128421297E+00  0.55543313241E+02  0.56044592302E+02  0.74470750000E+01 0.  1.
        -31    1    1    2    0    0  0.66963879946E+00  0.17128421297E+00  0.64229208945E+02  0.64663188617E+02  0.74470750000E+01 0.  1.
<mgrwt>
<rscale>  0 0.14997043E+02</rscale>
<asrwt>0</asrwt>
<pdfrwt beam="1">  1        2 0.99809639E+00 0.14997043E+02</pdfrwt>
<pdfrwt beam="2">  1       -2 0.99321480E+00 0.14997043E+02</pdfrwt>
<totfact>-0.56664023E-14</totfact>
</mgrwt>
</event>
<event>
 4    1  0.4926183E-019  0.1491095E+02  0.7818608E-02  0.1870798E+00
          2   -1    0    0  501    0  0.00000000000E+00  0.00000000000E+00  0.12041234052E+03  0.12041234055E+03  0.25500000000E-02 0.  1.
         -2   -1    0    0    0  501 -0.00000000000E+00 -0.00000000000E+00 -0.46161144357E+00  0.46161848678E+00  0.25500000000E-02 0. -1.
         31    1    1    2    0    0  0.31241376995E+00 -0.13367999622E+00  0.59175215627E+02  0.59642942108E+02  0.74470750000E+01 0. -1.
        -31    1    1    2    0    0 -0.31241376995E+00  0.13367999622E+00  0.60775513451E+02  0.61231016928E+02  0.74470750000E+01 0.  1.
<mgrwt>
<rscale>  0 0.14910955E+02</rscale>
<asrwt>0</asrwt>
<pdfrwt beam="1">  1        2 0.99947046E+00 0.14910955E+02</pdfrwt>
<pdfrwt beam="2">  1       -2 0.98049484E+00 0.14910955E+02</pdfrwt>
<totfact> 0.22236847E-13</totfact>
</mgrwt>
</event>
<event>
 4    1 -0.4926183E-019  0.1495481E+02  0.7818608E-02  0.1869451E+00
          2   -1    0    0  501    0  0.00000000000E+00  0.00000000000E+00  0.11905906044E+03  0.11905906047E+03  0.25500000000E-02 0. -1.
         -2   -1    0    0    0  501 -0.00000000000E+00 -0.00000000000E+00 -0.46960885875E+00  0.46961578201E+00  0.25500000000E-02 0.  1.
         31    1    1    2    0    0  0.63344214688E+00 -0.20233699306E+00  0.58476126966E+02  0.58952171633E+02  0.74470750000E+01 0.  1.
        -31    1    1    2    0    0 -0.63344214688E+00  0.20233699306E+00  0.60113324614E+02  0.60576504615E+02  0.74470750000E+01 0. -1.
<mgrwt>
<rscale>  0 0.14954813E+02</rscale>
<asrwt>0</asrwt>
<pdfrwt beam="1">  1        2 0.98834673E+00 0.14954813E+02</pdfrwt>
<pdfrwt beam="2">  1       -2 0.99737162E+00 0.14954813E+02</pdfrwt>
<totfact>-0.15644179E-13</totfact>
</mgrwt>
</event>
<event>
 4    1 -0.4926183E-019  0.1493854E+02  0.7818608E-02  0.1869950E+00
          2   -1    0    0  501    0  0.00000000000E+00  0.00000000000E+00  0.11903441861E+03  0.11903441864E+03  0.25500000000E-02 0. -1.
         -2   -1    0    0    0  501 -0.00000000000E+00 -0.00000000000E+00 -0.46868442208E+00  0.46869135900E+00  0.25500000000E-02 0.  1.
         31    1    1    2    0    0 -0.44787486318E+00 -0.35958601229E+00  0.59556937759E+02  0.60023475868E+02  0.74470750000E+01 0.  1.
        -31    1    1    2    0    0  0.44787486318E+00  0.35958601229E+00  0.59008796431E+02  0.59479634130E+02  0.74470750000E+01 0. -1.
<mgrwt>
<rscale>  0 0.14938540E+02</rscale>
<asrwt>0</asrwt>
<pdfrwt beam="1">  1        2 0.98813533E+00 0.14938540E+02</pdfrwt>
<pdfrwt beam="2">  1       -2 0.99541519E+00 0.14938540E+02</pdfrwt>
<totfact>-0.21590799E-13</totfact>
</mgrwt>
</event>
<event>
 4    1 -0.4926183E-019  0.1489962E+02  0.7818608E-02  0.1871147E+00
          2   -1    0    0  501    0  0.00000000000E+00  0.00000000000E+00  0.11813002379E+03  0.11813002382E+03  0.25500000000E-02 0.  1.
         -2   -1    0    0    0  501 -0.00000000000E+00 -0.00000000000E+00 -0.46981469761E+00  0.46982161784E+00  0.25500000000E-02 0. -1.
         31    1    1    2    0    0 -0.14703648172E+00  0.10672800930E-01  0.57733663488E+02  0.58212168483E+02  0.74470750000E+01 0. -1.
        -31    1    1    2    0    0  0.14703648172E+00 -0.10672800930E-01  0.59926545609E+02  0.60387676957E+02  0.74470750000E+01 0.  1.
<mgrwt>
<rscale>  0 0.14899615E+02</rscale>
<asrwt>0</asrwt>
<pdfrwt beam="1">  1        2 0.98066650E+00 0.14899615E+02</pdfrwt>
<pdfrwt beam="2">  1       -2 0.99777622E+00 0.14899615E+02</pdfrwt>
<totfact>-0.46333842E-13</totfact>
</mgrwt>
</event>
<event>
 4    1 -0.4926183E-019  0.1498518E+02  0.7818608E-02  0.1868521E+00
          2   -1    0    0  501    0  0.00000000000E+00  0.00000000000E+00  0.11978386283E+03  0.11978386286E+03  0.25500000000E-02 0. -1.
         -2   -1    0    0    0  501 -0.00000000000E+00 -0.00000000000E+00 -0.46866503158E+00  0.46867196878E+00  0.25500000000E-02 0.  1.
         31    1    1    2    0    0  0.65380791819E-01 -0.11029504089E+00  0.53120687708E+02  0.53640309733E+02  0.74470750000E+01 0.  1.
        -31    1    1    2    0    0 -0.65380791819E-01  0.11029504089E+00  0.66194510094E+02  0.66612225097E+02  0.74470750000E+01 0. -1.
<mgrwt>
<rscale>  0 0.14985183E+02</rscale>
<asrwt>0</asrwt>
<pdfrwt beam="1">  1        2 0.99433209E+00 0.14985183E+02</pdfrwt>
<pdfrwt beam="2">  1       -2 0.99539859E+00 0.14985183E+02</pdfrwt>
<totfact>-0.12512645E-13</totfact>
</mgrwt>
</event>
<event>
 4    1 -0.4926183E-019  0.1495410E+02  0.7818608E-02  0.1869472E+00
          2   -1    0    0  501    0  0.00000000000E+00  0.00000000000E+00  0.11960508057E+03  0.11960508060E+03  0.25500000000E-02 0. -1.
         -2   -1    0    0    0  501 -0.00000000000E+00 -0.00000000000E+00 -0.46742047610E+00  0.46742743178E+00  0.25500000000E-02 0.  1.
         31    1    1    2    0    0  0.33662592575E-01 -0.28224888289E-01  0.64927679747E+02  0.65353381344E+02  0.74470750000E+01 0. -1.
        -31    1    1    2    0    0 -0.33662592575E-01  0.28224888289E-01  0.54209980351E+02  0.54719126688E+02  0.74470750000E+01 0.  1.
<mgrwt>
<rscale>  0 0.14954101E+02</rscale>
<asrwt>0</asrwt>
<pdfrwt beam="1">  1        2 0.99284351E+00 0.14954101E+02</pdfrwt>
<pdfrwt beam="2">  1       -2 0.99275982E+00 0.14954101E+02</pdfrwt>
<totfact>-0.11779218E-13</totfact>
</mgrwt>
</event>
<event>
 4    1  0.4926183E-019  0.1489700E+02  0.7818608E-02  0.1871228E+00
          2   -1    0    0  501    0  0.00000000000E+00  0.00000000000E+00  0.11982030972E+03  0.11982030975E+03  0.25500000000E-02 0.  1.
         -2   -1    0    0    0  501 -0.00000000000E+00 -0.00000000000E+00 -0.46302442886E+00  0.46303145057E+00  0.25500000000E-02 0. -1.
         31    1    1    2    0    0  0.19815991380E-01 -0.60266168259E-01  0.58619591003E+02  0.59090772547E+02  0.74470750000E+01 0. -1.
        -31    1    1    2    0    0 -0.19815991380E-01  0.60266168259E-01  0.60737694291E+02  0.61192568654E+02  0.74470750000E+01 0.  1.
<mgrwt>
<rscale>  0 0.14897000E+02</rscale>
<asrwt>0</asrwt>
<pdfrwt beam="1">  1        2 0.99458682E+00 0.14897000E+02</pdfrwt>
<pdfrwt beam="2">  1       -2 0.98346597E+00 0.14897000E+02</pdfrwt>
<totfact> 0.74635717E-13</totfact>
</mgrwt>
</event>
<event>
 4    1  0.4926183E-019  0.1492483E+02  0.7818608E-02  0.1870371E+00
         -2   -1    0    0    0  501 -0.00000000000E+00  0.00000000000E+00  0.11874400078E+03  0.11874400080E+03  0.25500000000E-02 0. -1.
          2   -1    0    0  501    0  0.00000000000E+00 -0.00000000000E+00 -0.46896878379E+00  0.46897571651E+00  0.25500000000E-02 0.  1.
         31    1    1    2    0    0 -0.21151817861E+00 -0.13018471018E+00  0.62401980292E+02  0.62845268385E+02  0.74470750000E+01 0. -1.
        -31    1    1    2    0    0  0.21151817861E+00  0.13018471018E+00  0.55873051699E+02  0.56367708134E+02  0.74470750000E+01 0.  1.
<mgrwt>
<rscale>  0 0.14924831E+02</rscale>
<asrwt>0</asrwt>
<pdfrwt beam="2">  1        2 0.99600719E+00 0.14924831E+02</pdfrwt>
<pdfrwt beam="1">  1       -2 0.98573630E+00 0.14924831E+02</pdfrwt>
<totfact> 0.34359145E-13</totfact>
</mgrwt>
</event>
<event>
 4    1  0.4926183E-019  0.1492211E+02  0.7818608E-02  0.1870455E+00
          2   -1    0    0  501    0  0.00000000000E+00  0.00000000000E+00  0.12007142445E+03  0.12007142448E+03  0.25500000000E-02 0.  1.
         -2   -1    0    0    0  501 -0.00000000000E+00 -0.00000000000E+00 -0.46361474844E+00  0.46362176121E+00  0.25500000000E-02 0. -1.
         31    1    1    2    0    0  0.16579381959E+00  0.15206443625E+00  0.56595450752E+02  0.57083750605E+02  0.74470750000E+01 0. -1.
        -31    1    1    2    0    0 -0.16579381959E+00 -0.15206443625E+00  0.63012358953E+02  0.63451295637E+02  0.74470750000E+01 0.  1.
<mgrwt>
<rscale>  0 0.14922105E+02</rscale>
<asrwt>0</asrwt>
<pdfrwt beam="1">  1        2 0.99666810E+00 0.14922105E+02</pdfrwt>
<pdfrwt beam="2">  1       -2 0.98472289E+00 0.14922105E+02</pdfrwt>
<totfact> 0.41411268E-13</totfact>
</mgrwt>
</event>
<event>
 4    1 -0.4926183E-019  0.1501595E+02  0.7818608E-02  0.1867582E+00
         -2   -1    0    0    0  501 -0.00000000000E+00  0.00000000000E+00  0.12007052581E+03  0.12007052584E+03  0.25500000000E-02 0.  1.
          2   -1    0    0  501    0  0.00000000000E+00 -0.00000000000E+00 -0.46946810520E+00  0.46947503054E+00  0.25500000000E-02 0. -1.
         31    1    1    2    0    0  0.44580148508E-01 -0.27244161108E+00  0.52467084641E+02  0.52993679893E+02  0.74470750000E+01 0. -1.
        -31    1    1    2    0    0 -0.44580148508E-01  0.27244161108E+00  0.67133973066E+02  0.67546320977E+02  0.74470750000E+01 0.  1.
<mgrwt>
<rscale>  0 0.15015952E+02</rscale>
<asrwt>0</asrwt>
<pdfrwt beam="2">  1        2 0.99710685E+00 0.15015952E+02</pdfrwt>
<pdfrwt beam="1">  1       -2 0.99670906E+00 0.15015952E+02</pdfrwt>
<totfact>-0.72902139E-14</totfact>
</mgrwt>
</event>
<event>
 4    1 -0.4926183E-019  0.1493916E+02  0.7818608E-02  0.1869931E+00
          2   -1    0    0  501    0  0.00000000000E+00  0.00000000000E+00  0.11879229448E+03  0.11879229450E+03  0.25500000000E-02 0. -1.
         -2   -1    0    0    0  501 -0.00000000000E+00 -0.00000000000E+00 -0.46967887618E+00  0.46968579841E+00  0.25500000000E-02 0.  1.
         31    1    1    2    0    0 -0.24031202905E+00  0.52709416757E+00  0.59066314493E+02  0.59536745057E+02  0.74470750000E+01 0.  1.
        -31    1    1    2    0    0  0.24031202905E+00 -0.52709416757E+00  0.59256301106E+02  0.59725235244E+02  0.74470750000E+01 0. -1.
<mgrwt>
<rscale>  0 0.14939163E+02</rscale>
<asrwt>0</asrwt>
<pdfrwt beam="1">  1        2 0.98614150E+00 0.14939163E+02</pdfrwt>
<pdfrwt beam="2">  1       -2 0.99751094E+00 0.14939163E+02</pdfrwt>
<totfact>-0.20404257E-13</totfact>
</mgrwt>
</event>
<event>
 4    1  0.4926183E-019  0.1491795E+02  0.7818608E-02  0.1870583E+00
         -2   -1    0    0    0  501 -0.00000000000E+00  0.00000000000E+00  0.11871591961E+03  0.11871591963E+03  0.25500000000E-02 0.  1.
          2   -1    0    0  501    0  0.00000000000E+00 -0.00000000000E+00 -0.46864733501E+00  0.46865427248E+00  0.25500000000E-02 0. -1.
         31    1    1    2    0    0  0.37065379039E+00 -0.17336075607E+00  0.58326695624E+02  0.58801613810E+02  0.74470750000E+01 0. -1.
        -31    1    1    2    0    0 -0.37065379039E+00  0.17336075607E+00  0.59920576648E+02  0.60382960097E+02  0.74470750000E+01 0.  1.
<mgrwt>
<rscale>  0 0.14917951E+02</rscale>
<asrwt>0</asrwt>
<pdfrwt beam="2">  1        2 0.99532626E+00 0.14917951E+02</pdfrwt>
<pdfrwt beam="1">  1       -2 0.98550145E+00 0.14917951E+02</pdfrwt>
<totfact> 0.40376153E-13</totfact>
</mgrwt>
</event>
<event>
 4    1 -0.4926183E-019  0.1499415E+02  0.7818608E-02  0.1868247E+00
          2   -1    0    0  501    0  0.00000000000E+00  0.00000000000E+00  0.11980616288E+03  0.11980616290E+03  0.25500000000E-02 0. -1.
         -2   -1    0    0    0  501 -0.00000000000E+00 -0.00000000000E+00 -0.46913882158E+00  0.46914575178E+00  0.25500000000E-02 0.  1.
         31    1    1    2    0    0  0.62817053803E+00  0.56381171333E+00  0.58173575111E+02  0.58654379624E+02  0.74470750000E+01 0. -1.
        -31    1    1    2    0    0 -0.62817053803E+00 -0.56381171333E+00  0.61163448943E+02  0.61620929030E+02  0.74470750000E+01 0. -1.
<mgrwt>
<rscale>  0 0.14994151E+02</rscale>
<asrwt>0</asrwt>
<pdfrwt beam="1">  1        2 0.99452040E+00 0.14994151E+02</pdfrwt>
<pdfrwt beam="2">  1       -2 0.99640166E+00 0.14994151E+02</pdfrwt>
<totfact>-0.11146160E-13</totfact>
</mgrwt>
</event>
<event>
 4    1  0.4926183E-019  0.1491185E+02  0.7818608E-02  0.1870770E+00
          2   -1    0    0  501    0  0.00000000000E+00  0.00000000000E+00  0.11996387247E+03  0.11996387250E+03  0.25500000000E-02 0. -1.
         -2   -1    0    0    0  501 -0.00000000000E+00 -0.00000000000E+00 -0.46339294445E+00  0.46339996058E+00  0.25500000000E-02 0.  1.
         31    1    1    2    0    0  0.15906390817E-01 -0.63681850990E-01  0.56865400927E+02  0.57350998745E+02  0.74470750000E+01 0.  1.
        -31    1    1    2    0    0 -0.15906390817E-01  0.63681850990E-01  0.62635078600E+02  0.63076273714E+02  0.74470750000E+01 0. -1.
<mgrwt>
<rscale>  0 0.14911852E+02</rscale>
<asrwt>0</asrwt>
<pdfrwt beam="1">  1        2 0.99577695E+00 0.14911852E+02</pdfrwt>
<pdfrwt beam="2">  1       -2 0.98425020E+00 0.14911852E+02</pdfrwt>
<totfact> 0.54107272E-13</totfact>
</mgrwt>
</event>
<event>
 4    1 -0.4926183E-019  0.1491179E+02  0.7818608E-02  0.1870772E+00
          2   -1    0    0  501    0  0.00000000000E+00  0.00000000000E+00  0.11836496061E+03  0.11836496064E+03  0.25500000000E-02 0.  1.
         -2   -1    0    0    0  501 -0.00000000000E+00 -0.00000000000E+00 -0.46964873844E+00  0.46965566112E+00  0.25500000000E-02 0. -1.
         31    1    1    2    0    0  0.13072220872E+00 -0.27467061530E+00  0.57375705959E+02  0.57857783337E+02  0.74470750000E+01 0. -1.
        -31    1    1    2    0    0 -0.13072220872E+00  0.27467061530E+00  0.60519605914E+02  0.60976832964E+02  0.74470750000E+01 0.  1.
<mgrwt>
<rscale>  0 0.14911790E+02</rscale>
<asrwt>0</asrwt>
<pdfrwt beam="1">  1        2 0.98260775E+00 0.14911790E+02</pdfrwt>
<pdfrwt beam="2">  1       -2 0.99743300E+00 0.14911790E+02</pdfrwt>
<totfact>-0.37232502E-13</totfact>
</mgrwt>
</event>
<event>
 4    1  0.4926183E-019  0.1494922E+02  0.7818608E-02  0.1869622E+00
         -2   -1    0    0    0  501 -0.00000000000E+00  0.00000000000E+00  0.11883007277E+03  0.11883007280E+03  0.25500000000E-02 0. -1.
          2   -1    0    0  501    0  0.00000000000E+00 -0.00000000000E+00 -0.47016179791E+00  0.47016871303E+00  0.25500000000E-02 0.  1.
         31    1    1    2    0    0  0.79625860632E-01  0.62392218459E+00  0.60164797231E+02  0.60627199927E+02  0.74470750000E+01 0. -1.
        -31    1    1    2    0    0 -0.79625860632E-01 -0.62392218459E+00  0.58195113741E+02  0.58673041583E+02  0.74470750000E+01 0. -1.
<mgrwt>
<rscale>  0 0.14949217E+02</rscale>
<asrwt>0</asrwt>
<pdfrwt beam="2">  1        2 0.99853377E+00 0.14949217E+02</pdfrwt>
<pdfrwt beam="1">  1       -2 0.98645787E+00 0.14949217E+02</pdfrwt>
<totfact> 0.12977378E-13</totfact>
</mgrwt>
</event>
<event>
 4    1 -0.4926183E-019  0.1491519E+02  0.7818608E-02  0.1870667E+00
         -2   -1    0    0    0  501 -0.00000000000E+00  0.00000000000E+00  0.12035980542E+03  0.12035980545E+03  0.25500000000E-02 0. -1.
          2   -1    0    0  501    0  0.00000000000E+00 -0.00000000000E+00 -0.46207553650E+00  0.46208257263E+00  0.25500000000E-02 0.  1.
         31    1    1    2    0    0  0.11268497261E+00  0.15624817216E+00  0.62751609914E+02  0.63192250982E+02  0.74470750000E+01 0. -1.
        -31    1    1    2    0    0 -0.11268497261E+00 -0.15624817216E+00  0.57146119968E+02  0.57629637036E+02  0.74470750000E+01 0.  1.
<mgrwt>
<rscale>  0 0.14915193E+02</rscale>
<asrwt>0</asrwt>
<pdfrwt beam="2">  1        2 0.98147519E+00 0.14915193E+02</pdfrwt>
<pdfrwt beam="1">  1       -2 0.99903990E+00 0.14915193E+02</pdfrwt>
<totfact>-0.19614204E-13</totfact>
</mgrwt>
</event>
<event>
 4    1  0.4926183E-019  0.1491894E+02  0.7818608E-02  0.1870552E+00
         -2   -1    0    0    0  501 -0.00000000000E+00  0.00000000000E+00  0.11878225506E+03  0.11878225509E+03  0.25500000000E-02 0.  1.
          2   -1    0    0  501    0  0.00000000000E+00 -0.00000000000E+00 -0.46844794154E+00  0.46845488196E+00  0.25500000000E-02 0. -1.
         31    1    1    2    0    0  0.18453135399E+00 -0.10675308713E+00  0.62140687725E+02  0.62585696809E+02  0.74470750000E+01 0.  1.
        -31    1    1    2    0    0 -0.18453135399E+00  0.10675308713E+00  0.56173119392E+02  0.56665013159E+02  0.74470750000E+01 0. -1.
<mgrwt>
<rscale>  0 0.14918943E+02</rscale>
<asrwt>0</asrwt>
<pdfrwt beam="2">  1        2 0.99490664E+00 0.14918943E+02</pdfrwt>
<pdfrwt beam="1">  1       -2 0.98604831E+00 0.14918943E+02</pdfrwt>
<totfact> 0.35424307E-13</totfact>
</mgrwt>
</event>
<event>
 4    1  0.4926183E-019  0.1497481E+02  0.7818608E-02  0.1868838E+00
          2   -1    0    0  501    0  0.00000000000E+00  0.00000000000E+00  0.12036064843E+03  0.12036064846E+03  0.25500000000E-02 0.  1.
         -2   -1    0    0    0  501 -0.00000000000E+00 -0.00000000000E+00 -0.46577359691E+00  0.46578057718E+00  0.25500000000E-02 0. -1.
         31    1    1    2    0    0  0.72088568028E+00 -0.96291910437E-01  0.57762023990E+02  0.58244650310E+02  0.74470750000E+01 0.  1.
        -31    1    1    2    0    0 -0.72088568028E+00  0.96291910437E-01  0.62132850843E+02  0.62581778723E+02  0.74470750000E+01 0.  1.
<mgrwt>
<rscale>  0 0.14974810E+02</rscale>
<asrwt>0</asrwt>
<pdfrwt beam="1">  1        2 0.99907745E+00 0.14974810E+02</pdfrwt>
<pdfrwt beam="2">  1       -2 0.98929971E+00 0.14974810E+02</pdfrwt>
<totfact> 0.14777629E-14</totfact>
</mgrwt>
</event>
<event>
 4    1 -0.4926183E-019  0.1496988E+02  0.7818608E-02  0.1868989E+00
         -2   -1    0    0    0  501 -0.00000000000E+00  0.00000000000E+00  0.12020389819E+03  0.12020389822E+03  0.25500000000E-02 0. -1.
          2   -1    0    0  501    0  0.00000000000E+00 -0.00000000000E+00 -0.46607420243E+00  0.46608117820E+00  0.25500000000E-02 0.  1.
         31    1    1    2    0    0  0.47163504644E+00 -0.32575687991E+00  0.63792113925E+02  0.64227885550E+02  0.74470750000E+01 0.  1.
        -31    1    1    2    0    0 -0.47163504644E+00  0.32575687991E+00  0.55945710061E+02  0.56442093844E+02  0.74470750000E+01 0.  1.
<mgrwt>
<rscale>  0 0.14969884E+02</rscale>
<asrwt>0</asrwt>
<pdfrwt beam="2">  1        2 0.98993074E+00 0.14969884E+02</pdfrwt>
<pdfrwt beam="1">  1       -2 0.99778382E+00 0.14969884E+02</pdfrwt>
<totfact>-0.11588046E-13</totfact>
</mgrwt>
</event>
<event>
 4    1 -0.4926183E-019  0.1490692E+02  0.7818608E-02  0.1870922E+00
         -2   -1    0    0    0  501 -0.00000000000E+00  0.00000000000E+00  0.12010734053E+03  0.12010734055E+03  0.25500000000E-02 0.  1.
          2   -1    0    0  501    0  0.00000000000E+00 -0.00000000000E+00 -0.46253354735E+00  0.46254057651E+00  0.25500000000E-02 0. -1.
         31    1    1    2    0    0  0.66063178420E-02 -0.30821495992E+00  0.59915856330E+02  0.60377676387E+02  0.74470750000E+01 0.  1.
        -31    1    1    2    0    0 -0.66063178420E-02  0.30821495992E+00  0.59728950650E+02  0.60192204744E+02  0.74470750000E+01 0. -1.
<mgrwt>
<rscale>  0 0.14906925E+02</rscale>
<asrwt>0</asrwt>
<pdfrwt beam="2">  1        2 0.98243638E+00 0.14906925E+02</pdfrwt>
<pdfrwt beam="1">  1       -2 0.99695614E+00 0.14906925E+02</pdfrwt>
<totfact>-0.43064405E-13</totfact>
</mgrwt>
</event>
<event>
 4    1 -0.4926183E-019  0.1490380E+02  0.7818608E-02  0.1871018E+00
         -2   -1    0    0    0  501 -0.00000000000E+00  0.00000000000E+00  0.12044443373E+03  0.12044443376E+03  0.25500000000E-02 0.  1.
          2   -1    0    0  501    0  0.00000000000E+00 -0.00000000000E+00 -0.46104585182E+00  0.46105290366E+00  0.25500000000E-02 0. -1.
         31    1    1    2    0    0 -0.91098079625E-01 -0.25033151956E+00  0.60240903509E+02  0.60700052277E+02  0.74470750000E+01 0.  1.
        -31    1    1    2    0    0  0.91098079625E-01  0.25033151956E+00  0.59742484368E+02  0.60205434383E+02  0.74470750000E+01 0. -1.
<mgrwt>
<rscale>  0 0.14903803E+02</rscale>
<asrwt>0</asrwt>
<pdfrwt beam="2">  1        2 0.97929908E+00 0.14903803E+02</pdfrwt>
<pdfrwt beam="1">  1       -2 0.99973116E+00 0.14903803E+02</pdfrwt>
<totfact>-0.82975064E-14</totfact>
</mgrwt>
</event>
<event>
 4    1 -0.4926183E-019  0.1493546E+02  0.7818608E-02  0.1870044E+00
          2   -1    0    0  501    0  0.00000000000E+00  0.00000000000E+00  0.11877521554E+03  0.11877521557E+03  0.25500000000E-02 0. -1.
         -2   -1    0    0    0  501 -0.00000000000E+00 -0.00000000000E+00 -0.46951389351E+00  0.46952081818E+00  0.25500000000E-02 0.  1.
         31    1    1    2    0    0 -0.80473581077E-01  0.52023412926E-01  0.63517987947E+02  0.63953130505E+02  0.74470750000E+01 0. -1.
        -31    1    1    2    0    0  0.80473581077E-01 -0.52023412926E-01  0.54787713697E+02  0.55291605879E+02  0.74470750000E+01 0.  1.
<mgrwt>
<rscale>  0 0.14935465E+02</rscale>
<asrwt>0</asrwt>
<pdfrwt beam="1">  1        2 0.98599891E+00 0.14935465E+02</pdfrwt>
<pdfrwt beam="2">  1       -2 0.99716136E+00 0.14935465E+02</pdfrwt>
<totfact>-0.22885718E-13</totfact>
</mgrwt>
</event>
<event>
 4    1 -0.4926183E-019  0.1490378E+02  0.7818608E-02  0.1871019E+00
          2   -1    0    0  501    0  0.00000000000E+00  0.00000000000E+00  0.11823001989E+03  0.11823001992E+03  0.25500000000E-02 0. -1.
         -2   -1    0    0    0  501 -0.00000000000E+00 -0.00000000000E+00 -0.46967989024E+00  0.46968681246E+00  0.25500000000E-02 0.  1.
         31    1    1    2    0    0  0.99987887086E-01 -0.23104007710E+00  0.58151434661E+02  0.58626885098E+02  0.74470750000E+01 0.  1.
        -31    1    1    2    0    0 -0.99987887086E-01  0.23104007710E+00  0.59608905338E+02  0.60072821631E+02  0.74470750000E+01 0. -1.
<mgrwt>
<rscale>  0 0.14903781E+02</rscale>
<asrwt>0</asrwt>
<pdfrwt beam="1">  1        2 0.98149223E+00 0.14903781E+02</pdfrwt>
<pdfrwt beam="2">  1       -2 0.99749440E+00 0.14903781E+02</pdfrwt>
<totfact>-0.44161158E-13</totfact>
</mgrwt>
</event>
<event>
 4    1  0.4926183E-019  0.1492375E+02  0.7818608E-02  0.1870404E+00
         -2   -1    0    0    0  501 -0.00000000000E+00  0.00000000000E+00  0.11865049563E+03  0.11865049565E+03  0.25500000000E-02 0.  1.
          2   -1    0    0  501    0  0.00000000000E+00 -0.00000000000E+00 -0.46927018730E+00  0.46927711556E+00  0.25500000000E-02 0. -1.
         31    1    1    2    0    0 -0.24036134119E+00  0.22651622151E+00  0.56424787151E+02  0.56915064915E+02  0.74470750000E+01 0. -1.
        -31    1    1    2    0    0  0.24036134119E+00 -0.22651622151E+00  0.61756438287E+02  0.62204707854E+02  0.74470750000E+01 0. -1.
<mgrwt>
<rscale>  0 0.14923747E+02</rscale>
<asrwt>0</asrwt>
<pdfrwt beam="2">  1        2 0.99664170E+00 0.14923747E+02</pdfrwt>
<pdfrwt beam="1">  1       -2 0.98496563E+00 0.14923747E+02</pdfrwt>
<totfact> 0.38921062E-13</totfact>
</mgrwt>
</event>
<event>
 4    1 -0.4926183E-019  0.1495731E+02  0.7818608E-02  0.1869374E+00
         -2   -1    0    0    0  501 -0.00000000000E+00  0.00000000000E+00  0.11982714507E+03  0.11982714509E+03  0.25500000000E-02 0. -1.
          2   -1    0    0  501    0  0.00000000000E+00 -0.00000000000E+00 -0.46675451163E+00  0.46676147724E+00  0.25500000000E-02 0.  1.
         31    1    1    2    0    0  0.19090812927E+00 -0.34738103062E+00  0.64188547482E+02  0.64620319354E+02  0.74470750000E+01 0. -1.
        -31    1    1    2    0    0 -0.19090812927E+00  0.34738103062E+00  0.55171843073E+02  0.55673587217E+02  0.74470750000E+01 0.  1.
<mgrwt>
<rscale>  0 0.14957310E+02</rscale>
<asrwt>0</asrwt>
<pdfrwt beam="2">  1        2 0.99135804E+00 0.14957310E+02</pdfrwt>
<pdfrwt beam="1">  1       -2 0.99467418E+00 0.14957310E+02</pdfrwt>
<totfact>-0.15923690E-13</totfact>
</mgrwt>
</event>
<event>
 4    1 -0.4926183E-019  0.1491485E+02  0.7818608E-02  0.1870678E+00
         -2   -1    0    0    0  501 -0.00000000000E+00  0.00000000000E+00  0.11958999771E+03  0.11958999774E+03  0.25500000000E-02 0.  1.
          2   -1    0    0  501    0  0.00000000000E+00 -0.00000000000E+00 -0.46502861547E+00  0.46503560692E+00  0.25500000000E-02 0. -1.
         31    1    1    2    0    0  0.20640400660E+00 -0.26491541852E+00  0.57923030392E+02  0.58400763339E+02  0.74470750000E+01 0. -1.
        -31    1    1    2    0    0 -0.20640400660E+00  0.26491541852E+00  0.61201938704E+02  0.61654270006E+02  0.74470750000E+01 0.  1.
<mgrwt>
<rscale>  0 0.14914851E+02</rscale>
<asrwt>0</asrwt>
<pdfrwt beam="2">  1        2 0.98769899E+00 0.14914851E+02</pdfrwt>
<pdfrwt beam="1">  1       -2 0.99269901E+00 0.14914851E+02</pdfrwt>
<totfact>-0.18943106E-13</totfact>
</mgrwt>
</event>
<event>
 4    1 -0.4926183E-019  0.1491970E+02  0.7818608E-02  0.1870529E+00
         -2   -1    0    0    0  501 -0.00000000000E+00  0.00000000000E+00  0.12029394405E+03  0.12029394408E+03  0.25500000000E-02 0.  1.
          2   -1    0    0  501    0  0.00000000000E+00 -0.00000000000E+00 -0.46260810494E+00  0.46261513297E+00  0.25500000000E-02 0. -1.
         31    1    1    2    0    0 -0.25176032267E+00  0.33691187238E+00  0.60858184662E+02  0.61313574837E+02  0.74470750000E+01 0. -1.
        -31    1    1    2    0    0  0.25176032267E+00 -0.33691187238E+00  0.58973151282E+02  0.59442984372E+02  0.74470750000E+01 0.  1.
<mgrwt>
<rscale>  0 0.14919702E+02</rscale>
<asrwt>0</asrwt>
<pdfrwt beam="2">  1        2 0.98259999E+00 0.14919702E+02</pdfrwt>
<pdfrwt beam="1">  1       -2 0.99849972E+00 0.14919702E+02</pdfrwt>
<totfact>-0.24202896E-13</totfact>
</mgrwt>
</event>
<event>
 4    1 -0.4926183E-019  0.1501852E+02  0.7818608E-02  0.1867504E+00
         -2   -1    0    0    0  501 -0.00000000000E+00  0.00000000000E+00  0.12010586036E+03  0.12010586038E+03  0.25500000000E-02 0. -1.
          2   -1    0    0  501    0  0.00000000000E+00 -0.00000000000E+00 -0.46949082277E+00  0.46949774777E+00  0.25500000000E-02 0.  1.
         31    1    1    2    0    0  0.59721275302E+00  0.75337065518E+00  0.60432864200E+02  0.60897571641E+02  0.74470750000E+01 0.  1.
        -31    1    1    2    0    0 -0.59721275302E+00 -0.75337065518E+00  0.59203505335E+02  0.59677786491E+02  0.74470750000E+01 0.  1.
<mgrwt>
<rscale>  0 0.15018524E+02</rscale>
<asrwt>0</asrwt>
<pdfrwt beam="2">  1        2 0.99715606E+00 0.15018524E+02</pdfrwt>
<pdfrwt beam="1">  1       -2 0.99700142E+00 0.15018524E+02</pdfrwt>
<totfact>-0.68001953E-14</totfact>
</mgrwt>
</event>
<event>
 4    1  0.4926183E-019  0.1491535E+02  0.7818608E-02  0.1870663E+00
         -2   -1    0    0    0  501 -0.00000000000E+00  0.00000000000E+00  0.11839312243E+03  0.11839312245E+03  0.25500000000E-02 0. -1.
          2   -1    0    0  501    0  0.00000000000E+00 -0.00000000000E+00 -0.46976135017E+00  0.46976827119E+00  0.25500000000E-02 0.  1.
         31    1    1    2    0    0 -0.29903598708E+00 -0.25360120997E+00  0.58441308811E+02  0.58915186817E+02  0.74470750000E+01 0.  1.
        -31    1    1    2    0    0  0.29903598708E+00  0.25360120997E+00  0.59482052264E+02  0.59947703907E+02  0.74470750000E+01 0. -1.
<mgrwt>
<rscale>  0 0.14915351E+02</rscale>
<asrwt>0</asrwt>
<pdfrwt beam="2">  1        2 0.99767215E+00 0.14915351E+02</pdfrwt>
<pdfrwt beam="1">  1       -2 0.98284154E+00 0.14915351E+02</pdfrwt>
<totfact> 0.50824993E-13</totfact>
</mgrwt>
</event>
<event>
 4    1 -0.4926183E-019  0.1497844E+02  0.7818608E-02  0.1868727E+00
         -2   -1    0    0    0  501 -0.00000000000E+00  0.00000000000E+00  0.12036408232E+03  0.12036408234E+03  0.25500000000E-02 0. -1.
          2   -1    0    0  501    0  0.00000000000E+00 -0.00000000000E+00 -0.46598640851E+00  0.46599338560E+00  0.25500000000E-02 0.  1.
         31    1    1    2    0    0 -0.28789992279E+00  0.73758780359E+00  0.60360492732E+02  0.60823309110E+02  0.74470750000E+01 0. -1.
        -31    1    1    2    0    0  0.28789992279E+00 -0.73758780359E+00  0.59537603175E+02  0.60006766619E+02  0.74470750000E+01 0.  1.
<mgrwt>
<rscale>  0 0.14978444E+02</rscale>
<asrwt>0</asrwt>
<pdfrwt beam="2">  1        2 0.98975008E+00 0.14978444E+02</pdfrwt>
<pdfrwt beam="1">  1       -2 0.99910761E+00 0.14978444E+02</pdfrwt>
<totfact>-0.53566348E-14</totfact>
</mgrwt>
</event>
<event>
 4    1  0.4926183E-019  0.1492773E+02  0.7818608E-02  0.1870282E+00
          2   -1    0    0  501    0  0.00000000000E+00  0.00000000000E+00  0.12019941495E+03  0.12019941498E+03  0.25500000000E-02 0. -1.
         -2   -1    0    0    0  501 -0.00000000000E+00 -0.00000000000E+00 -0.46347015910E+00  0.46347717406E+00  0.25500000000E-02 0.  1.
         31    1    1    2    0    0  0.14753519379E+00 -0.30618279248E+00  0.56899949719E+02  0.57386224119E+02  0.74470750000E+01 0.  1.
        -31    1    1    2    0    0 -0.14753519379E+00  0.30618279248E+00  0.62835995071E+02  0.63276668031E+02  0.74470750000E+01 0. -1.
<mgrwt>
<rscale>  0 0.14927728E+02</rscale>
<asrwt>0</asrwt>
<pdfrwt beam="1">  1        2 0.99772522E+00 0.14927728E+02</pdfrwt>
<pdfrwt beam="2">  1       -2 0.98442100E+00 0.14927728E+02</pdfrwt>
<totfact> 0.34377485E-13</totfact>
</mgrwt>
</event>
<event>
 4    1 -0.4926183E-019  0.1494753E+02  0.7818608E-02  0.1869674E+00
         -2   -1    0    0    0  501 -0.00000000000E+00  0.00000000000E+00  0.12009942115E+03  0.12009942118E+03  0.25500000000E-02 0.  1.
          2   -1    0    0  501    0  0.00000000000E+00 -0.00000000000E+00 -0.46508731046E+00  0.46509430103E+00  0.25500000000E-02 0. -1.
         31    1    1    2    0    0  0.92453157319E-01 -0.41779633786E+00  0.56076208562E+02  0.56570161694E+02  0.74470750000E+01 0. -1.
        -31    1    1    2    0    0 -0.92453157319E-01  0.41779633786E+00  0.63558125280E+02  0.63994353786E+02  0.74470750000E+01 0.  1.
<mgrwt>
<rscale>  0 0.14947527E+02</rscale>
<asrwt>0</asrwt>
<pdfrwt beam="2">  1        2 0.98783940E+00 0.14947527E+02</pdfrwt>
<pdfrwt beam="1">  1       -2 0.99691177E+00 0.14947527E+02</pdfrwt>
<totfact>-0.18594757E-13</totfact>
</mgrwt>
</event>
<event>
 4    1 -0.4926183E-019  0.1499925E+02  0.7818608E-02  0.1868091E+00
         -2   -1    0    0    0  501 -0.00000000000E+00  0.00000000000E+00  0.12005163440E+03  0.12005163443E+03  0.25500000000E-02 0.  1.
          2   -1    0    0  501    0  0.00000000000E+00 -0.00000000000E+00 -0.46849786650E+00  0.46850480618E+00  0.25500000000E-02 0. -1.
         31    1    1    2    0    0 -0.76030705166E+00  0.31821897454E+00  0.57174324289E+02  0.57663173812E+02  0.74470750000E+01 0. -1.
        -31    1    1    2    0    0  0.76030705166E+00 -0.31821897454E+00  0.62408812246E+02  0.62856965422E+02  0.74470750000E+01 0.  1.
<mgrwt>
<rscale>  0 0.14999247E+02</rscale>
<asrwt>0</asrwt>
<pdfrwt beam="2">  1        2 0.99505358E+00 0.14999247E+02</pdfrwt>
<pdfrwt beam="1">  1       -2 0.99654483E+00 0.14999247E+02</pdfrwt>
<totfact>-0.10352422E-13</totfact>
</mgrwt>
</event>
<event>
 4    1  0.4926183E-019  0.1493562E+02  0.7818608E-02  0.1870040E+00
          2   -1    0    0  501    0  0.00000000000E+00  0.00000000000E+00  0.11992165236E+03  0.11992165238E+03  0.25500000000E-02 0.  1.
         -2   -1    0    0    0  501 -0.00000000000E+00 -0.00000000000E+00 -0.46503487235E+00  0.46504186371E+00  0.25500000000E-02 0. -1.
         31    1    1    2    0    0 -0.43770159496E+00 -0.34233156236E+00  0.59903632506E+02  0.60367316381E+02  0.74470750000E+01 0. -1.
        -31    1    1    2    0    0  0.43770159496E+00  0.34233156236E+00  0.59552984978E+02  0.60019377866E+02  0.74470750000E+01 0.  1.
<mgrwt>
<rscale>  0 0.14935618E+02</rscale>
<asrwt>0</asrwt>
<pdfrwt beam="1">  1        2 0.99544142E+00 0.14935618E+02</pdfrwt>
<pdfrwt beam="2">  1       -2 0.98772281E+00 0.14935618E+02</pdfrwt>
<totfact> 0.16750035E-13</totfact>
</mgrwt>
</event>
<event>
 4    1  0.4926183E-019  0.1491486E+02  0.7818608E-02  0.1870678E+00
         -2   -1    0    0    0  501 -0.00000000000E+00  0.00000000000E+00  0.11883826282E+03  0.11883826285E+03  0.25500000000E-02 0.  1.
          2   -1    0    0  501    0  0.00000000000E+00 -0.00000000000E+00 -0.46797092327E+00  0.46797787077E+00  0.25500000000E-02 0. -1.
         31    1    1    2    0    0  0.27964586908E+00  0.25310739038E+00  0.60064195150E+02  0.60525273483E+02  0.74470750000E+01 0.  1.
        -31    1    1    2    0    0 -0.27964586908E+00 -0.25310739038E+00  0.58306096751E+02  0.58780967239E+02  0.74470750000E+01 0.  1.
<mgrwt>
<rscale>  0 0.14914861E+02</rscale>
<asrwt>0</asrwt>
<pdfrwt beam="2">  1        2 0.99389936E+00 0.14914861E+02</pdfrwt>
<pdfrwt beam="1">  1       -2 0.98650747E+00 0.14914861E+02</pdfrwt>
<totfact> 0.32921934E-13</totfact>
</mgrwt>
</event>
<event>
 4    1  0.4926183E-019  0.1490696E+02  0.7818608E-02  0.1870921E+00
          2   -1    0    0  501    0  0.00000000000E+00  0.00000000000E+00  0.12032238922E+03  0.12032238925E+03  0.25500000000E-02 0.  1.
         -2   -1    0    0    0  501 -0.00000000000E+00 -0.00000000000E+00 -0.46170917637E+00  0.46171621808E+00  0.25500000000E-02 0. -1.
         31    1    1    2    0    0 -0.23115491167E+00  0.18415257913E+00  0.59200783806E+02  0.59668074161E+02  0.74470750000E+01 0. -1.
        -31    1    1    2    0    0  0.23115491167E+00 -0.18415257913E+00  0.60659896238E+02  0.61116031305E+02  0.74470750000E+01 0.  1.
<mgrwt>
<rscale>  0 0.14906962E+02</rscale>
<asrwt>0</asrwt>
<pdfrwt beam="1">  1        2 0.99872749E+00 0.14906962E+02</pdfrwt>
<pdfrwt beam="2">  1       -2 0.98069884E+00 0.14906962E+02</pdfrwt>
<totfact> 0.47475766E-13</totfact>
</mgrwt>
</event>
<event>
 4    1  0.4926183E-019  0.1490229E+02  0.7818608E-02  0.1871065E+00
         -2   -1    0    0    0  501 -0.00000000000E+00  0.00000000000E+00  0.11803774672E+03  0.11803774675E+03  0.25500000000E-02 0.  1.
          2   -1    0    0  501    0  0.00000000000E+00 -0.00000000000E+00 -0.47035053529E+00  0.47035744763E+00  0.25500000000E-02 0. -1.
         31    1    1    2    0    0  0.14957798414E+00 -0.10471885200E+00  0.57470648193E+02  0.57951425085E+02  0.74470750000E+01 0.  1.
        -31    1    1    2    0    0 -0.14957798414E+00  0.10471885200E+00  0.60096747994E+02  0.60556679112E+02  0.74470750000E+01 0.  1.
<mgrwt>
<rscale>  0 0.14902286E+02</rscale>
<asrwt>0</asrwt>
<pdfrwt beam="2">  1        2 0.99890659E+00 0.14902286E+02</pdfrwt>
<pdfrwt beam="1">  1       -2 0.97990792E+00 0.14902286E+02</pdfrwt>
<totfact> 0.47694662E-13</totfact>
</mgrwt>
</event>
<event>
 4    1 -0.4926183E-019  0.1493794E+02  0.7818608E-02  0.1869968E+00
          2   -1    0    0  501    0  0.00000000000E+00  0.00000000000E+00  0.11874491458E+03  0.11874491461E+03  0.25500000000E-02 0. -1.
         -2   -1    0    0    0  501 -0.00000000000E+00 -0.00000000000E+00 -0.46978926538E+00  0.46979618599E+00  0.25500000000E-02 0.  1.
         31    1    1    2    0    0  0.54643503156E-02  0.48698197399E+00  0.56751450248E+02  0.57240049027E+02  0.74470750000E+01 0.  1.
        -31    1    1    2    0    0 -0.54643503156E-02 -0.48698197399E+00  0.61523675067E+02  0.61974661766E+02  0.74470750000E+01 0. -1.
<mgrwt>
<rscale>  0 0.14937938E+02</rscale>
<asrwt>0</asrwt>
<pdfrwt beam="1">  1        2 0.98575064E+00 0.14937938E+02</pdfrwt>
<pdfrwt beam="2">  1       -2 0.99774289E+00 0.14937938E+02</pdfrwt>
<totfact>-0.20134519E-13</totfact>
</mgrwt>
</event>
<event>
 4    1  0.4926183E-019  0.1492967E+02  0.7818608E-02  0.1870222E+00
          2   -1    0    0  501    0  0.00000000000E+00  0.00000000000E+00  0.11997878127E+03  0.11997878130E+03  0.25500000000E-02 0. -1.
         -2   -1    0    0    0  501 -0.00000000000E+00 -0.00000000000E+00 -0.46444324861E+00  0.46445024887E+00  0.25500000000E-02 0.  1.
         31    1    1    2    0    0  0.29530131396E+00  0.37016872032E+00  0.61382786648E+02  0.61834696170E+02  0.74470750000E+01 0.  1.
        -31    1    1    2    0    0 -0.29530131396E+00 -0.37016872032E+00  0.58131551376E+02  0.58608535379E+02  0.74470750000E+01 0.  1.
<mgrwt>
<rscale>  0 0.14929670E+02</rscale>
<asrwt>0</asrwt>
<pdfrwt beam="1">  1        2 0.99590891E+00 0.14929670E+02</pdfrwt>
<pdfrwt beam="2">  1       -2 0.98647289E+00 0.14929670E+02</pdfrwt>
<totfact> 0.27081822E-13</totfact>
</mgrwt>
</event>
<event>
 4    1  0.4926183E-019  0.1490528E+02  0.7818608E-02  0.1870973E+00
         -2   -1    0    0    0  501 -0.00000000000E+00  0.00000000000E+00  0.11823192904E+03  0.11823192906E+03  0.25500000000E-02 0. -1.
          2   -1    0    0  501    0  0.00000000000E+00 -0.00000000000E+00 -0.46976650134E+00  0.46977342228E+00  0.25500000000E-02 0.  1.
         31    1    1    2    0    0 -0.19661945028E+00 -0.17835145345E+00  0.59768512572E+02  0.60231258409E+02  0.74470750000E+01 0. -1.
        -31    1    1    2    0    0  0.19661945028E+00  0.17835145345E+00  0.57993649964E+02  0.58470444078E+02  0.74470750000E+01 0. -1.
<mgrwt>
<rscale>  0 0.14905276E+02</rscale>
<asrwt>0</asrwt>
<pdfrwt beam="2">  1        2 0.99767767E+00 0.14905276E+02</pdfrwt>
<pdfrwt beam="1">  1       -2 0.98150873E+00 0.14905276E+02</pdfrwt>
<totfact> 0.66462748E-13</totfact>
</mgrwt>
</event>
<event>
 4    1 -0.4926183E-019  0.1498888E+02  0.7818608E-02  0.1868408E+00
         -2   -1    0    0    0  501 -0.00000000000E+00  0.00000000000E+00  0.12030248799E+03  0.12030248801E+03  0.25500000000E-02 0.  1.
          2   -1    0    0  501    0  0.00000000000E+00 -0.00000000000E+00 -0.46687469649E+00  0.46688166030E+00  0.25500000000E-02 0. -1.
         31    1    1    2    0    0 -0.39496031812E+00  0.59832930260E+00  0.56371766991E+02  0.56866062211E+02  0.74470750000E+01 0. -1.
        -31    1    1    2    0    0  0.39496031812E+00 -0.59832930260E+00  0.63463846299E+02  0.63903307463E+02  0.74470750000E+01 0.  1.
<mgrwt>
<rscale>  0 0.14988877E+02</rscale>
<asrwt>0</asrwt>
<pdfrwt beam="2">  1        2 0.99162751E+00 0.14988877E+02</pdfrwt>
<pdfrwt beam="1">  1       -2 0.99860565E+00 0.14988877E+02</pdfrwt>
<totfact>-0.68231527E-14</totfact>
</mgrwt>
</event>
<event>
 4    1 -0.4926183E-019  0.1490914E+02  0.7818608E-02  0.1870854E+00
         -2   -1    0    0    0  501 -0.00000000000E+00  0.00000000000E+00  0.11993688645E+03  0.11993688648E+03  0.25500000000E-02 0. -1.
          2   -1    0    0  501    0  0.00000000000E+00 -0.00000000000E+00 -0.46332851055E+00  0.46333552765E+00  0.25500000000E-02 0.  1.
         31    1    1    2    0    0  0.31989310040E+00 -0.86009162296E-01  0.60093185891E+02  0.60553774827E+02  0.74470750000E+01 0. -1.
        -31    1    1    2    0    0 -0.31989310040E+00  0.86009162296E-01  0.59380372047E+02  0.59846447177E+02  0.74470750000E+01 0. -1.
<mgrwt>
<rscale>  0 0.14909139E+02</rscale>
<asrwt>0</asrwt>
<pdfrwt beam="2">  1        2 0.98411302E+00 0.14909139E+02</pdfrwt>
<pdfrwt beam="1">  1       -2 0.99555328E+00 0.14909139E+02</pdfrwt>
<totfact>-0.39189542E-13</totfact>
</mgrwt>
</event>
<event>
 4    1 -0.4926183E-019  0.1500688E+02  0.7818608E-02  0.1867859E+00
          2   -1    0    0  501    0  0.00000000000E+00  0.00000000000E+00  0.12002338870E+03  0.12002338872E+03  0.25500000000E-02 0.  1.
         -2   -1    0    0    0  501 -0.00000000000E+00 -0.00000000000E+00 -0.46908509335E+00  0.46909202434E+00  0.25500000000E-02 0. -1.
         31    1    1    2    0    0  0.38493401513E+00  0.70697513744E+00  0.56234416440E+02  0.56731089417E+02  0.74470750000E+01 0. -1.
        -31    1    1    2    0    0 -0.38493401513E+00 -0.70697513744E+00  0.63319887164E+02  0.63761391332E+02  0.74470750000E+01 0. -1.
<mgrwt>
<rscale>  0 0.15006879E+02</rscale>
<asrwt>0</asrwt>
<pdfrwt beam="1">  1        2 0.99631614E+00 0.15006879E+02</pdfrwt>
<pdfrwt beam="2">  1       -2 0.99629502E+00 0.15006879E+02</pdfrwt>
<totfact>-0.90997888E-14</totfact>
</mgrwt>
</event>
<event>
 4    1  0.4926183E-019  0.1492527E+02  0.7818608E-02  0.1870358E+00
         -2   -1    0    0    0  501 -0.00000000000E+00  0.00000000000E+00  0.11867275618E+03  0.11867275621E+03  0.25500000000E-02 0.  1.
          2   -1    0    0  501    0  0.00000000000E+00 -0.00000000000E+00 -0.46927768987E+00  0.46928461802E+00  0.25500000000E-02 0. -1.
         31    1    1    2    0    0 -0.38870552464E+00  0.76976636768E-01  0.61287095962E+02  0.61739161598E+02  0.74470750000E+01 0.  1.
        -31    1    1    2    0    0  0.38870552464E+00 -0.76976636768E-01  0.56916382531E+02  0.57402879230E+02  0.74470750000E+01 0. -1.
<mgrwt>
<rscale>  0 0.14925266E+02</rscale>
<asrwt>0</asrwt>
<pdfrwt beam="2">  1        2 0.99665831E+00 0.14925266E+02</pdfrwt>
<pdfrwt beam="1">  1       -2 0.98514975E+00 0.14925266E+02</pdfrwt>
<totfact> 0.36812488E-13</totfact>
</mgrwt>
</event>
<event>
 4    1 -0.4926183E-019  0.1497237E+02  0.7818608E-02  0.1868913E+00
         -2   -1    0    0    0  501 -0.00000000000E+00  0.00000000000E+00  0.11945860769E+03  0.11945860771E+03  0.25500000000E-02 0.  1.
          2   -1    0    0  501    0  0.00000000000E+00 -0.00000000000E+00 -0.46913792971E+00  0.46914485993E+00  0.25500000000E-02 0. -1.
         31    1    1    2    0    0  0.24984885236E+00 -0.43615458388E-01  0.53720196675E+02  0.54234516534E+02  0.74470750000E+01 0. -1.
        -31    1    1    2    0    0 -0.24984885236E+00  0.43615458388E-01  0.65269273082E+02  0.65693236040E+02  0.74470750000E+01 0.  1.
<mgrwt>
<rscale>  0 0.14972372E+02</rscale>
<asrwt>0</asrwt>
<pdfrwt beam="2">  1        2 0.99638846E+00 0.14972372E+02</pdfrwt>
<pdfrwt beam="1">  1       -2 0.99164657E+00 0.14972372E+02</pdfrwt>
<totfact>-0.55865487E-14</totfact>
</mgrwt>
</event>
<event>
 4    1 -0.4926183E-019  0.1494445E+02  0.7818608E-02  0.1869768E+00
         -2   -1    0    0    0  501 -0.00000000000E+00  0.00000000000E+00  0.11975880298E+03  0.11975880301E+03  0.25500000000E-02 0. -1.
          2   -1    0    0  501    0  0.00000000000E+00 -0.00000000000E+00 -0.46621811936E+00  0.46622509297E+00  0.25500000000E-02 0.  1.
         31    1    1    2    0    0 -0.12601088785E+00  0.22807258057E-04  0.54823842801E+02  0.55327466454E+02  0.74470750000E+01 0.  1.
        -31    1    1    2    0    0  0.12601088785E+00 -0.22807258057E-04  0.64468742060E+02  0.64897561646E+02  0.74470750000E+01 0. -1.
<mgrwt>
<rscale>  0 0.14944450E+02</rscale>
<asrwt>0</asrwt>
<pdfrwt beam="2">  1        2 0.99022101E+00 0.14944450E+02</pdfrwt>
<pdfrwt beam="1">  1       -2 0.99410465E+00 0.14944450E+02</pdfrwt>
<totfact>-0.17226603E-13</totfact>
</mgrwt>
</event>
<event>
 4    1 -0.4926183E-019  0.1492697E+02  0.7818608E-02  0.1870305E+00
         -2   -1    0    0    0  501 -0.00000000000E+00  0.00000000000E+00  0.11932374207E+03  0.11932374210E+03  0.25500000000E-02 0.  1.
          2   -1    0    0  501    0  0.00000000000E+00 -0.00000000000E+00 -0.46682382140E+00  0.46683078597E+00  0.25500000000E-02 0. -1.
         31    1    1    2    0    0 -0.25056780898E+00 -0.36105527558E+00  0.61249873769E+02  0.61702504876E+02  0.74470750000E+01 0.  1.
        -31    1    1    2    0    0  0.25056780898E+00  0.36105527558E+00  0.57607044482E+02  0.58088068010E+02  0.74470750000E+01 0. -1.
<mgrwt>
<rscale>  0 0.14926967E+02</rscale>
<asrwt>0</asrwt>
<pdfrwt beam="2">  1        2 0.99148844E+00 0.14926967E+02</pdfrwt>
<pdfrwt beam="1">  1       -2 0.99051227E+00 0.14926967E+02</pdfrwt>
<totfact>-0.25080240E-14</totfact>
</mgrwt>
</event>
<event>
 4    1  0.4926183E-019  0.1491466E+02  0.7818608E-02  0.1870684E+00
          2   -1    0    0  501    0  0.00000000000E+00  0.00000000000E+00  0.12017416318E+03  0.12017416321E+03  0.25500000000E-02 0. -1.
         -2   -1    0    0    0  501 -0.00000000000E+00 -0.00000000000E+00 -0.46275601869E+00  0.46276304447E+00  0.25500000000E-02 0.  1.
         31    1    1    2    0    0 -0.21813540765E+00 -0.31743925062E+00  0.60396237608E+02  0.60854850209E+02  0.74470750000E+01 0. -1.
        -31    1    1    2    0    0  0.21813540765E+00  0.31743925062E+00  0.59315169558E+02  0.59782076047E+02  0.74470750000E+01 0.  1.
<mgrwt>
<rscale>  0 0.14914656E+02</rscale>
<asrwt>0</asrwt>
<pdfrwt beam="1">  1        2 0.99751051E+00 0.14914656E+02</pdfrwt>
<pdfrwt beam="2">  1       -2 0.98290920E+00 0.14914656E+02</pdfrwt>
<totfact> 0.52618496E-13</totfact>
</mgrwt>
</event>
<event>
 4    1 -0.4926183E-019  0.1493007E+02  0.7818608E-02  0.1870210E+00
         -2   -1    0    0    0  501 -0.00000000000E+00  0.00000000000E+00  0.11956982136E+03  0.11956982139E+03  0.25500000000E-02 0.  1.
          2   -1    0    0  501    0  0.00000000000E+00 -0.00000000000E+00 -0.46605696944E+00  0.46606394546E+00  0.25500000000E-02 0. -1.
         31    1    1    2    0    0 -0.37661232326E+00 -0.28720043732E+00  0.57874611564E+02  0.58353696633E+02  0.74470750000E+01 0. -1.
        -31    1    1    2    0    0  0.37661232326E+00  0.28720043732E+00  0.61229152827E+02  0.61682188701E+02  0.74470750000E+01 0. -1.
<mgrwt>
<rscale>  0 0.14930073E+02</rscale>
<asrwt>0</asrwt>
<pdfrwt beam="2">  1        2 0.98987401E+00 0.14930073E+02</pdfrwt>
<pdfrwt beam="1">  1       -2 0.99254068E+00 0.14930073E+02</pdfrwt>
<totfact>-0.14190337E-13</totfact>
</mgrwt>
</event>
<event>
 4    1 -0.4926183E-019  0.1492033E+02  0.7818608E-02  0.1870509E+00
         -2   -1    0    0    0  501 -0.00000000000E+00  0.00000000000E+00  0.12001662613E+03  0.12001662615E+03  0.25500000000E-02 0. -1.
          2   -1    0    0  501    0  0.00000000000E+00 -0.00000000000E+00 -0.46371635504E+00  0.46372336628E+00  0.25500000000E-02 0.  1.
         31    1    1    2    0    0  0.12938693499E+00  0.34188844631E+00  0.61779645383E+02  0.62227944995E+02  0.74470750000E+01 0. -1.
        -31    1    1    2    0    0 -0.12938693499E+00 -0.34188844631E+00  0.57773264390E+02  0.58252404526E+02  0.74470750000E+01 0.  1.
<mgrwt>
<rscale>  0 0.14920335E+02</rscale>
<asrwt>0</asrwt>
<pdfrwt beam="2">  1        2 0.98493614E+00 0.14920335E+02</pdfrwt>
<pdfrwt beam="1">  1       -2 0.99621583E+00 0.14920335E+02</pdfrwt>
<totfact>-0.32091976E-13</totfact>
</mgrwt>
</event>
<event>
 4    1  0.4926183E-019  0.1494447E+02  0.7818608E-02  0.1869768E+00
          2   -1    0    0  501    0  0.00000000000E+00  0.00000000000E+00  0.12030159081E+03  0.12030159083E+03  0.25500000000E-02 0.  1.
         -2   -1    0    0    0  501 -0.00000000000E+00 -0.00000000000E+00 -0.46411574815E+00  0.46412275336E+00  0.25500000000E-02 0. -1.
         31    1    1    2    0    0  0.18108587715E+00 -0.47036924830E-02  0.55189148983E+02  0.55689621167E+02  0.74470750000E+01 0. -1.
        -31    1    1    2    0    0 -0.18108587715E+00  0.47036924830E-02  0.64648326076E+02  0.65076092421E+02  0.74470750000E+01 0.  1.
<mgrwt>
<rscale>  0 0.14944469E+02</rscale>
<asrwt>0</asrwt>
<pdfrwt beam="1">  1        2 0.99857542E+00 0.14944469E+02</pdfrwt>
<pdfrwt beam="2">  1       -2 0.98579017E+00 0.14944469E+02</pdfrwt>
<totfact> 0.15931803E-13</totfact>
</mgrwt>
</event>
<event>
 4    1  0.4926183E-019  0.1494929E+02  0.7818608E-02  0.1869620E+00
          2   -1    0    0  501    0  0.00000000000E+00  0.00000000000E+00  0.12031053614E+03  0.12031053617E+03  0.25500000000E-02 0.  1.
         -2   -1    0    0    0  501 -0.00000000000E+00 -0.00000000000E+00 -0.46438069221E+00  0.46438769341E+00  0.25500000000E-02 0. -1.
         31    1    1    2    0    0  0.46877618029E+00 -0.10865453754E+00  0.63349091456E+02  0.63787129354E+02  0.74470750000E+01 0.  1.
        -31    1    1    2    0    0 -0.46877618029E+00  0.10865453754E+00  0.56497063991E+02  0.56987794505E+02  0.74470750000E+01 0. -1.
<mgrwt>
<rscale>  0 0.14949290E+02</rscale>
<asrwt>0</asrwt>
<pdfrwt beam="1">  1        2 0.99865157E+00 0.14949290E+02</pdfrwt>
<pdfrwt beam="2">  1       -2 0.98635103E+00 0.14949290E+02</pdfrwt>
<totfact> 0.12569882E-13</totfact>
</mgrwt>
</event>
<event>
 4    1 -0.4926183E-019  0.1500378E+02  0.7818608E-02  0.1867953E+00
         -2   -1    0    0    0  501 -0.00000000000E+00  0.00000000000E+00  0.11994765239E+03  0.11994765242E+03  0.25500000000E-02 0.  1.
          2   -1    0    0  501    0  0.00000000000E+00 -0.00000000000E+00 -0.46918716573E+00  0.46919409521E+00  0.25500000000E-02 0. -1.
         31    1    1    2    0    0 -0.32034744668E+00 -0.46146301797E+00  0.65435953469E+02  0.65860750854E+02  0.74470750000E+01 0.  1.
        -31    1    1    2    0    0  0.32034744668E+00  0.46146301797E+00  0.54042511757E+02  0.54556095660E+02  0.74470750000E+01 0. -1.
<mgrwt>
<rscale>  0 0.15003775E+02</rscale>
<asrwt>0</asrwt>
<pdfrwt beam="2">  1        2 0.99650852E+00 0.15003775E+02</pdfrwt>
<pdfrwt beam="1">  1       -2 0.99569074E+00 0.15003775E+02</pdfrwt>
<totfact>-0.93888140E-14</totfact>
</mgrwt>
</event>
<event>
 4    1 -0.4926183E-019  0.1499504E+02  0.7818608E-02  0.1868220E+00
         -2   -1    0    0    0  501 -0.00000000000E+00  0.00000000000E+00  0.11974896872E+03  0.11974896874E+03  0.25500000000E-02 0.  1.
          2   -1    0    0  501    0  0.00000000000E+00 -0.00000000000E+00 -0.46941884793E+00  0.46942577400E+00  0.25500000000E-02 0. -1.
         31    1    1    2    0    0 -0.78296137024E+00  0.37284807986E+00  0.59986525882E+02  0.60453240258E+02  0.74470750000E+01 0. -1.
        -31    1    1    2    0    0  0.78296137024E+00 -0.37284807986E+00  0.59293023987E+02  0.59765154261E+02  0.74470750000E+01 0. -1.
<mgrwt>
<rscale>  0 0.14995045E+02</rscale>
<asrwt>0</asrwt>
<pdfrwt beam="2">  1        2 0.99699222E+00 0.14995045E+02</pdfrwt>
<pdfrwt beam="1">  1       -2 0.99404980E+00 0.14995045E+02</pdfrwt>
<totfact>-0.86581399E-14</totfact>
</mgrwt>
</event>
<event>
 4    1 -0.4926183E-019  0.1489989E+02  0.7818608E-02  0.1871139E+00
          2   -1    0    0  501    0  0.00000000000E+00  0.00000000000E+00  0.11795613948E+03  0.11795613951E+03  0.25500000000E-02 0. -1.
         -2   -1    0    0    0  501 -0.00000000000E+00 -0.00000000000E+00 -0.47052436876E+00  0.47053127855E+00  0.25500000000E-02 0.  1.
         31    1    1    2    0    0 -0.11418945570E+00  0.15990521923E+00  0.59252599402E+02  0.59719076272E+02  0.74470750000E+01 0. -1.
        -31    1    1    2    0    0  0.11418945570E+00 -0.15990521923E+00  0.58233015714E+02  0.58707594518E+02  0.74470750000E+01 0. -1.
<mgrwt>
<rscale>  0 0.14899886E+02</rscale>
<asrwt>0</asrwt>
<pdfrwt beam="1">  1        2 0.97923457E+00 0.14899886E+02</pdfrwt>
<pdfrwt beam="2">  1       -2 0.99927155E+00 0.14899886E+02</pdfrwt>
<totfact>-0.21936877E-13</totfact>
</mgrwt>
</event>
<event>
 4    1  0.4926183E-019  0.1493873E+02  0.7818608E-02  0.1869944E+00
          2   -1    0    0  501    0  0.00000000000E+00  0.00000000000E+00  0.12016298641E+03  0.12016298644E+03  0.25500000000E-02 0. -1.
         -2   -1    0    0    0  501 -0.00000000000E+00 -0.00000000000E+00 -0.46429402245E+00  0.46430102497E+00  0.25500000000E-02 0.  1.
         31    1    1    2    0    0 -0.12789812483E+00 -0.34829882349E+00  0.56285582395E+02  0.56777313969E+02  0.74470750000E+01 0.  1.
        -31    1    1    2    0    0  0.12789812483E+00  0.34829882349E+00  0.63413109991E+02  0.63849973491E+02  0.74470750000E+01 0. -1.
<mgrwt>
<rscale>  0 0.14938726E+02</rscale>
<asrwt>0</asrwt>
<pdfrwt beam="1">  1        2 0.99743081E+00 0.14938726E+02</pdfrwt>
<pdfrwt beam="2">  1       -2 0.98616299E+00 0.14938726E+02</pdfrwt>
<totfact> 0.22359931E-13</totfact>
</mgrwt>
</event>
<event>
 4    1 -0.4926183E-019  0.1498595E+02  0.7818608E-02  0.1868498E+00
         -2   -1    0    0    0  501 -0.00000000000E+00  0.00000000000E+00  0.12003276754E+03  0.12003276757E+03  0.25500000000E-02 0. -1.
          2   -1    0    0  501    0  0.00000000000E+00 -0.00000000000E+00 -0.46774075399E+00  0.46774770491E+00  0.25500000000E-02 0.  1.
         31    1    1    2    0    0  0.26602393664E+00 -0.67759016549E+00  0.56608501449E+02  0.57100886679E+02  0.74470750000E+01 0.  1.
        -31    1    1    2    0    0 -0.26602393664E+00  0.67759016549E+00  0.62956525335E+02  0.63399628591E+02  0.74470750000E+01 0. -1.
<mgrwt>
<rscale>  0 0.14985945E+02</rscale>
<asrwt>0</asrwt>
<pdfrwt beam="2">  1        2 0.99345119E+00 0.14985945E+02</pdfrwt>
<pdfrwt beam="1">  1       -2 0.99638257E+00 0.14985945E+02</pdfrwt>
<totfact>-0.12191722E-13</totfact>
</mgrwt>
</event>
<event>
 4    1  0.4926183E-019  0.1493687E+02  0.7818608E-02  0.1870001E+00
          2   -1    0    0  501    0  0.00000000000E+00  0.00000000000E+00  0.12018025190E+03  0.12018025193E+03  0.25500000000E-02 0. -1.
         -2   -1    0    0    0  501 -0.00000000000E+00 -0.00000000000E+00 -0.46411207647E+00  0.46411908173E+00  0.25500000000E-02 0.  1.
         31    1    1    2    0    0 -0.24745473042E+00  0.18098174830E+00  0.56030105091E+02  0.56523672835E+02  0.74470750000E+01 0.  1.
        -31    1    1    2    0    0  0.24745473042E+00 -0.18098174830E+00  0.63686034733E+02  0.64120698174E+02  0.74470750000E+01 0. -1.
<mgrwt>
<rscale>  0 0.14936871E+02</rscale>
<asrwt>0</asrwt>
<pdfrwt beam="1">  1        2 0.99757207E+00 0.14936871E+02</pdfrwt>
<pdfrwt beam="2">  1       -2 0.98577858E+00 0.14936871E+02</pdfrwt>
<totfact> 0.24392281E-13</totfact>
</mgrwt>
</event>
<event>
 4    1 -0.4926183E-019  0.1503794E+02  0.7818608E-02  0.1866913E+00
          2   -1    0    0  501    0  0.00000000000E+00  0.00000000000E+00  0.12040908530E+03  0.12040908533E+03  0.25500000000E-02 0.  1.
         -2   -1    0    0    0  501 -0.00000000000E+00 -0.00000000000E+00 -0.46952038033E+00  0.46952730490E+00  0.25500000000E-02 0. -1.
         31    1    1    2    0    0  0.99515177765E+00 -0.22749047861E+00  0.58489029412E+02  0.58970056525E+02  0.74470750000E+01 0. -1.
        -31    1    1    2    0    0 -0.99515177765E+00  0.22749047861E+00  0.61450535513E+02  0.61908556112E+02  0.74470750000E+01 0.  1.
<mgrwt>
<rscale>  0 0.15037944E+02</rscale>
<asrwt>0</asrwt>
<pdfrwt beam="1">  1        2 0.99950894E+00 0.15037944E+02</pdfrwt>
<pdfrwt beam="2">  1       -2 0.99722837E+00 0.15037944E+02</pdfrwt>
<totfact>-0.14440366E-14</totfact>
</mgrwt>
</event>
<event>
 4    1  0.4926183E-019  0.1489757E+02  0.7818608E-02  0.1871211E+00
          2   -1    0    0  501    0  0.00000000000E+00  0.00000000000E+00  0.11991912038E+03  0.11991912041E+03  0.25500000000E-02 0. -1.
         -2   -1    0    0    0  501 -0.00000000000E+00 -0.00000000000E+00 -0.46267798952E+00  0.46268501649E+00  0.25500000000E-02 0.  1.
         31    1    1    2    0    0  0.10505417521E+00  0.11175433830E+00  0.60081433496E+02  0.60541399905E+02  0.74470750000E+01 0.  1.
        -31    1    1    2    0    0 -0.10505417521E+00 -0.11175433830E+00  0.59375008895E+02  0.59840405520E+02  0.74470750000E+01 0. -1.
<mgrwt>
<rscale>  0 0.14897565E+02</rscale>
<asrwt>0</asrwt>
<pdfrwt beam="1">  1        2 0.99540099E+00 0.14897565E+02</pdfrwt>
<pdfrwt beam="2">  1       -2 0.98273608E+00 0.14897565E+02</pdfrwt>
<totfact> 0.80685298E-13</totfact>
</mgrwt>
</event>
<event>
 4    1 -0.4926183E-019  0.1495589E+02  0.7818608E-02  0.1869417E+00
         -2   -1    0    0    0  501 -0.00000000000E+00  0.00000000000E+00  0.11949977204E+03  0.11949977207E+03  0.25500000000E-02 0.  1.
          2   -1    0    0  501    0  0.00000000000E+00 -0.00000000000E+00 -0.46794461488E+00  0.46795156276E+00  0.25500000000E-02 0. -1.
         31    1    1    2    0    0  0.11108971406E+00  0.55944474541E+00  0.62468060869E+02  0.62912978582E+02  0.74470750000E+01 0.  1.
        -31    1    1    2    0    0 -0.11108971406E+00 -0.55944474541E+00  0.56563766556E+02  0.57054745047E+02  0.74470750000E+01 0.  1.
<mgrwt>
<rscale>  0 0.14955894E+02</rscale>
<asrwt>0</asrwt>
<pdfrwt beam="2">  1        2 0.99386528E+00 0.14955894E+02</pdfrwt>
<pdfrwt beam="1">  1       -2 0.99197708E+00 0.14955894E+02</pdfrwt>
<totfact>-0.86409487E-14</totfact>
</mgrwt>
</event>
<event>
 4    1 -0.4926183E-019  0.1499087E+02  0.7818608E-02  0.1868347E+00
         -2   -1    0    0    0  501 -0.00000000000E+00  0.00000000000E+00  0.11956530597E+03  0.11956530600E+03  0.25500000000E-02 0. -1.
          2   -1    0    0  501    0  0.00000000000E+00 -0.00000000000E+00 -0.46987845731E+00  0.46988537660E+00  0.25500000000E-02 0.  1.
         31    1    1    2    0    0  0.20082936158E+00 -0.19903606618E+00  0.53128418908E+02  0.53648557944E+02  0.74470750000E+01 0.  1.
        -31    1    1    2    0    0 -0.20082936158E+00  0.19903606618E+00  0.65967008603E+02  0.66386633428E+02  0.74470750000E+01 0. -1.
<mgrwt>
<rscale>  0 0.14990874E+02</rscale>
<asrwt>0</asrwt>
<pdfrwt beam="2">  1        2 0.99795855E+00 0.14990874E+02</pdfrwt>
<pdfrwt beam="1">  1       -2 0.99253495E+00 0.14990874E+02</pdfrwt>
<totfact>-0.52148987E-14</totfact>
</mgrwt>
</event>
<event>
 4    1  0.4926183E-019  0.1492072E+02  0.7818608E-02  0.1870497E+00
          2   -1    0    0  501    0  0.00000000000E+00  0.00000000000E+00  0.12014420077E+03  0.12014420079E+03  0.25500000000E-02 0. -1.
         -2   -1    0    0    0  501 -0.00000000000E+00 -0.00000000000E+00 -0.46324803695E+00  0.46325505527E+00  0.25500000000E-02 0.  1.
         31    1    1    2    0    0 -0.41909997046E+00 -0.62586189140E-01  0.58740976040E+02  0.59212673930E+02  0.74470750000E+01 0.  1.
        -31    1    1    2    0    0  0.41909997046E+00  0.62586189140E-01  0.60939976689E+02  0.61394781918E+02  0.74470750000E+01 0.  1.
<mgrwt>
<rscale>  0 0.14920723E+02</rscale>
<asrwt>0</asrwt>
<pdfrwt beam="1">  1        2 0.99726683E+00 0.14920723E+02</pdfrwt>
<pdfrwt beam="2">  1       -2 0.98394929E+00 0.14920723E+02</pdfrwt>
<totfact> 0.44246521E-13</totfact>
</mgrwt>
</event>
<event>
 4    1 -0.4926183E-019  0.1495958E+02  0.7818608E-02  0.1869304E+00
          2   -1    0    0  501    0  0.00000000000E+00  0.00000000000E+00  0.11893737665E+03  0.11893737667E+03  0.25500000000E-02 0. -1.
         -2   -1    0    0    0  501 -0.00000000000E+00 -0.00000000000E+00 -0.47038903048E+00  0.47039594226E+00  0.25500000000E-02 0.  1.
         31    1    1    2    0    0  0.33422411157E+00 -0.85719211859E-01  0.54382994980E+02  0.54891603389E+02  0.74470750000E+01 0.  1.
        -31    1    1    2    0    0 -0.33422411157E+00  0.85719211859E-01  0.64083992636E+02  0.64516169227E+02  0.74470750000E+01 0. -1.
<mgrwt>
<rscale>  0 0.14959579E+02</rscale>
<asrwt>0</asrwt>
<pdfrwt beam="1">  1        2 0.98734701E+00 0.14959579E+02</pdfrwt>
<pdfrwt beam="2">  1       -2 0.99901801E+00 0.14959579E+02</pdfrwt>
<totfact>-0.77823398E-14</totfact>
</mgrwt>
</event>
<event>
 4    1 -0.4926183E-019  0.1491751E+02  0.7818608E-02  0.1870596E+00
          2   -1    0    0  501    0  0.00000000000E+00  0.00000000000E+00  0.11837229669E+03  0.11837229671E+03  0.25500000000E-02 0. -1.
         -2   -1    0    0    0  501 -0.00000000000E+00 -0.00000000000E+00 -0.46997982285E+00  0.46998674064E+00  0.25500000000E-02 0.  1.
         31    1    1    2    0    0 -0.14705544879E+00  0.17202579164E+00  0.56158749048E+02  0.56650818519E+02  0.74470750000E+01 0. -1.
        -31    1    1    2    0    0  0.14705544879E+00 -0.17202579164E+00  0.61743567815E+02  0.62191464935E+02  0.74470750000E+01 0. -1.
<mgrwt>
<rscale>  0 0.14917507E+02</rscale>
<asrwt>0</asrwt>
<pdfrwt beam="1">  1        2 0.98267115E+00 0.14917507E+02</pdfrwt>
<pdfrwt beam="2">  1       -2 0.99813361E+00 0.14917507E+02</pdfrwt>
<totfact>-0.28757730E-13</totfact>
</mgrwt>
</event>
<event>
 4    1 -0.4926183E-019  0.1494436E+02  0.7818608E-02  0.1869771E+00
         -2   -1    0    0    0  501 -0.00000000000E+00  0.00000000000E+00  0.11940180743E+03  0.11940180746E+03  0.25500000000E-02 0.  1.
          2   -1    0    0  501    0  0.00000000000E+00 -0.00000000000E+00 -0.46760623433E+00  0.46761318724E+00  0.25500000000E-02 0. -1.
         31    1    1    2    0    0 -0.49126954363E-01 -0.40605441100E+00  0.63118468674E+02  0.63557590479E+02  0.74470750000E+01 0.  1.
        -31    1    1    2    0    0  0.49126954363E-01  0.40605441100E+00  0.55815732524E+02  0.56311830168E+02  0.74470750000E+01 0. -1.
<mgrwt>
<rscale>  0 0.14944357E+02</rscale>
<asrwt>0</asrwt>
<pdfrwt beam="2">  1        2 0.99314623E+00 0.14944357E+02</pdfrwt>
<pdfrwt beam="1">  1       -2 0.99116424E+00 0.14944357E+02</pdfrwt>
<totfact>-0.56933822E-14</totfact>
</mgrwt>
</event>
<event>
 4    1  0.4926183E-019  0.1490369E+02  0.7818608E-02  0.1871022E+00
          2   -1    0    0  501    0  0.00000000000E+00  0.00000000000E+00  0.12002135374E+03  0.12002135376E+03  0.25500000000E-02 0. -1.
         -2   -1    0    0    0  501 -0.00000000000E+00 -0.00000000000E+00 -0.46266434156E+00  0.46267136874E+00  0.25500000000E-02 0.  1.
         31    1    1    2    0    0 -0.23834448215E+00  0.11953323139E+00  0.59764835583E+02  0.60227614884E+02  0.74470750000E+01 0.  1.
        -31    1    1    2    0    0  0.23834448215E+00 -0.11953323139E+00  0.59793853811E+02  0.60256410247E+02  0.74470750000E+01 0.  1.
<mgrwt>
<rscale>  0 0.14903694E+02</rscale>
<asrwt>0</asrwt>
<pdfrwt beam="1">  1        2 0.99624622E+00 0.14903694E+02</pdfrwt>
<pdfrwt beam="2">  1       -2 0.98271042E+00 0.14903694E+02</pdfrwt>
<totfact> 0.72242652E-13</totfact>
</mgrwt>
</event>
<event>
 4    1 -0.4926183E-019  0.1497604E+02  0.7818608E-02  0.1868800E+00
          2   -1    0    0  501    0  0.00000000000E+00  0.00000000000E+00  0.11958642281E+03  0.11958642283E+03  0.25500000000E-02 0.  1.
         -2   -1    0    0    0  501 -0.00000000000E+00 -0.00000000000E+00 -0.46886634701E+00  0.46887328124E+00  0.25500000000E-02 0. -1.
         31    1    1    2    0    0 -0.39022634387E+00 -0.56677539812E+00  0.56580459882E+02  0.57072593050E+02  0.74470750000E+01 0. -1.
        -31    1    1    2    0    0  0.39022634387E+00  0.56677539812E+00  0.62537096578E+02  0.62982703065E+02  0.74470750000E+01 0.  1.
<mgrwt>
<rscale>  0 0.14976043E+02</rscale>
<asrwt>0</asrwt>
<pdfrwt beam="1">  1        2 0.99270119E+00 0.14976043E+02</pdfrwt>
<pdfrwt beam="2">  1       -2 0.99581808E+00 0.14976043E+02</pdfrwt>
<totfact>-0.13750488E-13</totfact>
</mgrwt>
</event>
<event>
 4    1  0.4926183E-019  0.1491526E+02  0.7818608E-02  0.1870666E+00
         -2   -1    0    0    0  501 -0.00000000000E+00  0.00000000000E+00  0.11836699693E+03  0.11836699696E+03  0.25500000000E-02 0. -1.
          2   -1    0    0  501    0  0.00000000000E+00 -0.00000000000E+00 -0.46985904125E+00  0.46986596083E+00  0.25500000000E-02 0.  1.
         31    1    1    2    0    0 -0.36093370088E+00 -0.13462803744E+00  0.58197232869E+02  0.58673036716E+02  0.74470750000E+01 0.  1.
        -31    1    1    2    0    0  0.36093370088E+00  0.13462803744E+00  0.59699905021E+02  0.60163826203E+02  0.74470750000E+01 0.  1.
<mgrwt>
<rscale>  0 0.14915256E+02</rscale>
<asrwt>0</asrwt>
<pdfrwt beam="2">  1        2 0.99787793E+00 0.14915256E+02</pdfrwt>
<pdfrwt beam="1">  1       -2 0.98262633E+00 0.14915256E+02</pdfrwt>
<totfact> 0.49627028E-13</totfact>
</mgrwt>
</event>
<event>
 4    1 -0.4926183E-019  0.1492618E+02  0.7818608E-02  0.1870330E+00
         -2   -1    0    0    0  501 -0.00000000000E+00  0.00000000000E+00  0.11971505385E+03  0.11971505388E+03  0.25500000000E-02 0.  1.
          2   -1    0    0  501    0  0.00000000000E+00 -0.00000000000E+00 -0.46524860945E+00  0.46525559760E+00  0.25500000000E-02 0. -1.
         31    1    1    2    0    0  0.33352460679E+00  0.38821391674E-01  0.56766714417E+02  0.57254096251E+02  0.74470750000E+01 0.  1.
        -31    1    1    2    0    0 -0.33352460679E+00 -0.38821391674E-01  0.62483090829E+02  0.62926213229E+02  0.74470750000E+01 0.  1.
<mgrwt>
<rscale>  0 0.14926176E+02</rscale>
<asrwt>0</asrwt>
<pdfrwt beam="2">  1        2 0.98816843E+00 0.14926176E+02</pdfrwt>
<pdfrwt beam="1">  1       -2 0.99373488E+00 0.14926176E+02</pdfrwt>
<totfact>-0.20939429E-13</totfact>
</mgrwt>
</event>
<event>
 4    1  0.4926183E-019  0.1493821E+02  0.7818608E-02  0.1869960E+00
          2   -1    0    0  501    0  0.00000000000E+00  0.00000000000E+00  0.12015715480E+03  0.12015715483E+03  0.25500000000E-02 0.  1.
         -2   -1    0    0    0  501 -0.00000000000E+00 -0.00000000000E+00 -0.46428465687E+00  0.46429165953E+00  0.25500000000E-02 0. -1.
         31    1    1    2    0    0  0.51710742622E+00 -0.24305670744E+00  0.60220376579E+02  0.60681786049E+02  0.74470750000E+01 0. -1.
        -31    1    1    2    0    0 -0.51710742622E+00  0.24305670744E+00  0.59472493564E+02  0.59939660438E+02  0.74470750000E+01 0. -1.
<mgrwt>
<rscale>  0 0.14938212E+02</rscale>
<asrwt>0</asrwt>
<pdfrwt beam="1">  1        2 0.99738251E+00 0.14938212E+02</pdfrwt>
<pdfrwt beam="2">  1       -2 0.98614299E+00 0.14938212E+02</pdfrwt>
<totfact> 0.22816779E-13</totfact>
</mgrwt>
</event>
<event>
 4    1  0.4926183E-019  0.1490816E+02  0.7818608E-02  0.1870884E+00
          2   -1    0    0  501    0  0.00000000000E+00  0.00000000000E+00  0.12032270890E+03  0.12032270892E+03  0.25500000000E-02 0.  1.
         -2   -1    0    0    0  501 -0.00000000000E+00 -0.00000000000E+00 -0.46178238673E+00  0.46178942733E+00  0.25500000000E-02 0. -1.
         31    1    1    2    0    0 -0.53387310249E-01  0.17810247688E+00  0.57789386529E+02  0.58267544072E+02  0.74470750000E+01 0. -1.
        -31    1    1    2    0    0  0.53387310249E-01 -0.17810247688E+00  0.62071539980E+02  0.62516954278E+02  0.74470750000E+01 0.  1.
<mgrwt>
<rscale>  0 0.14908163E+02</rscale>
<asrwt>0</asrwt>
<pdfrwt beam="1">  1        2 0.99873074E+00 0.14908163E+02</pdfrwt>
<pdfrwt beam="2">  1       -2 0.98085375E+00 0.14908163E+02</pdfrwt>
<totfact> 0.46076274E-13</totfact>
</mgrwt>
</event>
<event>
 4    1 -0.4926183E-019  0.1497809E+02  0.7818608E-02  0.1868738E+00
          2   -1    0    0  501    0  0.00000000000E+00  0.00000000000E+00  0.11961244852E+03  0.11961244855E+03  0.25500000000E-02 0. -1.
         -2   -1    0    0    0  501 -0.00000000000E+00 -0.00000000000E+00 -0.46889273333E+00  0.46889966716E+00  0.25500000000E-02 0.  1.
         31    1    1    2    0    0  0.53171607492E+00 -0.58645465881E+00  0.59445329751E+02  0.59915213479E+02  0.74470750000E+01 0. -1.
        -31    1    1    2    0    0 -0.53171607492E+00  0.58645465881E+00  0.59698226036E+02  0.60166134735E+02  0.74470750000E+01 0.  1.
<mgrwt>
<rscale>  0 0.14978094E+02</rscale>
<asrwt>0</asrwt>
<pdfrwt beam="1">  1        2 0.99291660E+00 0.14978094E+02</pdfrwt>
<pdfrwt beam="2">  1       -2 0.99587475E+00 0.14978094E+02</pdfrwt>
<totfact>-0.13468827E-13</totfact>
</mgrwt>
</event>
<event>
 4    1 -0.4926183E-019  0.1492167E+02  0.7818608E-02  0.1870468E+00
         -2   -1    0    0    0  501 -0.00000000000E+00  0.00000000000E+00  0.11980735855E+03  0.11980735858E+03  0.25500000000E-02 0.  1.
          2   -1    0    0  501    0  0.00000000000E+00 -0.00000000000E+00 -0.46460925394E+00  0.46461625170E+00  0.25500000000E-02 0. -1.
         31    1    1    2    0    0 -0.26181254078E+00 -0.26802693268E+00  0.61721899876E+02  0.62170670212E+02  0.74470750000E+01 0. -1.
        -31    1    1    2    0    0  0.26181254078E+00  0.26802693268E+00  0.57620849423E+02  0.58101304620E+02  0.74470750000E+01 0. -1.
<mgrwt>
<rscale>  0 0.14921666E+02</rscale>
<asrwt>0</asrwt>
<pdfrwt beam="2">  1        2 0.98681868E+00 0.14921666E+02</pdfrwt>
<pdfrwt beam="1">  1       -2 0.99449284E+00 0.14921666E+02</pdfrwt>
<totfact>-0.26223276E-13</totfact>
</mgrwt>
</event>
<event>
 4    1 -0.4926183E-019  0.1494439E+02  0.7818608E-02  0.1869770E+00
          2   -1    0    0  501    0  0.00000000000E+00  0.00000000000E+00  0.11901073677E+03  0.11901073680E+03  0.25500000000E-02 0. -1.
         -2   -1    0    0    0  501 -0.00000000000E+00 -0.00000000000E+00 -0.46914494644E+00  0.46915187655E+00  0.25500000000E-02 0.  1.
         31    1    1    2    0    0  0.31472550380E+00  0.47856526332E+00  0.57543097795E+02  0.58025814142E+02  0.74470750000E+01 0. -1.
        -31    1    1    2    0    0 -0.31472550380E+00 -0.47856526332E+00  0.60998494028E+02  0.61454074532E+02  0.74470750000E+01 0. -1.
<mgrwt>
<rscale>  0 0.14944390E+02</rscale>
<asrwt>0</asrwt>
<pdfrwt beam="1">  1        2 0.98794332E+00 0.14944390E+02</pdfrwt>
<pdfrwt beam="2">  1       -2 0.99638864E+00 0.14944390E+02</pdfrwt>
<totfact>-0.20092568E-13</totfact>
</mgrwt>
</event>
<event>
 4    1 -0.4926183E-019  0.1499496E+02  0.7818608E-02  0.1868222E+00
         -2   -1    0    0    0  501 -0.00000000000E+00  0.00000000000E+00  0.11983812854E+03  0.11983812857E+03  0.25500000000E-02 0.  1.
          2   -1    0    0  501    0  0.00000000000E+00 -0.00000000000E+00 -0.46906443286E+00  0.46907136416E+00  0.25500000000E-02 0. -1.
         31    1    1    2    0    0  0.45168393767E+00  0.71753743818E+00  0.61172997740E+02  0.61630458841E+02  0.74470750000E+01 0.  1.
        -31    1    1    2    0    0 -0.45168393767E+00 -0.71753743818E+00  0.58196066368E+02  0.58676741091E+02  0.74470750000E+01 0. -1.
<mgrwt>
<rscale>  0 0.14994962E+02</rscale>
<asrwt>0</asrwt>
<pdfrwt beam="2">  1        2 0.99624532E+00 0.14994962E+02</pdfrwt>
<pdfrwt beam="1">  1       -2 0.99478410E+00 0.14994962E+02</pdfrwt>
<totfact>-0.10190026E-13</totfact>
</mgrwt>
</event>
<event>
 4    1  0.4926183E-019  0.1490745E+02  0.7818608E-02  0.1870906E+00
          2   -1    0    0  501    0  0.00000000000E+00  0.00000000000E+00  0.12013664995E+03  0.12013664998E+03  0.25500000000E-02 0.  1.
         -2   -1    0    0    0  501 -0.00000000000E+00 -0.00000000000E+00 -0.46245308272E+00  0.46246011311E+00  0.25500000000E-02 0. -1.
         31    1    1    2    0    0  0.15042781926E+00 -0.27620216568E+00  0.59738861412E+02  0.60202071434E+02  0.74470750000E+01 0.  1.
        -31    1    1    2    0    0 -0.15042781926E+00  0.27620216568E+00  0.59935335456E+02  0.60397038657E+02  0.74470750000E+01 0. -1.
<mgrwt>
<rscale>  0 0.14907446E+02</rscale>
<asrwt>0</asrwt>
<pdfrwt beam="1">  1        2 0.99719782E+00 0.14907446E+02</pdfrwt>
<pdfrwt beam="2">  1       -2 0.98226705E+00 0.14907446E+02</pdfrwt>
<totfact> 0.65525818E-13</totfact>
</mgrwt>
</event>
<event>
 4    1 -0.4926183E-019  0.1493569E+02  0.7818608E-02  0.1870037E+00
          2   -1    0    0  501    0  0.00000000000E+00  0.00000000000E+00  0.11886278654E+03  0.11886278657E+03  0.25500000000E-02 0.  1.
         -2   -1    0    0    0  501 -0.00000000000E+00 -0.00000000000E+00 -0.46918193026E+00  0.46918885982E+00  0.25500000000E-02 0. -1.
         31    1    1    2    0    0  0.30714112316E+00 -0.12443643623E+00  0.55624221327E+02  0.56121499841E+02  0.74470750000E+01 0. -1.
        -31    1    1    2    0    0 -0.30714112316E+00  0.12443643623E+00  0.62769383282E+02  0.63210475585E+02  0.74470750000E+01 0.  1.
<mgrwt>
<rscale>  0 0.14935687E+02</rscale>
<asrwt>0</asrwt>
<pdfrwt beam="1">  1        2 0.98672027E+00 0.14935687E+02</pdfrwt>
<pdfrwt beam="2">  1       -2 0.99646201E+00 0.14935687E+02</pdfrwt>
<totfact>-0.23514658E-13</totfact>
</mgrwt>
</event>
<event>
 4    1 -0.4926183E-019  0.1497634E+02  0.7818608E-02  0.1868791E+00
          2   -1    0    0  501    0  0.00000000000E+00  0.00000000000E+00  0.11976314946E+03  0.11976314949E+03  0.25500000000E-02 0. -1.
         -2   -1    0    0    0  501 -0.00000000000E+00 -0.00000000000E+00 -0.46819273022E+00  0.46819967443E+00  0.25500000000E-02 0.  1.
         31    1    1    2    0    0 -0.27125844419E+00 -0.72933007588E+00  0.60375580265E+02  0.60838105837E+02  0.74470750000E+01 0. -1.
        -31    1    1    2    0    0  0.27125844419E+00  0.72933007588E+00  0.58919376469E+02  0.59393243328E+02  0.74470750000E+01 0.  1.
<mgrwt>
<rscale>  0 0.14976335E+02</rscale>
<asrwt>0</asrwt>
<pdfrwt beam="1">  1        2 0.99415692E+00 0.14976335E+02</pdfrwt>
<pdfrwt beam="2">  1       -2 0.99439872E+00 0.14976335E+02</pdfrwt>
<totfact>-0.12859925E-13</totfact>
</mgrwt>
</event>
<event>
 4    1 -0.4926183E-019  0.1497535E+02  0.7818608E-02  0.1868822E+00
          2   -1    0    0  501    0  0.00000000000E+00  0.00000000000E+00  0.11922502608E+03  0.11922502610E+03  0.25500000000E-02 0.  1.
         -2   -1    0    0    0  501 -0.00000000000E+00 -0.00000000000E+00 -0.47024385641E+00  0.47025077033E+00  0.25500000000E-02 0. -1.
         31    1    1    2    0    0 -0.39744029858E+00 -0.18306972059E+00  0.54229293524E+02  0.54739991556E+02  0.74470750000E+01 0. -1.
        -31    1    1    2    0    0  0.39744029858E+00  0.18306972059E+00  0.64525488695E+02  0.64955285318E+02  0.74470750000E+01 0.  1.
<mgrwt>
<rscale>  0 0.14975347E+02</rscale>
<asrwt>0</asrwt>
<pdfrwt beam="1">  1        2 0.98972430E+00 0.14975347E+02</pdfrwt>
<pdfrwt beam="2">  1       -2 0.99872039E+00 0.14975347E+02</pdfrwt>
<totfact>-0.74546634E-14</totfact>
</mgrwt>
</event>
<event>
 4    1 -0.4926183E-019  0.1490215E+02  0.7818608E-02  0.1871069E+00
         -2   -1    0    0    0  501 -0.00000000000E+00  0.00000000000E+00  0.11992879598E+03  0.11992879601E+03  0.25500000000E-02 0. -1.
          2   -1    0    0  501    0  0.00000000000E+00 -0.00000000000E+00 -0.46292533389E+00  0.46293235710E+00  0.25500000000E-02 0.  1.
         31    1    1    2    0    0  0.47012747298E-01  0.22692281111E-01  0.61659206078E+02  0.62107321189E+02  0.74470750000E+01 0. -1.
        -31    1    1    2    0    0 -0.47012747298E-01 -0.22692281111E-01  0.57806664570E+02  0.58284407177E+02  0.74470750000E+01 0.  1.
<mgrwt>
<rscale>  0 0.14902148E+02</rscale>
<asrwt>0</asrwt>
<pdfrwt beam="2">  1        2 0.98325972E+00 0.14902148E+02</pdfrwt>
<pdfrwt beam="1">  1       -2 0.99548304E+00 0.14902148E+02</pdfrwt>
<totfact>-0.45426980E-13</totfact>
</mgrwt>
</event>
<event>
 4    1  0.4926183E-019  0.1493572E+02  0.7818608E-02  0.1870036E+00
         -2   -1    0    0    0  501 -0.00000000000E+00  0.00000000000E+00  0.11880120851E+03  0.11880120854E+03  0.25500000000E-02 0. -1.
          2   -1    0    0  501    0  0.00000000000E+00 -0.00000000000E+00 -0.46942737549E+00  0.46943430143E+00  0.25500000000E-02 0.  1.
         31    1    1    2    0    0 -0.14692089978E+00  0.35171443217E+00  0.55924689576E+02  0.56419634163E+02  0.74470750000E+01 0.  1.
        -31    1    1    2    0    0  0.14692089978E+00 -0.35171443217E+00  0.62407091560E+02  0.62851008678E+02  0.74470750000E+01 0. -1.
<mgrwt>
<rscale>  0 0.14935723E+02</rscale>
<asrwt>0</asrwt>
<pdfrwt beam="2">  1        2 0.99697920E+00 0.14935723E+02</pdfrwt>
<pdfrwt beam="1">  1       -2 0.98621312E+00 0.14935723E+02</pdfrwt>
<totfact> 0.24594238E-13</totfact>
</mgrwt>
</event>
<event>
 4    1  0.4926183E-019  0.1491336E+02  0.7818608E-02  0.1870724E+00
          2   -1    0    0  501    0  0.00000000000E+00  0.00000000000E+00  0.12007719930E+03  0.12007719933E+03  0.25500000000E-02 0.  1.
         -2   -1    0    0    0  501 -0.00000000000E+00 -0.00000000000E+00 -0.46304948429E+00  0.46305650563E+00  0.25500000000E-02 0. -1.
         31    1    1    2    0    0 -0.28449603366E+00  0.23382887930E+00  0.60510317533E+02  0.60967967556E+02  0.74470750000E+01 0.  1.
        -31    1    1    2    0    0  0.28449603366E+00 -0.23382887930E+00  0.59103832284E+02  0.59572288278E+02  0.74470750000E+01 0.  1.
<mgrwt>
<rscale>  0 0.14913364E+02</rscale>
<asrwt>0</asrwt>
<pdfrwt beam="1">  1        2 0.99671117E+00 0.14913364E+02</pdfrwt>
<pdfrwt beam="2">  1       -2 0.98352708E+00 0.14913364E+02</pdfrwt>
<totfact> 0.55447006E-13</totfact>
</mgrwt>
</event>
<event>
 4    1 -0.4926183E-019  0.1496481E+02  0.7818608E-02  0.1869144E+00
          2   -1    0    0  501    0  0.00000000000E+00  0.00000000000E+00  0.11920990247E+03  0.11920990250E+03  0.25500000000E-02 0.  1.
         -2   -1    0    0    0  501 -0.00000000000E+00 -0.00000000000E+00 -0.46964185357E+00  0.46964877635E+00  0.25500000000E-02 0. -1.
         31    1    1    2    0    0 -0.48516149400E+00  0.13770664285E+00  0.63549524060E+02  0.63986367916E+02  0.74470750000E+01 0.  1.
        -31    1    1    2    0    0  0.48516149400E+00 -0.13770664285E+00  0.55190736560E+02  0.55693183361E+02  0.74470750000E+01 0. -1.
<mgrwt>
<rscale>  0 0.14964809E+02</rscale>
<asrwt>0</asrwt>
<pdfrwt beam="1">  1        2 0.98959427E+00 0.14964809E+02</pdfrwt>
<pdfrwt beam="2">  1       -2 0.99744638E+00 0.14964809E+02</pdfrwt>
<totfact>-0.13325712E-13</totfact>
</mgrwt>
</event>
<event>
 4    1  0.4926183E-019  0.1491350E+02  0.7818608E-02  0.1870720E+00
          2   -1    0    0  501    0  0.00000000000E+00  0.00000000000E+00  0.11977093627E+03  0.11977093630E+03  0.25500000000E-02 0. -1.
         -2   -1    0    0    0  501 -0.00000000000E+00 -0.00000000000E+00 -0.46424201143E+00  0.46424901473E+00  0.25500000000E-02 0.  1.
         31    1    1    2    0    0  0.22706138689E+00  0.15043264491E+00  0.57520143246E+02  0.58000861993E+02  0.74470750000E+01 0.  1.
        -31    1    1    2    0    0 -0.22706138689E+00 -0.15043264491E+00  0.61786551014E+02  0.62234323320E+02  0.74470750000E+01 0. -1.
<mgrwt>
<rscale>  0 0.14913500E+02</rscale>
<asrwt>0</asrwt>
<pdfrwt beam="1">  1        2 0.99418864E+00 0.14913500E+02</pdfrwt>
<pdfrwt beam="2">  1       -2 0.98604053E+00 0.14913500E+02</pdfrwt>
<totfact> 0.37927800E-13</totfact>
</mgrwt>
</event>
<event>
 4    1 -0.4926183E-019  0.1492598E+02  0.7818608E-02  0.1870336E+00
         -2   -1    0    0    0  501 -0.00000000000E+00  0.00000000000E+00  0.12027519651E+03  0.12027519653E+03  0.25500000000E-02 0.  1.
          2   -1    0    0  501    0  0.00000000000E+00 -0.00000000000E+00 -0.46306934927E+00  0.46307637030E+00  0.25500000000E-02 0. -1.
         31    1    1    2    0    0 -0.35379473267E+00  0.33471893481E+00  0.59849479751E+02  0.60312986661E+02  0.74470750000E+01 0. -1.
        -31    1    1    2    0    0  0.35379473267E+00 -0.33471893481E+00  0.59962647405E+02  0.60425286241E+02  0.74470750000E+01 0. -1.
<mgrwt>
<rscale>  0 0.14925975E+02</rscale>
<asrwt>0</asrwt>
<pdfrwt beam="2">  1        2 0.98357533E+00 0.14925975E+02</pdfrwt>
<pdfrwt beam="1">  1       -2 0.99834852E+00 0.14925975E+02</pdfrwt>
<totfact>-0.22289350E-13</totfact>
</mgrwt>
</event>
<event>
 4    1 -0.4926183E-019  0.1492088E+02  0.7818608E-02  0.1870493E+00
          2   -1    0    0  501    0  0.00000000000E+00  0.00000000000E+00  0.11845900398E+03  0.11845900401E+03  0.25500000000E-02 0.  1.
         -2   -1    0    0    0  501 -0.00000000000E+00 -0.00000000000E+00 -0.46984804006E+00  0.46985495980E+00  0.25500000000E-02 0. -1.
         31    1    1    2    0    0 -0.40352812370E+00 -0.34110143733E-01  0.60490414788E+02  0.60948447115E+02  0.74470750000E+01 0. -1.
        -31    1    1    2    0    0  0.40352812370E+00  0.34110143733E-01  0.57498741157E+02  0.57980411857E+02  0.74470750000E+01 0. -1.
<mgrwt>
<rscale>  0 0.14920877E+02</rscale>
<asrwt>0</asrwt>
<pdfrwt beam="1">  1        2 0.98338702E+00 0.14920877E+02</pdfrwt>
<pdfrwt beam="2">  1       -2 0.99785773E+00 0.14920877E+02</pdfrwt>
<totfact>-0.28470385E-13</totfact>
</mgrwt>
</event>
<event>
 4    1  0.4926183E-019  0.1494221E+02  0.7818608E-02  0.1869837E+00
         -2   -1    0    0    0  501 -0.00000000000E+00  0.00000000000E+00  0.11916148697E+03  0.11916148700E+03  0.25500000000E-02 0. -1.
          2   -1    0    0  501    0  0.00000000000E+00 -0.00000000000E+00 -0.46841501495E+00  0.46842195586E+00  0.25500000000E-02 0.  1.
         31    1    1    2    0    0 -0.94985169083E-01  0.21164129400E+00  0.63765957827E+02  0.64199767273E+02  0.74470750000E+01 0. -1.
        -31    1    1    2    0    0  0.94985169083E-01 -0.21164129400E+00  0.54927114127E+02  0.55430141679E+02  0.74470750000E+01 0.  1.
<mgrwt>
<rscale>  0 0.14942215E+02</rscale>
<asrwt>0</asrwt>
<pdfrwt beam="2">  1        2 0.99484942E+00 0.14942215E+02</pdfrwt>
<pdfrwt beam="1">  1       -2 0.98918379E+00 0.14942215E+02</pdfrwt>
<totfact> 0.60506505E-14</totfact>
</mgrwt>
</event>
<event>
 4    1 -0.4926183E-019  0.1492396E+02  0.7818608E-02  0.1870398E+00
         -2   -1    0    0    0  501 -0.00000000000E+00  0.00000000000E+00  0.12024836240E+03  0.12024836243E+03  0.25500000000E-02 0.  1.
          2   -1    0    0  501    0  0.00000000000E+00 -0.00000000000E+00 -0.46304786485E+00  0.46305488621E+00  0.25500000000E-02 0. -1.
         31    1    1    2    0    0  0.43746811353E+00 -0.96653661232E-01  0.58705929121E+02  0.59178085135E+02  0.74470750000E+01 0.  1.
        -31    1    1    2    0    0 -0.43746811353E+00  0.96653661232E-01  0.61079385416E+02  0.61533332179E+02  0.74470750000E+01 0.  1.
<mgrwt>
<rscale>  0 0.14923964E+02</rscale>
<asrwt>0</asrwt>
<pdfrwt beam="2">  1        2 0.98352903E+00 0.14923964E+02</pdfrwt>
<pdfrwt beam="1">  1       -2 0.99812646E+00 0.14923964E+02</pdfrwt>
<totfact>-0.24958698E-13</totfact>
</mgrwt>
</event>
<event>
 4    1 -0.4926183E-019  0.1499867E+02  0.7818608E-02  0.1868109E+00
          2   -1    0    0  501    0  0.00000000000E+00  0.00000000000E+00  0.12004010064E+03  0.12004010066E+03  0.25500000000E-02 0. -1.
         -2   -1    0    0    0  501 -0.00000000000E+00 -0.00000000000E+00 -0.46850666734E+00  0.46851360689E+00  0.25500000000E-02 0.  1.
         31    1    1    2    0    0  0.29198775635E+00 -0.82865344733E+00  0.60554682361E+02  0.61017214008E+02  0.74470750000E+01 0. -1.
        -31    1    1    2    0    0 -0.29198775635E+00  0.82865344733E+00  0.59016911610E+02  0.59491400264E+02  0.74470750000E+01 0.  1.
<mgrwt>
<rscale>  0 0.14998668E+02</rscale>
<asrwt>0</asrwt>
<pdfrwt beam="1">  1        2 0.99644954E+00 0.14998668E+02</pdfrwt>
<pdfrwt beam="2">  1       -2 0.99507183E+00 0.14998668E+02</pdfrwt>
<totfact>-0.98038818E-14</totfact>
</mgrwt>
</event>
<event>
 4    1  0.4926183E-019  0.1492829E+02  0.7818608E-02  0.1870265E+00
          2   -1    0    0  501    0  0.00000000000E+00  0.00000000000E+00  0.11999089341E+03  0.11999089343E+03  0.25500000000E-02 0.  1.
         -2   -1    0    0    0  501 -0.00000000000E+00 -0.00000000000E+00 -0.46431069387E+00  0.46431769614E+00  0.25500000000E-02 0. -1.
         31    1    1    2    0    0 -0.17140404635E+00 -0.41072168584E+00  0.61680923191E+02  0.62130453751E+02  0.74470750000E+01 0.  1.
        -31    1    1    2    0    0  0.17140404635E+00  0.41072168584E+00  0.57845659521E+02  0.58324757377E+02  0.74470750000E+01 0.  1.
<mgrwt>
<rscale>  0 0.14928292E+02</rscale>
<asrwt>0</asrwt>
<pdfrwt beam="1">  1        2 0.99600796E+00 0.14928292E+02</pdfrwt>
<pdfrwt beam="2">  1       -2 0.98619282E+00 0.14928292E+02</pdfrwt>
<totfact> 0.29513510E-13</totfact>
</mgrwt>
</event>
<event>
 4    1 -0.4926183E-019  0.1491237E+02  0.7818608E-02  0.1870754E+00
          2   -1    0    0  501    0  0.00000000000E+00  0.00000000000E+00  0.11843434833E+03  0.11843434836E+03  0.25500000000E-02 0. -1.
         -2   -1    0    0    0  501 -0.00000000000E+00 -0.00000000000E+00 -0.46941021347E+00  0.46941713966E+00  0.25500000000E-02 0.  1.
         31    1    1    2    0    0  0.23029625256E+00  0.12640803681E+00  0.61042730963E+02  0.61495877462E+02  0.74470750000E+01 0. -1.
        -31    1    1    2    0    0 -0.23029625256E+00 -0.12640803681E+00  0.56922207152E+02  0.57407888033E+02  0.74470750000E+01 0.  1.
<mgrwt>
<rscale>  0 0.14912372E+02</rscale>
<asrwt>0</asrwt>
<pdfrwt beam="1">  1        2 0.98317953E+00 0.14912372E+02</pdfrwt>
<pdfrwt beam="2">  1       -2 0.99693074E+00 0.14912372E+02</pdfrwt>
<totfact>-0.38181916E-13</totfact>
</mgrwt>
</event>
<event>
 4    1 -0.4926183E-019  0.1496880E+02  0.7818608E-02  0.1869022E+00
          2   -1    0    0  501    0  0.00000000000E+00  0.00000000000E+00  0.11930522928E+03  0.11930522931E+03  0.25500000000E-02 0.  1.
         -2   -1    0    0    0  501 -0.00000000000E+00 -0.00000000000E+00 -0.46951672291E+00  0.46952364753E+00  0.25500000000E-02 0. -1.
         31    1    1    2    0    0  0.16927413554E+00 -0.99467895126E-01  0.65180934413E+02  0.65605271775E+02  0.74470750000E+01 0.  1.
        -31    1    1    2    0    0 -0.16927413554E+00  0.99467895126E-01  0.53654778143E+02  0.54169481179E+02  0.74470750000E+01 0. -1.
<mgrwt>
<rscale>  0 0.14968796E+02</rscale>
<asrwt>0</asrwt>
<pdfrwt beam="1">  1        2 0.99038146E+00 0.14968796E+02</pdfrwt>
<pdfrwt beam="2">  1       -2 0.99718479E+00 0.14968796E+02</pdfrwt>
<totfact>-0.13237067E-13</totfact>
</mgrwt>
</event>
<event>
 4    1 -0.4926183E-019  0.1494579E+02  0.7818608E-02  0.1869727E+00
          2   -1    0    0  501    0  0.00000000000E+00  0.00000000000E+00  0.11889364121E+03  0.11889364124E+03  0.25500000000E-02 0.  1.
         -2   -1    0    0    0  501 -0.00000000000E+00 -0.00000000000E+00 -0.46969475100E+00  0.46970167300E+00  0.25500000000E-02 0. -1.
         31    1    1    2    0    0 -0.55529429903E+00  0.22889413069E+00  0.57962829230E+02  0.58442358291E+02  0.74470750000E+01 0. -1.
        -31    1    1    2    0    0  0.55529429903E+00 -0.22889413069E+00  0.60461117227E+02  0.60920984617E+02  0.74470750000E+01 0. -1.
<mgrwt>
<rscale>  0 0.14945787E+02</rscale>
<asrwt>0</asrwt>
<pdfrwt beam="1">  1        2 0.98697963E+00 0.14945787E+02</pdfrwt>
<pdfrwt beam="2">  1       -2 0.99754787E+00 0.14945787E+02</pdfrwt>
<totfact>-0.17832593E-13</totfact>
</mgrwt>
</event>
<event>
 4    1 -0.4926183E-019  0.1490406E+02  0.7818608E-02  0.1871010E+00
         -2   -1    0    0    0  501 -0.00000000000E+00  0.00000000000E+00  0.11981105696E+03  0.11981105699E+03  0.25500000000E-02 0. -1.
          2   -1    0    0  501    0  0.00000000000E+00 -0.00000000000E+00 -0.46349936765E+00  0.46350638217E+00  0.25500000000E-02 0.  1.
         31    1    1    2    0    0 -0.11346474572E+00 -0.21825700452E+00  0.58741845466E+02  0.59212531150E+02  0.74470750000E+01 0. -1.
        -31    1    1    2    0    0  0.11346474572E+00  0.21825700452E+00  0.60605712125E+02  0.61062032218E+02  0.74470750000E+01 0. -1.
<mgrwt>
<rscale>  0 0.14904063E+02</rscale>
<asrwt>0</asrwt>
<pdfrwt beam="2">  1        2 0.98447054E+00 0.14904063E+02</pdfrwt>
<pdfrwt beam="1">  1       -2 0.99451424E+00 0.14904063E+02</pdfrwt>
<totfact>-0.37871302E-13</totfact>
</mgrwt>
</event>
<event>
 4    1  0.4926183E-019  0.1492161E+02  0.7818608E-02  0.1870470E+00
          2   -1    0    0  501    0  0.00000000000E+00  0.00000000000E+00  0.12034461241E+03  0.12034461243E+03  0.25500000000E-02 0.  1.
         -2   -1    0    0    0  501 -0.00000000000E+00 -0.00000000000E+00 -0.46253143835E+00  0.46253846755E+00  0.25500000000E-02 0. -1.
         31    1    1    2    0    0  0.16491299134E+00  0.32544539523E+00  0.62106746828E+02  0.62552698092E+02  0.74470750000E+01 0.  1.
        -31    1    1    2    0    0 -0.16491299134E+00 -0.32544539523E+00  0.57775334140E+02  0.58254452809E+02  0.74470750000E+01 0. -1.
<mgrwt>
<rscale>  0 0.14921608E+02</rscale>
<asrwt>0</asrwt>
<pdfrwt beam="1">  1        2 0.99891805E+00 0.14921608E+02</pdfrwt>
<pdfrwt beam="2">  1       -2 0.98243935E+00 0.14921608E+02</pdfrwt>
<totfact> 0.29527021E-13</totfact>
</mgrwt>
</event>
<event>
 4    1 -0.4926183E-019  0.1491815E+02  0.7818608E-02  0.1870577E+00
          2   -1    0    0  501    0  0.00000000000E+00  0.00000000000E+00  0.11868803886E+03  0.11868803889E+03  0.25500000000E-02 0. -1.
         -2   -1    0    0    0  501 -0.00000000000E+00 -0.00000000000E+00 -0.46876966801E+00  0.46877660367E+00  0.25500000000E-02 0.  1.
         31    1    1    2    0    0  0.40279524150E+00 -0.12057125317E+00  0.58747115902E+02  0.59218741411E+02  0.74470750000E+01 0.  1.
        -31    1    1    2    0    0 -0.40279524150E+00  0.12057125317E+00  0.59472153289E+02  0.59938074079E+02  0.74470750000E+01 0.  1.
<mgrwt>
<rscale>  0 0.14918146E+02</rscale>
<asrwt>0</asrwt>
<pdfrwt beam="1">  1        2 0.98527192E+00 0.14918146E+02</pdfrwt>
<pdfrwt beam="2">  1       -2 0.99558413E+00 0.14918146E+02</pdfrwt>
<totfact>-0.32350197E-13</totfact>
</mgrwt>
</event>
<event>
 4    1  0.4926183E-019  0.1493169E+02  0.7818608E-02  0.1870160E+00
          2   -1    0    0  501    0  0.00000000000E+00  0.00000000000E+00  0.12037906307E+03  0.12037906310E+03  0.25500000000E-02 0.  1.
         -2   -1    0    0    0  501 -0.00000000000E+00 -0.00000000000E+00 -0.46302390974E+00  0.46303093147E+00  0.25500000000E-02 0. -1.
         31    1    1    2    0    0  0.52344530937E+00 -0.69140259384E-01  0.60227518076E+02  0.60688480250E+02  0.74470750000E+01 0.  1.
        -31    1    1    2    0    0 -0.52344530937E+00  0.69140259384E-01  0.59688521087E+02  0.60153613782E+02  0.74470750000E+01 0. -1.
<mgrwt>
<rscale>  0 0.14931686E+02</rscale>
<asrwt>0</asrwt>
<pdfrwt beam="1">  1        2 0.99920698E+00 0.14931686E+02</pdfrwt>
<pdfrwt beam="2">  1       -2 0.98348244E+00 0.14931686E+02</pdfrwt>
<totfact> 0.17779737E-13</totfact>
</mgrwt>
</event>
<event>
 4    1 -0.4926183E-019  0.1504641E+02  0.7818608E-02  0.1866655E+00
         -2   -1    0    0    0  501 -0.00000000000E+00  0.00000000000E+00  0.12028703201E+03  0.12028703204E+03  0.25500000000E-02 0. -1.
          2   -1    0    0  501    0  0.00000000000E+00 -0.00000000000E+00 -0.47052630158E+00  0.47053321134E+00  0.25500000000E-02 0.  1.
         31    1    1    2    0    0  0.52474019005E+00 -0.92721960753E+00  0.60453562408E+02  0.60919842599E+02  0.74470750000E+01 0.  1.
        -31    1    1    2    0    0 -0.52474019005E+00  0.92721960753E+00  0.59362943304E+02  0.59837722652E+02  0.74470750000E+01 0. -1.
<mgrwt>
<rscale>  0 0.15046412E+02</rscale>
<asrwt>0</asrwt>
<pdfrwt beam="2">  1        2 0.99935258E+00 0.15046412E+02</pdfrwt>
<pdfrwt beam="1">  1       -2 0.99850804E+00 0.15046412E+02</pdfrwt>
<totfact>-0.11455247E-14</totfact>
</mgrwt>
</event>
<event>
 4    1 -0.4926183E-019  0.1500214E+02  0.7818608E-02  0.1868003E+00
         -2   -1    0    0    0  501 -0.00000000000E+00  0.00000000000E+00  0.11986711280E+03  0.11986711283E+03  0.25500000000E-02 0. -1.
          2   -1    0    0  501    0  0.00000000000E+00 -0.00000000000E+00 -0.46940006086E+00  0.46940698720E+00  0.25500000000E-02 0.  1.
         31    1    1    2    0    0  0.53625687907E+00  0.41358668531E+00  0.54963597204E+02  0.55469942934E+02  0.74470750000E+01 0.  1.
        -31    1    1    2    0    0 -0.53625687907E+00 -0.41358668531E+00  0.64434115537E+02  0.64866576883E+02  0.74470750000E+01 0. -1.
<mgrwt>
<rscale>  0 0.15002140E+02</rscale>
<asrwt>0</asrwt>
<pdfrwt beam="2">  1        2 0.99695631E+00 0.15002140E+02</pdfrwt>
<pdfrwt beam="1">  1       -2 0.99502654E+00 0.15002140E+02</pdfrwt>
<totfact>-0.88848304E-14</totfact>
</mgrwt>
</event>
<event>
 4    1 -0.4926183E-019  0.1500632E+02  0.7818608E-02  0.1867876E+00
         -2   -1    0    0    0  501 -0.00000000000E+00  0.00000000000E+00  0.12009252321E+03  0.12009252323E+03  0.25500000000E-02 0. -1.
          2   -1    0    0  501    0  0.00000000000E+00 -0.00000000000E+00 -0.46878008317E+00  0.46878701868E+00  0.25500000000E-02 0.  1.
         31    1    1    2    0    0  0.14121708080E-01 -0.28513647392E+00  0.66801826748E+02  0.67216251645E+02  0.74470750000E+01 0. -1.
        -31    1    1    2    0    0 -0.14121708080E-01  0.28513647392E+00  0.52821916376E+02  0.53345058608E+02  0.74470750000E+01 0.  1.
<mgrwt>
<rscale>  0 0.15006319E+02</rscale>
<asrwt>0</asrwt>
<pdfrwt beam="2">  1        2 0.99565197E+00 0.15006319E+02</pdfrwt>
<pdfrwt beam="1">  1       -2 0.99688527E+00 0.15006319E+02</pdfrwt>
<totfact>-0.90828256E-14</totfact>
</mgrwt>
</event>
<event>
 4    1 -0.4926183E-019  0.1491278E+02  0.7818608E-02  0.1870742E+00
          2   -1    0    0  501    0  0.00000000000E+00  0.00000000000E+00  0.11823008177E+03  0.11823008180E+03  0.25500000000E-02 0.  1.
         -2   -1    0    0    0  501 -0.00000000000E+00 -0.00000000000E+00 -0.47024697015E+00  0.47025388402E+00  0.25500000000E-02 0. -1.
         31    1    1    2    0    0 -0.35090253854E+00 -0.14724249566E-01  0.57889773706E+02  0.58367869374E+02  0.74470750000E+01 0.  1.
        -31    1    1    2    0    0  0.35090253854E+00  0.14724249566E-01  0.59870061098E+02  0.60332466312E+02  0.74470750000E+01 0. -1.
<mgrwt>
<rscale>  0 0.14912780E+02</rscale>
<asrwt>0</asrwt>
<pdfrwt beam="1">  1        2 0.98149743E+00 0.14912780E+02</pdfrwt>
<pdfrwt beam="2">  1       -2 0.99869396E+00 0.14912780E+02</pdfrwt>
<totfact>-0.25817418E-13</totfact>
</mgrwt>
</event>
<event>
 4    1  0.4926183E-019  0.1495074E+02  0.7818608E-02  0.1869575E+00
         -2   -1    0    0    0  501 -0.00000000000E+00  0.00000000000E+00  0.11887800227E+03  0.11887800230E+03  0.25500000000E-02 0. -1.
          2   -1    0    0  501    0  0.00000000000E+00 -0.00000000000E+00 -0.47006792092E+00  0.47007483742E+00  0.25500000000E-02 0.  1.
         31    1    1    2    0    0 -0.23975513905E+00 -0.57277538209E-01  0.64003325221E+02  0.64435590543E+02  0.74470750000E+01 0. -1.
        -31    1    1    2    0    0  0.23975513905E+00  0.57277538209E-01  0.54404609130E+02  0.54912486594E+02  0.74470750000E+01 0.  1.
<mgrwt>
<rscale>  0 0.14950739E+02</rscale>
<asrwt>0</asrwt>
<pdfrwt beam="2">  1        2 0.99833676E+00 0.14950739E+02</pdfrwt>
<pdfrwt beam="1">  1       -2 0.98685341E+00 0.14950739E+02</pdfrwt>
<totfact> 0.12373150E-13</totfact>
</mgrwt>
</event>
<event>
 4    1 -0.4926183E-019  0.1496208E+02  0.7818608E-02  0.1869228E+00
          2   -1    0    0  501    0  0.00000000000E+00  0.00000000000E+00  0.11947520599E+03  0.11947520602E+03  0.25500000000E-02 0.  1.
         -2   -1    0    0    0  501 -0.00000000000E+00 -0.00000000000E+00 -0.46842778896E+00  0.46843472968E+00  0.25500000000E-02 0. -1.
         31    1    1    2    0    0 -0.42908700249E+00 -0.56817187524E+00  0.59439524461E+02  0.59908454572E+02  0.74470750000E+01 0. -1.
        -31    1    1    2    0    0  0.42908700249E+00  0.56817187524E+00  0.59567253742E+02  0.60035186178E+02  0.74470750000E+01 0.  1.
<mgrwt>
<rscale>  0 0.14962075E+02</rscale>
<asrwt>0</asrwt>
<pdfrwt beam="1">  1        2 0.99177794E+00 0.14962075E+02</pdfrwt>
<pdfrwt beam="2">  1       -2 0.99488667E+00 0.14962075E+02</pdfrwt>
<totfact>-0.15412815E-13</totfact>
</mgrwt>
</event>
<event>
 4    1  0.4926183E-019  0.1490811E+02  0.7818608E-02  0.1870886E+00
          2   -1    0    0  501    0  0.00000000000E+00  0.00000000000E+00  0.11975070850E+03  0.11975070852E+03  0.25500000000E-02 0. -1.
         -2   -1    0    0    0  501 -0.00000000000E+00 -0.00000000000E+00 -0.46398469986E+00  0.46399170705E+00  0.25500000000E-02 0.  1.
         31    1    1    2    0    0  0.79703728875E-01 -0.31214438258E+00  0.59759238108E+02  0.60222331838E+02  0.74470750000E+01 0.  1.
        -31    1    1    2    0    0 -0.79703728875E-01  0.31214438258E+00  0.59527485688E+02  0.59992368391E+02  0.74470750000E+01 0. -1.
<mgrwt>
<rscale>  0 0.14908108E+02</rscale>
<asrwt>0</asrwt>
<pdfrwt beam="1">  1        2 0.99401925E+00 0.14908108E+02</pdfrwt>
<pdfrwt beam="2">  1       -2 0.98549548E+00 0.14908108E+02</pdfrwt>
<totfact> 0.45816400E-13</totfact>
</mgrwt>
</event>
<event>
 4    1  0.4926183E-019  0.1492221E+02  0.7818608E-02  0.1870452E+00
          2   -1    0    0  501    0  0.00000000000E+00  0.00000000000E+00  0.11971689874E+03  0.11971689877E+03  0.25500000000E-02 0.  1.
         -2   -1    0    0    0  501 -0.00000000000E+00 -0.00000000000E+00 -0.46499411250E+00  0.46500110447E+00  0.25500000000E-02 0. -1.
         31    1    1    2    0    0  0.41995843992E+00 -0.15582907946E+00  0.58883375358E+02  0.59354119212E+02  0.74470750000E+01 0. -1.
        -31    1    1    2    0    0 -0.41995843992E+00  0.15582907946E+00  0.60368529272E+02  0.60827780662E+02  0.74470750000E+01 0.  1.
<mgrwt>
<rscale>  0 0.14922208E+02</rscale>
<asrwt>0</asrwt>
<pdfrwt beam="1">  1        2 0.99374804E+00 0.14922208E+02</pdfrwt>
<pdfrwt beam="2">  1       -2 0.98763005E+00 0.14922208E+02</pdfrwt>
<totfact> 0.20594482E-13</totfact>
</mgrwt>
</event>
<event>
 4    1 -0.4926183E-019  0.1498915E+02  0.7818608E-02  0.1868400E+00
          2   -1    0    0  501    0  0.00000000000E+00  0.00000000000E+00  0.11952523208E+03  0.11952523211E+03  0.25500000000E-02 0.  1.
         -2   -1    0    0    0  501 -0.00000000000E+00 -0.00000000000E+00 -0.46992756344E+00  0.46993448201E+00  0.25500000000E-02 0. -1.
         31    1    1    2    0    0  0.37257288981E+00  0.13083932012E+00  0.65484939896E+02  0.65908210480E+02  0.74470750000E+01 0.  1.
        -31    1    1    2    0    0 -0.37257288981E+00 -0.13083932012E+00  0.53570364621E+02  0.54086956109E+02  0.74470750000E+01 0. -1.
<mgrwt>
<rscale>  0 0.14989145E+02</rscale>
<asrwt>0</asrwt>
<pdfrwt beam="1">  1        2 0.99220399E+00 0.14989145E+02</pdfrwt>
<pdfrwt beam="2">  1       -2 0.99806113E+00 0.14989145E+02</pdfrwt>
<totfact>-0.86463141E-14</totfact>
</mgrwt>
</event>
<event>
 4    1 -0.4926183E-019  0.1494708E+02  0.7818608E-02  0.1869688E+00
          2   -1    0    0  501    0  0.00000000000E+00  0.00000000000E+00  0.11865580215E+03  0.11865580217E+03  0.25500000000E-02 0.  1.
         -2   -1    0    0    0  501 -0.00000000000E+00 -0.00000000000E+00 -0.47071776092E+00  0.47072466788E+00  0.25500000000E-02 0. -1.
         31    1    1    2    0    0  0.28648381299E+00 -0.55158936753E-01  0.54656779851E+02  0.55162556369E+02  0.74470750000E+01 0. -1.
        -31    1    1    2    0    0 -0.28648381299E+00  0.55158936753E-01  0.63528304535E+02  0.63963970473E+02  0.74470750000E+01 0. -1.
<mgrwt>
<rscale>  0 0.14947081E+02</rscale>
<asrwt>0</asrwt>
<pdfrwt beam="1">  1        2 0.98502147E+00 0.14947081E+02</pdfrwt>
<pdfrwt beam="2">  1       -2 0.99970405E+00 0.14947081E+02</pdfrwt>
<totfact>-0.35156968E-14</totfact>
</mgrwt>
</event>
<event>
 4    1 -0.4926183E-019  0.1501097E+02  0.7818608E-02  0.1867734E+00
          2   -1    0    0  501    0  0.00000000000E+00  0.00000000000E+00  0.12035203983E+03  0.12035203985E+03  0.25500000000E-02 0. -1.
         -2   -1    0    0    0  501 -0.00000000000E+00 -0.00000000000E+00 -0.46805919092E+00  0.46806613710E+00  0.25500000000E-02 0.  1.
         31    1    1    2    0    0 -0.60273611701E+00 -0.68113743418E+00  0.61670785829E+02  0.62125453639E+02  0.74470750000E+01 0.  1.
        -31    1    1    2    0    0  0.60273611701E+00  0.68113743418E+00  0.58213194807E+02  0.58694652352E+02  0.74470750000E+01 0.  1.
<mgrwt>
<rscale>  0 0.15010969E+02</rscale>
<asrwt>0</asrwt>
<pdfrwt beam="1">  1        2 0.99902517E+00 0.15010969E+02</pdfrwt>
<pdfrwt beam="2">  1       -2 0.99413514E+00 0.15010969E+02</pdfrwt>
<totfact>-0.35277192E-14</totfact>
</mgrwt>
</event>
<event>
 4    1 -0.4926183E-019  0.1491204E+02  0.7818608E-02  0.1870765E+00
          2   -1    0    0  501    0  0.00000000000E+00  0.00000000000E+00  0.11857891139E+03  0.11857891142E+03  0.25500000000E-02 0.  1.
         -2   -1    0    0    0  501 -0.00000000000E+00 -0.00000000000E+00 -0.46881693004E+00  0.46882386499E+00  0.25500000000E-02 0. -1.
         31    1    1    2    0    0  0.83356938829E-01 -0.84675926679E-02  0.56218216800E+02  0.56709380585E+02  0.74470750000E+01 0. -1.
        -31    1    1    2    0    0 -0.83356938829E-01  0.84675926679E-02  0.61891877660E+02  0.62338354698E+02  0.74470750000E+01 0.  1.
<mgrwt>
<rscale>  0 0.14912038E+02</rscale>
<asrwt>0</asrwt>
<pdfrwt beam="1">  1        2 0.98436997E+00 0.14912038E+02</pdfrwt>
<pdfrwt beam="2">  1       -2 0.99568050E+00 0.14912038E+02</pdfrwt>
<totfact>-0.37205256E-13</totfact>
</mgrwt>
</event>
<event>
 4    1  0.4926183E-019  0.1492115E+02  0.7818608E-02  0.1870484E+00
         -2   -1    0    0    0  501 -0.00000000000E+00  0.00000000000E+00  0.11897366765E+03  0.11897366767E+03  0.25500000000E-02 0. -1.
          2   -1    0    0  501    0  0.00000000000E+00 -0.00000000000E+00 -0.46783254772E+00  0.46783949727E+00  0.25500000000E-02 0.  1.
         31    1    1    2    0    0 -0.31832567882E+00 -0.29844061232E+00  0.60086599079E+02  0.60547904282E+02  0.74470750000E+01 0. -1.
        -31    1    1    2    0    0  0.31832567882E+00  0.29844061232E+00  0.58419236018E+02  0.58893602888E+02  0.74470750000E+01 0. -1.
<mgrwt>
<rscale>  0 0.14921149E+02</rscale>
<asrwt>0</asrwt>
<pdfrwt beam="2">  1        2 0.99361106E+00 0.14921149E+02</pdfrwt>
<pdfrwt beam="1">  1       -2 0.98762595E+00 0.14921149E+02</pdfrwt>
<totfact> 0.20854908E-13</totfact>
</mgrwt>
</event>
<event>
 4    1 -0.4926183E-019  0.1498846E+02  0.7818608E-02  0.1868421E+00
          2   -1    0    0  501    0  0.00000000000E+00  0.00000000000E+00  0.12001537954E+03  0.12001537957E+03  0.25500000000E-02 0.  1.
         -2   -1    0    0    0  501 -0.00000000000E+00 -0.00000000000E+00 -0.46796576924E+00  0.46797271681E+00  0.25500000000E-02 0. -1.
         31    1    1    2    0    0 -0.42386474427E+00  0.72450497634E+00  0.59742851024E+02  0.60211059975E+02  0.74470750000E+01 0. -1.
        -31    1    1    2    0    0  0.42386474427E+00 -0.72450497634E+00  0.59804562747E+02  0.60272292309E+02  0.74470750000E+01 0.  1.
<mgrwt>
<rscale>  0 0.14988464E+02</rscale>
<asrwt>0</asrwt>
<pdfrwt beam="1">  1        2 0.99624065E+00 0.14988464E+02</pdfrwt>
<pdfrwt beam="2">  1       -2 0.99392669E+00 0.14988464E+02</pdfrwt>
<totfact>-0.99023401E-14</totfact>
</mgrwt>
</event>
<event>
 4    1  0.4926183E-019  0.1491093E+02  0.7818608E-02  0.1870799E+00
          2   -1    0    0  501    0  0.00000000000E+00  0.00000000000E+00  0.11981248675E+03  0.11981248677E+03  0.25500000000E-02 0.  1.
         -2   -1    0    0    0  501 -0.00000000000E+00 -0.00000000000E+00 -0.46392124084E+00  0.46392824898E+00  0.25500000000E-02 0. -1.
         31    1    1    2    0    0  0.19226251090E+00  0.28510941612E+00  0.60339561395E+02  0.60798353988E+02  0.74470750000E+01 0.  1.
        -31    1    1    2    0    0 -0.19226251090E+00 -0.28510941612E+00  0.59009004111E+02  0.59478061035E+02  0.74470750000E+01 0. -1.
<mgrwt>
<rscale>  0 0.14910933E+02</rscale>
<asrwt>0</asrwt>
<pdfrwt beam="1">  1        2 0.99452955E+00 0.14910933E+02</pdfrwt>
<pdfrwt beam="2">  1       -2 0.98536317E+00 0.14910933E+02</pdfrwt>
<totfact> 0.45649225E-13</totfact>
</mgrwt>
</event>
<event>
 4    1 -0.4926183E-019  0.1496087E+02  0.7818608E-02  0.1869265E+00
          2   -1    0    0  501    0  0.00000000000E+00  0.00000000000E+00  0.11965994578E+03  0.11965994581E+03  0.25500000000E-02 0.  1.
         -2   -1    0    0    0  501 -0.00000000000E+00 -0.00000000000E+00 -0.46762915022E+00  0.46763610279E+00  0.25500000000E-02 0. -1.
         31    1    1    2    0    0  0.74702130019E-01 -0.67314263727E-01  0.53987826881E+02  0.54499123746E+02  0.74470750000E+01 0. -1.
        -31    1    1    2    0    0 -0.74702130019E-01  0.67314263727E-01  0.65204489752E+02  0.65628458168E+02  0.74470750000E+01 0.  1.
<mgrwt>
<rscale>  0 0.14960869E+02</rscale>
<asrwt>0</asrwt>
<pdfrwt beam="1">  1        2 0.99329890E+00 0.14960869E+02</pdfrwt>
<pdfrwt beam="2">  1       -2 0.99320307E+00 0.14960869E+02</pdfrwt>
<totfact>-0.12372700E-13</totfact>
</mgrwt>
</event>
<event>
 4    1 -0.4926183E-019  0.1496078E+02  0.7818608E-02  0.1869268E+00
          2   -1    0    0  501    0  0.00000000000E+00  0.00000000000E+00  0.11953867768E+03  0.11953867770E+03  0.25500000000E-02 0. -1.
         -2   -1    0    0    0  501 -0.00000000000E+00 -0.00000000000E+00 -0.46809787209E+00  0.46810481770E+00  0.25500000000E-02 0.  1.
         31    1    1    2    0    0  0.70157323818E+00  0.14792393529E-01  0.60095020313E+02  0.60558755075E+02  0.74470750000E+01 0.  1.
        -31    1    1    2    0    0 -0.70157323818E+00 -0.14792393529E-01  0.58975559493E+02  0.59448027447E+02  0.74470750000E+01 0. -1.
<mgrwt>
<rscale>  0 0.14960778E+02</rscale>
<asrwt>0</asrwt>
<pdfrwt beam="1">  1        2 0.99230004E+00 0.14960778E+02</pdfrwt>
<pdfrwt beam="2">  1       -2 0.99419077E+00 0.14960778E+02</pdfrwt>
<totfact>-0.14651140E-13</totfact>
</mgrwt>
</event>
<event>
 4    1  0.4926183E-019  0.1494104E+02  0.7818608E-02  0.1869873E+00
         -2   -1    0    0    0  501 -0.00000000000E+00  0.00000000000E+00  0.11865955999E+03  0.11865956001E+03  0.25500000000E-02 0.  1.
          2   -1    0    0  501    0  0.00000000000E+00 -0.00000000000E+00 -0.47032236817E+00  0.47032928093E+00  0.25500000000E-02 0. -1.
         31    1    1    2    0    0  0.25256127892E+00  0.26991046089E+00  0.62775275354E+02  0.63216538665E+02  0.74470750000E+01 0.  1.
        -31    1    1    2    0    0 -0.25256127892E+00 -0.26991046089E+00  0.55413962265E+02  0.55913350631E+02  0.74470750000E+01 0. -1.
<mgrwt>
<rscale>  0 0.14941039E+02</rscale>
<asrwt>0</asrwt>
<pdfrwt beam="2">  1        2 0.99886778E+00 0.14941039E+02</pdfrwt>
<pdfrwt beam="1">  1       -2 0.98504928E+00 0.14941039E+02</pdfrwt>
<totfact> 0.16365556E-13</totfact>
</mgrwt>
</event>
<event>
 4    1 -0.4926183E-019  0.1495648E+02  0.7818608E-02  0.1869400E+00
         -2   -1    0    0    0  501 -0.00000000000E+00  0.00000000000E+00  0.12029316954E+03  0.12029316957E+03  0.25500000000E-02 0.  1.
          2   -1    0    0  501    0  0.00000000000E+00 -0.00000000000E+00 -0.46489449277E+00  0.46490148624E+00  0.25500000000E-02 0. -1.
         31    1    1    2    0    0  0.42062284965E+00  0.28803340818E+00  0.56256328151E+02  0.56749390040E+02  0.74470750000E+01 0. -1.
        -31    1    1    2    0    0 -0.42062284965E+00 -0.28803340818E+00  0.63571946901E+02  0.64008681018E+02  0.74470750000E+01 0.  1.
<mgrwt>
<rscale>  0 0.14956478E+02</rscale>
<asrwt>0</asrwt>
<pdfrwt beam="2">  1        2 0.98743758E+00 0.14956478E+02</pdfrwt>
<pdfrwt beam="1">  1       -2 0.99851222E+00 0.14956478E+02</pdfrwt>
<totfact>-0.11150549E-13</totfact>
</mgrwt>
</event>
<event>
 4    1 -0.4926183E-019  0.1491009E+02  0.7818608E-02  0.1870825E+00
          2   -1    0    0  501    0  0.00000000000E+00  0.00000000000E+00  0.11853560848E+03  0.11853560851E+03  0.25500000000E-02 0. -1.
         -2   -1    0    0    0  501 -0.00000000000E+00 -0.00000000000E+00 -0.46886549460E+00  0.46887242884E+00  0.25500000000E-02 0.  1.
         31    1    1    2    0    0 -0.44463343655E-01 -0.33514134894E+00  0.59565692341E+02  0.60030366706E+02  0.74470750000E+01 0.  1.
        -31    1    1    2    0    0  0.44463343655E-01  0.33514134894E+00  0.58501050642E+02  0.58974114228E+02  0.74470750000E+01 0.  1.
<mgrwt>
<rscale>  0 0.14910087E+02</rscale>
<asrwt>0</asrwt>
<pdfrwt beam="1">  1        2 0.98401231E+00 0.14910087E+02</pdfrwt>
<pdfrwt beam="2">  1       -2 0.99578180E+00 0.14910087E+02</pdfrwt>
<totfact>-0.39152724E-13</totfact>
</mgrwt>
</event>
<event>
 4    1 -0.4926183E-019  0.1493838E+02  0.7818608E-02  0.1869955E+00
         -2   -1    0    0    0  501 -0.00000000000E+00  0.00000000000E+00  0.11995651971E+03  0.11995651974E+03  0.25500000000E-02 0. -1.
          2   -1    0    0  501    0  0.00000000000E+00 -0.00000000000E+00 -0.46507196171E+00  0.46507895251E+00  0.25500000000E-02 0.  1.
         31    1    1    2    0    0 -0.50345896978E+00  0.24519404500E+00  0.58715924465E+02  0.59188954230E+02  0.74470750000E+01 0.  1.
        -31    1    1    2    0    0  0.50345896978E+00 -0.24519404500E+00  0.60775523282E+02  0.61232644458E+02  0.74470750000E+01 0. -1.
<mgrwt>
<rscale>  0 0.14938385E+02</rscale>
<asrwt>0</asrwt>
<pdfrwt beam="2">  1        2 0.98780239E+00 0.14938385E+02</pdfrwt>
<pdfrwt beam="1">  1       -2 0.99573003E+00 0.14938385E+02</pdfrwt>
<totfact>-0.22046017E-13</totfact>
</mgrwt>
</event>
<event>
 4    1 -0.4926183E-019  0.1498824E+02  0.7818608E-02  0.1868427E+00
          2   -1    0    0  501    0  0.00000000000E+00  0.00000000000E+00  0.11992913729E+03  0.11992913732E+03  0.25500000000E-02 0. -1.
         -2   -1    0    0    0  501 -0.00000000000E+00 -0.00000000000E+00 -0.46828851326E+00  0.46829545604E+00  0.25500000000E-02 0.  1.
         31    1    1    2    0    0  0.38261683747E+00 -0.15845179197E+00  0.65586259547E+02  0.66008998402E+02  0.74470750000E+01 0. -1.
        -31    1    1    2    0    0 -0.38261683747E+00  0.15845179197E+00  0.53874589230E+02  0.54388434371E+02  0.74470750000E+01 0.  1.
<mgrwt>
<rscale>  0 0.14988243E+02</rscale>
<asrwt>0</asrwt>
<pdfrwt beam="1">  1        2 0.99553021E+00 0.14988243E+02</pdfrwt>
<pdfrwt beam="2">  1       -2 0.99460672E+00 0.14988243E+02</pdfrwt>
<totfact>-0.11257436E-13</totfact>
</mgrwt>
</event>
<event>
 4    1  0.4926183E-019  0.1494600E+02  0.7818608E-02  0.1869721E+00
          2   -1    0    0  501    0  0.00000000000E+00  0.00000000000E+00  0.11998752631E+03  0.11998752634E+03  0.25500000000E-02 0.  1.
         -2   -1    0    0    0  501 -0.00000000000E+00 -0.00000000000E+00 -0.46542614676E+00  0.46543313224E+00  0.25500000000E-02 0. -1.
         31    1    1    2    0    0 -0.17965388420E+00  0.14962433539E-01  0.64558337103E+02  0.64986693369E+02  0.74470750000E+01 0.  1.
        -31    1    1    2    0    0  0.17965388420E+00 -0.14962433539E-01  0.54963763065E+02  0.55466266106E+02  0.74470750000E+01 0. -1.
<mgrwt>
<rscale>  0 0.14946003E+02</rscale>
<asrwt>0</asrwt>
<pdfrwt beam="1">  1        2 0.99598935E+00 0.14946003E+02</pdfrwt>
<pdfrwt beam="2">  1       -2 0.98855274E+00 0.14946003E+02</pdfrwt>
<totfact> 0.93805124E-14</totfact>
</mgrwt>
</event>
<event>
 4    1 -0.4926183E-019  0.1498538E+02  0.7818608E-02  0.1868515E+00
          2   -1    0    0  501    0  0.00000000000E+00  0.00000000000E+00  0.11937119902E+03  0.11937119905E+03  0.25500000000E-02 0. -1.
         -2   -1    0    0    0  501 -0.00000000000E+00 -0.00000000000E+00 -0.47029783431E+00  0.47030474743E+00  0.25500000000E-02 0.  1.
         31    1    1    2    0    0  0.29325126944E+00 -0.42226409872E+00  0.54284942496E+02  0.54795786436E+02  0.74470750000E+01 0.  1.
        -31    1    1    2    0    0 -0.29325126944E+00  0.42226409872E+00  0.64615958688E+02  0.65045717358E+02  0.74470750000E+01 0.  1.
<mgrwt>
<rscale>  0 0.14985384E+02</rscale>
<asrwt>0</asrwt>
<pdfrwt beam="1">  1        2 0.99093340E+00 0.14985384E+02</pdfrwt>
<pdfrwt beam="2">  1       -2 0.99883939E+00 0.14985384E+02</pdfrwt>
<totfact>-0.61214559E-14</totfact>
</mgrwt>
</event>
<event>
 4    1 -0.4926183E-019  0.1491662E+02  0.7818608E-02  0.1870624E+00
          2   -1    0    0  501    0  0.00000000000E+00  0.00000000000E+00  0.11885487926E+03  0.11885487929E+03  0.25500000000E-02 0.  1.
         -2   -1    0    0    0  501 -0.00000000000E+00 -0.00000000000E+00 -0.46801559357E+00  0.46802254040E+00  0.25500000000E-02 0. -1.
         31    1    1    2    0    0  0.68172298600E-02 -0.37481504626E+00  0.57881588148E+02  0.58359898093E+02  0.74470750000E+01 0. -1.
        -31    1    1    2    0    0 -0.68172298600E-02  0.37481504626E+00  0.60505275522E+02  0.60963003739E+02  0.74470750000E+01 0.  1.
<mgrwt>
<rscale>  0 0.14916615E+02</rscale>
<asrwt>0</asrwt>
<pdfrwt beam="1">  1        2 0.98664524E+00 0.14916615E+02</pdfrwt>
<pdfrwt beam="2">  1       -2 0.99399440E+00 0.14916615E+02</pdfrwt>
<totfact>-0.26314172E-13</totfact>
</mgrwt>
</event>
<event>
 4    1  0.4926183E-019  0.1491259E+02  0.7818608E-02  0.1870747E+00
          2   -1    0    0  501    0  0.00000000000E+00  0.00000000000E+00  0.11985702949E+03  0.11985702952E+03  0.25500000000E-02 0. -1.
         -2   -1    0    0    0  501 -0.00000000000E+00 -0.00000000000E+00 -0.46385221083E+00  0.46385922001E+00  0.25500000000E-02 0.  1.
         31    1    1    2    0    0  0.12034755085E+00 -0.28283673884E+00  0.58024165076E+02  0.58500915710E+02  0.74470750000E+01 0. -1.
        -31    1    1    2    0    0 -0.12034755085E+00  0.28283673884E+00  0.61369012201E+02  0.61819973025E+02  0.74470750000E+01 0.  1.
<mgrwt>
<rscale>  0 0.14912595E+02</rscale>
<asrwt>0</asrwt>
<pdfrwt beam="1">  1        2 0.99489729E+00 0.14912595E+02</pdfrwt>
<pdfrwt beam="2">  1       -2 0.98521854E+00 0.14912595E+02</pdfrwt>
<totfact> 0.46005528E-13</totfact>
</mgrwt>
</event>
<event>
 4    1  0.4926183E-019  0.1492308E+02  0.7818608E-02  0.1870425E+00
         -2   -1    0    0    0  501 -0.00000000000E+00  0.00000000000E+00  0.11880874524E+03  0.11880874526E+03  0.25500000000E-02 0.  1.
          2   -1    0    0  501    0  0.00000000000E+00 -0.00000000000E+00 -0.46860347095E+00  0.46861040907E+00  0.25500000000E-02 0. -1.
         31    1    1    2    0    0  0.30589633266E+00 -0.34808708614E+00  0.59415460154E+02  0.59882138978E+02  0.74470750000E+01 0. -1.
        -31    1    1    2    0    0 -0.30589633266E+00  0.34808708614E+00  0.58924681610E+02  0.59395216694E+02  0.74470750000E+01 0.  1.
<mgrwt>
<rscale>  0 0.14923084E+02</rscale>
<asrwt>0</asrwt>
<pdfrwt beam="2">  1        2 0.99523652E+00 0.14923084E+02</pdfrwt>
<pdfrwt beam="1">  1       -2 0.98626863E+00 0.14923084E+02</pdfrwt>
<totfact> 0.31706074E-13</totfact>
</mgrwt>
</event>
<event>
 4    1 -0.4926183E-019  0.1497482E+02  0.7818608E-02  0.1868838E+00
          2   -1    0    0  501    0  0.00000000000E+00  0.00000000000E+00  0.11931660745E+03  0.11931660748E+03  0.25500000000E-02 0. -1.
         -2   -1    0    0    0  501 -0.00000000000E+00 -0.00000000000E+00 -0.46984974585E+00  0.46985666557E+00  0.25500000000E-02 0.  1.
         31    1    1    2    0    0  0.30627164793E+00 -0.24221758876E+00  0.64788780894E+02  0.65216543357E+02  0.74470750000E+01 0. -1.
        -31    1    1    2    0    0 -0.30627164793E+00  0.24221758876E+00  0.54057976813E+02  0.54569920788E+02  0.74470750000E+01 0.  1.
<mgrwt>
<rscale>  0 0.14974818E+02</rscale>
<asrwt>0</asrwt>
<pdfrwt beam="1">  1        2 0.99047830E+00 0.14974818E+02</pdfrwt>
<pdfrwt beam="2">  1       -2 0.99788967E+00 0.14974818E+02</pdfrwt>
<totfact>-0.10602923E-13</totfact>
</mgrwt>
</event>
<event>
 4    1  0.4926183E-019  0.1489919E+02  0.7818608E-02  0.1871161E+00
          2   -1    0    0  501    0  0.00000000000E+00  0.00000000000E+00  0.11922852044E+03  0.11922852047E+03  0.25500000000E-02 0. -1.
         -2   -1    0    0    0  501 -0.00000000000E+00 -0.00000000000E+00 -0.46545919263E+00  0.46546617761E+00  0.25500000000E-02 0.  1.
         31    1    1    2    0    0  0.65984658117E-01 -0.46238341498E-01  0.60796275941E+02  0.61250735394E+02  0.74470750000E+01 0. -1.
        -31    1    1    2    0    0 -0.65984658117E-01  0.46238341498E-01  0.57966785306E+02  0.58443251251E+02  0.74470750000E+01 0.  1.
<mgrwt>
<rscale>  0 0.14899185E+02</rscale>
<asrwt>0</asrwt>
<pdfrwt beam="1">  1        2 0.98971363E+00 0.14899185E+02</pdfrwt>
<pdfrwt beam="2">  1       -2 0.98859834E+00 0.14899185E+02</pdfrwt>
<totfact> 0.15749168E-13</totfact>
</mgrwt>
</event>
<event>
 4    1  0.4926183E-019  0.1492206E+02  0.7818608E-02  0.1870456E+00
          2   -1    0    0  501    0  0.00000000000E+00  0.00000000000E+00  0.11989072540E+03  0.11989072542E+03  0.25500000000E-02 0. -1.
         -2   -1    0    0    0  501 -0.00000000000E+00 -0.00000000000E+00 -0.46431083262E+00  0.46431783488E+00  0.25500000000E-02 0.  1.
         31    1    1    2    0    0  0.30460061083E-01  0.41284546016E+00  0.61258145315E+02  0.61710539316E+02  0.74470750000E+01 0. -1.
        -31    1    1    2    0    0 -0.30460061083E-01 -0.41284546016E+00  0.58168269248E+02  0.58644503942E+02  0.74470750000E+01 0.  1.
<mgrwt>
<rscale>  0 0.14922062E+02</rscale>
<asrwt>0</asrwt>
<pdfrwt beam="1">  1        2 0.99517971E+00 0.14922062E+02</pdfrwt>
<pdfrwt beam="2">  1       -2 0.98618994E+00 0.14922062E+02</pdfrwt>
<totfact> 0.32796262E-13</totfact>
</mgrwt>
</event>
<event>
 4    1  0.4926183E-019  0.1490878E+02  0.7818608E-02  0.1870865E+00
         -2   -1    0    0    0  501 -0.00000000000E+00  0.00000000000E+00  0.11830215861E+03  0.11830215864E+03  0.25500000000E-02 0. -1.
          2   -1    0    0  501    0  0.00000000000E+00 -0.00000000000E+00 -0.46970861102E+00  0.46971553281E+00  0.25500000000E-02 0.  1.
         31    1    1    2    0    0 -0.25996027273E+00  0.14174990942E+00  0.57751991565E+02  0.58230912136E+02  0.74470750000E+01 0.  1.
        -31    1    1    2    0    0  0.25996027273E+00 -0.14174990942E+00  0.60080458438E+02  0.60540962038E+02  0.74470750000E+01 0. -1.
<mgrwt>
<rscale>  0 0.14908783E+02</rscale>
<asrwt>0</asrwt>
<pdfrwt beam="2">  1        2 0.99755756E+00 0.14908783E+02</pdfrwt>
<pdfrwt beam="1">  1       -2 0.98208896E+00 0.14908783E+02</pdfrwt>
<totfact> 0.61589426E-13</totfact>
</mgrwt>
</event>
<event>
 4    1  0.4926183E-019  0.1490078E+02  0.7818608E-02  0.1871111E+00
          2   -1    0    0  501    0  0.00000000000E+00  0.00000000000E+00  0.11933729444E+03  0.11933729446E+03  0.25500000000E-02 0.  1.
         -2   -1    0    0    0  501 -0.00000000000E+00 -0.00000000000E+00 -0.46513464035E+00  0.46514163021E+00  0.25500000000E-02 0. -1.
         31    1    1    2    0    0 -0.78716166224E-01 -0.19419159271E+00  0.58839968804E+02  0.59309735808E+02  0.74470750000E+01 0.  1.
        -31    1    1    2    0    0  0.78716166224E-01  0.19419159271E+00  0.60032190992E+02  0.60492700287E+02  0.74470750000E+01 0. -1.
<mgrwt>
<rscale>  0 0.14900783E+02</rscale>
<asrwt>0</asrwt>
<pdfrwt beam="1">  1        2 0.99061036E+00 0.14900783E+02</pdfrwt>
<pdfrwt beam="2">  1       -2 0.98791520E+00 0.14900783E+02</pdfrwt>
<totfact> 0.22475892E-13</totfact>
</mgrwt>
</event>
<event>
 4    1 -0.4926183E-019  0.1496960E+02  0.7818608E-02  0.1868998E+00
         -2   -1    0    0    0  501 -0.00000000000E+00  0.00000000000E+00  0.11986519426E+03  0.11986519429E+03  0.25500000000E-02 0.  1.
          2   -1    0    0  501    0  0.00000000000E+00 -0.00000000000E+00 -0.46737345937E+00  0.46738041575E+00  0.25500000000E-02 0. -1.
         31    1    1    2    0    0 -0.18090110762E+00  0.14919978059E+00  0.65430051672E+02  0.65852908619E+02  0.74470750000E+01 0.  1.
        -31    1    1    2    0    0  0.18090110762E+00 -0.14919978059E+00  0.53967769129E+02  0.54479666084E+02  0.74470750000E+01 0. -1.
<mgrwt>
<rscale>  0 0.14969600E+02</rscale>
<asrwt>0</asrwt>
<pdfrwt beam="2">  1        2 0.99266874E+00 0.14969600E+02</pdfrwt>
<pdfrwt beam="1">  1       -2 0.99499392E+00 0.14969600E+02</pdfrwt>
<totfact>-0.14423794E-13</totfact>
</mgrwt>
</event>
<event>
 4    1  0.4926183E-019  0.1490422E+02  0.7818608E-02  0.1871005E+00
         -2   -1    0    0    0  501 -0.00000000000E+00  0.00000000000E+00  0.11849713690E+03  0.11849713693E+03  0.25500000000E-02 0.  1.
          2   -1    0    0  501    0  0.00000000000E+00 -0.00000000000E+00 -0.46864876514E+00  0.46865570259E+00  0.25500000000E-02 0. -1.
         31    1    1    2    0    0  0.10168058534E+00  0.25391687097E+00  0.59130573136E+02  0.59598308853E+02  0.74470750000E+01 0.  1.
        -31    1    1    2    0    0 -0.10168058534E+00 -0.25391687097E+00  0.58897915000E+02  0.59367483778E+02  0.74470750000E+01 0. -1.
<mgrwt>
<rscale>  0 0.14904221E+02</rscale>
<asrwt>0</asrwt>
<pdfrwt beam="2">  1        2 0.99532206E+00 0.14904221E+02</pdfrwt>
<pdfrwt beam="1">  1       -2 0.98369241E+00 0.14904221E+02</pdfrwt>
<totfact> 0.65650485E-13</totfact>
</mgrwt>
</event>
<event>
 4    1 -0.4926183E-019  0.1490934E+02  0.7818608E-02  0.1870848E+00
          2   -1    0    0  501    0  0.00000000000E+00  0.00000000000E+00  0.11826309252E+03  0.11826309255E+03  0.25500000000E-02 0. -1.
         -2   -1    0    0    0  501 -0.00000000000E+00 -0.00000000000E+00 -0.46989879110E+00  0.46990571009E+00  0.25500000000E-02 0.  1.
         31    1    1    2    0    0  0.87939870530E-01 -0.31620108779E+00  0.59484722804E+02  0.59949969889E+02  0.74470750000E+01 0.  1.
        -31    1    1    2    0    0 -0.87939870530E-01  0.31620108779E+00  0.58308470928E+02  0.58783028372E+02  0.74470750000E+01 0.  1.
<mgrwt>
<rscale>  0 0.14909339E+02</rscale>
<asrwt>0</asrwt>
<pdfrwt beam="1">  1        2 0.98176750E+00 0.14909339E+02</pdfrwt>
<pdfrwt beam="2">  1       -2 0.99795855E+00 0.14909339E+02</pdfrwt>
<totfact>-0.36026735E-13</totfact>
</mgrwt>
</event>
<event>
 4    1 -0.4926183E-019  0.1489501E+02  0.7818608E-02  0.1871289E+00
          2   -1    0    0  501    0  0.00000000000E+00  0.00000000000E+00  0.11806105076E+03  0.11806105078E+03  0.25500000000E-02 0.  1.
         -2   -1    0    0    0  501 -0.00000000000E+00 -0.00000000000E+00 -0.46979831587E+00  0.46980523634E+00  0.25500000000E-02 0. -1.
         31    1    1    2    0    0  0.31397994447E-01 -0.15083481081E-01  0.58224261896E+02  0.58698592936E+02  0.74470750000E+01 0. -1.
        -31    1    1    2    0    0 -0.31397994447E-01  0.15083481081E-01  0.59366990544E+02  0.59832263084E+02  0.74470750000E+01 0.  1.
<mgrwt>
<rscale>  0 0.14895005E+02</rscale>
<asrwt>0</asrwt>
<pdfrwt beam="1">  1        2 0.98009605E+00 0.14895005E+02</pdfrwt>
<pdfrwt beam="2">  1       -2 0.99773926E+00 0.14895005E+02</pdfrwt>
<totfact>-0.51561818E-13</totfact>
</mgrwt>
</event>
<event>
 4    1  0.4926183E-019  0.1489972E+02  0.7818608E-02  0.1871144E+00
         -2   -1    0    0    0  501 -0.00000000000E+00  0.00000000000E+00  0.11825560085E+03  0.11825560087E+03  0.25500000000E-02 0.  1.
          2   -1    0    0  501    0  0.00000000000E+00 -0.00000000000E+00 -0.46932257990E+00  0.46932950739E+00  0.25500000000E-02 0. -1.
         31    1    1    2    0    0 -0.12870487813E+00 -0.42099824675E-01  0.60106126360E+02  0.60565862410E+02  0.74470750000E+01 0.  1.
        -31    1    1    2    0    0  0.12870487813E+00  0.42099824675E-01  0.57680151907E+02  0.58159067972E+02  0.74470750000E+01 0. -1.
<mgrwt>
<rscale>  0 0.14899723E+02</rscale>
<asrwt>0</asrwt>
<pdfrwt beam="2">  1        2 0.99673942E+00 0.14899723E+02</pdfrwt>
<pdfrwt beam="1">  1       -2 0.98170079E+00 0.14899723E+02</pdfrwt>
<totfact> 0.81188336E-13</totfact>
</mgrwt>
</event>
<event>
 4    1 -0.4926183E-019  0.1491470E+02  0.7818608E-02  0.1870683E+00
         -2   -1    0    0    0  501 -0.00000000000E+00  0.00000000000E+00  0.12021682553E+03  0.12021682556E+03  0.25500000000E-02 0.  1.
          2   -1    0    0  501    0  0.00000000000E+00 -0.00000000000E+00 -0.46259436370E+00  0.46260139194E+00  0.25500000000E-02 0. -1.
         31    1    1    2    0    0 -0.24372292589E-01 -0.34513908699E+00  0.61356090262E+02  0.61807349508E+02  0.74470750000E+01 0.  1.
        -31    1    1    2    0    0  0.24372292589E-01  0.34513908699E+00  0.58398140903E+02  0.58872077439E+02  0.74470750000E+01 0.  1.
<mgrwt>
<rscale>  0 0.14914698E+02</rscale>
<asrwt>0</asrwt>
<pdfrwt beam="2">  1        2 0.98256850E+00 0.14914698E+02</pdfrwt>
<pdfrwt beam="1">  1       -2 0.99786194E+00 0.14914698E+02</pdfrwt>
<totfact>-0.32642076E-13</totfact>
</mgrwt>
</event>
<event>
 4    1  0.4926183E-019  0.1492412E+02  0.7818608E-02  0.1870393E+00
         -2   -1    0    0    0  501 -0.00000000000E+00  0.00000000000E+00  0.11865541660E+03  0.11865541663E+03  0.25500000000E-02 0.  1.
          2   -1    0    0  501    0  0.00000000000E+00 -0.00000000000E+00 -0.46927391775E+00  0.46928084596E+00  0.25500000000E-02 0. -1.
         31    1    1    2    0    0  0.63829172992E-01  0.27708193830E+00  0.56079585065E+02  0.56572604993E+02  0.74470750000E+01 0. -1.
        -31    1    1    2    0    0 -0.63829172992E-01 -0.27708193830E+00  0.62106557616E+02  0.62552092479E+02  0.74470750000E+01 0.  1.
<mgrwt>
<rscale>  0 0.14924116E+02</rscale>
<asrwt>0</asrwt>
<pdfrwt beam="2">  1        2 0.99664975E+00 0.14924116E+02</pdfrwt>
<pdfrwt beam="1">  1       -2 0.98500635E+00 0.14924116E+02</pdfrwt>
<totfact> 0.38417343E-13</totfact>
</mgrwt>
</event>
<event>
 4    1 -0.4926183E-019  0.1500317E+02  0.7818608E-02  0.1867972E+00
          2   -1    0    0  501    0  0.00000000000E+00  0.00000000000E+00  0.12003596557E+03  0.12003596560E+03  0.25500000000E-02 0.  1.
         -2   -1    0    0    0  501 -0.00000000000E+00 -0.00000000000E+00 -0.46880430514E+00  0.46881124028E+00  0.25500000000E-02 0. -1.
         31    1    1    2    0    0  0.23068651180E+00 -0.79984145940E+00  0.56979195307E+02  0.57469823268E+02  0.74470750000E+01 0. -1.
        -31    1    1    2    0    0 -0.23068651180E+00  0.79984145940E+00  0.62587965957E+02  0.63034953568E+02  0.74470750000E+01 0.  1.
<mgrwt>
<rscale>  0 0.15003173E+02</rscale>
<asrwt>0</asrwt>
<pdfrwt beam="1">  1        2 0.99641781E+00 0.15003173E+02</pdfrwt>
<pdfrwt beam="2">  1       -2 0.99570139E+00 0.15003173E+02</pdfrwt>
<totfact>-0.95320646E-14</totfact>
</mgrwt>
</event>
<event>
 4    1 -0.4926183E-019  0.1490813E+02  0.7818608E-02  0.1870885E+00
         -2   -1    0    0    0  501 -0.00000000000E+00  0.00000000000E+00  0.11978025757E+03  0.11978025759E+03  0.25500000000E-02 0.  1.
          2   -1    0    0  501    0  0.00000000000E+00 -0.00000000000E+00 -0.46387131259E+00  0.46387832149E+00  0.25500000000E-02 0. -1.
         31    1    1    2    0    0 -0.12744925333E+00 -0.25790768972E+00  0.60837067974E+02  0.61291847136E+02  0.74470750000E+01 0.  1.
        -31    1    1    2    0    0  0.12744925333E+00  0.25790768972E+00  0.58479318281E+02  0.58952288780E+02  0.74470750000E+01 0. -1.
<mgrwt>
<rscale>  0 0.14908125E+02</rscale>
<asrwt>0</asrwt>
<pdfrwt beam="2">  1        2 0.98525652E+00 0.14908125E+02</pdfrwt>
<pdfrwt beam="1">  1       -2 0.99426265E+00 0.14908125E+02</pdfrwt>
<totfact>-0.33067317E-13</totfact>
</mgrwt>
</event>
<event>
 4    1 -0.4926183E-019  0.1491593E+02  0.7818608E-02  0.1870645E+00
          2   -1    0    0  501    0  0.00000000000E+00  0.00000000000E+00  0.11855746536E+03  0.11855746539E+03  0.25500000000E-02 0.  1.
         -2   -1    0    0    0  501 -0.00000000000E+00 -0.00000000000E+00 -0.46914656652E+00  0.46915349661E+00  0.25500000000E-02 0. -1.
         31    1    1    2    0    0  0.24977965497E+00 -0.21925101380E+00  0.57227017634E+02  0.57710492410E+02  0.74470750000E+01 0.  1.
        -31    1    1    2    0    0 -0.24977965497E+00  0.21925101380E+00  0.60861301161E+02  0.61316126475E+02  0.74470750000E+01 0. -1.
<mgrwt>
<rscale>  0 0.14915930E+02</rscale>
<asrwt>0</asrwt>
<pdfrwt beam="1">  1        2 0.98419536E+00 0.14915930E+02</pdfrwt>
<pdfrwt beam="2">  1       -2 0.99637711E+00 0.14915930E+02</pdfrwt>
<totfact>-0.35463924E-13</totfact>
</mgrwt>
</event>
<event>
 4    1 -0.4926183E-019  0.1496234E+02  0.7818608E-02  0.1869220E+00
         -2   -1    0    0    0  501 -0.00000000000E+00  0.00000000000E+00  0.12037468814E+03  0.12037468817E+03  0.25500000000E-02 0. -1.
          2   -1    0    0  501    0  0.00000000000E+00 -0.00000000000E+00 -0.46494367585E+00  0.46495066858E+00  0.25500000000E-02 0.  1.
         31    1    1    2    0    0 -0.63677852434E+00 -0.25027676424E-01  0.62544754619E+02  0.62989771945E+02  0.74470750000E+01 0. -1.
        -31    1    1    2    0    0  0.63677852434E+00  0.25027676424E-01  0.57364989848E+02  0.57849866893E+02  0.74470750000E+01 0.  1.
<mgrwt>
<rscale>  0 0.14962336E+02</rscale>
<asrwt>0</asrwt>
<pdfrwt beam="2">  1        2 0.98754422E+00 0.14962336E+02</pdfrwt>
<pdfrwt beam="1">  1       -2 0.99918668E+00 0.14962336E+02</pdfrwt>
<totfact>-0.63615621E-14</totfact>
</mgrwt>
</event>
<event>
 4    1 -0.4926183E-019  0.1498052E+02  0.7818608E-02  0.1868664E+00
          2   -1    0    0  501    0  0.00000000000E+00  0.00000000000E+00  0.11986928707E+03  0.11986928709E+03  0.25500000000E-02 0.  1.
         -2   -1    0    0    0  501 -0.00000000000E+00 -0.00000000000E+00 -0.46803931568E+00  0.46804626216E+00  0.25500000000E-02 0. -1.
         31    1    1    2    0    0 -0.69249582415E+00 -0.66225778346E-01  0.62924782683E+02  0.63367745250E+02  0.74470750000E+01 0.  1.
        -31    1    1    2    0    0  0.69249582415E+00  0.66225778346E-01  0.56476465066E+02  0.56969588104E+02  0.74470750000E+01 0. -1.
<mgrwt>
<rscale>  0 0.14980515E+02</rscale>
<asrwt>0</asrwt>
<pdfrwt beam="1">  1        2 0.99503327E+00 0.14980515E+02</pdfrwt>
<pdfrwt beam="2">  1       -2 0.99407758E+00 0.14980515E+02</pdfrwt>
<totfact>-0.11688256E-13</totfact>
</mgrwt>
</event>
<event>
 4    1  0.4926183E-019  0.1490262E+02  0.7818608E-02  0.1871055E+00
         -2   -1    0    0    0  501 -0.00000000000E+00  0.00000000000E+00  0.11831895247E+03  0.11831895249E+03  0.25500000000E-02 0. -1.
          2   -1    0    0  501    0  0.00000000000E+00 -0.00000000000E+00 -0.46925366923E+00  0.46926059773E+00  0.25500000000E-02 0.  1.
         31    1    1    2    0    0 -0.23806812361E-03 -0.98343612181E-01  0.57082571415E+02  0.57566383914E+02  0.74470750000E+01 0.  1.
        -31    1    1    2    0    0  0.23806812361E-03  0.98343612181E-01  0.60767127381E+02  0.61221829176E+02  0.74470750000E+01 0. -1.
<mgrwt>
<rscale>  0 0.14902619E+02</rscale>
<asrwt>0</asrwt>
<pdfrwt beam="2">  1        2 0.99659575E+00 0.14902619E+02</pdfrwt>
<pdfrwt beam="1">  1       -2 0.98222406E+00 0.14902619E+02</pdfrwt>
<totfact> 0.75240337E-13</totfact>
</mgrwt>
</event>
<event>
 4    1  0.4926183E-019  0.1492885E+02  0.7818608E-02  0.1870247E+00
          2   -1    0    0  501    0  0.00000000000E+00  0.00000000000E+00  0.12015539981E+03  0.12015539984E+03  0.25500000000E-02 0.  1.
         -2   -1    0    0    0  501 -0.00000000000E+00 -0.00000000000E+00 -0.46370968125E+00  0.46371669259E+00  0.25500000000E-02 0. -1.
         31    1    1    2    0    0  0.14782211634E+00 -0.46600070857E+00  0.58711458631E+02  0.59183893997E+02  0.74470750000E+01 0. -1.
        -31    1    1    2    0    0 -0.14782211634E+00  0.46600070857E+00  0.60980231501E+02  0.61435222536E+02  0.74470750000E+01 0. -1.
<mgrwt>
<rscale>  0 0.14928851E+02</rscale>
<asrwt>0</asrwt>
<pdfrwt beam="1">  1        2 0.99736325E+00 0.14928851E+02</pdfrwt>
<pdfrwt beam="2">  1       -2 0.98492640E+00 0.14928851E+02</pdfrwt>
<totfact> 0.33413126E-13</totfact>
</mgrwt>
</event>
<event>
 4    1 -0.4926183E-019  0.1495037E+02  0.7818608E-02  0.1869587E+00
         -2   -1    0    0    0  501 -0.00000000000E+00  0.00000000000E+00  0.11988152481E+03  0.11988152483E+03  0.25500000000E-02 0.  1.
          2   -1    0    0  501    0  0.00000000000E+00 -0.00000000000E+00 -0.46611019433E+00  0.46611716956E+00  0.25500000000E-02 0. -1.
         31    1    1    2    0    0 -0.42701904046E+00  0.32394953119E+00  0.56780768250E+02  0.57269554369E+02  0.74470750000E+01 0. -1.
        -31    1    1    2    0    0  0.42701904046E+00 -0.32394953119E+00  0.62634646364E+02  0.63078087635E+02  0.74470750000E+01 0.  1.
<mgrwt>
<rscale>  0 0.14950374E+02</rscale>
<asrwt>0</asrwt>
<pdfrwt beam="2">  1        2 0.98999661E+00 0.14950374E+02</pdfrwt>
<pdfrwt beam="1">  1       -2 0.99511851E+00 0.14950374E+02</pdfrwt>
<totfact>-0.17805762E-13</totfact>
</mgrwt>
</event>
<event>
 4    1 -0.4926183E-019  0.1491588E+02  0.7818608E-02  0.1870646E+00
         -2   -1    0    0    0  501 -0.00000000000E+00  0.00000000000E+00  0.12019864315E+03  0.12019864318E+03  0.25500000000E-02 0. -1.
          2   -1    0    0  501    0  0.00000000000E+00 -0.00000000000E+00 -0.46273781547E+00  0.46274484153E+00  0.25500000000E-02 0.  1.
         31    1    1    2    0    0  0.19786208555E+00 -0.13155348820E+00  0.57240419104E+02  0.57723313843E+02  0.74470750000E+01 0. -1.
        -31    1    1    2    0    0 -0.19786208555E+00  0.13155348820E+00  0.62495486233E+02  0.62938074179E+02  0.74470750000E+01 0. -1.
<mgrwt>
<rscale>  0 0.14915882E+02</rscale>
<asrwt>0</asrwt>
<pdfrwt beam="2">  1        2 0.98287145E+00 0.14915882E+02</pdfrwt>
<pdfrwt beam="1">  1       -2 0.99771278E+00 0.14915882E+02</pdfrwt>
<totfact>-0.32676946E-13</totfact>
</mgrwt>
</event>
<event>
 4    1 -0.4926183E-019  0.1490951E+02  0.7818608E-02  0.1870842E+00
         -2   -1    0    0    0  501 -0.00000000000E+00  0.00000000000E+00  0.12020833086E+03  0.12020833088E+03  0.25500000000E-02 0. -1.
          2   -1    0    0  501    0  0.00000000000E+00 -0.00000000000E+00 -0.46230548463E+00  0.46231251727E+00  0.25500000000E-02 0.  1.
         31    1    1    2    0    0  0.24293890752E+00  0.14686910424E+00  0.61362765960E+02  0.61813659996E+02  0.74470750000E+01 0.  1.
        -31    1    1    2    0    0 -0.24293890752E+00 -0.14686910424E+00  0.58383259413E+02  0.58856983405E+02  0.74470750000E+01 0.  1.
<mgrwt>
<rscale>  0 0.14909513E+02</rscale>
<asrwt>0</asrwt>
<pdfrwt beam="2">  1        2 0.98195700E+00 0.14909513E+02</pdfrwt>
<pdfrwt beam="1">  1       -2 0.99778931E+00 0.14909513E+02</pdfrwt>
<totfact>-0.37152939E-13</totfact>
</mgrwt>
</event>
<event>
 4    1 -0.4926183E-019  0.1491905E+02  0.7818608E-02  0.1870549E+00
         -2   -1    0    0    0  501 -0.00000000000E+00  0.00000000000E+00  0.11975965240E+03  0.11975965243E+03  0.25500000000E-02 0. -1.
          2   -1    0    0  501    0  0.00000000000E+00 -0.00000000000E+00 -0.46463113775E+00  0.46463813518E+00  0.25500000000E-02 0.  1.
         31    1    1    2    0    0  0.40521174924E+00 -0.75494485620E-01  0.60656065302E+02  0.61112904365E+02  0.74470750000E+01 0. -1.
        -31    1    1    2    0    0 -0.40521174924E+00  0.75494485620E-01  0.58638955962E+02  0.59111386199E+02  0.74470750000E+01 0.  1.
<mgrwt>
<rscale>  0 0.14919046E+02</rscale>
<asrwt>0</asrwt>
<pdfrwt beam="2">  1        2 0.98686346E+00 0.14919046E+02</pdfrwt>
<pdfrwt beam="1">  1       -2 0.99409855E+00 0.14919046E+02</pdfrwt>
<totfact>-0.25656922E-13</totfact>
</mgrwt>
</event>
<event>
 4    1 -0.4926183E-019  0.1490210E+02  0.7818608E-02  0.1871071E+00
          2   -1    0    0  501    0  0.00000000000E+00  0.00000000000E+00  0.11837782637E+03  0.11837782640E+03  0.25500000000E-02 0. -1.
         -2   -1    0    0    0  501 -0.00000000000E+00 -0.00000000000E+00 -0.46898750269E+00  0.46899443512E+00  0.25500000000E-02 0.  1.
         31    1    1    2    0    0  0.87637187450E-01 -0.18934769387E+00  0.59952937398E+02  0.60414047717E+02  0.74470750000E+01 0. -1.
        -31    1    1    2    0    0 -0.87637187450E-01  0.18934769387E+00  0.57955901472E+02  0.58432773119E+02  0.74470750000E+01 0.  1.
<mgrwt>
<rscale>  0 0.14902098E+02</rscale>
<asrwt>0</asrwt>
<pdfrwt beam="1">  1        2 0.98270867E+00 0.14902098E+02</pdfrwt>
<pdfrwt beam="2">  1       -2 0.99603467E+00 0.14902098E+02</pdfrwt>
<totfact>-0.47557317E-13</totfact>
</mgrwt>
</event>
<event>
 4    1 -0.4926183E-019  0.1491607E+02  0.7818608E-02  0.1870641E+00
         -2   -1    0    0    0  501 -0.00000000000E+00  0.00000000000E+00  0.11961820527E+03  0.11961820529E+03  0.25500000000E-02 0.  1.
          2   -1    0    0  501    0  0.00000000000E+00 -0.00000000000E+00 -0.46499477539E+00  0.46500176736E+00  0.25500000000E-02 0. -1.
         31    1    1    2    0    0 -0.33686827519E+00  0.14456989046E+00  0.58206698025E+02  0.58682305696E+02  0.74470750000E+01 0.  1.
        -31    1    1    2    0    0  0.33686827519E+00 -0.14456989046E+00  0.60946512467E+02  0.61400901366E+02  0.74470750000E+01 0.  1.
<mgrwt>
<rscale>  0 0.14916067E+02</rscale>
<asrwt>0</asrwt>
<pdfrwt beam="2">  1        2 0.98762830E+00 0.14916067E+02</pdfrwt>
<pdfrwt beam="1">  1       -2 0.99293197E+00 0.14916067E+02</pdfrwt>
<totfact>-0.20080842E-13</totfact>
</mgrwt>
</event>
<event>
 4    1 -0.4926183E-019  0.1500965E+02  0.7818608E-02  0.1867774E+00
         -2   -1    0    0    0  501 -0.00000000000E+00  0.00000000000E+00  0.11998600228E+03  0.11998600231E+03  0.25500000000E-02 0. -1.
          2   -1    0    0  501    0  0.00000000000E+00 -0.00000000000E+00 -0.46940429987E+00  0.46941122615E+00  0.25500000000E-02 0.  1.
         31    1    1    2    0    0 -0.55429483907E+00  0.73387649388E+00  0.58693011439E+02  0.59170721943E+02  0.74470750000E+01 0.  1.
        -31    1    1    2    0    0  0.55429483907E+00 -0.73387649388E+00  0.60823586546E+02  0.61284691595E+02  0.74470750000E+01 0. -1.
<mgrwt>
<rscale>  0 0.15009645E+02</rscale>
<asrwt>0</asrwt>
<pdfrwt beam="2">  1        2 0.99696913E+00 0.15009645E+02</pdfrwt>
<pdfrwt beam="1">  1       -2 0.99600964E+00 0.15009645E+02</pdfrwt>
<totfact>-0.83126166E-14</totfact>
</mgrwt>
</event>
<event>
 4    1 -0.4926183E-019  0.1495155E+02  0.7818608E-02  0.1869551E+00
         -2   -1    0    0    0  501 -0.00000000000E+00  0.00000000000E+00  0.12034342744E+03  0.12034342747E+03  0.25500000000E-02 0.  1.
          2   -1    0    0  501    0  0.00000000000E+00 -0.00000000000E+00 -0.46439395005E+00  0.46440095105E+00  0.25500000000E-02 0. -1.
         31    1    1    2    0    0 -0.17813914631E+00  0.15333654959E+00  0.64874328928E+02  0.65300786562E+02  0.74470750000E+01 0.  1.
        -31    1    1    2    0    0  0.17813914631E+00 -0.15333654959E+00  0.55004704565E+02  0.55507041860E+02  0.74470750000E+01 0. -1.
<mgrwt>
<rscale>  0 0.14951546E+02</rscale>
<asrwt>0</asrwt>
<pdfrwt beam="2">  1        2 0.98638011E+00 0.14951546E+02</pdfrwt>
<pdfrwt beam="1">  1       -2 0.99892365E+00 0.14951546E+02</pdfrwt>
<totfact>-0.97261680E-14</totfact>
</mgrwt>
</event>
<event>
 4    1 -0.4926183E-019  0.1502894E+02  0.7818608E-02  0.1867187E+00
          2   -1    0    0  501    0  0.00000000000E+00  0.00000000000E+00  0.12030029440E+03  0.12030029442E+03  0.25500000000E-02 0. -1.
         -2   -1    0    0    0  501 -0.00000000000E+00 -0.00000000000E+00 -0.46938244318E+00  0.46938936978E+00  0.25500000000E-02 0.  1.
         31    1    1    2    0    0 -0.97772775950E+00 -0.21149319311E+00  0.59212196777E+02  0.59687049300E+02  0.74470750000E+01 0. -1.
        -31    1    1    2    0    0  0.97772775950E+00  0.21149319311E+00  0.60618715176E+02  0.61082634493E+02  0.74470750000E+01 0. -1.
<mgrwt>
<rscale>  0 0.15028941E+02</rscale>
<asrwt>0</asrwt>
<pdfrwt beam="1">  1        2 0.99860824E+00 0.15028941E+02</pdfrwt>
<pdfrwt beam="2">  1       -2 0.99693304E+00 0.15028941E+02</pdfrwt>
<totfact>-0.39619731E-14</totfact>
</mgrwt>
</event>
<event>
 4    1  0.4926183E-019  0.1491525E+02  0.7818608E-02  0.1870666E+00
          2   -1    0    0  501    0  0.00000000000E+00  0.00000000000E+00  0.11993190851E+03  0.11993190854E+03  0.25500000000E-02 0.  1.
         -2   -1    0    0    0  501 -0.00000000000E+00 -0.00000000000E+00 -0.46372763982E+00  0.46373465089E+00  0.25500000000E-02 0. -1.
         31    1    1    2    0    0  0.33225828179E+00 -0.21100503639E+00  0.60122872583E+02  0.60583608777E+02  0.74470750000E+01 0. -1.
        -31    1    1    2    0    0 -0.33225828179E+00  0.21100503639E+00  0.59345308287E+02  0.59812034411E+02  0.74470750000E+01 0.  1.
<mgrwt>
<rscale>  0 0.14915249E+02</rscale>
<asrwt>0</asrwt>
<pdfrwt beam="1">  1        2 0.99551541E+00 0.14915249E+02</pdfrwt>
<pdfrwt beam="2">  1       -2 0.98495734E+00 0.14915249E+02</pdfrwt>
<totfact> 0.46312374E-13</totfact>
</mgrwt>
</event>
<event>
 4    1 -0.4926183E-019  0.1502192E+02  0.7818608E-02  0.1867400E+00
         -2   -1    0    0    0  501 -0.00000000000E+00  0.00000000000E+00  0.11990882445E+03  0.11990882448E+03  0.25500000000E-02 0. -1.
          2   -1    0    0  501    0  0.00000000000E+00 -0.00000000000E+00 -0.47047503391E+00  0.47048194442E+00  0.25500000000E-02 0.  1.
         31    1    1    2    0    0 -0.35103060582E+00  0.77658259438E+00  0.55881878503E+02  0.56382351619E+02  0.74470750000E+01 0.  1.
        -31    1    1    2    0    0  0.35103060582E+00 -0.77658259438E+00  0.63556470913E+02  0.63996954802E+02  0.74470750000E+01 0. -1.
<mgrwt>
<rscale>  0 0.15021921E+02</rscale>
<asrwt>0</asrwt>
<pdfrwt beam="2">  1        2 0.99923184E+00 0.15021921E+02</pdfrwt>
<pdfrwt beam="1">  1       -2 0.99538033E+00 0.15021921E+02</pdfrwt>
<totfact>-0.28426366E-14</totfact>
</mgrwt>
</event>
<event>
 4    1  0.4926183E-019  0.1490642E+02  0.7818608E-02  0.1870938E+00
          2   -1    0    0  501    0  0.00000000000E+00  0.00000000000E+00  0.12033579816E+03  0.12033579819E+03  0.25500000000E-02 0. -1.
         -2   -1    0    0    0  501 -0.00000000000E+00 -0.00000000000E+00 -0.46162393259E+00  0.46163097561E+00  0.25500000000E-02 0.  1.
         31    1    1    2    0    0  0.28534232315E+00  0.86512930618E-01  0.60340699272E+02  0.60799241931E+02  0.74470750000E+01 0.  1.
        -31    1    1    2    0    0 -0.28534232315E+00 -0.86512930618E-01  0.59533474958E+02  0.59998187234E+02  0.74470750000E+01 0.  1.
<mgrwt>
<rscale>  0 0.14906416E+02</rscale>
<asrwt>0</asrwt>
<pdfrwt beam="1">  1        2 0.99883766E+00 0.14906416E+02</pdfrwt>
<pdfrwt beam="2">  1       -2 0.98051889E+00 0.14906416E+02</pdfrwt>
<totfact> 0.45315938E-13</totfact>
</mgrwt>
</event>
<event>
 4    1  0.4926183E-019  0.1491421E+02  0.7818608E-02  0.1870698E+00
         -2   -1    0    0    0  501 -0.00000000000E+00  0.00000000000E+00  0.11869831429E+03  0.11869831432E+03  0.25500000000E-02 0. -1.
          2   -1    0    0  501    0  0.00000000000E+00 -0.00000000000E+00 -0.46848155541E+00  0.46848849534E+00  0.25500000000E-02 0.  1.
         31    1    1    2    0    0  0.21445106448E+00 -0.86088534786E-01  0.61591341960E+02  0.62040355665E+02  0.74470750000E+01 0. -1.
        -31    1    1    2    0    0 -0.21445106448E+00  0.86088534786E-01  0.56638490774E+02  0.57126447148E+02  0.74470750000E+01 0.  1.
<mgrwt>
<rscale>  0 0.14914206E+02</rscale>
<asrwt>0</asrwt>
<pdfrwt beam="2">  1        2 0.99497498E+00 0.14914206E+02</pdfrwt>
<pdfrwt beam="1">  1       -2 0.98535450E+00 0.14914206E+02</pdfrwt>
<totfact> 0.43846595E-13</totfact>
</mgrwt>
</event>
<event>
 4    1 -0.4926183E-019  0.1493690E+02  0.7818608E-02  0.1870000E+00
         -2   -1    0    0    0  501 -0.00000000000E+00  0.00000000000E+00  0.12027721154E+03  0.12027721157E+03  0.25500000000E-02 0. -1.
          2   -1    0    0  501    0  0.00000000000E+00 -0.00000000000E+00 -0.46373953966E+00  0.46374655054E+00  0.25500000000E-02 0.  1.
         31    1    1    2    0    0 -0.54364194993E+00  0.46176033431E-01  0.58732032559E+02  0.59204799243E+02  0.74470750000E+01 0.  1.
        -31    1    1    2    0    0  0.54364194993E+00 -0.46176033431E-01  0.61081439439E+02  0.61536158873E+02  0.74470750000E+01 0.  1.
<mgrwt>
<rscale>  0 0.14936897E+02</rscale>
<asrwt>0</asrwt>
<pdfrwt beam="2">  1        2 0.98499341E+00 0.14936897E+02</pdfrwt>
<pdfrwt beam="1">  1       -2 0.99837072E+00 0.14936897E+02</pdfrwt>
<totfact>-0.17424113E-13</totfact>
</mgrwt>
</event>
<event>
 4    1 -0.4926183E-019  0.1497769E+02  0.7818608E-02  0.1868750E+00
          2   -1    0    0  501    0  0.00000000000E+00  0.00000000000E+00  0.12001639211E+03  0.12001639214E+03  0.25500000000E-02 0. -1.
         -2   -1    0    0    0  501 -0.00000000000E+00 -0.00000000000E+00 -0.46728939392E+00  0.46729635155E+00  0.25500000000E-02 0.  1.
         31    1    1    2    0    0  0.33185749798E+00 -0.69760583196E-01  0.54036114637E+02  0.54547920282E+02  0.74470750000E+01 0. -1.
        -31    1    1    2    0    0 -0.33185749798E+00  0.69760583196E-01  0.65512988080E+02  0.65935768207E+02  0.74470750000E+01 0. -1.
<mgrwt>
<rscale>  0 0.14977691E+02</rscale>
<asrwt>0</asrwt>
<pdfrwt beam="1">  1        2 0.99624343E+00 0.14977691E+02</pdfrwt>
<pdfrwt beam="2">  1       -2 0.99249574E+00 0.14977691E+02</pdfrwt>
<totfact>-0.78854587E-14</totfact>
</mgrwt>
</event>
<event>
 4    1 -0.4926183E-019  0.1495989E+02  0.7818608E-02  0.1869295E+00
         -2   -1    0    0    0  501 -0.00000000000E+00  0.00000000000E+00  0.11967862381E+03  0.11967862384E+03  0.25500000000E-02 0.  1.
          2   -1    0    0  501    0  0.00000000000E+00 -0.00000000000E+00 -0.46749501351E+00  0.46750196808E+00  0.25500000000E-02 0. -1.
         31    1    1    2    0    0 -0.45555703659E+00  0.22777886498E+00  0.63467551034E+02  0.63904994920E+02  0.74470750000E+01 0.  1.
        -31    1    1    2    0    0  0.45555703659E+00 -0.22777886498E+00  0.55743577762E+02  0.56241130885E+02  0.74470750000E+01 0. -1.
<mgrwt>
<rscale>  0 0.14959890E+02</rscale>
<asrwt>0</asrwt>
<pdfrwt beam="2">  1        2 0.99291989E+00 0.14959890E+02</pdfrwt>
<pdfrwt beam="1">  1       -2 0.99345223E+00 0.14959890E+02</pdfrwt>
<totfact>-0.13164999E-13</totfact>
</mgrwt>
</event>
<event>
 4    1  0.4926183E-019  0.1492512E+02  0.7818608E-02  0.1870362E+00
          2   -1    0    0  501    0  0.00000000000E+00  0.00000000000E+00  0.12027196393E+03  0.12027196396E+03  0.25500000000E-02 0. -1.
         -2   -1    0    0    0  501 -0.00000000000E+00 -0.00000000000E+00 -0.46302902824E+00  0.46303604988E+00  0.25500000000E-02 0.  1.
         31    1    1    2    0    0  0.22785162198E+00  0.26068527613E+00  0.57208908625E+02  0.57692616731E+02  0.74470750000E+01 0.  1.
        -31    1    1    2    0    0 -0.22785162198E+00 -0.26068527613E+00  0.62600026278E+02  0.63042383277E+02  0.74470750000E+01 0. -1.
<mgrwt>
<rscale>  0 0.14925125E+02</rscale>
<asrwt>0</asrwt>
<pdfrwt beam="1">  1        2 0.99832145E+00 0.14925125E+02</pdfrwt>
<pdfrwt beam="2">  1       -2 0.98348991E+00 0.14925125E+02</pdfrwt>
<totfact> 0.34056009E-13</totfact>
</mgrwt>
</event>
<event>
 4    1 -0.4926183E-019  0.1496431E+02  0.7818608E-02  0.1869159E+00
          2   -1    0    0  501    0  0.00000000000E+00  0.00000000000E+00  0.11934406027E+03  0.11934406029E+03  0.25500000000E-02 0. -1.
         -2   -1    0    0    0  501 -0.00000000000E+00 -0.00000000000E+00 -0.46908280991E+00  0.46908974094E+00  0.25500000000E-02 0.  1.
         31    1    1    2    0    0  0.71293660537E+00  0.79838464685E-01  0.58674332269E+02  0.59149394300E+02  0.74470750000E+01 0. -1.
        -31    1    1    2    0    0 -0.71293660537E+00 -0.79838464685E-01  0.60200645188E+02  0.60663755735E+02  0.74470750000E+01 0.  1.
<mgrwt>
<rscale>  0 0.14964313E+02</rscale>
<asrwt>0</asrwt>
<pdfrwt beam="1">  1        2 0.99069895E+00 0.14964313E+02</pdfrwt>
<pdfrwt beam="2">  1       -2 0.99626812E+00 0.14964313E+02</pdfrwt>
<totfact>-0.15235909E-13</totfact>
</mgrwt>
</event>
<event>
 4    1 -0.4926183E-019  0.1498974E+02  0.7818608E-02  0.1868382E+00
         -2   -1    0    0    0  501 -0.00000000000E+00  0.00000000000E+00  0.11993889162E+03  0.11993889164E+03  0.25500000000E-02 0. -1.
          2   -1    0    0  501    0  0.00000000000E+00 -0.00000000000E+00 -0.46834373962E+00  0.46835068158E+00  0.25500000000E-02 0.  1.
         31    1    1    2    0    0 -0.78813550229E+00 -0.19771477217E+00  0.57870837643E+02  0.58353689038E+02  0.74470750000E+01 0.  1.
        -31    1    1    2    0    0  0.78813550229E+00  0.19771477217E+00  0.61599710232E+02  0.62053553286E+02  0.74470750000E+01 0. -1.
<mgrwt>
<rscale>  0 0.14989736E+02</rscale>
<asrwt>0</asrwt>
<pdfrwt beam="2">  1        2 0.99472387E+00 0.14989736E+02</pdfrwt>
<pdfrwt beam="1">  1       -2 0.99561132E+00 0.14989736E+02</pdfrwt>
<totfact>-0.11913840E-13</totfact>
</mgrwt>
</event>
<event>
 4    1 -0.4926183E-019  0.1491722E+02  0.7818608E-02  0.1870605E+00
         -2   -1    0    0    0  501 -0.00000000000E+00  0.00000000000E+00  0.11966043380E+03  0.11966043383E+03  0.25500000000E-02 0. -1.
          2   -1    0    0  501    0  0.00000000000E+00 -0.00000000000E+00 -0.46490266308E+00  0.46490965643E+00  0.25500000000E-02 0.  1.
         31    1    1    2    0    0  0.16490018769E+00  0.99939403428E-01  0.62554030213E+02  0.62996053859E+02  0.74470750000E+01 0. -1.
        -31    1    1    2    0    0 -0.16490018769E+00 -0.99939403428E-01  0.56641500926E+02  0.57129289625E+02  0.74470750000E+01 0.  1.
<mgrwt>
<rscale>  0 0.14917222E+02</rscale>
<asrwt>0</asrwt>
<pdfrwt beam="2">  1        2 0.98743477E+00 0.14917222E+02</pdfrwt>
<pdfrwt beam="1">  1       -2 0.99328039E+00 0.14917222E+02</pdfrwt>
<totfact>-0.21848800E-13</totfact>
</mgrwt>
</event>
<event>
 4    1 -0.4926183E-019  0.1495676E+02  0.7818608E-02  0.1869391E+00
          2   -1    0    0  501    0  0.00000000000E+00  0.00000000000E+00  0.11934800956E+03  0.11934800959E+03  0.25500000000E-02 0.  1.
         -2   -1    0    0    0  501 -0.00000000000E+00 -0.00000000000E+00 -0.46859388931E+00  0.46860082757E+00  0.25500000000E-02 0. -1.
         31    1    1    2    0    0  0.26845311237E+00  0.37195919136E+00  0.55380019738E+02  0.55880371625E+02  0.74470750000E+01 0. -1.
        -31    1    1    2    0    0 -0.26845311237E+00 -0.37195919136E+00  0.63499395934E+02  0.63936238791E+02  0.74470750000E+01 0.  1.
<mgrwt>
<rscale>  0 0.14956760E+02</rscale>
<asrwt>0</asrwt>
<pdfrwt beam="1">  1        2 0.99072757E+00 0.14956760E+02</pdfrwt>
<pdfrwt beam="2">  1       -2 0.99523392E+00 0.14956760E+02</pdfrwt>
<totfact>-0.16601133E-13</totfact>
</mgrwt>
</event>
<event>
 4    1 -0.4926183E-019  0.1499150E+02  0.7818608E-02  0.1868328E+00
          2   -1    0    0  501    0  0.00000000000E+00  0.00000000000E+00  0.11937187801E+03  0.11937187804E+03  0.25500000000E-02 0. -1.
         -2   -1    0    0    0  501 -0.00000000000E+00 -0.00000000000E+00 -0.47067900118E+00  0.47068590870E+00  0.25500000000E-02 0.  1.
         31    1    1    2    0    0 -0.11326063155E+00  0.83494083246E+00  0.58396973764E+02  0.58875932476E+02  0.74470750000E+01 0. -1.
        -31    1    1    2    0    0  0.11326063155E+00 -0.83494083246E+00  0.60504225248E+02  0.60966631472E+02  0.74470750000E+01 0. -1.
<mgrwt>
<rscale>  0 0.14991498E+02</rscale>
<asrwt>0</asrwt>
<pdfrwt beam="1">  1        2 0.99094217E+00 0.14991498E+02</pdfrwt>
<pdfrwt beam="2">  1       -2 0.99964576E+00 0.14991498E+02</pdfrwt>
<totfact>-0.19906788E-14</totfact>
</mgrwt>
</event>
<event>
 4    1  0.4926183E-019  0.1493319E+02  0.7818608E-02  0.1870114E+00
          2   -1    0    0  501    0  0.00000000000E+00  0.00000000000E+00  0.12016639971E+03  0.12016639974E+03  0.25500000000E-02 0. -1.
         -2   -1    0    0    0  501 -0.00000000000E+00 -0.00000000000E+00 -0.46393679105E+00  0.46394379896E+00  0.25500000000E-02 0.  1.
         31    1    1    2    0    0 -0.45947514385E+00 -0.10721867222E-01  0.62134318042E+02  0.62580697000E+02  0.74470750000E+01 0. -1.
        -31    1    1    2    0    0  0.45947514385E+00  0.10721867222E-01  0.57568144879E+02  0.58049646538E+02  0.74470750000E+01 0.  1.
<mgrwt>
<rscale>  0 0.14933190E+02</rscale>
<asrwt>0</asrwt>
<pdfrwt beam="1">  1        2 0.99745608E+00 0.14933190E+02</pdfrwt>
<pdfrwt beam="2">  1       -2 0.98540727E+00 0.14933190E+02</pdfrwt>
<totfact> 0.28324296E-13</totfact>
</mgrwt>
</event>
<event>
 4    1 -0.4926183E-019  0.1490348E+02  0.7818608E-02  0.1871028E+00
          2   -1    0    0  501    0  0.00000000000E+00  0.00000000000E+00  0.11844478678E+03  0.11844478681E+03  0.25500000000E-02 0.  1.
         -2   -1    0    0    0  501 -0.00000000000E+00 -0.00000000000E+00 -0.46880954882E+00  0.46881648389E+00  0.25500000000E-02 0. -1.
         31    1    1    2    0    0  0.94504607009E-01  0.40346288884E-01  0.60925665972E+02  0.61379200542E+02  0.74470750000E+01 0.  1.
        -31    1    1    2    0    0 -0.94504607009E-01 -0.40346288884E-01  0.57050311264E+02  0.57534402754E+02  0.74470750000E+01 0. -1.
<mgrwt>
<rscale>  0 0.14903484E+02</rscale>
<asrwt>0</asrwt>
<pdfrwt beam="1">  1        2 0.98326087E+00 0.14903484E+02</pdfrwt>
<pdfrwt beam="2">  1       -2 0.99566045E+00 0.14903484E+02</pdfrwt>
<totfact>-0.44863192E-13</totfact>
</mgrwt>
</event>
<event>
 4    1 -0.4926183E-019  0.1500570E+02  0.7818608E-02  0.1867895E+00
         -2   -1    0    0    0  501 -0.00000000000E+00  0.00000000000E+00  0.11987404418E+03  0.11987404420E+03  0.25500000000E-02 0.  1.
          2   -1    0    0  501    0  0.00000000000E+00 -0.00000000000E+00 -0.46959559154E+00  0.46960251500E+00  0.25500000000E-02 0. -1.
         31    1    1    2    0    0 -0.53759775197E+00 -0.73254890492E+00  0.60427373337E+02  0.60891313122E+02  0.74470750000E+01 0. -1.
        -31    1    1    2    0    0  0.53759775197E+00  0.73254890492E+00  0.58977075249E+02  0.59452333598E+02  0.74470750000E+01 0. -1.
<mgrwt>
<rscale>  0 0.15005698E+02</rscale>
<asrwt>0</asrwt>
<pdfrwt beam="2">  1        2 0.99737019E+00 0.15005698E+02</pdfrwt>
<pdfrwt beam="1">  1       -2 0.99508547E+00 0.15005698E+02</pdfrwt>
<totfact>-0.80184257E-14</totfact>
</mgrwt>
</event>
<event>
 4    1 -0.4926183E-019  0.1492707E+02  0.7818608E-02  0.1870302E+00
         -2   -1    0    0    0  501 -0.00000000000E+00  0.00000000000E+00  0.12012702095E+03  0.12012702098E+03  0.25500000000E-02 0. -1.
          2   -1    0    0  501    0  0.00000000000E+00 -0.00000000000E+00 -0.46370865282E+00  0.46371566417E+00  0.25500000000E-02 0.  1.
         31    1    1    2    0    0  0.45343324601E-01 -0.44833290443E+00  0.61494741517E+02  0.61945663438E+02  0.74470750000E+01 0. -1.
        -31    1    1    2    0    0 -0.45343324601E-01  0.44833290443E+00  0.58168570780E+02  0.58645073204E+02  0.74470750000E+01 0.  1.
<mgrwt>
<rscale>  0 0.14927071E+02</rscale>
<asrwt>0</asrwt>
<pdfrwt beam="2">  1        2 0.98492333E+00 0.14927071E+02</pdfrwt>
<pdfrwt beam="1">  1       -2 0.99712858E+00 0.14927071E+02</pdfrwt>
<totfact>-0.27348985E-13</totfact>
</mgrwt>
</event>
<event>
 4    1  0.4926183E-019  0.1491526E+02  0.7818608E-02  0.1870665E+00
         -2   -1    0    0    0  501 -0.00000000000E+00  0.00000000000E+00  0.11870156010E+03  0.11870156012E+03  0.25500000000E-02 0. -1.
          2   -1    0    0  501    0  0.00000000000E+00 -0.00000000000E+00 -0.46853508879E+00  0.46854202792E+00  0.25500000000E-02 0.  1.
         31    1    1    2    0    0  0.30190763035E+00  0.12263406233E+00  0.57309548368E+02  0.57792295745E+02  0.74470750000E+01 0.  1.
        -31    1    1    2    0    0 -0.30190763035E+00 -0.12263406233E+00  0.60923476640E+02  0.61377806407E+02  0.74470750000E+01 0. -1.
<mgrwt>
<rscale>  0 0.14915262E+02</rscale>
<asrwt>0</asrwt>
<pdfrwt beam="2">  1        2 0.99508833E+00 0.14915262E+02</pdfrwt>
<pdfrwt beam="1">  1       -2 0.98538178E+00 0.14915262E+02</pdfrwt>
<totfact> 0.42979090E-13</totfact>
</mgrwt>
</event>
<event>
 4    1 -0.4926183E-019  0.1489700E+02  0.7818608E-02  0.1871228E+00
         -2   -1    0    0    0  501 -0.00000000000E+00  0.00000000000E+00  0.11955836220E+03  0.11955836222E+03  0.25500000000E-02 0.  1.
          2   -1    0    0  501    0  0.00000000000E+00 -0.00000000000E+00 -0.46403915250E+00  0.46404615886E+00  0.25500000000E-02 0. -1.
         31    1    1    2    0    0  0.56721358775E-01  0.13216279890E+00  0.59354337934E+02  0.59819871631E+02  0.74470750000E+01 0. -1.
        -31    1    1    2    0    0 -0.56721358775E-01 -0.13216279890E+00  0.59739985111E+02  0.60202536753E+02  0.74470750000E+01 0. -1.
<mgrwt>
<rscale>  0 0.14897004E+02</rscale>
<asrwt>0</asrwt>
<pdfrwt beam="2">  1        2 0.98560457E+00 0.14897004E+02</pdfrwt>
<pdfrwt beam="1">  1       -2 0.99242925E+00 0.14897004E+02</pdfrwt>
<totfact>-0.24022338E-13</totfact>
</mgrwt>
</event>
<event>
 4    1  0.4926183E-019  0.1492634E+02  0.7818608E-02  0.1870325E+00
         -2   -1    0    0    0  501 -0.00000000000E+00  0.00000000000E+00  0.11863531602E+03  0.11863531605E+03  0.25500000000E-02 0.  1.
          2   -1    0    0  501    0  0.00000000000E+00 -0.00000000000E+00 -0.46949342415E+00  0.46950034911E+00  0.25500000000E-02 0. -1.
         31    1    1    2    0    0  0.27729506034E+00 -0.30376415453E+00  0.61206471989E+02  0.61659227247E+02  0.74470750000E+01 0.  1.
        -31    1    1    2    0    0 -0.27729506034E+00  0.30376415453E+00  0.56959350610E+02  0.57445589154E+02  0.74470750000E+01 0. -1.
<mgrwt>
<rscale>  0 0.14926341E+02</rscale>
<asrwt>0</asrwt>
<pdfrwt beam="2">  1        2 0.99711343E+00 0.14926341E+02</pdfrwt>
<pdfrwt beam="1">  1       -2 0.98484196E+00 0.14926341E+02</pdfrwt>
<totfact> 0.36439479E-13</totfact>
</mgrwt>
</event>
<event>
 4    1  0.4926183E-019  0.1490042E+02  0.7818608E-02  0.1871123E+00
         -2   -1    0    0    0  501 -0.00000000000E+00  0.00000000000E+00  0.11827316346E+03  0.11827316349E+03  0.25500000000E-02 0. -1.
          2   -1    0    0  501    0  0.00000000000E+00 -0.00000000000E+00 -0.46929678942E+00  0.46930371728E+00  0.25500000000E-02 0.  1.
         31    1    1    2    0    0 -0.10804633634E+00  0.12890851329E+00  0.59983244090E+02  0.60443997130E+02  0.74470750000E+01 0. -1.
        -31    1    1    2    0    0  0.10804633634E+00 -0.12890851329E+00  0.57820622580E+02  0.58298470074E+02  0.74470750000E+01 0.  1.
<mgrwt>
<rscale>  0 0.14900420E+02</rscale>
<asrwt>0</asrwt>
<pdfrwt beam="2">  1        2 0.99668545E+00 0.14900420E+02</pdfrwt>
<pdfrwt beam="1">  1       -2 0.98184580E+00 0.14900420E+02</pdfrwt>
<totfact> 0.79768236E-13</totfact>
</mgrwt>
</event>
<event>
 4    1 -0.4926183E-019  0.1492186E+02  0.7818608E-02  0.1870463E+00
          2   -1    0    0  501    0  0.00000000000E+00  0.00000000000E+00  0.11896753661E+03  0.11896753664E+03  0.25500000000E-02 0. -1.
         -2   -1    0    0    0  501 -0.00000000000E+00 -0.00000000000E+00 -0.46790098310E+00  0.46790793164E+00  0.25500000000E-02 0.  1.
         31    1    1    2    0    0 -0.29789668085E+00 -0.34266183169E+00  0.59098310327E+02  0.59567401900E+02  0.74470750000E+01 0. -1.
        -31    1    1    2    0    0  0.29789668085E+00  0.34266183169E+00  0.59401325299E+02  0.59868042668E+02  0.74470750000E+01 0. -1.
<mgrwt>
<rscale>  0 0.14921856E+02</rscale>
<asrwt>0</asrwt>
<pdfrwt beam="1">  1        2 0.98757582E+00 0.14921856E+02</pdfrwt>
<pdfrwt beam="2">  1       -2 0.99375563E+00 0.14921856E+02</pdfrwt>
<totfact>-0.22656143E-13</totfact>
</mgrwt>
</event>
<event>
 4    1  0.4926183E-019  0.1489947E+02  0.7818608E-02  0.1871152E+00
          2   -1    0    0  501    0  0.00000000000E+00  0.00000000000E+00  0.12009201811E+03  0.12009201813E+03  0.25500000000E-02 0.  1.
         -2   -1    0    0    0  501 -0.00000000000E+00 -0.00000000000E+00 -0.46213025342E+00  0.46213728872E+00  0.25500000000E-02 0. -1.
         31    1    1    2    0    0  0.31604407599E-01 -0.19659080622E+00  0.59792606685E+02  0.60254911725E+02  0.74470750000E+01 0. -1.
        -31    1    1    2    0    0 -0.31604407599E-01  0.19659080622E+00  0.59837281169E+02  0.60299243697E+02  0.74470750000E+01 0. -1.
<mgrwt>
<rscale>  0 0.14899474E+02</rscale>
<asrwt>0</asrwt>
<pdfrwt beam="1">  1        2 0.99682610E+00 0.14899474E+02</pdfrwt>
<pdfrwt beam="2">  1       -2 0.98158259E+00 0.14899474E+02</pdfrwt>
<totfact> 0.81608701E-13</totfact>
</mgrwt>
</event>
<event>
 4    1  0.4926183E-019  0.1490021E+02  0.7818608E-02  0.1871129E+00
          2   -1    0    0  501    0  0.00000000000E+00  0.00000000000E+00  0.11968974516E+03  0.11968974518E+03  0.25500000000E-02 0.  1.
         -2   -1    0    0    0  501 -0.00000000000E+00 -0.00000000000E+00 -0.46372950687E+00  0.46373651791E+00  0.25500000000E-02 0. -1.
         31    1    1    2    0    0  0.12251648056E+00  0.53437431773E-01  0.60945316173E+02  0.61398765096E+02  0.74470750000E+01 0. -1.
        -31    1    1    2    0    0 -0.12251648056E+00 -0.53437431773E-01  0.58280699478E+02  0.58754716606E+02  0.74470750000E+01 0.  1.
<mgrwt>
<rscale>  0 0.14900213E+02</rscale>
<asrwt>0</asrwt>
<pdfrwt beam="1">  1        2 0.99351305E+00 0.14900213E+02</pdfrwt>
<pdfrwt beam="2">  1       -2 0.98495362E+00 0.14900213E+02</pdfrwt>
<totfact> 0.55858563E-13</totfact>
</mgrwt>
</event>
<event>
 4    1  0.4926183E-019  0.1493018E+02  0.7818608E-02  0.1870206E+00
          2   -1    0    0  501    0  0.00000000000E+00  0.00000000000E+00  0.11987287301E+03  0.11987287304E+03  0.25500000000E-02 0.  1.
         -2   -1    0    0    0  501 -0.00000000000E+00 -0.00000000000E+00 -0.46488563733E+00  0.46489263093E+00  0.25500000000E-02 0. -1.
         31    1    1    2    0    0  0.50386209329E+00 -0.12127484764E+00  0.59779922301E+02  0.60244224793E+02  0.74470750000E+01 0.  1.
        -31    1    1    2    0    0 -0.50386209329E+00  0.12127484764E+00  0.59628065072E+02  0.60093540875E+02  0.74470750000E+01 0.  1.
<mgrwt>
<rscale>  0 0.14930184E+02</rscale>
<asrwt>0</asrwt>
<pdfrwt beam="1">  1        2 0.99503684E+00 0.14930184E+02</pdfrwt>
<pdfrwt beam="2">  1       -2 0.98740552E+00 0.14930184E+02</pdfrwt>
<totfact> 0.20473394E-13</totfact>
</mgrwt>
</event>
<event>
 4    1 -0.4926183E-019  0.1494801E+02  0.7818608E-02  0.1869659E+00
          2   -1    0    0  501    0  0.00000000000E+00  0.00000000000E+00  0.11931591466E+03  0.11931591469E+03  0.25500000000E-02 0. -1.
         -2   -1    0    0    0  501 -0.00000000000E+00 -0.00000000000E+00 -0.46817196489E+00  0.46817890940E+00  0.25500000000E-02 0.  1.
         31    1    1    2    0    0 -0.52370423077E+00  0.32742656532E+00  0.60567945742E+02  0.61027177977E+02  0.74470750000E+01 0.  1.
        -31    1    1    2    0    0  0.52370423077E+00 -0.32742656532E+00  0.58279796953E+02  0.58756915620E+02  0.74470750000E+01 0.  1.
<mgrwt>
<rscale>  0 0.14948014E+02</rscale>
<asrwt>0</asrwt>
<pdfrwt beam="1">  1        2 0.99045869E+00 0.14948014E+02</pdfrwt>
<pdfrwt beam="2">  1       -2 0.99434028E+00 0.14948014E+02</pdfrwt>
<totfact>-0.17042483E-13</totfact>
</mgrwt>
</event>
<event>
 4    1 -0.4926183E-019  0.1492776E+02  0.7818608E-02  0.1870281E+00
          2   -1    0    0  501    0  0.00000000000E+00  0.00000000000E+00  0.11879412582E+03  0.11879412584E+03  0.25500000000E-02 0.  1.
         -2   -1    0    0    0  501 -0.00000000000E+00 -0.00000000000E+00 -0.46895498802E+00  0.46896192093E+00  0.25500000000E-02 0. -1.
         31    1    1    2    0    0  0.21593847208E-01 -0.48740394172E+00  0.58267281003E+02  0.58743280385E+02  0.74470750000E+01 0.  1.
        -31    1    1    2    0    0 -0.21593847208E-01  0.48740394172E+00  0.60057889825E+02  0.60519807379E+02  0.74470750000E+01 0.  1.
<mgrwt>
<rscale>  0 0.14927761E+02</rscale>
<asrwt>0</asrwt>
<pdfrwt beam="1">  1        2 0.98615065E+00 0.14927761E+02</pdfrwt>
<pdfrwt beam="2">  1       -2 0.99597966E+00 0.14927761E+02</pdfrwt>
<totfact>-0.27235591E-13</totfact>
</mgrwt>
</event>
<event>
 4    1 -0.4926183E-019  0.1501333E+02  0.7818608E-02  0.1867662E+00
         -2   -1    0    0    0  501 -0.00000000000E+00  0.00000000000E+00  0.12025470559E+03  0.12025470562E+03  0.25500000000E-02 0.  1.
          2   -1    0    0  501    0  0.00000000000E+00 -0.00000000000E+00 -0.46858541149E+00  0.46859234988E+00  0.25500000000E-02 0. -1.
         31    1    1    2    0    0 -0.27653375233E+00 -0.82888874746E+00  0.57021061110E+02  0.57511945399E+02  0.74470750000E+01 0. -1.
        -31    1    1    2    0    0  0.27653375233E+00  0.82888874746E+00  0.62765059071E+02  0.63211352570E+02  0.74470750000E+01 0.  1.
<mgrwt>
<rscale>  0 0.15013330E+02</rscale>
<asrwt>0</asrwt>
<pdfrwt beam="2">  1        2 0.99524533E+00 0.15013330E+02</pdfrwt>
<pdfrwt beam="1">  1       -2 0.99822469E+00 0.15013330E+02</pdfrwt>
<totfact>-0.62660397E-14</totfact>
</mgrwt>
</event>
<event>
 4    1  0.4926183E-019  0.1492212E+02  0.7818608E-02  0.1870454E+00
          2   -1    0    0  501    0  0.00000000000E+00  0.00000000000E+00  0.11985789334E+03  0.11985789336E+03  0.25500000000E-02 0. -1.
         -2   -1    0    0    0  501 -0.00000000000E+00 -0.00000000000E+00 -0.46444166799E+00  0.46444866827E+00  0.25500000000E-02 0.  1.
         31    1    1    2    0    0  0.24138459241E-01  0.23393682869E+00  0.56540795448E+02  0.57029604461E+02  0.74470750000E+01 0.  1.
        -31    1    1    2    0    0 -0.24138459241E-01 -0.23393682869E+00  0.62852656220E+02  0.63292737570E+02  0.74470750000E+01 0. -1.
<mgrwt>
<rscale>  0 0.14922121E+02</rscale>
<asrwt>0</asrwt>
<pdfrwt beam="1">  1        2 0.99490931E+00 0.14922121E+02</pdfrwt>
<pdfrwt beam="2">  1       -2 0.98646571E+00 0.14922121E+02</pdfrwt>
<totfact> 0.30570957E-13</totfact>
</mgrwt>
</event>
<event>
 4    1 -0.4926183E-019  0.1494451E+02  0.7818608E-02  0.1869767E+00
         -2   -1    0    0    0  501 -0.00000000000E+00  0.00000000000E+00  0.11988072780E+03  0.11988072783E+03  0.25500000000E-02 0. -1.
          2   -1    0    0  501    0  0.00000000000E+00 -0.00000000000E+00 -0.46574745220E+00  0.46575443286E+00  0.25500000000E-02 0.  1.
         31    1    1    2    0    0 -0.10479994134E-01 -0.91553812514E-01  0.54828027877E+02  0.55331546687E+02  0.74470750000E+01 0.  1.
        -31    1    1    2    0    0  0.10479994134E-01  0.91553812514E-01  0.64586952472E+02  0.65014935573E+02  0.74470750000E+01 0. -1.
<mgrwt>
<rscale>  0 0.14944506E+02</rscale>
<asrwt>0</asrwt>
<pdfrwt beam="2">  1        2 0.98922913E+00 0.14944506E+02</pdfrwt>
<pdfrwt beam="1">  1       -2 0.99510892E+00 0.14944506E+02</pdfrwt>
<totfact>-0.19254716E-13</totfact>
</mgrwt>
</event>
<event>
 4    1 -0.4926183E-019  0.1490706E+02  0.7818608E-02  0.1870918E+00
         -2   -1    0    0    0  501 -0.00000000000E+00  0.00000000000E+00  0.11979928928E+03  0.11979928930E+03  0.25500000000E-02 0. -1.
          2   -1    0    0  501    0  0.00000000000E+00 -0.00000000000E+00 -0.46373107397E+00  0.46373808499E+00  0.25500000000E-02 0.  1.
         31    1    1    2    0    0 -0.15168566851E+00  0.92238694891E-01  0.57616759403E+02  0.58096311473E+02  0.74470750000E+01 0.  1.
        -31    1    1    2    0    0  0.15168566851E+00 -0.92238694891E-01  0.61718798799E+02  0.62166715916E+02  0.74470750000E+01 0. -1.
<mgrwt>
<rscale>  0 0.14907056E+02</rscale>
<asrwt>0</asrwt>
<pdfrwt beam="2">  1        2 0.98496041E+00 0.14907056E+02</pdfrwt>
<pdfrwt beam="1">  1       -2 0.99441885E+00 0.14907056E+02</pdfrwt>
<totfact>-0.34873957E-13</totfact>
</mgrwt>
</event>
<event>
 4    1 -0.4926183E-019  0.1490562E+02  0.7818608E-02  0.1870962E+00
          2   -1    0    0  501    0  0.00000000000E+00  0.00000000000E+00  0.11851351277E+03  0.11851351280E+03  0.25500000000E-02 0.  1.
         -2   -1    0    0    0  501 -0.00000000000E+00 -0.00000000000E+00 -0.46867198379E+00  0.46867892089E+00  0.25500000000E-02 0. -1.
         31    1    1    2    0    0  0.11770838242E+00 -0.18496872356E+00  0.57479060024E+02  0.57959894202E+02  0.74470750000E+01 0. -1.
        -31    1    1    2    0    0 -0.11770838242E+00  0.18496872356E+00  0.60565780764E+02  0.61022297517E+02  0.74470750000E+01 0.  1.
<mgrwt>
<rscale>  0 0.14905620E+02</rscale>
<asrwt>0</asrwt>
<pdfrwt beam="1">  1        2 0.98382801E+00 0.14905620E+02</pdfrwt>
<pdfrwt beam="2">  1       -2 0.99537172E+00 0.14905620E+02</pdfrwt>
<totfact>-0.41550090E-13</totfact>
</mgrwt>
</event>
<event>
 4    1  0.4926183E-019  0.1490100E+02  0.7818608E-02  0.1871105E+00
          2   -1    0    0  501    0  0.00000000000E+00  0.00000000000E+00  0.12017717256E+03  0.12017717258E+03  0.25500000000E-02 0.  1.
         -2   -1    0    0    0  501 -0.00000000000E+00 -0.00000000000E+00 -0.46189747843E+00  0.46190451728E+00  0.25500000000E-02 0. -1.
         31    1    1    2    0    0  0.16185482316E+00 -0.15151701874E+00  0.59506719888E+02  0.59971308075E+02  0.74470750000E+01 0. -1.
        -31    1    1    2    0    0 -0.16185482316E+00  0.15151701874E+00  0.60208555190E+02  0.60667769026E+02  0.74470750000E+01 0.  1.
<mgrwt>
<rscale>  0 0.14901001E+02</rscale>
<asrwt>0</asrwt>
<pdfrwt beam="1">  1        2 0.99752830E+00 0.14901001E+02</pdfrwt>
<pdfrwt beam="2">  1       -2 0.98109273E+00 0.14901001E+02</pdfrwt>
<totfact> 0.75212564E-13</totfact>
</mgrwt>
</event>
<event>
 4    1 -0.4926183E-019  0.1490338E+02  0.7818608E-02  0.1871031E+00
          2   -1    0    0  501    0  0.00000000000E+00  0.00000000000E+00  0.11823584031E+03  0.11823584034E+03  0.25500000000E-02 0.  1.
         -2   -1    0    0    0  501 -0.00000000000E+00 -0.00000000000E+00 -0.46963174981E+00  0.46963867273E+00  0.25500000000E-02 0. -1.
         31    1    1    2    0    0  0.75275335075E-01  0.19381904110E+00  0.60156479838E+02  0.60616039336E+02  0.74470750000E+01 0. -1.
        -31    1    1    2    0    0 -0.75275335075E-01 -0.19381904110E+00  0.57609728723E+02  0.58089439676E+02  0.74470750000E+01 0. -1.
<mgrwt>
<rscale>  0 0.14903384E+02</rscale>
<asrwt>0</asrwt>
<pdfrwt beam="1">  1        2 0.98153995E+00 0.14903384E+02</pdfrwt>
<pdfrwt beam="2">  1       -2 0.99739276E+00 0.14903384E+02</pdfrwt>
<totfact>-0.45088322E-13</totfact>
</mgrwt>
</event>
<event>
 4    1 -0.4926183E-019  0.1497407E+02  0.7818608E-02  0.1868861E+00
          2   -1    0    0  501    0  0.00000000000E+00  0.00000000000E+00  0.11924426093E+03  0.11924426096E+03  0.25500000000E-02 0. -1.
         -2   -1    0    0    0  501 -0.00000000000E+00 -0.00000000000E+00 -0.47008771536E+00  0.47009463158E+00  0.25500000000E-02 0.  1.
         31    1    1    2    0    0 -0.45039726540E+00  0.62680912137E+00  0.59640456962E+02  0.60108558293E+02  0.74470750000E+01 0. -1.
        -31    1    1    2    0    0  0.45039726540E+00 -0.62680912137E+00  0.59133716254E+02  0.59605797297E+02  0.74470750000E+01 0. -1.
<mgrwt>
<rscale>  0 0.14974068E+02</rscale>
<asrwt>0</asrwt>
<pdfrwt beam="1">  1        2 0.98988205E+00 0.14974068E+02</pdfrwt>
<pdfrwt beam="2">  1       -2 0.99839072E+00 0.14974068E+02</pdfrwt>
<totfact>-0.89639982E-14</totfact>
</mgrwt>
</event>
<event>
 4    1 -0.4926183E-019  0.1498034E+02  0.7818608E-02  0.1868669E+00
         -2   -1    0    0    0  501 -0.00000000000E+00  0.00000000000E+00  0.11974570677E+03  0.11974570680E+03  0.25500000000E-02 0.  1.
          2   -1    0    0  501    0  0.00000000000E+00 -0.00000000000E+00 -0.46851147331E+00  0.46851841279E+00  0.25500000000E-02 0. -1.
         31    1    1    2    0    0 -0.21244163422E+00  0.15352537204E+00  0.65723854522E+02  0.66144936924E+02  0.74470750000E+01 0.  1.
        -31    1    1    2    0    0  0.21244163422E+00 -0.15352537204E+00  0.53553340775E+02  0.54069288286E+02  0.74470750000E+01 0. -1.
<mgrwt>
<rscale>  0 0.14980341E+02</rscale>
<asrwt>0</asrwt>
<pdfrwt beam="2">  1        2 0.99507249E+00 0.14980341E+02</pdfrwt>
<pdfrwt beam="1">  1       -2 0.99401532E+00 0.14980341E+02</pdfrwt>
<totfact>-0.11595397E-13</totfact>
</mgrwt>
</event>
<event>
 4    1  0.4926183E-019  0.1490513E+02  0.7818608E-02  0.1870977E+00
          2   -1    0    0  501    0  0.00000000000E+00  0.00000000000E+00  0.12032179359E+03  0.12032179362E+03  0.25500000000E-02 0. -1.
         -2   -1    0    0    0  501 -0.00000000000E+00 -0.00000000000E+00 -0.46159782867E+00  0.46160487208E+00  0.25500000000E-02 0.  1.
         31    1    1    2    0    0 -0.13619600430E+00  0.96284611652E-01  0.58047725173E+02  0.58523714372E+02  0.74470750000E+01 0.  1.
        -31    1    1    2    0    0  0.13619600430E+00 -0.96284611652E-01  0.61812470592E+02  0.62259684121E+02  0.74470750000E+01 0.  1.
<mgrwt>
<rscale>  0 0.14905127E+02</rscale>
<asrwt>0</asrwt>
<pdfrwt beam="1">  1        2 0.99872165E+00 0.14905127E+02</pdfrwt>
<pdfrwt beam="2">  1       -2 0.98046322E+00 0.14905127E+02</pdfrwt>
<totfact> 0.49683425E-13</totfact>
</mgrwt>
</event>
<event>
 4    1 -0.4926183E-019  0.1498727E+02  0.7818608E-02  0.1868457E+00
         -2   -1    0    0    0  501 -0.00000000000E+00  0.00000000000E+00  0.11990847183E+03  0.11990847186E+03  0.25500000000E-02 0.  1.
          2   -1    0    0  501    0  0.00000000000E+00 -0.00000000000E+00 -0.46830862046E+00  0.46831556294E+00  0.25500000000E-02 0. -1.
         31    1    1    2    0    0  0.82968395549E+00  0.82630654199E-01  0.59892565673E+02  0.60359535720E+02  0.74470750000E+01 0. -1.
        -31    1    1    2    0    0 -0.82968395549E+00 -0.82630654199E-01  0.59547597537E+02  0.60017251701E+02  0.74470750000E+01 0. -1.
<mgrwt>
<rscale>  0 0.14987273E+02</rscale>
<asrwt>0</asrwt>
<pdfrwt beam="2">  1        2 0.99464859E+00 0.14987273E+02</pdfrwt>
<pdfrwt beam="1">  1       -2 0.99535950E+00 0.14987273E+02</pdfrwt>
<totfact>-0.12186748E-13</totfact>
</mgrwt>
</event>
<event>
 4    1 -0.4926183E-019  0.1493277E+02  0.7818608E-02  0.1870127E+00
         -2   -1    0    0    0  501 -0.00000000000E+00  0.00000000000E+00  0.11963019646E+03  0.11963019648E+03  0.25500000000E-02 0.  1.
          2   -1    0    0  501    0  0.00000000000E+00 -0.00000000000E+00 -0.46599012628E+00  0.46599710331E+00  0.25500000000E-02 0. -1.
         31    1    1    2    0    0 -0.46632891674E+00  0.51893350147E-01  0.57487520340E+02  0.57969768643E+02  0.74470750000E+01 0. -1.
        -31    1    1    2    0    0  0.46632891674E+00 -0.51893350147E-01  0.61676685988E+02  0.62126424943E+02  0.74470750000E+01 0. -1.
<mgrwt>
<rscale>  0 0.14932771E+02</rscale>
<asrwt>0</asrwt>
<pdfrwt beam="2">  1        2 0.98973453E+00 0.14932771E+02</pdfrwt>
<pdfrwt beam="1">  1       -2 0.99303936E+00 0.14932771E+02</pdfrwt>
<totfact>-0.16015677E-13</totfact>
</mgrwt>
</event>
<event>
 4    1 -0.4926183E-019  0.1489736E+02  0.7818608E-02  0.1871217E+00
          2   -1    0    0  501    0  0.00000000000E+00  0.00000000000E+00  0.11855178857E+03  0.11855178860E+03  0.25500000000E-02 0. -1.
         -2   -1    0    0    0  501 -0.00000000000E+00 -0.00000000000E+00 -0.46800158757E+00  0.46800853461E+00  0.25500000000E-02 0.  1.
         31    1    1    2    0    0 -0.10576111429E+00  0.24164832061E-01  0.59922347923E+02  0.60383428820E+02  0.74470750000E+01 0. -1.
        -31    1    1    2    0    0  0.10576111429E+00 -0.24164832061E-01  0.58161439062E+02  0.58636368315E+02  0.74470750000E+01 0.  1.
<mgrwt>
<rscale>  0 0.14897361E+02</rscale>
<asrwt>0</asrwt>
<pdfrwt beam="1">  1        2 0.98413896E+00 0.14897361E+02</pdfrwt>
<pdfrwt beam="2">  1       -2 0.99395480E+00 0.14897361E+02</pdfrwt>
<totfact>-0.39025439E-13</totfact>
</mgrwt>
</event>
<event>
 4    1 -0.4926183E-019  0.1495824E+02  0.7818608E-02  0.1869346E+00
          2   -1    0    0  501    0  0.00000000000E+00  0.00000000000E+00  0.11979716324E+03  0.11979716327E+03  0.25500000000E-02 0.  1.
         -2   -1    0    0    0  501 -0.00000000000E+00 -0.00000000000E+00 -0.46692937445E+00  0.46693633744E+00  0.25500000000E-02 0. -1.
         31    1    1    2    0    0  0.44378110977E+00 -0.53033199090E+00  0.59578869699E+02  0.60046472289E+02  0.74470750000E+01 0.  1.
        -31    1    1    2    0    0 -0.44378110977E+00  0.53033199090E+00  0.59751364169E+02  0.60217627318E+02  0.74470750000E+01 0.  1.
<mgrwt>
<rscale>  0 0.14958240E+02</rscale>
<asrwt>0</asrwt>
<pdfrwt beam="1">  1        2 0.99442772E+00 0.14958240E+02</pdfrwt>
<pdfrwt beam="2">  1       -2 0.99172702E+00 0.14958240E+02</pdfrwt>
<totfact>-0.73850320E-14</totfact>
</mgrwt>
</event>
<event>
 4    1  0.4926183E-019  0.1490013E+02  0.7818608E-02  0.1871131E+00
         -2   -1    0    0    0  501 -0.00000000000E+00  0.00000000000E+00  0.11810955965E+03  0.11810955968E+03  0.25500000000E-02 0. -1.
          2   -1    0    0  501    0  0.00000000000E+00 -0.00000000000E+00 -0.46992848935E+00  0.46993540790E+00  0.25500000000E-02 0.  1.
         31    1    1    2    0    0 -0.19321634945E+00  0.82030328811E-01  0.58647066078E+02  0.59118367257E+02  0.74470750000E+01 0. -1.
        -31    1    1    2    0    0  0.19321634945E+00 -0.82030328811E-01  0.58992565086E+02  0.59461127831E+02  0.74470750000E+01 0. -1.
<mgrwt>
<rscale>  0 0.14900129E+02</rscale>
<asrwt>0</asrwt>
<pdfrwt beam="2">  1        2 0.99801624E+00 0.14900129E+02</pdfrwt>
<pdfrwt beam="1">  1       -2 0.98049823E+00 0.14900129E+02</pdfrwt>
<totfact> 0.70866496E-13</totfact>
</mgrwt>
</event>
<event>
 4    1 -0.4926183E-019  0.1491062E+02  0.7818608E-02  0.1870808E+00
          2   -1    0    0  501    0  0.00000000000E+00  0.00000000000E+00  0.11838885139E+03  0.11838885142E+03  0.25500000000E-02 0.  1.
         -2   -1    0    0    0  501 -0.00000000000E+00 -0.00000000000E+00 -0.46948009320E+00  0.46948701837E+00  0.25500000000E-02 0. -1.
         31    1    1    2    0    0  0.18388770118E+00  0.27247415605E+00  0.57995204572E+02  0.58472307430E+02  0.74470750000E+01 0. -1.
        -31    1    1    2    0    0 -0.18388770118E+00 -0.27247415605E+00  0.59924166728E+02  0.60386031008E+02  0.74470750000E+01 0.  1.
<mgrwt>
<rscale>  0 0.14910617E+02</rscale>
<asrwt>0</asrwt>
<pdfrwt beam="1">  1        2 0.98280390E+00 0.14910617E+02</pdfrwt>
<pdfrwt beam="2">  1       -2 0.99707705E+00 0.14910617E+02</pdfrwt>
<totfact>-0.39413569E-13</totfact>
</mgrwt>
</event>
<event>
 4    1  0.4926183E-019  0.1492148E+02  0.7818608E-02  0.1870474E+00
          2   -1    0    0  501    0  0.00000000000E+00  0.00000000000E+00  0.12009364417E+03  0.12009364420E+03  0.25500000000E-02 0. -1.
         -2   -1    0    0    0  501 -0.00000000000E+00 -0.00000000000E+00 -0.46348992605E+00  0.46349694071E+00  0.25500000000E-02 0.  1.
         31    1    1    2    0    0  0.33118369887E+00  0.24666979244E+00  0.58343731102E+02  0.58818538010E+02  0.74470750000E+01 0.  1.
        -31    1    1    2    0    0 -0.33118369887E+00 -0.24666979244E+00  0.61286423141E+02  0.61738603127E+02  0.74470750000E+01 0.  1.
<mgrwt>
<rscale>  0 0.14921477E+02</rscale>
<asrwt>0</asrwt>
<pdfrwt beam="1">  1        2 0.99685079E+00 0.14921477E+02</pdfrwt>
<pdfrwt beam="2">  1       -2 0.98445949E+00 0.14921477E+02</pdfrwt>
<totfact> 0.42822243E-13</totfact>
</mgrwt>
</event>
<event>
 4    1  0.4926183E-019  0.1491088E+02  0.7818608E-02  0.1870800E+00
         -2   -1    0    0    0  501 -0.00000000000E+00  0.00000000000E+00  0.11842771538E+03  0.11842771540E+03  0.25500000000E-02 0.  1.
          2   -1    0    0  501    0  0.00000000000E+00 -0.00000000000E+00 -0.46934270493E+00  0.46934963212E+00  0.25500000000E-02 0. -1.
         31    1    1    2    0    0 -0.21498749498E+00  0.26238382196E+00  0.59760735781E+02  0.60223911630E+02  0.74470750000E+01 0.  1.
        -31    1    1    2    0    0  0.21498749498E+00 -0.26238382196E+00  0.58197636890E+02  0.58673153405E+02  0.74470750000E+01 0. -1.
<mgrwt>
<rscale>  0 0.14910882E+02</rscale>
<asrwt>0</asrwt>
<pdfrwt beam="2">  1        2 0.99678771E+00 0.14910882E+02</pdfrwt>
<pdfrwt beam="1">  1       -2 0.98312412E+00 0.14910882E+02</pdfrwt>
<totfact> 0.59853868E-13</totfact>
</mgrwt>
</event>
<event>
 4    1 -0.4926183E-019  0.1489575E+02  0.7818608E-02  0.1871267E+00
         -2   -1    0    0    0  501 -0.00000000000E+00  0.00000000000E+00  0.11980094681E+03  0.11980094684E+03  0.25500000000E-02 0.  1.
          2   -1    0    0  501    0  0.00000000000E+00 -0.00000000000E+00 -0.46302126494E+00  0.46302828670E+00  0.25500000000E-02 0. -1.
         31    1    1    2    0    0  0.42787989568E-01 -0.91875540063E-01  0.59344823916E+02  0.59810344620E+02  0.74470750000E+01 0.  1.
        -31    1    1    2    0    0 -0.42787989568E-01  0.91875540063E-01  0.59993101633E+02  0.60453630508E+02  0.74470750000E+01 0.  1.
<mgrwt>
<rscale>  0 0.14895746E+02</rscale>
<asrwt>0</asrwt>
<pdfrwt beam="2">  1        2 0.98345866E+00 0.14895746E+02</pdfrwt>
<pdfrwt beam="1">  1       -2 0.99442669E+00 0.14895746E+02</pdfrwt>
<totfact>-0.44748004E-13</totfact>
</mgrwt>
</event>
<event>
 4    1  0.4926183E-019  0.1492818E+02  0.7818608E-02  0.1870268E+00
          2   -1    0    0  501    0  0.00000000000E+00  0.00000000000E+00  0.11977554503E+03  0.11977554506E+03  0.25500000000E-02 0. -1.
         -2   -1    0    0    0  501 -0.00000000000E+00 -0.00000000000E+00 -0.46513881027E+00  0.46514580007E+00  0.25500000000E-02 0.  1.
         31    1    1    2    0    0  0.10485967007E+00 -0.47969750422E+00  0.60560946478E+02  0.61019081192E+02  0.74470750000E+01 0. -1.
        -31    1    1    2    0    0 -0.10485967007E+00  0.47969750422E+00  0.58749459744E+02  0.59221609667E+02  0.74470750000E+01 0.  1.
<mgrwt>
<rscale>  0 0.14928185E+02</rscale>
<asrwt>0</asrwt>
<pdfrwt beam="1">  1        2 0.99423416E+00 0.14928185E+02</pdfrwt>
<pdfrwt beam="2">  1       -2 0.98793806E+00 0.14928185E+02</pdfrwt>
<totfact> 0.16827060E-13</totfact>
</mgrwt>
</event>
<event>
 4    1  0.4926183E-019  0.1491031E+02  0.7818608E-02  0.1870818E+00
          2   -1    0    0  501    0  0.00000000000E+00  0.00000000000E+00  0.11980819083E+03  0.11980819086E+03  0.25500000000E-02 0. -1.
         -2   -1    0    0    0  501 -0.00000000000E+00 -0.00000000000E+00 -0.46389886958E+00  0.46390587806E+00  0.25500000000E-02 0.  1.
         31    1    1    2    0    0 -0.20859076089E+00 -0.51689220751E-01  0.57474900060E+02  0.57955752474E+02  0.74470750000E+01 0.  1.
        -31    1    1    2    0    0  0.20859076089E+00  0.51689220751E-01  0.61869391902E+02  0.62316344263E+02  0.74470750000E+01 0.  1.
<mgrwt>
<rscale>  0 0.14910306E+02</rscale>
<asrwt>0</asrwt>
<pdfrwt beam="1">  1        2 0.99449385E+00 0.14910306E+02</pdfrwt>
<pdfrwt beam="2">  1       -2 0.98531571E+00 0.14910306E+02</pdfrwt>
<totfact> 0.46449428E-13</totfact>
</mgrwt>
</event>
<event>
 4    1 -0.4926183E-019  0.1498480E+02  0.7818608E-02  0.1868533E+00
          2   -1    0    0  501    0  0.00000000000E+00  0.00000000000E+00  0.11945997537E+03  0.11945997540E+03  0.25500000000E-02 0. -1.
         -2   -1    0    0    0  501 -0.00000000000E+00 -0.00000000000E+00 -0.46991165463E+00  0.46991857343E+00  0.25500000000E-02 0.  1.
         31    1    1    2    0    0  0.23983891990E+00 -0.38418482999E+00  0.53996464175E+02  0.54509468812E+02  0.74470750000E+01 0.  1.
        -31    1    1    2    0    0 -0.23983891990E+00  0.38418482999E+00  0.64993599543E+02  0.65420425162E+02  0.74470750000E+01 0. -1.
<mgrwt>
<rscale>  0 0.14984799E+02</rscale>
<asrwt>0</asrwt>
<pdfrwt beam="1">  1        2 0.99166427E+00 0.14984799E+02</pdfrwt>
<pdfrwt beam="2">  1       -2 0.99802534E+00 0.14984799E+02</pdfrwt>
<totfact>-0.91310572E-14</totfact>
</mgrwt>
</event>
<event>
 4    1  0.4926183E-019  0.1491290E+02  0.7818608E-02  0.1870738E+00
          2   -1    0    0  501    0  0.00000000000E+00  0.00000000000E+00  0.11993839908E+03  0.11993839911E+03  0.25500000000E-02 0. -1.
         -2   -1    0    0    0  501 -0.00000000000E+00 -0.00000000000E+00 -0.46355644578E+00  0.46356345944E+00  0.25500000000E-02 0.  1.
         31    1    1    2    0    0  0.20494099090E-01  0.14906238110E+00  0.56974899115E+02  0.57459731072E+02  0.74470750000E+01 0.  1.
        -31    1    1    2    0    0 -0.20494099090E-01 -0.14906238110E+00  0.62499943520E+02  0.62942231496E+02  0.74470750000E+01 0. -1.
<mgrwt>
<rscale>  0 0.14912899E+02</rscale>
<asrwt>0</asrwt>
<pdfrwt beam="1">  1        2 0.99556767E+00 0.14912899E+02</pdfrwt>
<pdfrwt beam="2">  1       -2 0.98459534E+00 0.14912899E+02</pdfrwt>
<totfact> 0.50807750E-13</totfact>
</mgrwt>
</event>
<event>
 4    1 -0.4926183E-019  0.1498590E+02  0.7818608E-02  0.1868499E+00
          2   -1    0    0  501    0  0.00000000000E+00  0.00000000000E+00  0.11979099893E+03  0.11979099896E+03  0.25500000000E-02 0. -1.
         -2   -1    0    0    0  501 -0.00000000000E+00 -0.00000000000E+00 -0.46868197161E+00  0.46868890856E+00  0.25500000000E-02 0.  1.
         31    1    1    2    0    0  0.36553421396E-01  0.67099920765E+00  0.55780925622E+02  0.56279855769E+02  0.74470750000E+01 0.  1.
        -31    1    1    2    0    0 -0.36553421396E-01 -0.67099920765E+00  0.63541391338E+02  0.63979832098E+02  0.74470750000E+01 0. -1.
<mgrwt>
<rscale>  0 0.14985900E+02</rscale>
<asrwt>0</asrwt>
<pdfrwt beam="1">  1        2 0.99439124E+00 0.14985900E+02</pdfrwt>
<pdfrwt beam="2">  1       -2 0.99543466E+00 0.14985900E+02</pdfrwt>
<totfact>-0.12423269E-13</totfact>
</mgrwt>
</event>
<event>
 4    1 -0.4926183E-019  0.1499360E+02  0.7818608E-02  0.1868264E+00
         -2   -1    0    0    0  501 -0.00000000000E+00  0.00000000000E+00  0.11997878422E+03  0.11997878425E+03  0.25500000000E-02 0.  1.
          2   -1    0    0  501    0  0.00000000000E+00 -0.00000000000E+00 -0.46842964849E+00  0.46843658918E+00  0.25500000000E-02 0. -1.
         31    1    1    2    0    0 -0.55835537747E+00 -0.64268304211E-01  0.65005882422E+02  0.65433474359E+02  0.74470750000E+01 0.  1.
        -31    1    1    2    0    0  0.55835537747E+00  0.64268304211E-01  0.54504472154E+02  0.55013746482E+02  0.74470750000E+01 0.  1.
<mgrwt>
<rscale>  0 0.14993604E+02</rscale>
<asrwt>0</asrwt>
<pdfrwt beam="2">  1        2 0.99490691E+00 0.14993604E+02</pdfrwt>
<pdfrwt beam="1">  1       -2 0.99594189E+00 0.14993604E+02</pdfrwt>
<totfact>-0.11370853E-13</totfact>
</mgrwt>
</event>
<event>
 4    1  0.4926183E-019  0.1490272E+02  0.7818608E-02  0.1871052E+00
          2   -1    0    0  501    0  0.00000000000E+00  0.00000000000E+00  0.11952064871E+03  0.11952064873E+03  0.25500000000E-02 0. -1.
         -2   -1    0    0    0  501 -0.00000000000E+00 -0.00000000000E+00 -0.46454210178E+00  0.46454910055E+00  0.25500000000E-02 0.  1.
         31    1    1    2    0    0 -0.24671917931E-01 -0.20263287255E+00  0.60727659577E+02  0.61182916182E+02  0.74470750000E+01 0.  1.
        -31    1    1    2    0    0  0.24671917931E-01  0.20263287255E+00  0.58328447028E+02  0.58802281653E+02  0.74470750000E+01 0.  1.
<mgrwt>
<rscale>  0 0.14902724E+02</rscale>
<asrwt>0</asrwt>
<pdfrwt beam="1">  1        2 0.99212157E+00 0.14902724E+02</pdfrwt>
<pdfrwt beam="2">  1       -2 0.98666746E+00 0.14902724E+02</pdfrwt>
<totfact> 0.35313056E-13</totfact>
</mgrwt>
</event>
<event>
 4    1  0.4926183E-019  0.1491334E+02  0.7818608E-02  0.1870725E+00
         -2   -1    0    0    0  501 -0.00000000000E+00  0.00000000000E+00  0.11817015904E+03  0.11817015907E+03  0.25500000000E-02 0.  1.
          2   -1    0    0  501    0  0.00000000000E+00 -0.00000000000E+00 -0.47052069371E+00  0.47052760356E+00  0.25500000000E-02 0. -1.
         31    1    1    2    0    0  0.22257091462E+00 -0.66563763329E-01  0.56476217857E+02  0.56965569232E+02  0.74470750000E+01 0. -1.
        -31    1    1    2    0    0 -0.22257091462E+00  0.66563763329E-01  0.61223420494E+02  0.61675117442E+02  0.74470750000E+01 0.  1.
<mgrwt>
<rscale>  0 0.14913339E+02</rscale>
<asrwt>0</asrwt>
<pdfrwt beam="2">  1        2 0.99927097E+00 0.14913339E+02</pdfrwt>
<pdfrwt beam="1">  1       -2 0.98100421E+00 0.14913339E+02</pdfrwt>
<totfact> 0.27342246E-13</totfact>
</mgrwt>
</event>
<event>
 4    1  0.4926183E-019  0.1491293E+02  0.7818608E-02  0.1870737E+00
         -2   -1    0    0    0  501 -0.00000000000E+00  0.00000000000E+00  0.11844930224E+03  0.11844930227E+03  0.25500000000E-02 0. -1.
          2   -1    0    0  501    0  0.00000000000E+00 -0.00000000000E+00 -0.46938584208E+00  0.46939276864E+00  0.25500000000E-02 0.  1.
         31    1    1    2    0    0  0.21403675735E+00 -0.29484504175E+00  0.59665066160E+02  0.60129125982E+02  0.74470750000E+01 0. -1.
        -31    1    1    2    0    0 -0.21403675735E+00  0.29484504175E+00  0.58314850239E+02  0.58789569056E+02  0.74470750000E+01 0.  1.
<mgrwt>
<rscale>  0 0.14912926E+02</rscale>
<asrwt>0</asrwt>
<pdfrwt beam="2">  1        2 0.99687968E+00 0.14912926E+02</pdfrwt>
<pdfrwt beam="1">  1       -2 0.98330297E+00 0.14912926E+02</pdfrwt>
<totfact> 0.56405315E-13</totfact>
</mgrwt>
</event>
<event>
 4    1  0.4926183E-019  0.1494025E+02  0.7818608E-02  0.1869897E+00
         -2   -1    0    0    0  501 -0.00000000000E+00  0.00000000000E+00  0.11863349860E+03  0.11863349862E+03  0.25500000000E-02 0.  1.
          2   -1    0    0  501    0  0.00000000000E+00 -0.00000000000E+00 -0.47037615233E+00  0.47038306430E+00  0.25500000000E-02 0. -1.
         31    1    1    2    0    0  0.38706780248E+00  0.30582245962E+00  0.56554207498E+02  0.57044549789E+02  0.74470750000E+01 0. -1.
        -31    1    1    2    0    0 -0.38706780248E+00 -0.30582245962E+00  0.61608914946E+02  0.62059331899E+02  0.74470750000E+01 0.  1.
<mgrwt>
<rscale>  0 0.14940252E+02</rscale>
<asrwt>0</asrwt>
<pdfrwt beam="2">  1        2 0.99898068E+00 0.14940252E+02</pdfrwt>
<pdfrwt beam="1">  1       -2 0.98483423E+00 0.14940252E+02</pdfrwt>
<totfact> 0.15846146E-13</totfact>
</mgrwt>
</event>
<event>
 4    1 -0.4926183E-019  0.1497052E+02  0.7818608E-02  0.1868969E+00
         -2   -1    0    0    0  501 -0.00000000000E+00  0.00000000000E+00  0.12028463064E+03  0.12028463067E+03  0.25500000000E-02 0.  1.
          2   -1    0    0  501    0  0.00000000000E+00 -0.00000000000E+00 -0.46580123252E+00  0.46580821238E+00  0.25500000000E-02 0. -1.
         31    1    1    2    0    0  0.36238176373E+00  0.61305689264E+00  0.57883820594E+02  0.58365253121E+02  0.74470750000E+01 0.  1.
        -31    1    1    2    0    0 -0.36238176373E+00 -0.61305689264E+00  0.61935008815E+02  0.62385185759E+02  0.74470750000E+01 0. -1.
<mgrwt>
<rscale>  0 0.14970525E+02</rscale>
<asrwt>0</asrwt>
<pdfrwt beam="2">  1        2 0.98935577E+00 0.14970525E+02</pdfrwt>
<pdfrwt beam="1">  1       -2 0.99844911E+00 0.14970525E+02</pdfrwt>
<totfact>-0.91605060E-14</totfact>
</mgrwt>
</event>
<event>
 4    1 -0.4926183E-019  0.1493400E+02  0.7818608E-02  0.1870089E+00
         -2   -1    0    0    0  501 -0.00000000000E+00  0.00000000000E+00  0.12003435301E+03  0.12003435304E+03  0.25500000000E-02 0.  1.
          2   -1    0    0  501    0  0.00000000000E+00 -0.00000000000E+00 -0.46449732774E+00  0.46450432719E+00  0.25500000000E-02 0. -1.
         31    1    1    2    0    0  0.11010293970E-01  0.20607971965E+00  0.55714052197E+02  0.56209937986E+02  0.74470750000E+01 0. -1.
        -31    1    1    2    0    0 -0.11010293970E-01 -0.20607971965E+00  0.63855803486E+02  0.64288919380E+02  0.74470750000E+01 0.  1.
<mgrwt>
<rscale>  0 0.14933996E+02</rscale>
<asrwt>0</asrwt>
<pdfrwt beam="2">  1        2 0.98658907E+00 0.14933996E+02</pdfrwt>
<pdfrwt beam="1">  1       -2 0.99636886E+00 0.14933996E+02</pdfrwt>
<totfact>-0.24303543E-13</totfact>
</mgrwt>
</event>
<event>
 4    1 -0.4926183E-019  0.1496978E+02  0.7818608E-02  0.1868992E+00
          2   -1    0    0  501    0  0.00000000000E+00  0.00000000000E+00  0.11969954357E+03  0.11969954360E+03  0.25500000000E-02 0. -1.
         -2   -1    0    0    0  501 -0.00000000000E+00 -0.00000000000E+00 -0.46803178923E+00  0.46803873582E+00  0.25500000000E-02 0.  1.
         31    1    1    2    0    0  0.31849016181E+00 -0.56393535564E+00  0.56556659775E+02  0.57048524521E+02  0.74470750000E+01 0. -1.
        -31    1    1    2    0    0 -0.31849016181E+00  0.56393535564E+00  0.62674852010E+02  0.63119057817E+02  0.74470750000E+01 0. -1.
<mgrwt>
<rscale>  0 0.14969784E+02</rscale>
<asrwt>0</asrwt>
<pdfrwt beam="1">  1        2 0.99362965E+00 0.14969784E+02</pdfrwt>
<pdfrwt beam="2">  1       -2 0.99405618E+00 0.14969784E+02</pdfrwt>
<totfact>-0.13203878E-13</totfact>
</mgrwt>
</event>
<event>
 4    1 -0.4926183E-019  0.1497087E+02  0.7818608E-02  0.1868959E+00
          2   -1    0    0  501    0  0.00000000000E+00  0.00000000000E+00  0.11964389972E+03  0.11964389975E+03  0.25500000000E-02 0.  1.
         -2   -1    0    0    0  501 -0.00000000000E+00 -0.00000000000E+00 -0.46831714278E+00  0.46832408514E+00  0.25500000000E-02 0. -1.
         31    1    1    2    0    0  0.32299874850E+00  0.53817834148E+00  0.62980491484E+02  0.63422355662E+02  0.74470750000E+01 0.  1.
        -31    1    1    2    0    0 -0.32299874850E+00 -0.53817834148E+00  0.56195091097E+02  0.56689868174E+02  0.74470750000E+01 0. -1.
<mgrwt>
<rscale>  0 0.14970866E+02</rscale>
<asrwt>0</asrwt>
<pdfrwt beam="1">  1        2 0.99317190E+00 0.14970866E+02</pdfrwt>
<pdfrwt beam="2">  1       -2 0.99465807E+00 0.14970866E+02</pdfrwt>
<totfact>-0.13941940E-13</totfact>
</mgrwt>
</event>
<event>
 4    1 -0.4926183E-019  0.1491875E+02  0.7818608E-02  0.1870558E+00
          2   -1    0    0  501    0  0.00000000000E+00  0.00000000000E+00  0.11888358765E+03  0.11888358768E+03  0.25500000000E-02 0. -1.
         -2   -1    0    0    0  501 -0.00000000000E+00 -0.00000000000E+00 -0.46803653464E+00  0.46804348116E+00  0.25500000000E-02 0.  1.
         31    1    1    2    0    0  0.25074755436E+00  0.34019662606E+00  0.59758821283E+02  0.60222539429E+02  0.74470750000E+01 0. -1.
        -31    1    1    2    0    0 -0.25074755436E+00 -0.34019662606E+00  0.58656729830E+02  0.59129091728E+02  0.74470750000E+01 0. -1.
<mgrwt>
<rscale>  0 0.14918750E+02</rscale>
<asrwt>0</asrwt>
<pdfrwt beam="1">  1        2 0.98688279E+00 0.14918750E+02</pdfrwt>
<pdfrwt beam="2">  1       -2 0.99403964E+00 0.14918750E+02</pdfrwt>
<totfact>-0.25495869E-13</totfact>
</mgrwt>
</event>
<event>
 4    1 -0.4926183E-019  0.1493376E+02  0.7818608E-02  0.1870097E+00
         -2   -1    0    0    0  501 -0.00000000000E+00  0.00000000000E+00  0.12000897323E+03  0.12000897325E+03  0.25500000000E-02 0.  1.
          2   -1    0    0  501    0  0.00000000000E+00 -0.00000000000E+00 -0.46458103652E+00  0.46458803471E+00  0.25500000000E-02 0. -1.
         31    1    1    2    0    0  0.20766291071E+00 -0.49577844803E+00  0.60421098660E+02  0.60880678458E+02  0.74470750000E+01 0. -1.
        -31    1    1    2    0    0 -0.20766291071E+00  0.49577844803E+00  0.59123293530E+02  0.59592882830E+02  0.74470750000E+01 0. -1.
<mgrwt>
<rscale>  0 0.14933763E+02</rscale>
<asrwt>0</asrwt>
<pdfrwt beam="2">  1        2 0.98676538E+00 0.14933763E+02</pdfrwt>
<pdfrwt beam="1">  1       -2 0.99615970E+00 0.14933763E+02</pdfrwt>
<totfact>-0.24350417E-13</totfact>
</mgrwt>
</event>
<event>
 4    1  0.4926183E-019  0.1493521E+02  0.7818608E-02  0.1870052E+00
          2   -1    0    0  501    0  0.00000000000E+00  0.00000000000E+00  0.12020828615E+03  0.12020828618E+03  0.25500000000E-02 0.  1.
         -2   -1    0    0    0  501 -0.00000000000E+00 -0.00000000000E+00 -0.46390081706E+00  0.46390782551E+00  0.25500000000E-02 0. -1.
         31    1    1    2    0    0 -0.41410983787E-01 -0.43816854809E+00  0.57162006154E+02  0.57646748219E+02  0.74470750000E+01 0. -1.
        -31    1    1    2    0    0  0.41410983787E-01  0.43816854809E+00  0.62582379181E+02  0.63025445786E+02  0.74470750000E+01 0. -1.
<mgrwt>
<rscale>  0 0.14935213E+02</rscale>
<asrwt>0</asrwt>
<pdfrwt beam="1">  1        2 0.99780213E+00 0.14935213E+02</pdfrwt>
<pdfrwt beam="2">  1       -2 0.98533248E+00 0.14935213E+02</pdfrwt>
<totfact> 0.25997376E-13</totfact>
</mgrwt>
</event>
<event>
 4    1 -0.4926183E-019  0.1500157E+02  0.7818608E-02  0.1868020E+00
          2   -1    0    0  501    0  0.00000000000E+00  0.00000000000E+00  0.11980963360E+03  0.11980963362E+03  0.25500000000E-02 0. -1.
         -2   -1    0    0    0  501 -0.00000000000E+00 -0.00000000000E+00 -0.46958982329E+00  0.46959674684E+00  0.25500000000E-02 0.  1.
         31    1    1    2    0    0  0.77622402878E-01 -0.61684700380E+00  0.54496530702E+02  0.55006520614E+02  0.74470750000E+01 0.  1.
        -31    1    1    2    0    0 -0.77622402878E-01  0.61684700380E+00  0.64843513071E+02  0.65272709756E+02  0.74470750000E+01 0. -1.
<mgrwt>
<rscale>  0 0.15001574E+02</rscale>
<asrwt>0</asrwt>
<pdfrwt beam="1">  1        2 0.99455283E+00 0.15001574E+02</pdfrwt>
<pdfrwt beam="2">  1       -2 0.99735590E+00 0.15001574E+02</pdfrwt>
<totfact>-0.91592559E-14</totfact>
</mgrwt>
</event>
<event>
 4    1  0.4926183E-019  0.1491119E+02  0.7818608E-02  0.1870791E+00
         -2   -1    0    0    0  501 -0.00000000000E+00  0.00000000000E+00  0.11842517033E+03  0.11842517036E+03  0.25500000000E-02 0. -1.
          2   -1    0    0  501    0  0.00000000000E+00 -0.00000000000E+00 -0.46937230277E+00  0.46937922953E+00  0.25500000000E-02 0.  1.
         31    1    1    2    0    0  0.52510350050E-01 -0.33717309142E+00  0.59796465583E+02  0.60259378235E+02  0.74470750000E+01 0. -1.
        -31    1    1    2    0    0 -0.52510350050E-01  0.33717309142E+00  0.58159332447E+02  0.58635171355E+02  0.74470750000E+01 0. -1.
<mgrwt>
<rscale>  0 0.14911192E+02</rscale>
<asrwt>0</asrwt>
<pdfrwt beam="2">  1        2 0.99685024E+00 0.14911192E+02</pdfrwt>
<pdfrwt beam="1">  1       -2 0.98310332E+00 0.14911192E+02</pdfrwt>
<totfact> 0.59360391E-13</totfact>
</mgrwt>
</event>
<event>
 4    1  0.4926183E-019  0.1489624E+02  0.7818608E-02  0.1871251E+00
         -2   -1    0    0    0  501 -0.00000000000E+00  0.00000000000E+00  0.11791246439E+03  0.11791246442E+03  0.25500000000E-02 0. -1.
          2   -1    0    0  501    0  0.00000000000E+00 -0.00000000000E+00 -0.47046838518E+00  0.47047529580E+00  0.25500000000E-02 0.  1.
         31    1    1    2    0    0  0.24267209814E-01  0.11893740228E+00  0.58950826325E+02  0.59419471434E+02  0.74470750000E+01 0.  1.
        -31    1    1    2    0    0 -0.24267209814E-01 -0.11893740228E+00  0.58491169682E+02  0.58963468282E+02  0.74470750000E+01 0. -1.
<mgrwt>
<rscale>  0 0.14896241E+02</rscale>
<asrwt>0</asrwt>
<pdfrwt beam="2">  1        2 0.99915166E+00 0.14896241E+02</pdfrwt>
<pdfrwt beam="1">  1       -2 0.97887297E+00 0.14896241E+02</pdfrwt>
<totfact> 0.44932832E-13</totfact>
</mgrwt>
</event>
<event>
 4    1  0.4926183E-019  0.1492707E+02  0.7818608E-02  0.1870302E+00
         -2   -1    0    0    0  501 -0.00000000000E+00  0.00000000000E+00  0.11898767800E+03  0.11898767803E+03  0.25500000000E-02 0.  1.
          2   -1    0    0  501    0  0.00000000000E+00 -0.00000000000E+00 -0.46814890839E+00  0.46815585324E+00  0.25500000000E-02 0. -1.
         31    1    1    2    0    0  0.50150501157E-01  0.53975103218E-04  0.55315459277E+02  0.55814527465E+02  0.74470750000E+01 0. -1.
        -31    1    1    2    0    0 -0.50150501157E-01 -0.53975103218E-04  0.63204069814E+02  0.63641306414E+02  0.74470750000E+01 0.  1.
<mgrwt>
<rscale>  0 0.14927072E+02</rscale>
<asrwt>0</asrwt>
<pdfrwt beam="2">  1        2 0.99428078E+00 0.14927072E+02</pdfrwt>
<pdfrwt beam="1">  1       -2 0.98774441E+00 0.14927072E+02</pdfrwt>
<totfact> 0.18603971E-13</totfact>
</mgrwt>
</event>
<event>
 4    1  0.4926183E-019  0.1490999E+02  0.7818608E-02  0.1870828E+00
         -2   -1    0    0    0  501 -0.00000000000E+00  0.00000000000E+00  0.11887909718E+03  0.11887909721E+03  0.25500000000E-02 0.  1.
          2   -1    0    0  501    0  0.00000000000E+00 -0.00000000000E+00 -0.46750477711E+00  0.46751173153E+00  0.25500000000E-02 0. -1.
         31    1    1    2    0    0  0.65808301736E-03 -0.33945377860E+00  0.58781702666E+02  0.59252533479E+02  0.74470750000E+01 0.  1.
        -31    1    1    2    0    0 -0.65808301736E-03  0.33945377860E+00  0.59629889741E+02  0.60094075464E+02  0.74470750000E+01 0. -1.
<mgrwt>
<rscale>  0 0.14909992E+02</rscale>
<asrwt>0</asrwt>
<pdfrwt beam="2">  1        2 0.99291456E+00 0.14909992E+02</pdfrwt>
<pdfrwt beam="1">  1       -2 0.98684127E+00 0.14909992E+02</pdfrwt>
<totfact> 0.31156019E-13</totfact>
</mgrwt>
</event>
<event>
 4    1  0.4926183E-019  0.1489594E+02  0.7818608E-02  0.1871261E+00
         -2   -1    0    0    0  501 -0.00000000000E+00  0.00000000000E+00  0.11908282835E+03  0.11908282838E+03  0.25500000000E-02 0.  1.
          2   -1    0    0  501    0  0.00000000000E+00 -0.00000000000E+00 -0.46582551827E+00  0.46583249776E+00  0.25500000000E-02 0. -1.
         31    1    1    2    0    0 -0.72628963236E-01 -0.21846407750E-01  0.58610654794E+02  0.59081922224E+02  0.74470750000E+01 0. -1.
        -31    1    1    2    0    0  0.72628963236E-01  0.21846407750E-01  0.60006348041E+02  0.60466738654E+02  0.74470750000E+01 0.  1.
<mgrwt>
<rscale>  0 0.14895938E+02</rscale>
<asrwt>0</asrwt>
<pdfrwt beam="2">  1        2 0.98936863E+00 0.14895938E+02</pdfrwt>
<pdfrwt beam="1">  1       -2 0.98851197E+00 0.14895938E+02</pdfrwt>
<totfact> 0.17392220E-13</totfact>
</mgrwt>
</event>
<event>
 4    1 -0.4926183E-019  0.1493957E+02  0.7818608E-02  0.1869918E+00
         -2   -1    0    0    0  501 -0.00000000000E+00  0.00000000000E+00  0.11944489234E+03  0.11944489237E+03  0.25500000000E-02 0.  1.
          2   -1    0    0  501    0  0.00000000000E+00 -0.00000000000E+00 -0.46713795366E+00  0.46714491354E+00  0.25500000000E-02 0. -1.
         31    1    1    2    0    0  0.48933492698E+00 -0.25635845187E+00  0.58018320307E+02  0.58496919455E+02  0.74470750000E+01 0.  1.
        -31    1    1    2    0    0 -0.48933492698E+00  0.25635845187E+00  0.60959434080E+02  0.61415117828E+02  0.74470750000E+01 0. -1.
<mgrwt>
<rscale>  0 0.14939566E+02</rscale>
<asrwt>0</asrwt>
<pdfrwt beam="2">  1        2 0.99215694E+00 0.14939566E+02</pdfrwt>
<pdfrwt beam="1">  1       -2 0.99151662E+00 0.14939566E+02</pdfrwt>
<totfact>-0.78386130E-14</totfact>
</mgrwt>
</event>
<event>
 4    1 -0.4926183E-019  0.1501305E+02  0.7818608E-02  0.1867671E+00
          2   -1    0    0  501    0  0.00000000000E+00  0.00000000000E+00  0.12028011201E+03  0.12028011204E+03  0.25500000000E-02 0. -1.
         -2   -1    0    0    0  501 -0.00000000000E+00 -0.00000000000E+00 -0.46846880543E+00  0.46847574555E+00  0.25500000000E-02 0.  1.
         31    1    1    2    0    0 -0.62787269478E+00 -0.60697622914E+00  0.57047127684E+02  0.57537781911E+02  0.74470750000E+01 0.  1.
        -31    1    1    2    0    0  0.62787269478E+00  0.60697622914E+00  0.62764515521E+02  0.63210805871E+02  0.74470750000E+01 0. -1.
<mgrwt>
<rscale>  0 0.15013048E+02</rscale>
<asrwt>0</asrwt>
<pdfrwt beam="1">  1        2 0.99843381E+00 0.15013048E+02</pdfrwt>
<pdfrwt beam="2">  1       -2 0.99499945E+00 0.15013048E+02</pdfrwt>
<totfact>-0.53808924E-14</totfact>
</mgrwt>
</event>
<event>
 4    1 -0.4926183E-019  0.1491117E+02  0.7818608E-02  0.1870791E+00
          2   -1    0    0  501    0  0.00000000000E+00  0.00000000000E+00  0.11887197387E+03  0.11887197389E+03  0.25500000000E-02 0.  1.
         -2   -1    0    0    0  501 -0.00000000000E+00 -0.00000000000E+00 -0.46760640898E+00  0.46761336189E+00  0.25500000000E-02 0. -1.
         31    1    1    2    0    0 -0.31784387924E+00 -0.36621707434E-01  0.60452898385E+02  0.60910706900E+02  0.74470750000E+01 0.  1.
        -31    1    1    2    0    0  0.31784387924E+00  0.36621707434E-01  0.57951469072E+02  0.58428880355E+02  0.74470750000E+01 0. -1.
<mgrwt>
<rscale>  0 0.14911165E+02</rscale>
<asrwt>0</asrwt>
<pdfrwt beam="1">  1        2 0.98678321E+00 0.14911165E+02</pdfrwt>
<pdfrwt beam="2">  1       -2 0.99312933E+00 0.14911165E+02</pdfrwt>
<totfact>-0.23397941E-13</totfact>
</mgrwt>
</event>
<event>
 4    1 -0.4926183E-019  0.1500502E+02  0.7818608E-02  0.1867915E+00
         -2   -1    0    0    0  501 -0.00000000000E+00  0.00000000000E+00  0.11973594241E+03  0.11973594243E+03  0.25500000000E-02 0.  1.
          2   -1    0    0  501    0  0.00000000000E+00 -0.00000000000E+00 -0.47009504917E+00  0.47010196527E+00  0.25500000000E-02 0. -1.
         31    1    1    2    0    0  0.83493969931E+00  0.27830946188E+00  0.57768145204E+02  0.58252829174E+02  0.74470750000E+01 0. -1.
        -31    1    1    2    0    0 -0.83493969931E+00 -0.27830946188E+00  0.61497702153E+02  0.61953215224E+02  0.74470750000E+01 0.  1.
<mgrwt>
<rscale>  0 0.15005025E+02</rscale>
<asrwt>0</asrwt>
<pdfrwt beam="2">  1        2 0.99842233E+00 0.15005025E+02</pdfrwt>
<pdfrwt beam="1">  1       -2 0.99394768E+00 0.15005025E+02</pdfrwt>
<totfact>-0.52783646E-14</totfact>
</mgrwt>
</event>
<event>
 4    1  0.4926183E-019  0.1490743E+02  0.7818608E-02  0.1870907E+00
         -2   -1    0    0    0  501 -0.00000000000E+00  0.00000000000E+00  0.11826687257E+03  0.11826687260E+03  0.25500000000E-02 0.  1.
          2   -1    0    0  501    0  0.00000000000E+00 -0.00000000000E+00 -0.46976337085E+00  0.46977029184E+00  0.25500000000E-02 0. -1.
         31    1    1    2    0    0  0.22701549562E+00 -0.33807944619E-01  0.57185591193E+02  0.57668912294E+02  0.74470750000E+01 0. -1.
        -31    1    1    2    0    0 -0.22701549562E+00  0.33807944619E-01  0.60611518008E+02  0.61067730598E+02  0.74470750000E+01 0.  1.
<mgrwt>
<rscale>  0 0.14907429E+02</rscale>
<asrwt>0</asrwt>
<pdfrwt beam="2">  1        2 0.99767222E+00 0.14907429E+02</pdfrwt>
<pdfrwt beam="1">  1       -2 0.98179764E+00 0.14907429E+02</pdfrwt>
<totfact> 0.62971837E-13</totfact>
</mgrwt>
</event>
<event>
 4    1  0.4926183E-019  0.1492918E+02  0.7818608E-02  0.1870237E+00
         -2   -1    0    0    0  501 -0.00000000000E+00  0.00000000000E+00  0.11857104351E+03  0.11857104353E+03  0.25500000000E-02 0. -1.
          2   -1    0    0  501    0  0.00000000000E+00 -0.00000000000E+00 -0.46992633268E+00  0.46993325127E+00  0.25500000000E-02 0.  1.
         31    1    1    2    0    0 -0.31707279787E+00 -0.40004124584E+00  0.59241737272E+02  0.59710157672E+02  0.74470750000E+01 0. -1.
        -31    1    1    2    0    0  0.31707279787E+00  0.40004124584E+00  0.58859379903E+02  0.59330819114E+02  0.74470750000E+01 0.  1.
<mgrwt>
<rscale>  0 0.14929175E+02</rscale>
<asrwt>0</asrwt>
<pdfrwt beam="2">  1        2 0.99802707E+00 0.14929175E+02</pdfrwt>
<pdfrwt beam="1">  1       -2 0.98431408E+00 0.14929175E+02</pdfrwt>
<totfact> 0.31690303E-13</totfact>
</mgrwt>
</event>
<event>
 4    1  0.4926183E-019  0.1490661E+02  0.7818608E-02  0.1870932E+00
          2   -1    0    0  501    0  0.00000000000E+00  0.00000000000E+00  0.12008894123E+03  0.12008894126E+03  0.25500000000E-02 0.  1.
         -2   -1    0    0    0  501 -0.00000000000E+00 -0.00000000000E+00 -0.46258491904E+00  0.46259194742E+00  0.25500000000E-02 0. -1.
         31    1    1    2    0    0  0.22429205717E+00  0.48672014777E-01  0.58192593692E+02  0.58667619370E+02  0.74470750000E+01 0. -1.
        -31    1    1    2    0    0 -0.22429205717E+00 -0.48672014777E-01  0.61433762621E+02  0.61883913836E+02  0.74470750000E+01 0.  1.
<mgrwt>
<rscale>  0 0.14906610E+02</rscale>
<asrwt>0</asrwt>
<pdfrwt beam="1">  1        2 0.99680442E+00 0.14906610E+02</pdfrwt>
<pdfrwt beam="2">  1       -2 0.98254450E+00 0.14906610E+02</pdfrwt>
<totfact> 0.67607804E-13</totfact>
</mgrwt>
</event>
<event>
 4    1 -0.4926183E-019  0.1496139E+02  0.7818608E-02  0.1869249E+00
          2   -1    0    0  501    0  0.00000000000E+00  0.00000000000E+00  0.11939794359E+03  0.11939794362E+03  0.25500000000E-02 0. -1.
         -2   -1    0    0    0  501 -0.00000000000E+00 -0.00000000000E+00 -0.46868786660E+00  0.46869480347E+00  0.25500000000E-02 0.  1.
         31    1    1    2    0    0  0.34300170333E+00  0.45957456533E-01  0.54512259087E+02  0.55019679016E+02  0.74470750000E+01 0.  1.
        -31    1    1    2    0    0 -0.34300170333E+00 -0.45957456533E-01  0.64416996635E+02  0.64846959402E+02  0.74470750000E+01 0. -1.
<mgrwt>
<rscale>  0 0.14961388E+02</rscale>
<asrwt>0</asrwt>
<pdfrwt beam="1">  1        2 0.99114123E+00 0.14961388E+02</pdfrwt>
<pdfrwt beam="2">  1       -2 0.99543436E+00 0.14961388E+02</pdfrwt>
<totfact>-0.15886381E-13</totfact>
</mgrwt>
</event>
<event>
 4    1 -0.4926183E-019  0.1497941E+02  0.7818608E-02  0.1868697E+00
         -2   -1    0    0    0  501 -0.00000000000E+00  0.00000000000E+00  0.11994193223E+03  0.11994193225E+03  0.25500000000E-02 0. -1.
          2   -1    0    0  501    0  0.00000000000E+00 -0.00000000000E+00 -0.46768677828E+00  0.46769372999E+00  0.25500000000E-02 0.  1.
         31    1    1    2    0    0  0.31082258287E+00 -0.59588998491E+00  0.63195053095E+02  0.63635881052E+02  0.74470750000E+01 0. -1.
        -31    1    1    2    0    0 -0.31082258287E+00  0.59588998491E+00  0.56279192354E+02  0.56773744932E+02  0.74470750000E+01 0.  1.
<mgrwt>
<rscale>  0 0.14979409E+02</rscale>
<asrwt>0</asrwt>
<pdfrwt beam="2">  1        2 0.99333408E+00 0.14979409E+02</pdfrwt>
<pdfrwt beam="1">  1       -2 0.99563103E+00 0.14979409E+02</pdfrwt>
<totfact>-0.13339620E-13</totfact>
</mgrwt>
</event>
<event>
 4    1 -0.4926183E-019  0.1497422E+02  0.7818608E-02  0.1868856E+00
         -2   -1    0    0    0  501 -0.00000000000E+00  0.00000000000E+00  0.11973644722E+03  0.11973644725E+03  0.25500000000E-02 0. -1.
          2   -1    0    0  501    0  0.00000000000E+00 -0.00000000000E+00 -0.46816469358E+00  0.46817163820E+00  0.25500000000E-02 0.  1.
         31    1    1    2    0    0 -0.93280798440E-01  0.93905738465E-01  0.53518778813E+02  0.54034582734E+02  0.74470750000E+01 0.  1.
        -31    1    1    2    0    0  0.93280798440E-01 -0.93905738465E-01  0.65749503713E+02  0.66170036151E+02  0.74470750000E+01 0. -1.
<mgrwt>
<rscale>  0 0.14974217E+02</rscale>
<asrwt>0</asrwt>
<pdfrwt beam="2">  1        2 0.99433854E+00 0.14974217E+02</pdfrwt>
<pdfrwt beam="1">  1       -2 0.99393589E+00 0.14974217E+02</pdfrwt>
<totfact>-0.12367981E-13</totfact>
</mgrwt>
</event>
<event>
 4    1  0.4926183E-019  0.1491784E+02  0.7818608E-02  0.1870586E+00
         -2   -1    0    0    0  501 -0.00000000000E+00  0.00000000000E+00  0.11837059182E+03  0.11837059185E+03  0.25500000000E-02 0.  1.
          2   -1    0    0  501    0  0.00000000000E+00 -0.00000000000E+00 -0.47000734408E+00  0.47001426148E+00  0.25500000000E-02 0. -1.
         31    1    1    2    0    0  0.12556426610E-01  0.20820583486E+00  0.56044741126E+02  0.56537734667E+02  0.74470750000E+01 0. -1.
        -31    1    1    2    0    0 -0.12556426610E-01 -0.20820583486E+00  0.61855843350E+02  0.62302871443E+02  0.74470750000E+01 0.  1.
<mgrwt>
<rscale>  0 0.14917836E+02</rscale>
<asrwt>0</asrwt>
<pdfrwt beam="2">  1        2 0.99819177E+00 0.14917836E+02</pdfrwt>
<pdfrwt beam="1">  1       -2 0.98265728E+00 0.14917836E+02</pdfrwt>
<totfact> 0.43495299E-13</totfact>
</mgrwt>
</event>
<event>
 4    1 -0.4926183E-019  0.1491766E+02  0.7818608E-02  0.1870592E+00
         -2   -1    0    0    0  501 -0.00000000000E+00  0.00000000000E+00  0.11963165702E+03  0.11963165705E+03  0.25500000000E-02 0.  1.
          2   -1    0    0  501    0  0.00000000000E+00 -0.00000000000E+00 -0.46504180509E+00  0.46504879634E+00  0.25500000000E-02 0. -1.
         31    1    1    2    0    0  0.90550616654E-01 -0.30697498399E+00  0.61755251201E+02  0.62203475868E+02  0.74470750000E+01 0.  1.
        -31    1    1    2    0    0 -0.90550616654E-01  0.30697498399E+00  0.57411364016E+02  0.57893229978E+02  0.74470750000E+01 0. -1.
<mgrwt>
<rscale>  0 0.14917660E+02</rscale>
<asrwt>0</asrwt>
<pdfrwt beam="2">  1        2 0.98772823E+00 0.14917660E+02</pdfrwt>
<pdfrwt beam="1">  1       -2 0.99304359E+00 0.14917660E+02</pdfrwt>
<totfact>-0.20226373E-13</totfact>
</mgrwt>
</event>
<event>
 4    1 -0.4926183E-019  0.1492197E+02  0.7818608E-02  0.1870459E+00
         -2   -1    0    0    0  501 -0.00000000000E+00  0.00000000000E+00  0.12020465481E+03  0.12020465483E+03  0.25500000000E-02 0. -1.
          2   -1    0    0  501    0  0.00000000000E+00 -0.00000000000E+00 -0.46309250498E+00  0.46309952566E+00  0.25500000000E-02 0.  1.
         31    1    1    2    0    0  0.93125375805E-01  0.38488082527E+00  0.58052319479E+02  0.58529373211E+02  0.74470750000E+01 0.  1.
        -31    1    1    2    0    0 -0.93125375805E-01 -0.38488082527E+00  0.61689242823E+02  0.62138381148E+02  0.74470750000E+01 0. -1.
<mgrwt>
<rscale>  0 0.14921970E+02</rscale>
<asrwt>0</asrwt>
<pdfrwt beam="2">  1        2 0.98362211E+00 0.14921970E+02</pdfrwt>
<pdfrwt beam="1">  1       -2 0.99776542E+00 0.14921970E+02</pdfrwt>
<totfact>-0.28280545E-13</totfact>
</mgrwt>
</event>
<event>
 4    1 -0.4926183E-019  0.1496104E+02  0.7818608E-02  0.1869260E+00
          2   -1    0    0  501    0  0.00000000000E+00  0.00000000000E+00  0.11929290729E+03  0.11929290732E+03  0.25500000000E-02 0. -1.
         -2   -1    0    0    0  501 -0.00000000000E+00 -0.00000000000E+00 -0.46907901204E+00  0.46908594313E+00  0.25500000000E-02 0.  1.
         31    1    1    2    0    0 -0.12538022707E+00  0.57752399975E+00  0.62512574270E+02  0.62957367497E+02  0.74470750000E+01 0. -1.
        -31    1    1    2    0    0  0.12538022707E+00 -0.57752399975E+00  0.56311254009E+02  0.56804625765E+02  0.74470750000E+01 0.  1.
<mgrwt>
<rscale>  0 0.14961045E+02</rscale>
<asrwt>0</asrwt>
<pdfrwt beam="1">  1        2 0.99027595E+00 0.14961045E+02</pdfrwt>
<pdfrwt beam="2">  1       -2 0.99625841E+00 0.14961045E+02</pdfrwt>
<totfact>-0.15836357E-13</totfact>
</mgrwt>
</event>
<event>
 4    1 -0.4926183E-019  0.1500095E+02  0.7818608E-02  0.1868040E+00
          2   -1    0    0  501    0  0.00000000000E+00  0.00000000000E+00  0.12013935281E+03  0.12013935283E+03  0.25500000000E-02 0. -1.
         -2   -1    0    0    0  501 -0.00000000000E+00 -0.00000000000E+00 -0.46826207126E+00  0.46826901444E+00  0.25500000000E-02 0.  1.
         31    1    1    2    0    0  0.71130190910E+00  0.41869839173E+00  0.57086174687E+02  0.57575789401E+02  0.74470750000E+01 0.  1.
        -31    1    1    2    0    0 -0.71130190910E+00 -0.41869839173E+00  0.62584916048E+02  0.63031832446E+02  0.74470750000E+01 0.  1.
<mgrwt>
<rscale>  0 0.15000950E+02</rscale>
<asrwt>0</asrwt>
<pdfrwt beam="1">  1        2 0.99726820E+00 0.15000950E+02</pdfrwt>
<pdfrwt beam="2">  1       -2 0.99455755E+00 0.15000950E+02</pdfrwt>
<totfact>-0.82637519E-14</totfact>
</mgrwt>
</event>
<event>
 4    1 -0.4926183E-019  0.1497678E+02  0.7818608E-02  0.1868778E+00
          2   -1    0    0  501    0  0.00000000000E+00  0.00000000000E+00  0.11993524002E+03  0.11993524004E+03  0.25500000000E-02 0. -1.
         -2   -1    0    0    0  501 -0.00000000000E+00 -0.00000000000E+00 -0.46754894160E+00  0.46755589536E+00  0.25500000000E-02 0.  1.
         31    1    1    2    0    0  0.41341100693E+00 -0.18010215039E+00  0.64904952081E+02  0.65332343262E+02  0.74470750000E+01 0. -1.
        -31    1    1    2    0    0 -0.41341100693E+00  0.18010215039E+00  0.54562738994E+02  0.55070452676E+02  0.74470750000E+01 0. -1.
<mgrwt>
<rscale>  0 0.14976784E+02</rscale>
<asrwt>0</asrwt>
<pdfrwt beam="1">  1        2 0.99557456E+00 0.14976784E+02</pdfrwt>
<pdfrwt beam="2">  1       -2 0.99304225E+00 0.14976784E+02</pdfrwt>
<totfact>-0.97702517E-14</totfact>
</mgrwt>
</event>
<event>
 4    1 -0.4926183E-019  0.1499933E+02  0.7818608E-02  0.1868089E+00
          2   -1    0    0  501    0  0.00000000000E+00  0.00000000000E+00  0.12008062812E+03  0.12008062815E+03  0.25500000000E-02 0. -1.
         -2   -1    0    0    0  501 -0.00000000000E+00 -0.00000000000E+00 -0.46838983545E+00  0.46839677673E+00  0.25500000000E-02 0.  1.
         31    1    1    2    0    0  0.36911958078E+00  0.78320934275E+00  0.61338914632E+02  0.61795396596E+02  0.74470750000E+01 0.  1.
        -31    1    1    2    0    0 -0.36911958078E+00 -0.78320934275E+00  0.58273323652E+02  0.58753628327E+02  0.74470750000E+01 0. -1.
<mgrwt>
<rscale>  0 0.14999329E+02</rscale>
<asrwt>0</asrwt>
<pdfrwt beam="1">  1        2 0.99678368E+00 0.14999329E+02</pdfrwt>
<pdfrwt beam="2">  1       -2 0.99482596E+00 0.14999329E+02</pdfrwt>
<totfact>-0.92429196E-14</totfact>
</mgrwt>
</event>
<event>
 4    1  0.4926183E-019  0.1489636E+02  0.7818608E-02  0.1871248E+00
         -2   -1    0    0    0  501 -0.00000000000E+00  0.00000000000E+00  0.11831363161E+03  0.11831363164E+03  0.25500000000E-02 0. -1.
          2   -1    0    0  501    0  0.00000000000E+00 -0.00000000000E+00 -0.46888083711E+00  0.46888777113E+00  0.25500000000E-02 0.  1.
         31    1    1    2    0    0 -0.19629341853E-01  0.11412880405E+00  0.58480463446E+02  0.58952836586E+02  0.74470750000E+01 0.  1.
        -31    1    1    2    0    0  0.19629341853E-01 -0.11412880405E+00  0.59364287329E+02  0.59829682824E+02  0.74470750000E+01 0. -1.
<mgrwt>
<rscale>  0 0.14896363E+02</rscale>
<asrwt>0</asrwt>
<pdfrwt beam="2">  1        2 0.99580690E+00 0.14896363E+02</pdfrwt>
<pdfrwt beam="1">  1       -2 0.98217698E+00 0.14896363E+02</pdfrwt>
<totfact> 0.86112910E-13</totfact>
</mgrwt>
</event>
<event>
 4    1  0.4926183E-019  0.1493178E+02  0.7818608E-02  0.1870158E+00
         -2   -1    0    0    0  501 -0.00000000000E+00  0.00000000000E+00  0.11847406452E+03  0.11847406454E+03  0.25500000000E-02 0.  1.
          2   -1    0    0  501    0  0.00000000000E+00 -0.00000000000E+00 -0.47047494864E+00  0.47048185916E+00  0.25500000000E-02 0. -1.
         31    1    1    2    0    0 -0.23388497242E+00 -0.10023859330E+00  0.55301171480E+02  0.55800925110E+02  0.74470750000E+01 0. -1.
        -31    1    1    2    0    0  0.23388497242E+00  0.10023859330E+00  0.62702418088E+02  0.63143621294E+02  0.74470750000E+01 0.  1.
<mgrwt>
<rscale>  0 0.14931777E+02</rscale>
<asrwt>0</asrwt>
<pdfrwt beam="2">  1        2 0.99918436E+00 0.14931777E+02</pdfrwt>
<pdfrwt beam="1">  1       -2 0.98351673E+00 0.14931777E+02</pdfrwt>
<totfact> 0.18096400E-13</totfact>
</mgrwt>
</event>
<event>
 4    1 -0.4926183E-019  0.1493382E+02  0.7818608E-02  0.1870095E+00
         -2   -1    0    0    0  501 -0.00000000000E+00  0.00000000000E+00  0.11964575632E+03  0.11964575635E+03  0.25500000000E-02 0.  1.
          2   -1    0    0  501    0  0.00000000000E+00 -0.00000000000E+00 -0.46599506695E+00  0.46600204391E+00  0.25500000000E-02 0. -1.
         31    1    1    2    0    0 -0.34726373689E+00 -0.12122157638E+00  0.62812479575E+02  0.63253472657E+02  0.74470750000E+01 0.  1.
        -31    1    1    2    0    0  0.34726373689E+00  0.12122157638E+00  0.56367281678E+02  0.56858285734E+02  0.74470750000E+01 0. -1.
<mgrwt>
<rscale>  0 0.14933821E+02</rscale>
<asrwt>0</asrwt>
<pdfrwt beam="2">  1        2 0.98974548E+00 0.14933821E+02</pdfrwt>
<pdfrwt beam="1">  1       -2 0.99316806E+00 0.14933821E+02</pdfrwt>
<totfact>-0.16346553E-13</totfact>
</mgrwt>
</event>
<event>
 4    1 -0.4926183E-019  0.1499957E+02  0.7818608E-02  0.1868082E+00
         -2   -1    0    0    0  501 -0.00000000000E+00  0.00000000000E+00  0.12033670533E+03  0.12033670536E+03  0.25500000000E-02 0. -1.
          2   -1    0    0  501    0  0.00000000000E+00 -0.00000000000E+00 -0.46740799445E+00  0.46741495031E+00  0.25500000000E-02 0.  1.
         31    1    1    2    0    0 -0.80810401994E+00 -0.29462278404E+00  0.58170156701E+02  0.58651222420E+02  0.74470750000E+01 0.  1.
        -31    1    1    2    0    0  0.80810401994E+00  0.29462278404E+00  0.61699140639E+02  0.62152897891E+02  0.74470750000E+01 0. -1.
<mgrwt>
<rscale>  0 0.14999568E+02</rscale>
<asrwt>0</asrwt>
<pdfrwt beam="2">  1        2 0.99275691E+00 0.14999568E+02</pdfrwt>
<pdfrwt beam="1">  1       -2 0.99889299E+00 0.14999568E+02</pdfrwt>
<totfact>-0.51152066E-14</totfact>
</mgrwt>
</event>
<event>
 4    1 -0.4926183E-019  0.1490981E+02  0.7818608E-02  0.1870833E+00
          2   -1    0    0  501    0  0.00000000000E+00  0.00000000000E+00  0.11850233309E+03  0.11850233312E+03  0.25500000000E-02 0.  1.
         -2   -1    0    0    0  501 -0.00000000000E+00 -0.00000000000E+00 -0.46897973343E+00  0.46898666598E+00  0.25500000000E-02 0. -1.
         31    1    1    2    0    0 -0.24093564629E-01  0.32027081836E+00  0.59944713702E+02  0.60406380299E+02  0.74470750000E+01 0.  1.
        -31    1    1    2    0    0  0.24093564629E-01 -0.32027081836E+00  0.58088639654E+02  0.58564939484E+02  0.74470750000E+01 0. -1.
<mgrwt>
<rscale>  0 0.14909810E+02</rscale>
<asrwt>0</asrwt>
<pdfrwt beam="1">  1        2 0.98373811E+00 0.14909810E+02</pdfrwt>
<pdfrwt beam="2">  1       -2 0.99602236E+00 0.14909810E+02</pdfrwt>
<totfact>-0.40032230E-13</totfact>
</mgrwt>
</event>
<event>
 4    1  0.4926183E-019  0.1491473E+02  0.7818608E-02  0.1870682E+00
         -2   -1    0    0    0  501 -0.00000000000E+00  0.00000000000E+00  0.11889566712E+03  0.11889566714E+03  0.25500000000E-02 0. -1.
          2   -1    0    0  501    0  0.00000000000E+00 -0.00000000000E+00 -0.46773707983E+00  0.46774403080E+00  0.25500000000E-02 0.  1.
         31    1    1    2    0    0 -0.10569995665E+00  0.37695122598E+00  0.59119999648E+02  0.59588476647E+02  0.74470750000E+01 0. -1.
        -31    1    1    2    0    0  0.10569995665E+00 -0.37695122598E+00  0.59307930388E+02  0.59774934526E+02  0.74470750000E+01 0. -1.
<mgrwt>
<rscale>  0 0.14914735E+02</rscale>
<asrwt>0</asrwt>
<pdfrwt beam="2">  1        2 0.99340654E+00 0.14914735E+02</pdfrwt>
<pdfrwt beam="1">  1       -2 0.98698020E+00 0.14914735E+02</pdfrwt>
<totfact> 0.28402648E-13</totfact>
</mgrwt>
</event>
<event>
 4    1 -0.4926183E-019  0.1499754E+02  0.7818608E-02  0.1868144E+00
         -2   -1    0    0    0  501 -0.00000000000E+00  0.00000000000E+00  0.11983218991E+03  0.11983218994E+03  0.25500000000E-02 0.  1.
          2   -1    0    0  501    0  0.00000000000E+00 -0.00000000000E+00 -0.46924902994E+00  0.46925595852E+00  0.25500000000E-02 0. -1.
         31    1    1    2    0    0 -0.63224128993E+00 -0.11658026763E+00  0.54873230033E+02  0.55379992961E+02  0.74470750000E+01 0. -1.
        -31    1    1    2    0    0  0.63224128993E+00  0.11658026763E+00  0.64489710851E+02  0.64921452939E+02  0.74470750000E+01 0. -1.
<mgrwt>
<rscale>  0 0.14997541E+02</rscale>
<asrwt>0</asrwt>
<pdfrwt beam="2">  1        2 0.99663566E+00 0.14997541E+02</pdfrwt>
<pdfrwt beam="1">  1       -2 0.99473653E+00 0.14997541E+02</pdfrwt>
<totfact>-0.95181206E-14</totfact>
</mgrwt>
</event>
<event>
 4    1 -0.4926183E-019  0.1501050E+02  0.7818608E-02  0.1867748E+00
          2   -1    0    0  501    0  0.00000000000E+00  0.00000000000E+00  0.12026037969E+03  0.12026037972E+03  0.25500000000E-02 0.  1.
         -2   -1    0    0    0  501 -0.00000000000E+00 -0.00000000000E+00 -0.46838675823E+00  0.46839369956E+00  0.25500000000E-02 0. -1.
         31    1    1    2    0    0 -0.76826842455E+00  0.51339266206E+00  0.60915123995E+02  0.61375606439E+02  0.74470750000E+01 0. -1.
        -31    1    1    2    0    0  0.76826842455E+00 -0.51339266206E+00  0.58876868941E+02  0.59353166982E+02  0.74470750000E+01 0.  1.
<mgrwt>
<rscale>  0 0.15010502E+02</rscale>
<asrwt>0</asrwt>
<pdfrwt beam="1">  1        2 0.99826997E+00 0.15010502E+02</pdfrwt>
<pdfrwt beam="2">  1       -2 0.99482523E+00 0.15010502E+02</pdfrwt>
<totfact>-0.58509974E-14</totfact>
</mgrwt>
</event>
<event>
 4    1 -0.4926183E-019  0.1497301E+02  0.7818608E-02  0.1868893E+00
         -2   -1    0    0    0  501 -0.00000000000E+00  0.00000000000E+00  0.11998862146E+03  0.11998862148E+03  0.25500000000E-02 0. -1.
          2   -1    0    0  501    0  0.00000000000E+00 -0.00000000000E+00 -0.46710523107E+00  0.46711219144E+00  0.25500000000E-02 0.  1.
         31    1    1    2    0    0  0.26820639270E+00 -0.56491163312E+00  0.56183303040E+02  0.56678157401E+02  0.74470750000E+01 0.  1.
        -31    1    1    2    0    0 -0.26820639270E+00  0.56491163312E+00  0.63338213186E+02  0.63777576274E+02  0.74470750000E+01 0. -1.
<mgrwt>
<rscale>  0 0.14973007E+02</rscale>
<asrwt>0</asrwt>
<pdfrwt beam="2">  1        2 0.99210522E+00 0.14973007E+02</pdfrwt>
<pdfrwt beam="1">  1       -2 0.99601228E+00 0.14973007E+02</pdfrwt>
<totfact>-0.14077741E-13</totfact>
</mgrwt>
</event>
<event>
 4    1  0.4926183E-019  0.1496640E+02  0.7818608E-02  0.1869096E+00
          2   -1    0    0  501    0  0.00000000000E+00  0.00000000000E+00  0.12021109337E+03  0.12021109340E+03  0.25500000000E-02 0. -1.
         -2   -1    0    0    0  501 -0.00000000000E+00 -0.00000000000E+00 -0.46582907459E+00  0.46583605403E+00  0.25500000000E-02 0.  1.
         31    1    1    2    0    0 -0.14858415298E+00  0.44664561044E+00  0.64417795627E+02  0.64848538064E+02  0.74470750000E+01 0. -1.
        -31    1    1    2    0    0  0.14858415298E+00 -0.44664561044E+00  0.55327468671E+02  0.55828391390E+02  0.74470750000E+01 0.  1.
<mgrwt>
<rscale>  0 0.14966395E+02</rscale>
<asrwt>0</asrwt>
<pdfrwt beam="1">  1        2 0.99784129E+00 0.14966395E+02</pdfrwt>
<pdfrwt beam="2">  1       -2 0.98941234E+00 0.14966395E+02</pdfrwt>
<totfact> 0.25812050E-14</totfact>
</mgrwt>
</event>
<event>
 4    1  0.4926183E-019  0.1490949E+02  0.7818608E-02  0.1870843E+00
         -2   -1    0    0    0  501 -0.00000000000E+00  0.00000000000E+00  0.11891487767E+03  0.11891487770E+03  0.25500000000E-02 0. -1.
          2   -1    0    0  501    0  0.00000000000E+00 -0.00000000000E+00 -0.46733284386E+00  0.46733980084E+00  0.25500000000E-02 0.  1.
         31    1    1    2    0    0 -0.22825540925E+00 -0.47673572417E-01  0.57263325533E+02  0.57746010688E+02  0.74470750000E+01 0. -1.
        -31    1    1    2    0    0  0.22825540925E+00  0.47673572417E-01  0.61184219295E+02  0.61636206812E+02  0.74470750000E+01 0. -1.
<mgrwt>
<rscale>  0 0.14909493E+02</rscale>
<asrwt>0</asrwt>
<pdfrwt beam="2">  1        2 0.99255201E+00 0.14909493E+02</pdfrwt>
<pdfrwt beam="1">  1       -2 0.98713570E+00 0.14909493E+02</pdfrwt>
<totfact> 0.28287141E-13</totfact>
</mgrwt>
</event>
<event>
 4    1  0.4926183E-019  0.1492504E+02  0.7818608E-02  0.1870365E+00
          2   -1    0    0  501    0  0.00000000000E+00  0.00000000000E+00  0.12023120979E+03  0.12023120982E+03  0.25500000000E-02 0. -1.
         -2   -1    0    0    0  501 -0.00000000000E+00 -0.00000000000E+00 -0.46318047363E+00  0.46318749298E+00  0.25500000000E-02 0.  1.
         31    1    1    2    0    0 -0.32522974579E+00 -0.22247544824E+00  0.57669701136E+02  0.58149880696E+02  0.74470750000E+01 0.  1.
        -31    1    1    2    0    0  0.32522974579E+00  0.22247544824E+00  0.62098328184E+02  0.62544516618E+02  0.74470750000E+01 0.  1.
<mgrwt>
<rscale>  0 0.14925036E+02</rscale>
<asrwt>0</asrwt>
<pdfrwt beam="1">  1        2 0.99798572E+00 0.14925036E+02</pdfrwt>
<pdfrwt beam="2">  1       -2 0.98380907E+00 0.14925036E+02</pdfrwt>
<totfact> 0.36515245E-13</totfact>
</mgrwt>
</event>
<event>
 4    1 -0.4926183E-019  0.1497406E+02  0.7818608E-02  0.1868861E+00
          2   -1    0    0  501    0  0.00000000000E+00  0.00000000000E+00  0.11957089438E+03  0.11957089441E+03  0.25500000000E-02 0.  1.
         -2   -1    0    0    0  501 -0.00000000000E+00 -0.00000000000E+00 -0.46880317159E+00  0.46881010676E+00  0.25500000000E-02 0. -1.
         31    1    1    2    0    0  0.18883997104E+00 -0.44864516612E-01  0.65544869915E+02  0.65966859647E+02  0.74470750000E+01 0.  1.
        -31    1    1    2    0    0 -0.18883997104E+00  0.44864516612E-01  0.53557221294E+02  0.54072844869E+02  0.74470750000E+01 0. -1.
<mgrwt>
<rscale>  0 0.14974062E+02</rscale>
<asrwt>0</asrwt>
<pdfrwt beam="1">  1        2 0.99257226E+00 0.14974062E+02</pdfrwt>
<pdfrwt beam="2">  1       -2 0.99568393E+00 0.14974062E+02</pdfrwt>
<totfact>-0.14036223E-13</totfact>
</mgrwt>
</event>
<event>
 4    1 -0.4926183E-019  0.1499125E+02  0.7818608E-02  0.1868336E+00
          2   -1    0    0  501    0  0.00000000000E+00  0.00000000000E+00  0.11997764624E+03  0.11997764627E+03  0.25500000000E-02 0. -1.
         -2   -1    0    0    0  501 -0.00000000000E+00 -0.00000000000E+00 -0.46828702688E+00  0.46829396968E+00  0.25500000000E-02 0.  1.
         31    1    1    2    0    0 -0.70241419393E+00  0.31009176754E+00  0.62716823325E+02  0.63162080370E+02  0.74470750000E+01 0. -1.
        -31    1    1    2    0    0  0.70241419393E+00 -0.31009176754E+00  0.56792535890E+02  0.57283859869E+02  0.74470750000E+01 0. -1.
<mgrwt>
<rscale>  0 0.14991250E+02</rscale>
<asrwt>0</asrwt>
<pdfrwt beam="1">  1        2 0.99593131E+00 0.14991250E+02</pdfrwt>
<pdfrwt beam="2">  1       -2 0.99460514E+00 0.14991250E+02</pdfrwt>
<totfact>-0.10676855E-13</totfact>
</mgrwt>
</event>
<event>
 4    1 -0.4926183E-019  0.1495417E+02  0.7818608E-02  0.1869470E+00
          2   -1    0    0  501    0  0.00000000000E+00  0.00000000000E+00  0.11940984200E+03  0.11940984203E+03  0.25500000000E-02 0.  1.
         -2   -1    0    0    0  501 -0.00000000000E+00 -0.00000000000E+00 -0.46818918780E+00  0.46819613206E+00  0.25500000000E-02 0. -1.
         31    1    1    2    0    0 -0.30685229423E+00 -0.35360386641E-01  0.64230142333E+02  0.64661159276E+02  0.74470750000E+01 0.  1.
        -31    1    1    2    0    0  0.30685229423E+00  0.35360386641E-01  0.54711510479E+02  0.55216878884E+02  0.74470750000E+01 0. -1.
<mgrwt>
<rscale>  0 0.14954172E+02</rscale>
<asrwt>0</asrwt>
<pdfrwt beam="1">  1        2 0.99123549E+00 0.14954172E+02</pdfrwt>
<pdfrwt beam="2">  1       -2 0.99437977E+00 0.14954172E+02</pdfrwt>
<totfact>-0.15989381E-13</totfact>
</mgrwt>
</event>
<event>
 4    1 -0.4926183E-019  0.1496048E+02  0.7818608E-02  0.1869277E+00
         -2   -1    0    0    0  501 -0.00000000000E+00  0.00000000000E+00  0.12021146728E+03  0.12021146731E+03  0.25500000000E-02 0. -1.
          2   -1    0    0  501    0  0.00000000000E+00 -0.00000000000E+00 -0.46545945766E+00  0.46546644264E+00  0.25500000000E-02 0.  1.
         31    1    1    2    0    0 -0.18436653392E+00 -0.38223876464E-01  0.65341566211E+02  0.65764843594E+02  0.74470750000E+01 0. -1.
        -31    1    1    2    0    0  0.18436653392E+00  0.38223876464E-01  0.54404441611E+02  0.54912090155E+02  0.74470750000E+01 0.  1.
<mgrwt>
<rscale>  0 0.14960480E+02</rscale>
<asrwt>0</asrwt>
<pdfrwt beam="2">  1        2 0.98863033E+00 0.14960480E+02</pdfrwt>
<pdfrwt beam="1">  1       -2 0.99784132E+00 0.14960480E+02</pdfrwt>
<totfact>-0.13046106E-13</totfact>
</mgrwt>
</event>
<event>
 4    1 -0.4926183E-019  0.1501827E+02  0.7818608E-02  0.1867511E+00
         -2   -1    0    0    0  501 -0.00000000000E+00  0.00000000000E+00  0.12040303302E+03  0.12040303305E+03  0.25500000000E-02 0. -1.
          2   -1    0    0  501    0  0.00000000000E+00 -0.00000000000E+00 -0.46831618883E+00  0.46832313121E+00  0.25500000000E-02 0.  1.
         31    1    1    2    0    0 -0.57601528537E+00 -0.76689584451E+00  0.59235811772E+02  0.59709800244E+02  0.74470750000E+01 0.  1.
        -31    1    1    2    0    0  0.57601528537E+00  0.76689584451E+00  0.60698905059E+02  0.61161555934E+02  0.74470750000E+01 0.  1.
<mgrwt>
<rscale>  0 0.15018270E+02</rscale>
<asrwt>0</asrwt>
<pdfrwt beam="2">  1        2 0.99468050E+00 0.15018270E+02</pdfrwt>
<pdfrwt beam="1">  1       -2 0.99944894E+00 0.15018270E+02</pdfrwt>
<totfact>-0.22871774E-14</totfact>
</mgrwt>
</event>
<event>
 4    1 -0.4926183E-019  0.1498104E+02  0.7818608E-02  0.1868648E+00
          2   -1    0    0  501    0  0.00000000000E+00  0.00000000000E+00  0.11963089249E+03  0.11963089252E+03  0.25500000000E-02 0.  1.
         -2   -1    0    0    0  501 -0.00000000000E+00 -0.00000000000E+00 -0.46900466581E+00  0.46901159799E+00  0.25500000000E-02 0. -1.
         31    1    1    2    0    0  0.68653777183E+00 -0.42134024417E+00  0.59651242286E+02  0.60119701380E+02  0.74470750000E+01 0.  1.
        -31    1    1    2    0    0 -0.68653777183E+00  0.42134024417E+00  0.59510645539E+02  0.59980202736E+02  0.74470750000E+01 0.  1.
<mgrwt>
<rscale>  0 0.14981037E+02</rscale>
<asrwt>0</asrwt>
<pdfrwt beam="1">  1        2 0.99307004E+00 0.14981037E+02</pdfrwt>
<pdfrwt beam="2">  1       -2 0.99611215E+00 0.14981037E+02</pdfrwt>
<totfact>-0.12988286E-13</totfact>
</mgrwt>
</event>
<event>
 4    1 -0.4926183E-019  0.1497271E+02  0.7818608E-02  0.1868903E+00
          2   -1    0    0  501    0  0.00000000000E+00  0.00000000000E+00  0.11987915257E+03  0.11987915260E+03  0.25500000000E-02 0. -1.
         -2   -1    0    0    0  501 -0.00000000000E+00 -0.00000000000E+00 -0.46751300922E+00  0.46751996352E+00  0.25500000000E-02 0.  1.
         31    1    1    2    0    0 -0.73073638055E+00  0.22802918289E+00  0.59900132864E+02  0.60366139650E+02  0.74470750000E+01 0. -1.
        -31    1    1    2    0    0  0.73073638055E+00 -0.22802918289E+00  0.59511506697E+02  0.59980532912E+02  0.74470750000E+01 0.  1.
<mgrwt>
<rscale>  0 0.14972706E+02</rscale>
<asrwt>0</asrwt>
<pdfrwt beam="1">  1        2 0.99511049E+00 0.14972706E+02</pdfrwt>
<pdfrwt beam="2">  1       -2 0.99296443E+00 0.14972706E+02</pdfrwt>
<totfact>-0.10162517E-13</totfact>
</mgrwt>
</event>
<event>
 4    1  0.4926183E-019  0.1490457E+02  0.7818608E-02  0.1870995E+00
          2   -1    0    0  501    0  0.00000000000E+00  0.00000000000E+00  0.12029951945E+03  0.12029951948E+03  0.25500000000E-02 0. -1.
         -2   -1    0    0    0  501 -0.00000000000E+00 -0.00000000000E+00 -0.46164891592E+00  0.46165595856E+00  0.25500000000E-02 0.  1.
         31    1    1    2    0    0 -0.26054159128E-01 -0.97948311672E-01  0.62021957553E+02  0.62467530905E+02  0.74470750000E+01 0. -1.
        -31    1    1    2    0    0  0.26054159128E-01  0.97948311672E-01  0.57815912985E+02  0.58293644534E+02  0.74470750000E+01 0.  1.
<mgrwt>
<rscale>  0 0.14904572E+02</rscale>
<asrwt>0</asrwt>
<pdfrwt beam="1">  1        2 0.99853789E+00 0.14904572E+02</pdfrwt>
<pdfrwt beam="2">  1       -2 0.98057062E+00 0.14904572E+02</pdfrwt>
<totfact> 0.54640163E-13</totfact>
</mgrwt>
</event>
<event>
 4    1  0.4926183E-019  0.1491561E+02  0.7818608E-02  0.1870655E+00
          2   -1    0    0  501    0  0.00000000000E+00  0.00000000000E+00  0.11956807268E+03  0.11956807270E+03  0.25500000000E-02 0.  1.
         -2   -1    0    0    0  501 -0.00000000000E+00 -0.00000000000E+00 -0.46516135194E+00  0.46516834140E+00  0.25500000000E-02 0. -1.
         31    1    1    2    0    0 -0.30224562603E+00 -0.13825435482E+00  0.61341451818E+02  0.61792743133E+02  0.74470750000E+01 0.  1.
        -31    1    1    2    0    0  0.30224562603E+00  0.13825435482E+00  0.57761459507E+02  0.58240497913E+02  0.74470750000E+01 0. -1.
<mgrwt>
<rscale>  0 0.14915612E+02</rscale>
<asrwt>0</asrwt>
<pdfrwt beam="1">  1        2 0.99251882E+00 0.14915612E+02</pdfrwt>
<pdfrwt beam="2">  1       -2 0.98797912E+00 0.14915612E+02</pdfrwt>
<totfact> 0.18712571E-13</totfact>
</mgrwt>
</event>
<event>
 4    1  0.4926183E-019  0.1490195E+02  0.7818608E-02  0.1871075E+00
          2   -1    0    0  501    0  0.00000000000E+00  0.00000000000E+00  0.11932946597E+03  0.11932946599E+03  0.25500000000E-02 0.  1.
         -2   -1    0    0    0  501 -0.00000000000E+00 -0.00000000000E+00 -0.46523790696E+00  0.46524489527E+00  0.25500000000E-02 0. -1.
         31    1    1    2    0    0 -0.22379742939E+00 -0.24187751473E-01  0.60124334576E+02  0.60584199298E+02  0.74470750000E+01 0.  1.
        -31    1    1    2    0    0  0.22379742939E+00  0.24187751473E-01  0.58739893483E+02  0.59210511591E+02  0.74470750000E+01 0.  1.
<mgrwt>
<rscale>  0 0.14901948E+02</rscale>
<asrwt>0</asrwt>
<pdfrwt beam="1">  1        2 0.99054649E+00 0.14901948E+02</pdfrwt>
<pdfrwt beam="2">  1       -2 0.98813343E+00 0.14901948E+02</pdfrwt>
<totfact> 0.19923580E-13</totfact>
</mgrwt>
</event>
<event>
 4    1  0.4926183E-019  0.1489630E+02  0.7818608E-02  0.1871250E+00
          2   -1    0    0  501    0  0.00000000000E+00  0.00000000000E+00  0.12004468579E+03  0.12004468581E+03  0.25500000000E-02 0.  1.
         -2   -1    0    0    0  501 -0.00000000000E+00 -0.00000000000E+00 -0.46211530018E+00  0.46212233571E+00  0.25500000000E-02 0. -1.
         31    1    1    2    0    0 -0.82767639283E-01 -0.74942199745E-01  0.60271154900E+02  0.60729593328E+02  0.74470750000E+01 0.  1.
        -31    1    1    2    0    0  0.82767639283E-01  0.74942199745E-01  0.59311415586E+02  0.59777214820E+02  0.74470750000E+01 0. -1.
<mgrwt>
<rscale>  0 0.14896296E+02</rscale>
<asrwt>0</asrwt>
<pdfrwt beam="1">  1        2 0.99643460E+00 0.14896296E+02</pdfrwt>
<pdfrwt beam="2">  1       -2 0.98154947E+00 0.14896296E+02</pdfrwt>
<totfact> 0.88464901E-13</totfact>
</mgrwt>
</event>
<event>
 4    1 -0.4926183E-019  0.1500872E+02  0.7818608E-02  0.1867802E+00
         -2   -1    0    0    0  501 -0.00000000000E+00  0.00000000000E+00  0.12003982877E+03  0.12003982879E+03  0.25500000000E-02 0. -1.
          2   -1    0    0  501    0  0.00000000000E+00 -0.00000000000E+00 -0.46913614134E+00  0.46914307158E+00  0.25500000000E-02 0.  1.
         31    1    1    2    0    0  0.31880864250E-01 -0.25972150008E+00  0.66913068397E+02  0.67326711786E+02  0.74470750000E+01 0. -1.
        -31    1    1    2    0    0 -0.31880864250E-01  0.25972150008E+00  0.52657624227E+02  0.53182260078E+02  0.74470750000E+01 0.  1.
<mgrwt>
<rscale>  0 0.15008723E+02</rscale>
<asrwt>0</asrwt>
<pdfrwt beam="2">  1        2 0.99640355E+00 0.15008723E+02</pdfrwt>
<pdfrwt beam="1">  1       -2 0.99645250E+00 0.15008723E+02</pdfrwt>
<totfact>-0.87663958E-14</totfact>
</mgrwt>
</event>
<event>
 4    1 -0.4926183E-019  0.1502978E+02  0.7818608E-02  0.1867161E+00
         -2   -1    0    0    0  501 -0.00000000000E+00  0.00000000000E+00  0.12015076842E+03  0.12015076844E+03  0.25500000000E-02 0.  1.
          2   -1    0    0  501    0  0.00000000000E+00 -0.00000000000E+00 -0.47001917492E+00  0.47002609214E+00  0.25500000000E-02 0. -1.
         31    1    1    2    0    0 -0.57504592713E+00  0.30872077183E+00  0.53682852151E+02  0.54200862793E+02  0.74470750000E+01 0. -1.
        -31    1    1    2    0    0  0.57504592713E+00 -0.30872077183E+00  0.65997897091E+02  0.66419931744E+02  0.74470750000E+01 0.  1.
<mgrwt>
<rscale>  0 0.15029782E+02</rscale>
<asrwt>0</asrwt>
<pdfrwt beam="2">  1        2 0.99827529E+00 0.15029782E+02</pdfrwt>
<pdfrwt beam="1">  1       -2 0.99737712E+00 0.15029782E+02</pdfrwt>
<totfact>-0.42570556E-14</totfact>
</mgrwt>
</event>
<event>
 4    1  0.4926183E-019  0.1491549E+02  0.7818608E-02  0.1870658E+00
         -2   -1    0    0    0  501 -0.00000000000E+00  0.00000000000E+00  0.11879009960E+03  0.11879009962E+03  0.25500000000E-02 0. -1.
          2   -1    0    0  501    0  0.00000000000E+00 -0.00000000000E+00 -0.46820032731E+00  0.46820727140E+00  0.25500000000E-02 0.  1.
         31    1    1    2    0    0 -0.90477688246E-01  0.37003843035E+00  0.60104921762E+02  0.60565713574E+02  0.74470750000E+01 0. -1.
        -31    1    1    2    0    0  0.90477688246E-01 -0.37003843035E+00  0.58216977507E+02  0.58692593321E+02  0.74470750000E+01 0.  1.
<mgrwt>
<rscale>  0 0.14915493E+02</rscale>
<asrwt>0</asrwt>
<pdfrwt beam="2">  1        2 0.99438307E+00 0.14915493E+02</pdfrwt>
<pdfrwt beam="1">  1       -2 0.98611112E+00 0.14915493E+02</pdfrwt>
<totfact> 0.36417335E-13</totfact>
</mgrwt>
</event>
<event>
 4    1  0.4926183E-019  0.1491032E+02  0.7818608E-02  0.1870817E+00
          2   -1    0    0  501    0  0.00000000000E+00  0.00000000000E+00  0.12026311266E+03  0.12026311269E+03  0.25500000000E-02 0.  1.
         -2   -1    0    0    0  501 -0.00000000000E+00 -0.00000000000E+00 -0.46214513903E+00  0.46215217410E+00  0.25500000000E-02 0. -1.
         31    1    1    2    0    0  0.50169048034E-01 -0.34264558143E+00  0.59703776656E+02  0.60167431356E+02  0.74470750000E+01 0. -1.
        -31    1    1    2    0    0 -0.50169048034E-01  0.34264558143E+00  0.60097190869E+02  0.60557833509E+02  0.74470750000E+01 0. -1.
<mgrwt>
<rscale>  0 0.14910324E+02</rscale>
<asrwt>0</asrwt>
<pdfrwt beam="1">  1        2 0.99824096E+00 0.14910324E+02</pdfrwt>
<pdfrwt beam="2">  1       -2 0.98161944E+00 0.14910324E+02</pdfrwt>
<totfact> 0.52452956E-13</totfact>
</mgrwt>
</event>
<event>
 4    1 -0.4926183E-019  0.1489816E+02  0.7818608E-02  0.1871192E+00
          2   -1    0    0  501    0  0.00000000000E+00  0.00000000000E+00  0.11833862179E+03  0.11833862182E+03  0.25500000000E-02 0.  1.
         -2   -1    0    0    0  501 -0.00000000000E+00 -0.00000000000E+00 -0.46889483775E+00  0.46890177155E+00  0.25500000000E-02 0. -1.
         31    1    1    2    0    0 -0.94194500969E-01 -0.13387434086E+00  0.58493627681E+02  0.58966008855E+02  0.74470750000E+01 0. -1.
        -31    1    1    2    0    0  0.94194500969E-01  0.13387434086E+00  0.59376099271E+02  0.59841514734E+02  0.74470750000E+01 0.  1.
<mgrwt>
<rscale>  0 0.14898159E+02</rscale>
<asrwt>0</asrwt>
<pdfrwt beam="1">  1        2 0.98238373E+00 0.14898159E+02</pdfrwt>
<pdfrwt beam="2">  1       -2 0.99583734E+00 0.14898159E+02</pdfrwt>
<totfact>-0.51260033E-13</totfact>
</mgrwt>
</event>
<event>
 4    1 -0.4926183E-019  0.1491626E+02  0.7818608E-02  0.1870635E+00
          2   -1    0    0  501    0  0.00000000000E+00  0.00000000000E+00  0.11846097598E+03  0.11846097601E+03  0.25500000000E-02 0. -1.
         -2   -1    0    0    0  501 -0.00000000000E+00 -0.00000000000E+00 -0.46954977710E+00  0.46955670123E+00  0.25500000000E-02 0.  1.
         31    1    1    2    0    0 -0.35071804373E+00  0.19010667762E+00  0.58395414865E+02  0.58869708229E+02  0.74470750000E+01 0.  1.
        -31    1    1    2    0    0  0.35071804373E+00 -0.19010667762E+00  0.59596011337E+02  0.60060824478E+02  0.74470750000E+01 0.  1.
<mgrwt>
<rscale>  0 0.14916265E+02</rscale>
<asrwt>0</asrwt>
<pdfrwt beam="1">  1        2 0.98340086E+00 0.14916265E+02</pdfrwt>
<pdfrwt beam="2">  1       -2 0.99722686E+00 0.14916265E+02</pdfrwt>
<totfact>-0.34389401E-13</totfact>
</mgrwt>
</event>
<event>
 4    1 -0.4926183E-019  0.1492273E+02  0.7818608E-02  0.1870436E+00
          2   -1    0    0  501    0  0.00000000000E+00  0.00000000000E+00  0.11877932619E+03  0.11877932622E+03  0.25500000000E-02 0. -1.
         -2   -1    0    0    0  501 -0.00000000000E+00 -0.00000000000E+00 -0.46869726458E+00  0.46870420131E+00  0.25500000000E-02 0.  1.
         31    1    1    2    0    0  0.43682224975E+00  0.13239565840E+00  0.59702694991E+02  0.60167092813E+02  0.74470750000E+01 0. -1.
        -31    1    1    2    0    0 -0.43682224975E+00 -0.13239565840E+00  0.58607933938E+02  0.59080937610E+02  0.74470750000E+01 0. -1.
<mgrwt>
<rscale>  0 0.14922729E+02</rscale>
<asrwt>0</asrwt>
<pdfrwt beam="1">  1        2 0.98602615E+00 0.14922729E+02</pdfrwt>
<pdfrwt beam="2">  1       -2 0.99543397E+00 0.14922729E+02</pdfrwt>
<totfact>-0.29015169E-13</totfact>
</mgrwt>
</event>
<event>
 4    1  0.4926183E-019  0.1491439E+02  0.7818608E-02  0.1870692E+00
          2   -1    0    0  501    0  0.00000000000E+00  0.00000000000E+00  0.11991057840E+03  0.11991057842E+03  0.25500000000E-02 0.  1.
         -2   -1    0    0    0  501 -0.00000000000E+00 -0.00000000000E+00 -0.46375679381E+00  0.46376380444E+00  0.25500000000E-02 0. -1.
         31    1    1    2    0    0 -0.51501790286E-02 -0.38217058504E+00  0.60280371163E+02  0.60739839928E+02  0.74470750000E+01 0. -1.
        -31    1    1    2    0    0  0.51501790286E-02  0.38217058504E+00  0.59166450439E+02  0.59634502299E+02  0.74470750000E+01 0. -1.
<mgrwt>
<rscale>  0 0.14914392E+02</rscale>
<asrwt>0</asrwt>
<pdfrwt beam="1">  1        2 0.99533928E+00 0.14914392E+02</pdfrwt>
<pdfrwt beam="2">  1       -2 0.98501835E+00 0.14914392E+02</pdfrwt>
<totfact> 0.46480669E-13</totfact>
</mgrwt>
</event>
<event>
 4    1 -0.4926183E-019  0.1501987E+02  0.7818608E-02  0.1867463E+00
          2   -1    0    0  501    0  0.00000000000E+00  0.00000000000E+00  0.11981928447E+03  0.11981928450E+03  0.25500000000E-02 0.  1.
         -2   -1    0    0    0  501 -0.00000000000E+00 -0.00000000000E+00 -0.47069801857E+00  0.47070492581E+00  0.25500000000E-02 0. -1.
         31    1    1    2    0    0 -0.32558441540E+00  0.91266558828E+00  0.59954840047E+02  0.60423345942E+02  0.74470750000E+01 0.  1.
        -31    1    1    2    0    0  0.32558441540E+00 -0.91266558828E+00  0.59393746405E+02  0.59866643482E+02  0.74470750000E+01 0.  1.
<mgrwt>
<rscale>  0 0.15019869E+02</rscale>
<asrwt>0</asrwt>
<pdfrwt beam="1">  1        2 0.99464180E+00 0.15019869E+02</pdfrwt>
<pdfrwt beam="2">  1       -2 0.99970065E+00 0.15019869E+02</pdfrwt>
<totfact>-0.12708542E-14</totfact>
</mgrwt>
</event>
<event>
 4    1 -0.4926183E-019  0.1492798E+02  0.7818608E-02  0.1870274E+00
         -2   -1    0    0    0  501 -0.00000000000E+00  0.00000000000E+00  0.11978287993E+03  0.11978287996E+03  0.25500000000E-02 0. -1.
          2   -1    0    0  501    0  0.00000000000E+00 -0.00000000000E+00 -0.46509761125E+00  0.46510460167E+00  0.25500000000E-02 0.  1.
         31    1    1    2    0    0 -0.38713298964E+00 -0.67215477327E-01  0.57139306176E+02  0.57623898048E+02  0.74470750000E+01 0.  1.
        -31    1    1    2    0    0  0.38713298964E+00  0.67215477327E-01  0.62178476144E+02  0.62624086513E+02  0.74470750000E+01 0.  1.
<mgrwt>
<rscale>  0 0.14927981E+02</rscale>
<asrwt>0</asrwt>
<pdfrwt beam="2">  1        2 0.98785113E+00 0.14927981E+02</pdfrwt>
<pdfrwt beam="1">  1       -2 0.99429447E+00 0.14927981E+02</pdfrwt>
<totfact>-0.22614886E-13</totfact>
</mgrwt>
</event>
<event>
 4    1  0.4926183E-019  0.1495567E+02  0.7818608E-02  0.1869424E+00
          2   -1    0    0  501    0  0.00000000000E+00  0.00000000000E+00  0.12028806477E+03  0.12028806480E+03  0.25500000000E-02 0.  1.
         -2   -1    0    0    0  501 -0.00000000000E+00 -0.00000000000E+00 -0.46486399358E+00  0.46487098751E+00  0.25500000000E-02 0. -1.
         31    1    1    2    0    0 -0.64601093182E+00 -0.28035426870E-01  0.58277288608E+02  0.58754739465E+02  0.74470750000E+01 0. -1.
        -31    1    1    2    0    0  0.64601093182E+00  0.28035426870E-01  0.61545912170E+02  0.61998196320E+02  0.74470750000E+01 0. -1.
<mgrwt>
<rscale>  0 0.14955670E+02</rscale>
<asrwt>0</asrwt>
<pdfrwt beam="1">  1        2 0.99846976E+00 0.14955670E+02</pdfrwt>
<pdfrwt beam="2">  1       -2 0.98737289E+00 0.14955670E+02</pdfrwt>
<totfact> 0.92375322E-14</totfact>
</mgrwt>
</event>
<event>
 4    1  0.4926183E-019  0.1492068E+02  0.7818608E-02  0.1870499E+00
          2   -1    0    0  501    0  0.00000000000E+00  0.00000000000E+00  0.12016073627E+03  0.12016073629E+03  0.25500000000E-02 0.  1.
         -2   -1    0    0    0  501 -0.00000000000E+00 -0.00000000000E+00 -0.46318150282E+00  0.46318852215E+00  0.25500000000E-02 0. -1.
         31    1    1    2    0    0  0.46587162289E-01 -0.27397862544E+00  0.57042511339E+02  0.57527247984E+02  0.74470750000E+01 0. -1.
        -31    1    1    2    0    0 -0.46587162289E-01  0.27397862544E+00  0.62655043424E+02  0.63096676832E+02  0.74470750000E+01 0.  1.
<mgrwt>
<rscale>  0 0.14920678E+02</rscale>
<asrwt>0</asrwt>
<pdfrwt beam="1">  1        2 0.99740301E+00 0.14920678E+02</pdfrwt>
<pdfrwt beam="2">  1       -2 0.98380903E+00 0.14920678E+02</pdfrwt>
<totfact> 0.44152541E-13</totfact>
</mgrwt>
</event>
<event>
 4    1  0.4926183E-019  0.1489682E+02  0.7818608E-02  0.1871234E+00
         -2   -1    0    0    0  501 -0.00000000000E+00  0.00000000000E+00  0.11877753103E+03  0.11877753106E+03  0.25500000000E-02 0. -1.
          2   -1    0    0  501    0  0.00000000000E+00 -0.00000000000E+00 -0.46707793035E+00  0.46708489113E+00  0.25500000000E-02 0.  1.
         31    1    1    2    0    0 -0.71990108533E-01  0.12084766418E+00  0.59089594208E+02  0.59557189797E+02  0.74470750000E+01 0. -1.
        -31    1    1    2    0    0  0.71990108533E-01 -0.12084766418E+00  0.59220858893E+02  0.59687426154E+02  0.74470750000E+01 0.  1.
<mgrwt>
<rscale>  0 0.14896816E+02</rscale>
<asrwt>0</asrwt>
<pdfrwt beam="2">  1        2 0.99200824E+00 0.14896816E+02</pdfrwt>
<pdfrwt beam="1">  1       -2 0.98599792E+00 0.14896816E+02</pdfrwt>
<totfact> 0.45262910E-13</totfact>
</mgrwt>
</event>
<event>
 4    1 -0.4926183E-019  0.1502306E+02  0.7818608E-02  0.1867366E+00
         -2   -1    0    0    0  501 -0.00000000000E+00  0.00000000000E+00  0.12031719356E+03  0.12031719359E+03  0.25500000000E-02 0.  1.
          2   -1    0    0  501    0  0.00000000000E+00 -0.00000000000E+00 -0.46894921099E+00  0.46895614399E+00  0.25500000000E-02 0. -1.
         31    1    1    2    0    0 -0.77701132146E+00  0.39608475103E+00  0.56297020717E+02  0.56794137879E+02  0.74470750000E+01 0. -1.
        -31    1    1    2    0    0  0.77701132146E+00 -0.39608475103E+00  0.63551223636E+02  0.63992011856E+02  0.74470750000E+01 0.  1.
<mgrwt>
<rscale>  0 0.15023059E+02</rscale>
<asrwt>0</asrwt>
<pdfrwt beam="2">  1        2 0.99601702E+00 0.15023059E+02</pdfrwt>
<pdfrwt beam="1">  1       -2 0.99874440E+00 0.15023059E+02</pdfrwt>
<totfact>-0.42082411E-14</totfact>
</mgrwt>
</event>
<event>
 4    1  0.4926183E-019  0.1491717E+02  0.7818608E-02  0.1870607E+00
          2   -1    0    0  501    0  0.00000000000E+00  0.00000000000E+00  0.11957499089E+03  0.11957499091E+03  0.25500000000E-02 0.  1.
         -2   -1    0    0    0  501 -0.00000000000E+00 -0.00000000000E+00 -0.46523162837E+00  0.46523861677E+00  0.25500000000E-02 0. -1.
         31    1    1    2    0    0 -0.12758597701E-01 -0.61813245302E-01  0.62849082112E+02  0.63288782830E+02  0.74470750000E+01 0.  1.
        -31    1    1    2    0    0  0.12758597701E-01  0.61813245302E-01  0.56260677147E+02  0.56751446702E+02  0.74470750000E+01 0. -1.
<mgrwt>
<rscale>  0 0.14917170E+02</rscale>
<asrwt>0</asrwt>
<pdfrwt beam="1">  1        2 0.99257661E+00 0.14917170E+02</pdfrwt>
<pdfrwt beam="2">  1       -2 0.98812802E+00 0.14917170E+02</pdfrwt>
<totfact> 0.17082393E-13</totfact>
</mgrwt>
</event>
<event>
 4    1 -0.4926183E-019  0.1498178E+02  0.7818608E-02  0.1868625E+00
         -2   -1    0    0    0  501 -0.00000000000E+00  0.00000000000E+00  0.11977390941E+03  0.11977390944E+03  0.25500000000E-02 0.  1.
          2   -1    0    0  501    0  0.00000000000E+00 -0.00000000000E+00 -0.46849111053E+00  0.46849805032E+00  0.25500000000E-02 0. -1.
         31    1    1    2    0    0 -0.93550841736E-01  0.78169172602E+00  0.58157412551E+02  0.58637559247E+02  0.74470750000E+01 0.  1.
        -31    1    1    2    0    0  0.93550841736E-01 -0.78169172602E+00  0.61148005753E+02  0.61604848245E+02  0.74470750000E+01 0.  1.
<mgrwt>
<rscale>  0 0.14981780E+02</rscale>
<asrwt>0</asrwt>
<pdfrwt beam="2">  1        2 0.99503032E+00 0.14981780E+02</pdfrwt>
<pdfrwt beam="1">  1       -2 0.99424835E+00 0.14981780E+02</pdfrwt>
<totfact>-0.11794467E-13</totfact>
</mgrwt>
</event>
<event>
 4    1 -0.4926183E-019  0.1492191E+02  0.7818608E-02  0.1870461E+00
          2   -1    0    0  501    0  0.00000000000E+00  0.00000000000E+00  0.11871210327E+03  0.11871210330E+03  0.25500000000E-02 0. -1.
         -2   -1    0    0    0  501 -0.00000000000E+00 -0.00000000000E+00 -0.46891133037E+00  0.46891826393E+00  0.25500000000E-02 0.  1.
         31    1    1    2    0    0  0.19849913072E+00 -0.40891622713E+00  0.58977688405E+02  0.59447735618E+02  0.74470750000E+01 0.  1.
        -31    1    1    2    0    0 -0.19849913072E+00  0.40891622713E+00  0.59265503534E+02  0.59733285943E+02  0.74470750000E+01 0.  1.
<mgrwt>
<rscale>  0 0.14921912E+02</rscale>
<asrwt>0</asrwt>
<pdfrwt beam="1">  1        2 0.98547207E+00 0.14921912E+02</pdfrwt>
<pdfrwt beam="2">  1       -2 0.99588460E+00 0.14921912E+02</pdfrwt>
<totfact>-0.30559245E-13</totfact>
</mgrwt>
</event>
<event>
 4    1 -0.4926183E-019  0.1490005E+02  0.7818608E-02  0.1871134E+00
         -2   -1    0    0    0  501 -0.00000000000E+00  0.00000000000E+00  0.12032394062E+03  0.12032394064E+03  0.25500000000E-02 0. -1.
          2   -1    0    0  501    0  0.00000000000E+00 -0.00000000000E+00 -0.46127535680E+00  0.46128240514E+00  0.25500000000E-02 0.  1.
         31    1    1    2    0    0 -0.19084107614E+00  0.85624776607E-01  0.60051012007E+02  0.60511376790E+02  0.74470750000E+01 0. -1.
        -31    1    1    2    0    0  0.19084107614E+00 -0.85624776607E-01  0.59811653254E+02  0.60273846260E+02  0.74470750000E+01 0. -1.
<mgrwt>
<rscale>  0 0.14900053E+02</rscale>
<asrwt>0</asrwt>
<pdfrwt beam="2">  1        2 0.97978096E+00 0.14900053E+02</pdfrwt>
<pdfrwt beam="1">  1       -2 0.99873673E+00 0.14900053E+02</pdfrwt>
<totfact>-0.33316657E-13</totfact>
</mgrwt>
</event>
<event>
 4    1 -0.4926183E-019  0.1496175E+02  0.7818608E-02  0.1869238E+00
          2   -1    0    0  501    0  0.00000000000E+00  0.00000000000E+00  0.11938487685E+03  0.11938487688E+03  0.25500000000E-02 0.  1.
         -2   -1    0    0    0  501 -0.00000000000E+00 -0.00000000000E+00 -0.46876181685E+00  0.46876875262E+00  0.25500000000E-02 0. -1.
         31    1    1    2    0    0 -0.65543977070E+00  0.87877463153E-01  0.61535266979E+02  0.61987783732E+02  0.74470750000E+01 0.  1.
        -31    1    1    2    0    0  0.65543977070E+00 -0.87877463153E-01  0.57380848054E+02  0.57865861898E+02  0.74470750000E+01 0. -1.
<mgrwt>
<rscale>  0 0.14961750E+02</rscale>
<asrwt>0</asrwt>
<pdfrwt beam="1">  1        2 0.99103380E+00 0.14961750E+02</pdfrwt>
<pdfrwt beam="2">  1       -2 0.99559038E+00 0.14961750E+02</pdfrwt>
<totfact>-0.15865633E-13</totfact>
</mgrwt>
</event>
<event>
 4    1 -0.4926183E-019  0.1494329E+02  0.7818608E-02  0.1869804E+00
         -2   -1    0    0    0  501 -0.00000000000E+00  0.00000000000E+00  0.11972433179E+03  0.11972433181E+03  0.25500000000E-02 0. -1.
          2   -1    0    0  501    0  0.00000000000E+00 -0.00000000000E+00 -0.46627989686E+00  0.46628686956E+00  0.25500000000E-02 0.  1.
         31    1    1    2    0    0  0.43757815806E+00  0.38034632231E-01  0.62980433642E+02  0.63420713249E+02  0.74470750000E+01 0. -1.
        -31    1    1    2    0    0 -0.43757815806E+00 -0.38034632231E-01  0.56277618248E+02  0.56769905434E+02  0.74470750000E+01 0.  1.
<mgrwt>
<rscale>  0 0.14943289E+02</rscale>
<asrwt>0</asrwt>
<pdfrwt beam="2">  1        2 0.99035061E+00 0.14943289E+02</pdfrwt>
<pdfrwt beam="1">  1       -2 0.99382013E+00 0.14943289E+02</pdfrwt>
<totfact>-0.16688164E-13</totfact>
</mgrwt>
</event>
<event>
 4    1  0.4926183E-019  0.1492323E+02  0.7818608E-02  0.1870420E+00
          2   -1    0    0  501    0  0.00000000000E+00  0.00000000000E+00  0.11996654334E+03  0.11996654336E+03  0.25500000000E-02 0. -1.
         -2   -1    0    0    0  501 -0.00000000000E+00 -0.00000000000E+00 -0.46408975470E+00  0.46409676030E+00  0.25500000000E-02 0.  1.
         31    1    1    2    0    0  0.12107143775E-01 -0.31769985631E+00  0.62495759010E+02  0.62938699543E+02  0.74470750000E+01 0. -1.
        -31    1    1    2    0    0 -0.12107143775E-01  0.31769985631E+00  0.57006694571E+02  0.57491940580E+02  0.74470750000E+01 0.  1.
<mgrwt>
<rscale>  0 0.14923226E+02</rscale>
<asrwt>0</asrwt>
<pdfrwt beam="1">  1        2 0.99580479E+00 0.14923226E+02</pdfrwt>
<pdfrwt beam="2">  1       -2 0.98572459E+00 0.14923226E+02</pdfrwt>
<totfact> 0.35483600E-13</totfact>
</mgrwt>
</event>
<event>
 4    1  0.4926183E-019  0.1494219E+02  0.7818608E-02  0.1869838E+00
         -2   -1    0    0    0  501 -0.00000000000E+00  0.00000000000E+00  0.11904813251E+03  0.11904813253E+03  0.25500000000E-02 0. -1.
          2   -1    0    0  501    0  0.00000000000E+00 -0.00000000000E+00 -0.46885952722E+00  0.46886646155E+00  0.25500000000E-02 0.  1.
         31    1    1    2    0    0  0.64397716619E-01 -0.41599182955E+00  0.55885332328E+02  0.56380905383E+02  0.74470750000E+01 0.  1.
        -31    1    1    2    0    0 -0.64397716619E-01  0.41599182955E+00  0.62693940652E+02  0.63136093613E+02  0.74470750000E+01 0. -1.
<mgrwt>
<rscale>  0 0.14942191E+02</rscale>
<asrwt>0</asrwt>
<pdfrwt beam="2">  1        2 0.99578607E+00 0.14942191E+02</pdfrwt>
<pdfrwt beam="1">  1       -2 0.98825017E+00 0.14942191E+02</pdfrwt>
<totfact> 0.11866224E-13</totfact>
</mgrwt>
</event>
<event>
 4    1 -0.4926183E-019  0.1492797E+02  0.7818608E-02  0.1870274E+00
          2   -1    0    0  501    0  0.00000000000E+00  0.00000000000E+00  0.11903093945E+03  0.11903093948E+03  0.25500000000E-02 0.  1.
         -2   -1    0    0    0  501 -0.00000000000E+00 -0.00000000000E+00 -0.46803533218E+00  0.46804227872E+00  0.25500000000E-02 0. -1.
         31    1    1    2    0    0  0.25406067148E-01 -0.48266176710E+00  0.58190648240E+02  0.58667231709E+02  0.74470750000E+01 0.  1.
        -31    1    1    2    0    0 -0.25406067148E-01  0.48266176710E+00  0.60372255880E+02  0.60831750048E+02  0.74470750000E+01 0.  1.
<mgrwt>
<rscale>  0 0.14927974E+02</rscale>
<asrwt>0</asrwt>
<pdfrwt beam="1">  1        2 0.98810119E+00 0.14927974E+02</pdfrwt>
<pdfrwt beam="2">  1       -2 0.99404192E+00 0.14927974E+02</pdfrwt>
<totfact>-0.21623915E-13</totfact>
</mgrwt>
</event>
<event>
 4    1 -0.4926183E-019  0.1494194E+02  0.7818608E-02  0.1869845E+00
          2   -1    0    0  501    0  0.00000000000E+00  0.00000000000E+00  0.11873652174E+03  0.11873652177E+03  0.25500000000E-02 0.  1.
         -2   -1    0    0    0  501 -0.00000000000E+00 -0.00000000000E+00 -0.47007415546E+00  0.47008107187E+00  0.25500000000E-02 0. -1.
         31    1    1    2    0    0 -0.40927159760E+00 -0.38943581923E+00  0.57592532093E+02  0.58074760803E+02  0.74470750000E+01 0.  1.
        -31    1    1    2    0    0  0.40927159760E+00  0.38943581923E+00  0.60673915492E+02  0.61131842035E+02  0.74470750000E+01 0. -1.
<mgrwt>
<rscale>  0 0.14941939E+02</rscale>
<asrwt>0</asrwt>
<pdfrwt beam="1">  1        2 0.98568360E+00 0.14941939E+02</pdfrwt>
<pdfrwt beam="2">  1       -2 0.99834527E+00 0.14941939E+02</pdfrwt>
<totfact>-0.15814714E-13</totfact>
</mgrwt>
</event>
<event>
 4    1  0.4926183E-019  0.1490410E+02  0.7818608E-02  0.1871009E+00
          2   -1    0    0  501    0  0.00000000000E+00  0.00000000000E+00  0.12028195767E+03  0.12028195769E+03  0.25500000000E-02 0. -1.
         -2   -1    0    0    0  501 -0.00000000000E+00 -0.00000000000E+00 -0.46168674238E+00  0.46169378444E+00  0.25500000000E-02 0.  1.
         31    1    1    2    0    0  0.16152461450E+00 -0.16207769587E+00  0.58715998935E+02  0.59186821307E+02  0.74470750000E+01 0.  1.
        -31    1    1    2    0    0 -0.16152461450E+00  0.16207769587E+00  0.61104271989E+02  0.61556830172E+02  0.74470750000E+01 0. -1.
<mgrwt>
<rscale>  0 0.14904095E+02</rscale>
<asrwt>0</asrwt>
<pdfrwt beam="1">  1        2 0.99839299E+00 0.14904095E+02</pdfrwt>
<pdfrwt beam="2">  1       -2 0.98065011E+00 0.14904095E+02</pdfrwt>
<totfact> 0.58274136E-13</totfact>
</mgrwt>
</event>
<event>
 4    1  0.4926183E-019  0.1492670E+02  0.7818608E-02  0.1870314E+00
         -2   -1    0    0    0  501 -0.00000000000E+00  0.00000000000E+00  0.11902935067E+03  0.11902935070E+03  0.25500000000E-02 0.  1.
          2   -1    0    0  501    0  0.00000000000E+00 -0.00000000000E+00 -0.46796143441E+00  0.46796838204E+00  0.25500000000E-02 0. -1.
         31    1    1    2    0    0 -0.32234483034E+00  0.66973013182E-01  0.56347484323E+02  0.56838422807E+02  0.74470750000E+01 0. -1.
        -31    1    1    2    0    0  0.32234483034E+00 -0.66973013182E-01  0.62213904916E+02  0.62658896276E+02  0.74470750000E+01 0.  1.
<mgrwt>
<rscale>  0 0.14926696E+02</rscale>
<asrwt>0</asrwt>
<pdfrwt beam="2">  1        2 0.99388554E+00 0.14926696E+02</pdfrwt>
<pdfrwt beam="1">  1       -2 0.98808744E+00 0.14926696E+02</pdfrwt>
<totfact> 0.15889059E-13</totfact>
</mgrwt>
</event>
<event>
 4    1 -0.4926183E-019  0.1495478E+02  0.7818608E-02  0.1869452E+00
         -2   -1    0    0    0  501 -0.00000000000E+00  0.00000000000E+00  0.11996696348E+03  0.11996696351E+03  0.25500000000E-02 0. -1.
          2   -1    0    0  501    0  0.00000000000E+00 -0.00000000000E+00 -0.46605270145E+00  0.46605967754E+00  0.25500000000E-02 0.  1.
         31    1    1    2    0    0 -0.14833750823E+00 -0.65145631962E+00  0.59125429768E+02  0.59596323466E+02  0.74470750000E+01 0.  1.
        -31    1    1    2    0    0  0.14833750823E+00  0.65145631962E+00  0.60375481014E+02  0.60836699722E+02  0.74470750000E+01 0.  1.
<mgrwt>
<rscale>  0 0.14954778E+02</rscale>
<asrwt>0</asrwt>
<pdfrwt beam="2">  1        2 0.98987770E+00 0.14954778E+02</pdfrwt>
<pdfrwt beam="1">  1       -2 0.99582450E+00 0.14954778E+02</pdfrwt>
<totfact>-0.17254576E-13</totfact>
</mgrwt>
</event>
<event>
 4    1  0.4926183E-019  0.1491664E+02  0.7818608E-02  0.1870623E+00
          2   -1    0    0  501    0  0.00000000000E+00  0.00000000000E+00  0.11971598058E+03  0.11971598060E+03  0.25500000000E-02 0. -1.
         -2   -1    0    0    0  501 -0.00000000000E+00 -0.00000000000E+00 -0.46465085319E+00  0.46465785033E+00  0.25500000000E-02 0.  1.
         31    1    1    2    0    0 -0.60854228376E-01  0.98010977076E-01  0.56460667443E+02  0.56949795465E+02  0.74470750000E+01 0.  1.
        -31    1    1    2    0    0  0.60854228376E-01 -0.98010977076E-01  0.62790662280E+02  0.63230842988E+02  0.74470750000E+01 0. -1.
<mgrwt>
<rscale>  0 0.14916642E+02</rscale>
<asrwt>0</asrwt>
<pdfrwt beam="1">  1        2 0.99373760E+00 0.14916642E+02</pdfrwt>
<pdfrwt beam="2">  1       -2 0.98690378E+00 0.14916642E+02</pdfrwt>
<totfact> 0.28583371E-13</totfact>
</mgrwt>
</event>
<event>
 4    1 -0.4926183E-019  0.1493901E+02  0.7818608E-02  0.1869935E+00
         -2   -1    0    0    0  501 -0.00000000000E+00  0.00000000000E+00  0.11999688342E+03  0.11999688345E+03  0.25500000000E-02 0. -1.
          2   -1    0    0  501    0  0.00000000000E+00 -0.00000000000E+00 -0.46495414143E+00  0.46496113400E+00  0.25500000000E-02 0.  1.
         31    1    1    2    0    0  0.45058939886E+00  0.21139053268E+00  0.62142024838E+02  0.62588640294E+02  0.74470750000E+01 0. -1.
        -31    1    1    2    0    0 -0.45058939886E+00 -0.21139053268E+00  0.57389904440E+02  0.57873204287E+02  0.74470750000E+01 0.  1.
<mgrwt>
<rscale>  0 0.14939005E+02</rscale>
<asrwt>0</asrwt>
<pdfrwt beam="2">  1        2 0.98755440E+00 0.14939005E+02</pdfrwt>
<pdfrwt beam="1">  1       -2 0.99606281E+00 0.14939005E+02</pdfrwt>
<totfact>-0.22053695E-13</totfact>
</mgrwt>
</event>
<event>
 4    1 -0.4926183E-019  0.1498827E+02  0.7818608E-02  0.1868427E+00
         -2   -1    0    0    0  501 -0.00000000000E+00  0.00000000000E+00  0.11951623047E+03  0.11951623050E+03  0.25500000000E-02 0. -1.
          2   -1    0    0  501    0  0.00000000000E+00 -0.00000000000E+00 -0.46990802574E+00  0.46991494460E+00  0.25500000000E-02 0.  1.
         31    1    1    2    0    0 -0.17633612286E+00 -0.14978687027E-01  0.52961676331E+02  0.53482982384E+02  0.74470750000E+01 0.  1.
        -31    1    1    2    0    0  0.17633612286E+00  0.14978687027E-01  0.66084646113E+02  0.66503163059E+02  0.74470750000E+01 0. -1.
<mgrwt>
<rscale>  0 0.14988269E+02</rscale>
<asrwt>0</asrwt>
<pdfrwt beam="2">  1        2 0.99801950E+00 0.14988269E+02</pdfrwt>
<pdfrwt beam="1">  1       -2 0.99212940E+00 0.14988269E+02</pdfrwt>
<totfact>-0.45033443E-14</totfact>
</mgrwt>
</event>
<event>
 4    1 -0.4926183E-019  0.1500068E+02  0.7818608E-02  0.1868048E+00
          2   -1    0    0  501    0  0.00000000000E+00  0.00000000000E+00  0.11990014451E+03  0.11990014453E+03  0.25500000000E-02 0.  1.
         -2   -1    0    0    0  501 -0.00000000000E+00 -0.00000000000E+00 -0.46917932010E+00  0.46918624971E+00  0.25500000000E-02 0. -1.
         31    1    1    2    0    0  0.40240346660E+00 -0.62544702764E-01  0.66086160873E+02  0.66505679647E+02  0.74470750000E+01 0.  1.
        -31    1    1    2    0    0 -0.40240346660E+00  0.62544702764E-01  0.53344804313E+02  0.53863651136E+02  0.74470750000E+01 0. -1.
<mgrwt>
<rscale>  0 0.15000678E+02</rscale>
<asrwt>0</asrwt>
<pdfrwt beam="1">  1        2 0.99529785E+00 0.15000678E+02</pdfrwt>
<pdfrwt beam="2">  1       -2 0.99649038E+00 0.15000678E+02</pdfrwt>
<totfact>-0.10167729E-13</totfact>
</mgrwt>
</event>
<event>
 4    1  0.4926183E-019  0.1490417E+02  0.7818608E-02  0.1871007E+00
         -2   -1    0    0    0  501 -0.00000000000E+00  0.00000000000E+00  0.11810430402E+03  0.11810430404E+03  0.25500000000E-02 0. -1.
          2   -1    0    0  501    0  0.00000000000E+00 -0.00000000000E+00 -0.47020437924E+00  0.47021129374E+00  0.25500000000E-02 0.  1.
         31    1    1    2    0    0 -0.24724419228E+00  0.10920668032E+00  0.59134353835E+02  0.59602045143E+02  0.74470750000E+01 0.  1.
        -31    1    1    2    0    0  0.24724419228E+00 -0.10920668032E+00  0.58499745803E+02  0.58972470194E+02  0.74470750000E+01 0.  1.
<mgrwt>
<rscale>  0 0.14904170E+02</rscale>
<asrwt>0</asrwt>
<pdfrwt beam="2">  1        2 0.99859966E+00 0.14904170E+02</pdfrwt>
<pdfrwt beam="1">  1       -2 0.98045706E+00 0.14904170E+02</pdfrwt>
<totfact> 0.53750959E-13</totfact>
</mgrwt>
</event>
<event>
 4    1 -0.4926183E-019  0.1497741E+02  0.7818608E-02  0.1868758E+00
          2   -1    0    0  501    0  0.00000000000E+00  0.00000000000E+00  0.11986405719E+03  0.11986405722E+03  0.25500000000E-02 0.  1.
         -2   -1    0    0    0  501 -0.00000000000E+00 -0.00000000000E+00 -0.46786602092E+00  0.46787296997E+00  0.25500000000E-02 0. -1.
         31    1    1    2    0    0 -0.76324993255E+00 -0.15403417686E+00  0.58696676025E+02  0.59172332889E+02  0.74470750000E+01 0. -1.
        -31    1    1    2    0    0  0.76324993255E+00  0.15403417686E+00  0.60699515145E+02  0.61159597299E+02  0.74470750000E+01 0.  1.
<mgrwt>
<rscale>  0 0.14977415E+02</rscale>
<asrwt>0</asrwt>
<pdfrwt beam="1">  1        2 0.99498859E+00 0.14977415E+02</pdfrwt>
<pdfrwt beam="2">  1       -2 0.99371079E+00 0.14977415E+02</pdfrwt>
<totfact>-0.11415826E-13</totfact>
</mgrwt>
</event>
<event>
 4    1  0.4926183E-019  0.1493215E+02  0.7818608E-02  0.1870146E+00
          2   -1    0    0  501    0  0.00000000000E+00  0.00000000000E+00  0.11977604453E+03  0.11977604456E+03  0.25500000000E-02 0. -1.
         -2   -1    0    0    0  501 -0.00000000000E+00 -0.00000000000E+00 -0.46538418978E+00  0.46539117590E+00  0.25500000000E-02 0.  1.
         31    1    1    2    0    0 -0.25070116191E+00  0.37849310398E+00  0.61893653945E+02  0.62341715030E+02  0.74470750000E+01 0. -1.
        -31    1    1    2    0    0  0.25070116191E+00 -0.37849310398E+00  0.57417006395E+02  0.57899720703E+02  0.74470750000E+01 0.  1.
<mgrwt>
<rscale>  0 0.14932153E+02</rscale>
<asrwt>0</asrwt>
<pdfrwt beam="1">  1        2 0.99424032E+00 0.14932153E+02</pdfrwt>
<pdfrwt beam="2">  1       -2 0.98845723E+00 0.14932153E+02</pdfrwt>
<totfact> 0.12167771E-13</totfact>
</mgrwt>
</event>
<event>
 4    1 -0.4926183E-019  0.1498868E+02  0.7818608E-02  0.1868414E+00
          2   -1    0    0  501    0  0.00000000000E+00  0.00000000000E+00  0.11958418399E+03  0.11958418401E+03  0.25500000000E-02 0.  1.
         -2   -1    0    0    0  501 -0.00000000000E+00 -0.00000000000E+00 -0.46966650718E+00  0.46967342959E+00  0.25500000000E-02 0. -1.
         31    1    1    2    0    0  0.62145247507E+00  0.54017040801E+00  0.58212453641E+02  0.58692645810E+02  0.74470750000E+01 0.  1.
        -31    1    1    2    0    0 -0.62145247507E+00 -0.54017040801E+00  0.60902063839E+02  0.61361211633E+02  0.74470750000E+01 0. -1.
<mgrwt>
<rscale>  0 0.14988676E+02</rscale>
<asrwt>0</asrwt>
<pdfrwt beam="1">  1        2 0.99268929E+00 0.14988676E+02</pdfrwt>
<pdfrwt beam="2">  1       -2 0.99751078E+00 0.14988676E+02</pdfrwt>
<totfact>-0.10137531E-13</totfact>
</mgrwt>
</event>
<event>
 4    1  0.4926183E-019  0.1493835E+02  0.7818608E-02  0.1869956E+00
          2   -1    0    0  501    0  0.00000000000E+00  0.00000000000E+00  0.12031144682E+03  0.12031144685E+03  0.25500000000E-02 0. -1.
         -2   -1    0    0    0  501 -0.00000000000E+00 -0.00000000000E+00 -0.46369752947E+00  0.46370454099E+00  0.25500000000E-02 0.  1.
         31    1    1    2    0    0 -0.34973440870E+00  0.12193277372E+00  0.63470541217E+02  0.63907008303E+02  0.74470750000E+01 0. -1.
        -31    1    1    2    0    0  0.34973440870E+00 -0.12193277372E+00  0.56377208073E+02  0.56868143085E+02  0.74470750000E+01 0.  1.
<mgrwt>
<rscale>  0 0.14938346E+02</rscale>
<asrwt>0</asrwt>
<pdfrwt beam="1">  1        2 0.99865345E+00 0.14938346E+02</pdfrwt>
<pdfrwt beam="2">  1       -2 0.98490560E+00 0.14938346E+02</pdfrwt>
<totfact> 0.19791716E-13</totfact>
</mgrwt>
</event>
<event>
 4    1 -0.4926183E-019  0.1490938E+02  0.7818608E-02  0.1870846E+00
          2   -1    0    0  501    0  0.00000000000E+00  0.00000000000E+00  0.11837778975E+03  0.11837778978E+03  0.25500000000E-02 0. -1.
         -2   -1    0    0    0  501 -0.00000000000E+00 -0.00000000000E+00 -0.46944638346E+00  0.46945330912E+00  0.25500000000E-02 0.  1.
         31    1    1    2    0    0  0.40523797806E-01  0.19054017927E+00  0.56762937604E+02  0.57249698333E+02  0.74470750000E+01 0.  1.
        -31    1    1    2    0    0 -0.40523797806E-01 -0.19054017927E+00  0.61145405762E+02  0.61597544753E+02  0.74470750000E+01 0. -1.
<mgrwt>
<rscale>  0 0.14909385E+02</rscale>
<asrwt>0</asrwt>
<pdfrwt beam="1">  1        2 0.98271216E+00 0.14909385E+02</pdfrwt>
<pdfrwt beam="2">  1       -2 0.99700537E+00 0.14909385E+02</pdfrwt>
<totfact>-0.40671449E-13</totfact>
</mgrwt>
</event>
<event>
 4    1  0.4926183E-019  0.1490373E+02  0.7818608E-02  0.1871021E+00
         -2   -1    0    0    0  501 -0.00000000000E+00  0.00000000000E+00  0.11803096106E+03  0.11803096109E+03  0.25500000000E-02 0.  1.
          2   -1    0    0  501    0  0.00000000000E+00 -0.00000000000E+00 -0.47046870092E+00  0.47047561153E+00  0.25500000000E-02 0. -1.
         31    1    1    2    0    0  0.85234392005E-01 -0.17695573562E+00  0.57340681172E+02  0.57822584010E+02  0.74470750000E+01 0. -1.
        -31    1    1    2    0    0 -0.85234392005E-01  0.17695573562E+00  0.60219811185E+02  0.60678852688E+02  0.74470750000E+01 0. -1.
<mgrwt>
<rscale>  0 0.14903729E+02</rscale>
<asrwt>0</asrwt>
<pdfrwt beam="2">  1        2 0.99915631E+00 0.14903729E+02</pdfrwt>
<pdfrwt beam="1">  1       -2 0.97985279E+00 0.14903729E+02</pdfrwt>
<totfact> 0.38184316E-13</totfact>
</mgrwt>
</event>
<event>
 4    1  0.4926183E-019  0.1489777E+02  0.7818608E-02  0.1871204E+00
         -2   -1    0    0    0  501 -0.00000000000E+00  0.00000000000E+00  0.11806314889E+03  0.11806314892E+03  0.25500000000E-02 0. -1.
          2   -1    0    0  501    0  0.00000000000E+00 -0.00000000000E+00 -0.46996466309E+00  0.46997158111E+00  0.25500000000E-02 0.  1.
         31    1    1    2    0    0  0.74946632028E-01 -0.13490848959E+00  0.59245004387E+02  0.59711416732E+02  0.74470750000E+01 0.  1.
        -31    1    1    2    0    0 -0.74946632028E-01  0.13490848959E+00  0.58348179839E+02  0.58821703766E+02  0.74470750000E+01 0.  1.
<mgrwt>
<rscale>  0 0.14897774E+02</rscale>
<asrwt>0</asrwt>
<pdfrwt beam="2">  1        2 0.99809120E+00 0.14897774E+02</pdfrwt>
<pdfrwt beam="1">  1       -2 0.98011477E+00 0.14897774E+02</pdfrwt>
<totfact> 0.73457613E-13</totfact>
</mgrwt>
</event>
<event>
 4    1  0.4926183E-019  0.1490894E+02  0.7818608E-02  0.1870860E+00
          2   -1    0    0  501    0  0.00000000000E+00  0.00000000000E+00  0.12024889889E+03  0.12024889892E+03  0.25500000000E-02 0. -1.
         -2   -1    0    0    0  501 -0.00000000000E+00 -0.00000000000E+00 -0.46211398608E+00  0.46212102163E+00  0.25500000000E-02 0.  1.
         31    1    1    2    0    0  0.11555821294E+00  0.20469068872E-01  0.62407571090E+02  0.62850438567E+02  0.74470750000E+01 0. -1.
        -31    1    1    2    0    0 -0.11555821294E+00 -0.20469068872E-01  0.57379213815E+02  0.57860581372E+02  0.74470750000E+01 0.  1.
<mgrwt>
<rscale>  0 0.14908940E+02</rscale>
<asrwt>0</asrwt>
<pdfrwt beam="1">  1        2 0.99812317E+00 0.14908940E+02</pdfrwt>
<pdfrwt beam="2">  1       -2 0.98155308E+00 0.14908940E+02</pdfrwt>
<totfact> 0.55946978E-13</totfact>
</mgrwt>
</event>
<event>
 4    1 -0.4926183E-019  0.1491702E+02  0.7818608E-02  0.1870611E+00
          2   -1    0    0  501    0  0.00000000000E+00  0.00000000000E+00  0.11888207056E+03  0.11888207059E+03  0.25500000000E-02 0.  1.
         -2   -1    0    0    0  501 -0.00000000000E+00 -0.00000000000E+00 -0.46793376081E+00  0.46794070885E+00  0.25500000000E-02 0. -1.
         31    1    1    2    0    0  0.40373947091E-01 -0.39998081496E+00  0.59958042714E+02  0.60420091252E+02  0.74470750000E+01 0. -1.
        -31    1    1    2    0    0 -0.40373947091E-01  0.39998081496E+00  0.58456094088E+02  0.58929920047E+02  0.74470750000E+01 0. -1.
<mgrwt>
<rscale>  0 0.14917017E+02</rscale>
<asrwt>0</asrwt>
<pdfrwt beam="1">  1        2 0.98686940E+00 0.14917017E+02</pdfrwt>
<pdfrwt beam="2">  1       -2 0.99382218E+00 0.14917017E+02</pdfrwt>
<totfact>-0.25142960E-13</totfact>
</mgrwt>
</event>
<event>
 4    1 -0.4926183E-019  0.1490084E+02  0.7818608E-02  0.1871110E+00
          2   -1    0    0  501    0  0.00000000000E+00  0.00000000000E+00  0.11805200801E+03  0.11805200804E+03  0.25500000000E-02 0. -1.
         -2   -1    0    0    0  501 -0.00000000000E+00 -0.00000000000E+00 -0.47020227516E+00  0.47020918969E+00  0.25500000000E-02 0.  1.
         31    1    1    2    0    0  0.11694156520E+00  0.82677201810E-01  0.57429450351E+02  0.57910458508E+02  0.74470750000E+01 0.  1.
        -31    1    1    2    0    0 -0.11694156520E+00 -0.82677201810E-01  0.60152355386E+02  0.60611758722E+02  0.74470750000E+01 0. -1.
<mgrwt>
<rscale>  0 0.14900837E+02</rscale>
<asrwt>0</asrwt>
<pdfrwt beam="1">  1        2 0.98002462E+00 0.14900837E+02</pdfrwt>
<pdfrwt beam="2">  1       -2 0.99859345E+00 0.14900837E+02</pdfrwt>
<totfact>-0.35203888E-13</totfact>
</mgrwt>
</event>
<event>
 4    1 -0.4926183E-019  0.1492996E+02  0.7818608E-02  0.1870213E+00
          2   -1    0    0  501    0  0.00000000000E+00  0.00000000000E+00  0.11866451985E+03  0.11866451987E+03  0.25500000000E-02 0.  1.
         -2   -1    0    0    0  501 -0.00000000000E+00 -0.00000000000E+00 -0.46960565959E+00  0.46961258291E+00  0.25500000000E-02 0. -1.
         31    1    1    2    0    0 -0.88109614429E-01  0.37365177104E+00  0.56337424981E+02  0.56828793393E+02  0.74470750000E+01 0. -1.
        -31    1    1    2    0    0  0.88109614429E-01 -0.37365177104E+00  0.61857489205E+02  0.62305339063E+02  0.74470750000E+01 0.  1.
<mgrwt>
<rscale>  0 0.14929962E+02</rscale>
<asrwt>0</asrwt>
<pdfrwt beam="1">  1        2 0.98508436E+00 0.14929962E+02</pdfrwt>
<pdfrwt beam="2">  1       -2 0.99735182E+00 0.14929962E+02</pdfrwt>
<totfact>-0.25195511E-13</totfact>
</mgrwt>
</event>
<event>
 4    1 -0.4926183E-019  0.1495814E+02  0.7818608E-02  0.1869349E+00
         -2   -1    0    0    0  501 -0.00000000000E+00  0.00000000000E+00  0.12005011416E+03  0.12005011419E+03  0.25500000000E-02 0. -1.
          2   -1    0    0  501    0  0.00000000000E+00 -0.00000000000E+00 -0.46593941570E+00  0.46594639349E+00  0.25500000000E-02 0.  1.
         31    1    1    2    0    0 -0.45048477721E+00  0.50903762747E+00  0.58788357999E+02  0.59262062216E+02  0.74470750000E+01 0.  1.
        -31    1    1    2    0    0  0.45048477721E+00 -0.50903762747E+00  0.60795816745E+02  0.61253998364E+02  0.74470750000E+01 0. -1.
<mgrwt>
<rscale>  0 0.14958142E+02</rscale>
<asrwt>0</asrwt>
<pdfrwt beam="2">  1        2 0.98964067E+00 0.14958142E+02</pdfrwt>
<pdfrwt beam="1">  1       -2 0.99651111E+00 0.14958142E+02</pdfrwt>
<totfact>-0.16228991E-13</totfact>
</mgrwt>
</event>
<event>
 4    1 -0.4926183E-019  0.1491537E+02  0.7818608E-02  0.1870662E+00
         -2   -1    0    0    0  501 -0.00000000000E+00  0.00000000000E+00  0.12041778615E+03  0.12041778617E+03  0.25500000000E-02 0. -1.
          2   -1    0    0  501    0  0.00000000000E+00 -0.00000000000E+00 -0.46186396438E+00  0.46187100374E+00  0.25500000000E-02 0.  1.
         31    1    1    2    0    0 -0.23284235113E+00  0.31190255899E+00  0.60638273664E+02  0.61095095202E+02  0.74470750000E+01 0. -1.
        -31    1    1    2    0    0  0.23284235113E+00 -0.31190255899E+00  0.59317648520E+02  0.59784561977E+02  0.74470750000E+01 0. -1.
<mgrwt>
<rscale>  0 0.14915370E+02</rscale>
<asrwt>0</asrwt>
<pdfrwt beam="2">  1        2 0.98102933E+00 0.14915370E+02</pdfrwt>
<pdfrwt beam="1">  1       -2 0.99951758E+00 0.14915370E+02</pdfrwt>
<totfact>-0.11027648E-13</totfact>
</mgrwt>
</event>
<event>
 4    1 -0.4926183E-019  0.1489638E+02  0.7818608E-02  0.1871247E+00
          2   -1    0    0  501    0  0.00000000000E+00  0.00000000000E+00  0.11826431011E+03  0.11826431014E+03  0.25500000000E-02 0. -1.
         -2   -1    0    0    0  501 -0.00000000000E+00 -0.00000000000E+00 -0.46907728956E+00  0.46908422067E+00  0.25500000000E-02 0.  1.
         31    1    1    2    0    0  0.36899258796E-01 -0.12155783315E+00  0.58728302744E+02  0.59198721330E+02  0.74470750000E+01 0. -1.
        -31    1    1    2    0    0 -0.36899258796E-01  0.12155783315E+00  0.59066930081E+02  0.59534673032E+02  0.74470750000E+01 0. -1.
<mgrwt>
<rscale>  0 0.14896377E+02</rscale>
<asrwt>0</asrwt>
<pdfrwt beam="1">  1        2 0.98177078E+00 0.14896377E+02</pdfrwt>
<pdfrwt beam="2">  1       -2 0.99622083E+00 0.14896377E+02</pdfrwt>
<totfact>-0.54499820E-13</totfact>
</mgrwt>
</event>
<event>
 4    1  0.4926183E-019  0.1491015E+02  0.7818608E-02  0.1870823E+00
         -2   -1    0    0    0  501 -0.00000000000E+00  0.00000000000E+00  0.11850663430E+03  0.11850663433E+03  0.25500000000E-02 0. -1.
          2   -1    0    0  501    0  0.00000000000E+00 -0.00000000000E+00 -0.46898398409E+00  0.46899091657E+00  0.25500000000E-02 0.  1.
         31    1    1    2    0    0 -0.31663655258E+00  0.11292031292E+00  0.58390935557E+02  0.58864873150E+02  0.74470750000E+01 0. -1.
        -31    1    1    2    0    0  0.31663655258E+00 -0.11292031292E+00  0.59646714757E+02  0.60110752092E+02  0.74470750000E+01 0.  1.
<mgrwt>
<rscale>  0 0.14910148E+02</rscale>
<asrwt>0</asrwt>
<pdfrwt beam="2">  1        2 0.99603150E+00 0.14910148E+02</pdfrwt>
<pdfrwt beam="1">  1       -2 0.98377371E+00 0.14910148E+02</pdfrwt>
<totfact> 0.58726463E-13</totfact>
</mgrwt>
</event>
<event>
 4    1  0.4926183E-019  0.1490494E+02  0.7818608E-02  0.1870983E+00
         -2   -1    0    0    0  501 -0.00000000000E+00  0.00000000000E+00  0.11854251056E+03  0.11854251059E+03  0.25500000000E-02 0.  1.
          2   -1    0    0  501    0  0.00000000000E+00 -0.00000000000E+00 -0.46851428168E+00  0.46852122111E+00  0.25500000000E-02 0. -1.
         31    1    1    2    0    0 -0.12433570077E+00 -0.24386001258E+00  0.58449127602E+02  0.58922273977E+02  0.74470750000E+01 0. -1.
        -31    1    1    2    0    0  0.12433570077E+00  0.24386001258E+00  0.59624868677E+02  0.60088757832E+02  0.74470750000E+01 0.  1.
<mgrwt>
<rscale>  0 0.14904935E+02</rscale>
<asrwt>0</asrwt>
<pdfrwt beam="2">  1        2 0.99503907E+00 0.14904935E+02</pdfrwt>
<pdfrwt beam="1">  1       -2 0.98406648E+00 0.14904935E+02</pdfrwt>
<totfact> 0.61827159E-13</totfact>
</mgrwt>
</event>
<event>
 4    1  0.4926183E-019  0.1492103E+02  0.7818608E-02  0.1870488E+00
         -2   -1    0    0    0  501 -0.00000000000E+00  0.00000000000E+00  0.11849208315E+03  0.11849208318E+03  0.25500000000E-02 0.  1.
          2   -1    0    0  501    0  0.00000000000E+00 -0.00000000000E+00 -0.46972667639E+00  0.46973359791E+00  0.25500000000E-02 0. -1.
         31    1    1    2    0    0 -0.35286643107E+00  0.45386073504E-01  0.61177144890E+02  0.61629770059E+02  0.74470750000E+01 0.  1.
        -31    1    1    2    0    0  0.35286643107E+00 -0.45386073504E-01  0.56845211587E+02  0.57332046720E+02  0.74470750000E+01 0. -1.
<mgrwt>
<rscale>  0 0.14921033E+02</rscale>
<asrwt>0</asrwt>
<pdfrwt beam="2">  1        2 0.99760210E+00 0.14921033E+02</pdfrwt>
<pdfrwt beam="1">  1       -2 0.98365953E+00 0.14921033E+02</pdfrwt>
<totfact> 0.43182991E-13</totfact>
</mgrwt>
</event>
<event>
 4    1 -0.4926183E-019  0.1497045E+02  0.7818608E-02  0.1868971E+00
          2   -1    0    0  501    0  0.00000000000E+00  0.00000000000E+00  0.11940766389E+03  0.11940766392E+03  0.25500000000E-02 0.  1.
         -2   -1    0    0    0  501 -0.00000000000E+00 -0.00000000000E+00 -0.46921775963E+00  0.46922468867E+00  0.25500000000E-02 0. -1.
         31    1    1    2    0    0 -0.65845982799E+00  0.36380878420E+00  0.58978126769E+02  0.59451192498E+02  0.74470750000E+01 0. -1.
        -31    1    1    2    0    0  0.65845982799E+00 -0.36380878420E+00  0.59960319365E+02  0.60425696112E+02  0.74470750000E+01 0.  1.
<mgrwt>
<rscale>  0 0.14970453E+02</rscale>
<asrwt>0</asrwt>
<pdfrwt beam="1">  1        2 0.99122599E+00 0.14970453E+02</pdfrwt>
<pdfrwt beam="2">  1       -2 0.99655568E+00 0.14970453E+02</pdfrwt>
<totfact>-0.13983503E-13</totfact>
</mgrwt>
</event>
<event>
 4    1 -0.4926183E-019  0.1495797E+02  0.7818608E-02  0.1869354E+00
         -2   -1    0    0    0  501 -0.00000000000E+00  0.00000000000E+00  0.11988159782E+03  0.11988159784E+03  0.25500000000E-02 0. -1.
          2   -1    0    0  501    0  0.00000000000E+00 -0.00000000000E+00 -0.46658353187E+00  0.46659050002E+00  0.25500000000E-02 0.  1.
         31    1    1    2    0    0 -0.99520449629E-02 -0.58418818982E+00  0.62662604715E+02  0.63106278060E+02  0.74470750000E+01 0. -1.
        -31    1    1    2    0    0  0.99520449629E-02  0.58418818982E+00  0.56752409569E+02  0.57241910282E+02  0.74470750000E+01 0. -1.
<mgrwt>
<rscale>  0 0.14957968E+02</rscale>
<asrwt>0</asrwt>
<pdfrwt beam="2">  1        2 0.99099804E+00 0.14957968E+02</pdfrwt>
<pdfrwt beam="1">  1       -2 0.99512302E+00 0.14957968E+02</pdfrwt>
<totfact>-0.16295406E-13</totfact>
</mgrwt>
</event>
<event>
 4    1 -0.4926183E-019  0.1493543E+02  0.7818608E-02  0.1870045E+00
         -2   -1    0    0    0  501 -0.00000000000E+00  0.00000000000E+00  0.11971340350E+03  0.11971340353E+03  0.25500000000E-02 0.  1.
          2   -1    0    0  501    0  0.00000000000E+00 -0.00000000000E+00 -0.46583192576E+00  0.46583890516E+00  0.25500000000E-02 0. -1.
         31    1    1    2    0    0 -0.31719187284E+00 -0.45520022056E+00  0.59636077943E+02  0.60101818079E+02  0.74470750000E+01 0. -1.
        -31    1    1    2    0    0  0.31719187284E+00  0.45520022056E+00  0.59611493633E+02  0.60077424355E+02  0.74470750000E+01 0.  1.
<mgrwt>
<rscale>  0 0.14935427E+02</rscale>
<asrwt>0</asrwt>
<pdfrwt beam="2">  1        2 0.98940250E+00 0.14935427E+02</pdfrwt>
<pdfrwt beam="1">  1       -2 0.99372606E+00 0.14935427E+02</pdfrwt>
<totfact>-0.18151697E-13</totfact>
</mgrwt>
</event>
<event>
 4    1 -0.4926183E-019  0.1489891E+02  0.7818608E-02  0.1871169E+00
         -2   -1    0    0    0  501 -0.00000000000E+00  0.00000000000E+00  0.11958222597E+03  0.11958222600E+03  0.25500000000E-02 0. -1.
          2   -1    0    0  501    0  0.00000000000E+00 -0.00000000000E+00 -0.46406543461E+00  0.46407244058E+00  0.25500000000E-02 0.  1.
         31    1    1    2    0    0  0.16892641441E+00 -0.81289436244E-01  0.59705374098E+02  0.60168311979E+02  0.74470750000E+01 0. -1.
        -31    1    1    2    0    0 -0.16892641441E+00  0.81289436244E-01  0.59412786439E+02  0.59877986461E+02  0.74470750000E+01 0.  1.
<mgrwt>
<rscale>  0 0.14898913E+02</rscale>
<asrwt>0</asrwt>
<pdfrwt beam="2">  1        2 0.98566093E+00 0.14898913E+02</pdfrwt>
<pdfrwt beam="1">  1       -2 0.99262679E+00 0.14898913E+02</pdfrwt>
<totfact>-0.25068980E-13</totfact>
</mgrwt>
</event>
<event>
 4    1  0.4926183E-019  0.1490057E+02  0.7818608E-02  0.1871118E+00
         -2   -1    0    0    0  501 -0.00000000000E+00  0.00000000000E+00  0.11859655005E+03  0.11859655008E+03  0.25500000000E-02 0.  1.
          2   -1    0    0  501    0  0.00000000000E+00 -0.00000000000E+00 -0.46802654776E+00  0.46803349443E+00  0.25500000000E-02 0. -1.
         31    1    1    2    0    0 -0.28073450267E-01 -0.10440432335E+00  0.57545318365E+02  0.58025290005E+02  0.74470750000E+01 0.  1.
        -31    1    1    2    0    0  0.28073450267E-01  0.10440432335E+00  0.60583205137E+02  0.61039293567E+02  0.74470750000E+01 0.  1.
<mgrwt>
<rscale>  0 0.14900570E+02</rscale>
<asrwt>0</asrwt>
<pdfrwt beam="2">  1        2 0.99400908E+00 0.14900570E+02</pdfrwt>
<pdfrwt beam="1">  1       -2 0.98450928E+00 0.14900570E+02</pdfrwt>
<totfact> 0.60645775E-13</totfact>
</mgrwt>
</event>
<event>
 4    1 -0.4926183E-019  0.1492615E+02  0.7818608E-02  0.1870331E+00
          2   -1    0    0  501    0  0.00000000000E+00  0.00000000000E+00  0.11837723169E+03  0.11837723172E+03  0.25500000000E-02 0. -1.
         -2   -1    0    0    0  501 -0.00000000000E+00 -0.00000000000E+00 -0.47050470608E+00  0.47051161616E+00  0.25500000000E-02 0.  1.
         31    1    1    2    0    0 -0.34684046280E-01  0.33948088081E+00  0.61735423581E+02  0.62183903875E+02  0.74470750000E+01 0. -1.
        -31    1    1    2    0    0  0.34684046280E-01 -0.33948088081E+00  0.56171303406E+02  0.56663839463E+02  0.74470750000E+01 0. -1.
<mgrwt>
<rscale>  0 0.14926146E+02</rscale>
<asrwt>0</asrwt>
<pdfrwt beam="1">  1        2 0.98271630E+00 0.14926146E+02</pdfrwt>
<pdfrwt beam="2">  1       -2 0.99924408E+00 0.14926146E+02</pdfrwt>
<totfact>-0.12732025E-13</totfact>
</mgrwt>
</event>
<event>
 4    1  0.4926183E-019  0.1491239E+02  0.7818608E-02  0.1870754E+00
          2   -1    0    0  501    0  0.00000000000E+00  0.00000000000E+00  0.11963667573E+03  0.11963667575E+03  0.25500000000E-02 0. -1.
         -2   -1    0    0    0  501 -0.00000000000E+00 -0.00000000000E+00 -0.46469402671E+00  0.46470102319E+00  0.25500000000E-02 0.  1.
         31    1    1    2    0    0 -0.22226001699E+00 -0.18607001163E+00  0.57750807606E+02  0.58229706566E+02  0.74470750000E+01 0.  1.
        -31    1    1    2    0    0  0.22226001699E+00  0.18607001163E+00  0.61421174094E+02  0.61871670212E+02  0.74470750000E+01 0.  1.
<mgrwt>
<rscale>  0 0.14912394E+02</rscale>
<asrwt>0</asrwt>
<pdfrwt beam="1">  1        2 0.99308221E+00 0.14912394E+02</pdfrwt>
<pdfrwt beam="2">  1       -2 0.98699259E+00 0.14912394E+02</pdfrwt>
<totfact> 0.28935943E-13</totfact>
</mgrwt>
</event>
<event>
 4    1 -0.4926183E-019  0.1502570E+02  0.7818608E-02  0.1867285E+00
          2   -1    0    0  501    0  0.00000000000E+00  0.00000000000E+00  0.12037589660E+03  0.12037589662E+03  0.25500000000E-02 0. -1.
         -2   -1    0    0    0  501 -0.00000000000E+00 -0.00000000000E+00 -0.46888516434E+00  0.46889209828E+00  0.25500000000E-02 0.  1.
         31    1    1    2    0    0 -0.14051636362E+00  0.43378436484E+00  0.52868520376E+02  0.53392389781E+02  0.74470750000E+01 0.  1.
        -31    1    1    2    0    0  0.14051636362E+00 -0.43378436484E+00  0.67038491055E+02  0.67452398940E+02  0.74470750000E+01 0. -1.
<mgrwt>
<rscale>  0 0.15025697E+02</rscale>
<asrwt>0</asrwt>
<pdfrwt beam="1">  1        2 0.99922926E+00 0.15025697E+02</pdfrwt>
<pdfrwt beam="2">  1       -2 0.99588340E+00 0.15025697E+02</pdfrwt>
<totfact>-0.27466665E-14</totfact>
</mgrwt>
</event>
<event>
 4    1 -0.4926183E-019  0.1494106E+02  0.7818608E-02  0.1869873E+00
          2   -1    0    0  501    0  0.00000000000E+00  0.00000000000E+00  0.11930871718E+03  0.11930871721E+03  0.25500000000E-02 0.  1.
         -2   -1    0    0    0  501 -0.00000000000E+00 -0.00000000000E+00 -0.46776441223E+00  0.46777136279E+00  0.25500000000E-02 0. -1.
         31    1    1    2    0    0 -0.12330551249E+00 -0.35200903966E+00  0.55740261029E+02  0.56236773914E+02  0.74470750000E+01 0. -1.
        -31    1    1    2    0    0  0.12330551249E+00  0.35200903966E+00  0.63100691744E+02  0.63539714661E+02  0.74470750000E+01 0.  1.
<mgrwt>
<rscale>  0 0.14941056E+02</rscale>
<asrwt>0</asrwt>
<pdfrwt beam="1">  1        2 0.99039581E+00 0.14941056E+02</pdfrwt>
<pdfrwt beam="2">  1       -2 0.99347784E+00 0.14941056E+02</pdfrwt>
<totfact>-0.16050106E-13</totfact>
</mgrwt>
</event>
<event>
 4    1 -0.4926183E-019  0.1491111E+02  0.7818608E-02  0.1870793E+00
          2   -1    0    0  501    0  0.00000000000E+00  0.00000000000E+00  0.11835829840E+03  0.11835829842E+03  0.25500000000E-02 0.  1.
         -2   -1    0    0    0  501 -0.00000000000E+00 -0.00000000000E+00 -0.46963267820E+00  0.46963960111E+00  0.25500000000E-02 0. -1.
         31    1    1    2    0    0  0.14388880328E+00 -0.59193028459E-02  0.56353797673E+02  0.56843910643E+02  0.74470750000E+01 0. -1.
        -31    1    1    2    0    0 -0.14388880328E+00  0.59193028459E-02  0.61534868044E+02  0.61984027380E+02  0.74470750000E+01 0.  1.
<mgrwt>
<rscale>  0 0.14911115E+02</rscale>
<asrwt>0</asrwt>
<pdfrwt beam="1">  1        2 0.98255253E+00 0.14911115E+02</pdfrwt>
<pdfrwt beam="2">  1       -2 0.99739881E+00 0.14911115E+02</pdfrwt>
<totfact>-0.37941636E-13</totfact>
</mgrwt>
</event>
<event>
 4    1 -0.4926183E-019  0.1492623E+02  0.7818608E-02  0.1870328E+00
          2   -1    0    0  501    0  0.00000000000E+00  0.00000000000E+00  0.11912759560E+03  0.11912759563E+03  0.25500000000E-02 0.  1.
         -2   -1    0    0    0  501 -0.00000000000E+00 -0.00000000000E+00 -0.46754640502E+00  0.46755335883E+00  0.25500000000E-02 0. -1.
         31    1    1    2    0    0 -0.22517901689E+00 -0.37306538077E+00  0.57551212876E+02  0.58032671082E+02  0.74470750000E+01 0.  1.
        -31    1    1    2    0    0  0.22517901689E+00  0.37306538077E+00  0.61108836318E+02  0.61562477903E+02  0.74470750000E+01 0.  1.
<mgrwt>
<rscale>  0 0.14926231E+02</rscale>
<asrwt>0</asrwt>
<pdfrwt beam="1">  1        2 0.98889637E+00 0.14926231E+02</pdfrwt>
<pdfrwt beam="2">  1       -2 0.99301074E+00 0.14926231E+02</pdfrwt>
<totfact>-0.17421145E-13</totfact>
</mgrwt>
</event>
<event>
 4    1  0.4926183E-019  0.1490222E+02  0.7818608E-02  0.1871067E+00
          2   -1    0    0  501    0  0.00000000000E+00  0.00000000000E+00  0.12005567650E+03  0.12005567653E+03  0.25500000000E-02 0.  1.
         -2   -1    0    0    0  501 -0.00000000000E+00 -0.00000000000E+00 -0.46244060065E+00  0.46244763123E+00  0.25500000000E-02 0. -1.
         31    1    1    2    0    0  0.14744802934E+00 -0.44711604134E-01  0.61339109493E+02  0.61789716131E+02  0.74470750000E+01 0.  1.
        -31    1    1    2    0    0 -0.14744802934E+00  0.44711604134E-01  0.58254126406E+02  0.58728408028E+02  0.74470750000E+01 0. -1.
<mgrwt>
<rscale>  0 0.14902221E+02</rscale>
<asrwt>0</asrwt>
<pdfrwt beam="1">  1        2 0.99652817E+00 0.14902221E+02</pdfrwt>
<pdfrwt beam="2">  1       -2 0.98223810E+00 0.14902221E+02</pdfrwt>
<totfact> 0.75964050E-13</totfact>
</mgrwt>
</event>
<event>
 4    1  0.4926183E-019  0.1490565E+02  0.7818608E-02  0.1870961E+00
          2   -1    0    0  501    0  0.00000000000E+00  0.00000000000E+00  0.12014641109E+03  0.12014641112E+03  0.25500000000E-02 0.  1.
         -2   -1    0    0    0  501 -0.00000000000E+00 -0.00000000000E+00 -0.46230377379E+00  0.46231080645E+00  0.25500000000E-02 0. -1.
         31    1    1    2    0    0 -0.15950957950E+00  0.37318197865E-01  0.61804182827E+02  0.62251447990E+02  0.74470750000E+01 0.  1.
        -31    1    1    2    0    0  0.15950957950E+00 -0.37318197865E-01  0.57879924491E+02  0.58357273935E+02  0.74470750000E+01 0. -1.
<mgrwt>
<rscale>  0 0.14905645E+02</rscale>
<asrwt>0</asrwt>
<pdfrwt beam="1">  1        2 0.99727730E+00 0.14905645E+02</pdfrwt>
<pdfrwt beam="2">  1       -2 0.98195144E+00 0.14905645E+02</pdfrwt>
<totfact> 0.68429239E-13</totfact>
</mgrwt>
</event>
<event>
 4    1  0.4926183E-019  0.1494365E+02  0.7818608E-02  0.1869793E+00
          2   -1    0    0  501    0  0.00000000000E+00  0.00000000000E+00  0.12020381143E+03  0.12020381146E+03  0.25500000000E-02 0.  1.
         -2   -1    0    0    0  501 -0.00000000000E+00 -0.00000000000E+00 -0.46444222423E+00  0.46444922450E+00  0.25500000000E-02 0. -1.
         31    1    1    2    0    0  0.12296237781E+00 -0.43469955321E+00  0.56588258619E+02  0.57077964426E+02  0.74470750000E+01 0. -1.
        -31    1    1    2    0    0 -0.12296237781E+00  0.43469955321E+00  0.63151110585E+02  0.63590296254E+02  0.74470750000E+01 0.  1.
<mgrwt>
<rscale>  0 0.14943647E+02</rscale>
<asrwt>0</asrwt>
<pdfrwt beam="1">  1        2 0.99776961E+00 0.14943647E+02</pdfrwt>
<pdfrwt beam="2">  1       -2 0.98647785E+00 0.14943647E+02</pdfrwt>
<totfact> 0.18007129E-13</totfact>
</mgrwt>
</event>
<event>
 4    1 -0.4926183E-019  0.1489962E+02  0.7818608E-02  0.1871147E+00
         -2   -1    0    0    0  501 -0.00000000000E+00  0.00000000000E+00  0.11993787816E+03  0.11993787819E+03  0.25500000000E-02 0.  1.
          2   -1    0    0  501    0  0.00000000000E+00 -0.00000000000E+00 -0.46273325656E+00  0.46274028269E+00  0.25500000000E-02 0. -1.
         31    1    1    2    0    0 -0.11474797289E+00  0.69420602763E-01  0.60956597820E+02  0.61409964421E+02  0.74470750000E+01 0.  1.
        -31    1    1    2    0    0  0.11474797289E+00 -0.69420602763E-01  0.58518547083E+02  0.58990654049E+02  0.74470750000E+01 0. -1.
<mgrwt>
<rscale>  0 0.14899620E+02</rscale>
<asrwt>0</asrwt>
<pdfrwt beam="2">  1        2 0.98285361E+00 0.14899620E+02</pdfrwt>
<pdfrwt beam="1">  1       -2 0.99555655E+00 0.14899620E+02</pdfrwt>
<totfact>-0.48421425E-13</totfact>
</mgrwt>
</event>
<event>
 4    1 -0.4926183E-019  0.1491830E+02  0.7818608E-02  0.1870572E+00
         -2   -1    0    0    0  501 -0.00000000000E+00  0.00000000000E+00  0.11988241932E+03  0.11988241934E+03  0.25500000000E-02 0.  1.
          2   -1    0    0  501    0  0.00000000000E+00 -0.00000000000E+00 -0.46410878802E+00  0.46411579333E+00  0.25500000000E-02 0. -1.
         31    1    1    2    0    0 -0.14650053681E+00 -0.38510030454E+00  0.58893753720E+02  0.59364155161E+02  0.74470750000E+01 0. -1.
        -31    1    1    2    0    0  0.14650053681E+00  0.38510030454E+00  0.60524556807E+02  0.60982379975E+02  0.74470750000E+01 0.  1.
<mgrwt>
<rscale>  0 0.14918298E+02</rscale>
<asrwt>0</asrwt>
<pdfrwt beam="2">  1        2 0.98576220E+00 0.14918298E+02</pdfrwt>
<pdfrwt beam="1">  1       -2 0.99510935E+00 0.14918298E+02</pdfrwt>
<totfact>-0.30659629E-13</totfact>
</mgrwt>
</event>
<event>
 4    1  0.4926183E-019  0.1493032E+02  0.7818608E-02  0.1870202E+00
          2   -1    0    0  501    0  0.00000000000E+00  0.00000000000E+00  0.12006070258E+03  0.12006070261E+03  0.25500000000E-02 0.  1.
         -2   -1    0    0    0  501 -0.00000000000E+00 -0.00000000000E+00 -0.46416706946E+00  0.46417407389E+00  0.25500000000E-02 0. -1.
         31    1    1    2    0    0 -0.18901166534E-01  0.20499673373E+00  0.55949279747E+02  0.56443097108E+02  0.74470750000E+01 0. -1.
        -31    1    1    2    0    0  0.18901166534E-01 -0.20499673373E+00  0.63647255765E+02  0.64081779574E+02  0.74470750000E+01 0.  1.
<mgrwt>
<rscale>  0 0.14930325E+02</rscale>
<asrwt>0</asrwt>
<pdfrwt beam="1">  1        2 0.99658401E+00 0.14930325E+02</pdfrwt>
<pdfrwt beam="2">  1       -2 0.98589115E+00 0.14930325E+02</pdfrwt>
<totfact> 0.29717839E-13</totfact>
</mgrwt>
</event>
<event>
 4    1 -0.4926183E-019  0.1497575E+02  0.7818608E-02  0.1868809E+00
          2   -1    0    0  501    0  0.00000000000E+00  0.00000000000E+00  0.11972907740E+03  0.11972907743E+03  0.25500000000E-02 0. -1.
         -2   -1    0    0    0  501 -0.00000000000E+00 -0.00000000000E+00 -0.46828925601E+00  0.46829619878E+00  0.25500000000E-02 0.  1.
         31    1    1    2    0    0  0.55356996564E+00  0.38464119749E+00  0.62789724259E+02  0.63233399301E+02  0.74470750000E+01 0. -1.
        -31    1    1    2    0    0 -0.55356996564E+00 -0.38464119749E+00  0.56471063886E+02  0.56963974326E+02  0.74470750000E+01 0.  1.
<mgrwt>
<rscale>  0 0.14975748E+02</rscale>
<asrwt>0</asrwt>
<pdfrwt beam="1">  1        2 0.99387598E+00 0.14975748E+02</pdfrwt>
<pdfrwt beam="2">  1       -2 0.99460183E+00 0.14975748E+02</pdfrwt>
<totfact>-0.13213017E-13</totfact>
</mgrwt>
</event>
<event>
 4    1 -0.4926183E-019  0.1498253E+02  0.7818608E-02  0.1868602E+00
          2   -1    0    0  501    0  0.00000000000E+00  0.00000000000E+00  0.11985130247E+03  0.11985130249E+03  0.25500000000E-02 0.  1.
         -2   -1    0    0    0  501 -0.00000000000E+00 -0.00000000000E+00 -0.46823542796E+00  0.46824237154E+00  0.25500000000E-02 0. -1.
         31    1    1    2    0    0  0.80791432654E+00  0.94074171388E-02  0.60377914780E+02  0.60840811413E+02  0.74470750000E+01 0.  1.
        -31    1    1    2    0    0 -0.80791432654E+00 -0.94074171388E-02  0.59005152257E+02  0.59478733451E+02  0.74470750000E+01 0.  1.
<mgrwt>
<rscale>  0 0.14982529E+02</rscale>
<asrwt>0</asrwt>
<pdfrwt beam="1">  1        2 0.99488618E+00 0.14982529E+02</pdfrwt>
<pdfrwt beam="2">  1       -2 0.99449190E+00 0.14982529E+02</pdfrwt>
<totfact>-0.12064275E-13</totfact>
</mgrwt>
</event>
<event>
 4    1  0.4926183E-019  0.1493219E+02  0.7818608E-02  0.1870145E+00
          2   -1    0    0  501    0  0.00000000000E+00  0.00000000000E+00  0.12038461869E+03  0.12038461872E+03  0.25500000000E-02 0.  1.
         -2   -1    0    0    0  501 -0.00000000000E+00 -0.00000000000E+00 -0.46303367620E+00  0.46304069778E+00  0.25500000000E-02 0. -1.
         31    1    1    2    0    0 -0.23454592798E+00 -0.43309426805E+00  0.58321066933E+02  0.58796669606E+02  0.74470750000E+01 0. -1.
        -31    1    1    2    0    0  0.23454592798E+00  0.43309426805E+00  0.61600518083E+02  0.62050989811E+02  0.74470750000E+01 0.  1.
<mgrwt>
<rscale>  0 0.14932188E+02</rscale>
<asrwt>0</asrwt>
<pdfrwt beam="1">  1        2 0.99925300E+00 0.14932188E+02</pdfrwt>
<pdfrwt beam="2">  1       -2 0.98350328E+00 0.14932188E+02</pdfrwt>
<totfact> 0.16752286E-13</totfact>
</mgrwt>
</event>
<event>
 4    1  0.4926183E-019  0.1489782E+02  0.7818608E-02  0.1871203E+00
         -2   -1    0    0    0  501 -0.00000000000E+00  0.00000000000E+00  0.11871910518E+03  0.11871910520E+03  0.25500000000E-02 0.  1.
          2   -1    0    0  501    0  0.00000000000E+00 -0.00000000000E+00 -0.46737073804E+00  0.46737769446E+00  0.25500000000E-02 0. -1.
         31    1    1    2    0    0  0.12946136249E+00  0.94167572470E-01  0.59455548193E+02  0.59920336822E+02  0.74470750000E+01 0.  1.
        -31    1    1    2    0    0 -0.12946136249E+00 -0.94167572470E-01  0.58796186245E+02  0.59266146077E+02  0.74470750000E+01 0. -1.
<mgrwt>
<rscale>  0 0.14897819E+02</rscale>
<asrwt>0</asrwt>
<pdfrwt beam="2">  1        2 0.99262576E+00 0.14897819E+02</pdfrwt>
<pdfrwt beam="1">  1       -2 0.98551723E+00 0.14897819E+02</pdfrwt>
<totfact> 0.50497822E-13</totfact>
</mgrwt>
</event>
<event>
 4    1 -0.4926183E-019  0.1500259E+02  0.7818608E-02  0.1867989E+00
         -2   -1    0    0    0  501 -0.00000000000E+00  0.00000000000E+00  0.12029004640E+03  0.12029004642E+03  0.25500000000E-02 0.  1.
          2   -1    0    0  501    0  0.00000000000E+00 -0.00000000000E+00 -0.46777792684E+00  0.46778487721E+00  0.25500000000E-02 0. -1.
         31    1    1    2    0    0  0.46436492492E+00  0.99140398804E-01  0.66067851855E+02  0.66487934532E+02  0.74470750000E+01 0. -1.
        -31    1    1    2    0    0 -0.46436492492E+00 -0.99140398804E-01  0.53754416615E+02  0.54269896768E+02  0.74470750000E+01 0. -1.
<mgrwt>
<rscale>  0 0.15002593E+02</rscale>
<asrwt>0</asrwt>
<pdfrwt beam="2">  1        2 0.99353809E+00 0.15002593E+02</pdfrwt>
<pdfrwt beam="1">  1       -2 0.99851024E+00 0.15002593E+02</pdfrwt>
<totfact>-0.62901718E-14</totfact>
</mgrwt>
</event>
<event>
 4    1 -0.4926183E-019  0.1492287E+02  0.7818608E-02  0.1870431E+00
          2   -1    0    0  501    0  0.00000000000E+00  0.00000000000E+00  0.11846776784E+03  0.11846776786E+03  0.25500000000E-02 0.  1.
         -2   -1    0    0    0  501 -0.00000000000E+00 -0.00000000000E+00 -0.46993895793E+00  0.46994587633E+00  0.25500000000E-02 0. -1.
         31    1    1    2    0    0  0.34932359912E+00 -0.24022322392E+00  0.60476561800E+02  0.60934827377E+02  0.74470750000E+01 0. -1.
        -31    1    1    2    0    0 -0.34932359912E+00  0.24022322392E+00  0.57521267079E+02  0.58002886365E+02  0.74470750000E+01 0.  1.
<mgrwt>
<rscale>  0 0.14922873E+02</rscale>
<asrwt>0</asrwt>
<pdfrwt beam="1">  1        2 0.98346023E+00 0.14922873E+02</pdfrwt>
<pdfrwt beam="2">  1       -2 0.99805034E+00 0.14922873E+02</pdfrwt>
<totfact>-0.26083297E-13</totfact>
</mgrwt>
</event>
<event>
 4    1 -0.4926183E-019  0.1492638E+02  0.7818608E-02  0.1870323E+00
          2   -1    0    0  501    0  0.00000000000E+00  0.00000000000E+00  0.11885656713E+03  0.11885656716E+03  0.25500000000E-02 0. -1.
         -2   -1    0    0    0  501 -0.00000000000E+00 -0.00000000000E+00 -0.46862186999E+00  0.46862880783E+00  0.25500000000E-02 0.  1.
         31    1    1    2    0    0  0.27344712768E+00  0.28351803030E+00  0.56861617763E+02  0.57348562811E+02  0.74470750000E+01 0.  1.
        -31    1    1    2    0    0 -0.27344712768E+00 -0.28351803030E+00  0.61526327497E+02  0.61976633155E+02  0.74470750000E+01 0. -1.
<mgrwt>
<rscale>  0 0.14926380E+02</rscale>
<asrwt>0</asrwt>
<pdfrwt beam="1">  1        2 0.98666421E+00 0.14926380E+02</pdfrwt>
<pdfrwt beam="2">  1       -2 0.99527702E+00 0.14926380E+02</pdfrwt>
<totfact>-0.26576412E-13</totfact>
</mgrwt>
</event>
<event>
 4    1 -0.4926183E-019  0.1490267E+02  0.7818608E-02  0.1871053E+00
          2   -1    0    0  501    0  0.00000000000E+00  0.00000000000E+00  0.11873105059E+03  0.11873105062E+03  0.25500000000E-02 0. -1.
         -2   -1    0    0    0  501 -0.00000000000E+00 -0.00000000000E+00 -0.46762780458E+00  0.46763475718E+00  0.25500000000E-02 0.  1.
         31    1    1    2    0    0  0.70928669387E-01  0.23076932359E+00  0.59705438053E+02  0.60168567746E+02  0.74470750000E+01 0. -1.
        -31    1    1    2    0    0 -0.70928669387E-01 -0.23076932359E+00  0.58557984735E+02  0.59030117632E+02  0.74470750000E+01 0.  1.
<mgrwt>
<rscale>  0 0.14902665E+02</rscale>
<asrwt>0</asrwt>
<pdfrwt beam="1">  1        2 0.98561813E+00 0.14902665E+02</pdfrwt>
<pdfrwt beam="2">  1       -2 0.99316998E+00 0.14902665E+02</pdfrwt>
<totfact>-0.28101739E-13</totfact>
</mgrwt>
</event>
<event>
 4    1 -0.4926183E-019  0.1502809E+02  0.7818608E-02  0.1867212E+00
         -2   -1    0    0    0  501 -0.00000000000E+00  0.00000000000E+00  0.12012187216E+03  0.12012187218E+03  0.25500000000E-02 0.  1.
          2   -1    0    0  501    0  0.00000000000E+00 -0.00000000000E+00 -0.47002650076E+00  0.47003341788E+00  0.25500000000E-02 0. -1.
         31    1    1    2    0    0  0.49350613539E+00 -0.40237798075E+00  0.66023463564E+02  0.66445181341E+02  0.74470750000E+01 0.  1.
        -31    1    1    2    0    0 -0.49350613539E+00  0.40237798075E+00  0.53628382092E+02  0.54146724261E+02  0.74470750000E+01 0. -1.
<mgrwt>
<rscale>  0 0.15028091E+02</rscale>
<asrwt>0</asrwt>
<pdfrwt beam="2">  1        2 0.99828985E+00 0.15028091E+02</pdfrwt>
<pdfrwt beam="1">  1       -2 0.99713825E+00 0.15028091E+02</pdfrwt>
<totfact>-0.44913948E-14</totfact>
</mgrwt>
</event>
<event>
 4    1  0.4926183E-019  0.1492173E+02  0.7818608E-02  0.1870466E+00
          2   -1    0    0  501    0  0.00000000000E+00  0.00000000000E+00  0.12029642096E+03  0.12029642099E+03  0.25500000000E-02 0. -1.
         -2   -1    0    0    0  501 -0.00000000000E+00 -0.00000000000E+00 -0.46272425493E+00  0.46273128120E+00  0.25500000000E-02 0.  1.
         31    1    1    2    0    0 -0.32766830864E+00 -0.31217678254E+00  0.59695111208E+02  0.60159538304E+02  0.74470750000E+01 0.  1.
        -31    1    1    2    0    0  0.32766830864E+00  0.31217678254E+00  0.60138585498E+02  0.60599613965E+02  0.74470750000E+01 0. -1.
<mgrwt>
<rscale>  0 0.14921729E+02</rscale>
<asrwt>0</asrwt>
<pdfrwt beam="1">  1        2 0.99852116E+00 0.14921729E+02</pdfrwt>
<pdfrwt beam="2">  1       -2 0.98284582E+00 0.14921729E+02</pdfrwt>
<totfact> 0.35434668E-13</totfact>
</mgrwt>
</event>
<event>
 4    1 -0.4926183E-019  0.1490911E+02  0.7818608E-02  0.1870855E+00
          2   -1    0    0  501    0  0.00000000000E+00  0.00000000000E+00  0.11895282278E+03  0.11895282280E+03  0.25500000000E-02 0. -1.
         -2   -1    0    0    0  501 -0.00000000000E+00 -0.00000000000E+00 -0.46715980434E+00  0.46716676390E+00  0.25500000000E-02 0.  1.
         31    1    1    2    0    0  0.95050649504E-01  0.20759249780E+00  0.57291655652E+02  0.57774084698E+02  0.74470750000E+01 0.  1.
        -31    1    1    2    0    0 -0.95050649504E-01 -0.20759249780E+00  0.61194007319E+02  0.61645904869E+02  0.74470750000E+01 0. -1.
<mgrwt>
<rscale>  0 0.14909111E+02</rscale>
<asrwt>0</asrwt>
<pdfrwt beam="1">  1        2 0.98744803E+00 0.14909111E+02</pdfrwt>
<pdfrwt beam="2">  1       -2 0.99218718E+00 0.14909111E+02</pdfrwt>
<totfact>-0.16980943E-13</totfact>
</mgrwt>
</event>
<event>
 4    1 -0.4926183E-019  0.1493695E+02  0.7818608E-02  0.1869999E+00
          2   -1    0    0  501    0  0.00000000000E+00  0.00000000000E+00  0.11900031656E+03  0.11900031658E+03  0.25500000000E-02 0. -1.
         -2   -1    0    0    0  501 -0.00000000000E+00 -0.00000000000E+00 -0.46871872678E+00  0.46872566319E+00  0.25500000000E-02 0.  1.
         31    1    1    2    0    0  0.33880535073E+00 -0.33998952343E+00  0.61649012503E+02  0.62099034216E+02  0.74470750000E+01 0.  1.
        -31    1    1    2    0    0 -0.33880535073E+00  0.33998952343E+00  0.56882585328E+02  0.57370008032E+02  0.74470750000E+01 0.  1.
<mgrwt>
<rscale>  0 0.14936947E+02</rscale>
<asrwt>0</asrwt>
<pdfrwt beam="1">  1        2 0.98785363E+00 0.14936947E+02</pdfrwt>
<pdfrwt beam="2">  1       -2 0.99548664E+00 0.14936947E+02</pdfrwt>
<totfact>-0.22288415E-13</totfact>
</mgrwt>
</event>
<event>
 4    1 -0.4926183E-019  0.1491441E+02  0.7818608E-02  0.1870692E+00
         -2   -1    0    0    0  501 -0.00000000000E+00  0.00000000000E+00  0.11999563718E+03  0.11999563721E+03  0.25500000000E-02 0.  1.
          2   -1    0    0  501    0  0.00000000000E+00 -0.00000000000E+00 -0.46342926997E+00  0.46343628555E+00  0.25500000000E-02 0. -1.
         31    1    1    2    0    0 -0.29773962526E+00  0.24609098185E+00  0.60106764665E+02  0.60567576261E+02  0.74470750000E+01 0. -1.
        -31    1    1    2    0    0  0.29773962526E+00 -0.24609098185E+00  0.59425443248E+02  0.59891497234E+02  0.74470750000E+01 0. -1.
<mgrwt>
<rscale>  0 0.14914411E+02</rscale>
<asrwt>0</asrwt>
<pdfrwt beam="2">  1        2 0.98432807E+00 0.14914411E+02</pdfrwt>
<pdfrwt beam="1">  1       -2 0.99603990E+00 0.14914411E+02</pdfrwt>
<totfact>-0.36211593E-13</totfact>
</mgrwt>
</event>
<event>
 4    1 -0.4926183E-019  0.1494796E+02  0.7818608E-02  0.1869661E+00
          2   -1    0    0  501    0  0.00000000000E+00  0.00000000000E+00  0.11962724275E+03  0.11962724277E+03  0.25500000000E-02 0. -1.
         -2   -1    0    0    0  501 -0.00000000000E+00 -0.00000000000E+00 -0.46695025839E+00  0.46695722107E+00  0.25500000000E-02 0.  1.
         31    1    1    2    0    0 -0.27688113917E+00 -0.32678995918E+00  0.63331421976E+02  0.63769204091E+02  0.74470750000E+01 0. -1.
        -31    1    1    2    0    0  0.27688113917E+00  0.32678995918E+00  0.55828870512E+02  0.56324995904E+02  0.74470750000E+01 0.  1.
<mgrwt>
<rscale>  0 0.14947962E+02</rscale>
<asrwt>0</asrwt>
<pdfrwt beam="1">  1        2 0.99302287E+00 0.14947962E+02</pdfrwt>
<pdfrwt beam="2">  1       -2 0.99176574E+00 0.14947962E+02</pdfrwt>
<totfact>-0.83991078E-14</totfact>
</mgrwt>
</event>
<event>
 4    1 -0.4926183E-019  0.1498150E+02  0.7818608E-02  0.1868633E+00
          2   -1    0    0  501    0  0.00000000000E+00  0.00000000000E+00  0.11976892541E+03  0.11976892543E+03  0.25500000000E-02 0.  1.
         -2   -1    0    0    0  501 -0.00000000000E+00 -0.00000000000E+00 -0.46849326730E+00  0.46850020705E+00  0.25500000000E-02 0. -1.
         31    1    1    2    0    0 -0.46979569317E+00 -0.63601979514E+00  0.58326608798E+02  0.58805420236E+02  0.74470750000E+01 0. -1.
        -31    1    1    2    0    0  0.46979569317E+00  0.63601979514E+00  0.60973823341E+02  0.61432005405E+02  0.74470750000E+01 0.  1.
<mgrwt>
<rscale>  0 0.14981502E+02</rscale>
<asrwt>0</asrwt>
<pdfrwt beam="1">  1        2 0.99420716E+00 0.14981502E+02</pdfrwt>
<pdfrwt beam="2">  1       -2 0.99503472E+00 0.14981502E+02</pdfrwt>
<totfact>-0.12828167E-13</totfact>
</mgrwt>
</event>
<event>
 4    1 -0.4926183E-019  0.1490376E+02  0.7818608E-02  0.1871020E+00
          2   -1    0    0  501    0  0.00000000000E+00  0.00000000000E+00  0.11871054571E+03  0.11871054574E+03  0.25500000000E-02 0.  1.
         -2   -1    0    0    0  501 -0.00000000000E+00 -0.00000000000E+00 -0.46777719568E+00  0.46778414606E+00  0.25500000000E-02 0. -1.
         31    1    1    2    0    0  0.26433840373E+00 -0.15925881632E-02  0.59450952431E+02  0.59916145974E+02  0.74470750000E+01 0.  1.
        -31    1    1    2    0    0 -0.26433840373E+00  0.15925881632E-02  0.58791816084E+02  0.59262183910E+02  0.74470750000E+01 0. -1.
<mgrwt>
<rscale>  0 0.14903758E+02</rscale>
<asrwt>0</asrwt>
<pdfrwt beam="1">  1        2 0.98544982E+00 0.14903758E+02</pdfrwt>
<pdfrwt beam="2">  1       -2 0.99348534E+00 0.14903758E+02</pdfrwt>
<totfact>-0.30148276E-13</totfact>
</mgrwt>
</event>
<event>
 4    1 -0.4926183E-019  0.1493709E+02  0.7818608E-02  0.1869994E+00
         -2   -1    0    0    0  501 -0.00000000000E+00  0.00000000000E+00  0.11970427381E+03  0.11970427384E+03  0.25500000000E-02 0. -1.
          2   -1    0    0  501    0  0.00000000000E+00 -0.00000000000E+00 -0.46597100702E+00  0.46597798434E+00  0.25500000000E-02 0.  1.
         31    1    1    2    0    0 -0.33750979954E+00  0.35643184364E-01  0.63262011013E+02  0.63699734276E+02  0.74470750000E+01 0.  1.
        -31    1    1    2    0    0  0.33750979954E+00 -0.35643184364E-01  0.55976291788E+02  0.56470517544E+02  0.74470750000E+01 0.  1.
<mgrwt>
<rscale>  0 0.14937087E+02</rscale>
<asrwt>0</asrwt>
<pdfrwt beam="2">  1        2 0.98969646E+00 0.14937087E+02</pdfrwt>
<pdfrwt beam="1">  1       -2 0.99365172E+00 0.14937087E+02</pdfrwt>
<totfact>-0.17485193E-13</totfact>
</mgrwt>
</event>
<event>
 4    1  0.4926183E-019  0.1492078E+02  0.7818608E-02  0.1870496E+00
          2   -1    0    0  501    0  0.00000000000E+00  0.00000000000E+00  0.11978672048E+03  0.11978672050E+03  0.25500000000E-02 0. -1.
         -2   -1    0    0    0  501 -0.00000000000E+00 -0.00000000000E+00 -0.46463383909E+00  0.46464083648E+00  0.25500000000E-02 0.  1.
         31    1    1    2    0    0 -0.99774901542E-01 -0.11615564946E+00  0.56289461659E+02  0.56780153813E+02  0.74470750000E+01 0.  1.
        -31    1    1    2    0    0  0.99774901542E-01  0.11615564946E+00  0.63032624978E+02  0.63471207526E+02  0.74470750000E+01 0. -1.
<mgrwt>
<rscale>  0 0.14920776E+02</rscale>
<asrwt>0</asrwt>
<pdfrwt beam="1">  1        2 0.99432239E+00 0.14920776E+02</pdfrwt>
<pdfrwt beam="2">  1       -2 0.98687003E+00 0.14920776E+02</pdfrwt>
<totfact> 0.27628573E-13</totfact>
</mgrwt>
</event>
<event>
 4    1 -0.4926183E-019  0.1496441E+02  0.7818608E-02  0.1869156E+00
          2   -1    0    0  501    0  0.00000000000E+00  0.00000000000E+00  0.11919997694E+03  0.11919997697E+03  0.25500000000E-02 0. -1.
         -2   -1    0    0    0  501 -0.00000000000E+00 -0.00000000000E+00 -0.46965621709E+00  0.46966313965E+00  0.25500000000E-02 0.  1.
         31    1    1    2    0    0  0.35492933381E+00 -0.55648755602E-01  0.54336431839E+02  0.54845563382E+02  0.74470750000E+01 0.  1.
        -31    1    1    2    0    0 -0.35492933381E+00  0.55648755602E-01  0.64393888882E+02  0.64824076723E+02  0.74470750000E+01 0. -1.
<mgrwt>
<rscale>  0 0.14964415E+02</rscale>
<asrwt>0</asrwt>
<pdfrwt beam="1">  1        2 0.98951231E+00 0.14964415E+02</pdfrwt>
<pdfrwt beam="2">  1       -2 0.99747644E+00 0.14964415E+02</pdfrwt>
<totfact>-0.13322864E-13</totfact>
</mgrwt>
</event>
<event>
 4    1 -0.4926183E-019  0.1493167E+02  0.7818608E-02  0.1870161E+00
         -2   -1    0    0    0  501 -0.00000000000E+00  0.00000000000E+00  0.11972640400E+03  0.11972640403E+03  0.25500000000E-02 0.  1.
          2   -1    0    0  501    0  0.00000000000E+00 -0.00000000000E+00 -0.46554686064E+00  0.46555384431E+00  0.25500000000E-02 0. -1.
         31    1    1    2    0    0 -0.47098941331E+00 -0.16209249446E+00  0.58198578422E+02  0.58675221017E+02  0.74470750000E+01 0. -1.
        -31    1    1    2    0    0  0.47098941331E+00  0.16209249446E+00  0.61062278721E+02  0.61516736858E+02  0.74470750000E+01 0.  1.
<mgrwt>
<rscale>  0 0.14931667E+02</rscale>
<asrwt>0</asrwt>
<pdfrwt beam="2">  1        2 0.98879980E+00 0.14931667E+02</pdfrwt>
<pdfrwt beam="1">  1       -2 0.99383120E+00 0.14931667E+02</pdfrwt>
<totfact>-0.19575646E-13</totfact>
</mgrwt>
</event>
<event>
 4    1 -0.4926183E-019  0.1493349E+02  0.7818608E-02  0.1870105E+00
          2   -1    0    0  501    0  0.00000000000E+00  0.00000000000E+00  0.11856655657E+03  0.11856655659E+03  0.25500000000E-02 0.  1.
         -2   -1    0    0    0  501 -0.00000000000E+00 -0.00000000000E+00 -0.47021550207E+00  0.47022241641E+00  0.25500000000E-02 0. -1.
         31    1    1    2    0    0 -0.16473240530E+00  0.44696731154E+00  0.56994099615E+02  0.57480546566E+02  0.74470750000E+01 0. -1.
        -31    1    1    2    0    0  0.16473240530E+00 -0.44696731154E+00  0.61102241449E+02  0.61556232444E+02  0.74470750000E+01 0.  1.
<mgrwt>
<rscale>  0 0.14933485E+02</rscale>
<asrwt>0</asrwt>
<pdfrwt beam="1">  1        2 0.98427937E+00 0.14933485E+02</pdfrwt>
<pdfrwt beam="2">  1       -2 0.99863862E+00 0.14933485E+02</pdfrwt>
<totfact>-0.16766109E-13</totfact>
</mgrwt>
</event>
<event>
 4    1  0.4926183E-019  0.1492058E+02  0.7818608E-02  0.1870502E+00
          2   -1    0    0  501    0  0.00000000000E+00  0.00000000000E+00  0.11984383423E+03  0.11984383426E+03  0.25500000000E-02 0.  1.
         -2   -1    0    0    0  501 -0.00000000000E+00 -0.00000000000E+00 -0.46440037382E+00  0.46440737473E+00  0.25500000000E-02 0. -1.
         31    1    1    2    0    0 -0.16953761660E+00  0.34683322093E+00  0.61455950212E+02  0.61906718365E+02  0.74470750000E+01 0.  1.
        -31    1    1    2    0    0  0.16953761660E+00 -0.34683322093E+00  0.57923483649E+02  0.58401523271E+02  0.74470750000E+01 0. -1.
<mgrwt>
<rscale>  0 0.14920582E+02</rscale>
<asrwt>0</asrwt>
<pdfrwt beam="1">  1        2 0.99479272E+00 0.14920582E+02</pdfrwt>
<pdfrwt beam="2">  1       -2 0.98637790E+00 0.14920582E+02</pdfrwt>
<totfact> 0.31930884E-13</totfact>
</mgrwt>
</event>
<event>
 4    1 -0.4926183E-019  0.1501000E+02  0.7818608E-02  0.1867764E+00
         -2   -1    0    0    0  501 -0.00000000000E+00  0.00000000000E+00  0.11995510994E+03  0.11995510996E+03  0.25500000000E-02 0.  1.
          2   -1    0    0  501    0  0.00000000000E+00 -0.00000000000E+00 -0.46954711988E+00  0.46955404406E+00  0.25500000000E-02 0. -1.
         31    1    1    2    0    0  0.57431026043E+00  0.69459514114E+00  0.61603247821E+02  0.62058290041E+02  0.74470750000E+01 0.  1.
        -31    1    1    2    0    0 -0.57431026043E+00 -0.69459514114E+00  0.57882314994E+02  0.58366373965E+02  0.74470750000E+01 0. -1.
<mgrwt>
<rscale>  0 0.15009996E+02</rscale>
<asrwt>0</asrwt>
<pdfrwt beam="2">  1        2 0.99727028E+00 0.15009996E+02</pdfrwt>
<pdfrwt beam="1">  1       -2 0.99575538E+00 0.15009996E+02</pdfrwt>
<totfact>-0.79278730E-14</totfact>
</mgrwt>
</event>
<event>
 4    1  0.4926183E-019  0.1490783E+02  0.7818608E-02  0.1870894E+00
          2   -1    0    0  501    0  0.00000000000E+00  0.00000000000E+00  0.11991903092E+03  0.11991903094E+03  0.25500000000E-02 0. -1.
         -2   -1    0    0    0  501 -0.00000000000E+00 -0.00000000000E+00 -0.46331605551E+00  0.46332307280E+00  0.25500000000E-02 0.  1.
         31    1    1    2    0    0 -0.30352835885E-01 -0.31542855002E+00  0.60039965901E+02  0.60500883034E+02  0.74470750000E+01 0. -1.
        -31    1    1    2    0    0  0.30352835885E-01  0.31542855002E+00  0.59415748959E+02  0.59881470981E+02  0.74470750000E+01 0. -1.
<mgrwt>
<rscale>  0 0.14907828E+02</rscale>
<asrwt>0</asrwt>
<pdfrwt beam="1">  1        2 0.99540553E+00 0.14907828E+02</pdfrwt>
<pdfrwt beam="2">  1       -2 0.98408611E+00 0.14907828E+02</pdfrwt>
<totfact> 0.59079710E-13</totfact>
</mgrwt>
</event>
<event>
 4    1 -0.4926183E-019  0.1489559E+02  0.7818608E-02  0.1871271E+00
         -2   -1    0    0    0  501 -0.00000000000E+00  0.00000000000E+00  0.11996305597E+03  0.11996305599E+03  0.25500000000E-02 0.  1.
          2   -1    0    0  501    0  0.00000000000E+00 -0.00000000000E+00 -0.46238606140E+00  0.46239309281E+00  0.25500000000E-02 0. -1.
         31    1    1    2    0    0  0.55502566649E-01 -0.14165727892E-01  0.60448742519E+02  0.60905768852E+02  0.74470750000E+01 0.  1.
        -31    1    1    2    0    0 -0.55502566649E-01  0.14165727892E-01  0.59051927387E+02  0.59519680235E+02  0.74470750000E+01 0. -1.
<mgrwt>
<rscale>  0 0.14895593E+02</rscale>
<asrwt>0</asrwt>
<pdfrwt beam="2">  1        2 0.98211980E+00 0.14895593E+02</pdfrwt>
<pdfrwt beam="1">  1       -2 0.99576187E+00 0.14895593E+02</pdfrwt>
<totfact>-0.53960542E-13</totfact>
</mgrwt>
</event>
<event>
 4    1  0.4926183E-019  0.1492249E+02  0.7818608E-02  0.1870443E+00
          2   -1    0    0  501    0  0.00000000000E+00  0.00000000000E+00  0.11991927151E+03  0.11991927153E+03  0.25500000000E-02 0. -1.
         -2   -1    0    0    0  501 -0.00000000000E+00 -0.00000000000E+00 -0.46422708338E+00  0.46423408691E+00  0.25500000000E-02 0.  1.
         31    1    1    2    0    0  0.16352509224E-01  0.37603573455E+00  0.57599227289E+02  0.58079872422E+02  0.74470750000E+01 0. -1.
        -31    1    1    2    0    0 -0.16352509224E-01 -0.37603573455E+00  0.61855817135E+02  0.62303633199E+02  0.74470750000E+01 0. -1.
<mgrwt>
<rscale>  0 0.14922493E+02</rscale>
<asrwt>0</asrwt>
<pdfrwt beam="1">  1        2 0.99541505E+00 0.14922493E+02</pdfrwt>
<pdfrwt beam="2">  1       -2 0.98601365E+00 0.14922493E+02</pdfrwt>
<totfact> 0.33913973E-13</totfact>
</mgrwt>
</event>
<event>
 4    1 -0.4926183E-019  0.1490025E+02  0.7818608E-02  0.1871128E+00
         -2   -1    0    0    0  501 -0.00000000000E+00  0.00000000000E+00  0.11967559381E+03  0.11967559383E+03  0.25500000000E-02 0. -1.
          2   -1    0    0  501    0  0.00000000000E+00 -0.00000000000E+00 -0.46378675431E+00  0.46379376449E+00  0.25500000000E-02 0.  1.
         31    1    1    2    0    0 -0.14230924391E+00 -0.13466093565E+00  0.58928119725E+02  0.59397143078E+02  0.74470750000E+01 0.  1.
        -31    1    1    2    0    0  0.14230924391E+00  0.13466093565E+00  0.60283687328E+02  0.60742244520E+02  0.74470750000E+01 0. -1.
<mgrwt>
<rscale>  0 0.14900252E+02</rscale>
<asrwt>0</asrwt>
<pdfrwt beam="2">  1        2 0.98507429E+00 0.14900252E+02</pdfrwt>
<pdfrwt beam="1">  1       -2 0.99339651E+00 0.14900252E+02</pdfrwt>
<totfact>-0.31664496E-13</totfact>
</mgrwt>
</event>
<event>
 4    1  0.4926183E-019  0.1489925E+02  0.7818608E-02  0.1871158E+00
         -2   -1    0    0    0  501 -0.00000000000E+00  0.00000000000E+00  0.11804543389E+03  0.11804543392E+03  0.25500000000E-02 0. -1.
          2   -1    0    0  501    0  0.00000000000E+00 -0.00000000000E+00 -0.47012847794E+00  0.47013539355E+00  0.25500000000E-02 0.  1.
         31    1    1    2    0    0  0.17906710779E+00 -0.65168981550E-01  0.58460307746E+02  0.58933036744E+02  0.74470750000E+01 0.  1.
        -31    1    1    2    0    0 -0.17906710779E+00  0.65168981550E-01  0.59114997663E+02  0.59582532565E+02  0.74470750000E+01 0. -1.
<mgrwt>
<rscale>  0 0.14899253E+02</rscale>
<asrwt>0</asrwt>
<pdfrwt beam="2">  1        2 0.99843713E+00 0.14899253E+02</pdfrwt>
<pdfrwt beam="1">  1       -2 0.97996965E+00 0.14899253E+02</pdfrwt>
<totfact> 0.64047198E-13</totfact>
</mgrwt>
</event>
<event>
 4    1  0.4926183E-019  0.1492687E+02  0.7818608E-02  0.1870308E+00
          2   -1    0    0  501    0  0.00000000000E+00  0.00000000000E+00  0.11982097209E+03  0.11982097212E+03  0.25500000000E-02 0.  1.
         -2   -1    0    0    0  501 -0.00000000000E+00 -0.00000000000E+00 -0.46488078633E+00  0.46488778001E+00  0.25500000000E-02 0. -1.
         31    1    1    2    0    0 -0.89248519713E-01  0.23548376599E+00  0.56253998975E+02  0.56745349982E+02  0.74470750000E+01 0. -1.
        -31    1    1    2    0    0  0.89248519713E-01 -0.23548376599E+00  0.63102092331E+02  0.63540509917E+02  0.74470750000E+01 0.  1.
<mgrwt>
<rscale>  0 0.14926874E+02</rscale>
<asrwt>0</asrwt>
<pdfrwt beam="1">  1        2 0.99460765E+00 0.14926874E+02</pdfrwt>
<pdfrwt beam="2">  1       -2 0.98739360E+00 0.14926874E+02</pdfrwt>
<totfact> 0.21472876E-13</totfact>
</mgrwt>
</event>
<event>
 4    1  0.4926183E-019  0.1491530E+02  0.7818608E-02  0.1870664E+00
          2   -1    0    0  501    0  0.00000000000E+00  0.00000000000E+00  0.11995881062E+03  0.11995881065E+03  0.25500000000E-02 0. -1.
         -2   -1    0    0    0  501 -0.00000000000E+00 -0.00000000000E+00 -0.46362656687E+00  0.46363357946E+00  0.25500000000E-02 0.  1.
         31    1    1    2    0    0  0.24811399246E-01 -0.33140076708E+00  0.61500680545E+02  0.61950811743E+02  0.74470750000E+01 0. -1.
        -31    1    1    2    0    0 -0.24811399246E-01  0.33140076708E+00  0.57994503510E+02  0.58471632485E+02  0.74470750000E+01 0.  1.
<mgrwt>
<rscale>  0 0.14915296E+02</rscale>
<asrwt>0</asrwt>
<pdfrwt beam="1">  1        2 0.99573702E+00 0.14915296E+02</pdfrwt>
<pdfrwt beam="2">  1       -2 0.98474434E+00 0.14915296E+02</pdfrwt>
<totfact> 0.47760837E-13</totfact>
</mgrwt>
</event>
<event>
 4    1  0.4926183E-019  0.1491952E+02  0.7818608E-02  0.1870534E+00
         -2   -1    0    0    0  501 -0.00000000000E+00  0.00000000000E+00  0.11864112366E+03  0.11864112369E+03  0.25500000000E-02 0.  1.
          2   -1    0    0  501    0  0.00000000000E+00 -0.00000000000E+00 -0.46904168695E+00  0.46904861858E+00  0.25500000000E-02 0. -1.
         31    1    1    2    0    0  0.19505163060E-01  0.20468676978E+00  0.62145341004E+02  0.62590291673E+02  0.74470750000E+01 0.  1.
        -31    1    1    2    0    0 -0.19505163060E-01 -0.20468676978E+00  0.56026740972E+02  0.56519880636E+02  0.74470750000E+01 0. -1.
<mgrwt>
<rscale>  0 0.14919524E+02</rscale>
<asrwt>0</asrwt>
<pdfrwt beam="2">  1        2 0.99615801E+00 0.14919524E+02</pdfrwt>
<pdfrwt beam="1">  1       -2 0.98488624E+00 0.14919524E+02</pdfrwt>
<totfact> 0.43246042E-13</totfact>
</mgrwt>
</event>
<event>
 4    1 -0.4926183E-019  0.1492090E+02  0.7818608E-02  0.1870492E+00
          2   -1    0    0  501    0  0.00000000000E+00  0.00000000000E+00  0.11835785741E+03  0.11835785744E+03  0.25500000000E-02 0.  1.
         -2   -1    0    0    0  501 -0.00000000000E+00 -0.00000000000E+00 -0.47025118157E+00  0.47025809537E+00  0.25500000000E-02 0. -1.
         31    1    1    2    0    0 -0.20488148808E+00 -0.26067780138E+00  0.61326042610E+02  0.61777442142E+02  0.74470750000E+01 0.  1.
        -31    1    1    2    0    0  0.20488148808E+00  0.26067780138E+00  0.56561563620E+02  0.57050673392E+02  0.74470750000E+01 0. -1.
<mgrwt>
<rscale>  0 0.14920903E+02</rscale>
<asrwt>0</asrwt>
<pdfrwt beam="1">  1        2 0.98255400E+00 0.14920903E+02</pdfrwt>
<pdfrwt beam="2">  1       -2 0.99870714E+00 0.14920903E+02</pdfrwt>
<totfact>-0.21407473E-13</totfact>
</mgrwt>
</event>
<event>
 4    1  0.4926183E-019  0.1490692E+02  0.7818608E-02  0.1870922E+00
          2   -1    0    0  501    0  0.00000000000E+00  0.00000000000E+00  0.11972514801E+03  0.11972514804E+03  0.25500000000E-02 0. -1.
         -2   -1    0    0    0  501 -0.00000000000E+00 -0.00000000000E+00 -0.46400977723E+00  0.46401678403E+00  0.25500000000E-02 0.  1.
         31    1    1    2    0    0 -0.12693812080E+00  0.22014836245E+00  0.61039971558E+02  0.61493102316E+02  0.74470750000E+01 0.  1.
        -31    1    1    2    0    0  0.12693812080E+00 -0.22014836245E+00  0.58221166676E+02  0.58696062506E+02  0.74470750000E+01 0.  1.
<mgrwt>
<rscale>  0 0.14906919E+02</rscale>
<asrwt>0</asrwt>
<pdfrwt beam="1">  1        2 0.99380811E+00 0.14906919E+02</pdfrwt>
<pdfrwt beam="2">  1       -2 0.98554772E+00 0.14906919E+02</pdfrwt>
<totfact> 0.45851650E-13</totfact>
</mgrwt>
</event>
<event>
 4    1 -0.4926183E-019  0.1496439E+02  0.7818608E-02  0.1869157E+00
          2   -1    0    0  501    0  0.00000000000E+00  0.00000000000E+00  0.11915278493E+03  0.11915278496E+03  0.25500000000E-02 0. -1.
         -2   -1    0    0    0  501 -0.00000000000E+00 -0.00000000000E+00 -0.46984058694E+00  0.46984750679E+00  0.25500000000E-02 0.  1.
         31    1    1    2    0    0  0.67801587221E+00  0.80757750239E-01  0.57415035581E+02  0.57900012644E+02  0.74470750000E+01 0. -1.
        -31    1    1    2    0    0 -0.67801587221E+00 -0.80757750239E-01  0.61267908760E+02  0.61722619818E+02  0.74470750000E+01 0. -1.
<mgrwt>
<rscale>  0 0.14964388E+02</rscale>
<asrwt>0</asrwt>
<pdfrwt beam="1">  1        2 0.98912362E+00 0.14964388E+02</pdfrwt>
<pdfrwt beam="2">  1       -2 0.99786492E+00 0.14964388E+02</pdfrwt>
<totfact>-0.12229941E-13</totfact>
</mgrwt>
</event>
<event>
 4    1 -0.4926183E-019  0.1499842E+02  0.7818608E-02  0.1868117E+00
         -2   -1    0    0    0  501 -0.00000000000E+00  0.00000000000E+00  0.11967755989E+03  0.11967755992E+03  0.25500000000E-02 0.  1.
          2   -1    0    0  501    0  0.00000000000E+00 -0.00000000000E+00 -0.46991040128E+00  0.46991732011E+00  0.25500000000E-02 0. -1.
         31    1    1    2    0    0 -0.51885369367E+00 -0.28735300269E+00  0.64841119228E+02  0.65270065495E+02  0.74470750000E+01 0.  1.
        -31    1    1    2    0    0  0.51885369367E+00  0.28735300269E+00  0.54366530259E+02  0.54877411741E+02  0.74470750000E+01 0. -1.
<mgrwt>
<rscale>  0 0.14998420E+02</rscale>
<asrwt>0</asrwt>
<pdfrwt beam="2">  1        2 0.99802980E+00 0.14998420E+02</pdfrwt>
<pdfrwt beam="1">  1       -2 0.99346340E+00 0.14998420E+02</pdfrwt>
<totfact>-0.60239151E-14</totfact>
</mgrwt>
</event>
<event>
 4    1 -0.4926183E-019  0.1491998E+02  0.7818608E-02  0.1870520E+00
          2   -1    0    0  501    0  0.00000000000E+00  0.00000000000E+00  0.11863859823E+03  0.11863859826E+03  0.25500000000E-02 0. -1.
         -2   -1    0    0    0  501 -0.00000000000E+00 -0.00000000000E+00 -0.46908024908E+00  0.46908718015E+00  0.25500000000E-02 0.  1.
         31    1    1    2    0    0 -0.27903625932E+00 -0.27146172448E+00  0.57469115649E+02  0.57950925206E+02  0.74470750000E+01 0.  1.
        -31    1    1    2    0    0  0.27903625932E+00  0.27146172448E+00  0.60700402331E+02  0.61156760230E+02  0.74470750000E+01 0. -1.
<mgrwt>
<rscale>  0 0.14919978E+02</rscale>
<asrwt>0</asrwt>
<pdfrwt beam="1">  1        2 0.98486568E+00 0.14919978E+02</pdfrwt>
<pdfrwt beam="2">  1       -2 0.99623951E+00 0.14919978E+02</pdfrwt>
<totfact>-0.32362869E-13</totfact>
</mgrwt>
</event>
<event>
 4    1  0.4926183E-019  0.1493963E+02  0.7818608E-02  0.1869916E+00
          2   -1    0    0  501    0  0.00000000000E+00  0.00000000000E+00  0.11998332022E+03  0.11998332024E+03  0.25500000000E-02 0.  1.
         -2   -1    0    0    0  501 -0.00000000000E+00 -0.00000000000E+00 -0.46504555617E+00  0.46505254737E+00  0.25500000000E-02 0. -1.
         31    1    1    2    0    0 -0.23546855823E+00 -0.12955438250E+00  0.63924931460E+02  0.64357812408E+02  0.74470750000E+01 0.  1.
        -31    1    1    2    0    0  0.23546855823E+00  0.12955438250E+00  0.55593343201E+02  0.56090560383E+02  0.74470750000E+01 0. -1.
<mgrwt>
<rscale>  0 0.14939630E+02</rscale>
<asrwt>0</asrwt>
<pdfrwt beam="1">  1        2 0.99595142E+00 0.14939630E+02</pdfrwt>
<pdfrwt beam="2">  1       -2 0.98774738E+00 0.14939630E+02</pdfrwt>
<totfact> 0.15474261E-13</totfact>
</mgrwt>
</event>
<event>
 4    1 -0.4926183E-019  0.1495412E+02  0.7818608E-02  0.1869472E+00
          2   -1    0    0  501    0  0.00000000000E+00  0.00000000000E+00  0.11927773740E+03  0.11927773743E+03  0.25500000000E-02 0. -1.
         -2   -1    0    0    0  501 -0.00000000000E+00 -0.00000000000E+00 -0.46870470322E+00  0.46871163984E+00  0.25500000000E-02 0.  1.
         31    1    1    2    0    0  0.51007843920E+00  0.36189057844E+00  0.61305919582E+02  0.61759742929E+02  0.74470750000E+01 0.  1.
        -31    1    1    2    0    0 -0.51007843920E+00 -0.36189057844E+00  0.57503113119E+02  0.57986706142E+02  0.74470750000E+01 0. -1.
<mgrwt>
<rscale>  0 0.14954124E+02</rscale>
<asrwt>0</asrwt>
<pdfrwt beam="1">  1        2 0.99014742E+00 0.14954124E+02</pdfrwt>
<pdfrwt beam="2">  1       -2 0.99546606E+00 0.14954124E+02</pdfrwt>
<totfact>-0.17278512E-13</totfact>
</mgrwt>
</event>
<event>
 4    1  0.4926183E-019  0.1491914E+02  0.7818608E-02  0.1870546E+00
          2   -1    0    0  501    0  0.00000000000E+00  0.00000000000E+00  0.11997124939E+03  0.11997124942E+03  0.25500000000E-02 0. -1.
         -2   -1    0    0    0  501 -0.00000000000E+00 -0.00000000000E+00 -0.46381741058E+00  0.46382442029E+00  0.25500000000E-02 0.  1.
         31    1    1    2    0    0 -0.18306866580E+00 -0.35335273078E+00  0.58405831292E+02  0.58880034199E+02  0.74470750000E+01 0.  1.
        -31    1    1    2    0    0  0.18306866580E+00  0.35335273078E+00  0.61101600692E+02  0.61555039643E+02  0.74470750000E+01 0.  1.
<mgrwt>
<rscale>  0 0.14919139E+02</rscale>
<asrwt>0</asrwt>
<pdfrwt beam="1">  1        2 0.99584145E+00 0.14919139E+02</pdfrwt>
<pdfrwt beam="2">  1       -2 0.98514852E+00 0.14919139E+02</pdfrwt>
<totfact> 0.42044917E-13</totfact>
</mgrwt>
</event>
<event>
 4    1  0.4926183E-019  0.1489664E+02  0.7818608E-02  0.1871239E+00
         -2   -1    0    0    0  501 -0.00000000000E+00  0.00000000000E+00  0.11817978643E+03  0.11817978646E+03  0.25500000000E-02 0. -1.
          2   -1    0    0  501    0  0.00000000000E+00 -0.00000000000E+00 -0.46942926551E+00  0.46943619143E+00  0.25500000000E-02 0.  1.
         31    1    1    2    0    0 -0.36765730626E-01 -0.89749291287E-01  0.58094124790E+02  0.58569579714E+02  0.74470750000E+01 0.  1.
        -31    1    1    2    0    0  0.36765730626E-01  0.89749291287E-01  0.59616232373E+02  0.60079642934E+02  0.74470750000E+01 0.  1.
<mgrwt>
<rscale>  0 0.14896639E+02</rscale>
<asrwt>0</asrwt>
<pdfrwt beam="2">  1        2 0.99696257E+00 0.14896639E+02</pdfrwt>
<pdfrwt beam="1">  1       -2 0.98107479E+00 0.14896639E+02</pdfrwt>
<totfact> 0.87175834E-13</totfact>
</mgrwt>
</event>
<event>
 4    1 -0.4926183E-019  0.1491238E+02  0.7818608E-02  0.1870754E+00
         -2   -1    0    0    0  501 -0.00000000000E+00  0.00000000000E+00  0.12035688078E+03  0.12035688081E+03  0.25500000000E-02 0. -1.
          2   -1    0    0  501    0  0.00000000000E+00 -0.00000000000E+00 -0.46191275906E+00  0.46191979768E+00  0.25500000000E-02 0.  1.
         31    1    1    2    0    0 -0.35573426098E+00  0.27139667500E-01  0.60698659203E+02  0.61154831686E+02  0.74470750000E+01 0. -1.
        -31    1    1    2    0    0  0.35573426098E+00 -0.27139667500E-01  0.59196308819E+02  0.59663968920E+02  0.74470750000E+01 0.  1.
<mgrwt>
<rscale>  0 0.14912385E+02</rscale>
<asrwt>0</asrwt>
<pdfrwt beam="2">  1        2 0.98113067E+00 0.14912385E+02</pdfrwt>
<pdfrwt beam="1">  1       -2 0.99901438E+00 0.14912385E+02</pdfrwt>
<totfact>-0.21288267E-13</totfact>
</mgrwt>
</event>
<event>
 4    1 -0.4926183E-019  0.1496688E+02  0.7818608E-02  0.1869081E+00
         -2   -1    0    0    0  501 -0.00000000000E+00  0.00000000000E+00  0.11943884940E+03  0.11943884942E+03  0.25500000000E-02 0. -1.
          2   -1    0    0  501    0  0.00000000000E+00 -0.00000000000E+00 -0.46887109590E+00  0.46887803006E+00  0.25500000000E-02 0.  1.
         31    1    1    2    0    0 -0.23251130607E+00  0.10478179119E+00  0.53946732475E+02  0.54458919486E+02  0.74470750000E+01 0.  1.
        -31    1    1    2    0    0  0.23251130607E+00 -0.10478179119E+00  0.65023245825E+02  0.65448807967E+02  0.74470750000E+01 0. -1.
<mgrwt>
<rscale>  0 0.14966876E+02</rscale>
<asrwt>0</asrwt>
<pdfrwt beam="2">  1        2 0.99582332E+00 0.14966876E+02</pdfrwt>
<pdfrwt beam="1">  1       -2 0.99148099E+00 0.14966876E+02</pdfrwt>
<totfact>-0.55465046E-14</totfact>
</mgrwt>
</event>
<event>
 4    1 -0.4926183E-019  0.1491458E+02  0.7818608E-02  0.1870686E+00
         -2   -1    0    0    0  501 -0.00000000000E+00  0.00000000000E+00  0.11976922035E+03  0.11976922038E+03  0.25500000000E-02 0.  1.
          2   -1    0    0  501    0  0.00000000000E+00 -0.00000000000E+00 -0.46431584408E+00  0.46432284626E+00  0.25500000000E-02 0. -1.
         31    1    1    2    0    0 -0.18112432028E+00  0.31219337414E-01  0.62427082300E+02  0.62869971459E+02  0.74470750000E+01 0.  1.
        -31    1    1    2    0    0  0.18112432028E+00 -0.31219337414E-01  0.56877822208E+02  0.57363571766E+02  0.74470750000E+01 0. -1.
<mgrwt>
<rscale>  0 0.14914579E+02</rscale>
<asrwt>0</asrwt>
<pdfrwt beam="2">  1        2 0.98619668E+00 0.14914579E+02</pdfrwt>
<pdfrwt beam="1">  1       -2 0.99417506E+00 0.14914579E+02</pdfrwt>
<totfact>-0.28434659E-13</totfact>
</mgrwt>
</event>
<event>
 4    1  0.4926183E-019  0.1494522E+02  0.7818608E-02  0.1869745E+00
          2   -1    0    0  501    0  0.00000000000E+00  0.00000000000E+00  0.11993798508E+03  0.11993798511E+03  0.25500000000E-02 0. -1.
         -2   -1    0    0    0  501 -0.00000000000E+00 -0.00000000000E+00 -0.46556955882E+00  0.46557654215E+00  0.25500000000E-02 0.  1.
         31    1    1    2    0    0  0.50641811660E+00 -0.19619342168E+00  0.57373359744E+02  0.57857205995E+02  0.74470750000E+01 0.  1.
        -31    1    1    2    0    0 -0.50641811660E+00  0.19619342168E+00  0.62099055776E+02  0.62546355654E+02  0.74470750000E+01 0.  1.
<mgrwt>
<rscale>  0 0.14945220E+02</rscale>
<asrwt>0</asrwt>
<pdfrwt beam="1">  1        2 0.99558089E+00 0.14945220E+02</pdfrwt>
<pdfrwt beam="2">  1       -2 0.98885458E+00 0.14945220E+02</pdfrwt>
<totfact> 0.77698925E-14</totfact>
</mgrwt>
</event>
<event>
 4    1  0.4926183E-019  0.1490774E+02  0.7818608E-02  0.1870897E+00
         -2   -1    0    0    0  501 -0.00000000000E+00  0.00000000000E+00  0.11809786406E+03  0.11809786409E+03  0.25500000000E-02 0.  1.
          2   -1    0    0  501    0  0.00000000000E+00 -0.00000000000E+00 -0.47045532200E+00  0.47046223281E+00  0.25500000000E-02 0. -1.
         31    1    1    2    0    0 -0.11386921032E+00  0.24481265425E+00  0.60152973781E+02  0.60612804590E+02  0.74470750000E+01 0.  1.
        -31    1    1    2    0    0  0.11386921032E+00 -0.24481265425E+00  0.57474434960E+02  0.57955521734E+02  0.74470750000E+01 0. -1.
<mgrwt>
<rscale>  0 0.14907740E+02</rscale>
<asrwt>0</asrwt>
<pdfrwt beam="2">  1        2 0.99913026E+00 0.14907740E+02</pdfrwt>
<pdfrwt beam="1">  1       -2 0.98040588E+00 0.14907740E+02</pdfrwt>
<totfact> 0.35724016E-13</totfact>
</mgrwt>
</event>
<event>
 4    1 -0.4926183E-019  0.1492217E+02  0.7818608E-02  0.1870453E+00
          2   -1    0    0  501    0  0.00000000000E+00  0.00000000000E+00  0.11871480819E+03  0.11871480822E+03  0.25500000000E-02 0. -1.
         -2   -1    0    0    0  501 -0.00000000000E+00 -0.00000000000E+00 -0.46891676353E+00  0.46892369701E+00  0.25500000000E-02 0.  1.
         31    1    1    2    0    0  0.29935278746E+00 -0.15979376787E+00  0.61567892071E+02  0.62017573366E+02  0.74470750000E+01 0. -1.
        -31    1    1    2    0    0 -0.29935278746E+00  0.15979376787E+00  0.56677999359E+02  0.57166158551E+02  0.74470750000E+01 0.  1.
<mgrwt>
<rscale>  0 0.14922169E+02</rscale>
<asrwt>0</asrwt>
<pdfrwt beam="1">  1        2 0.98549448E+00 0.14922169E+02</pdfrwt>
<pdfrwt beam="2">  1       -2 0.99589618E+00 0.14922169E+02</pdfrwt>
<totfact>-0.30416646E-13</totfact>
</mgrwt>
</event>
<event>
 4    1 -0.4926183E-019  0.1492112E+02  0.7818608E-02  0.1870485E+00
          2   -1    0    0  501    0  0.00000000000E+00  0.00000000000E+00  0.11852806672E+03  0.11852806675E+03  0.25500000000E-02 0.  1.
         -2   -1    0    0    0  501 -0.00000000000E+00 -0.00000000000E+00 -0.46958961070E+00  0.46959653425E+00  0.25500000000E-02 0. -1.
         31    1    1    2    0    0 -0.27188736766E+00 -0.86305950121E-01  0.56270439054E+02  0.56761805899E+02  0.74470750000E+01 0. -1.
        -31    1    1    2    0    0  0.27188736766E+00  0.86305950121E-01  0.61788038055E+02  0.62235857383E+02  0.74470750000E+01 0.  1.
<mgrwt>
<rscale>  0 0.14921121E+02</rscale>
<asrwt>0</asrwt>
<pdfrwt beam="1">  1        2 0.98395594E+00 0.14921121E+02</pdfrwt>
<pdfrwt beam="2">  1       -2 0.99731335E+00 0.14921121E+02</pdfrwt>
<totfact>-0.30647157E-13</totfact>
</mgrwt>
</event>
<event>
 4    1 -0.4926183E-019  0.1504805E+02  0.7818608E-02  0.1866606E+00
         -2   -1    0    0    0  501 -0.00000000000E+00  0.00000000000E+00  0.12025907444E+03  0.12025907447E+03  0.25500000000E-02 0.  1.
          2   -1    0    0  501    0  0.00000000000E+00 -0.00000000000E+00 -0.47073830515E+00  0.47074521181E+00  0.25500000000E-02 0. -1.
         31    1    1    2    0    0  0.32799517368E+00  0.43779414262E+00  0.67303141892E+02  0.67716106497E+02  0.74470750000E+01 0.  1.
        -31    1    1    2    0    0 -0.32799517368E+00 -0.43779414262E+00  0.52485194244E+02  0.53013713183E+02  0.74470750000E+01 0. -1.
<mgrwt>
<rscale>  0 0.15048053E+02</rscale>
<asrwt>0</asrwt>
<pdfrwt beam="2">  1        2 0.99980018E+00 0.15048053E+02</pdfrwt>
<pdfrwt beam="1">  1       -2 0.99827862E+00 0.15048053E+02</pdfrwt>
<totfact>-0.41962244E-15</totfact>
</mgrwt>
</event>
<event>
 4    1 -0.4926183E-019  0.1491658E+02  0.7818608E-02  0.1870625E+00
          2   -1    0    0  501    0  0.00000000000E+00  0.00000000000E+00  0.11858788177E+03  0.11858788179E+03  0.25500000000E-02 0. -1.
         -2   -1    0    0    0  501 -0.00000000000E+00 -0.00000000000E+00 -0.46906686217E+00  0.46907379343E+00  0.25500000000E-02 0.  1.
         31    1    1    2    0    0  0.86332373157E-01 -0.22639422881E+00  0.61687572567E+02  0.62135933588E+02  0.74470750000E+01 0. -1.
        -31    1    1    2    0    0 -0.86332373157E-01  0.22639422881E+00  0.56431242338E+02  0.56921022000E+02  0.74470750000E+01 0.  1.
<mgrwt>
<rscale>  0 0.14916576E+02</rscale>
<asrwt>0</asrwt>
<pdfrwt beam="1">  1        2 0.98444621E+00 0.14916576E+02</pdfrwt>
<pdfrwt beam="2">  1       -2 0.99620951E+00 0.14916576E+02</pdfrwt>
<totfact>-0.34801581E-13</totfact>
</mgrwt>
</event>
<event>
 4    1 -0.4926183E-019  0.1496950E+02  0.7818608E-02  0.1869001E+00
          2   -1    0    0  501    0  0.00000000000E+00  0.00000000000E+00  0.11943572693E+03  0.11943572695E+03  0.25500000000E-02 0.  1.
         -2   -1    0    0    0  501 -0.00000000000E+00 -0.00000000000E+00 -0.46904768364E+00  0.46905461518E+00  0.25500000000E-02 0. -1.
         31    1    1    2    0    0  0.46569313133E+00 -0.49115651496E+00  0.62071893765E+02  0.62520692786E+02  0.74470750000E+01 0. -1.
        -31    1    1    2    0    0 -0.46569313133E+00  0.49115651496E+00  0.56894785478E+02  0.57384088783E+02  0.74470750000E+01 0.  1.
<mgrwt>
<rscale>  0 0.14969498E+02</rscale>
<asrwt>0</asrwt>
<pdfrwt beam="1">  1        2 0.99145663E+00 0.14969498E+02</pdfrwt>
<pdfrwt beam="2">  1       -2 0.99619680E+00 0.14969498E+02</pdfrwt>
<totfact>-0.14460991E-13</totfact>
</mgrwt>
</event>
<event>
 4    1  0.4926183E-019  0.1491718E+02  0.7818608E-02  0.1870606E+00
         -2   -1    0    0    0  501 -0.00000000000E+00  0.00000000000E+00  0.11878886646E+03  0.11878886649E+03  0.25500000000E-02 0.  1.
          2   -1    0    0  501    0  0.00000000000E+00 -0.00000000000E+00 -0.46831117905E+00  0.46831812149E+00  0.25500000000E-02 0. -1.
         31    1    1    2    0    0 -0.41137703964E+00 -0.30813197278E-01  0.59466079167E+02  0.59931992108E+02  0.74470750000E+01 0. -1.
        -31    1    1    2    0    0  0.41137703964E+00  0.30813197278E-01  0.58854476114E+02  0.59325192501E+02  0.74470750000E+01 0. -1.
<mgrwt>
<rscale>  0 0.14917181E+02</rscale>
<asrwt>0</asrwt>
<pdfrwt beam="2">  1        2 0.99461754E+00 0.14917181E+02</pdfrwt>
<pdfrwt beam="1">  1       -2 0.98610184E+00 0.14917181E+02</pdfrwt>
<totfact> 0.35769554E-13</totfact>
</mgrwt>
</event>
<event>
 4    1 -0.4926183E-019  0.1492554E+02  0.7818608E-02  0.1870349E+00
         -2   -1    0    0    0  501 -0.00000000000E+00  0.00000000000E+00  0.11972425150E+03  0.11972425153E+03  0.25500000000E-02 0. -1.
          2   -1    0    0  501    0  0.00000000000E+00 -0.00000000000E+00 -0.46517333368E+00  0.46518032296E+00  0.25500000000E-02 0.  1.
         31    1    1    2    0    0 -0.34692165620E+00  0.33404607668E+00  0.59261986380E+02  0.59730008347E+02  0.74470750000E+01 0.  1.
        -31    1    1    2    0    0  0.34692165620E+00 -0.33404607668E+00  0.59997091789E+02  0.60459423505E+02  0.74470750000E+01 0.  1.
<mgrwt>
<rscale>  0 0.14925542E+02</rscale>
<asrwt>0</asrwt>
<pdfrwt beam="2">  1        2 0.98800946E+00 0.14925542E+02</pdfrwt>
<pdfrwt beam="1">  1       -2 0.99381031E+00 0.14925542E+02</pdfrwt>
<totfact>-0.21508031E-13</totfact>
</mgrwt>
</event>
<event>
 4    1 -0.4926183E-019  0.1499688E+02  0.7818608E-02  0.1868164E+00
          2   -1    0    0  501    0  0.00000000000E+00  0.00000000000E+00  0.12010850778E+03  0.12010850780E+03  0.25500000000E-02 0.  1.
         -2   -1    0    0    0  501 -0.00000000000E+00 -0.00000000000E+00 -0.46812848896E+00  0.46813543412E+00  0.25500000000E-02 0. -1.
         31    1    1    2    0    0  0.26259779757E+00  0.65326276360E+00  0.64013389532E+02  0.64448961786E+02  0.74470750000E+01 0.  1.
        -31    1    1    2    0    0 -0.26259779757E+00 -0.65326276360E+00  0.55626989756E+02  0.56127681452E+02  0.74470750000E+01 0. -1.
<mgrwt>
<rscale>  0 0.14996884E+02</rscale>
<asrwt>0</asrwt>
<pdfrwt beam="1">  1        2 0.99701205E+00 0.14996884E+02</pdfrwt>
<pdfrwt beam="2">  1       -2 0.99427394E+00 0.14996884E+02</pdfrwt>
<totfact>-0.87192641E-14</totfact>
</mgrwt>
</event>
<event>
 4    1 -0.4926183E-019  0.1491616E+02  0.7818608E-02  0.1870638E+00
          2   -1    0    0  501    0  0.00000000000E+00  0.00000000000E+00  0.11867554703E+03  0.11867554705E+03  0.25500000000E-02 0. -1.
         -2   -1    0    0    0  501 -0.00000000000E+00 -0.00000000000E+00 -0.46869393955E+00  0.46870087633E+00  0.25500000000E-02 0.  1.
         31    1    1    2    0    0 -0.26103426434E+00 -0.21781976121E+00  0.60860954755E+02  0.61315824418E+02  0.74470750000E+01 0. -1.
        -31    1    1    2    0    0  0.26103426434E+00  0.21781976121E+00  0.57345898333E+02  0.57828423513E+02  0.74470750000E+01 0.  1.
<mgrwt>
<rscale>  0 0.14916156E+02</rscale>
<asrwt>0</asrwt>
<pdfrwt beam="1">  1        2 0.98516800E+00 0.14916156E+02</pdfrwt>
<pdfrwt beam="2">  1       -2 0.99542352E+00 0.14916156E+02</pdfrwt>
<totfact>-0.33231305E-13</totfact>
</mgrwt>
</event>
<event>
 4    1 -0.4926183E-019  0.1497375E+02  0.7818608E-02  0.1868870E+00
          2   -1    0    0  501    0  0.00000000000E+00  0.00000000000E+00  0.11938553235E+03  0.11938553237E+03  0.25500000000E-02 0.  1.
         -2   -1    0    0    0  501 -0.00000000000E+00 -0.00000000000E+00 -0.46951173287E+00  0.46951865756E+00  0.25500000000E-02 0. -1.
         31    1    1    2    0    0 -0.41536174501E+00 -0.14396679249E+00  0.64527653361E+02  0.64957449351E+02  0.74470750000E+01 0.  1.
        -31    1    1    2    0    0  0.41536174501E+00  0.14396679249E+00  0.54388367251E+02  0.54897601679E+02  0.74470750000E+01 0. -1.
<mgrwt>
<rscale>  0 0.14973754E+02</rscale>
<asrwt>0</asrwt>
<pdfrwt beam="1">  1        2 0.99104542E+00 0.14973754E+02</pdfrwt>
<pdfrwt beam="2">  1       -2 0.99717686E+00 0.14973754E+02</pdfrwt>
<totfact>-0.12531648E-13</totfact>
</mgrwt>
</event>
<event>
 4    1 -0.4926183E-019  0.1498149E+02  0.7818608E-02  0.1868634E+00
         -2   -1    0    0    0  501 -0.00000000000E+00  0.00000000000E+00  0.11993363296E+03  0.11993363298E+03  0.25500000000E-02 0. -1.
          2   -1    0    0  501    0  0.00000000000E+00 -0.00000000000E+00 -0.46784896719E+00  0.46785591650E+00  0.25500000000E-02 0.  1.
         31    1    1    2    0    0  0.61403309713E+00 -0.51497895802E+00  0.60539779424E+02  0.61001361122E+02  0.74470750000E+01 0. -1.
        -31    1    1    2    0    0 -0.61403309713E+00  0.51497895802E+00  0.58926004565E+02  0.59400127778E+02  0.74470750000E+01 0. -1.
<mgrwt>
<rscale>  0 0.14981488E+02</rscale>
<asrwt>0</asrwt>
<pdfrwt beam="2">  1        2 0.99367695E+00 0.14981488E+02</pdfrwt>
<pdfrwt beam="1">  1       -2 0.99556375E+00 0.14981488E+02</pdfrwt>
<totfact>-0.13062939E-13</totfact>
</mgrwt>
</event>
<event>
 4    1  0.4926183E-019  0.1491122E+02  0.7818608E-02  0.1870790E+00
         -2   -1    0    0    0  501 -0.00000000000E+00  0.00000000000E+00  0.11826853947E+03  0.11826853950E+03  0.25500000000E-02 0.  1.
          2   -1    0    0  501    0  0.00000000000E+00 -0.00000000000E+00 -0.46999560285E+00  0.47000252041E+00  0.25500000000E-02 0. -1.
         31    1    1    2    0    0  0.30577201686E+00 -0.29403627468E-01  0.57456694592E+02  0.57938113886E+02  0.74470750000E+01 0. -1.
        -31    1    1    2    0    0 -0.30577201686E+00  0.29403627468E-01  0.60341849275E+02  0.60800428133E+02  0.74470750000E+01 0.  1.
<mgrwt>
<rscale>  0 0.14911218E+02</rscale>
<asrwt>0</asrwt>
<pdfrwt beam="2">  1        2 0.99816352E+00 0.14911218E+02</pdfrwt>
<pdfrwt beam="1">  1       -2 0.98181334E+00 0.14911218E+02</pdfrwt>
<totfact> 0.52291074E-13</totfact>
</mgrwt>
</event>
<event>
 4    1 -0.4926183E-019  0.1491195E+02  0.7818608E-02  0.1870767E+00
         -2   -1    0    0    0  501 -0.00000000000E+00  0.00000000000E+00  0.11944488639E+03  0.11944488642E+03  0.25500000000E-02 0. -1.
          2   -1    0    0  501    0  0.00000000000E+00 -0.00000000000E+00 -0.46541238698E+00  0.46541937267E+00  0.25500000000E-02 0.  1.
         31    1    1    2    0    0  0.16351441356E+00  0.25587704579E+00  0.57873189773E+02  0.58351154492E+02  0.74470750000E+01 0.  1.
        -31    1    1    2    0    0 -0.16351441356E+00 -0.25587704579E+00  0.61106284232E+02  0.61559151300E+02  0.74470750000E+01 0. -1.
<mgrwt>
<rscale>  0 0.14911948E+02</rscale>
<asrwt>0</asrwt>
<pdfrwt beam="2">  1        2 0.98850628E+00 0.14911948E+02</pdfrwt>
<pdfrwt beam="1">  1       -2 0.99150231E+00 0.14911948E+02</pdfrwt>
<totfact>-0.10896499E-13</totfact>
</mgrwt>
</event>
<event>
 4    1 -0.4926183E-019  0.1492014E+02  0.7818608E-02  0.1870515E+00
          2   -1    0    0  501    0  0.00000000000E+00  0.00000000000E+00  0.11839963412E+03  0.11839963414E+03  0.25500000000E-02 0. -1.
         -2   -1    0    0    0  501 -0.00000000000E+00 -0.00000000000E+00 -0.47003736580E+00  0.47004428276E+00  0.25500000000E-02 0.  1.
         31    1    1    2    0    0  0.43461131888E+00  0.50366971145E-01  0.59348127952E+02  0.59815137226E+02  0.74470750000E+01 0.  1.
        -31    1    1    2    0    0 -0.43461131888E+00 -0.50366971145E-01  0.58581468798E+02  0.59054541201E+02  0.74470750000E+01 0.  1.
<mgrwt>
<rscale>  0 0.14920143E+02</rscale>
<asrwt>0</asrwt>
<pdfrwt beam="1">  1        2 0.98289767E+00 0.14920143E+02</pdfrwt>
<pdfrwt beam="2">  1       -2 0.99825624E+00 0.14920143E+02</pdfrwt>
<totfact>-0.26159697E-13</totfact>
</mgrwt>
</event>
<event>
 4    1 -0.4926183E-019  0.1495908E+02  0.7818608E-02  0.1869320E+00
         -2   -1    0    0    0  501 -0.00000000000E+00  0.00000000000E+00  0.12024203077E+03  0.12024203079E+03  0.25500000000E-02 0. -1.
          2   -1    0    0  501    0  0.00000000000E+00 -0.00000000000E+00 -0.46525399095E+00  0.46526097901E+00  0.25500000000E-02 0.  1.
         31    1    1    2    0    0 -0.48286027741E+00  0.27693851449E+00  0.63261387100E+02  0.63700642641E+02  0.74470750000E+01 0.  1.
        -31    1    1    2    0    0  0.48286027741E+00 -0.27693851449E+00  0.56515389676E+02  0.57006649133E+02  0.74470750000E+01 0.  1.
<mgrwt>
<rscale>  0 0.14959079E+02</rscale>
<asrwt>0</asrwt>
<pdfrwt beam="2">  1        2 0.98819658E+00 0.14959079E+02</pdfrwt>
<pdfrwt beam="1">  1       -2 0.99809234E+00 0.14959079E+02</pdfrwt>
<totfact>-0.12454514E-13</totfact>
</mgrwt>
</event>
<event>
 4    1 -0.4926183E-019  0.1496413E+02  0.7818608E-02  0.1869165E+00
         -2   -1    0    0    0  501 -0.00000000000E+00  0.00000000000E+00  0.11954104942E+03  0.11954104945E+03  0.25500000000E-02 0. -1.
          2   -1    0    0  501    0  0.00000000000E+00 -0.00000000000E+00 -0.46829823183E+00  0.46830517447E+00  0.25500000000E-02 0.  1.
         31    1    1    2    0    0  0.16352820497E-01  0.44424992089E+00  0.64106458938E+02  0.64539093804E+02  0.74470750000E+01 0. -1.
        -31    1    1    2    0    0 -0.16352820497E-01 -0.44424992089E+00  0.54966292255E+02  0.55470260822E+02  0.74470750000E+01 0.  1.
<mgrwt>
<rscale>  0 0.14964128E+02</rscale>
<asrwt>0</asrwt>
<pdfrwt beam="2">  1        2 0.99461472E+00 0.14964128E+02</pdfrwt>
<pdfrwt beam="1">  1       -2 0.99232131E+00 0.14964128E+02</pdfrwt>
<totfact>-0.91395759E-14</totfact>
</mgrwt>
</event>
<event>
 4    1 -0.4926183E-019  0.1493649E+02  0.7818608E-02  0.1870013E+00
          2   -1    0    0  501    0  0.00000000000E+00  0.00000000000E+00  0.11907904237E+03  0.11907904240E+03  0.25500000000E-02 0. -1.
         -2   -1    0    0    0  501 -0.00000000000E+00 -0.00000000000E+00 -0.46837998093E+00  0.46838692236E+00  0.25500000000E-02 0.  1.
         31    1    1    2    0    0 -0.34174852245E+00  0.19017750953E+00  0.56076244468E+02  0.56569930876E+02  0.74470750000E+01 0.  1.
        -31    1    1    2    0    0  0.34174852245E+00 -0.19017750953E+00  0.62534417922E+02  0.62977498445E+02  0.74470750000E+01 0. -1.
<mgrwt>
<rscale>  0 0.14936486E+02</rscale>
<asrwt>0</asrwt>
<pdfrwt beam="1">  1        2 0.98850179E+00 0.14936486E+02</pdfrwt>
<pdfrwt beam="2">  1       -2 0.99477261E+00 0.14936486E+02</pdfrwt>
<totfact>-0.21030566E-13</totfact>
</mgrwt>
</event>
<event>
 4    1 -0.4926183E-019  0.1492785E+02  0.7818608E-02  0.1870278E+00
          2   -1    0    0  501    0  0.00000000000E+00  0.00000000000E+00  0.11933380393E+03  0.11933380396E+03  0.25500000000E-02 0.  1.
         -2   -1    0    0    0  501 -0.00000000000E+00 -0.00000000000E+00 -0.46683966188E+00  0.46684662621E+00  0.25500000000E-02 0. -1.
         31    1    1    2    0    0  0.10271821228E+00  0.33377500049E+00  0.56547842380E+02  0.57037175251E+02  0.74470750000E+01 0. -1.
        -31    1    1    2    0    0 -0.10271821228E+00 -0.33377500049E+00  0.62319121887E+02  0.62763475331E+02  0.74470750000E+01 0.  1.
<mgrwt>
<rscale>  0 0.14927849E+02</rscale>
<asrwt>0</asrwt>
<pdfrwt beam="1">  1        2 0.99059560E+00 0.14927849E+02</pdfrwt>
<pdfrwt beam="2">  1       -2 0.99152228E+00 0.14927849E+02</pdfrwt>
<totfact>-0.88921364E-14</totfact>
</mgrwt>
</event>
<event>
 4    1  0.4926183E-019  0.1489927E+02  0.7818608E-02  0.1871158E+00
          2   -1    0    0  501    0  0.00000000000E+00  0.00000000000E+00  0.11911150746E+03  0.11911150749E+03  0.25500000000E-02 0. -1.
         -2   -1    0    0    0  501 -0.00000000000E+00 -0.00000000000E+00 -0.46592185538E+00  0.46592883343E+00  0.25500000000E-02 0.  1.
         31    1    1    2    0    0 -0.68222234759E-01  0.34845509985E-01  0.57880865852E+02  0.58358027951E+02  0.74470750000E+01 0.  1.
        -31    1    1    2    0    0  0.68222234759E-01 -0.34845509985E-01  0.60764719752E+02  0.61219408370E+02  0.74470750000E+01 0. -1.
<mgrwt>
<rscale>  0 0.14899272E+02</rscale>
<asrwt>0</asrwt>
<pdfrwt beam="1">  1        2 0.98874991E+00 0.14899272E+02</pdfrwt>
<pdfrwt beam="2">  1       -2 0.98957337E+00 0.14899272E+02</pdfrwt>
<totfact> 0.57944113E-14</totfact>
</mgrwt>
</event>
<event>
 4    1 -0.4926183E-019  0.1493685E+02  0.7818608E-02  0.1870002E+00
         -2   -1    0    0    0  501 -0.00000000000E+00  0.00000000000E+00  0.11976746213E+03  0.11976746216E+03  0.25500000000E-02 0. -1.
          2   -1    0    0  501    0  0.00000000000E+00 -0.00000000000E+00 -0.46571020109E+00  0.46571718231E+00  0.25500000000E-02 0.  1.
         31    1    1    2    0    0 -0.40555723030E+00  0.36092867405E+00  0.60889494456E+02  0.61345612780E+02  0.74470750000E+01 0.  1.
        -31    1    1    2    0    0  0.40555723030E+00 -0.36092867405E+00  0.58412257476E+02  0.58887566563E+02  0.74470750000E+01 0.  1.
<mgrwt>
<rscale>  0 0.14936847E+02</rscale>
<asrwt>0</asrwt>
<pdfrwt beam="2">  1        2 0.98914670E+00 0.14936847E+02</pdfrwt>
<pdfrwt beam="1">  1       -2 0.99417205E+00 0.14936847E+02</pdfrwt>
<totfact>-0.19259647E-13</totfact>
</mgrwt>
</event>
<event>
 4    1  0.4926183E-019  0.1491942E+02  0.7818608E-02  0.1870537E+00
          2   -1    0    0  501    0  0.00000000000E+00  0.00000000000E+00  0.12004706242E+03  0.12004706244E+03  0.25500000000E-02 0. -1.
         -2   -1    0    0    0  501 -0.00000000000E+00 -0.00000000000E+00 -0.46354211001E+00  0.46354912388E+00  0.25500000000E-02 0.  1.
         31    1    1    2    0    0  0.24478132435E+00 -0.34248653720E+00  0.58938763237E+02  0.59408870995E+02  0.74470750000E+01 0.  1.
        -31    1    1    2    0    0 -0.24478132435E+00  0.34248653720E+00  0.60644757070E+02  0.61101740573E+02  0.74470750000E+01 0. -1.
<mgrwt>
<rscale>  0 0.14919423E+02</rscale>
<asrwt>0</asrwt>
<pdfrwt beam="1">  1        2 0.99646605E+00 0.14919423E+02</pdfrwt>
<pdfrwt beam="2">  1       -2 0.98456844E+00 0.14919423E+02</pdfrwt>
<totfact> 0.44803753E-13</totfact>
</mgrwt>
</event>
<event>
 4    1  0.4926183E-019  0.1491357E+02  0.7818608E-02  0.1870717E+00
         -2   -1    0    0    0  501 -0.00000000000E+00  0.00000000000E+00  0.11819865636E+03  0.11819865638E+03  0.25500000000E-02 0. -1.
          2   -1    0    0  501    0  0.00000000000E+00 -0.00000000000E+00 -0.47042177054E+00  0.47042868184E+00  0.25500000000E-02 0.  1.
         31    1    1    2    0    0 -0.30656233977E+00 -0.19484421384E+00  0.59763029726E+02  0.60226328070E+02  0.74470750000E+01 0.  1.
        -31    1    1    2    0    0  0.30656233977E+00  0.19484421384E+00  0.57965204860E+02  0.58442756996E+02  0.74470750000E+01 0. -1.
<mgrwt>
<rscale>  0 0.14913569E+02</rscale>
<asrwt>0</asrwt>
<pdfrwt beam="2">  1        2 0.99906267E+00 0.14913569E+02</pdfrwt>
<pdfrwt beam="1">  1       -2 0.98123902E+00 0.14913569E+02</pdfrwt>
<totfact> 0.32899129E-13</totfact>
</mgrwt>
</event>
<event>
 4    1 -0.4926183E-019  0.1496356E+02  0.7818608E-02  0.1869183E+00
         -2   -1    0    0    0  501 -0.00000000000E+00  0.00000000000E+00  0.11986853596E+03  0.11986853599E+03  0.25500000000E-02 0. -1.
          2   -1    0    0  501    0  0.00000000000E+00 -0.00000000000E+00 -0.46698321043E+00  0.46699017262E+00  0.25500000000E-02 0.  1.
         31    1    1    2    0    0  0.33707096371E+00  0.63006215921E+00  0.60396904077E+02  0.60858487849E+02  0.74470750000E+01 0. -1.
        -31    1    1    2    0    0 -0.33707096371E+00 -0.63006215921E+00  0.59004648677E+02  0.59477038315E+02  0.74470750000E+01 0.  1.
<mgrwt>
<rscale>  0 0.14963558E+02</rscale>
<asrwt>0</asrwt>
<pdfrwt beam="2">  1        2 0.99184321E+00 0.14963558E+02</pdfrwt>
<pdfrwt beam="1">  1       -2 0.99501832E+00 0.14963558E+02</pdfrwt>
<totfact>-0.15303513E-13</totfact>
</mgrwt>
</event>
<event>
 4    1 -0.4926183E-019  0.1497283E+02  0.7818608E-02  0.1868899E+00
         -2   -1    0    0    0  501 -0.00000000000E+00  0.00000000000E+00  0.11996542874E+03  0.11996542877E+03  0.25500000000E-02 0.  1.
          2   -1    0    0  501    0  0.00000000000E+00 -0.00000000000E+00 -0.46718478849E+00  0.46719174767E+00  0.25500000000E-02 0. -1.
         31    1    1    2    0    0 -0.46782285800E-01  0.72427890894E-01  0.53623002797E+02  0.54137720579E+02  0.74470750000E+01 0. -1.
        -31    1    1    2    0    0  0.46782285800E-01 -0.72427890894E-01  0.65875241158E+02  0.66294899940E+02  0.74470750000E+01 0.  1.
<mgrwt>
<rscale>  0 0.14972835E+02</rscale>
<asrwt>0</asrwt>
<pdfrwt beam="2">  1        2 0.99227280E+00 0.14972835E+02</pdfrwt>
<pdfrwt beam="1">  1       -2 0.99582117E+00 0.14972835E+02</pdfrwt>
<totfact>-0.14174984E-13</totfact>
</mgrwt>
</event>
<event>
 4    1 -0.4926183E-019  0.1493370E+02  0.7818608E-02  0.1870098E+00
          2   -1    0    0  501    0  0.00000000000E+00  0.00000000000E+00  0.11920567546E+03  0.11920567549E+03  0.25500000000E-02 0. -1.
         -2   -1    0    0    0  501 -0.00000000000E+00 -0.00000000000E+00 -0.46770779085E+00  0.46771474225E+00  0.25500000000E-02 0.  1.
         31    1    1    2    0    0 -0.24696155530E+00  0.22632084297E+00  0.55943644042E+02  0.56438129362E+02  0.74470750000E+01 0. -1.
        -31    1    1    2    0    0  0.24696155530E+00 -0.22632084297E+00  0.62794323630E+02  0.63235260871E+02  0.74470750000E+01 0. -1.
<mgrwt>
<rscale>  0 0.14933699E+02</rscale>
<asrwt>0</asrwt>
<pdfrwt beam="1">  1        2 0.98954332E+00 0.14933699E+02</pdfrwt>
<pdfrwt beam="2">  1       -2 0.99335470E+00 0.14933699E+02</pdfrwt>
<totfact>-0.17147354E-13</totfact>
</mgrwt>
</event>
<event>
 4    1  0.4926183E-019  0.1491529E+02  0.7818608E-02  0.1870665E+00
          2   -1    0    0  501    0  0.00000000000E+00  0.00000000000E+00  0.12027384566E+03  0.12027384568E+03  0.25500000000E-02 0. -1.
         -2   -1    0    0    0  501 -0.00000000000E+00 -0.00000000000E+00 -0.46241161861E+00  0.46241864963E+00  0.25500000000E-02 0.  1.
         31    1    1    2    0    0 -0.19454692605E+00 -0.22638057952E+00  0.62023199624E+02  0.62469395021E+02  0.74470750000E+01 0.  1.
        -31    1    1    2    0    0  0.19454692605E+00  0.22638057952E+00  0.57788234413E+02  0.58266869311E+02  0.74470750000E+01 0. -1.
<mgrwt>
<rscale>  0 0.14915287E+02</rscale>
<asrwt>0</asrwt>
<pdfrwt beam="1">  1        2 0.99833191E+00 0.14915287E+02</pdfrwt>
<pdfrwt beam="2">  1       -2 0.98218362E+00 0.14915287E+02</pdfrwt>
<totfact> 0.44954027E-13</totfact>
</mgrwt>
</event>
<event>
 4    1 -0.4926183E-019  0.1493509E+02  0.7818608E-02  0.1870056E+00
          2   -1    0    0  501    0  0.00000000000E+00  0.00000000000E+00  0.11891149350E+03  0.11891149353E+03  0.25500000000E-02 0.  1.
         -2   -1    0    0    0  501 -0.00000000000E+00 -0.00000000000E+00 -0.46895205671E+00  0.46895898967E+00  0.25500000000E-02 0. -1.
         31    1    1    2    0    0 -0.29435485722E-01  0.35751628323E+00  0.62580302143E+02  0.63022867491E+02  0.74470750000E+01 0.  1.
        -31    1    1    2    0    0  0.29435485722E-01 -0.35751628323E+00  0.55862239301E+02  0.56357585028E+02  0.74470750000E+01 0. -1.
<mgrwt>
<rscale>  0 0.14935087E+02</rscale>
<asrwt>0</asrwt>
<pdfrwt beam="1">  1        2 0.98712111E+00 0.14935087E+02</pdfrwt>
<pdfrwt beam="2">  1       -2 0.99597732E+00 0.14935087E+02</pdfrwt>
<totfact>-0.23627716E-13</totfact>
</mgrwt>
</event>
<event>
 4    1 -0.4926183E-019  0.1492871E+02  0.7818608E-02  0.1870252E+00
          2   -1    0    0  501    0  0.00000000000E+00  0.00000000000E+00  0.11906067954E+03  0.11906067956E+03  0.25500000000E-02 0.  1.
         -2   -1    0    0    0  501 -0.00000000000E+00 -0.00000000000E+00 -0.46796434266E+00  0.46797129026E+00  0.25500000000E-02 0. -1.
         31    1    1    2    0    0 -0.49570559606E+00  0.35762679374E-03  0.60170484688E+02  0.60631607911E+02  0.74470750000E+01 0.  1.
        -31    1    1    2    0    0  0.49570559606E+00 -0.35762679374E-03  0.58422230506E+02  0.58897042944E+02  0.74470750000E+01 0. -1.
<mgrwt>
<rscale>  0 0.14928707E+02</rscale>
<asrwt>0</asrwt>
<pdfrwt beam="1">  1        2 0.98834652E+00 0.14928707E+02</pdfrwt>
<pdfrwt beam="2">  1       -2 0.99389272E+00 0.14928707E+02</pdfrwt>
<totfact>-0.20758503E-13</totfact>
</mgrwt>
</event>
<event>
 4    1  0.4926183E-019  0.1490938E+02  0.7818608E-02  0.1870846E+00
          2   -1    0    0  501    0  0.00000000000E+00  0.00000000000E+00  0.12004494628E+03  0.12004494631E+03  0.25500000000E-02 0.  1.
         -2   -1    0    0    0  501 -0.00000000000E+00 -0.00000000000E+00 -0.46292634647E+00  0.46293336967E+00  0.25500000000E-02 0. -1.
         31    1    1    2    0    0 -0.92943929143E-01  0.18860842326E+00  0.61918085097E+02  0.62364672691E+02  0.74470750000E+01 0.  1.
        -31    1    1    2    0    0  0.92943929143E-01 -0.18860842326E+00  0.57663934838E+02  0.58143206987E+02  0.74470750000E+01 0. -1.
<mgrwt>
<rscale>  0 0.14909379E+02</rscale>
<asrwt>0</asrwt>
<pdfrwt beam="1">  1        2 0.99644346E+00 0.14909379E+02</pdfrwt>
<pdfrwt beam="2">  1       -2 0.98326552E+00 0.14909379E+02</pdfrwt>
<totfact> 0.61872483E-13</totfact>
</mgrwt>
</event>
<event>
 4    1 -0.4926183E-019  0.1491583E+02  0.7818608E-02  0.1870648E+00
         -2   -1    0    0    0  501 -0.00000000000E+00  0.00000000000E+00  0.11997000308E+03  0.11997000310E+03  0.25500000000E-02 0. -1.
          2   -1    0    0  501    0  0.00000000000E+00 -0.00000000000E+00 -0.46361647450E+00  0.46362348725E+00  0.25500000000E-02 0.  1.
         31    1    1    2    0    0 -0.34169568934E+00  0.16667473553E+00  0.58699474998E+02  0.59171207758E+02  0.74470750000E+01 0.  1.
        -31    1    1    2    0    0  0.34169568934E+00 -0.16667473553E+00  0.60806911603E+02  0.61262418832E+02  0.74470750000E+01 0. -1.
<mgrwt>
<rscale>  0 0.14915830E+02</rscale>
<asrwt>0</asrwt>
<pdfrwt beam="2">  1        2 0.98472334E+00 0.14915830E+02</pdfrwt>
<pdfrwt beam="1">  1       -2 0.99582949E+00 0.14915830E+02</pdfrwt>
<totfact>-0.34660379E-13</totfact>
</mgrwt>
</event>
<event>
 4    1 -0.4926183E-019  0.1494847E+02  0.7818608E-02  0.1869645E+00
         -2   -1    0    0    0  501 -0.00000000000E+00  0.00000000000E+00  0.11993840293E+03  0.11993840295E+03  0.25500000000E-02 0.  1.
          2   -1    0    0  501    0  0.00000000000E+00 -0.00000000000E+00 -0.46577074490E+00  0.46577772521E+00  0.25500000000E-02 0. -1.
         31    1    1    2    0    0 -0.19670084225E+00 -0.28409032287E+00  0.64043061019E+02  0.64475514649E+02  0.74470750000E+01 0.  1.
        -31    1    1    2    0    0  0.19670084225E+00  0.28409032287E+00  0.55429571162E+02  0.55928666029E+02  0.74470750000E+01 0. -1.
<mgrwt>
<rscale>  0 0.14948474E+02</rscale>
<asrwt>0</asrwt>
<pdfrwt beam="2">  1        2 0.98928025E+00 0.14948474E+02</pdfrwt>
<pdfrwt beam="1">  1       -2 0.99558601E+00 0.14948474E+02</pdfrwt>
<totfact>-0.18695975E-13</totfact>
</mgrwt>
</event>
<event>
 4    1  0.4926183E-019  0.1495025E+02  0.7818608E-02  0.1869590E+00
         -2   -1    0    0    0  501 -0.00000000000E+00  0.00000000000E+00  0.11912324197E+03  0.11912324200E+03  0.25500000000E-02 0. -1.
          2   -1    0    0  501    0  0.00000000000E+00 -0.00000000000E+00 -0.46906936604E+00  0.46907629727E+00  0.25500000000E-02 0.  1.
         31    1    1    2    0    0 -0.26847442054E+00 -0.20329239504E+00  0.54908232211E+02  0.55411968895E+02  0.74470750000E+01 0.  1.
        -31    1    1    2    0    0  0.26847442054E+00  0.20329239504E+00  0.63745940392E+02  0.64180349397E+02  0.74470750000E+01 0. -1.
<mgrwt>
<rscale>  0 0.14950248E+02</rscale>
<asrwt>0</asrwt>
<pdfrwt beam="2">  1        2 0.99623245E+00 0.14950248E+02</pdfrwt>
<pdfrwt beam="1">  1       -2 0.98887296E+00 0.14950248E+02</pdfrwt>
<totfact> 0.69720315E-14</totfact>
</mgrwt>
</event>
<event>
 4    1  0.4926183E-019  0.1489553E+02  0.7818608E-02  0.1871273E+00
          2   -1    0    0  501    0  0.00000000000E+00  0.00000000000E+00  0.12004392304E+03  0.12004392306E+03  0.25500000000E-02 0.  1.
         -2   -1    0    0    0  501 -0.00000000000E+00 -0.00000000000E+00 -0.46207097229E+00  0.46207800850E+00  0.25500000000E-02 0. -1.
         31    1    1    2    0    0 -0.13949917737E-02 -0.97739265487E-01  0.59568360090E+02  0.60032141431E+02  0.74470750000E+01 0. -1.
        -31    1    1    2    0    0  0.13949917737E-02  0.97739265487E-01  0.60013491975E+02  0.60473859642E+02  0.74470750000E+01 0.  1.
<mgrwt>
<rscale>  0 0.14895535E+02</rscale>
<asrwt>0</asrwt>
<pdfrwt beam="1">  1        2 0.99642793E+00 0.14895535E+02</pdfrwt>
<pdfrwt beam="2">  1       -2 0.98145565E+00 0.14895535E+02</pdfrwt>
<totfact> 0.90162372E-13</totfact>
</mgrwt>
</event>
<event>
 4    1  0.4926183E-019  0.1495571E+02  0.7818608E-02  0.1869423E+00
          2   -1    0    0  501    0  0.00000000000E+00  0.00000000000E+00  0.12015232221E+03  0.12015232224E+03  0.25500000000E-02 0. -1.
         -2   -1    0    0    0  501 -0.00000000000E+00 -0.00000000000E+00 -0.46539199597E+00  0.46539898197E+00  0.25500000000E-02 0.  1.
         31    1    1    2    0    0 -0.49110475882E-01 -0.26773310356E+00  0.54837104857E+02  0.55341133780E+02  0.74470750000E+01 0.  1.
        -31    1    1    2    0    0  0.49110475882E-01  0.26773310356E+00  0.64849825361E+02  0.65276587444E+02  0.74470750000E+01 0. -1.
<mgrwt>
<rscale>  0 0.14955715E+02</rscale>
<asrwt>0</asrwt>
<pdfrwt beam="1">  1        2 0.99735171E+00 0.14955715E+02</pdfrwt>
<pdfrwt beam="2">  1       -2 0.98848572E+00 0.14955715E+02</pdfrwt>
<totfact> 0.75250163E-14</totfact>
</mgrwt>
</event>
<event>
 4    1 -0.4926183E-019  0.1500054E+02  0.7818608E-02  0.1868052E+00
         -2   -1    0    0    0  501 -0.00000000000E+00  0.00000000000E+00  0.12030453628E+03  0.12030453631E+03  0.25500000000E-02 0. -1.
          2   -1    0    0  501    0  0.00000000000E+00 -0.00000000000E+00 -0.46759341650E+00  0.46760036961E+00  0.25500000000E-02 0.  1.
         31    1    1    2    0    0  0.33966371154E+00 -0.27347652282E+00  0.53656408530E+02  0.54172495450E+02  0.74470750000E+01 0.  1.
        -31    1    1    2    0    0 -0.33966371154E+00  0.27347652282E+00  0.66180534335E+02  0.66599641229E+02  0.74470750000E+01 0. -1.
<mgrwt>
<rscale>  0 0.15000537E+02</rscale>
<asrwt>0</asrwt>
<pdfrwt beam="2">  1        2 0.99314818E+00 0.15000537E+02</pdfrwt>
<pdfrwt beam="1">  1       -2 0.99862853E+00 0.15000537E+02</pdfrwt>
<totfact>-0.60227868E-14</totfact>
</mgrwt>
</event>
<event>
 4    1  0.4926183E-019  0.1490714E+02  0.7818608E-02  0.1870916E+00
         -2   -1    0    0    0  501 -0.00000000000E+00  0.00000000000E+00  0.11886149716E+03  0.11886149719E+03  0.25500000000E-02 0.  1.
          2   -1    0    0  501    0  0.00000000000E+00 -0.00000000000E+00 -0.46739504303E+00  0.46740199909E+00  0.25500000000E-02 0. -1.
         31    1    1    2    0    0  0.29061888017E+00 -0.10636595609E+00  0.59449188223E+02  0.59914611569E+02  0.74470750000E+01 0.  1.
        -31    1    1    2    0    0 -0.29061888017E+00  0.10636595609E+00  0.58944913895E+02  0.59414287618E+02  0.74470750000E+01 0. -1.
<mgrwt>
<rscale>  0 0.14907138E+02</rscale>
<asrwt>0</asrwt>
<pdfrwt beam="2">  1        2 0.99268184E+00 0.14907138E+02</pdfrwt>
<pdfrwt beam="1">  1       -2 0.98669483E+00 0.14907138E+02</pdfrwt>
<totfact> 0.33561793E-13</totfact>
</mgrwt>
</event>
<event>
 4    1  0.4926183E-019  0.1491764E+02  0.7818608E-02  0.1870592E+00
          2   -1    0    0  501    0  0.00000000000E+00  0.00000000000E+00  0.12036937345E+03  0.12036937348E+03  0.25500000000E-02 0.  1.
         -2   -1    0    0    0  501 -0.00000000000E+00 -0.00000000000E+00 -0.46219040417E+00  0.46219743855E+00  0.25500000000E-02 0. -1.
         31    1    1    2    0    0  0.60455161427E-01 -0.39851269966E+00  0.59044280162E+02  0.59513430527E+02  0.74470750000E+01 0. -1.
        -31    1    1    2    0    0 -0.60455161427E-01  0.39851269966E+00  0.60862902884E+02  0.61318140388E+02  0.74470750000E+01 0.  1.
<mgrwt>
<rscale>  0 0.14917640E+02</rscale>
<asrwt>0</asrwt>
<pdfrwt beam="1">  1        2 0.99911997E+00 0.14917640E+02</pdfrwt>
<pdfrwt beam="2">  1       -2 0.98171853E+00 0.14917640E+02</pdfrwt>
<totfact> 0.28379481E-13</totfact>
</mgrwt>
</event>
<event>
 4    1  0.4926183E-019  0.1490396E+02  0.7818608E-02  0.1871014E+00
         -2   -1    0    0    0  501 -0.00000000000E+00  0.00000000000E+00  0.11886678799E+03  0.11886678801E+03  0.25500000000E-02 0. -1.
          2   -1    0    0  501    0  0.00000000000E+00 -0.00000000000E+00 -0.46717467447E+00  0.46718163380E+00  0.25500000000E-02 0.  1.
         31    1    1    2    0    0 -0.24155361031E+00  0.11615979570E+00  0.59477467874E+02  0.59942472021E+02  0.74470750000E+01 0.  1.
        -31    1    1    2    0    0  0.24155361031E+00 -0.11615979570E+00  0.58922145437E+02  0.59391497625E+02  0.74470750000E+01 0.  1.
<mgrwt>
<rscale>  0 0.14903955E+02</rscale>
<asrwt>0</asrwt>
<pdfrwt beam="2">  1        2 0.99221582E+00 0.14903955E+02</pdfrwt>
<pdfrwt beam="1">  1       -2 0.98673675E+00 0.14903955E+02</pdfrwt>
<totfact> 0.34142000E-13</totfact>
</mgrwt>
</event>
<event>
 4    1 -0.4926183E-019  0.1494678E+02  0.7818608E-02  0.1869697E+00
         -2   -1    0    0    0  501 -0.00000000000E+00  0.00000000000E+00  0.11977156475E+03  0.11977156478E+03  0.25500000000E-02 0. -1.
          2   -1    0    0  501    0  0.00000000000E+00 -0.00000000000E+00 -0.46631385079E+00  0.46632082297E+00  0.25500000000E-02 0.  1.
         31    1    1    2    0    0  0.59304465550E+00  0.14656672923E+00  0.58530711577E+02  0.59005731141E+02  0.74470750000E+01 0.  1.
        -31    1    1    2    0    0 -0.59304465550E+00 -0.14656672923E+00  0.60774539323E+02  0.61232154460E+02  0.74470750000E+01 0. -1.
<mgrwt>
<rscale>  0 0.14946780E+02</rscale>
<asrwt>0</asrwt>
<pdfrwt beam="2">  1        2 0.99042396E+00 0.14946780E+02</pdfrwt>
<pdfrwt beam="1">  1       -2 0.99421096E+00 0.14946780E+02</pdfrwt>
<totfact>-0.17005286E-13</totfact>
</mgrwt>
</event>
<event>
 4    1  0.4926183E-019  0.1491323E+02  0.7818608E-02  0.1870728E+00
          2   -1    0    0  501    0  0.00000000000E+00  0.00000000000E+00  0.11953157634E+03  0.11953157636E+03  0.25500000000E-02 0.  1.
         -2   -1    0    0    0  501 -0.00000000000E+00 -0.00000000000E+00 -0.46515482428E+00  0.46516181384E+00  0.25500000000E-02 0. -1.
         31    1    1    2    0    0  0.22647184735E-01 -0.27895221484E+00  0.57499906906E+02  0.57980829138E+02  0.74470750000E+01 0.  1.
        -31    1    1    2    0    0 -0.22647184735E-01  0.27895221484E+00  0.61566514607E+02  0.62015909041E+02  0.74470750000E+01 0.  1.
<mgrwt>
<rscale>  0 0.14913230E+02</rscale>
<asrwt>0</asrwt>
<pdfrwt beam="1">  1        2 0.99221699E+00 0.14913230E+02</pdfrwt>
<pdfrwt beam="2">  1       -2 0.98796414E+00 0.14913230E+02</pdfrwt>
<totfact> 0.19285663E-13</totfact>
</mgrwt>
</event>
<event>
 4    1  0.4926183E-019  0.1491767E+02  0.7818608E-02  0.1870591E+00
          2   -1    0    0  501    0  0.00000000000E+00  0.00000000000E+00  0.12021979887E+03  0.12021979889E+03  0.25500000000E-02 0. -1.
         -2   -1    0    0    0  501 -0.00000000000E+00 -0.00000000000E+00 -0.46276726648E+00  0.46277429210E+00  0.25500000000E-02 0.  1.
         31    1    1    2    0    0 -0.13788030135E+00 -0.13930183099E+00  0.56885564307E+02  0.57371288712E+02  0.74470750000E+01 0.  1.
        -31    1    1    2    0    0  0.13788030135E+00  0.13930183099E+00  0.62871467294E+02  0.63311284474E+02  0.74470750000E+01 0. -1.
<mgrwt>
<rscale>  0 0.14917669E+02</rscale>
<asrwt>0</asrwt>
<pdfrwt beam="1">  1        2 0.99788795E+00 0.14917669E+02</pdfrwt>
<pdfrwt beam="2">  1       -2 0.98293443E+00 0.14917669E+02</pdfrwt>
<totfact> 0.46280989E-13</totfact>
</mgrwt>
</event>
<event>
 4    1 -0.4926183E-019  0.1499356E+02  0.7818608E-02  0.1868265E+00
          2   -1    0    0  501    0  0.00000000000E+00  0.00000000000E+00  0.12008862781E+03  0.12008862784E+03  0.25500000000E-02 0.  1.
         -2   -1    0    0    0  501 -0.00000000000E+00 -0.00000000000E+00 -0.46799829688E+00  0.46800524397E+00  0.25500000000E-02 0. -1.
         31    1    1    2    0    0 -0.59666808762E-01 -0.31213346536E+00  0.53368925138E+02  0.53886937971E+02  0.74470750000E+01 0. -1.
        -31    1    1    2    0    0  0.59666808762E-01  0.31213346536E+00  0.66251704375E+02  0.66669695110E+02  0.74470750000E+01 0.  1.
<mgrwt>
<rscale>  0 0.14993558E+02</rscale>
<asrwt>0</asrwt>
<pdfrwt beam="1">  1        2 0.99684659E+00 0.14993558E+02</pdfrwt>
<pdfrwt beam="2">  1       -2 0.99399786E+00 0.14993558E+02</pdfrwt>
<totfact>-0.89056903E-14</totfact>
</mgrwt>
</event>
<event>
 4    1 -0.4926183E-019  0.1496802E+02  0.7818608E-02  0.1869046E+00
          2   -1    0    0  501    0  0.00000000000E+00  0.00000000000E+00  0.11977428332E+03  0.11977428335E+03  0.25500000000E-02 0. -1.
         -2   -1    0    0    0  501 -0.00000000000E+00 -0.00000000000E+00 -0.46762968023E+00  0.46763663279E+00  0.25500000000E-02 0.  1.
         31    1    1    2    0    0  0.68015927674E+00  0.19356423578E+00  0.61474938975E+02  0.61928403272E+02  0.74470750000E+01 0.  1.
        -31    1    1    2    0    0 -0.68015927674E+00 -0.19356423578E+00  0.57831714669E+02  0.58313516712E+02  0.74470750000E+01 0. -1.
<mgrwt>
<rscale>  0 0.14968023E+02</rscale>
<asrwt>0</asrwt>
<pdfrwt beam="1">  1        2 0.99424432E+00 0.14968023E+02</pdfrwt>
<pdfrwt beam="2">  1       -2 0.99320788E+00 0.14968023E+02</pdfrwt>
<totfact>-0.11498363E-13</totfact>
</mgrwt>
</event>
<event>
 4    1 -0.4926183E-019  0.1491724E+02  0.7818608E-02  0.1870604E+00
         -2   -1    0    0    0  501 -0.00000000000E+00  0.00000000000E+00  0.12003507412E+03  0.12003507415E+03  0.25500000000E-02 0.  1.
          2   -1    0    0  501    0  0.00000000000E+00 -0.00000000000E+00 -0.46345304044E+00  0.46346005566E+00  0.25500000000E-02 0. -1.
         31    1    1    2    0    0 -0.31642779840E+00 -0.26684962185E+00  0.60011848327E+02  0.60473566134E+02  0.74470750000E+01 0.  1.
        -31    1    1    2    0    0  0.31642779840E+00  0.26684962185E+00  0.59559772751E+02  0.60024968067E+02  0.74470750000E+01 0.  1.
<mgrwt>
<rscale>  0 0.14917244E+02</rscale>
<asrwt>0</asrwt>
<pdfrwt beam="2">  1        2 0.98437960E+00 0.14917244E+02</pdfrwt>
<pdfrwt beam="1">  1       -2 0.99636619E+00 0.14917244E+02</pdfrwt>
<totfact>-0.34450898E-13</totfact>
</mgrwt>
</event>
<event>
 4    1  0.4926183E-019  0.1491408E+02  0.7818608E-02  0.1870702E+00
         -2   -1    0    0    0  501 -0.00000000000E+00  0.00000000000E+00  0.11885334266E+03  0.11885334269E+03  0.25500000000E-02 0.  1.
          2   -1    0    0  501    0  0.00000000000E+00 -0.00000000000E+00 -0.46786281400E+00  0.46786976310E+00  0.25500000000E-02 0. -1.
         31    1    1    2    0    0  0.28441421820E+00  0.32444195123E-01  0.61257530118E+02  0.61709204065E+02  0.74470750000E+01 0.  1.
        -31    1    1    2    0    0 -0.28441421820E+00 -0.32444195123E-01  0.57127949730E+02  0.57612008388E+02  0.74470750000E+01 0. -1.
<mgrwt>
<rscale>  0 0.14914084E+02</rscale>
<asrwt>0</asrwt>
<pdfrwt beam="2">  1        2 0.99367115E+00 0.14914084E+02</pdfrwt>
<pdfrwt beam="1">  1       -2 0.98663127E+00 0.14914084E+02</pdfrwt>
<totfact> 0.31987484E-13</totfact>
</mgrwt>
</event>
<event>
 4    1  0.4926183E-019  0.1491204E+02  0.7818608E-02  0.1870764E+00
         -2   -1    0    0    0  501 -0.00000000000E+00  0.00000000000E+00  0.11869995123E+03  0.11869995126E+03  0.25500000000E-02 0. -1.
          2   -1    0    0  501    0  0.00000000000E+00 -0.00000000000E+00 -0.46833917091E+00  0.46834611294E+00  0.25500000000E-02 0.  1.
         31    1    1    2    0    0  0.23072432735E+00 -0.95027191393E-01  0.56985497285E+02  0.57470584570E+02  0.74470750000E+01 0.  1.
        -31    1    1    2    0    0 -0.23072432735E+00  0.95027191393E-01  0.61246114775E+02  0.61697712802E+02  0.74470750000E+01 0. -1.
<mgrwt>
<rscale>  0 0.14912042E+02</rscale>
<asrwt>0</asrwt>
<pdfrwt beam="2">  1        2 0.99467383E+00 0.14912042E+02</pdfrwt>
<pdfrwt beam="1">  1       -2 0.98536686E+00 0.14912042E+02</pdfrwt>
<totfact> 0.44995156E-13</totfact>
</mgrwt>
</event>
<event>
 4    1  0.4926183E-019  0.1491260E+02  0.7818608E-02  0.1870747E+00
          2   -1    0    0  501    0  0.00000000000E+00  0.00000000000E+00  0.11937502321E+03  0.11937502324E+03  0.25500000000E-02 0. -1.
         -2   -1    0    0    0  501 -0.00000000000E+00 -0.00000000000E+00 -0.46572517953E+00  0.46573216052E+00  0.25500000000E-02 0.  1.
         31    1    1    2    0    0  0.20640126433E+00 -0.30453231292E+00  0.59823491332E+02  0.60286353203E+02  0.74470750000E+01 0. -1.
        -31    1    1    2    0    0 -0.20640126433E+00  0.30453231292E+00  0.59085806699E+02  0.59554402194E+02  0.74470750000E+01 0.  1.
<mgrwt>
<rscale>  0 0.14912595E+02</rscale>
<asrwt>0</asrwt>
<pdfrwt beam="1">  1        2 0.99092721E+00 0.14912595E+02</pdfrwt>
<pdfrwt beam="2">  1       -2 0.98916579E+00 0.14912595E+02</pdfrwt>
<totfact> 0.83840381E-14</totfact>
</mgrwt>
</event>
<event>
 4    1 -0.4926183E-019  0.1491177E+02  0.7818608E-02  0.1870773E+00
         -2   -1    0    0    0  501 -0.00000000000E+00  0.00000000000E+00  0.11999014291E+03  0.11999014294E+03  0.25500000000E-02 0. -1.
          2   -1    0    0  501    0  0.00000000000E+00 -0.00000000000E+00 -0.46328653699E+00  0.46329355473E+00  0.25500000000E-02 0.  1.
         31    1    1    2    0    0  0.14118547000E+00 -0.22370507973E+00  0.61764014295E+02  0.62211914978E+02  0.74470750000E+01 0. -1.
        -31    1    1    2    0    0 -0.14118547000E+00  0.22370507973E+00  0.57762842077E+02  0.58241521513E+02  0.74470750000E+01 0.  1.
<mgrwt>
<rscale>  0 0.14911773E+02</rscale>
<asrwt>0</asrwt>
<pdfrwt beam="2">  1        2 0.98402590E+00 0.14911773E+02</pdfrwt>
<pdfrwt beam="1">  1       -2 0.99599329E+00 0.14911773E+02</pdfrwt>
<totfact>-0.38270678E-13</totfact>
</mgrwt>
</event>
<event>
 4    1 -0.4926183E-019  0.1490678E+02  0.7818608E-02  0.1870927E+00
         -2   -1    0    0    0  501 -0.00000000000E+00  0.00000000000E+00  0.12014631482E+03  0.12014631485E+03  0.25500000000E-02 0. -1.
          2   -1    0    0  501    0  0.00000000000E+00 -0.00000000000E+00 -0.46237427763E+00  0.46238130922E+00  0.25500000000E-02 0.  1.
         31    1    1    2    0    0 -0.30659940498E+00 -0.76673043504E-02  0.59856339047E+02  0.60318606683E+02  0.74470750000E+01 0.  1.
        -31    1    1    2    0    0  0.30659940498E+00  0.76673043504E-02  0.59827601496E+02  0.60290089474E+02  0.74470750000E+01 0.  1.
<mgrwt>
<rscale>  0 0.14906776E+02</rscale>
<asrwt>0</asrwt>
<pdfrwt beam="2">  1        2 0.98210061E+00 0.14906776E+02</pdfrwt>
<pdfrwt beam="1">  1       -2 0.99727709E+00 0.14906776E+02</pdfrwt>
<totfact>-0.42300587E-13</totfact>
</mgrwt>
</event>
<event>
 4    1 -0.4926183E-019  0.1497142E+02  0.7818608E-02  0.1868942E+00
          2   -1    0    0  501    0  0.00000000000E+00  0.00000000000E+00  0.11953339781E+03  0.11953339784E+03  0.25500000000E-02 0. -1.
         -2   -1    0    0    0  501 -0.00000000000E+00 -0.00000000000E+00 -0.46878501282E+00  0.46879194825E+00  0.25500000000E-02 0.  1.
         31    1    1    2    0    0 -0.30964143622E-01  0.64609612349E+00  0.62723993880E+02  0.63167845723E+02  0.74470750000E+01 0. -1.
        -31    1    1    2    0    0  0.30964143622E-01 -0.64609612349E+00  0.56340618921E+02  0.56834344066E+02  0.74470750000E+01 0.  1.
<mgrwt>
<rscale>  0 0.14971424E+02</rscale>
<asrwt>0</asrwt>
<pdfrwt beam="1">  1        2 0.99226207E+00 0.14971424E+02</pdfrwt>
<pdfrwt beam="2">  1       -2 0.99564429E+00 0.14971424E+02</pdfrwt>
<totfact>-0.14395869E-13</totfact>
</mgrwt>
</event>
<event>
 4    1  0.4926183E-019  0.1490282E+02  0.7818608E-02  0.1871048E+00
         -2   -1    0    0    0  501 -0.00000000000E+00  0.00000000000E+00  0.11866777243E+03  0.11866777246E+03  0.25500000000E-02 0.  1.
          2   -1    0    0  501    0  0.00000000000E+00 -0.00000000000E+00 -0.46788702249E+00  0.46789397123E+00  0.25500000000E-02 0. -1.
         31    1    1    2    0    0  0.11193505064E+00 -0.23873655439E-01  0.60914122239E+02  0.61367762820E+02  0.74470750000E+01 0.  1.
        -31    1    1    2    0    0 -0.11193505064E+00  0.23873655439E-01  0.57285763169E+02  0.57767903609E+02  0.74470750000E+01 0. -1.
<mgrwt>
<rscale>  0 0.14902822E+02</rscale>
<asrwt>0</asrwt>
<pdfrwt beam="2">  1        2 0.99371627E+00 0.14902822E+02</pdfrwt>
<pdfrwt beam="1">  1       -2 0.98509705E+00 0.14902822E+02</pdfrwt>
<totfact> 0.52806237E-13</totfact>
</mgrwt>
</event>
<event>
 4    1 -0.4926183E-019  0.1500186E+02  0.7818608E-02  0.1868012E+00
         -2   -1    0    0    0  501 -0.00000000000E+00  0.00000000000E+00  0.11977915295E+03  0.11977915298E+03  0.25500000000E-02 0. -1.
          2   -1    0    0  501    0  0.00000000000E+00 -0.00000000000E+00 -0.46972744144E+00  0.46973436296E+00  0.25500000000E-02 0.  1.
         31    1    1    2    0    0 -0.41432855150E-01  0.86492112229E+00  0.61538660346E+02  0.61993672649E+02  0.74470750000E+01 0.  1.
        -31    1    1    2    0    0  0.41432855150E-01 -0.86492112229E+00  0.57770765166E+02  0.58255214695E+02  0.74470750000E+01 0.  1.
<mgrwt>
<rscale>  0 0.15001863E+02</rscale>
<asrwt>0</asrwt>
<pdfrwt beam="2">  1        2 0.99764605E+00 0.15001863E+02</pdfrwt>
<pdfrwt beam="1">  1       -2 0.99430193E+00 0.15001863E+02</pdfrwt>
<totfact>-0.73702662E-14</totfact>
</mgrwt>
</event>
<event>
 4    1 -0.4926183E-019  0.1497007E+02  0.7818608E-02  0.1868983E+00
         -2   -1    0    0    0  501 -0.00000000000E+00  0.00000000000E+00  0.12006135887E+03  0.12006135890E+03  0.25500000000E-02 0.  1.
          2   -1    0    0  501    0  0.00000000000E+00 -0.00000000000E+00 -0.46663906904E+00  0.46664603636E+00  0.25500000000E-02 0. -1.
         31    1    1    2    0    0  0.19834374794E+00  0.69543489334E+00  0.61483254468E+02  0.61936842638E+02  0.74470750000E+01 0. -1.
        -31    1    1    2    0    0 -0.19834374794E+00 -0.69543489334E+00  0.58111465336E+02  0.58591162298E+02  0.74470750000E+01 0.  1.
<mgrwt>
<rscale>  0 0.14970069E+02</rscale>
<asrwt>0</asrwt>
<pdfrwt beam="2">  1        2 0.99112130E+00 0.14970069E+02</pdfrwt>
<pdfrwt beam="1">  1       -2 0.99660987E+00 0.14970069E+02</pdfrwt>
<totfact>-0.13974947E-13</totfact>
</mgrwt>
</event>
<event>
 4    1  0.4926183E-019  0.1491805E+02  0.7818608E-02  0.1870579E+00
          2   -1    0    0  501    0  0.00000000000E+00  0.00000000000E+00  0.11974150383E+03  0.11974150386E+03  0.25500000000E-02 0.  1.
         -2   -1    0    0    0  501 -0.00000000000E+00 -0.00000000000E+00 -0.46463972641E+00  0.46464672371E+00  0.25500000000E-02 0. -1.
         31    1    1    2    0    0 -0.96154374608E-01 -0.41098650489E+00  0.59635384349E+02  0.60100051149E+02  0.74470750000E+01 0.  1.
        -31    1    1    2    0    0  0.96154374608E-01  0.41098650489E+00  0.59641479753E+02  0.60106099431E+02  0.74470750000E+01 0. -1.
<mgrwt>
<rscale>  0 0.14918054E+02</rscale>
<asrwt>0</asrwt>
<pdfrwt beam="1">  1        2 0.99394856E+00 0.14918054E+02</pdfrwt>
<pdfrwt beam="2">  1       -2 0.98688105E+00 0.14918054E+02</pdfrwt>
<totfact> 0.28373291E-13</totfact>
</mgrwt>
</event>
<event>
 4    1  0.4926183E-019  0.1493315E+02  0.7818608E-02  0.1870115E+00
          2   -1    0    0  501    0  0.00000000000E+00  0.00000000000E+00  0.11995045414E+03  0.11995045417E+03  0.25500000000E-02 0.  1.
         -2   -1    0    0    0  501 -0.00000000000E+00 -0.00000000000E+00 -0.46476940264E+00  0.46477639799E+00  0.25500000000E-02 0. -1.
         31    1    1    2    0    0  0.31851307666E+00 -0.34433547030E+00  0.57597553057E+02  0.58078886540E+02  0.74470750000E+01 0.  1.
        -31    1    1    2    0    0 -0.31851307666E+00  0.34433547030E+00  0.61888131682E+02  0.62336344027E+02  0.74470750000E+01 0.  1.
<mgrwt>
<rscale>  0 0.14933148E+02</rscale>
<asrwt>0</asrwt>
<pdfrwt beam="1">  1        2 0.99567738E+00 0.14933148E+02</pdfrwt>
<pdfrwt beam="2">  1       -2 0.98716206E+00 0.14933148E+02</pdfrwt>
<totfact> 0.21212481E-13</totfact>
</mgrwt>
</event>
<event>
 4    1 -0.4926183E-019  0.1493638E+02  0.7818608E-02  0.1870016E+00
         -2   -1    0    0    0  501 -0.00000000000E+00  0.00000000000E+00  0.11989639486E+03  0.11989639489E+03  0.25500000000E-02 0.  1.
          2   -1    0    0  501    0  0.00000000000E+00 -0.00000000000E+00 -0.46518013770E+00  0.46518712688E+00  0.25500000000E-02 0. -1.
         31    1    1    2    0    0 -0.13346844571E+00  0.43961940031E+00  0.57118905686E+02  0.57604161238E+02  0.74470750000E+01 0. -1.
        -31    1    1    2    0    0  0.13346844571E+00 -0.43961940031E+00  0.62312309041E+02  0.62757420781E+02  0.74470750000E+01 0. -1.
<mgrwt>
<rscale>  0 0.14936378E+02</rscale>
<asrwt>0</asrwt>
<pdfrwt beam="2">  1        2 0.98802935E+00 0.14936378E+02</pdfrwt>
<pdfrwt beam="1">  1       -2 0.99523377E+00 0.14936378E+02</pdfrwt>
<totfact>-0.22074640E-13</totfact>
</mgrwt>
</event>
<event>
 4    1  0.4926183E-019  0.1495148E+02  0.7818608E-02  0.1869553E+00
         -2   -1    0    0    0  501 -0.00000000000E+00  0.00000000000E+00  0.11901107904E+03  0.11901107906E+03  0.25500000000E-02 0.  1.
          2   -1    0    0  501    0  0.00000000000E+00 -0.00000000000E+00 -0.46958864438E+00  0.46959556794E+00  0.25500000000E-02 0. -1.
         31    1    1    2    0    0 -0.47220075938E+00 -0.29488275893E+00  0.62013623926E+02  0.62461655500E+02  0.74470750000E+01 0. -1.
        -31    1    1    2    0    0  0.47220075938E+00  0.29488275893E+00  0.56527866466E+02  0.57019019131E+02  0.74470750000E+01 0. -1.
<mgrwt>
<rscale>  0 0.14951477E+02</rscale>
<asrwt>0</asrwt>
<pdfrwt beam="2">  1        2 0.99732728E+00 0.14951477E+02</pdfrwt>
<pdfrwt beam="1">  1       -2 0.98794981E+00 0.14951477E+02</pdfrwt>
<totfact> 0.10611089E-13</totfact>
</mgrwt>
</event>
<event>
 4    1 -0.4926183E-019  0.1493285E+02  0.7818608E-02  0.1870125E+00
          2   -1    0    0  501    0  0.00000000000E+00  0.00000000000E+00  0.11869974049E+03  0.11869974052E+03  0.25500000000E-02 0. -1.
         -2   -1    0    0    0  501 -0.00000000000E+00 -0.00000000000E+00 -0.46964789809E+00  0.46965482078E+00  0.25500000000E-02 0.  1.
         31    1    1    2    0    0  0.40634460312E+00 -0.17343494857E+00  0.61553642268E+02  0.62004072432E+02  0.74470750000E+01 0. -1.
        -31    1    1    2    0    0 -0.40634460312E+00  0.17343494857E+00  0.56676450329E+02  0.57165322911E+02  0.74470750000E+01 0. -1.
<mgrwt>
<rscale>  0 0.14932849E+02</rscale>
<asrwt>0</asrwt>
<pdfrwt beam="1">  1        2 0.98537594E+00 0.14932849E+02</pdfrwt>
<pdfrwt beam="2">  1       -2 0.99744234E+00 0.14932849E+02</pdfrwt>
<totfact>-0.23452471E-13</totfact>
</mgrwt>
</event>
<event>
 4    1  0.4926183E-019  0.1490169E+02  0.7818608E-02  0.1871083E+00
         -2   -1    0    0    0  501 -0.00000000000E+00  0.00000000000E+00  0.11837553688E+03  0.11837553690E+03  0.25500000000E-02 0.  1.
          2   -1    0    0  501    0  0.00000000000E+00 -0.00000000000E+00 -0.46897075807E+00  0.46897769075E+00  0.25500000000E-02 0. -1.
         31    1    1    2    0    0 -0.94797333152E-01  0.37761125421E-02  0.60685067155E+02  0.61140373751E+02  0.74470750000E+01 0.  1.
        -31    1    1    2    0    0  0.94797333152E-01 -0.37761125421E-02  0.57221498965E+02  0.57704140845E+02  0.74470750000E+01 0. -1.
<mgrwt>
<rscale>  0 0.14901688E+02</rscale>
<asrwt>0</asrwt>
<pdfrwt beam="2">  1        2 0.99599917E+00 0.14901688E+02</pdfrwt>
<pdfrwt beam="1">  1       -2 0.98268960E+00 0.14901688E+02</pdfrwt>
<totfact> 0.75361758E-13</totfact>
</mgrwt>
</event>
<event>
 4    1  0.4926183E-019  0.1491297E+02  0.7818608E-02  0.1870736E+00
          2   -1    0    0  501    0  0.00000000000E+00  0.00000000000E+00  0.11976123679E+03  0.11976123682E+03  0.25500000000E-02 0.  1.
         -2   -1    0    0    0  501 -0.00000000000E+00 -0.00000000000E+00 -0.46424628826E+00  0.46425329149E+00  0.25500000000E-02 0. -1.
         31    1    1    2    0    0  0.19689366731E+00 -0.23181308669E+00  0.61409254259E+02  0.61859905748E+02  0.74470750000E+01 0.  1.
        -31    1    1    2    0    0 -0.19689366731E+00  0.23181308669E+00  0.57887736247E+02  0.58365584365E+02  0.74470750000E+01 0. -1.
<mgrwt>
<rscale>  0 0.14912965E+02</rscale>
<asrwt>0</asrwt>
<pdfrwt beam="1">  1        2 0.99410847E+00 0.14912965E+02</pdfrwt>
<pdfrwt beam="2">  1       -2 0.98604927E+00 0.14912965E+02</pdfrwt>
<totfact> 0.38069170E-13</totfact>
</mgrwt>
</event>
<event>
 4    1 -0.4926183E-019  0.1497508E+02  0.7818608E-02  0.1868830E+00
          2   -1    0    0  501    0  0.00000000000E+00  0.00000000000E+00  0.12005351050E+03  0.12005351052E+03  0.25500000000E-02 0. -1.
         -2   -1    0    0    0  501 -0.00000000000E+00 -0.00000000000E+00 -0.46698209050E+00  0.46698905271E+00  0.25500000000E-02 0.  1.
         31    1    1    2    0    0 -0.73392653922E+00  0.88593163913E-01  0.61728779237E+02  0.62180765588E+02  0.74470750000E+01 0.  1.
        -31    1    1    2    0    0  0.73392653922E+00 -0.88593163913E-01  0.57857749169E+02  0.58339733989E+02  0.74470750000E+01 0.  1.
<mgrwt>
<rscale>  0 0.14975081E+02</rscale>
<asrwt>0</asrwt>
<pdfrwt beam="1">  1        2 0.99654781E+00 0.14975081E+02</pdfrwt>
<pdfrwt beam="2">  1       -2 0.99184678E+00 0.14975081E+02</pdfrwt>
<totfact>-0.59801023E-14</totfact>
</mgrwt>
</event>
<event>
 4    1 -0.4926183E-019  0.1498446E+02  0.7818608E-02  0.1868543E+00
          2   -1    0    0  501    0  0.00000000000E+00  0.00000000000E+00  0.11993426332E+03  0.11993426335E+03  0.25500000000E-02 0.  1.
         -2   -1    0    0    0  501 -0.00000000000E+00 -0.00000000000E+00 -0.46803227220E+00  0.46803921878E+00  0.25500000000E-02 0. -1.
         31    1    1    2    0    0 -0.43303518715E+00 -0.33142323892E+00  0.64668281489E+02  0.65097948644E+02  0.74470750000E+01 0. -1.
        -31    1    1    2    0    0  0.43303518715E+00  0.33142323892E+00  0.54797949562E+02  0.55304353925E+02  0.74470750000E+01 0. -1.
<mgrwt>
<rscale>  0 0.14984462E+02</rscale>
<asrwt>0</asrwt>
<pdfrwt beam="1">  1        2 0.99557048E+00 0.14984462E+02</pdfrwt>
<pdfrwt beam="2">  1       -2 0.99406478E+00 0.14984462E+02</pdfrwt>
<totfact>-0.10986775E-13</totfact>
</mgrwt>
</event>
<event>
 4    1 -0.4926183E-019  0.1502144E+02  0.7818608E-02  0.1867415E+00
         -2   -1    0    0    0  501 -0.00000000000E+00  0.00000000000E+00  0.11993640733E+03  0.11993640735E+03  0.25500000000E-02 0. -1.
          2   -1    0    0  501    0  0.00000000000E+00 -0.00000000000E+00 -0.47033694586E+00  0.47034385841E+00  0.25500000000E-02 0.  1.
         31    1    1    2    0    0 -0.45862490442E+00 -0.66741282057E+00  0.55370288703E+02  0.55874713188E+02  0.74470750000E+01 0.  1.
        -31    1    1    2    0    0  0.45862490442E+00  0.66741282057E+00  0.64095781678E+02  0.64532038025E+02  0.74470750000E+01 0. -1.
<mgrwt>
<rscale>  0 0.15021444E+02</rscale>
<asrwt>0</asrwt>
<pdfrwt beam="2">  1        2 0.99894060E+00 0.15021444E+02</pdfrwt>
<pdfrwt beam="1">  1       -2 0.99560726E+00 0.15021444E+02</pdfrwt>
<totfact>-0.37427044E-14</totfact>
</mgrwt>
</event>
<event>
 4    1 -0.4926183E-019  0.1497172E+02  0.7818608E-02  0.1868933E+00
          2   -1    0    0  501    0  0.00000000000E+00  0.00000000000E+00  0.11992366963E+03  0.11992366965E+03  0.25500000000E-02 0. -1.
         -2   -1    0    0    0  501 -0.00000000000E+00 -0.00000000000E+00 -0.46727763764E+00  0.46728459544E+00  0.25500000000E-02 0.  1.
         31    1    1    2    0    0  0.53800865042E+00 -0.53593566565E+00  0.59329113045E+02  0.59799492147E+02  0.74470750000E+01 0.  1.
        -31    1    1    2    0    0 -0.53800865042E+00  0.53593566565E+00  0.60127278943E+02  0.60591462101E+02  0.74470750000E+01 0. -1.
<mgrwt>
<rscale>  0 0.14971716E+02</rscale>
<asrwt>0</asrwt>
<pdfrwt beam="1">  1        2 0.99547664E+00 0.14971716E+02</pdfrwt>
<pdfrwt beam="2">  1       -2 0.99246789E+00 0.14971716E+02</pdfrwt>
<totfact>-0.87069972E-14</totfact>
</mgrwt>
</event>
<event>
 4    1 -0.4926183E-019  0.1500451E+02  0.7818608E-02  0.1867931E+00
          2   -1    0    0  501    0  0.00000000000E+00  0.00000000000E+00  0.12002681087E+03  0.12002681090E+03  0.25500000000E-02 0. -1.
         -2   -1    0    0    0  501 -0.00000000000E+00 -0.00000000000E+00 -0.46892374352E+00  0.46893067690E+00  0.25500000000E-02 0.  1.
         31    1    1    2    0    0  0.65186270793E+00  0.50898951509E+00  0.62793582629E+02  0.63239046014E+02  0.74470750000E+01 0. -1.
        -31    1    1    2    0    0 -0.65186270793E+00 -0.50898951509E+00  0.56764304499E+02  0.57256695562E+02  0.74470750000E+01 0.  1.
<mgrwt>
<rscale>  0 0.15004511E+02</rscale>
<asrwt>0</asrwt>
<pdfrwt beam="1">  1        2 0.99634310E+00 0.15004511E+02</pdfrwt>
<pdfrwt beam="2">  1       -2 0.99595378E+00 0.15004511E+02</pdfrwt>
<totfact>-0.94338436E-14</totfact>
</mgrwt>
</event>
<event>
 4    1 -0.4926183E-019  0.1494655E+02  0.7818608E-02  0.1869704E+00
         -2   -1    0    0    0  501 -0.00000000000E+00  0.00000000000E+00  0.11944724845E+03  0.11944724848E+03  0.25500000000E-02 0. -1.
          2   -1    0    0  501    0  0.00000000000E+00 -0.00000000000E+00 -0.46756569672E+00  0.46757265023E+00  0.25500000000E-02 0.  1.
         31    1    1    2    0    0  0.54083875725E+00 -0.16141763528E+00  0.57331601133E+02  0.57816001044E+02  0.74470750000E+01 0.  1.
        -31    1    1    2    0    0 -0.54083875725E+00  0.16141763528E+00  0.61648081620E+02  0.62098820083E+02  0.74470750000E+01 0. -1.
<mgrwt>
<rscale>  0 0.14946552E+02</rscale>
<asrwt>0</asrwt>
<pdfrwt beam="2">  1        2 0.99306194E+00 0.14946552E+02</pdfrwt>
<pdfrwt beam="1">  1       -2 0.99153964E+00 0.14946552E+02</pdfrwt>
<totfact>-0.74438643E-14</totfact>
</mgrwt>
</event>
<event>
 4    1 -0.4926183E-019  0.1490945E+02  0.7818608E-02  0.1870844E+00
         -2   -1    0    0    0  501 -0.00000000000E+00  0.00000000000E+00  0.12037468642E+03  0.12037468644E+03  0.25500000000E-02 0.  1.
          2   -1    0    0  501    0  0.00000000000E+00 -0.00000000000E+00 -0.46166262879E+00  0.46166967122E+00  0.25500000000E-02 0. -1.
         31    1    1    2    0    0 -0.32855986590E+00  0.27452828072E-02  0.59326839280E+02  0.59793316885E+02  0.74470750000E+01 0. -1.
        -31    1    1    2    0    0  0.32855986590E+00 -0.27452828072E-02  0.60586184508E+02  0.61043039230E+02  0.74470750000E+01 0.  1.
<mgrwt>
<rscale>  0 0.14909450E+02</rscale>
<asrwt>0</asrwt>
<pdfrwt beam="2">  1        2 0.98060198E+00 0.14909450E+02</pdfrwt>
<pdfrwt beam="1">  1       -2 0.99915954E+00 0.14909450E+02</pdfrwt>
<totfact>-0.20059653E-13</totfact>
</mgrwt>
</event>
<event>
 4    1  0.4926183E-019  0.1490809E+02  0.7818608E-02  0.1870886E+00
         -2   -1    0    0    0  501 -0.00000000000E+00  0.00000000000E+00  0.11875118731E+03  0.11875118733E+03  0.25500000000E-02 0. -1.
          2   -1    0    0  501    0  0.00000000000E+00 -0.00000000000E+00 -0.46788914907E+00  0.46789609778E+00  0.25500000000E-02 0.  1.
         31    1    1    2    0    0 -0.61278726005E-02 -0.18264716910E+00  0.61264745212E+02  0.61715973050E+02  0.74470750000E+01 0. -1.
        -31    1    1    2    0    0  0.61278726005E-02  0.18264716910E+00  0.57018552945E+02  0.57503110382E+02  0.74470750000E+01 0.  1.
<mgrwt>
<rscale>  0 0.14908093E+02</rscale>
<asrwt>0</asrwt>
<pdfrwt beam="2">  1        2 0.99372351E+00 0.14908093E+02</pdfrwt>
<pdfrwt beam="1">  1       -2 0.98578680E+00 0.14908093E+02</pdfrwt>
<totfact> 0.42804885E-13</totfact>
</mgrwt>
</event>
<event>
 4    1 -0.4926183E-019  0.1489507E+02  0.7818608E-02  0.1871287E+00
         -2   -1    0    0    0  501 -0.00000000000E+00  0.00000000000E+00  0.11953606026E+03  0.11953606029E+03  0.25500000000E-02 0.  1.
          2   -1    0    0  501    0  0.00000000000E+00 -0.00000000000E+00 -0.46400539081E+00  0.46401239768E+00  0.25500000000E-02 0. -1.
         31    1    1    2    0    0 -0.38889129213E-01  0.70095993162E-01  0.59706269160E+02  0.60168961507E+02  0.74470750000E+01 0. -1.
        -31    1    1    2    0    0  0.38889129213E-01 -0.70095993162E-01  0.59365785711E+02  0.59831111179E+02  0.74470750000E+01 0.  1.
<mgrwt>
<rscale>  0 0.14895073E+02</rscale>
<asrwt>0</asrwt>
<pdfrwt beam="2">  1        2 0.98553242E+00 0.14895073E+02</pdfrwt>
<pdfrwt beam="1">  1       -2 0.99224456E+00 0.14895073E+02</pdfrwt>
<totfact>-0.22983786E-13</totfact>
</mgrwt>
</event>
<event>
 4    1  0.4926183E-019  0.1492457E+02  0.7818608E-02  0.1870379E+00
         -2   -1    0    0    0  501 -0.00000000000E+00  0.00000000000E+00  0.11906659060E+03  0.11906659063E+03  0.25500000000E-02 0.  1.
          2   -1    0    0  501    0  0.00000000000E+00 -0.00000000000E+00 -0.46768212940E+00  0.46768908119E+00  0.25500000000E-02 0. -1.
         31    1    1    2    0    0 -0.47518851994E+00  0.16647560525E-01  0.59515321587E+02  0.59981318016E+02  0.74470750000E+01 0. -1.
        -31    1    1    2    0    0  0.47518851994E+00 -0.16647560525E-01  0.59083586888E+02  0.59552961697E+02  0.74470750000E+01 0. -1.
<mgrwt>
<rscale>  0 0.14924575E+02</rscale>
<asrwt>0</asrwt>
<pdfrwt beam="2">  1        2 0.99329588E+00 0.14924575E+02</pdfrwt>
<pdfrwt beam="1">  1       -2 0.98839306E+00 0.14924575E+02</pdfrwt>
<totfact> 0.13693127E-13</totfact>
</mgrwt>
</event>
<event>
 4    1 -0.4926183E-019  0.1498375E+02  0.7818608E-02  0.1868565E+00
          2   -1    0    0  501    0  0.00000000000E+00  0.00000000000E+00  0.12022223764E+03  0.12022223767E+03  0.25500000000E-02 0. -1.
         -2   -1    0    0    0  501 -0.00000000000E+00 -0.00000000000E+00 -0.46686704665E+00  0.46687401057E+00  0.25500000000E-02 0.  1.
         31    1    1    2    0    0 -0.54286485102E+00  0.24987820340E+00  0.55377473755E+02  0.55879161294E+02  0.74470750000E+01 0.  1.
        -31    1    1    2    0    0  0.54286485102E+00 -0.24987820340E+00  0.64377896840E+02  0.64809950386E+02  0.74470750000E+01 0. -1.
<mgrwt>
<rscale>  0 0.14983754E+02</rscale>
<asrwt>0</asrwt>
<pdfrwt beam="1">  1        2 0.99794202E+00 0.14983754E+02</pdfrwt>
<pdfrwt beam="2">  1       -2 0.99160877E+00 0.14983754E+02</pdfrwt>
<totfact>-0.36937608E-14</totfact>
</mgrwt>
</event>
<event>
 4    1  0.4926183E-019  0.1494520E+02  0.7818608E-02  0.1869745E+00
          2   -1    0    0  501    0  0.00000000000E+00  0.00000000000E+00  0.12000936924E+03  0.12000936927E+03  0.25500000000E-02 0. -1.
         -2   -1    0    0    0  501 -0.00000000000E+00 -0.00000000000E+00 -0.46529112896E+00  0.46529811647E+00  0.25500000000E-02 0.  1.
         31    1    1    2    0    0 -0.41312328281E+00 -0.34112666776E+00  0.62240277050E+02  0.62686506136E+02  0.74470750000E+01 0. -1.
        -31    1    1    2    0    0  0.41312328281E+00  0.34112666776E+00  0.57303801062E+02  0.57788161248E+02  0.74470750000E+01 0.  1.
<mgrwt>
<rscale>  0 0.14945196E+02</rscale>
<asrwt>0</asrwt>
<pdfrwt beam="1">  1        2 0.99616884E+00 0.14945196E+02</pdfrwt>
<pdfrwt beam="2">  1       -2 0.98826777E+00 0.14945196E+02</pdfrwt>
<totfact> 0.11101566E-13</totfact>
</mgrwt>
</event>
<event>
 4    1  0.4926183E-019  0.1491883E+02  0.7818608E-02  0.1870555E+00
          2   -1    0    0  501    0  0.00000000000E+00  0.00000000000E+00  0.12017775874E+03  0.12017775877E+03  0.25500000000E-02 0.  1.
         -2   -1    0    0    0  501 -0.00000000000E+00 -0.00000000000E+00 -0.46300137884E+00  0.46300840090E+00  0.25500000000E-02 0. -1.
         31    1    1    2    0    0  0.29285281711E+00 -0.31021147879E+00  0.59498169868E+02  0.59963931973E+02  0.74470750000E+01 0. -1.
        -31    1    1    2    0    0 -0.29285281711E+00  0.31021147879E+00  0.60216587497E+02  0.60676835199E+02  0.74470750000E+01 0.  1.
<mgrwt>
<rscale>  0 0.14918833E+02</rscale>
<asrwt>0</asrwt>
<pdfrwt beam="1">  1        2 0.99754227E+00 0.14918833E+02</pdfrwt>
<pdfrwt beam="2">  1       -2 0.98342846E+00 0.14918833E+02</pdfrwt>
<totfact> 0.46407552E-13</totfact>
</mgrwt>
</event>
<event>
 4    1 -0.4926183E-019  0.1495251E+02  0.7818608E-02  0.1869521E+00
          2   -1    0    0  501    0  0.00000000000E+00  0.00000000000E+00  0.11964779766E+03  0.11964779768E+03  0.25500000000E-02 0.  1.
         -2   -1    0    0    0  501 -0.00000000000E+00 -0.00000000000E+00 -0.46715433598E+00  0.46716129562E+00  0.25500000000E-02 0. -1.
         31    1    1    2    0    0  0.30982771049E+00  0.33636609876E+00  0.55768512396E+02  0.56265398215E+02  0.74470750000E+01 0.  1.
        -31    1    1    2    0    0 -0.30982771049E+00 -0.33636609876E+00  0.63412130925E+02  0.63849560764E+02  0.74470750000E+01 0.  1.
<mgrwt>
<rscale>  0 0.14952512E+02</rscale>
<asrwt>0</asrwt>
<pdfrwt beam="1">  1        2 0.99319452E+00 0.14952512E+02</pdfrwt>
<pdfrwt beam="2">  1       -2 0.99219815E+00 0.14952512E+02</pdfrwt>
<totfact>-0.98535418E-14</totfact>
</mgrwt>
</event>
<event>
 4    1 -0.4926183E-019  0.1491213E+02  0.7818608E-02  0.1870762E+00
          2   -1    0    0  501    0  0.00000000000E+00  0.00000000000E+00  0.11837442213E+03  0.11837442216E+03  0.25500000000E-02 0. -1.
         -2   -1    0    0    0  501 -0.00000000000E+00 -0.00000000000E+00 -0.46963240391E+00  0.46963932683E+00  0.25500000000E-02 0.  1.
         31    1    1    2    0    0  0.16635926301E+00 -0.28664982269E+00  0.60189814939E+02  0.60649670996E+02  0.74470750000E+01 0.  1.
        -31    1    1    2    0    0 -0.16635926301E+00  0.28664982269E+00  0.57714974785E+02  0.58194390486E+02  0.74470750000E+01 0.  1.
<mgrwt>
<rscale>  0 0.14912126E+02</rscale>
<asrwt>0</asrwt>
<pdfrwt beam="1">  1        2 0.98268585E+00 0.14912126E+02</pdfrwt>
<pdfrwt beam="2">  1       -2 0.99739876E+00 0.14912126E+02</pdfrwt>
<totfact>-0.37096003E-13</totfact>
</mgrwt>
</event>
<event>
 4    1 -0.4926183E-019  0.1491967E+02  0.7818608E-02  0.1870530E+00
          2   -1    0    0  501    0  0.00000000000E+00  0.00000000000E+00  0.11864137320E+03  0.11864137323E+03  0.25500000000E-02 0.  1.
         -2   -1    0    0    0  501 -0.00000000000E+00 -0.00000000000E+00 -0.46905013879E+00  0.46905707030E+00  0.25500000000E-02 0. -1.
         31    1    1    2    0    0 -0.42996920457E+00  0.63034761861E-01  0.59384239552E+02  0.59850945524E+02  0.74470750000E+01 0.  1.
        -31    1    1    2    0    0  0.42996920457E+00 -0.63034761861E-01  0.58788083510E+02  0.59259484774E+02  0.74470750000E+01 0.  1.
<mgrwt>
<rscale>  0 0.14919674E+02</rscale>
<asrwt>0</asrwt>
<pdfrwt beam="1">  1        2 0.98488838E+00 0.14919674E+02</pdfrwt>
<pdfrwt beam="2">  1       -2 0.99617590E+00 0.14919674E+02</pdfrwt>
<totfact>-0.32504945E-13</totfact>
</mgrwt>
</event>
<event>
 4    1  0.4926183E-019  0.1490579E+02  0.7818608E-02  0.1870957E+00
          2   -1    0    0  501    0  0.00000000000E+00  0.00000000000E+00  0.12023721246E+03  0.12023721249E+03  0.25500000000E-02 0. -1.
         -2   -1    0    0    0  501 -0.00000000000E+00 -0.00000000000E+00 -0.46196346525E+00  0.46197050309E+00  0.25500000000E-02 0.  1.
         31    1    1    2    0    0 -0.25605942969E+00 -0.93092400001E-01  0.58983495512E+02  0.59452383480E+02  0.74470750000E+01 0. -1.
        -31    1    1    2    0    0  0.25605942969E+00  0.93092400001E-01  0.60791753484E+02  0.61246799511E+02  0.74470750000E+01 0. -1.
<mgrwt>
<rscale>  0 0.14905788E+02</rscale>
<asrwt>0</asrwt>
<pdfrwt beam="1">  1        2 0.99802529E+00 0.14905788E+02</pdfrwt>
<pdfrwt beam="2">  1       -2 0.98123423E+00 0.14905788E+02</pdfrwt>
<totfact> 0.61836683E-13</totfact>
</mgrwt>
</event>
<event>
 4    1 -0.4926183E-019  0.1496594E+02  0.7818608E-02  0.1869110E+00
          2   -1    0    0  501    0  0.00000000000E+00  0.00000000000E+00  0.11979259554E+03  0.11979259557E+03  0.25500000000E-02 0. -1.
         -2   -1    0    0    0  501 -0.00000000000E+00 -0.00000000000E+00 -0.46742795594E+00  0.46743491150E+00  0.25500000000E-02 0.  1.
         31    1    1    2    0    0 -0.34238558064E+00  0.43214267258E+00  0.63532421399E+02  0.63969769970E+02  0.74470750000E+01 0. -1.
        -31    1    1    2    0    0  0.34238558064E+00 -0.43214267258E+00  0.55792746188E+02  0.56290260512E+02  0.74470750000E+01 0.  1.
<mgrwt>
<rscale>  0 0.14965938E+02</rscale>
<asrwt>0</asrwt>
<pdfrwt beam="1">  1        2 0.99439407E+00 0.14965938E+02</pdfrwt>
<pdfrwt beam="2">  1       -2 0.99278170E+00 0.14965938E+02</pdfrwt>
<totfact>-0.10497399E-13</totfact>
</mgrwt>
</event>
<event>
 4    1 -0.4926183E-019  0.1492173E+02  0.7818608E-02  0.1870466E+00
          2   -1    0    0  501    0  0.00000000000E+00  0.00000000000E+00  0.11910940261E+03  0.11910940264E+03  0.25500000000E-02 0. -1.
         -2   -1    0    0    0  501 -0.00000000000E+00 -0.00000000000E+00 -0.46733556245E+00  0.46734251939E+00  0.25500000000E-02 0.  1.
         31    1    1    2    0    0 -0.27473451521E+00 -0.34395412818E+00  0.60190340610E+02  0.60650884679E+02  0.74470750000E+01 0.  1.
        -31    1    1    2    0    0  0.27473451521E+00  0.34395412818E+00  0.58451726440E+02  0.58925860481E+02  0.74470750000E+01 0. -1.
<mgrwt>
<rscale>  0 0.14921726E+02</rscale>
<asrwt>0</asrwt>
<pdfrwt beam="1">  1        2 0.98874419E+00 0.14921726E+02</pdfrwt>
<pdfrwt beam="2">  1       -2 0.99256410E+00 0.14921726E+02</pdfrwt>
<totfact>-0.16102615E-13</totfact>
</mgrwt>
</event>
<event>
 4    1  0.4926183E-019  0.1492614E+02  0.7818608E-02  0.1870331E+00
         -2   -1    0    0    0  501 -0.00000000000E+00  0.00000000000E+00  0.11855936085E+03  0.11855936088E+03  0.25500000000E-02 0.  1.
          2   -1    0    0  501    0  0.00000000000E+00 -0.00000000000E+00 -0.46978183872E+00  0.46978875944E+00  0.25500000000E-02 0. -1.
         31    1    1    2    0    0  0.47864549958E+00  0.55615995059E-02  0.58272058899E+02  0.58747943852E+02  0.74470750000E+01 0. -1.
        -31    1    1    2    0    0 -0.47864549958E+00 -0.55615995059E-02  0.59817520111E+02  0.60281205784E+02  0.74470750000E+01 0.  1.
<mgrwt>
<rscale>  0 0.14926145E+02</rscale>
<asrwt>0</asrwt>
<pdfrwt beam="2">  1        2 0.99772102E+00 0.14926145E+02</pdfrwt>
<pdfrwt beam="1">  1       -2 0.98421629E+00 0.14926145E+02</pdfrwt>
<totfact> 0.36283789E-13</totfact>
</mgrwt>
</event>
<event>
 4    1  0.4926183E-019  0.1491467E+02  0.7818608E-02  0.1870683E+00
         -2   -1    0    0    0  501 -0.00000000000E+00  0.00000000000E+00  0.11869218326E+03  0.11869218328E+03  0.25500000000E-02 0.  1.
          2   -1    0    0  501    0  0.00000000000E+00 -0.00000000000E+00 -0.46853509109E+00  0.46854203022E+00  0.25500000000E-02 0. -1.
         31    1    1    2    0    0  0.11334531510E+00 -0.31773197966E+00  0.60692475511E+02  0.61148583880E+02  0.74470750000E+01 0.  1.
        -31    1    1    2    0    0 -0.11334531510E+00  0.31773197966E+00  0.57531172654E+02  0.58012141434E+02  0.74470750000E+01 0. -1.
<mgrwt>
<rscale>  0 0.14914673E+02</rscale>
<asrwt>0</asrwt>
<pdfrwt beam="2">  1        2 0.99508803E+00 0.14914673E+02</pdfrwt>
<pdfrwt beam="1">  1       -2 0.98530425E+00 0.14914673E+02</pdfrwt>
<totfact> 0.43986231E-13</totfact>
</mgrwt>
</event>
<event>
 4    1 -0.4926183E-019  0.1501074E+02  0.7818608E-02  0.1867741E+00
         -2   -1    0    0    0  501 -0.00000000000E+00  0.00000000000E+00  0.12022148248E+03  0.12022148251E+03  0.25500000000E-02 0.  1.
          2   -1    0    0  501    0  0.00000000000E+00 -0.00000000000E+00 -0.46855323803E+00  0.46856017689E+00  0.25500000000E-02 0. -1.
         31    1    1    2    0    0 -0.77236490440E+00 -0.78237072223E-01  0.55706447131E+02  0.56207382492E+02  0.74470750000E+01 0. -1.
        -31    1    1    2    0    0  0.77236490440E+00  0.78237072223E-01  0.64046482112E+02  0.64482660193E+02  0.74470750000E+01 0.  1.
<mgrwt>
<rscale>  0 0.15010741E+02</rscale>
<asrwt>0</asrwt>
<pdfrwt beam="2">  1        2 0.99517620E+00 0.15010741E+02</pdfrwt>
<pdfrwt beam="1">  1       -2 0.99794972E+00 0.15010741E+02</pdfrwt>
<totfact>-0.71010398E-14</totfact>
</mgrwt>
</event>
<event>
 4    1 -0.4926183E-019  0.1496253E+02  0.7818608E-02  0.1869214E+00
         -2   -1    0    0    0  501 -0.00000000000E+00  0.00000000000E+00  0.11983040148E+03  0.11983040151E+03  0.25500000000E-02 0.  1.
          2   -1    0    0  501    0  0.00000000000E+00 -0.00000000000E+00 -0.46706788073E+00  0.46707484166E+00  0.25500000000E-02 0. -1.
         31    1    1    2    0    0 -0.46901877145E+00 -0.98559654603E-01  0.63941556583E+02  0.64375548751E+02  0.74470750000E+01 0.  1.
        -31    1    1    2    0    0  0.46901877145E+00  0.98559654603E-01  0.55421777016E+02  0.55921927598E+02  0.74470750000E+01 0.  1.
<mgrwt>
<rscale>  0 0.14962533E+02</rscale>
<asrwt>0</asrwt>
<pdfrwt beam="2">  1        2 0.99202112E+00 0.14962533E+02</pdfrwt>
<pdfrwt beam="1">  1       -2 0.99470370E+00 0.14962533E+02</pdfrwt>
<totfact>-0.15149745E-13</totfact>
</mgrwt>
</event>
<event>
 4    1 -0.4926183E-019  0.1501076E+02  0.7818608E-02  0.1867740E+00
          2   -1    0    0  501    0  0.00000000000E+00  0.00000000000E+00  0.12019633007E+03  0.12019633010E+03  0.25500000000E-02 0. -1.
         -2   -1    0    0    0  501 -0.00000000000E+00 -0.00000000000E+00 -0.46865223473E+00  0.46865917213E+00  0.25500000000E-02 0.  1.
         31    1    1    2    0    0 -0.73456082974E+00  0.29262286842E+00  0.55872262156E+02  0.56371923971E+02  0.74470750000E+01 0.  1.
        -31    1    1    2    0    0  0.73456082974E+00 -0.29262286842E+00  0.63855415683E+02  0.64293065301E+02  0.74470750000E+01 0. -1.
<mgrwt>
<rscale>  0 0.15010756E+02</rscale>
<asrwt>0</asrwt>
<pdfrwt beam="1">  1        2 0.99774256E+00 0.15010756E+02</pdfrwt>
<pdfrwt beam="2">  1       -2 0.99538483E+00 0.15010756E+02</pdfrwt>
<totfact>-0.70835594E-14</totfact>
</mgrwt>
</event>
<event>
 4    1  0.4926183E-019  0.1490390E+02  0.7818608E-02  0.1871015E+00
          2   -1    0    0  501    0  0.00000000000E+00  0.00000000000E+00  0.12041799455E+03  0.12041799458E+03  0.25500000000E-02 0.  1.
         -2   -1    0    0    0  501 -0.00000000000E+00 -0.00000000000E+00 -0.46115284159E+00  0.46115989180E+00  0.25500000000E-02 0. -1.
         31    1    1    2    0    0  0.20068502105E+00 -0.10228600147E+00  0.58779120830E+02  0.59249427917E+02  0.74470750000E+01 0. -1.
        -31    1    1    2    0    0 -0.20068502105E+00  0.10228600147E+00  0.61177720881E+02  0.61629726554E+02  0.74470750000E+01 0.  1.
<mgrwt>
<rscale>  0 0.14903896E+02</rscale>
<asrwt>0</asrwt>
<pdfrwt beam="1">  1        2 0.99951342E+00 0.14903896E+02</pdfrwt>
<pdfrwt beam="2">  1       -2 0.97952465E+00 0.14903896E+02</pdfrwt>
<totfact> 0.24181480E-13</totfact>
</mgrwt>
</event>
<event>
 4    1 -0.4926183E-019  0.1497802E+02  0.7818608E-02  0.1868740E+00
         -2   -1    0    0    0  501 -0.00000000000E+00  0.00000000000E+00  0.11962053572E+03  0.11962053575E+03  0.25500000000E-02 0.  1.
          2   -1    0    0  501    0  0.00000000000E+00 -0.00000000000E+00 -0.46885639339E+00  0.46886332776E+00  0.25500000000E-02 0. -1.
         31    1    1    2    0    0  0.24442996549E+00  0.18402800241E+00  0.53723831852E+02  0.54238387210E+02  0.74470750000E+01 0. -1.
        -31    1    1    2    0    0 -0.24442996549E+00 -0.18402800241E+00  0.65427847477E+02  0.65851011867E+02  0.74470750000E+01 0.  1.
<mgrwt>
<rscale>  0 0.14978020E+02</rscale>
<asrwt>0</asrwt>
<pdfrwt beam="2">  1        2 0.99579813E+00 0.14978020E+02</pdfrwt>
<pdfrwt beam="1">  1       -2 0.99298317E+00 0.14978020E+02</pdfrwt>
<totfact>-0.93904318E-14</totfact>
</mgrwt>
</event>
<event>
 4    1 -0.4926183E-019  0.1494457E+02  0.7818608E-02  0.1869765E+00
         -2   -1    0    0    0  501 -0.00000000000E+00  0.00000000000E+00  0.12027634633E+03  0.12027634636E+03  0.25500000000E-02 0.  1.
          2   -1    0    0  501    0  0.00000000000E+00 -0.00000000000E+00 -0.46421967879E+00  0.46422668243E+00  0.25500000000E-02 0. -1.
         31    1    1    2    0    0  0.24397999883E+00  0.26073656078E-01  0.55364854862E+02  0.55863998120E+02  0.74470750000E+01 0. -1.
        -31    1    1    2    0    0 -0.24397999883E+00 -0.26073656078E-01  0.64447271794E+02  0.64876574924E+02  0.74470750000E+01 0.  1.
<mgrwt>
<rscale>  0 0.14944574E+02</rscale>
<asrwt>0</asrwt>
<pdfrwt beam="2">  1        2 0.98600927E+00 0.14944574E+02</pdfrwt>
<pdfrwt beam="1">  1       -2 0.99836754E+00 0.14944574E+02</pdfrwt>
<totfact>-0.14863209E-13</totfact>
</mgrwt>
</event>
<event>
 4    1  0.4926183E-019  0.1492286E+02  0.7818608E-02  0.1870432E+00
          2   -1    0    0  501    0  0.00000000000E+00  0.00000000000E+00  0.11984760301E+03  0.11984760303E+03  0.25500000000E-02 0. -1.
         -2   -1    0    0    0  501 -0.00000000000E+00 -0.00000000000E+00 -0.46452766968E+00  0.46453466868E+00  0.25500000000E-02 0.  1.
         31    1    1    2    0    0 -0.26032992798E-01 -0.17132659702E+00  0.63149808164E+02  0.63587634236E+02  0.74470750000E+01 0. -1.
        -31    1    1    2    0    0  0.26032992798E-01  0.17132659702E+00  0.56233267174E+02  0.56724503467E+02  0.74470750000E+01 0. -1.
<mgrwt>
<rscale>  0 0.14922862E+02</rscale>
<asrwt>0</asrwt>
<pdfrwt beam="1">  1        2 0.99482493E+00 0.14922862E+02</pdfrwt>
<pdfrwt beam="2">  1       -2 0.98664734E+00 0.14922862E+02</pdfrwt>
<totfact> 0.28796436E-13</totfact>
</mgrwt>
</event>
<event>
 4    1 -0.4926183E-019  0.1490450E+02  0.7818608E-02  0.1870997E+00
         -2   -1    0    0    0  501 -0.00000000000E+00  0.00000000000E+00  0.11993924042E+03  0.11993924045E+03  0.25500000000E-02 0.  1.
          2   -1    0    0  501    0  0.00000000000E+00 -0.00000000000E+00 -0.46303123848E+00  0.46303826009E+00  0.25500000000E-02 0. -1.
         31    1    1    2    0    0 -0.84654097302E-01  0.46669087490E-01  0.61841073241E+02  0.62287933101E+02  0.74470750000E+01 0.  1.
        -31    1    1    2    0    0  0.84654097302E-01 -0.46669087490E-01  0.57635135944E+02  0.58114345610E+02  0.74470750000E+01 0. -1.
<mgrwt>
<rscale>  0 0.14904501E+02</rscale>
<asrwt>0</asrwt>
<pdfrwt beam="2">  1        2 0.98348413E+00 0.14904501E+02</pdfrwt>
<pdfrwt beam="1">  1       -2 0.99557028E+00 0.14904501E+02</pdfrwt>
<totfact>-0.43492260E-13</totfact>
</mgrwt>
</event>
<event>
 4    1  0.4926183E-019  0.1492597E+02  0.7818608E-02  0.1870336E+00
          2   -1    0    0  501    0  0.00000000000E+00  0.00000000000E+00  0.12036727499E+03  0.12036727501E+03  0.25500000000E-02 0. -1.
         -2   -1    0    0    0  501 -0.00000000000E+00 -0.00000000000E+00 -0.46271454748E+00  0.46272157390E+00  0.25500000000E-02 0.  1.
         31    1    1    2    0    0 -0.50471866654E-01 -0.48416193315E+00  0.59829758171E+02  0.60293414640E+02  0.74470750000E+01 0.  1.
        -31    1    1    2    0    0  0.50471866654E-01  0.48416193315E+00  0.60074802269E+02  0.60536581947E+02  0.74470750000E+01 0. -1.
<mgrwt>
<rscale>  0 0.14925966E+02</rscale>
<asrwt>0</asrwt>
<pdfrwt beam="1">  1        2 0.99910695E+00 0.14925966E+02</pdfrwt>
<pdfrwt beam="2">  1       -2 0.98282750E+00 0.14925966E+02</pdfrwt>
<totfact> 0.22924836E-13</totfact>
</mgrwt>
</event>
<event>
 4    1  0.4926183E-019  0.1492139E+02  0.7818608E-02  0.1870477E+00
         -2   -1    0    0    0  501 -0.00000000000E+00  0.00000000000E+00  0.11844001256E+03  0.11844001259E+03  0.25500000000E-02 0.  1.
          2   -1    0    0  501    0  0.00000000000E+00 -0.00000000000E+00 -0.46995567354E+00  0.46996259170E+00  0.25500000000E-02 0. -1.
         31    1    1    2    0    0  0.29669406097E+00 -0.28036273571E+00  0.60505688457E+02  0.60963627618E+02  0.74470750000E+01 0.  1.
        -31    1    1    2    0    0 -0.29669406097E+00  0.28036273571E+00  0.57464368428E+02  0.57946347559E+02  0.74470750000E+01 0. -1.
<mgrwt>
<rscale>  0 0.14921390E+02</rscale>
<asrwt>0</asrwt>
<pdfrwt beam="2">  1        2 0.99808478E+00 0.14921390E+02</pdfrwt>
<pdfrwt beam="1">  1       -2 0.98323087E+00 0.14921390E+02</pdfrwt>
<totfact> 0.40162281E-13</totfact>
</mgrwt>
</event>
<event>
 4    1 -0.4926183E-019  0.1491565E+02  0.7818608E-02  0.1870653E+00
          2   -1    0    0  501    0  0.00000000000E+00  0.00000000000E+00  0.11892811389E+03  0.11892811392E+03  0.25500000000E-02 0. -1.
         -2   -1    0    0    0  501 -0.00000000000E+00 -0.00000000000E+00 -0.46766685502E+00  0.46767380704E+00  0.25500000000E-02 0.  1.
         31    1    1    2    0    0 -0.18335605360E+00  0.12261815691E+00  0.61904007123E+02  0.62350731179E+02  0.74470750000E+01 0. -1.
        -31    1    1    2    0    0  0.18335605360E+00 -0.12261815691E+00  0.56556439910E+02  0.57045056543E+02  0.74470750000E+01 0.  1.
<mgrwt>
<rscale>  0 0.14915650E+02</rscale>
<asrwt>0</asrwt>
<pdfrwt beam="1">  1        2 0.98724791E+00 0.14915650E+02</pdfrwt>
<pdfrwt beam="2">  1       -2 0.99325904E+00 0.14915650E+02</pdfrwt>
<totfact>-0.22348490E-13</totfact>
</mgrwt>
</event>
<event>
 4    1  0.4926183E-019  0.1492847E+02  0.7818608E-02  0.1870259E+00
          2   -1    0    0  501    0  0.00000000000E+00  0.00000000000E+00  0.11991864054E+03  0.11991864057E+03  0.25500000000E-02 0. -1.
         -2   -1    0    0    0  501 -0.00000000000E+00 -0.00000000000E+00 -0.46460161478E+00  0.46460861265E+00  0.25500000000E-02 0.  1.
         31    1    1    2    0    0  0.20632173143E+00 -0.16067931843E+00  0.63218875717E+02  0.63656528020E+02  0.74470750000E+01 0. -1.
        -31    1    1    2    0    0 -0.20632173143E+00  0.16067931843E+00  0.56235163207E+02  0.56726721159E+02  0.74470750000E+01 0. -1.
<mgrwt>
<rscale>  0 0.14928472E+02</rscale>
<asrwt>0</asrwt>
<pdfrwt beam="1">  1        2 0.99541293E+00 0.14928472E+02</pdfrwt>
<pdfrwt beam="2">  1       -2 0.98680605E+00 0.14928472E+02</pdfrwt>
<totfact> 0.25412296E-13</totfact>
</mgrwt>
</event>
<event>
 4    1 -0.4926183E-019  0.1498647E+02  0.7818608E-02  0.1868482E+00
          2   -1    0    0  501    0  0.00000000000E+00  0.00000000000E+00  0.11977377206E+03  0.11977377208E+03  0.25500000000E-02 0. -1.
         -2   -1    0    0    0  501 -0.00000000000E+00 -0.00000000000E+00 -0.46878491681E+00  0.46879185224E+00  0.25500000000E-02 0.  1.
         31    1    1    2    0    0 -0.59293613903E+00 -0.14323340416E+00  0.64173748580E+02  0.64607283041E+02  0.74470750000E+01 0. -1.
        -31    1    1    2    0    0  0.59293613903E+00  0.14323340416E+00  0.55131238560E+02  0.55635280895E+02  0.74470750000E+01 0.  1.
<mgrwt>
<rscale>  0 0.14986468E+02</rscale>
<asrwt>0</asrwt>
<pdfrwt beam="1">  1        2 0.99424965E+00 0.14986468E+02</pdfrwt>
<pdfrwt beam="2">  1       -2 0.99565189E+00 0.14986468E+02</pdfrwt>
<totfact>-0.12395337E-13</totfact>
</mgrwt>
</event>
<event>
 4    1  0.4926183E-019  0.1490490E+02  0.7818608E-02  0.1870984E+00
         -2   -1    0    0    0  501 -0.00000000000E+00  0.00000000000E+00  0.11880616093E+03  0.11880616096E+03  0.25500000000E-02 0.  1.
          2   -1    0    0  501    0  0.00000000000E+00 -0.00000000000E+00 -0.46747234870E+00  0.46747930361E+00  0.25500000000E-02 0. -1.
         31    1    1    2    0    0  0.28063627793E-01 -0.24930581070E+00  0.60217142281E+02  0.60676404735E+02  0.74470750000E+01 0.  1.
        -31    1    1    2    0    0 -0.28063627793E-01  0.24930581070E+00  0.58121546298E+02  0.58597235525E+02  0.74470750000E+01 0. -1.
<mgrwt>
<rscale>  0 0.14904900E+02</rscale>
<asrwt>0</asrwt>
<pdfrwt beam="2">  1        2 0.99284357E+00 0.14904900E+02</pdfrwt>
<pdfrwt beam="1">  1       -2 0.98623791E+00 0.14904900E+02</pdfrwt>
<totfact> 0.39256053E-13</totfact>
</mgrwt>
</event>
<event>
 4    1  0.4926183E-019  0.1490265E+02  0.7818608E-02  0.1871054E+00
         -2   -1    0    0    0  501 -0.00000000000E+00  0.00000000000E+00  0.11815602506E+03  0.11815602508E+03  0.25500000000E-02 0.  1.
          2   -1    0    0  501    0  0.00000000000E+00 -0.00000000000E+00 -0.46990263568E+00  0.46990955461E+00  0.25500000000E-02 0. -1.
         31    1    1    2    0    0 -0.21898664530E+00  0.55971492921E-01  0.59723200022E+02  0.60186133244E+02  0.74470750000E+01 0. -1.
        -31    1    1    2    0    0  0.21898664530E+00 -0.55971492921E-01  0.57962922399E+02  0.58439801394E+02  0.74470750000E+01 0.  1.
<mgrwt>
<rscale>  0 0.14902649E+02</rscale>
<asrwt>0</asrwt>
<pdfrwt beam="2">  1        2 0.99796311E+00 0.14902649E+02</pdfrwt>
<pdfrwt beam="1">  1       -2 0.98088223E+00 0.14902649E+02</pdfrwt>
<totfact> 0.67565726E-13</totfact>
</mgrwt>
</event>
<event>
 4    1  0.4926183E-019  0.1491876E+02  0.7818608E-02  0.1870558E+00
         -2   -1    0    0    0  501 -0.00000000000E+00  0.00000000000E+00  0.11844180078E+03  0.11844180081E+03  0.25500000000E-02 0.  1.
          2   -1    0    0  501    0  0.00000000000E+00 -0.00000000000E+00 -0.46978301459E+00  0.46978993529E+00  0.25500000000E-02 0. -1.
         31    1    1    2    0    0 -0.23816429907E-01  0.42011292983E+00  0.58349797515E+02  0.58824610990E+02  0.74470750000E+01 0.  1.
        -31    1    1    2    0    0  0.23816429907E-01 -0.42011292983E+00  0.59622220255E+02  0.60086979757E+02  0.74470750000E+01 0. -1.
<mgrwt>
<rscale>  0 0.14918761E+02</rscale>
<asrwt>0</asrwt>
<pdfrwt beam="2">  1        2 0.99771960E+00 0.14918761E+02</pdfrwt>
<pdfrwt beam="1">  1       -2 0.98324423E+00 0.14918761E+02</pdfrwt>
<totfact> 0.45791456E-13</totfact>
</mgrwt>
</event>
<event>
 4    1  0.4926183E-019  0.1490869E+02  0.7818608E-02  0.1870868E+00
          2   -1    0    0  501    0  0.00000000000E+00  0.00000000000E+00  0.12011870262E+03  0.12011870264E+03  0.25500000000E-02 0.  1.
         -2   -1    0    0    0  501 -0.00000000000E+00 -0.00000000000E+00 -0.46259955075E+00  0.46260657891E+00  0.25500000000E-02 0. -1.
         31    1    1    2    0    0  0.27160260480E+00 -0.11691728584E+00  0.58658238188E+02  0.59129817107E+02  0.74470750000E+01 0. -1.
        -31    1    1    2    0    0 -0.27160260480E+00  0.11691728584E+00  0.60997864876E+02  0.61451492115E+02  0.74470750000E+01 0.  1.
<mgrwt>
<rscale>  0 0.14908693E+02</rscale>
<asrwt>0</asrwt>
<pdfrwt beam="1">  1        2 0.99705063E+00 0.14908693E+02</pdfrwt>
<pdfrwt beam="2">  1       -2 0.98257639E+00 0.14908693E+02</pdfrwt>
<totfact> 0.63657587E-13</totfact>
</mgrwt>
</event>
<event>
 4    1 -0.4926183E-019  0.1503941E+02  0.7818608E-02  0.1866868E+00
         -2   -1    0    0    0  501 -0.00000000000E+00  0.00000000000E+00  0.12042304083E+03  0.12042304086E+03  0.25500000000E-02 0.  1.
          2   -1    0    0  501    0  0.00000000000E+00 -0.00000000000E+00 -0.46955751218E+00  0.46956443620E+00  0.25500000000E-02 0. -1.
         31    1    1    2    0    0  0.18752217207E+00  0.88666108294E+00  0.64120256575E+02  0.64557629772E+02  0.74470750000E+01 0.  1.
        -31    1    1    2    0    0 -0.18752217207E+00 -0.88666108294E+00  0.55833226746E+02  0.56334975525E+02  0.74470750000E+01 0. -1.
<mgrwt>
<rscale>  0 0.15039410E+02</rscale>
<asrwt>0</asrwt>
<pdfrwt beam="2">  1        2 0.99730737E+00 0.15039410E+02</pdfrwt>
<pdfrwt beam="1">  1       -2 0.99962464E+00 0.15039410E+02</pdfrwt>
<totfact>-0.10480473E-14</totfact>
</mgrwt>
</event>
<event>
 4    1  0.4926183E-019  0.1492002E+02  0.7818608E-02  0.1870519E+00
          2   -1    0    0  501    0  0.00000000000E+00  0.00000000000E+00  0.12002926629E+03  0.12002926632E+03  0.25500000000E-02 0.  1.
         -2   -1    0    0    0  501 -0.00000000000E+00 -0.00000000000E+00 -0.46364791066E+00  0.46365492294E+00  0.25500000000E-02 0. -1.
         31    1    1    2    0    0  0.21323837390E+00 -0.34047024786E+00  0.58351160122E+02  0.58825829397E+02  0.74470750000E+01 0. -1.
        -31    1    1    2    0    0 -0.21323837390E+00  0.34047024786E+00  0.61214458257E+02  0.61667091843E+02  0.74470750000E+01 0.  1.
<mgrwt>
<rscale>  0 0.14920019E+02</rscale>
<asrwt>0</asrwt>
<pdfrwt beam="1">  1        2 0.99631978E+00 0.14920019E+02</pdfrwt>
<pdfrwt beam="2">  1       -2 0.98479173E+00 0.14920019E+02</pdfrwt>
<totfact> 0.43252136E-13</totfact>
</mgrwt>
</event>
<event>
 4    1 -0.4926183E-019  0.1498191E+02  0.7818608E-02  0.1868621E+00
          2   -1    0    0  501    0  0.00000000000E+00  0.00000000000E+00  0.11982706614E+03  0.11982706616E+03  0.25500000000E-02 0.  1.
         -2   -1    0    0    0  501 -0.00000000000E+00 -0.00000000000E+00 -0.46829132631E+00  0.46829826905E+00  0.25500000000E-02 0. -1.
         31    1    1    2    0    0  0.53520308283E+00 -0.13231698506E-02  0.54801749763E+02  0.55308020641E+02  0.74470750000E+01 0. -1.
        -31    1    1    2    0    0 -0.53520308283E+00  0.13231698506E-02  0.64557025048E+02  0.64987343792E+02  0.74470750000E+01 0.  1.
<mgrwt>
<rscale>  0 0.14981908E+02</rscale>
<asrwt>0</asrwt>
<pdfrwt beam="1">  1        2 0.99468624E+00 0.14981908E+02</pdfrwt>
<pdfrwt beam="2">  1       -2 0.99460938E+00 0.14981908E+02</pdfrwt>
<totfact>-0.12324982E-13</totfact>
</mgrwt>
</event>
<event>
 4    1 -0.4926183E-019  0.1495450E+02  0.7818608E-02  0.1869460E+00
          2   -1    0    0  501    0  0.00000000000E+00  0.00000000000E+00  0.11886911727E+03  0.11886911730E+03  0.25500000000E-02 0. -1.
         -2   -1    0    0    0  501 -0.00000000000E+00 -0.00000000000E+00 -0.47033984501E+00  0.47034675751E+00  0.25500000000E-02 0.  1.
         31    1    1    2    0    0  0.13752567688E+00  0.65650379318E+00  0.59370487435E+02  0.59839482074E+02  0.74470750000E+01 0. -1.
        -31    1    1    2    0    0 -0.13752567688E+00 -0.65650379318E+00  0.59028289990E+02  0.59499981981E+02  0.74470750000E+01 0. -1.
<mgrwt>
<rscale>  0 0.14954504E+02</rscale>
<asrwt>0</asrwt>
<pdfrwt beam="1">  1        2 0.98678219E+00 0.14954504E+02</pdfrwt>
<pdfrwt beam="2">  1       -2 0.99891170E+00 0.14954504E+02</pdfrwt>
<totfact>-0.92590638E-14</totfact>
</mgrwt>
</event>
<event>
 4    1  0.4926183E-019  0.1490451E+02  0.7818608E-02  0.1870997E+00
         -2   -1    0    0    0  501 -0.00000000000E+00  0.00000000000E+00  0.11881376711E+03  0.11881376714E+03  0.25500000000E-02 0.  1.
          2   -1    0    0  501    0  0.00000000000E+00 -0.00000000000E+00 -0.46741780633E+00  0.46742476205E+00  0.25500000000E-02 0. -1.
         31    1    1    2    0    0  0.22654399300E+00 -0.12987602505E+00  0.58415171597E+02  0.58888533593E+02  0.74470750000E+01 0.  1.
        -31    1    1    2    0    0 -0.22654399300E+00  0.12987602505E+00  0.59931177709E+02  0.60392658309E+02  0.74470750000E+01 0.  1.
<mgrwt>
<rscale>  0 0.14904508E+02</rscale>
<asrwt>0</asrwt>
<pdfrwt beam="2">  1        2 0.99272844E+00 0.14904508E+02</pdfrwt>
<pdfrwt beam="1">  1       -2 0.98630035E+00 0.14904508E+02</pdfrwt>
<totfact> 0.38718182E-13</totfact>
</mgrwt>
</event>
<event>
 4    1 -0.4926183E-019  0.1490459E+02  0.7818608E-02  0.1870994E+00
         -2   -1    0    0    0  501 -0.00000000000E+00  0.00000000000E+00  0.11990696811E+03  0.11990696814E+03  0.25500000000E-02 0. -1.
          2   -1    0    0  501    0  0.00000000000E+00 -0.00000000000E+00 -0.46316106894E+00  0.46316808859E+00  0.25500000000E-02 0.  1.
         31    1    1    2    0    0  0.82337028476E-01 -0.23889834349E+00  0.60673568092E+02  0.61129408985E+02  0.74470750000E+01 0. -1.
        -31    1    1    2    0    0 -0.82337028476E-01  0.23889834349E+00  0.58770238951E+02  0.59240727242E+02  0.74470750000E+01 0.  1.
<mgrwt>
<rscale>  0 0.14904585E+02</rscale>
<asrwt>0</asrwt>
<pdfrwt beam="2">  1        2 0.98375781E+00 0.14904585E+02</pdfrwt>
<pdfrwt beam="1">  1       -2 0.99530451E+00 0.14904585E+02</pdfrwt>
<totfact>-0.42181866E-13</totfact>
</mgrwt>
</event>
<event>
 4    1  0.4926183E-019  0.1491716E+02  0.7818608E-02  0.1870607E+00
         -2   -1    0    0    0  501 -0.00000000000E+00  0.00000000000E+00  0.11856455529E+03  0.11856455532E+03  0.25500000000E-02 0.  1.
          2   -1    0    0  501    0  0.00000000000E+00 -0.00000000000E+00 -0.46919588746E+00  0.46920281682E+00  0.25500000000E-02 0. -1.
         31    1    1    2    0    0  0.40482878194E+00 -0.86124824640E-01  0.58938879628E+02  0.59408936716E+02  0.74470750000E+01 0.  1.
        -31    1    1    2    0    0 -0.40482878194E+00  0.86124824640E-01  0.59156479778E+02  0.59624821422E+02  0.74470750000E+01 0.  1.
<mgrwt>
<rscale>  0 0.14917160E+02</rscale>
<asrwt>0</asrwt>
<pdfrwt beam="2">  1        2 0.99648168E+00 0.14917160E+02</pdfrwt>
<pdfrwt beam="1">  1       -2 0.98425440E+00 0.14917160E+02</pdfrwt>
<totfact> 0.48483008E-13</totfact>
</mgrwt>
</event>
<event>
 4    1 -0.4926183E-019  0.1497481E+02  0.7818608E-02  0.1868838E+00
         -2   -1    0    0    0  501 -0.00000000000E+00  0.00000000000E+00  0.12042638102E+03  0.12042638104E+03  0.25500000000E-02 0. -1.
          2   -1    0    0  501    0  0.00000000000E+00 -0.00000000000E+00 -0.46551903485E+00  0.46552601894E+00  0.25500000000E-02 0.  1.
         31    1    1    2    0    0  0.42960441410E-01  0.74138201665E+00  0.58161267533E+02  0.58640800302E+02  0.74470750000E+01 0.  1.
        -31    1    1    2    0    0 -0.42960441410E-01 -0.74138201665E+00  0.61799594447E+02  0.62251106760E+02  0.74470750000E+01 0.  1.
<mgrwt>
<rscale>  0 0.14974805E+02</rscale>
<asrwt>0</asrwt>
<pdfrwt beam="2">  1        2 0.98876319E+00 0.14974805E+02</pdfrwt>
<pdfrwt beam="1">  1       -2 0.99961887E+00 0.14974805E+02</pdfrwt>
<totfact>-0.26463702E-14</totfact>
</mgrwt>
</event>
<event>
 4    1 -0.4926183E-019  0.1491409E+02  0.7818608E-02  0.1870702E+00
         -2   -1    0    0    0  501 -0.00000000000E+00  0.00000000000E+00  0.11965120519E+03  0.11965120522E+03  0.25500000000E-02 0. -1.
          2   -1    0    0  501    0  0.00000000000E+00 -0.00000000000E+00 -0.46474318887E+00  0.46475018462E+00  0.25500000000E-02 0.  1.
         31    1    1    2    0    0  0.13858519274E+00  0.27609723175E+00  0.57736596595E+02  0.58215710491E+02  0.74470750000E+01 0.  1.
        -31    1    1    2    0    0 -0.13858519274E+00 -0.27609723175E+00  0.61449865409E+02  0.61900244914E+02  0.74470750000E+01 0. -1.
<mgrwt>
<rscale>  0 0.14914088E+02</rscale>
<asrwt>0</asrwt>
<pdfrwt beam="2">  1        2 0.98709707E+00 0.14914088E+02</pdfrwt>
<pdfrwt beam="1">  1       -2 0.99320276E+00 0.14914088E+02</pdfrwt>
<totfact>-0.22632956E-13</totfact>
</mgrwt>
</event>
<event>
 4    1 -0.4926183E-019  0.1494128E+02  0.7818608E-02  0.1869866E+00
         -2   -1    0    0    0  501 -0.00000000000E+00  0.00000000000E+00  0.12037097476E+03  0.12037097479E+03  0.25500000000E-02 0. -1.
          2   -1    0    0  501    0  0.00000000000E+00 -0.00000000000E+00 -0.46365024736E+00  0.46365725960E+00  0.25500000000E-02 0.  1.
         31    1    1    2    0    0 -0.58263453035E+00  0.10937724723E+00  0.60036565039E+02  0.60499582594E+02  0.74470750000E+01 0. -1.
        -31    1    1    2    0    0  0.58263453035E+00 -0.10937724723E+00  0.59870759477E+02  0.60335049456E+02  0.74470750000E+01 0.  1.
<mgrwt>
<rscale>  0 0.14941279E+02</rscale>
<asrwt>0</asrwt>
<pdfrwt beam="2">  1        2 0.98480743E+00 0.14941279E+02</pdfrwt>
<pdfrwt beam="1">  1       -2 0.99914528E+00 0.14941279E+02</pdfrwt>
<totfact>-0.10070101E-13</totfact>
</mgrwt>
</event>
<event>
 4    1 -0.4926183E-019  0.1500678E+02  0.7818608E-02  0.1867862E+00
          2   -1    0    0  501    0  0.00000000000E+00  0.00000000000E+00  0.11977442616E+03  0.11977442618E+03  0.25500000000E-02 0.  1.
         -2   -1    0    0    0  501 -0.00000000000E+00 -0.00000000000E+00 -0.47005415759E+00  0.47006107429E+00  0.25500000000E-02 0. -1.
         31    1    1    2    0    0  0.45804247495E+00  0.30199632702E+00  0.53758898521E+02  0.54275032022E+02  0.74470750000E+01 0. -1.
        -31    1    1    2    0    0 -0.45804247495E+00 -0.30199632702E+00  0.65545473478E+02  0.65969455236E+02  0.74470750000E+01 0.  1.
<mgrwt>
<rscale>  0 0.15006783E+02</rscale>
<asrwt>0</asrwt>
<pdfrwt beam="1">  1        2 0.99426555E+00 0.15006783E+02</pdfrwt>
<pdfrwt beam="2">  1       -2 0.99833708E+00 0.15006783E+02</pdfrwt>
<totfact>-0.65220767E-14</totfact>
</mgrwt>
</event>
<event>
 4    1  0.4926183E-019  0.1492209E+02  0.7818608E-02  0.1870455E+00
         -2   -1    0    0    0  501 -0.00000000000E+00  0.00000000000E+00  0.11908344308E+03  0.11908344310E+03  0.25500000000E-02 0.  1.
          2   -1    0    0  501    0  0.00000000000E+00 -0.00000000000E+00 -0.46746003174E+00  0.46746698683E+00  0.25500000000E-02 0. -1.
         31    1    1    2    0    0  0.44235051614E+00 -0.71362891525E-01  0.58615328652E+02  0.59088209025E+02  0.74470750000E+01 0. -1.
        -31    1    1    2    0    0 -0.44235051614E+00  0.71362891525E-01  0.60000654391E+02  0.60462701065E+02  0.74470750000E+01 0.  1.
<mgrwt>
<rscale>  0 0.14922087E+02</rscale>
<asrwt>0</asrwt>
<pdfrwt beam="2">  1        2 0.99282658E+00 0.14922087E+02</pdfrwt>
<pdfrwt beam="1">  1       -2 0.98853057E+00 0.14922087E+02</pdfrwt>
<totfact> 0.12860623E-13</totfact>
</mgrwt>
</event>
<event>
 4    1  0.4926183E-019  0.1493688E+02  0.7818608E-02  0.1870001E+00
          2   -1    0    0  501    0  0.00000000000E+00  0.00000000000E+00  0.12017285898E+03  0.12017285901E+03  0.25500000000E-02 0.  1.
         -2   -1    0    0    0  501 -0.00000000000E+00 -0.00000000000E+00 -0.46414114144E+00  0.46414814626E+00  0.25500000000E-02 0. -1.
         31    1    1    2    0    0  0.37038932168E+00 -0.26892867072E+00  0.57186008878E+02  0.57670686214E+02  0.74470750000E+01 0. -1.
        -31    1    1    2    0    0 -0.37038932168E+00  0.26892867072E+00  0.62522708961E+02  0.62966320940E+02  0.74470750000E+01 0.  1.
<mgrwt>
<rscale>  0 0.14936879E+02</rscale>
<asrwt>0</asrwt>
<pdfrwt beam="1">  1        2 0.99751118E+00 0.14936879E+02</pdfrwt>
<pdfrwt beam="2">  1       -2 0.98583984E+00 0.14936879E+02</pdfrwt>
<totfact> 0.24350450E-13</totfact>
</mgrwt>
</event>
<event>
 4    1 -0.4926183E-019  0.1490615E+02  0.7818608E-02  0.1870946E+00
          2   -1    0    0  501    0  0.00000000000E+00  0.00000000000E+00  0.11828977737E+03  0.11828977740E+03  0.25500000000E-02 0.  1.
         -2   -1    0    0    0  501 -0.00000000000E+00 -0.00000000000E+00 -0.46959198845E+00  0.46959891197E+00  0.25500000000E-02 0. -1.
         31    1    1    2    0    0  0.17429953163E+00 -0.22995587115E+00  0.59535319361E+02  0.59999970312E+02  0.74470750000E+01 0. -1.
        -31    1    1    2    0    0 -0.17429953163E+00  0.22995587115E+00  0.58284866025E+02  0.58759406001E+02  0.74470750000E+01 0. -1.
<mgrwt>
<rscale>  0 0.14906152E+02</rscale>
<asrwt>0</asrwt>
<pdfrwt beam="1">  1        2 0.98198562E+00 0.14906152E+02</pdfrwt>
<pdfrwt beam="2">  1       -2 0.99731045E+00 0.14906152E+02</pdfrwt>
<totfact>-0.42759401E-13</totfact>
</mgrwt>
</event>
<event>
 4    1  0.4926183E-019  0.1491868E+02  0.7818608E-02  0.1870560E+00
          2   -1    0    0  501    0  0.00000000000E+00  0.00000000000E+00  0.12023241254E+03  0.12023241257E+03  0.25500000000E-02 0.  1.
         -2   -1    0    0    0  501 -0.00000000000E+00 -0.00000000000E+00 -0.46278145663E+00  0.46278848203E+00  0.25500000000E-02 0. -1.
         31    1    1    2    0    0  0.21896045744E+00  0.36470760387E+00  0.59534477526E+02  0.59999949130E+02  0.74470750000E+01 0. -1.
        -31    1    1    2    0    0 -0.21896045744E+00 -0.36470760387E+00  0.60235153558E+02  0.60695251919E+02  0.74470750000E+01 0. -1.
<mgrwt>
<rscale>  0 0.14918680E+02</rscale>
<asrwt>0</asrwt>
<pdfrwt beam="1">  1        2 0.99799237E+00 0.14918680E+02</pdfrwt>
<pdfrwt beam="2">  1       -2 0.98296485E+00 0.14918680E+02</pdfrwt>
<totfact> 0.44208538E-13</totfact>
</mgrwt>
</event>
<event>
 4    1 -0.4926183E-019  0.1491595E+02  0.7818608E-02  0.1870644E+00
          2   -1    0    0  501    0  0.00000000000E+00  0.00000000000E+00  0.11833082636E+03  0.11833082639E+03  0.25500000000E-02 0. -1.
         -2   -1    0    0    0  501 -0.00000000000E+00 -0.00000000000E+00 -0.47004650812E+00  0.47005342494E+00  0.25500000000E-02 0.  1.
         31    1    1    2    0    0 -0.31261111478E+00  0.31401632323E-01  0.56919146493E+02  0.57405111927E+02  0.74470750000E+01 0.  1.
        -31    1    1    2    0    0  0.31261111478E+00 -0.31401632323E-01  0.60941633360E+02  0.61395767887E+02  0.74470750000E+01 0.  1.
<mgrwt>
<rscale>  0 0.14915952E+02</rscale>
<asrwt>0</asrwt>
<pdfrwt beam="1">  1        2 0.98232880E+00 0.14915952E+02</pdfrwt>
<pdfrwt beam="2">  1       -2 0.99827329E+00 0.14915952E+02</pdfrwt>
<totfact>-0.28565571E-13</totfact>
</mgrwt>
</event>
<event>
 4    1  0.4926183E-019  0.1495197E+02  0.7818608E-02  0.1869538E+00
          2   -1    0    0  501    0  0.00000000000E+00  0.00000000000E+00  0.12028288137E+03  0.12028288140E+03  0.25500000000E-02 0.  1.
         -2   -1    0    0    0  501 -0.00000000000E+00 -0.00000000000E+00 -0.46465391998E+00  0.46466091707E+00  0.25500000000E-02 0. -1.
         31    1    1    2    0    0  0.39640134298E+00 -0.49227424846E+00  0.61352437174E+02  0.61805986289E+02  0.74470750000E+01 0. -1.
        -31    1    1    2    0    0 -0.39640134298E+00  0.49227424846E+00  0.58465790280E+02  0.58941556029E+02  0.74470750000E+01 0. -1.
<mgrwt>
<rscale>  0 0.14951968E+02</rscale>
<asrwt>0</asrwt>
<pdfrwt beam="1">  1        2 0.99842516E+00 0.14951968E+02</pdfrwt>
<pdfrwt beam="2">  1       -2 0.98692825E+00 0.14951968E+02</pdfrwt>
<totfact> 0.11476906E-13</totfact>
</mgrwt>
</event>
<event>
 4    1 -0.4926183E-019  0.1499559E+02  0.7818608E-02  0.1868203E+00
          2   -1    0    0  501    0  0.00000000000E+00  0.00000000000E+00  0.12028577178E+03  0.12028577180E+03  0.25500000000E-02 0. -1.
         -2   -1    0    0    0  501 -0.00000000000E+00 -0.00000000000E+00 -0.46735807898E+00  0.46736503558E+00  0.25500000000E-02 0.  1.
         31    1    1    2    0    0  0.10922836406E+00 -0.83430830400E+00  0.58108206758E+02  0.58589509469E+02  0.74470750000E+01 0.  1.
        -31    1    1    2    0    0 -0.10922836406E+00  0.83430830400E+00  0.61710206938E+02  0.62163627369E+02  0.74470750000E+01 0.  1.
<mgrwt>
<rscale>  0 0.14995593E+02</rscale>
<asrwt>0</asrwt>
<pdfrwt beam="1">  1        2 0.99847142E+00 0.14995593E+02</pdfrwt>
<pdfrwt beam="2">  1       -2 0.99264968E+00 0.14995593E+02</pdfrwt>
<totfact>-0.42523226E-14</totfact>
</mgrwt>
</event>
<event>
 4    1  0.4926183E-019  0.1490542E+02  0.7818608E-02  0.1870968E+00
         -2   -1    0    0    0  501 -0.00000000000E+00  0.00000000000E+00  0.11831465970E+03  0.11831465973E+03  0.25500000000E-02 0. -1.
          2   -1    0    0  501    0  0.00000000000E+00 -0.00000000000E+00 -0.46944717380E+00  0.46945409945E+00  0.25500000000E-02 0.  1.
         31    1    1    2    0    0  0.97138891485E-01  0.25475638026E+00  0.59704754602E+02  0.60168022943E+02  0.74470750000E+01 0. -1.
        -31    1    1    2    0    0 -0.97138891485E-01 -0.25475638026E+00  0.58140457927E+02  0.58616090886E+02  0.74470750000E+01 0.  1.
<mgrwt>
<rscale>  0 0.14905421E+02</rscale>
<asrwt>0</asrwt>
<pdfrwt beam="2">  1        2 0.99700494E+00 0.14905421E+02</pdfrwt>
<pdfrwt beam="1">  1       -2 0.98219016E+00 0.14905421E+02</pdfrwt>
<totfact> 0.69661376E-13</totfact>
</mgrwt>
</event>
<event>
 4    1  0.4926183E-019  0.1489854E+02  0.7818608E-02  0.1871180E+00
         -2   -1    0    0    0  501 -0.00000000000E+00  0.00000000000E+00  0.11801994279E+03  0.11801994282E+03  0.25500000000E-02 0. -1.
          2   -1    0    0  501    0  0.00000000000E+00 -0.00000000000E+00 -0.47018504568E+00  0.47019196046E+00  0.25500000000E-02 0.  1.
         31    1    1    2    0    0  0.14526139665E+00  0.74312343227E-02  0.57920468374E+02  0.58397437776E+02  0.74470750000E+01 0.  1.
        -31    1    1    2    0    0 -0.14526139665E+00 -0.74312343227E-02  0.59629289372E+02  0.60092697003E+02  0.74470750000E+01 0. -1.
<mgrwt>
<rscale>  0 0.14898540E+02</rscale>
<asrwt>0</asrwt>
<pdfrwt beam="2">  1        2 0.99855593E+00 0.14898540E+02</pdfrwt>
<pdfrwt beam="1">  1       -2 0.97975934E+00 0.14898540E+02</pdfrwt>
<totfact> 0.62104771E-13</totfact>
</mgrwt>
</event>
<event>
 4    1 -0.4926183E-019  0.1492724E+02  0.7818608E-02  0.1870297E+00
          2   -1    0    0  501    0  0.00000000000E+00  0.00000000000E+00  0.11864534076E+03  0.11864534079E+03  0.25500000000E-02 0. -1.
         -2   -1    0    0    0  501 -0.00000000000E+00 -0.00000000000E+00 -0.46951013723E+00  0.46951706195E+00  0.25500000000E-02 0.  1.
         31    1    1    2    0    0 -0.33515207995E+00 -0.14136067675E+00  0.56389308379E+02  0.56880096126E+02  0.74470750000E+01 0.  1.
        -31    1    1    2    0    0  0.33515207995E+00  0.14136067675E+00  0.61786522244E+02  0.62234761724E+02  0.74470750000E+01 0. -1.
<mgrwt>
<rscale>  0 0.14927237E+02</rscale>
<asrwt>0</asrwt>
<pdfrwt beam="1">  1        2 0.98492499E+00 0.14927237E+02</pdfrwt>
<pdfrwt beam="2">  1       -2 0.99714912E+00 0.14927237E+02</pdfrwt>
<totfact>-0.27209763E-13</totfact>
</mgrwt>
</event>
<event>
 4    1 -0.4926183E-019  0.1497680E+02  0.7818608E-02  0.1868777E+00
         -2   -1    0    0    0  501 -0.00000000000E+00  0.00000000000E+00  0.11950020777E+03  0.11950020780E+03  0.25500000000E-02 0.  1.
          2   -1    0    0  501    0  0.00000000000E+00 -0.00000000000E+00 -0.46925233908E+00  0.46925926760E+00  0.25500000000E-02 0. -1.
         31    1    1    2    0    0 -0.63638574547E-01 -0.34987558749E+00  0.53903768332E+02  0.54416924107E+02  0.74470750000E+01 0. -1.
        -31    1    1    2    0    0  0.63638574547E-01  0.34987558749E+00  0.65127187100E+02  0.65552542959E+02  0.74470750000E+01 0.  1.
<mgrwt>
<rscale>  0 0.14976805E+02</rscale>
<asrwt>0</asrwt>
<pdfrwt beam="2">  1        2 0.99663186E+00 0.14976805E+02</pdfrwt>
<pdfrwt beam="1">  1       -2 0.99199149E+00 0.14976805E+02</pdfrwt>
<totfact>-0.62529353E-14</totfact>
</mgrwt>
</event>
<event>
 4    1  0.4926183E-019  0.1493134E+02  0.7818608E-02  0.1870171E+00
          2   -1    0    0  501    0  0.00000000000E+00  0.00000000000E+00  0.11971215821E+03  0.11971215824E+03  0.25500000000E-02 0. -1.
         -2   -1    0    0    0  501 -0.00000000000E+00 -0.00000000000E+00 -0.46558159021E+00  0.46558857336E+00  0.25500000000E-02 0.  1.
         31    1    1    2    0    0 -0.28160046235E+00 -0.41892288142E+00  0.60829974344E+02  0.61286209704E+02  0.74470750000E+01 0. -1.
        -31    1    1    2    0    0  0.28160046235E+00  0.41892288142E+00  0.58416602276E+02  0.58891537106E+02  0.74470750000E+01 0. -1.
<mgrwt>
<rscale>  0 0.14931336E+02</rscale>
<asrwt>0</asrwt>
<pdfrwt beam="1">  1        2 0.99371369E+00 0.14931336E+02</pdfrwt>
<pdfrwt beam="2">  1       -2 0.98887282E+00 0.14931336E+02</pdfrwt>
<totfact> 0.91428626E-14</totfact>
</mgrwt>
</event>
<event>
 4    1 -0.4926183E-019  0.1494116E+02  0.7818608E-02  0.1869869E+00
         -2   -1    0    0    0  501 -0.00000000000E+00  0.00000000000E+00  0.11988719824E+03  0.11988719827E+03  0.25500000000E-02 0.  1.
          2   -1    0    0  501    0  0.00000000000E+00 -0.00000000000E+00 -0.46551396399E+00  0.46552094816E+00  0.25500000000E-02 0. -1.
         31    1    1    2    0    0 -0.91306690486E-02 -0.31576685611E+00  0.63745388566E+02  0.64179695243E+02  0.74470750000E+01 0.  1.
        -31    1    1    2    0    0  0.91306690486E-02  0.31576685611E+00  0.55676295709E+02  0.56173023971E+02  0.74470750000E+01 0. -1.
<mgrwt>
<rscale>  0 0.14941163E+02</rscale>
<asrwt>0</asrwt>
<pdfrwt beam="2">  1        2 0.98873534E+00 0.14941163E+02</pdfrwt>
<pdfrwt beam="1">  1       -2 0.99516049E+00 0.14941163E+02</pdfrwt>
<totfact>-0.20313874E-13</totfact>
</mgrwt>
</event>
<event>
 4    1  0.4926183E-019  0.1493623E+02  0.7818608E-02  0.1870021E+00
         -2   -1    0    0    0  501 -0.00000000000E+00  0.00000000000E+00  0.11873876699E+03  0.11873876702E+03  0.25500000000E-02 0.  1.
          2   -1    0    0  501    0  0.00000000000E+00 -0.00000000000E+00 -0.46970599795E+00  0.46971291979E+00  0.25500000000E-02 0. -1.
         31    1    1    2    0    0 -0.85555640821E-01  0.12550888945E+00  0.63437902216E+02  0.63873699093E+02  0.74470750000E+01 0.  1.
        -31    1    1    2    0    0  0.85555640821E-01 -0.12550888945E+00  0.54831158775E+02  0.55334780842E+02  0.74470750000E+01 0. -1.
<mgrwt>
<rscale>  0 0.14936228E+02</rscale>
<asrwt>0</asrwt>
<pdfrwt beam="2">  1        2 0.99756654E+00 0.14936228E+02</pdfrwt>
<pdfrwt beam="1">  1       -2 0.98569912E+00 0.14936228E+02</pdfrwt>
<totfact> 0.25060318E-13</totfact>
</mgrwt>
</event>
<event>
 4    1 -0.4926183E-019  0.1496238E+02  0.7818608E-02  0.1869219E+00
          2   -1    0    0  501    0  0.00000000000E+00  0.00000000000E+00  0.11944057836E+03  0.11944057839E+03  0.25500000000E-02 0. -1.
         -2   -1    0    0    0  501 -0.00000000000E+00 -0.00000000000E+00 -0.46858239092E+00  0.46858932935E+00  0.25500000000E-02 0.  1.
         31    1    1    2    0    0 -0.15366495751E+00  0.49963958976E-01  0.53915607280E+02  0.54427729548E+02  0.74470750000E+01 0.  1.
        -31    1    1    2    0    0  0.15366495751E+00 -0.49963958976E-01  0.65056388693E+02  0.65481438173E+02  0.74470750000E+01 0. -1.
<mgrwt>
<rscale>  0 0.14962375E+02</rscale>
<asrwt>0</asrwt>
<pdfrwt beam="1">  1        2 0.99149289E+00 0.14962375E+02</pdfrwt>
<pdfrwt beam="2">  1       -2 0.99521261E+00 0.14962375E+02</pdfrwt>
<totfact>-0.15619665E-13</totfact>
</mgrwt>
</event>
<event>
 4    1 -0.4926183E-019  0.1497186E+02  0.7818608E-02  0.1868928E+00
         -2   -1    0    0    0  501 -0.00000000000E+00  0.00000000000E+00  0.12019793015E+03  0.12019793018E+03  0.25500000000E-02 0. -1.
          2   -1    0    0  501    0  0.00000000000E+00 -0.00000000000E+00 -0.46622064477E+00  0.46622761835E+00  0.25500000000E-02 0.  1.
         31    1    1    2    0    0  0.29329895225E+00  0.61884090946E+00  0.57177536819E+02  0.57664535298E+02  0.74470750000E+01 0.  1.
        -31    1    1    2    0    0 -0.29329895225E+00 -0.61884090946E+00  0.62554172684E+02  0.62999622496E+02  0.74470750000E+01 0.  1.
<mgrwt>
<rscale>  0 0.14971864E+02</rscale>
<asrwt>0</asrwt>
<pdfrwt beam="2">  1        2 0.99024039E+00 0.14971864E+02</pdfrwt>
<pdfrwt beam="1">  1       -2 0.99773568E+00 0.14971864E+02</pdfrwt>
<totfact>-0.11443452E-13</totfact>
</mgrwt>
</event>
<event>
 4    1 -0.4926183E-019  0.1495548E+02  0.7818608E-02  0.1869430E+00
          2   -1    0    0  501    0  0.00000000000E+00  0.00000000000E+00  0.11954430037E+03  0.11954430040E+03  0.25500000000E-02 0. -1.
         -2   -1    0    0    0  501 -0.00000000000E+00 -0.00000000000E+00 -0.46774438778E+00  0.46775133864E+00  0.25500000000E-02 0.  1.
         31    1    1    2    0    0 -0.59554254946E+00  0.32017275285E+00  0.59361237174E+02  0.59830365087E+02  0.74470750000E+01 0.  1.
        -31    1    1    2    0    0  0.59554254946E+00 -0.32017275285E+00  0.59715318811E+02  0.60181686652E+02  0.74470750000E+01 0. -1.
<mgrwt>
<rscale>  0 0.14955480E+02</rscale>
<asrwt>0</asrwt>
<pdfrwt beam="1">  1        2 0.99234361E+00 0.14955480E+02</pdfrwt>
<pdfrwt beam="2">  1       -2 0.99344313E+00 0.14955480E+02</pdfrwt>
<totfact>-0.13704276E-13</totfact>
</mgrwt>
</event>
<event>
 4    1 -0.4926183E-019  0.1492276E+02  0.7818608E-02  0.1870435E+00
          2   -1    0    0  501    0  0.00000000000E+00  0.00000000000E+00  0.11838740332E+03  0.11838740335E+03  0.25500000000E-02 0.  1.
         -2   -1    0    0    0  501 -0.00000000000E+00 -0.00000000000E+00 -0.47025117857E+00  0.47025809237E+00  0.25500000000E-02 0. -1.
         31    1    1    2    0    0 -0.48041600323E-01 -0.45925718627E+00  0.58888576909E+02  0.59359385454E+02  0.74470750000E+01 0. -1.
        -31    1    1    2    0    0  0.48041600323E-01  0.45925718627E+00  0.59028575237E+02  0.59498275989E+02  0.74470750000E+01 0.  1.
<mgrwt>
<rscale>  0 0.14922765E+02</rscale>
<asrwt>0</asrwt>
<pdfrwt beam="1">  1        2 0.98279831E+00 0.14922765E+02</pdfrwt>
<pdfrwt beam="2">  1       -2 0.99870812E+00 0.14922765E+02</pdfrwt>
<totfact>-0.20527045E-13</totfact>
</mgrwt>
</event>
<event>
 4    1  0.4926183E-019  0.1490989E+02  0.7818608E-02  0.1870831E+00
          2   -1    0    0  501    0  0.00000000000E+00  0.00000000000E+00  0.11968599299E+03  0.11968599302E+03  0.25500000000E-02 0. -1.
         -2   -1    0    0    0  501 -0.00000000000E+00 -0.00000000000E+00 -0.46434666976E+00  0.46435367148E+00  0.25500000000E-02 0.  1.
         31    1    1    2    0    0 -0.43154088146E-01 -0.20834283787E+00  0.57448226830E+02  0.57929292771E+02  0.74470750000E+01 0.  1.
        -31    1    1    2    0    0  0.43154088146E-01  0.20834283787E+00  0.61773419489E+02  0.62221053916E+02  0.74470750000E+01 0. -1.
<mgrwt>
<rscale>  0 0.14909891E+02</rscale>
<asrwt>0</asrwt>
<pdfrwt beam="1">  1        2 0.99348713E+00 0.14909891E+02</pdfrwt>
<pdfrwt beam="2">  1       -2 0.98625925E+00 0.14909891E+02</pdfrwt>
<totfact> 0.37175143E-13</totfact>
</mgrwt>
</event>
<event>
 4    1 -0.4926183E-019  0.1498344E+02  0.7818608E-02  0.1868574E+00
         -2   -1    0    0    0  501 -0.00000000000E+00  0.00000000000E+00  0.12018801750E+03  0.12018801753E+03  0.25500000000E-02 0.  1.
          2   -1    0    0  501    0  0.00000000000E+00 -0.00000000000E+00 -0.46698047990E+00  0.46698744213E+00  0.25500000000E-02 0. -1.
         31    1    1    2    0    0 -0.13204513623E+00 -0.79571346095E+00  0.58830614163E+02  0.59305570436E+02  0.74470750000E+01 0.  1.
        -31    1    1    2    0    0  0.13204513623E+00  0.79571346095E+00  0.60890422859E+02  0.61349434535E+02  0.74470750000E+01 0. -1.
<mgrwt>
<rscale>  0 0.14983441E+02</rscale>
<asrwt>0</asrwt>
<pdfrwt beam="2">  1        2 0.99184767E+00 0.14983441E+02</pdfrwt>
<pdfrwt beam="1">  1       -2 0.99766000E+00 0.14983441E+02</pdfrwt>
<totfact>-0.10287913E-13</totfact>
</mgrwt>
</event>
<event>
 4    1 -0.4926183E-019  0.1499236E+02  0.7818608E-02  0.1868302E+00
         -2   -1    0    0    0  501 -0.00000000000E+00  0.00000000000E+00  0.12017840046E+03  0.12017840048E+03  0.25500000000E-02 0.  1.
          2   -1    0    0  501    0  0.00000000000E+00 -0.00000000000E+00 -0.46757408243E+00  0.46758103582E+00  0.25500000000E-02 0. -1.
         31    1    1    2    0    0  0.65474724173E+00  0.44323974300E+00  0.57202961162E+02  0.57691098509E+02  0.74470750000E+01 0. -1.
        -31    1    1    2    0    0 -0.65474724173E+00 -0.44323974300E+00  0.62507865210E+02  0.62954883009E+02  0.74470750000E+01 0. -1.
<mgrwt>
<rscale>  0 0.14992362E+02</rscale>
<asrwt>0</asrwt>
<pdfrwt beam="2">  1        2 0.99310324E+00 0.14992362E+02</pdfrwt>
<pdfrwt beam="1">  1       -2 0.99758539E+00 0.14992362E+02</pdfrwt>
<totfact>-0.96216319E-14</totfact>
</mgrwt>
</event>
<event>
 4    1 -0.4926183E-019  0.1489858E+02  0.7818608E-02  0.1871179E+00
          2   -1    0    0  501    0  0.00000000000E+00  0.00000000000E+00  0.11808325198E+03  0.11808325201E+03  0.25500000000E-02 0. -1.
         -2   -1    0    0    0  501 -0.00000000000E+00 -0.00000000000E+00 -0.46993550772E+00  0.46994242618E+00  0.25500000000E-02 0.  1.
         31    1    1    2    0    0  0.76462546510E-01 -0.15665286987E+00  0.58399975591E+02  0.58873138711E+02  0.74470750000E+01 0.  1.
        -31    1    1    2    0    0 -0.76462546510E-01  0.15665286987E+00  0.59213340880E+02  0.59680055721E+02  0.74470750000E+01 0.  1.
<mgrwt>
<rscale>  0 0.14898580E+02</rscale>
<asrwt>0</asrwt>
<pdfrwt beam="1">  1        2 0.98028076E+00 0.14898580E+02</pdfrwt>
<pdfrwt beam="2">  1       -2 0.99803020E+00 0.14898580E+02</pdfrwt>
<totfact>-0.44864671E-13</totfact>
</mgrwt>
</event>
<event>
 4    1 -0.4926183E-019  0.1496475E+02  0.7818608E-02  0.1869146E+00
          2   -1    0    0  501    0  0.00000000000E+00  0.00000000000E+00  0.11915901407E+03  0.11915901410E+03  0.25500000000E-02 0. -1.
         -2   -1    0    0    0  501 -0.00000000000E+00 -0.00000000000E+00 -0.46983859298E+00  0.46984551286E+00  0.25500000000E-02 0.  1.
         31    1    1    2    0    0  0.81152674820E-01 -0.59753353161E+00  0.62575615174E+02  0.63020077535E+02  0.74470750000E+01 0. -1.
        -31    1    1    2    0    0 -0.81152674820E-01  0.59753353161E+00  0.56113560306E+02  0.56608782078E+02  0.74470750000E+01 0.  1.
<mgrwt>
<rscale>  0 0.14964748E+02</rscale>
<asrwt>0</asrwt>
<pdfrwt beam="1">  1        2 0.98917511E+00 0.14964748E+02</pdfrwt>
<pdfrwt beam="2">  1       -2 0.99786090E+00 0.14964748E+02</pdfrwt>
<totfact>-0.12179462E-13</totfact>
</mgrwt>
</event>
<event>
 4    1  0.4926183E-019  0.1491141E+02  0.7818608E-02  0.1870784E+00
         -2   -1    0    0    0  501 -0.00000000000E+00  0.00000000000E+00  0.11842435505E+03  0.11842435508E+03  0.25500000000E-02 0. -1.
          2   -1    0    0  501    0  0.00000000000E+00 -0.00000000000E+00 -0.46938932616E+00  0.46939625266E+00  0.25500000000E-02 0.  1.
         31    1    1    2    0    0  0.24337272902E+00  0.19117420886E-01  0.56882757351E+02  0.57368690116E+02  0.74470750000E+01 0.  1.
        -31    1    1    2    0    0 -0.24337272902E+00 -0.19117420886E-01  0.61072208372E+02  0.61525061212E+02  0.74470750000E+01 0. -1.
<mgrwt>
<rscale>  0 0.14911411E+02</rscale>
<asrwt>0</asrwt>
<pdfrwt beam="2">  1        2 0.99688622E+00 0.14911411E+02</pdfrwt>
<pdfrwt beam="1">  1       -2 0.98309672E+00 0.14911411E+02</pdfrwt>
<totfact> 0.58997460E-13</totfact>
</mgrwt>
</event>
<event>
 4    1  0.4926183E-019  0.1491432E+02  0.7818608E-02  0.1870694E+00
          2   -1    0    0  501    0  0.00000000000E+00  0.00000000000E+00  0.11946779131E+03  0.11946779134E+03  0.25500000000E-02 0.  1.
         -2   -1    0    0    0  501 -0.00000000000E+00 -0.00000000000E+00 -0.46547112912E+00  0.46547811393E+00  0.25500000000E-02 0. -1.
         31    1    1    2    0    0 -0.34670532929E+00  0.11118256068E+00  0.60572097499E+02  0.61029259275E+02  0.74470750000E+01 0.  1.
        -31    1    1    2    0    0  0.34670532929E+00 -0.11118256068E+00  0.58430222685E+02  0.58904010179E+02  0.74470750000E+01 0.  1.
<mgrwt>
<rscale>  0 0.14914319E+02</rscale>
<asrwt>0</asrwt>
<pdfrwt beam="1">  1        2 0.99169218E+00 0.14914319E+02</pdfrwt>
<pdfrwt beam="2">  1       -2 0.98863129E+00 0.14914319E+02</pdfrwt>
<totfact> 0.12949265E-13</totfact>
</mgrwt>
</event>
<event>
 4    1 -0.4926183E-019  0.1492671E+02  0.7818608E-02  0.1870313E+00
         -2   -1    0    0    0  501 -0.00000000000E+00  0.00000000000E+00  0.12020361632E+03  0.12020361635E+03  0.25500000000E-02 0. -1.
          2   -1    0    0  501    0  0.00000000000E+00 -0.00000000000E+00 -0.46339095693E+00  0.46339797309E+00  0.25500000000E-02 0.  1.
         31    1    1    2    0    0  0.67764576907E-03 -0.47754560016E+00  0.58889403571E+02  0.59360330434E+02  0.74470750000E+01 0.  1.
        -31    1    1    2    0    0 -0.67764576907E-03  0.47754560016E+00  0.60850821794E+02  0.61306683888E+02  0.74470750000E+01 0. -1.
<mgrwt>
<rscale>  0 0.14926713E+02</rscale>
<asrwt>0</asrwt>
<pdfrwt beam="2">  1        2 0.98425355E+00 0.14926713E+02</pdfrwt>
<pdfrwt beam="1">  1       -2 0.99775930E+00 0.14926713E+02</pdfrwt>
<totfact>-0.25503118E-13</totfact>
</mgrwt>
</event>
<event>
 4    1 -0.4926183E-019  0.1492486E+02  0.7818608E-02  0.1870370E+00
         -2   -1    0    0    0  501 -0.00000000000E+00  0.00000000000E+00  0.11983569892E+03  0.11983569895E+03  0.25500000000E-02 0.  1.
          2   -1    0    0  501    0  0.00000000000E+00 -0.00000000000E+00 -0.46469816800E+00  0.46470516442E+00  0.25500000000E-02 0. -1.
         31    1    1    2    0    0  0.30580188928E+00  0.17822181719E+00  0.57090496245E+02  0.57575246116E+02  0.74470750000E+01 0. -1.
        -31    1    1    2    0    0 -0.30580188928E+00 -0.17822181719E+00  0.62280504509E+02  0.62725157997E+02  0.74470750000E+01 0.  1.
<mgrwt>
<rscale>  0 0.14924859E+02</rscale>
<asrwt>0</asrwt>
<pdfrwt beam="2">  1        2 0.98700770E+00 0.14924859E+02</pdfrwt>
<pdfrwt beam="1">  1       -2 0.99472791E+00 0.14924859E+02</pdfrwt>
<totfact>-0.25590889E-13</totfact>
</mgrwt>
</event>
<event>
 4    1  0.4926183E-019  0.1489964E+02  0.7818608E-02  0.1871146E+00
         -2   -1    0    0    0  501 -0.00000000000E+00  0.00000000000E+00  0.11852379518E+03  0.11852379520E+03  0.25500000000E-02 0.  1.
          2   -1    0    0  501    0  0.00000000000E+00 -0.00000000000E+00 -0.46825547001E+00  0.46826241329E+00  0.25500000000E-02 0. -1.
         31    1    1    2    0    0 -0.11634522617E+00 -0.10277191616E+00  0.57992456250E+02  0.58468863562E+02  0.74470750000E+01 0. -1.
        -31    1    1    2    0    0  0.11634522617E+00  0.10277191616E+00  0.60063083457E+02  0.60523194055E+02  0.74470750000E+01 0.  1.
<mgrwt>
<rscale>  0 0.14899642E+02</rscale>
<asrwt>0</asrwt>
<pdfrwt beam="2">  1        2 0.99449095E+00 0.14899642E+02</pdfrwt>
<pdfrwt beam="1">  1       -2 0.98390959E+00 0.14899642E+02</pdfrwt>
<totfact> 0.67760570E-13</totfact>
</mgrwt>
</event>
<event>
 4    1 -0.4926183E-019  0.1492194E+02  0.7818608E-02  0.1870460E+00
         -2   -1    0    0    0  501 -0.00000000000E+00  0.00000000000E+00  0.11980579604E+03  0.11980579607E+03  0.25500000000E-02 0.  1.
          2   -1    0    0  501    0  0.00000000000E+00 -0.00000000000E+00 -0.46463230327E+00  0.46463930069E+00  0.25500000000E-02 0. -1.
         31    1    1    2    0    0 -0.34196302346E+00 -0.27280270189E+00  0.58658122648E+02  0.59130581248E+02  0.74470750000E+01 0. -1.
        -31    1    1    2    0    0  0.34196302346E+00  0.27280270189E+00  0.60683041089E+02  0.61139854121E+02  0.74470750000E+01 0.  1.
<mgrwt>
<rscale>  0 0.14921939E+02</rscale>
<asrwt>0</asrwt>
<pdfrwt beam="2">  1        2 0.98686739E+00 0.14921939E+02</pdfrwt>
<pdfrwt beam="1">  1       -2 0.99448011E+00 0.14921939E+02</pdfrwt>
<totfact>-0.26032276E-13</totfact>
</mgrwt>
</event>
<event>
 4    1 -0.4926183E-019  0.1496465E+02  0.7818608E-02  0.1869149E+00
         -2   -1    0    0    0  501 -0.00000000000E+00  0.00000000000E+00  0.11973176783E+03  0.11973176786E+03  0.25500000000E-02 0.  1.
          2   -1    0    0  501    0  0.00000000000E+00 -0.00000000000E+00 -0.46758504880E+00  0.46759200203E+00  0.25500000000E-02 0. -1.
         31    1    1    2    0    0  0.60721477765E-01  0.71922538732E+00  0.60217160709E+02  0.60680197282E+02  0.74470750000E+01 0.  1.
        -31    1    1    2    0    0 -0.60721477765E-01 -0.71922538732E+00  0.59047022072E+02  0.59519162577E+02  0.74470750000E+01 0.  1.
<mgrwt>
<rscale>  0 0.14964652E+02</rscale>
<asrwt>0</asrwt>
<pdfrwt beam="2">  1        2 0.99311209E+00 0.14964652E+02</pdfrwt>
<pdfrwt beam="1">  1       -2 0.99389241E+00 0.14964652E+02</pdfrwt>
<totfact>-0.13566332E-13</totfact>
</mgrwt>
</event>
<event>
 4    1  0.4926183E-019  0.1489700E+02  0.7818608E-02  0.1871228E+00
          2   -1    0    0  501    0  0.00000000000E+00  0.00000000000E+00  0.11992478297E+03  0.11992478299E+03  0.25500000000E-02 0.  1.
         -2   -1    0    0    0  501 -0.00000000000E+00 -0.00000000000E+00 -0.46262083774E+00  0.46262786558E+00  0.25500000000E-02 0. -1.
         31    1    1    2    0    0  0.56411715721E-01  0.13415407720E+00  0.59769475156E+02  0.60231804440E+02  0.74470750000E+01 0.  1.
        -31    1    1    2    0    0 -0.56411715721E-01 -0.13415407720E+00  0.59692686971E+02  0.60155606418E+02  0.74470750000E+01 0. -1.
<mgrwt>
<rscale>  0 0.14896997E+02</rscale>
<asrwt>0</asrwt>
<pdfrwt beam="1">  1        2 0.99544734E+00 0.14896997E+02</pdfrwt>
<pdfrwt beam="2">  1       -2 0.98261534E+00 0.14896997E+02</pdfrwt>
<totfact> 0.82329870E-13</totfact>
</mgrwt>
</event>
<event>
 4    1 -0.4926183E-019  0.1491320E+02  0.7818608E-02  0.1870729E+00
         -2   -1    0    0    0  501 -0.00000000000E+00  0.00000000000E+00  0.12003074682E+03  0.12003074684E+03  0.25500000000E-02 0.  1.
          2   -1    0    0  501    0  0.00000000000E+00 -0.00000000000E+00 -0.46321875487E+00  0.46322577364E+00  0.25500000000E-02 0. -1.
         31    1    1    2    0    0  0.62909792364E-01 -0.37083745273E+00  0.59600680487E+02  0.60065310443E+02  0.74470750000E+01 0.  1.
        -31    1    1    2    0    0 -0.62909792364E-01  0.37083745273E+00  0.59966847574E+02  0.60428662174E+02  0.74470750000E+01 0.  1.
<mgrwt>
<rscale>  0 0.14913205E+02</rscale>
<asrwt>0</asrwt>
<pdfrwt beam="2">  1        2 0.98388376E+00 0.14913205E+02</pdfrwt>
<pdfrwt beam="1">  1       -2 0.99632847E+00 0.14913205E+02</pdfrwt>
<totfact>-0.37613176E-13</totfact>
</mgrwt>
</event>
<event>
 4    1  0.4926183E-019  0.1493204E+02  0.7818608E-02  0.1870149E+00
         -2   -1    0    0    0  501 -0.00000000000E+00  0.00000000000E+00  0.11870713559E+03  0.11870713562E+03  0.25500000000E-02 0.  1.
          2   -1    0    0  501    0  0.00000000000E+00 -0.00000000000E+00 -0.46956766559E+00  0.46957458946E+00  0.25500000000E-02 0. -1.
         31    1    1    2    0    0 -0.58035695746E-01  0.48704123386E+00  0.60753356135E+02  0.61210046438E+02  0.74470750000E+01 0.  1.
        -31    1    1    2    0    0  0.58035695746E-01 -0.48704123386E+00  0.57484211791E+02  0.57966663769E+02  0.74470750000E+01 0. -1.
<mgrwt>
<rscale>  0 0.14932039E+02</rscale>
<asrwt>0</asrwt>
<pdfrwt beam="2">  1        2 0.99727286E+00 0.14932039E+02</pdfrwt>
<pdfrwt beam="1">  1       -2 0.98543642E+00 0.14932039E+02</pdfrwt>
<totfact> 0.29499964E-13</totfact>
</mgrwt>
</event>
<event>
 4    1  0.4926183E-019  0.1491778E+02  0.7818608E-02  0.1870588E+00
          2   -1    0    0  501    0  0.00000000000E+00  0.00000000000E+00  0.11956076009E+03  0.11956076011E+03  0.25500000000E-02 0. -1.
         -2   -1    0    0    0  501 -0.00000000000E+00 -0.00000000000E+00 -0.46532518360E+00  0.46533217059E+00  0.25500000000E-02 0.  1.
         31    1    1    2    0    0 -0.33705164855E+00 -0.16113775469E+00  0.61086100994E+02  0.61539501378E+02  0.74470750000E+01 0. -1.
        -31    1    1    2    0    0  0.33705164855E+00  0.16113775469E+00  0.58009333910E+02  0.58486590907E+02  0.74470750000E+01 0.  1.
<mgrwt>
<rscale>  0 0.14917782E+02</rscale>
<asrwt>0</asrwt>
<pdfrwt beam="1">  1        2 0.99245971E+00 0.14917782E+02</pdfrwt>
<pdfrwt beam="2">  1       -2 0.98832550E+00 0.14917782E+02</pdfrwt>
<totfact> 0.15214025E-13</totfact>
</mgrwt>
</event>
<event>
 4    1  0.4926183E-019  0.1491910E+02  0.7818608E-02  0.1870547E+00
         -2   -1    0    0    0  501 -0.00000000000E+00  0.00000000000E+00  0.11885655614E+03  0.11885655617E+03  0.25500000000E-02 0. -1.
          2   -1    0    0  501    0  0.00000000000E+00 -0.00000000000E+00 -0.46816494666E+00  0.46817189128E+00  0.25500000000E-02 0.  1.
         31    1    1    2    0    0  0.11065920136E-01  0.53245880359E-01  0.55772668365E+02  0.56267685400E+02  0.74470750000E+01 0.  1.
        -31    1    1    2    0    0 -0.11065920136E-01 -0.53245880359E-01  0.62615722827E+02  0.63057042658E+02  0.74470750000E+01 0. -1.
<mgrwt>
<rscale>  0 0.14919100E+02</rscale>
<asrwt>0</asrwt>
<pdfrwt beam="2">  1        2 0.99431041E+00 0.14919100E+02</pdfrwt>
<pdfrwt beam="1">  1       -2 0.98666034E+00 0.14919100E+02</pdfrwt>
<totfact> 0.30038037E-13</totfact>
</mgrwt>
</event>
<event>
 4    1 -0.4926183E-019  0.1490379E+02  0.7818608E-02  0.1871019E+00
          2   -1    0    0  501    0  0.00000000000E+00  0.00000000000E+00  0.11830456061E+03  0.11830456064E+03  0.25500000000E-02 0. -1.
         -2   -1    0    0    0  501 -0.00000000000E+00 -0.00000000000E+00 -0.46938440662E+00  0.46939133319E+00  0.25500000000E-02 0.  1.
         31    1    1    2    0    0 -0.13951813154E+00  0.22018776853E+00  0.59412392660E+02  0.59877869665E+02  0.74470750000E+01 0. -1.
        -31    1    1    2    0    0  0.13951813154E+00 -0.22018776853E+00  0.58422783547E+02  0.58896082310E+02  0.74470750000E+01 0. -1.
<mgrwt>
<rscale>  0 0.14903789E+02</rscale>
<asrwt>0</asrwt>
<pdfrwt beam="1">  1        2 0.98210614E+00 0.14903789E+02</pdfrwt>
<pdfrwt beam="2">  1       -2 0.99687183E+00 0.14903789E+02</pdfrwt>
<totfact>-0.46330961E-13</totfact>
</mgrwt>
</event>
<event>
 4    1 -0.4926183E-019  0.1490737E+02  0.7818608E-02  0.1870908E+00
          2   -1    0    0  501    0  0.00000000000E+00  0.00000000000E+00  0.11877706659E+03  0.11877706662E+03  0.25500000000E-02 0.  1.
         -2   -1    0    0    0  501 -0.00000000000E+00 -0.00000000000E+00 -0.46774184732E+00  0.46774879822E+00  0.25500000000E-02 0. -1.
         31    1    1    2    0    0 -0.48792909614E-01 -0.29789542032E+00  0.58467855327E+02  0.58940988751E+02  0.74470750000E+01 0.  1.
        -31    1    1    2    0    0  0.48792909614E-01  0.29789542032E+00  0.59841469417E+02  0.60303826665E+02  0.74470750000E+01 0. -1.
<mgrwt>
<rscale>  0 0.14907370E+02</rscale>
<asrwt>0</asrwt>
<pdfrwt beam="1">  1        2 0.98599957E+00 0.14907370E+02</pdfrwt>
<pdfrwt beam="2">  1       -2 0.99341274E+00 0.14907370E+02</pdfrwt>
<totfact>-0.27416756E-13</totfact>
</mgrwt>
</event>
<event>
 4    1 -0.4926183E-019  0.1493686E+02  0.7818608E-02  0.1870001E+00
          2   -1    0    0  501    0  0.00000000000E+00  0.00000000000E+00  0.11914767751E+03  0.11914767754E+03  0.25500000000E-02 0. -1.
         -2   -1    0    0    0  501 -0.00000000000E+00 -0.00000000000E+00 -0.46813374410E+00  0.46814068917E+00  0.25500000000E-02 0.  1.
         31    1    1    2    0    0  0.19464153861E+00 -0.23661313556E+00  0.55544000479E+02  0.56041848527E+02  0.74470750000E+01 0.  1.
        -31    1    1    2    0    0 -0.19464153861E+00  0.23661313556E+00  0.63135543286E+02  0.63573969698E+02  0.74470750000E+01 0. -1.
<mgrwt>
<rscale>  0 0.14936863E+02</rscale>
<asrwt>0</asrwt>
<pdfrwt beam="1">  1        2 0.98906728E+00 0.14936863E+02</pdfrwt>
<pdfrwt beam="2">  1       -2 0.99425393E+00 0.14936863E+02</pdfrwt>
<totfact>-0.19502318E-13</totfact>
</mgrwt>
</event>
<event>
 4    1 -0.4926183E-019  0.1495549E+02  0.7818608E-02  0.1869430E+00
          2   -1    0    0  501    0  0.00000000000E+00  0.00000000000E+00  0.11900867732E+03  0.11900867735E+03  0.25500000000E-02 0.  1.
         -2   -1    0    0    0  501 -0.00000000000E+00 -0.00000000000E+00 -0.46985048123E+00  0.46985740093E+00  0.25500000000E-02 0. -1.
         31    1    1    2    0    0 -0.51031882668E+00 -0.15374475223E-01  0.55722543980E+02  0.56220294337E+02  0.74470750000E+01 0. -1.
        -31    1    1    2    0    0  0.51031882668E+00  0.15374475223E-01  0.62816282859E+02  0.63258240411E+02  0.74470750000E+01 0.  1.
<mgrwt>
<rscale>  0 0.14955494E+02</rscale>
<asrwt>0</asrwt>
<pdfrwt beam="1">  1        2 0.98793212E+00 0.14955494E+02</pdfrwt>
<pdfrwt beam="2">  1       -2 0.99788110E+00 0.14955494E+02</pdfrwt>
<totfact>-0.14011749E-13</totfact>
</mgrwt>
</event>
<event>
 4    1  0.4926183E-019  0.1493791E+02  0.7818608E-02  0.1869969E+00
         -2   -1    0    0    0  501 -0.00000000000E+00  0.00000000000E+00  0.11886324734E+03  0.11886324737E+03  0.25500000000E-02 0. -1.
          2   -1    0    0  501    0  0.00000000000E+00 -0.00000000000E+00 -0.46931985743E+00  0.46932678496E+00  0.25500000000E-02 0.  1.
         31    1    1    2    0    0 -0.34455113558E+00  0.45276077148E+00  0.59609239943E+02  0.60075320394E+02  0.74470750000E+01 0. -1.
        -31    1    1    2    0    0  0.34455113558E+00 -0.45276077148E+00  0.58784687541E+02  0.59257253760E+02  0.74470750000E+01 0.  1.
<mgrwt>
<rscale>  0 0.14937911E+02</rscale>
<asrwt>0</asrwt>
<pdfrwt beam="2">  1        2 0.99675380E+00 0.14937911E+02</pdfrwt>
<pdfrwt beam="1">  1       -2 0.98672522E+00 0.14937911E+02</pdfrwt>
<totfact> 0.21356484E-13</totfact>
</mgrwt>
</event>
<event>
 4    1 -0.4926183E-019  0.1493190E+02  0.7818608E-02  0.1870154E+00
          2   -1    0    0  501    0  0.00000000000E+00  0.00000000000E+00  0.11890018833E+03  0.11890018836E+03  0.25500000000E-02 0. -1.
         -2   -1    0    0    0  501 -0.00000000000E+00 -0.00000000000E+00 -0.46879643938E+00  0.46880337464E+00  0.25500000000E-02 0.  1.
         31    1    1    2    0    0  0.33210994669E+00 -0.43316231923E-01  0.55926373827E+02  0.56421010172E+02  0.74470750000E+01 0.  1.
        -31    1    1    2    0    0 -0.33210994669E+00  0.43316231923E-01  0.62505018062E+02  0.62947981559E+02  0.74470750000E+01 0. -1.
<mgrwt>
<rscale>  0 0.14931899E+02</rscale>
<asrwt>0</asrwt>
<pdfrwt beam="1">  1        2 0.98702634E+00 0.14931899E+02</pdfrwt>
<pdfrwt beam="2">  1       -2 0.99564775E+00 0.14931899E+02</pdfrwt>
<totfact>-0.24669443E-13</totfact>
</mgrwt>
</event>
<event>
 4    1  0.4926183E-019  0.1492262E+02  0.7818608E-02  0.1870439E+00
          2   -1    0    0  501    0  0.00000000000E+00  0.00000000000E+00  0.12031694126E+03  0.12031694129E+03  0.25500000000E-02 0. -1.
         -2   -1    0    0    0  501 -0.00000000000E+00 -0.00000000000E+00 -0.46270034078E+00  0.46270736741E+00  0.25500000000E-02 0.  1.
         31    1    1    2    0    0 -0.17347517061E+00  0.18346552159E+00  0.56808812397E+02  0.57295408587E+02  0.74470750000E+01 0.  1.
        -31    1    1    2    0    0  0.17347517061E+00 -0.18346552159E+00  0.63045428527E+02  0.63484240071E+02  0.74470750000E+01 0. -1.
<mgrwt>
<rscale>  0 0.14922616E+02</rscale>
<asrwt>0</asrwt>
<pdfrwt beam="1">  1        2 0.99869064E+00 0.14922616E+02</pdfrwt>
<pdfrwt beam="2">  1       -2 0.98279586E+00 0.14922616E+02</pdfrwt>
<totfact> 0.32315336E-13</totfact>
</mgrwt>
</event>
<event>
 4    1 -0.4926183E-019  0.1492750E+02  0.7818608E-02  0.1870289E+00
         -2   -1    0    0    0  501 -0.00000000000E+00  0.00000000000E+00  0.11999614481E+03  0.11999614484E+03  0.25500000000E-02 0. -1.
          2   -1    0    0  501    0  0.00000000000E+00 -0.00000000000E+00 -0.46424132058E+00  0.46424832389E+00  0.25500000000E-02 0.  1.
         31    1    1    2    0    0  0.31510867459E+00 -0.18054844834E-01  0.56650520181E+02  0.57138778271E+02  0.74470750000E+01 0.  1.
        -31    1    1    2    0    0 -0.31510867459E+00  0.18054844834E-01  0.62881383307E+02  0.63321614888E+02  0.74470750000E+01 0. -1.
<mgrwt>
<rscale>  0 0.14927504E+02</rscale>
<asrwt>0</asrwt>
<pdfrwt beam="2">  1        2 0.98604621E+00 0.14927504E+02</pdfrwt>
<pdfrwt beam="1">  1       -2 0.99605081E+00 0.14927504E+02</pdfrwt>
<totfact>-0.27460619E-13</totfact>
</mgrwt>
</event>
<event>
 4    1  0.4926183E-019  0.1489893E+02  0.7818608E-02  0.1871168E+00
         -2   -1    0    0    0  501 -0.00000000000E+00  0.00000000000E+00  0.11793096825E+03  0.11793096828E+03  0.25500000000E-02 0. -1.
          2   -1    0    0  501    0  0.00000000000E+00 -0.00000000000E+00 -0.47056447746E+00  0.47057138666E+00  0.25500000000E-02 0.  1.
         31    1    1    2    0    0  0.18462600767E+00 -0.37103775724E-01  0.58634307509E+02  0.59105637689E+02  0.74470750000E+01 0. -1.
        -31    1    1    2    0    0 -0.18462600767E+00  0.37103775724E-01  0.58826096268E+02  0.59295901980E+02  0.74470750000E+01 0.  1.
<mgrwt>
<rscale>  0 0.14898931E+02</rscale>
<asrwt>0</asrwt>
<pdfrwt beam="2">  1        2 0.99935554E+00 0.14898931E+02</pdfrwt>
<pdfrwt beam="1">  1       -2 0.97902677E+00 0.14898931E+02</pdfrwt>
<totfact> 0.34083161E-13</totfact>
</mgrwt>
</event>
<event>
 4    1 -0.4926183E-019  0.1489866E+02  0.7818608E-02  0.1871177E+00
         -2   -1    0    0    0  501 -0.00000000000E+00  0.00000000000E+00  0.12017639795E+03  0.12017639797E+03  0.25500000000E-02 0. -1.
          2   -1    0    0  501    0  0.00000000000E+00 -0.00000000000E+00 -0.46175542582E+00  0.46176246683E+00  0.25500000000E-02 0.  1.
         31    1    1    2    0    0  0.78178046749E-01 -0.15429424613E+00  0.60348896208E+02  0.60806892028E+02  0.74470750000E+01 0. -1.
        -31    1    1    2    0    0 -0.78178046749E-01  0.15429424613E+00  0.59365746313E+02  0.59831268413E+02  0.74470750000E+01 0.  1.
<mgrwt>
<rscale>  0 0.14898662E+02</rscale>
<asrwt>0</asrwt>
<pdfrwt beam="2">  1        2 0.98079214E+00 0.14898662E+02</pdfrwt>
<pdfrwt beam="1">  1       -2 0.99752072E+00 0.14898662E+02</pdfrwt>
<totfact>-0.49263598E-13</totfact>
</mgrwt>
</event>
<event>
 4    1 -0.4926183E-019  0.1489938E+02  0.7818608E-02  0.1871154E+00
          2   -1    0    0  501    0  0.00000000000E+00  0.00000000000E+00  0.11811213988E+03  0.11811213991E+03  0.25500000000E-02 0. -1.
         -2   -1    0    0    0  501 -0.00000000000E+00 -0.00000000000E+00 -0.46987115541E+00  0.46987807481E+00  0.25500000000E-02 0.  1.
         31    1    1    2    0    0 -0.10134271878E+00 -0.16282819962E+00  0.58448672048E+02  0.58921498399E+02  0.74470750000E+01 0. -1.
        -31    1    1    2    0    0  0.10134271878E+00  0.16282819962E+00  0.59193596675E+02  0.59660519582E+02  0.74470750000E+01 0. -1.
<mgrwt>
<rscale>  0 0.14899382E+02</rscale>
<asrwt>0</asrwt>
<pdfrwt beam="1">  1        2 0.98051909E+00 0.14899382E+02</pdfrwt>
<pdfrwt beam="2">  1       -2 0.99789505E+00 0.14899382E+02</pdfrwt>
<totfact>-0.45483433E-13</totfact>
</mgrwt>
</event>
<event>
 4    1 -0.4926183E-019  0.1494291E+02  0.7818608E-02  0.1869816E+00
         -2   -1    0    0    0  501 -0.00000000000E+00  0.00000000000E+00  0.11992498132E+03  0.11992498134E+03  0.25500000000E-02 0.  1.
          2   -1    0    0  501    0  0.00000000000E+00 -0.00000000000E+00 -0.46547610330E+00  0.46548308804E+00  0.25500000000E-02 0. -1.
         31    1    1    2    0    0  0.44143915063E+00 -0.21123534580E+00  0.62569324717E+02  0.63012846393E+02  0.74470750000E+01 0. -1.
        -31    1    1    2    0    0 -0.44143915063E+00  0.21123534580E+00  0.56890180497E+02  0.57377618039E+02  0.74470750000E+01 0. -1.
<mgrwt>
<rscale>  0 0.14942909E+02</rscale>
<asrwt>0</asrwt>
<pdfrwt beam="2">  1        2 0.98865644E+00 0.14942909E+02</pdfrwt>
<pdfrwt beam="1">  1       -2 0.99547259E+00 0.14942909E+02</pdfrwt>
<totfact>-0.20199106E-13</totfact>
</mgrwt>
</event>
<event>
 4    1  0.4926183E-019  0.1490284E+02  0.7818608E-02  0.1871048E+00
          2   -1    0    0  501    0  0.00000000000E+00  0.00000000000E+00  0.11974609977E+03  0.11974609980E+03  0.25500000000E-02 0. -1.
         -2   -1    0    0    0  501 -0.00000000000E+00 -0.00000000000E+00 -0.46367456181E+00  0.46368157368E+00  0.25500000000E-02 0.  1.
         31    1    1    2    0    0  0.19206663002E-01 -0.18277334918E+00  0.58222326240E+02  0.58696950295E+02  0.74470750000E+01 0.  1.
        -31    1    1    2    0    0 -0.19206663002E-01  0.18277334918E+00  0.61060098966E+02  0.61512831074E+02  0.74470750000E+01 0. -1.
<mgrwt>
<rscale>  0 0.14902838E+02</rscale>
<asrwt>0</asrwt>
<pdfrwt beam="1">  1        2 0.99397858E+00 0.14902838E+02</pdfrwt>
<pdfrwt beam="2">  1       -2 0.98483915E+00 0.14902838E+02</pdfrwt>
<totfact> 0.55619882E-13</totfact>
</mgrwt>
</event>
<event>
 4    1 -0.4926183E-019  0.1493894E+02  0.7818608E-02  0.1869937E+00
          2   -1    0    0  501    0  0.00000000000E+00  0.00000000000E+00  0.11938335915E+03  0.11938335918E+03  0.25500000000E-02 0. -1.
         -2   -1    0    0    0  501 -0.00000000000E+00 -0.00000000000E+00 -0.46733982364E+00  0.46734678051E+00  0.25500000000E-02 0.  1.
         31    1    1    2    0    0 -0.10258390840E+00  0.55710479070E+00  0.60379792444E+02  0.60839946999E+02  0.74470750000E+01 0. -1.
        -31    1    1    2    0    0  0.10258390840E+00 -0.55710479070E+00  0.58536226881E+02  0.59010758958E+02  0.74470750000E+01 0. -1.
<mgrwt>
<rscale>  0 0.14938945E+02</rscale>
<asrwt>0</asrwt>
<pdfrwt beam="1">  1        2 0.99100949E+00 0.14938945E+02</pdfrwt>
<pdfrwt beam="2">  1       -2 0.99258202E+00 0.14938945E+02</pdfrwt>
<totfact>-0.12957916E-13</totfact>
</mgrwt>
</event>
<event>
 4    1 -0.4926183E-019  0.1490123E+02  0.7818608E-02  0.1871098E+00
          2   -1    0    0  501    0  0.00000000000E+00  0.00000000000E+00  0.11807343585E+03  0.11807343588E+03  0.25500000000E-02 0.  1.
         -2   -1    0    0    0  501 -0.00000000000E+00 -0.00000000000E+00 -0.47014145345E+00  0.47014836887E+00  0.25500000000E-02 0. -1.
         31    1    1    2    0    0  0.50904062962E-02 -0.17874425523E+00  0.59946954635E+02  0.60408014960E+02  0.74470750000E+01 0. -1.
        -31    1    1    2    0    0 -0.50904062962E-02  0.17874425523E+00  0.57656339761E+02  0.58135569285E+02  0.74470750000E+01 0. -1.
<mgrwt>
<rscale>  0 0.14901225E+02</rscale>
<asrwt>0</asrwt>
<pdfrwt beam="1">  1        2 0.98020130E+00 0.14901225E+02</pdfrwt>
<pdfrwt beam="2">  1       -2 0.99846551E+00 0.14901225E+02</pdfrwt>
<totfact>-0.36883906E-13</totfact>
</mgrwt>
</event>
<event>
 4    1 -0.4926183E-019  0.1493007E+02  0.7818608E-02  0.1870210E+00
         -2   -1    0    0    0  501 -0.00000000000E+00  0.00000000000E+00  0.12008180585E+03  0.12008180587E+03  0.25500000000E-02 0.  1.
          2   -1    0    0  501    0  0.00000000000E+00 -0.00000000000E+00 -0.46406941045E+00  0.46407641635E+00  0.25500000000E-02 0. -1.
         31    1    1    2    0    0 -0.15632901623E+00  0.49287579892E+00  0.59642344665E+02  0.60107699744E+02  0.74470750000E+01 0.  1.
        -31    1    1    2    0    0  0.15632901623E+00 -0.49287579892E+00  0.59975391770E+02  0.60438182545E+02  0.74470750000E+01 0. -1.
<mgrwt>
<rscale>  0 0.14930066E+02</rscale>
<asrwt>0</asrwt>
<pdfrwt beam="2">  1        2 0.98568520E+00 0.14930066E+02</pdfrwt>
<pdfrwt beam="1">  1       -2 0.99675770E+00 0.14930066E+02</pdfrwt>
<totfact>-0.26168010E-13</totfact>
</mgrwt>
</event>
<event>
 4    1 -0.4926183E-019  0.1492342E+02  0.7818608E-02  0.1870414E+00
          2   -1    0    0  501    0  0.00000000000E+00  0.00000000000E+00  0.11831372818E+03  0.11831372820E+03  0.25500000000E-02 0.  1.
         -2   -1    0    0    0  501 -0.00000000000E+00 -0.00000000000E+00 -0.47058520301E+00  0.47059211191E+00  0.25500000000E-02 0. -1.
         31    1    1    2    0    0  0.33391025725E+00 -0.29657743879E-03  0.61521320440E+02  0.61971310225E+02  0.74470750000E+01 0.  1.
        -31    1    1    2    0    0 -0.33391025725E+00  0.29657743879E-03  0.56321822534E+02  0.56813010092E+02  0.74470750000E+01 0. -1.
<mgrwt>
<rscale>  0 0.14923418E+02</rscale>
<asrwt>0</asrwt>
<pdfrwt beam="1">  1        2 0.98219187E+00 0.14923418E+02</pdfrwt>
<pdfrwt beam="2">  1       -2 0.99941223E+00 0.14923418E+02</pdfrwt>
<totfact>-0.10961126E-13</totfact>
</mgrwt>
</event>
<event>
 4    1  0.4926183E-019  0.1494090E+02  0.7818608E-02  0.1869877E+00
         -2   -1    0    0    0  501 -0.00000000000E+00  0.00000000000E+00  0.11874624237E+03  0.11874624239E+03  0.25500000000E-02 0.  1.
          2   -1    0    0  501    0  0.00000000000E+00 -0.00000000000E+00 -0.46997018627E+00  0.46997710421E+00  0.25500000000E-02 0. -1.
         31    1    1    2    0    0  0.35725099320E+00 -0.37087219060E+00  0.56832342484E+02  0.57320495922E+02  0.74470750000E+01 0.  1.
        -31    1    1    2    0    0 -0.35725099320E+00  0.37087219060E+00  0.61443929697E+02  0.61895723577E+02  0.74470750000E+01 0.  1.
<mgrwt>
<rscale>  0 0.14940898E+02</rscale>
<asrwt>0</asrwt>
<pdfrwt beam="2">  1        2 0.99812565E+00 0.14940898E+02</pdfrwt>
<pdfrwt beam="1">  1       -2 0.98576311E+00 0.14940898E+02</pdfrwt>
<totfact> 0.20116666E-13</totfact>
</mgrwt>
</event>
<event>
 4    1 -0.4926183E-019  0.1489881E+02  0.7818608E-02  0.1871172E+00
         -2   -1    0    0    0  501 -0.00000000000E+00  0.00000000000E+00  0.11964450597E+03  0.11964450600E+03  0.25500000000E-02 0. -1.
          2   -1    0    0  501    0  0.00000000000E+00 -0.00000000000E+00 -0.46381731167E+00  0.46382432138E+00  0.25500000000E-02 0.  1.
         31    1    1    2    0    0  0.13676322452E+00  0.91672916939E-01  0.60292285482E+02  0.60750684957E+02  0.74470750000E+01 0. -1.
        -31    1    1    2    0    0 -0.13676322452E+00 -0.91672916939E-01  0.58888403181E+02  0.59357645366E+02  0.74470750000E+01 0. -1.
<mgrwt>
<rscale>  0 0.14898807E+02</rscale>
<asrwt>0</asrwt>
<pdfrwt beam="2">  1        2 0.98513795E+00 0.14898807E+02</pdfrwt>
<pdfrwt beam="1">  1       -2 0.99313971E+00 0.14898807E+02</pdfrwt>
<totfact>-0.30189001E-13</totfact>
</mgrwt>
</event>
<event>
 4    1 -0.4926183E-019  0.1489488E+02  0.7818608E-02  0.1871293E+00
         -2   -1    0    0    0  501 -0.00000000000E+00  0.00000000000E+00  0.12010278635E+03  0.12010278637E+03  0.25500000000E-02 0.  1.
          2   -1    0    0  501    0  0.00000000000E+00 -0.00000000000E+00 -0.46180421385E+00  0.46181125412E+00  0.25500000000E-02 0. -1.
         31    1    1    2    0    0  0.10561131653E-01 -0.72823489235E-01  0.59882142237E+02  0.60343477691E+02  0.74470750000E+01 0.  1.
        -31    1    1    2    0    0 -0.10561131653E-01  0.72823489235E-01  0.59758839895E+02  0.60221119937E+02  0.74470750000E+01 0.  1.
<mgrwt>
<rscale>  0 0.14894885E+02</rscale>
<asrwt>0</asrwt>
<pdfrwt beam="2">  1        2 0.98089307E+00 0.14894885E+02</pdfrwt>
<pdfrwt beam="1">  1       -2 0.99691245E+00 0.14894885E+02</pdfrwt>
<totfact>-0.56336426E-13</totfact>
</mgrwt>
</event>
<event>
 4    1 -0.4926183E-019  0.1498749E+02  0.7818608E-02  0.1868450E+00
          2   -1    0    0  501    0  0.00000000000E+00  0.00000000000E+00  0.12015265484E+03  0.12015265486E+03  0.25500000000E-02 0. -1.
         -2   -1    0    0    0  501 -0.00000000000E+00 -0.00000000000E+00 -0.46737061784E+00  0.46737757426E+00  0.25500000000E-02 0.  1.
         31    1    1    2    0    0  0.80321083207E+00  0.57569847035E-01  0.61621491723E+02  0.62075080590E+02  0.74470750000E+01 0. -1.
        -31    1    1    2    0    0 -0.80321083207E+00 -0.57569847035E-01  0.58063792496E+02  0.58544951849E+02  0.74470750000E+01 0.  1.
<mgrwt>
<rscale>  0 0.14987494E+02</rscale>
<asrwt>0</asrwt>
<pdfrwt beam="1">  1        2 0.99737082E+00 0.14987494E+02</pdfrwt>
<pdfrwt beam="2">  1       -2 0.99267195E+00 0.14987494E+02</pdfrwt>
<totfact>-0.65124365E-14</totfact>
</mgrwt>
</event>
<event>
 4    1  0.4926183E-019  0.1491061E+02  0.7818608E-02  0.1870808E+00
         -2   -1    0    0    0  501 -0.00000000000E+00  0.00000000000E+00  0.11845577001E+03  0.11845577004E+03  0.25500000000E-02 0. -1.
          2   -1    0    0  501    0  0.00000000000E+00 -0.00000000000E+00 -0.46921474735E+00  0.46922167643E+00  0.25500000000E-02 0.  1.
         31    1    1    2    0    0 -0.16196673732E+00  0.71393648495E-01  0.61403934865E+02  0.61854130607E+02  0.74470750000E+01 0. -1.
        -31    1    1    2    0    0  0.16196673732E+00 -0.71393648495E-01  0.56582620398E+02  0.57070861107E+02  0.74470750000E+01 0.  1.
<mgrwt>
<rscale>  0 0.14910615E+02</rscale>
<asrwt>0</asrwt>
<pdfrwt beam="2">  1        2 0.99651797E+00 0.14910615E+02</pdfrwt>
<pdfrwt beam="1">  1       -2 0.98335504E+00 0.14910615E+02</pdfrwt>
<totfact> 0.59829453E-13</totfact>
</mgrwt>
</event>
<event>
 4    1  0.4926183E-019  0.1491488E+02  0.7818608E-02  0.1870677E+00
          2   -1    0    0  501    0  0.00000000000E+00  0.00000000000E+00  0.12019849372E+03  0.12019849375E+03  0.25500000000E-02 0.  1.
         -2   -1    0    0    0  501 -0.00000000000E+00 -0.00000000000E+00 -0.46267604198E+00  0.46268306898E+00  0.25500000000E-02 0. -1.
         31    1    1    2    0    0 -0.26745763849E+00 -0.24144946494E+00  0.61137583841E+02  0.61590526182E+02  0.74470750000E+01 0. -1.
        -31    1    1    2    0    0  0.26745763849E+00  0.24144946494E+00  0.58598233842E+02  0.59070650639E+02  0.74470750000E+01 0. -1.
<mgrwt>
<rscale>  0 0.14914877E+02</rscale>
<asrwt>0</asrwt>
<pdfrwt beam="1">  1        2 0.99771103E+00 0.14914877E+02</pdfrwt>
<pdfrwt beam="2">  1       -2 0.98274074E+00 0.14914877E+02</pdfrwt>
<totfact> 0.51290374E-13</totfact>
</mgrwt>
</event>
<event>
 4    1  0.4926183E-019  0.1490046E+02  0.7818608E-02  0.1871121E+00
         -2   -1    0    0    0  501 -0.00000000000E+00  0.00000000000E+00  0.11847724167E+03  0.11847724170E+03  0.25500000000E-02 0. -1.
          2   -1    0    0  501    0  0.00000000000E+00 -0.00000000000E+00 -0.46849096735E+00  0.46849790714E+00  0.25500000000E-02 0.  1.
         31    1    1    2    0    0  0.51237741800E-01 -0.11653032614E+00  0.60405359793E+02  0.60862818062E+02  0.74470750000E+01 0. -1.
        -31    1    1    2    0    0 -0.51237741800E-01  0.11653032614E+00  0.57603390911E+02  0.58082921544E+02  0.74470750000E+01 0.  1.
<mgrwt>
<rscale>  0 0.14900461E+02</rscale>
<asrwt>0</asrwt>
<pdfrwt beam="2">  1        2 0.99498759E+00 0.14900461E+02</pdfrwt>
<pdfrwt beam="1">  1       -2 0.98352660E+00 0.14900461E+02</pdfrwt>
<totfact> 0.70780830E-13</totfact>
</mgrwt>
</event>
<event>
 4    1 -0.4926183E-019  0.1490252E+02  0.7818608E-02  0.1871058E+00
          2   -1    0    0  501    0  0.00000000000E+00  0.00000000000E+00  0.11835383509E+03  0.11835383512E+03  0.25500000000E-02 0. -1.
         -2   -1    0    0    0  501 -0.00000000000E+00 -0.00000000000E+00 -0.46910901982E+00  0.46911595047E+00  0.25500000000E-02 0.  1.
         31    1    1    2    0    0 -0.24797111327E+00 -0.13585404951E-01  0.59147925608E+02  0.59615414987E+02  0.74470750000E+01 0. -1.
        -31    1    1    2    0    0  0.24797111327E+00  0.13585404951E-01  0.58736800461E+02  0.59207536080E+02  0.74470750000E+01 0.  1.
<mgrwt>
<rscale>  0 0.14902519E+02</rscale>
<asrwt>0</asrwt>
<pdfrwt beam="1">  1        2 0.98251130E+00 0.14902519E+02</pdfrwt>
<pdfrwt beam="2">  1       -2 0.99629093E+00 0.14902519E+02</pdfrwt>
<totfact>-0.47650063E-13</totfact>
</mgrwt>
</event>
<event>
 4    1  0.4926183E-019  0.1490765E+02  0.7818608E-02  0.1870900E+00
         -2   -1    0    0    0  501 -0.00000000000E+00  0.00000000000E+00  0.11882507714E+03  0.11882507716E+03  0.25500000000E-02 0. -1.
          2   -1    0    0  501    0  0.00000000000E+00 -0.00000000000E+00 -0.46757039717E+00  0.46757735062E+00  0.25500000000E-02 0.  1.
         31    1    1    2    0    0  0.53411276672E-02  0.24433353816E+00  0.60796118781E+02  0.61251013970E+02  0.74470750000E+01 0. -1.
        -31    1    1    2    0    0 -0.53411276672E-02 -0.24433353816E+00  0.57561387958E+02  0.58041640544E+02  0.74470750000E+01 0.  1.
<mgrwt>
<rscale>  0 0.14907650E+02</rscale>
<asrwt>0</asrwt>
<pdfrwt beam="2">  1        2 0.99305161E+00 0.14907650E+02</pdfrwt>
<pdfrwt beam="1">  1       -2 0.98639513E+00 0.14907650E+02</pdfrwt>
<totfact> 0.36564595E-13</totfact>
</mgrwt>
</event>
<event>
 4    1 -0.4926183E-019  0.1497987E+02  0.7818608E-02  0.1868683E+00
          2   -1    0    0  501    0  0.00000000000E+00  0.00000000000E+00  0.11947373339E+03  0.11947373342E+03  0.25500000000E-02 0. -1.
         -2   -1    0    0    0  501 -0.00000000000E+00 -0.00000000000E+00 -0.46954839185E+00  0.46955531600E+00  0.25500000000E-02 0.  1.
         31    1    1    2    0    0 -0.50994950289E+00  0.44459936915E+00  0.56081767365E+02  0.56578098889E+02  0.74470750000E+01 0.  1.
        -31    1    1    2    0    0  0.50994950289E+00 -0.44459936915E+00  0.62922417634E+02  0.63365189845E+02  0.74470750000E+01 0. -1.
<mgrwt>
<rscale>  0 0.14979869E+02</rscale>
<asrwt>0</asrwt>
<pdfrwt beam="1">  1        2 0.99177503E+00 0.14979869E+02</pdfrwt>
<pdfrwt beam="2">  1       -2 0.99725730E+00 0.14979869E+02</pdfrwt>
<totfact>-0.11608707E-13</totfact>
</mgrwt>
</event>
<event>
 4    1 -0.4926183E-019  0.1500134E+02  0.7818608E-02  0.1868027E+00
         -2   -1    0    0    0  501 -0.00000000000E+00  0.00000000000E+00  0.11991963696E+03  0.11991963699E+03  0.25500000000E-02 0.  1.
          2   -1    0    0  501    0  0.00000000000E+00 -0.00000000000E+00 -0.46914473764E+00  0.46915166775E+00  0.25500000000E-02 0. -1.
         31    1    1    2    0    0 -0.54495942634E+00  0.59096207185E+00  0.62884183379E+02  0.63328711200E+02  0.74470750000E+01 0.  1.
        -31    1    1    2    0    0  0.54495942634E+00 -0.59096207185E+00  0.56566308848E+02  0.57060077459E+02  0.74470750000E+01 0. -1.
<mgrwt>
<rscale>  0 0.15001345E+02</rscale>
<asrwt>0</asrwt>
<pdfrwt beam="2">  1        2 0.99641785E+00 0.15001345E+02</pdfrwt>
<pdfrwt beam="1">  1       -2 0.99545874E+00 0.15001345E+02</pdfrwt>
<totfact>-0.96947621E-14</totfact>
</mgrwt>
</event>
<event>
 4    1 -0.4926183E-019  0.1493560E+02  0.7818608E-02  0.1870040E+00
          2   -1    0    0  501    0  0.00000000000E+00  0.00000000000E+00  0.11859584729E+03  0.11859584732E+03  0.25500000000E-02 0. -1.
         -2   -1    0    0    0  501 -0.00000000000E+00 -0.00000000000E+00 -0.47023257524E+00  0.47023948932E+00  0.25500000000E-02 0.  1.
         31    1    1    2    0    0  0.34615840525E+00 -0.42751121304E+00  0.59706831473E+02  0.60171980540E+02  0.74470750000E+01 0. -1.
        -31    1    1    2    0    0 -0.34615840525E+00  0.42751121304E+00  0.58418783240E+02  0.58894106266E+02  0.74470750000E+01 0.  1.
<mgrwt>
<rscale>  0 0.14935601E+02</rscale>
<asrwt>0</asrwt>
<pdfrwt beam="1">  1        2 0.98452171E+00 0.14935601E+02</pdfrwt>
<pdfrwt beam="2">  1       -2 0.99867571E+00 0.14935601E+02</pdfrwt>
<totfact>-0.15719869E-13</totfact>
</mgrwt>
</event>
<event>
 4    1  0.4926183E-019  0.1491165E+02  0.7818608E-02  0.1870776E+00
          2   -1    0    0  501    0  0.00000000000E+00  0.00000000000E+00  0.12026180651E+03  0.12026180654E+03  0.25500000000E-02 0.  1.
         -2   -1    0    0    0  501 -0.00000000000E+00 -0.00000000000E+00 -0.46223259653E+00  0.46223963028E+00  0.25500000000E-02 0. -1.
         31    1    1    2    0    0 -0.27034077773E+00 -0.41891322424E-01  0.61808582181E+02  0.62256201268E+02  0.74470750000E+01 0.  1.
        -31    1    1    2    0    0  0.27034077773E+00  0.41891322424E-01  0.57990991731E+02  0.58467844898E+02  0.74470750000E+01 0.  1.
<mgrwt>
<rscale>  0 0.14911654E+02</rscale>
<asrwt>0</asrwt>
<pdfrwt beam="1">  1        2 0.99823088E+00 0.14911654E+02</pdfrwt>
<pdfrwt beam="2">  1       -2 0.98180445E+00 0.14911654E+02</pdfrwt>
<totfact> 0.50838684E-13</totfact>
</mgrwt>
</event>
<event>
 4    1  0.4926183E-019  0.1491065E+02  0.7818608E-02  0.1870807E+00
         -2   -1    0    0    0  501 -0.00000000000E+00  0.00000000000E+00  0.11844653347E+03  0.11844653349E+03  0.25500000000E-02 0. -1.
          2   -1    0    0  501    0  0.00000000000E+00 -0.00000000000E+00 -0.46925341770E+00  0.46926034620E+00  0.25500000000E-02 0.  1.
         31    1    1    2    0    0  0.25786238890E+00  0.12420581028E+00  0.57373620632E+02  0.57855623673E+02  0.74470750000E+01 0.  1.
        -31    1    1    2    0    0 -0.25786238890E+00 -0.12420581028E+00  0.60603659416E+02  0.61060170166E+02  0.74470750000E+01 0.  1.
<mgrwt>
<rscale>  0 0.14910648E+02</rscale>
<asrwt>0</asrwt>
<pdfrwt beam="2">  1        2 0.99659946E+00 0.14910648E+02</pdfrwt>
<pdfrwt beam="1">  1       -2 0.98327898E+00 0.14910648E+02</pdfrwt>
<totfact> 0.59969415E-13</totfact>
</mgrwt>
</event>
<event>
 4    1  0.4926183E-019  0.1491570E+02  0.7818608E-02  0.1870652E+00
          2   -1    0    0  501    0  0.00000000000E+00  0.00000000000E+00  0.11998034718E+03  0.11998034720E+03  0.25500000000E-02 0. -1.
         -2   -1    0    0    0  501 -0.00000000000E+00 -0.00000000000E+00 -0.46356830265E+00  0.46357531612E+00  0.25500000000E-02 0.  1.
         31    1    1    2    0    0 -0.19923780448E+00 -0.34029630813E+00  0.59182481415E+02  0.59650486417E+02  0.74470750000E+01 0. -1.
        -31    1    1    2    0    0  0.19923780448E+00  0.34029630813E+00  0.60334297460E+02  0.60793436104E+02  0.74470750000E+01 0. -1.
<mgrwt>
<rscale>  0 0.14915698E+02</rscale>
<asrwt>0</asrwt>
<pdfrwt beam="1">  1        2 0.99591462E+00 0.14915698E+02</pdfrwt>
<pdfrwt beam="2">  1       -2 0.98462175E+00 0.14915698E+02</pdfrwt>
<totfact> 0.48185956E-13</totfact>
</mgrwt>
</event>
<event>
 4    1 -0.4926183E-019  0.1491950E+02  0.7818608E-02  0.1870535E+00
          2   -1    0    0  501    0  0.00000000000E+00  0.00000000000E+00  0.11883789639E+03  0.11883789642E+03  0.25500000000E-02 0. -1.
         -2   -1    0    0    0  501 -0.00000000000E+00 -0.00000000000E+00 -0.46826349979E+00  0.46827044294E+00  0.25500000000E-02 0.  1.
         31    1    1    2    0    0  0.47232211170E-01 -0.20229741553E+00  0.56131558966E+02  0.56623793525E+02  0.74470750000E+01 0.  1.
        -31    1    1    2    0    0 -0.47232211170E-01  0.20229741553E+00  0.62238073926E+02  0.62682373337E+02  0.74470750000E+01 0. -1.
<mgrwt>
<rscale>  0 0.14919499E+02</rscale>
<asrwt>0</asrwt>
<pdfrwt beam="1">  1        2 0.98650686E+00 0.14919499E+02</pdfrwt>
<pdfrwt beam="2">  1       -2 0.99451828E+00 0.14919499E+02</pdfrwt>
<totfact>-0.27463299E-13</totfact>
</mgrwt>
</event>
<event>
 4    1 -0.4926183E-019  0.1499678E+02  0.7818608E-02  0.1868167E+00
         -2   -1    0    0    0  501 -0.00000000000E+00  0.00000000000E+00  0.11988441456E+03  0.11988441458E+03  0.25500000000E-02 0. -1.
          2   -1    0    0  501    0  0.00000000000E+00 -0.00000000000E+00 -0.46899686900E+00  0.46900380130E+00  0.25500000000E-02 0.  1.
         31    1    1    2    0    0  0.44742503666E+00 -0.74726346033E+00  0.58975867716E+02  0.59450571828E+02  0.74470750000E+01 0. -1.
        -31    1    1    2    0    0 -0.44742503666E+00  0.74726346033E+00  0.60439549971E+02  0.60902846556E+02  0.74470750000E+01 0. -1.
<mgrwt>
<rscale>  0 0.14996778E+02</rscale>
<asrwt>0</asrwt>
<pdfrwt beam="2">  1        2 0.99610388E+00 0.14996778E+02</pdfrwt>
<pdfrwt beam="1">  1       -2 0.99516627E+00 0.14996778E+02</pdfrwt>
<totfact>-0.10342518E-13</totfact>
</mgrwt>
</event>
<event>
 4    1 -0.4926183E-019  0.1495663E+02  0.7818608E-02  0.1869395E+00
          2   -1    0    0  501    0  0.00000000000E+00  0.00000000000E+00  0.11890532804E+03  0.11890532807E+03  0.25500000000E-02 0. -1.
         -2   -1    0    0    0  501 -0.00000000000E+00 -0.00000000000E+00 -0.47033032591E+00  0.47033723855E+00  0.25500000000E-02 0.  1.
         31    1    1    2    0    0  0.25402505374E+00 -0.25800488581E+00  0.54596694142E+02  0.55103439389E+02  0.74470750000E+01 0.  1.
        -31    1    1    2    0    0 -0.25402505374E+00  0.25800488581E+00  0.63838303577E+02  0.64272225922E+02  0.74470750000E+01 0.  1.
<mgrwt>
<rscale>  0 0.14956630E+02</rscale>
<asrwt>0</asrwt>
<pdfrwt beam="1">  1        2 0.98708152E+00 0.14956630E+02</pdfrwt>
<pdfrwt beam="2">  1       -2 0.99889276E+00 0.14956630E+02</pdfrwt>
<totfact>-0.90110340E-14</totfact>
</mgrwt>
</event>
<event>
 4    1 -0.4926183E-019  0.1501441E+02  0.7818608E-02  0.1867629E+00
         -2   -1    0    0    0  501 -0.00000000000E+00  0.00000000000E+00  0.12009166967E+03  0.12009166970E+03  0.25500000000E-02 0.  1.
          2   -1    0    0  501    0  0.00000000000E+00 -0.00000000000E+00 -0.46928935418E+00  0.46929628216E+00  0.25500000000E-02 0. -1.
         31    1    1    2    0    0 -0.40678044732E+00  0.51495275579E+00  0.65307790844E+02  0.65734291794E+02  0.74470750000E+01 0.  1.
        -31    1    1    2    0    0  0.40678044732E+00 -0.51495275579E+00  0.54314589474E+02  0.54826674188E+02  0.74470750000E+01 0. -1.
<mgrwt>
<rscale>  0 0.15014415E+02</rscale>
<asrwt>0</asrwt>
<pdfrwt beam="2">  1        2 0.99672937E+00 0.15014415E+02</pdfrwt>
<pdfrwt beam="1">  1       -2 0.99688242E+00 0.15014415E+02</pdfrwt>
<totfact>-0.76550111E-14</totfact>
</mgrwt>
</event>
<event>
 4    1  0.4926183E-019  0.1490449E+02  0.7818608E-02  0.1870997E+00
         -2   -1    0    0    0  501 -0.00000000000E+00  0.00000000000E+00  0.11848142338E+03  0.11848142340E+03  0.25500000000E-02 0.  1.
          2   -1    0    0  501    0  0.00000000000E+00 -0.00000000000E+00 -0.46872780192E+00  0.46873473820E+00  0.25500000000E-02 0. -1.
         31    1    1    2    0    0 -0.10353685284E+00 -0.15633055025E+00  0.60639322172E+02  0.61095183760E+02  0.74470750000E+01 0.  1.
        -31    1    1    2    0    0  0.10353685284E+00  0.15633055025E+00  0.57373373401E+02  0.57854974381E+02  0.74470750000E+01 0. -1.
<mgrwt>
<rscale>  0 0.14904489E+02</rscale>
<asrwt>0</asrwt>
<pdfrwt beam="2">  1        2 0.99548873E+00 0.14904489E+02</pdfrwt>
<pdfrwt beam="1">  1       -2 0.98356313E+00 0.14904489E+02</pdfrwt>
<totfact> 0.66369678E-13</totfact>
</mgrwt>
</event>
<event>
 4    1 -0.4926183E-019  0.1495599E+02  0.7818608E-02  0.1869414E+00
         -2   -1    0    0    0  501 -0.00000000000E+00  0.00000000000E+00  0.11975455151E+03  0.11975455154E+03  0.25500000000E-02 0. -1.
          2   -1    0    0  501    0  0.00000000000E+00 -0.00000000000E+00 -0.46695519331E+00  0.46696215592E+00  0.25500000000E-02 0.  1.
         31    1    1    2    0    0  0.18256388738E+00 -0.64722464634E+00  0.58869669562E+02  0.59342641918E+02  0.74470750000E+01 0.  1.
        -31    1    1    2    0    0 -0.18256388738E+00  0.64722464634E+00  0.60417926755E+02  0.60878871777E+02  0.74470750000E+01 0.  1.
<mgrwt>
<rscale>  0 0.14955993E+02</rscale>
<asrwt>0</asrwt>
<pdfrwt beam="2">  1        2 0.99178028E+00 0.14955993E+02</pdfrwt>
<pdfrwt beam="1">  1       -2 0.99407559E+00 0.14955993E+02</pdfrwt>
<totfact>-0.15124688E-13</totfact>
</mgrwt>
</event>
<event>
 4    1  0.4926183E-019  0.1491390E+02  0.7818608E-02  0.1870707E+00
         -2   -1    0    0    0  501 -0.00000000000E+00  0.00000000000E+00  0.11889224154E+03  0.11889224157E+03  0.25500000000E-02 0. -1.
          2   -1    0    0  501    0  0.00000000000E+00 -0.00000000000E+00 -0.46769835029E+00  0.46770530183E+00  0.25500000000E-02 0.  1.
         31    1    1    2    0    0  0.10874718152E+00  0.20474246322E+00  0.61658841057E+02  0.62107369547E+02  0.74470750000E+01 0. -1.
        -31    1    1    2    0    0 -0.10874718152E+00 -0.20474246322E+00  0.56765702134E+02  0.57252577324E+02  0.74470750000E+01 0.  1.
<mgrwt>
<rscale>  0 0.14913902E+02</rscale>
<asrwt>0</asrwt>
<pdfrwt beam="2">  1        2 0.99332450E+00 0.14913902E+02</pdfrwt>
<pdfrwt beam="1">  1       -2 0.98695155E+00 0.14913902E+02</pdfrwt>
<totfact> 0.28916162E-13</totfact>
</mgrwt>
</event>
<event>
 4    1  0.4926183E-019  0.1495888E+02  0.7818608E-02  0.1869326E+00
         -2   -1    0    0    0  501 -0.00000000000E+00  0.00000000000E+00  0.11894683910E+03  0.11894683913E+03  0.25500000000E-02 0.  1.
          2   -1    0    0  501    0  0.00000000000E+00 -0.00000000000E+00 -0.47030749155E+00  0.47031440453E+00  0.25500000000E-02 0. -1.
         31    1    1    2    0    0 -0.27819663108E+00 -0.60794186751E+00  0.57721675425E+02  0.58203932227E+02  0.74470750000E+01 0. -1.
        -31    1    1    2    0    0  0.27819663108E+00  0.60794186751E+00  0.60754856187E+02  0.61213221309E+02  0.74470750000E+01 0.  1.
<mgrwt>
<rscale>  0 0.14958877E+02</rscale>
<asrwt>0</asrwt>
<pdfrwt beam="2">  1        2 0.99884583E+00 0.14958877E+02</pdfrwt>
<pdfrwt beam="1">  1       -2 0.98742458E+00 0.14958877E+02</pdfrwt>
<totfact> 0.70912101E-14</totfact>
</mgrwt>
</event>
<event>
 4    1 -0.4926183E-019  0.1493886E+02  0.7818608E-02  0.1869940E+00
         -2   -1    0    0    0  501 -0.00000000000E+00  0.00000000000E+00  0.12028447345E+03  0.12028447348E+03  0.25500000000E-02 0. -1.
          2   -1    0    0  501    0  0.00000000000E+00 -0.00000000000E+00 -0.46383320877E+00  0.46384021824E+00  0.25500000000E-02 0.  1.
         31    1    1    2    0    0 -0.35048817722E+00  0.17423551871E+00  0.56478853645E+02  0.56969053311E+02  0.74470750000E+01 0.  1.
        -31    1    1    2    0    0  0.35048817722E+00 -0.17423551871E+00  0.63341786596E+02  0.63779260384E+02  0.74470750000E+01 0. -1.
<mgrwt>
<rscale>  0 0.14938856E+02</rscale>
<asrwt>0</asrwt>
<pdfrwt beam="2">  1        2 0.98519183E+00 0.14938856E+02</pdfrwt>
<pdfrwt beam="1">  1       -2 0.99843154E+00 0.14938856E+02</pdfrwt>
<totfact>-0.16335624E-13</totfact>
</mgrwt>
</event>
<event>
 4    1  0.4926183E-019  0.1493058E+02  0.7818608E-02  0.1870194E+00
          2   -1    0    0  501    0  0.00000000000E+00  0.00000000000E+00  0.11979215641E+03  0.11979215643E+03  0.25500000000E-02 0.  1.
         -2   -1    0    0    0  501 -0.00000000000E+00 -0.00000000000E+00 -0.46522324811E+00  0.46523023664E+00  0.25500000000E-02 0. -1.
         31    1    1    2    0    0 -0.73287929294E-01 -0.51255735470E+00  0.59186569974E+02  0.59655486566E+02  0.74470750000E+01 0. -1.
        -31    1    1    2    0    0  0.73287929294E-01  0.51255735470E+00  0.60140363184E+02  0.60601900103E+02  0.74470750000E+01 0. -1.
<mgrwt>
<rscale>  0 0.14930575E+02</rscale>
<asrwt>0</asrwt>
<pdfrwt beam="1">  1        2 0.99437221E+00 0.14930575E+02</pdfrwt>
<pdfrwt beam="2">  1       -2 0.98811724E+00 0.14930575E+02</pdfrwt>
<totfact> 0.14991710E-13</totfact>
</mgrwt>
</event>
<event>
 4    1  0.4926183E-019  0.1489938E+02  0.7818608E-02  0.1871155E+00
          2   -1    0    0  501    0  0.00000000000E+00  0.00000000000E+00  0.11963445970E+03  0.11963445972E+03  0.25500000000E-02 0. -1.
         -2   -1    0    0    0  501 -0.00000000000E+00 -0.00000000000E+00 -0.46389181478E+00  0.46389882336E+00  0.25500000000E-02 0.  1.
         31    1    1    2    0    0 -0.18024471575E+00 -0.79136871163E-01  0.59473519076E+02  0.59938277821E+02  0.74470750000E+01 0.  1.
        -31    1    1    2    0    0  0.18024471575E+00  0.79136871163E-01  0.59697048806E+02  0.60160080727E+02  0.74470750000E+01 0.  1.
<mgrwt>
<rscale>  0 0.14899378E+02</rscale>
<asrwt>0</asrwt>
<pdfrwt beam="1">  1        2 0.99305726E+00 0.14899378E+02</pdfrwt>
<pdfrwt beam="2">  1       -2 0.98529526E+00 0.14899378E+02</pdfrwt>
<totfact> 0.52345670E-13</totfact>
</mgrwt>
</event>
<event>
 4    1 -0.4926183E-019  0.1492168E+02  0.7818608E-02  0.1870468E+00
         -2   -1    0    0    0  501 -0.00000000000E+00  0.00000000000E+00  0.11983831966E+03  0.11983831969E+03  0.25500000000E-02 0. -1.
          2   -1    0    0  501    0  0.00000000000E+00 -0.00000000000E+00 -0.46449010129E+00  0.46449710085E+00  0.25500000000E-02 0.  1.
         31    1    1    2    0    0  0.16720350325E+00  0.37462642202E+00  0.61235794191E+02  0.61688327244E+02  0.74470750000E+01 0. -1.
        -31    1    1    2    0    0 -0.16720350325E+00 -0.37462642202E+00  0.58138035367E+02  0.58614489543E+02  0.74470750000E+01 0.  1.
<mgrwt>
<rscale>  0 0.14921680E+02</rscale>
<asrwt>0</asrwt>
<pdfrwt beam="2">  1        2 0.98656756E+00 0.14921680E+02</pdfrwt>
<pdfrwt beam="1">  1       -2 0.99474786E+00 0.14921680E+02</pdfrwt>
<totfact>-0.27277100E-13</totfact>
</mgrwt>
</event>
<event>
 4    1 -0.4926183E-019  0.1492182E+02  0.7818608E-02  0.1870464E+00
          2   -1    0    0  501    0  0.00000000000E+00  0.00000000000E+00  0.11893835656E+03  0.11893835658E+03  0.25500000000E-02 0. -1.
         -2   -1    0    0    0  501 -0.00000000000E+00 -0.00000000000E+00 -0.46801329544E+00  0.46802024230E+00  0.25500000000E-02 0.  1.
         31    1    1    2    0    0 -0.33312974249E+00  0.25553014818E+00  0.57850283271E+02  0.58329156275E+02  0.74470750000E+01 0.  1.
        -31    1    1    2    0    0  0.33312974249E+00 -0.25553014818E+00  0.60620059989E+02  0.61077220550E+02  0.74470750000E+01 0.  1.
<mgrwt>
<rscale>  0 0.14921816E+02</rscale>
<asrwt>0</asrwt>
<pdfrwt beam="1">  1        2 0.98733547E+00 0.14921816E+02</pdfrwt>
<pdfrwt beam="2">  1       -2 0.99399228E+00 0.14921816E+02</pdfrwt>
<totfact>-0.23848371E-13</totfact>
</mgrwt>
</event>
<event>
 4    1 -0.4926183E-019  0.1492722E+02  0.7818608E-02  0.1870297E+00
         -2   -1    0    0    0  501 -0.00000000000E+00  0.00000000000E+00  0.12012490155E+03  0.12012490157E+03  0.25500000000E-02 0. -1.
          2   -1    0    0  501    0  0.00000000000E+00 -0.00000000000E+00 -0.46372634055E+00  0.46373335164E+00  0.25500000000E-02 0.  1.
         31    1    1    2    0    0 -0.25932970185E+00 -0.42341517389E+00  0.59775201839E+02  0.60239357677E+02  0.74470750000E+01 0.  1.
        -31    1    1    2    0    0  0.25932970185E+00  0.42341517389E+00  0.59885973367E+02  0.60349277249E+02  0.74470750000E+01 0.  1.
<mgrwt>
<rscale>  0 0.14927224E+02</rscale>
<asrwt>0</asrwt>
<pdfrwt beam="2">  1        2 0.98496069E+00 0.14927224E+02</pdfrwt>
<pdfrwt beam="1">  1       -2 0.99711121E+00 0.14927224E+02</pdfrwt>
<totfact>-0.27293792E-13</totfact>
</mgrwt>
</event>
<event>
 4    1 -0.4926183E-019  0.1500479E+02  0.7818608E-02  0.1867923E+00
         -2   -1    0    0    0  501 -0.00000000000E+00  0.00000000000E+00  0.11971507265E+03  0.11971507268E+03  0.25500000000E-02 0.  1.
          2   -1    0    0  501    0  0.00000000000E+00 -0.00000000000E+00 -0.47016199113E+00  0.47016890625E+00  0.25500000000E-02 0. -1.
         31    1    1    2    0    0 -0.65625060947E+00 -0.56382644828E+00  0.61865239565E+02  0.62317857453E+02  0.74470750000E+01 0.  1.
        -31    1    1    2    0    0  0.65625060947E+00  0.56382644828E+00  0.57379671098E+02  0.57867384134E+02  0.74470750000E+01 0.  1.
<mgrwt>
<rscale>  0 0.15004785E+02</rscale>
<asrwt>0</asrwt>
<pdfrwt beam="2">  1        2 0.99856327E+00 0.15004785E+02</pdfrwt>
<pdfrwt beam="1">  1       -2 0.99377567E+00 0.15004785E+02</pdfrwt>
<totfact>-0.48156905E-14</totfact>
</mgrwt>
</event>
<event>
 4    1 -0.4926183E-019  0.1497038E+02  0.7818608E-02  0.1868974E+00
         -2   -1    0    0    0  501 -0.00000000000E+00  0.00000000000E+00  0.12031516146E+03  0.12031516149E+03  0.25500000000E-02 0. -1.
          2   -1    0    0  501    0  0.00000000000E+00 -0.00000000000E+00 -0.46567374875E+00  0.46568073051E+00  0.25500000000E-02 0.  1.
         31    1    1    2    0    0 -0.39958587884E+00  0.12502932156E+00  0.64987742101E+02  0.65414378012E+02  0.74470750000E+01 0. -1.
        -31    1    1    2    0    0  0.39958587884E+00 -0.12502932156E+00  0.54861745611E+02  0.55366464207E+02  0.74470750000E+01 0.  1.
<mgrwt>
<rscale>  0 0.14970375E+02</rscale>
<asrwt>0</asrwt>
<pdfrwt beam="2">  1        2 0.98908701E+00 0.14970375E+02</pdfrwt>
<pdfrwt beam="1">  1       -2 0.99870051E+00 0.14970375E+02</pdfrwt>
<totfact>-0.80793256E-14</totfact>
</mgrwt>
</event>
<event>
 4    1  0.4926183E-019  0.1491766E+02  0.7818608E-02  0.1870592E+00
          2   -1    0    0  501    0  0.00000000000E+00  0.00000000000E+00  0.12044622365E+03  0.12044622368E+03  0.25500000000E-02 0. -1.
         -2   -1    0    0    0  501 -0.00000000000E+00 -0.00000000000E+00 -0.46189646187E+00  0.46190350073E+00  0.25500000000E-02 0.  1.
         31    1    1    2    0    0 -0.70887836993E-01  0.38549611605E+00  0.61182067615E+02  0.61634876134E+02  0.74470750000E+01 0. -1.
        -31    1    1    2    0    0  0.70887836993E-01 -0.38549611605E+00  0.58802259574E+02  0.59273251044E+02  0.74470750000E+01 0. -1.
<mgrwt>
<rscale>  0 0.14917656E+02</rscale>
<asrwt>0</asrwt>
<pdfrwt beam="1">  1        2 0.99975299E+00 0.14917656E+02</pdfrwt>
<pdfrwt beam="2">  1       -2 0.98109897E+00 0.14917656E+02</pdfrwt>
<totfact> 0.96024513E-14</totfact>
</mgrwt>
</event>
<event>
 4    1  0.4926183E-019  0.1492353E+02  0.7818608E-02  0.1870411E+00
         -2   -1    0    0    0  501 -0.00000000000E+00  0.00000000000E+00  0.11861608100E+03  0.11861608103E+03  0.25500000000E-02 0.  1.
          2   -1    0    0  501    0  0.00000000000E+00 -0.00000000000E+00 -0.46939294146E+00  0.46939986790E+00  0.25500000000E-02 0. -1.
         31    1    1    2    0    0  0.10763204925E+00  0.39536146180E+00  0.60877955503E+02  0.61333125533E+02  0.74470750000E+01 0. -1.
        -31    1    1    2    0    0 -0.10763204925E+00 -0.39536146180E+00  0.57268732557E+02  0.57752355364E+02  0.74470750000E+01 0. -1.
<mgrwt>
<rscale>  0 0.14923534E+02</rscale>
<asrwt>0</asrwt>
<pdfrwt beam="2">  1        2 0.99690023E+00 0.14923534E+02</pdfrwt>
<pdfrwt beam="1">  1       -2 0.98468208E+00 0.14923534E+02</pdfrwt>
<totfact> 0.39941574E-13</totfact>
</mgrwt>
</event>
<event>
 4    1  0.4926183E-019  0.1493398E+02  0.7818608E-02  0.1870090E+00
          2   -1    0    0  501    0  0.00000000000E+00  0.00000000000E+00  0.12025341613E+03  0.12025341616E+03  0.25500000000E-02 0. -1.
         -2   -1    0    0    0  501 -0.00000000000E+00 -0.00000000000E+00 -0.46364992252E+00  0.46365693477E+00  0.25500000000E-02 0.  1.
         31    1    1    2    0    0  0.45883090825E+00  0.24714992315E+00  0.61182579509E+02  0.61636341312E+02  0.74470750000E+01 0.  1.
        -31    1    1    2    0    0 -0.45883090825E+00 -0.24714992315E+00  0.58607186703E+02  0.59080731784E+02  0.74470750000E+01 0. -1.
<mgrwt>
<rscale>  0 0.14933976E+02</rscale>
<asrwt>0</asrwt>
<pdfrwt beam="1">  1        2 0.99817322E+00 0.14933976E+02</pdfrwt>
<pdfrwt beam="2">  1       -2 0.98480305E+00 0.14933976E+02</pdfrwt>
<totfact> 0.26191213E-13</totfact>
</mgrwt>
</event>
<event>
 4    1 -0.4926183E-019  0.1497781E+02  0.7818608E-02  0.1868746E+00
          2   -1    0    0  501    0  0.00000000000E+00  0.00000000000E+00  0.11963415211E+03  0.11963415214E+03  0.25500000000E-02 0. -1.
         -2   -1    0    0    0  501 -0.00000000000E+00 -0.00000000000E+00 -0.46878975938E+00  0.46879669474E+00  0.25500000000E-02 0.  1.
         31    1    1    2    0    0  0.33973176406E+00  0.39354308377E+00  0.64356778145E+02  0.64788302286E+02  0.74470750000E+01 0. -1.
        -31    1    1    2    0    0 -0.33973176406E+00 -0.39354308377E+00  0.54808584207E+02  0.55314646547E+02  0.74470750000E+01 0.  1.
<mgrwt>
<rscale>  0 0.14977808E+02</rscale>
<asrwt>0</asrwt>
<pdfrwt beam="1">  1        2 0.99309521E+00 0.14977808E+02</pdfrwt>
<pdfrwt beam="2">  1       -2 0.99565761E+00 0.14977808E+02</pdfrwt>
<totfact>-0.13547166E-13</totfact>
</mgrwt>
</event>
<event>
 4    1 -0.4926183E-019  0.1492325E+02  0.7818608E-02  0.1870420E+00
          2   -1    0    0  501    0  0.00000000000E+00  0.00000000000E+00  0.11844075131E+03  0.11844075134E+03  0.25500000000E-02 0. -1.
         -2   -1    0    0    0  501 -0.00000000000E+00 -0.00000000000E+00 -0.47007010610E+00  0.47007702257E+00  0.25500000000E-02 0.  1.
         31    1    1    2    0    0 -0.13492603185E+00 -0.22416231032E+00  0.55914863489E+02  0.56409213244E+02  0.74470750000E+01 0.  1.
        -31    1    1    2    0    0  0.13492603185E+00  0.22416231032E+00  0.62055817719E+02  0.62501615120E+02  0.74470750000E+01 0. -1.
<mgrwt>
<rscale>  0 0.14923253E+02</rscale>
<asrwt>0</asrwt>
<pdfrwt beam="1">  1        2 0.98323793E+00 0.14923253E+02</pdfrwt>
<pdfrwt beam="2">  1       -2 0.99832687E+00 0.14923253E+02</pdfrwt>
<totfact>-0.23854285E-13</totfact>
</mgrwt>
</event>
<event>
 4    1  0.4926183E-019  0.1491776E+02  0.7818608E-02  0.1870589E+00
         -2   -1    0    0    0  501 -0.00000000000E+00  0.00000000000E+00  0.11840443683E+03  0.11840443686E+03  0.25500000000E-02 0.  1.
          2   -1    0    0  501    0  0.00000000000E+00 -0.00000000000E+00 -0.46986805556E+00  0.46987497500E+00  0.25500000000E-02 0. -1.
         31    1    1    2    0    0  0.17872420749E+00 -0.59669987675E-01  0.61953629025E+02  0.62399892454E+02  0.74470750000E+01 0.  1.
        -31    1    1    2    0    0 -0.17872420749E+00  0.59669987675E-01  0.55980939753E+02  0.56474419382E+02  0.74470750000E+01 0. -1.
<mgrwt>
<rscale>  0 0.14917758E+02</rscale>
<asrwt>0</asrwt>
<pdfrwt beam="2">  1        2 0.99789825E+00 0.14917758E+02</pdfrwt>
<pdfrwt beam="1">  1       -2 0.98293598E+00 0.14917758E+02</pdfrwt>
<totfact> 0.46092098E-13</totfact>
</mgrwt>
</event>
<event>
 4    1 -0.4926183E-019  0.1489614E+02  0.7818608E-02  0.1871254E+00
          2   -1    0    0  501    0  0.00000000000E+00  0.00000000000E+00  0.11855379218E+03  0.11855379221E+03  0.25500000000E-02 0. -1.
         -2   -1    0    0    0  501 -0.00000000000E+00 -0.00000000000E+00 -0.46791707497E+00  0.46792402327E+00  0.25500000000E-02 0.  1.
         31    1    1    2    0    0 -0.44306764111E-01  0.10223212432E+00  0.58650019050E+02  0.59121029043E+02  0.74470750000E+01 0.  1.
        -31    1    1    2    0    0  0.44306764111E-01 -0.10223212432E+00  0.59435856059E+02  0.59900687191E+02  0.74470750000E+01 0. -1.
<mgrwt>
<rscale>  0 0.14896142E+02</rscale>
<asrwt>0</asrwt>
<pdfrwt beam="1">  1        2 0.98415483E+00 0.14896142E+02</pdfrwt>
<pdfrwt beam="2">  1       -2 0.99377609E+00 0.14896142E+02</pdfrwt>
<totfact>-0.38374568E-13</totfact>
</mgrwt>
</event>
<event>
 4    1 -0.4926183E-019  0.1496357E+02  0.7818608E-02  0.1869182E+00
          2   -1    0    0  501    0  0.00000000000E+00  0.00000000000E+00  0.11980437793E+03  0.11980437795E+03  0.25500000000E-02 0.  1.
         -2   -1    0    0    0  501 -0.00000000000E+00 -0.00000000000E+00 -0.46723434607E+00  0.46724130452E+00  0.25500000000E-02 0. -1.
         31    1    1    2    0    0 -0.52889293511E+00 -0.32263675110E+00  0.56722017076E+02  0.57212148792E+02  0.74470750000E+01 0.  1.
        -31    1    1    2    0    0  0.52889293511E+00  0.32263675110E+00  0.62615126504E+02  0.63059470466E+02  0.74470750000E+01 0.  1.
<mgrwt>
<rscale>  0 0.14963574E+02</rscale>
<asrwt>0</asrwt>
<pdfrwt beam="1">  1        2 0.99448990E+00 0.14963574E+02</pdfrwt>
<pdfrwt beam="2">  1       -2 0.99237247E+00 0.14963574E+02</pdfrwt>
<totfact>-0.93867426E-14</totfact>
</mgrwt>
</event>
<event>
 4    1  0.4926183E-019  0.1492796E+02  0.7818608E-02  0.1870275E+00
         -2   -1    0    0    0  501 -0.00000000000E+00  0.00000000000E+00  0.11874709541E+03  0.11874709544E+03  0.25500000000E-02 0. -1.
          2   -1    0    0  501    0  0.00000000000E+00 -0.00000000000E+00 -0.46915341423E+00  0.46916034422E+00  0.25500000000E-02 0.  1.
         31    1    1    2    0    0 -0.30360733057E+00  0.37174750939E+00  0.60315947116E+02  0.60775840399E+02  0.74470750000E+01 0.  1.
        -31    1    1    2    0    0  0.30360733057E+00 -0.37174750939E+00  0.57961994883E+02  0.58440415386E+02  0.74470750000E+01 0.  1.
<mgrwt>
<rscale>  0 0.14927963E+02</rscale>
<asrwt>0</asrwt>
<pdfrwt beam="2">  1        2 0.99639787E+00 0.14927963E+02</pdfrwt>
<pdfrwt beam="1">  1       -2 0.98576341E+00 0.14927963E+02</pdfrwt>
<totfact> 0.32020016E-13</totfact>
</mgrwt>
</event>
<event>
 4    1 -0.4926183E-019  0.1492843E+02  0.7818608E-02  0.1870260E+00
         -2   -1    0    0    0  501 -0.00000000000E+00  0.00000000000E+00  0.11981748551E+03  0.11981748554E+03  0.25500000000E-02 0.  1.
          2   -1    0    0  501    0  0.00000000000E+00 -0.00000000000E+00 -0.46499099532E+00  0.46499798734E+00  0.25500000000E-02 0. -1.
         31    1    1    2    0    0 -0.29721617801E+00  0.36831645426E+00  0.58245009177E+02  0.58721069596E+02  0.74470750000E+01 0. -1.
        -31    1    1    2    0    0  0.29721617801E+00 -0.36831645426E+00  0.61107485339E+02  0.61561413929E+02  0.74470750000E+01 0.  1.
<mgrwt>
<rscale>  0 0.14928426E+02</rscale>
<asrwt>0</asrwt>
<pdfrwt beam="2">  1        2 0.98762666E+00 0.14928426E+02</pdfrwt>
<pdfrwt beam="1">  1       -2 0.99457973E+00 0.14928426E+02</pdfrwt>
<totfact>-0.23470283E-13</totfact>
</mgrwt>
</event>
<event>
 4    1  0.4926183E-019  0.1491463E+02  0.7818608E-02  0.1870685E+00
          2   -1    0    0  501    0  0.00000000000E+00  0.00000000000E+00  0.11978507429E+03  0.11978507432E+03  0.25500000000E-02 0. -1.
         -2   -1    0    0    0  501 -0.00000000000E+00 -0.00000000000E+00 -0.46425778724E+00  0.46426479030E+00  0.25500000000E-02 0.  1.
         31    1    1    2    0    0 -0.35593256663E+00  0.15605149152E+00  0.59983925617E+02  0.60445688833E+02  0.74470750000E+01 0. -1.
        -31    1    1    2    0    0  0.35593256663E+00 -0.15605149152E+00  0.59336890887E+02  0.59803650275E+02  0.74470750000E+01 0. -1.
<mgrwt>
<rscale>  0 0.14914634E+02</rscale>
<asrwt>0</asrwt>
<pdfrwt beam="1">  1        2 0.99430567E+00 0.14914634E+02</pdfrwt>
<pdfrwt beam="2">  1       -2 0.98607435E+00 0.14914634E+02</pdfrwt>
<totfact> 0.37125082E-13</totfact>
</mgrwt>
</event>
<event>
 4    1 -0.4926183E-019  0.1495666E+02  0.7818608E-02  0.1869394E+00
         -2   -1    0    0    0  501 -0.00000000000E+00  0.00000000000E+00  0.11979458534E+03  0.11979458536E+03  0.25500000000E-02 0.  1.
          2   -1    0    0  501    0  0.00000000000E+00 -0.00000000000E+00 -0.46684080979E+00  0.46684777410E+00  0.25500000000E-02 0. -1.
         31    1    1    2    0    0  0.49932978853E+00 -0.17070120455E+00  0.56177279699E+02  0.56671193296E+02  0.74470750000E+01 0.  1.
        -31    1    1    2    0    0 -0.49932978853E+00  0.17070120455E+00  0.63150464828E+02  0.63590239843E+02  0.74470750000E+01 0.  1.
<mgrwt>
<rscale>  0 0.14956660E+02</rscale>
<asrwt>0</asrwt>
<pdfrwt beam="2">  1        2 0.99153957E+00 0.14956660E+02</pdfrwt>
<pdfrwt beam="1">  1       -2 0.99440567E+00 0.14956660E+02</pdfrwt>
<totfact>-0.15627752E-13</totfact>
</mgrwt>
</event>
<event>
 4    1 -0.4926183E-019  0.1499425E+02  0.7818608E-02  0.1868244E+00
         -2   -1    0    0    0  501 -0.00000000000E+00  0.00000000000E+00  0.12023367159E+03  0.12023367161E+03  0.25500000000E-02 0.  1.
          2   -1    0    0  501    0  0.00000000000E+00 -0.00000000000E+00 -0.46747674363E+00  0.46748369847E+00  0.25500000000E-02 0. -1.
         31    1    1    2    0    0  0.48955292674E-01 -0.64500460064E-01  0.66814294439E+02  0.67228085086E+02  0.74470750000E+01 0.  1.
        -31    1    1    2    0    0 -0.48955292674E-01  0.64500460064E-01  0.52951900403E+02  0.53473070225E+02  0.74470750000E+01 0. -1.
<mgrwt>
<rscale>  0 0.14994248E+02</rscale>
<asrwt>0</asrwt>
<pdfrwt beam="2">  1        2 0.99289907E+00 0.14994248E+02</pdfrwt>
<pdfrwt beam="1">  1       -2 0.99804160E+00 0.14994248E+02</pdfrwt>
<totfact>-0.82935098E-14</totfact>
</mgrwt>
</event>
<event>
 4    1 -0.4926183E-019  0.1491153E+02  0.7818608E-02  0.1870780E+00
         -2   -1    0    0    0  501 -0.00000000000E+00  0.00000000000E+00  0.11953551328E+03  0.11953551331E+03  0.25500000000E-02 0.  1.
          2   -1    0    0  501    0  0.00000000000E+00 -0.00000000000E+00 -0.46503345650E+00  0.46504044788E+00  0.25500000000E-02 0. -1.
         31    1    1    2    0    0  0.68653339987E-01  0.74437345309E-01  0.62314294666E+02  0.62757792344E+02  0.74470750000E+01 0.  1.
        -31    1    1    2    0    0 -0.68653339987E-01 -0.74437345309E-01  0.56756185157E+02  0.57242761409E+02  0.74470750000E+01 0. -1.
<mgrwt>
<rscale>  0 0.14911530E+02</rscale>
<asrwt>0</asrwt>
<pdfrwt beam="2">  1        2 0.98770749E+00 0.14911530E+02</pdfrwt>
<pdfrwt beam="1">  1       -2 0.99224854E+00 0.14911530E+02</pdfrwt>
<totfact>-0.16734144E-13</totfact>
</mgrwt>
</event>
<event>
 4    1  0.4926183E-019  0.1489875E+02  0.7818608E-02  0.1871174E+00
          2   -1    0    0  501    0  0.00000000000E+00  0.00000000000E+00  0.12043405063E+03  0.12043405065E+03  0.25500000000E-02 0. -1.
         -2   -1    0    0    0  501 -0.00000000000E+00 -0.00000000000E+00 -0.46077324970E+00  0.46078030572E+00  0.25500000000E-02 0.  1.
         31    1    1    2    0    0  0.41709929762E-01  0.15144390515E+00  0.60782349138E+02  0.61237060411E+02  0.74470750000E+01 0. -1.
        -31    1    1    2    0    0 -0.41709929762E-01 -0.15144390515E+00  0.59190928240E+02  0.59657770550E+02  0.74470750000E+01 0.  1.
<mgrwt>
<rscale>  0 0.14898754E+02</rscale>
<asrwt>0</asrwt>
<pdfrwt beam="1">  1        2 0.99964305E+00 0.14898754E+02</pdfrwt>
<pdfrwt beam="2">  1       -2 0.97872195E+00 0.14898754E+02</pdfrwt>
<totfact> 0.20433899E-13</totfact>
</mgrwt>
</event>
<event>
 4    1  0.4926183E-019  0.1490703E+02  0.7818608E-02  0.1870919E+00
         -2   -1    0    0    0  501 -0.00000000000E+00  0.00000000000E+00  0.11813214118E+03  0.11813214121E+03  0.25500000000E-02 0.  1.
          2   -1    0    0  501    0  0.00000000000E+00 -0.00000000000E+00 -0.47027405454E+00  0.47028096801E+00  0.25500000000E-02 0. -1.
         31    1    1    2    0    0  0.27033930889E+00 -0.13361223206E+00  0.59395258292E+02  0.59861060542E+02  0.74470750000E+01 0.  1.
        -31    1    1    2    0    0 -0.27033930889E+00  0.13361223206E+00  0.58266608836E+02  0.58741361636E+02  0.74470750000E+01 0.  1.
<mgrwt>
<rscale>  0 0.14907031E+02</rscale>
<asrwt>0</asrwt>
<pdfrwt beam="2">  1        2 0.99874797E+00 0.14907031E+02</pdfrwt>
<pdfrwt beam="1">  1       -2 0.98068781E+00 0.14907031E+02</pdfrwt>
<totfact> 0.46909747E-13</totfact>
</mgrwt>
</event>
<event>
 4    1 -0.4926183E-019  0.1490948E+02  0.7818608E-02  0.1870844E+00
          2   -1    0    0  501    0  0.00000000000E+00  0.00000000000E+00  0.11868478604E+03  0.11868478607E+03  0.25500000000E-02 0.  1.
         -2   -1    0    0    0  501 -0.00000000000E+00 -0.00000000000E+00 -0.46823778674E+00  0.46824473028E+00  0.25500000000E-02 0. -1.
         31    1    1    2    0    0  0.20042883355E+00  0.26158675468E+00  0.58510682570E+02  0.58983620609E+02  0.74470750000E+01 0.  1.
        -31    1    1    2    0    0 -0.20042883355E+00 -0.26158675468E+00  0.59705865687E+02  0.60169410192E+02  0.74470750000E+01 0.  1.
<mgrwt>
<rscale>  0 0.14909476E+02</rscale>
<asrwt>0</asrwt>
<pdfrwt beam="1">  1        2 0.98524063E+00 0.14909476E+02</pdfrwt>
<pdfrwt beam="2">  1       -2 0.99445885E+00 0.14909476E+02</pdfrwt>
<totfact>-0.33367459E-13</totfact>
</mgrwt>
</event>
<event>
 4    1 -0.4926183E-019  0.1496300E+02  0.7818608E-02  0.1869200E+00
         -2   -1    0    0    0  501 -0.00000000000E+00  0.00000000000E+00  0.12004466181E+03  0.12004466184E+03  0.25500000000E-02 0.  1.
          2   -1    0    0  501    0  0.00000000000E+00 -0.00000000000E+00 -0.46626358084E+00  0.46627055378E+00  0.25500000000E-02 0. -1.
         31    1    1    2    0    0 -0.18520318520E+00 -0.68945572895E+00  0.60317342072E+02  0.60779522292E+02  0.74470750000E+01 0. -1.
        -31    1    1    2    0    0  0.18520318520E+00  0.68945572895E+00  0.59261056162E+02  0.59731410103E+02  0.74470750000E+01 0.  1.
<mgrwt>
<rscale>  0 0.14963004E+02</rscale>
<asrwt>0</asrwt>
<pdfrwt beam="2">  1        2 0.99032634E+00 0.14963004E+02</pdfrwt>
<pdfrwt beam="1">  1       -2 0.99646871E+00 0.14963004E+02</pdfrwt>
<totfact>-0.15298813E-13</totfact>
</mgrwt>
</event>
<event>
 4    1 -0.4926183E-019  0.1490714E+02  0.7818608E-02  0.1870915E+00
         -2   -1    0    0    0  501 -0.00000000000E+00  0.00000000000E+00  0.11972001218E+03  0.11972001220E+03  0.25500000000E-02 0. -1.
          2   -1    0    0  501    0  0.00000000000E+00 -0.00000000000E+00 -0.46404360355E+00  0.46405060985E+00  0.25500000000E-02 0.  1.
         31    1    1    2    0    0 -0.34060402905E-01 -0.26296129634E+00  0.58315712262E+02  0.58789893106E+02  0.74470750000E+01 0.  1.
        -31    1    1    2    0    0  0.34060402905E-01  0.26296129634E+00  0.60940256311E+02  0.61394169708E+02  0.74470750000E+01 0. -1.
<mgrwt>
<rscale>  0 0.14907143E+02</rscale>
<asrwt>0</asrwt>
<pdfrwt beam="2">  1        2 0.98561913E+00 0.14907143E+02</pdfrwt>
<pdfrwt beam="1">  1       -2 0.99376592E+00 0.14907143E+02</pdfrwt>
<totfact>-0.30223721E-13</totfact>
</mgrwt>
</event>
<event>
 4    1 -0.4926183E-019  0.1491443E+02  0.7818608E-02  0.1870691E+00
          2   -1    0    0  501    0  0.00000000000E+00  0.00000000000E+00  0.11828279314E+03  0.11828279317E+03  0.25500000000E-02 0.  1.
         -2   -1    0    0    0  501 -0.00000000000E+00 -0.00000000000E+00 -0.47014147790E+00  0.47014839332E+00  0.25500000000E-02 0. -1.
         31    1    1    2    0    0 -0.85215552970E-01  0.29259231191E+00  0.60828214452E+02  0.61283141821E+02  0.74470750000E+01 0. -1.
        -31    1    1    2    0    0  0.85215552970E-01 -0.29259231191E+00  0.56984437209E+02  0.57469799739E+02  0.74470750000E+01 0.  1.
<mgrwt>
<rscale>  0 0.14914431E+02</rscale>
<asrwt>0</asrwt>
<pdfrwt beam="1">  1        2 0.98193241E+00 0.14914431E+02</pdfrwt>
<pdfrwt beam="2">  1       -2 0.99847257E+00 0.14914431E+02</pdfrwt>
<totfact>-0.27516725E-13</totfact>
</mgrwt>
</event>
<event>
 4    1 -0.4926183E-019  0.1494678E+02  0.7818608E-02  0.1869697E+00
          2   -1    0    0  501    0  0.00000000000E+00  0.00000000000E+00  0.11927602750E+03  0.11927602753E+03  0.25500000000E-02 0.  1.
         -2   -1    0    0    0  501 -0.00000000000E+00 -0.00000000000E+00 -0.46825148027E+00  0.46825842360E+00  0.25500000000E-02 0. -1.
         31    1    1    2    0    0 -0.83059144090E-01 -0.39101911951E+00  0.55537846234E+02  0.56036337185E+02  0.74470750000E+01 0. -1.
        -31    1    1    2    0    0  0.83059144090E-01  0.39101911951E+00  0.63269929786E+02  0.63707948766E+02  0.74470750000E+01 0.  1.
<mgrwt>
<rscale>  0 0.14946785E+02</rscale>
<asrwt>0</asrwt>
<pdfrwt beam="1">  1        2 0.99012954E+00 0.14946785E+02</pdfrwt>
<pdfrwt beam="2">  1       -2 0.99450719E+00 0.14946785E+02</pdfrwt>
<totfact>-0.17642645E-13</totfact>
</mgrwt>
</event>
<event>
 4    1 -0.4926183E-019  0.1502091E+02  0.7818608E-02  0.1867431E+00
          2   -1    0    0  501    0  0.00000000000E+00  0.00000000000E+00  0.12011373207E+03  0.12011373210E+03  0.25500000000E-02 0.  1.
         -2   -1    0    0    0  501 -0.00000000000E+00 -0.00000000000E+00 -0.46960921613E+00  0.46961613939E+00  0.25500000000E-02 0. -1.
         31    1    1    2    0    0 -0.82773219004E+00 -0.27447363572E+00  0.56345667216E+02  0.56842357590E+02  0.74470750000E+01 0. -1.
        -31    1    1    2    0    0  0.82773219004E+00  0.27447363572E+00  0.63298455639E+02  0.63740990647E+02  0.74470750000E+01 0.  1.
<mgrwt>
<rscale>  0 0.15020910E+02</rscale>
<asrwt>0</asrwt>
<pdfrwt beam="1">  1        2 0.99706749E+00 0.15020910E+02</pdfrwt>
<pdfrwt beam="2">  1       -2 0.99740678E+00 0.15020910E+02</pdfrwt>
<totfact>-0.62872995E-14</totfact>
</mgrwt>
</event>
<event>
 4    1  0.4926183E-019  0.1490859E+02  0.7818608E-02  0.1870871E+00
          2   -1    0    0  501    0  0.00000000000E+00  0.00000000000E+00  0.11979041726E+03  0.11979041728E+03  0.25500000000E-02 0.  1.
         -2   -1    0    0    0  501 -0.00000000000E+00 -0.00000000000E+00 -0.46386066339E+00  0.46386767244E+00  0.25500000000E-02 0. -1.
         31    1    1    2    0    0 -0.17793767085E+00  0.12193637530E+00  0.57670620611E+02  0.58149857592E+02  0.74470750000E+01 0. -1.
        -31    1    1    2    0    0  0.17793767085E+00 -0.12193637530E+00  0.61655935983E+02  0.62104427365E+02  0.74470750000E+01 0.  1.
<mgrwt>
<rscale>  0 0.14908586E+02</rscale>
<asrwt>0</asrwt>
<pdfrwt beam="1">  1        2 0.99434657E+00 0.14908586E+02</pdfrwt>
<pdfrwt beam="2">  1       -2 0.98523431E+00 0.14908586E+02</pdfrwt>
<totfact> 0.48201766E-13</totfact>
</mgrwt>
</event>
<event>
 4    1 -0.4926183E-019  0.1491829E+02  0.7818608E-02  0.1870572E+00
          2   -1    0    0  501    0  0.00000000000E+00  0.00000000000E+00  0.11873789545E+03  0.11873789548E+03  0.25500000000E-02 0.  1.
         -2   -1    0    0    0  501 -0.00000000000E+00 -0.00000000000E+00 -0.46858201091E+00  0.46858894935E+00  0.25500000000E-02 0. -1.
         31    1    1    2    0    0  0.15877388068E-01 -0.42325344912E+00  0.59319545674E+02  0.59786677618E+02  0.74470750000E+01 0.  1.
        -31    1    1    2    0    0 -0.15877388068E-01  0.42325344912E+00  0.58949767765E+02  0.59419806808E+02  0.74470750000E+01 0.  1.
<mgrwt>
<rscale>  0 0.14918292E+02</rscale>
<asrwt>0</asrwt>
<pdfrwt beam="1">  1        2 0.98568262E+00 0.14918292E+02</pdfrwt>
<pdfrwt beam="2">  1       -2 0.99518879E+00 0.14918292E+02</pdfrwt>
<totfact>-0.30960645E-13</totfact>
</mgrwt>
</event>
<event>
 4    1 -0.4926183E-019  0.1490724E+02  0.7818608E-02  0.1870912E+00
         -2   -1    0    0    0  501 -0.00000000000E+00  0.00000000000E+00  0.11961611548E+03  0.11961611551E+03  0.25500000000E-02 0. -1.
          2   -1    0    0  501    0  0.00000000000E+00 -0.00000000000E+00 -0.46445272180E+00  0.46445972192E+00  0.25500000000E-02 0.  1.
         31    1    1    2    0    0  0.21041516342E+00 -0.20691003055E+00  0.58752783429E+02  0.59223606552E+02  0.74470750000E+01 0.  1.
        -31    1    1    2    0    0 -0.21041516342E+00  0.20691003055E+00  0.60398879329E+02  0.60856968677E+02  0.74470750000E+01 0. -1.
<mgrwt>
<rscale>  0 0.14907240E+02</rscale>
<asrwt>0</asrwt>
<pdfrwt beam="2">  1        2 0.98648140E+00 0.14907240E+02</pdfrwt>
<pdfrwt beam="1">  1       -2 0.99291021E+00 0.14907240E+02</pdfrwt>
<totfact>-0.23517874E-13</totfact>
</mgrwt>
</event>
<event>
 4    1 -0.4926183E-019  0.1496641E+02  0.7818608E-02  0.1869095E+00
          2   -1    0    0  501    0  0.00000000000E+00  0.00000000000E+00  0.11929784875E+03  0.11929784878E+03  0.25500000000E-02 0. -1.
         -2   -1    0    0    0  501 -0.00000000000E+00 -0.00000000000E+00 -0.46939609470E+00  0.46940302110E+00  0.25500000000E-02 0.  1.
         31    1    1    2    0    0 -0.34820858651E-01  0.55882754439E+00  0.55610483241E+02  0.56109698565E+02  0.74470750000E+01 0.  1.
        -31    1    1    2    0    0  0.34820858651E-01 -0.55882754439E+00  0.63217969414E+02  0.63657553233E+02  0.74470750000E+01 0. -1.
<mgrwt>
<rscale>  0 0.14966410E+02</rscale>
<asrwt>0</asrwt>
<pdfrwt beam="1">  1        2 0.99031943E+00 0.14966410E+02</pdfrwt>
<pdfrwt beam="2">  1       -2 0.99692936E+00 0.14966410E+02</pdfrwt>
<totfact>-0.14095278E-13</totfact>
</mgrwt>
</event>
<event>
 4    1 -0.4926183E-019  0.1494758E+02  0.7818608E-02  0.1869672E+00
         -2   -1    0    0    0  501 -0.00000000000E+00  0.00000000000E+00  0.11962285940E+03  0.11962285943E+03  0.25500000000E-02 0.  1.
          2   -1    0    0  501    0  0.00000000000E+00 -0.00000000000E+00 -0.46694366780E+00  0.46695063058E+00  0.25500000000E-02 0. -1.
         31    1    1    2    0    0 -0.48084892482E+00  0.22725950808E+00  0.56844394798E+02  0.57332599876E+02  0.74470750000E+01 0. -1.
        -31    1    1    2    0    0  0.48084892482E+00 -0.22725950808E+00  0.62311520939E+02  0.62757210187E+02  0.74470750000E+01 0. -1.
<mgrwt>
<rscale>  0 0.14947583E+02</rscale>
<asrwt>0</asrwt>
<pdfrwt beam="2">  1        2 0.99175165E+00 0.14947583E+02</pdfrwt>
<pdfrwt beam="1">  1       -2 0.99298657E+00 0.14947583E+02</pdfrwt>
<totfact>-0.13343768E-13</totfact>
</mgrwt>
</event>
<event>
 4    1 -0.4926183E-019  0.1492337E+02  0.7818608E-02  0.1870416E+00
         -2   -1    0    0    0  501 -0.00000000000E+00  0.00000000000E+00  0.12016909816E+03  0.12016909819E+03  0.25500000000E-02 0.  1.
          2   -1    0    0  501    0  0.00000000000E+00 -0.00000000000E+00 -0.46331660195E+00  0.46332361924E+00  0.25500000000E-02 0. -1.
         31    1    1    2    0    0 -0.20764132824E-01 -0.14355341462E+00  0.56266911673E+02  0.56757777564E+02  0.74470750000E+01 0. -1.
        -31    1    1    2    0    0  0.20764132824E-01  0.14355341462E+00  0.63438869885E+02  0.63874644243E+02  0.74470750000E+01 0.  1.
<mgrwt>
<rscale>  0 0.14923373E+02</rscale>
<asrwt>0</asrwt>
<pdfrwt beam="2">  1        2 0.98409514E+00 0.14923373E+02</pdfrwt>
<pdfrwt beam="1">  1       -2 0.99747327E+00 0.14923373E+02</pdfrwt>
<totfact>-0.28655945E-13</totfact>
</mgrwt>
</event>
<event>
 4    1 -0.4926183E-019  0.1496634E+02  0.7818608E-02  0.1869097E+00
         -2   -1    0    0    0  501 -0.00000000000E+00  0.00000000000E+00  0.11980021831E+03  0.11980021834E+03  0.25500000000E-02 0. -1.
          2   -1    0    0  501    0  0.00000000000E+00 -0.00000000000E+00 -0.46742360659E+00  0.46743056222E+00  0.25500000000E-02 0.  1.
         31    1    1    2    0    0  0.71932841137E+00 -0.68028850039E-02  0.58489085249E+02  0.58965663729E+02  0.74470750000E+01 0.  1.
        -31    1    1    2    0    0 -0.71932841137E+00  0.68028850039E-02  0.60843709457E+02  0.61301985173E+02  0.74470750000E+01 0. -1.
<mgrwt>
<rscale>  0 0.14966345E+02</rscale>
<asrwt>0</asrwt>
<pdfrwt beam="2">  1        2 0.99277274E+00 0.14966345E+02</pdfrwt>
<pdfrwt beam="1">  1       -2 0.99445707E+00 0.14966345E+02</pdfrwt>
<totfact>-0.14302120E-13</totfact>
</mgrwt>
</event>
<event>
 4    1 -0.4926183E-019  0.1492783E+02  0.7818608E-02  0.1870279E+00
         -2   -1    0    0    0  501 -0.00000000000E+00  0.00000000000E+00  0.11993517826E+03  0.11993517828E+03  0.25500000000E-02 0.  1.
          2   -1    0    0  501    0  0.00000000000E+00 -0.00000000000E+00 -0.46449758517E+00  0.46450458461E+00  0.25500000000E-02 0. -1.
         31    1    1    2    0    0 -0.86161212943E-01 -0.49058551720E+00  0.59293598456E+02  0.59761508029E+02  0.74470750000E+01 0. -1.
        -31    1    1    2    0    0  0.86161212943E-01  0.49058551720E+00  0.60177082214E+02  0.60638174838E+02  0.74470750000E+01 0. -1.
<mgrwt>
<rscale>  0 0.14927830E+02</rscale>
<asrwt>0</asrwt>
<pdfrwt beam="2">  1        2 0.98658647E+00 0.14927830E+02</pdfrwt>
<pdfrwt beam="1">  1       -2 0.99554882E+00 0.14927830E+02</pdfrwt>
<totfact>-0.26477313E-13</totfact>
</mgrwt>
</event>
<event>
 4    1 -0.4926183E-019  0.1500174E+02  0.7818608E-02  0.1868015E+00
          2   -1    0    0  501    0  0.00000000000E+00  0.00000000000E+00  0.11975160377E+03  0.11975160379E+03  0.25500000000E-02 0. -1.
         -2   -1    0    0    0  501 -0.00000000000E+00 -0.00000000000E+00 -0.46982801309E+00  0.46983493313E+00  0.25500000000E-02 0.  1.
         31    1    1    2    0    0 -0.41012933962E+00  0.40906270585E+00  0.54155004910E+02  0.54667714615E+02  0.74470750000E+01 0.  1.
        -31    1    1    2    0    0  0.41012933962E+00 -0.40906270585E+00  0.65126770843E+02  0.65553724111E+02  0.74470750000E+01 0. -1.
<mgrwt>
<rscale>  0 0.15001743E+02</rscale>
<asrwt>0</asrwt>
<pdfrwt beam="1">  1        2 0.99407497E+00 0.15001743E+02</pdfrwt>
<pdfrwt beam="2">  1       -2 0.99785791E+00 0.15001743E+02</pdfrwt>
<totfact>-0.81512436E-14</totfact>
</mgrwt>
</event>
<event>
 4    1  0.4926183E-019  0.1491071E+02  0.7818608E-02  0.1870805E+00
         -2   -1    0    0    0  501 -0.00000000000E+00  0.00000000000E+00  0.11822013928E+03  0.11822013931E+03  0.25500000000E-02 0.  1.
          2   -1    0    0  501    0  0.00000000000E+00 -0.00000000000E+00 -0.47015605236E+00  0.47016296757E+00  0.25500000000E-02 0. -1.
         31    1    1    2    0    0 -0.34773078753E+00 -0.46802466647E-01  0.58738787631E+02  0.59210026225E+02  0.74470750000E+01 0.  1.
        -31    1    1    2    0    0  0.34773078753E+00  0.46802466647E-01  0.59011195597E+02  0.59480276050E+02  0.74470750000E+01 0. -1.
<mgrwt>
<rscale>  0 0.14910711E+02</rscale>
<asrwt>0</asrwt>
<pdfrwt beam="2">  1        2 0.99850131E+00 0.14910711E+02</pdfrwt>
<pdfrwt beam="1">  1       -2 0.98141446E+00 0.14910711E+02</pdfrwt>
<totfact> 0.47829442E-13</totfact>
</mgrwt>
</event>
<event>
 4    1 -0.4926183E-019  0.1499607E+02  0.7818608E-02  0.1868188E+00
         -2   -1    0    0    0  501 -0.00000000000E+00  0.00000000000E+00  0.11968254318E+03  0.11968254320E+03  0.25500000000E-02 0. -1.
          2   -1    0    0  501    0  0.00000000000E+00 -0.00000000000E+00 -0.46974361225E+00  0.46975053353E+00  0.25500000000E-02 0.  1.
         31    1    1    2    0    0  0.27966689768E+00  0.20114598481E+00  0.53181951044E+02  0.53701932146E+02  0.74470750000E+01 0.  1.
        -31    1    1    2    0    0 -0.27966689768E+00 -0.20114598481E+00  0.66030848521E+02  0.66450361592E+02  0.74470750000E+01 0. -1.
<mgrwt>
<rscale>  0 0.14996070E+02</rscale>
<asrwt>0</asrwt>
<pdfrwt beam="2">  1        2 0.99767711E+00 0.14996070E+02</pdfrwt>
<pdfrwt beam="1">  1       -2 0.99350323E+00 0.14996070E+02</pdfrwt>
<totfact>-0.68641697E-14</totfact>
</mgrwt>
</event>
<event>
 4    1  0.4926183E-019  0.1495502E+02  0.7818608E-02  0.1869444E+00
         -2   -1    0    0    0  501 -0.00000000000E+00  0.00000000000E+00  0.11901971382E+03  0.11901971384E+03  0.25500000000E-02 0. -1.
          2   -1    0    0  501    0  0.00000000000E+00 -0.00000000000E+00 -0.46977690946E+00  0.46978383024E+00  0.25500000000E-02 0.  1.
         31    1    1    2    0    0  0.61296770075E+00 -0.27954031918E+00  0.59129783369E+02  0.59600705361E+02  0.74470750000E+01 0.  1.
        -31    1    1    2    0    0 -0.61296770075E+00  0.27954031918E+00  0.59420153537E+02  0.59888792313E+02  0.74470750000E+01 0.  1.
<mgrwt>
<rscale>  0 0.14955016E+02</rscale>
<asrwt>0</asrwt>
<pdfrwt beam="2">  1        2 0.99772583E+00 0.14955016E+02</pdfrwt>
<pdfrwt beam="1">  1       -2 0.98802277E+00 0.14955016E+02</pdfrwt>
<totfact> 0.90496106E-14</totfact>
</mgrwt>
</event>
<event>
 4    1  0.4926183E-019  0.1491812E+02  0.7818608E-02  0.1870578E+00
          2   -1    0    0  501    0  0.00000000000E+00  0.00000000000E+00  0.12027893595E+03  0.12027893598E+03  0.25500000000E-02 0.  1.
         -2   -1    0    0    0  501 -0.00000000000E+00 -0.00000000000E+00 -0.46256740264E+00  0.46257443129E+00  0.25500000000E-02 0. -1.
         31    1    1    2    0    0  0.25283072030E+00  0.28087963122E+00  0.61439529018E+02  0.61890366526E+02  0.74470750000E+01 0.  1.
        -31    1    1    2    0    0 -0.25283072030E+00 -0.28087963122E+00  0.58376839530E+02  0.58851143882E+02  0.74470750000E+01 0. -1.
<mgrwt>
<rscale>  0 0.14918115E+02</rscale>
<asrwt>0</asrwt>
<pdfrwt beam="1">  1        2 0.99837529E+00 0.14918115E+02</pdfrwt>
<pdfrwt beam="2">  1       -2 0.98251339E+00 0.14918115E+02</pdfrwt>
<totfact> 0.41110521E-13</totfact>
</mgrwt>
</event>
<event>
 4    1 -0.4926183E-019  0.1493609E+02  0.7818608E-02  0.1870025E+00
          2   -1    0    0  501    0  0.00000000000E+00  0.00000000000E+00  0.11880304856E+03  0.11880304859E+03  0.25500000000E-02 0.  1.
         -2   -1    0    0    0  501 -0.00000000000E+00 -0.00000000000E+00 -0.46944300156E+00  0.46944992727E+00  0.25500000000E-02 0. -1.
         31    1    1    2    0    0  0.39280972847E-01 -0.40580248670E+00  0.56110008233E+02  0.56603517281E+02  0.74470750000E+01 0. -1.
        -31    1    1    2    0    0 -0.39280972847E-01  0.40580248670E+00  0.62223597330E+02  0.62668981238E+02  0.74470750000E+01 0.  1.
<mgrwt>
<rscale>  0 0.14936087E+02</rscale>
<asrwt>0</asrwt>
<pdfrwt beam="1">  1        2 0.98622847E+00 0.14936087E+02</pdfrwt>
<pdfrwt beam="2">  1       -2 0.99701232E+00 0.14936087E+02</pdfrwt>
<totfact>-0.22862119E-13</totfact>
</mgrwt>
</event>
<event>
 4    1 -0.4926183E-019  0.1500912E+02  0.7818608E-02  0.1867790E+00
         -2   -1    0    0    0  501 -0.00000000000E+00  0.00000000000E+00  0.11977783302E+03  0.11977783305E+03  0.25500000000E-02 0. -1.
          2   -1    0    0  501    0  0.00000000000E+00 -0.00000000000E+00 -0.47018718007E+00  0.47019409482E+00  0.25500000000E-02 0.  1.
         31    1    1    2    0    0  0.77797052893E+00 -0.48408225184E+00  0.60784549209E+02  0.61245897188E+02  0.74470750000E+01 0. -1.
        -31    1    1    2    0    0 -0.77797052893E+00  0.48408225184E+00  0.58523096630E+02  0.59002129953E+02  0.74470750000E+01 0. -1.
<mgrwt>
<rscale>  0 0.15009120E+02</rscale>
<asrwt>0</asrwt>
<pdfrwt beam="2">  1        2 0.99861860E+00 0.15009120E+02</pdfrwt>
<pdfrwt beam="1">  1       -2 0.99429482E+00 0.15009120E+02</pdfrwt>
<totfact>-0.48145221E-14</totfact>
</mgrwt>
</event>
<event>
 4    1 -0.4926183E-019  0.1499323E+02  0.7818608E-02  0.1868275E+00
         -2   -1    0    0    0  501 -0.00000000000E+00  0.00000000000E+00  0.11955624833E+03  0.11955624836E+03  0.25500000000E-02 0. -1.
          2   -1    0    0  501    0  0.00000000000E+00 -0.00000000000E+00 -0.47006168547E+00  0.47006860206E+00  0.25500000000E-02 0.  1.
         31    1    1    2    0    0  0.33166960364E+00 -0.57187285381E+00  0.63951565860E+02  0.64387100768E+02  0.74470750000E+01 0. -1.
        -31    1    1    2    0    0 -0.33166960364E+00  0.57187285381E+00  0.55134620786E+02  0.55639216193E+02  0.74470750000E+01 0.  1.
<mgrwt>
<rscale>  0 0.14993229E+02</rscale>
<asrwt>0</asrwt>
<pdfrwt beam="2">  1        2 0.99834588E+00 0.14993229E+02</pdfrwt>
<pdfrwt beam="1">  1       -2 0.99246157E+00 0.14993229E+02</pdfrwt>
<totfact>-0.43247917E-14</totfact>
</mgrwt>
</event>
<event>
 4    1 -0.4926183E-019  0.1489506E+02  0.7818608E-02  0.1871288E+00
          2   -1    0    0  501    0  0.00000000000E+00  0.00000000000E+00  0.11890636347E+03  0.11890636350E+03  0.25500000000E-02 0. -1.
         -2   -1    0    0    0  501 -0.00000000000E+00 -0.00000000000E+00 -0.46646218719E+00  0.46646915716E+00  0.25500000000E-02 0.  1.
         31    1    1    2    0    0  0.36629581962E-01  0.24366413685E-01  0.58660184069E+02  0.59131024484E+02  0.74470750000E+01 0.  1.
        -31    1    1    2    0    0 -0.36629581962E-01 -0.24366413685E-01  0.59779717214E+02  0.60241808171E+02  0.74470750000E+01 0. -1.
<mgrwt>
<rscale>  0 0.14895065E+02</rscale>
<asrwt>0</asrwt>
<pdfrwt beam="1">  1        2 0.98705810E+00 0.14895065E+02</pdfrwt>
<pdfrwt beam="2">  1       -2 0.99070982E+00 0.14895065E+02</pdfrwt>
<totfact>-0.60904856E-14</totfact>
</mgrwt>
</event>
<event>
 4    1  0.4926183E-019  0.1493195E+02  0.7818608E-02  0.1870152E+00
          2   -1    0    0  501    0  0.00000000000E+00  0.00000000000E+00  0.12017339258E+03  0.12017339260E+03  0.25500000000E-02 0.  1.
         -2   -1    0    0    0  501 -0.00000000000E+00 -0.00000000000E+00 -0.46383276720E+00  0.46383977668E+00  0.25500000000E-02 0. -1.
         31    1    1    2    0    0  0.50985355378E+00  0.13314473835E-01  0.61045669519E+02  0.61500348137E+02  0.74470750000E+01 0.  1.
        -31    1    1    2    0    0 -0.50985355378E+00 -0.13314473835E-01  0.58663890289E+02  0.59136884242E+02  0.74470750000E+01 0. -1.
<mgrwt>
<rscale>  0 0.14931950E+02</rscale>
<asrwt>0</asrwt>
<pdfrwt beam="1">  1        2 0.99751304E+00 0.14931950E+02</pdfrwt>
<pdfrwt beam="2">  1       -2 0.98518740E+00 0.14931950E+02</pdfrwt>
<totfact> 0.29738596E-13</totfact>
</mgrwt>
</event>
<event>
 4    1  0.4926183E-019  0.1491338E+02  0.7818608E-02  0.1870723E+00
          2   -1    0    0  501    0  0.00000000000E+00  0.00000000000E+00  0.12035174820E+03  0.12035174823E+03  0.25500000000E-02 0.  1.
         -2   -1    0    0    0  501 -0.00000000000E+00 -0.00000000000E+00 -0.46199400788E+00  0.46200104526E+00  0.25500000000E-02 0. -1.
         31    1    1    2    0    0  0.16553062801E+00 -0.17862595444E+00  0.62292493587E+02  0.62736536333E+02  0.74470750000E+01 0. -1.
        -31    1    1    2    0    0 -0.16553062801E+00  0.17862595444E+00  0.57597260610E+02  0.58077212945E+02  0.74470750000E+01 0. -1.
<mgrwt>
<rscale>  0 0.14913378E+02</rscale>
<asrwt>0</asrwt>
<pdfrwt beam="1">  1        2 0.99897261E+00 0.14913378E+02</pdfrwt>
<pdfrwt beam="2">  1       -2 0.98130243E+00 0.14913378E+02</pdfrwt>
<totfact> 0.35282383E-13</totfact>
</mgrwt>
</event>
<event>
 4    1 -0.4926183E-019  0.1498106E+02  0.7818608E-02  0.1868647E+00
          2   -1    0    0  501    0  0.00000000000E+00  0.00000000000E+00  0.11934041803E+03  0.11934041806E+03  0.25500000000E-02 0.  1.
         -2   -1    0    0    0  501 -0.00000000000E+00 -0.00000000000E+00 -0.47014772786E+00  0.47015464319E+00  0.25500000000E-02 0. -1.
         31    1    1    2    0    0 -0.63149663457E+00  0.43286828574E+00  0.61441739444E+02  0.61896142326E+02  0.74470750000E+01 0. -1.
        -31    1    1    2    0    0  0.63149663457E+00 -0.43286828574E+00  0.57428530863E+02  0.57914430379E+02  0.74470750000E+01 0. -1.
<mgrwt>
<rscale>  0 0.14981060E+02</rscale>
<asrwt>0</asrwt>
<pdfrwt beam="1">  1        2 0.99067764E+00 0.14981060E+02</pdfrwt>
<pdfrwt beam="2">  1       -2 0.99852083E+00 0.14981060E+02</pdfrwt>
<totfact>-0.77529260E-14</totfact>
</mgrwt>
</event>
<event>
 4    1  0.4926183E-019  0.1494860E+02  0.7818608E-02  0.1869641E+00
         -2   -1    0    0    0  501 -0.00000000000E+00  0.00000000000E+00  0.11871564650E+03  0.11871564653E+03  0.25500000000E-02 0. -1.
          2   -1    0    0  501    0  0.00000000000E+00 -0.00000000000E+00 -0.47057635235E+00  0.47058326138E+00  0.25500000000E-02 0.  1.
         31    1    1    2    0    0 -0.40407408690E+00 -0.45118349353E+00  0.60705561382E+02  0.61163640761E+02  0.74470750000E+01 0. -1.
        -31    1    1    2    0    0  0.40407408690E+00  0.45118349353E+00  0.57539508770E+02  0.58022589032E+02  0.74470750000E+01 0. -1.
<mgrwt>
<rscale>  0 0.14948604E+02</rscale>
<asrwt>0</asrwt>
<pdfrwt beam="2">  1        2 0.99940691E+00 0.14948604E+02</pdfrwt>
<pdfrwt beam="1">  1       -2 0.98551514E+00 0.14948604E+02</pdfrwt>
<totfact> 0.79294032E-14</totfact>
</mgrwt>
</event>
<event>
 4    1  0.4926183E-019  0.1490854E+02  0.7818608E-02  0.1870872E+00
          2   -1    0    0  501    0  0.00000000000E+00  0.00000000000E+00  0.11960435693E+03  0.11960435696E+03  0.25500000000E-02 0. -1.
         -2   -1    0    0    0  501 -0.00000000000E+00 -0.00000000000E+00 -0.46457936395E+00  0.46458636217E+00  0.25500000000E-02 0.  1.
         31    1    1    2    0    0  0.22874247298E+00 -0.19993978432E+00  0.60553388755E+02  0.61010360717E+02  0.74470750000E+01 0. -1.
        -31    1    1    2    0    0 -0.22874247298E+00  0.19993978432E+00  0.58586388811E+02  0.59058582603E+02  0.74470750000E+01 0. -1.
<mgrwt>
<rscale>  0 0.14908540E+02</rscale>
<asrwt>0</asrwt>
<pdfrwt beam="1">  1        2 0.99281403E+00 0.14908540E+02</pdfrwt>
<pdfrwt beam="2">  1       -2 0.98674897E+00 0.14908540E+02</pdfrwt>
<totfact> 0.32551536E-13</totfact>
</mgrwt>
</event>
<event>
 4    1 -0.4926183E-019  0.1500439E+02  0.7818608E-02  0.1867934E+00
          2   -1    0    0  501    0  0.00000000000E+00  0.00000000000E+00  0.11978450218E+03  0.11978450221E+03  0.25500000000E-02 0.  1.
         -2   -1    0    0    0  501 -0.00000000000E+00 -0.00000000000E+00 -0.46986494805E+00  0.46987186754E+00  0.25500000000E-02 0. -1.
         31    1    1    2    0    0  0.33567919857E+00 -0.47823463751E+00  0.54089375067E+02  0.54602754602E+02  0.74470750000E+01 0. -1.
        -31    1    1    2    0    0 -0.33567919857E+00  0.47823463751E+00  0.65225262166E+02  0.65651619474E+02  0.74470750000E+01 0.  1.
<mgrwt>
<rscale>  0 0.15004394E+02</rscale>
<asrwt>0</asrwt>
<pdfrwt beam="1">  1        2 0.99434730E+00 0.15004394E+02</pdfrwt>
<pdfrwt beam="2">  1       -2 0.99793712E+00 0.15004394E+02</pdfrwt>
<totfact>-0.77324600E-14</totfact>
</mgrwt>
</event>
<event>
 4    1 -0.4926183E-019  0.1490761E+02  0.7818608E-02  0.1870901E+00
         -2   -1    0    0    0  501 -0.00000000000E+00  0.00000000000E+00  0.11972449553E+03  0.11972449556E+03  0.25500000000E-02 0. -1.
          2   -1    0    0  501    0  0.00000000000E+00 -0.00000000000E+00 -0.46405508670E+00  0.46406209282E+00  0.25500000000E-02 0.  1.
         31    1    1    2    0    0 -0.19481489211E+00 -0.23082362392E+00  0.58864292634E+02  0.59334265865E+02  0.74470750000E+01 0.  1.
        -31    1    1    2    0    0  0.19481489211E+00  0.23082362392E+00  0.60396147810E+02  0.60854291786E+02  0.74470750000E+01 0. -1.
<mgrwt>
<rscale>  0 0.14907607E+02</rscale>
<asrwt>0</asrwt>
<pdfrwt beam="2">  1        2 0.98564357E+00 0.14907607E+02</pdfrwt>
<pdfrwt beam="1">  1       -2 0.99380309E+00 0.14907607E+02</pdfrwt>
<totfact>-0.30205857E-13</totfact>
</mgrwt>
</event>
<event>
 4    1 -0.4926183E-019  0.1496686E+02  0.7818608E-02  0.1869081E+00
          2   -1    0    0  501    0  0.00000000000E+00  0.00000000000E+00  0.11990995451E+03  0.11990995454E+03  0.25500000000E-02 0. -1.
         -2   -1    0    0    0  501 -0.00000000000E+00 -0.00000000000E+00 -0.46702803146E+00  0.46703499298E+00  0.25500000000E-02 0.  1.
         31    1    1    2    0    0 -0.30483932946E+00 -0.65778467754E+00  0.58666741982E+02  0.59141957599E+02  0.74470750000E+01 0.  1.
        -31    1    1    2    0    0  0.30483932946E+00  0.65778467754E+00  0.60776184497E+02  0.61235031933E+02  0.74470750000E+01 0.  1.
<mgrwt>
<rscale>  0 0.14966861E+02</rscale>
<asrwt>0</asrwt>
<pdfrwt beam="1">  1        2 0.99536117E+00 0.14966861E+02</pdfrwt>
<pdfrwt beam="2">  1       -2 0.99193937E+00 0.14966861E+02</pdfrwt>
<totfact>-0.73911592E-14</totfact>
</mgrwt>
</event>
<event>
 4    1 -0.4926183E-019  0.1498263E+02  0.7818608E-02  0.1868599E+00
         -2   -1    0    0    0  501 -0.00000000000E+00  0.00000000000E+00  0.11955552660E+03  0.11955552663E+03  0.25500000000E-02 0.  1.
          2   -1    0    0  501    0  0.00000000000E+00 -0.00000000000E+00 -0.46940016348E+00  0.46940708982E+00  0.25500000000E-02 0. -1.
         31    1    1    2    0    0  0.19790114329E-01  0.20480696754E+00  0.65843438392E+02  0.66263561955E+02  0.74470750000E+01 0.  1.
        -31    1    1    2    0    0 -0.19790114329E-01 -0.20480696754E+00  0.53242688046E+02  0.53761371765E+02  0.74470750000E+01 0. -1.
<mgrwt>
<rscale>  0 0.14982630E+02</rscale>
<asrwt>0</asrwt>
<pdfrwt beam="2">  1        2 0.99694639E+00 0.14982630E+02</pdfrwt>
<pdfrwt beam="1">  1       -2 0.99245013E+00 0.14982630E+02</pdfrwt>
<totfact>-0.68251260E-14</totfact>
</mgrwt>
</event>
<event>
 4    1  0.4926183E-019  0.1492149E+02  0.7818608E-02  0.1870474E+00
          2   -1    0    0  501    0  0.00000000000E+00  0.00000000000E+00  0.12014454760E+03  0.12014454763E+03  0.25500000000E-02 0. -1.
         -2   -1    0    0    0  501 -0.00000000000E+00 -0.00000000000E+00 -0.46329460073E+00  0.46330161835E+00  0.25500000000E-02 0.  1.
         31    1    1    2    0    0  0.24146607969E+00  0.23443262183E+00  0.62272932330E+02  0.62717543731E+02  0.74470750000E+01 0. -1.
        -31    1    1    2    0    0 -0.24146607969E+00 -0.23443262183E+00  0.57408320671E+02  0.57890305517E+02  0.74470750000E+01 0.  1.
<mgrwt>
<rscale>  0 0.14921494E+02</rscale>
<asrwt>0</asrwt>
<pdfrwt beam="1">  1        2 0.99727008E+00 0.14921494E+02</pdfrwt>
<pdfrwt beam="2">  1       -2 0.98404782E+00 0.14921494E+02</pdfrwt>
<totfact> 0.43148513E-13</totfact>
</mgrwt>
</event>
<event>
 4    1 -0.4926183E-019  0.1491285E+02  0.7818608E-02  0.1870740E+00
         -2   -1    0    0    0  501 -0.00000000000E+00  0.00000000000E+00  0.12009591531E+03  0.12009591533E+03  0.25500000000E-02 0.  1.
          2   -1    0    0  501    0  0.00000000000E+00 -0.00000000000E+00 -0.46294548010E+00  0.46295250301E+00  0.25500000000E-02 0. -1.
         31    1    1    2    0    0 -0.15776173702E+00 -0.32671161814E+00  0.59105677957E+02  0.59574085994E+02  0.74470750000E+01 0.  1.
        -31    1    1    2    0    0  0.15776173702E+00  0.32671161814E+00  0.60527291869E+02  0.60984781842E+02  0.74470750000E+01 0. -1.
<mgrwt>
<rscale>  0 0.14912852E+02</rscale>
<asrwt>0</asrwt>
<pdfrwt beam="2">  1        2 0.98330761E+00 0.14912852E+02</pdfrwt>
<pdfrwt beam="1">  1       -2 0.99686507E+00 0.14912852E+02</pdfrwt>
<totfact>-0.37867191E-13</totfact>
</mgrwt>
</event>
<event>
 4    1 -0.4926183E-019  0.1496460E+02  0.7818608E-02  0.1869151E+00
          2   -1    0    0  501    0  0.00000000000E+00  0.00000000000E+00  0.11957573203E+03  0.11957573206E+03  0.25500000000E-02 0. -1.
         -2   -1    0    0    0  501 -0.00000000000E+00 -0.00000000000E+00 -0.46819220411E+00  0.46819914832E+00  0.25500000000E-02 0.  1.
         31    1    1    2    0    0  0.35176520180E+00  0.38026375505E+00  0.55482499955E+02  0.55982453203E+02  0.74470750000E+01 0.  1.
        -31    1    1    2    0    0 -0.35176520180E+00 -0.38026375505E+00  0.63625039875E+02  0.64061478007E+02  0.74470750000E+01 0. -1.
<mgrwt>
<rscale>  0 0.14964604E+02</rscale>
<asrwt>0</asrwt>
<pdfrwt beam="1">  1        2 0.99260721E+00 0.14964604E+02</pdfrwt>
<pdfrwt beam="2">  1       -2 0.99439154E+00 0.14964604E+02</pdfrwt>
<totfact>-0.14446160E-13</totfact>
</mgrwt>
</event>
<event>
 4    1  0.4926183E-019  0.1491751E+02  0.7818608E-02  0.1870596E+00
         -2   -1    0    0    0  501 -0.00000000000E+00  0.00000000000E+00  0.11845694894E+03  0.11845694897E+03  0.25500000000E-02 0. -1.
          2   -1    0    0  501    0  0.00000000000E+00 -0.00000000000E+00 -0.46964388596E+00  0.46965080871E+00  0.25500000000E-02 0.  1.
         31    1    1    2    0    0 -0.40087572471E+00  0.72100066273E-01  0.59714220052E+02  0.60178176295E+02  0.74470750000E+01 0.  1.
        -31    1    1    2    0    0  0.40087572471E+00 -0.72100066273E-01  0.58273085005E+02  0.58748423484E+02  0.74470750000E+01 0.  1.
<mgrwt>
<rscale>  0 0.14917506E+02</rscale>
<asrwt>0</asrwt>
<pdfrwt beam="2">  1        2 0.99742580E+00 0.14917506E+02</pdfrwt>
<pdfrwt beam="1">  1       -2 0.98336834E+00 0.14917506E+02</pdfrwt>
<totfact> 0.48656249E-13</totfact>
</mgrwt>
</event>
<event>
 4    1 -0.4926183E-019  0.1493398E+02  0.7818608E-02  0.1870090E+00
          2   -1    0    0  501    0  0.00000000000E+00  0.00000000000E+00  0.11921186461E+03  0.11921186464E+03  0.25500000000E-02 0.  1.
         -2   -1    0    0    0  501 -0.00000000000E+00 -0.00000000000E+00 -0.46770118560E+00  0.46770813710E+00  0.25500000000E-02 0. -1.
         31    1    1    2    0    0 -0.17516569907E-01 -0.20844715282E+00  0.63405116382E+02  0.63841299066E+02  0.74470750000E+01 0.  1.
        -31    1    1    2    0    0  0.17516569907E-01  0.20844715282E+00  0.55339047046E+02  0.55838273712E+02  0.74470750000E+01 0. -1.
<mgrwt>
<rscale>  0 0.14933981E+02</rscale>
<asrwt>0</asrwt>
<pdfrwt beam="1">  1        2 0.98959444E+00 0.14933981E+02</pdfrwt>
<pdfrwt beam="2">  1       -2 0.99334093E+00 0.14933981E+02</pdfrwt>
<totfact>-0.17026002E-13</totfact>
</mgrwt>
</event>
<event>
 4    1 -0.4926183E-019  0.1494932E+02  0.7818608E-02  0.1869619E+00
          2   -1    0    0  501    0  0.00000000000E+00  0.00000000000E+00  0.11936406166E+03  0.11936406169E+03  0.25500000000E-02 0. -1.
         -2   -1    0    0    0  501 -0.00000000000E+00 -0.00000000000E+00 -0.46806472105E+00  0.46807166715E+00  0.25500000000E-02 0.  1.
         31    1    1    2    0    0  0.33209278742E+00 -0.16403128849E+00  0.63647026789E+02  0.64082291915E+02  0.74470750000E+01 0. -1.
        -31    1    1    2    0    0 -0.33209278742E+00  0.16403128849E+00  0.55248970148E+02  0.55749841438E+02  0.74470750000E+01 0.  1.
<mgrwt>
<rscale>  0 0.14949318E+02</rscale>
<asrwt>0</asrwt>
<pdfrwt beam="1">  1        2 0.99085592E+00 0.14949318E+02</pdfrwt>
<pdfrwt beam="2">  1       -2 0.99411496E+00 0.14949318E+02</pdfrwt>
<totfact>-0.16302494E-13</totfact>
</mgrwt>
</event>
<event>
 4    1  0.4926183E-019  0.1490850E+02  0.7818608E-02  0.1870873E+00
          2   -1    0    0  501    0  0.00000000000E+00  0.00000000000E+00  0.11975853555E+03  0.11975853557E+03  0.25500000000E-02 0. -1.
         -2   -1    0    0    0  501 -0.00000000000E+00 -0.00000000000E+00 -0.46397909923E+00  0.46398610650E+00  0.25500000000E-02 0.  1.
         31    1    1    2    0    0 -0.32448597191E+00 -0.10626098616E-01  0.59964777588E+02  0.60426309512E+02  0.74470750000E+01 0.  1.
        -31    1    1    2    0    0  0.32448597191E+00  0.10626098616E-01  0.59329778860E+02  0.59796212169E+02  0.74470750000E+01 0.  1.
<mgrwt>
<rscale>  0 0.14908505E+02</rscale>
<asrwt>0</asrwt>
<pdfrwt beam="1">  1        2 0.99408392E+00 0.14908505E+02</pdfrwt>
<pdfrwt beam="2">  1       -2 0.98548388E+00 0.14908505E+02</pdfrwt>
<totfact> 0.45736943E-13</totfact>
</mgrwt>
</event>
<event>
 4    1  0.4926183E-019  0.1492037E+02  0.7818608E-02  0.1870508E+00
          2   -1    0    0  501    0  0.00000000000E+00  0.00000000000E+00  0.12035443315E+03  0.12035443317E+03  0.25500000000E-02 0. -1.
         -2   -1    0    0    0  501 -0.00000000000E+00 -0.00000000000E+00 -0.46241714642E+00  0.46242417736E+00  0.25500000000E-02 0.  1.
         31    1    1    2    0    0 -0.25273330248E+00 -0.26096252688E-01  0.62875656632E+02  0.63315651130E+02  0.74470750000E+01 0. -1.
        -31    1    1    2    0    0  0.25273330248E+00  0.26096252688E-01  0.57016359369E+02  0.57501206221E+02  0.74470750000E+01 0.  1.
<mgrwt>
<rscale>  0 0.14920373E+02</rscale>
<asrwt>0</asrwt>
<pdfrwt beam="1">  1        2 0.99899831E+00 0.14920373E+02</pdfrwt>
<pdfrwt beam="2">  1       -2 0.98219783E+00 0.14920373E+02</pdfrwt>
<totfact> 0.28981598E-13</totfact>
</mgrwt>
</event>
<event>
 4    1  0.4926183E-019  0.1489901E+02  0.7818608E-02  0.1871166E+00
         -2   -1    0    0    0  501 -0.00000000000E+00  0.00000000000E+00  0.11837248659E+03  0.11837248662E+03  0.25500000000E-02 0.  1.
          2   -1    0    0  501    0  0.00000000000E+00 -0.00000000000E+00 -0.46881401593E+00  0.46882095093E+00  0.25500000000E-02 0. -1.
         31    1    1    2    0    0  0.12442193955E+00  0.13011728394E+00  0.59440757917E+02  0.59905717916E+02  0.74470750000E+01 0. -1.
        -31    1    1    2    0    0 -0.12442193955E+00 -0.13011728394E+00  0.58462914661E+02  0.58935589655E+02  0.74470750000E+01 0. -1.
<mgrwt>
<rscale>  0 0.14899006E+02</rscale>
<asrwt>0</asrwt>
<pdfrwt beam="2">  1        2 0.99566750E+00 0.14899006E+02</pdfrwt>
<pdfrwt beam="1">  1       -2 0.98266308E+00 0.14899006E+02</pdfrwt>
<totfact> 0.79309997E-13</totfact>
</mgrwt>
</event>
<event>
 4    1 -0.4926183E-019  0.1497997E+02  0.7818608E-02  0.1868680E+00
         -2   -1    0    0    0  501 -0.00000000000E+00  0.00000000000E+00  0.11979514044E+03  0.11979514047E+03  0.25500000000E-02 0.  1.
          2   -1    0    0  501    0  0.00000000000E+00 -0.00000000000E+00 -0.46829486251E+00  0.46830180519E+00  0.25500000000E-02 0. -1.
         31    1    1    2    0    0 -0.58087286233E+00  0.11532658471E+00  0.55338357705E+02  0.55840339120E+02  0.74470750000E+01 0. -1.
        -31    1    1    2    0    0  0.58087286233E+00 -0.11532658471E+00  0.63988487874E+02  0.64423103154E+02  0.74470750000E+01 0.  1.
<mgrwt>
<rscale>  0 0.14979969E+02</rscale>
<asrwt>0</asrwt>
<pdfrwt beam="2">  1        2 0.99461583E+00 0.14979969E+02</pdfrwt>
<pdfrwt beam="1">  1       -2 0.99442228E+00 0.14979969E+02</pdfrwt>
<totfact>-0.12360653E-13</totfact>
</mgrwt>
</event>
<event>
 4    1 -0.4926183E-019  0.1500802E+02  0.7818608E-02  0.1867824E+00
         -2   -1    0    0    0  501 -0.00000000000E+00  0.00000000000E+00  0.12030744611E+03  0.12030744614E+03  0.25500000000E-02 0. -1.
          2   -1    0    0  501    0  0.00000000000E+00 -0.00000000000E+00 -0.46804883325E+00  0.46805577959E+00  0.25500000000E-02 0.  1.
         31    1    1    2    0    0  0.81641710203E+00  0.42974456657E+00  0.59969016263E+02  0.60436686333E+02  0.74470750000E+01 0. -1.
        -31    1    1    2    0    0 -0.81641710203E+00 -0.42974456657E+00  0.59870381017E+02  0.60338815587E+02  0.74470750000E+01 0. -1.
<mgrwt>
<rscale>  0 0.15008022E+02</rscale>
<asrwt>0</asrwt>
<pdfrwt beam="2">  1        2 0.99411180E+00 0.15008022E+02</pdfrwt>
<pdfrwt beam="1">  1       -2 0.99865635E+00 0.15008022E+02</pdfrwt>
<totfact>-0.54938088E-14</totfact>
</mgrwt>
</event>
<event>
 4    1  0.4926183E-019  0.1489916E+02  0.7818608E-02  0.1871161E+00
         -2   -1    0    0    0  501 -0.00000000000E+00  0.00000000000E+00  0.11820579525E+03  0.11820579528E+03  0.25500000000E-02 0.  1.
          2   -1    0    0  501    0  0.00000000000E+00 -0.00000000000E+00 -0.46948469177E+00  0.46949161687E+00  0.25500000000E-02 0. -1.
         31    1    1    2    0    0  0.18696424107E+00  0.43113867995E-01  0.58693026565E+02  0.59163900377E+02  0.74470750000E+01 0. -1.
        -31    1    1    2    0    0 -0.18696424107E+00 -0.43113867995E-01  0.59043283997E+02  0.59511386521E+02  0.74470750000E+01 0. -1.
<mgrwt>
<rscale>  0 0.14899158E+02</rscale>
<asrwt>0</asrwt>
<pdfrwt beam="2">  1        2 0.99708068E+00 0.14899158E+02</pdfrwt>
<pdfrwt beam="1">  1       -2 0.98129030E+00 0.14899158E+02</pdfrwt>
<totfact> 0.81549438E-13</totfact>
</mgrwt>
</event>
<event>
 4    1 -0.4926183E-019  0.1490294E+02  0.7818608E-02  0.1871045E+00
         -2   -1    0    0    0  501 -0.00000000000E+00  0.00000000000E+00  0.11963578627E+03  0.11963578630E+03  0.25500000000E-02 0. -1.
          2   -1    0    0  501    0  0.00000000000E+00 -0.00000000000E+00 -0.46410849598E+00  0.46411550130E+00  0.25500000000E-02 0.  1.
         31    1    1    2    0    0 -0.15440403550E+00  0.11007035856E+00  0.60970570303E+02  0.61423980050E+02  0.74470750000E+01 0. -1.
        -31    1    1    2    0    0  0.15440403550E+00 -0.11007035856E+00  0.58201107471E+02  0.58675921748E+02  0.74470750000E+01 0.  1.
<mgrwt>
<rscale>  0 0.14902940E+02</rscale>
<asrwt>0</asrwt>
<pdfrwt beam="2">  1        2 0.98575374E+00 0.14902940E+02</pdfrwt>
<pdfrwt beam="1">  1       -2 0.99307002E+00 0.14902940E+02</pdfrwt>
<totfact>-0.27060584E-13</totfact>
</mgrwt>
</event>
<event>
 4    1 -0.4926183E-019  0.1496767E+02  0.7818608E-02  0.1869057E+00
          2   -1    0    0  501    0  0.00000000000E+00  0.00000000000E+00  0.11928598706E+03  0.11928598709E+03  0.25500000000E-02 0. -1.
         -2   -1    0    0    0  501 -0.00000000000E+00 -0.00000000000E+00 -0.46952180876E+00  0.46952873331E+00  0.25500000000E-02 0.  1.
         31    1    1    2    0    0 -0.17969626392E+00 -0.23057378729E+00  0.53961665153E+02  0.54473899137E+02  0.74470750000E+01 0.  1.
        -31    1    1    2    0    0  0.17969626392E+00  0.23057378729E+00  0.64854800101E+02  0.65281616686E+02  0.74470750000E+01 0. -1.
<mgrwt>
<rscale>  0 0.14967670E+02</rscale>
<asrwt>0</asrwt>
<pdfrwt beam="1">  1        2 0.99022239E+00 0.14967670E+02</pdfrwt>
<pdfrwt beam="2">  1       -2 0.99719492E+00 0.14967670E+02</pdfrwt>
<totfact>-0.13396889E-13</totfact>
</mgrwt>
</event>
<event>
 4    1  0.4926183E-019  0.1492989E+02  0.7818608E-02  0.1870216E+00
          2   -1    0    0  501    0  0.00000000000E+00  0.00000000000E+00  0.11996895643E+03  0.11996895646E+03  0.25500000000E-02 0.  1.
         -2   -1    0    0    0  501 -0.00000000000E+00 -0.00000000000E+00 -0.46449498865E+00  0.46450198813E+00  0.25500000000E-02 0. -1.
         31    1    1    2    0    0 -0.20076894019E+00 -0.18476078580E+00  0.56217334382E+02  0.56709100291E+02  0.74470750000E+01 0.  1.
        -31    1    1    2    0    0  0.20076894019E+00  0.18476078580E+00  0.63287127058E+02  0.63724358153E+02  0.74470750000E+01 0. -1.
<mgrwt>
<rscale>  0 0.14929890E+02</rscale>
<asrwt>0</asrwt>
<pdfrwt beam="1">  1        2 0.99582810E+00 0.14929890E+02</pdfrwt>
<pdfrwt beam="2">  1       -2 0.98658205E+00 0.14929890E+02</pdfrwt>
<totfact> 0.26294585E-13</totfact>
</mgrwt>
</event>
<event>
 4    1 -0.4926183E-019  0.1494372E+02  0.7818608E-02  0.1869791E+00
         -2   -1    0    0    0  501 -0.00000000000E+00  0.00000000000E+00  0.12014215533E+03  0.12014215536E+03  0.25500000000E-02 0.  1.
          2   -1    0    0  501    0  0.00000000000E+00 -0.00000000000E+00 -0.46468534224E+00  0.46469233886E+00  0.25500000000E-02 0. -1.
         31    1    1    2    0    0  0.58390890814E+00 -0.96459025852E-01  0.60966968067E+02  0.61422962932E+02  0.74470750000E+01 0.  1.
        -31    1    1    2    0    0 -0.58390890814E+00  0.96459025852E-01  0.58710501923E+02  0.59183884766E+02  0.74470750000E+01 0. -1.
<mgrwt>
<rscale>  0 0.14943724E+02</rscale>
<asrwt>0</asrwt>
<pdfrwt beam="2">  1        2 0.98699029E+00 0.14943724E+02</pdfrwt>
<pdfrwt beam="1">  1       -2 0.99726180E+00 0.14943724E+02</pdfrwt>
<totfact>-0.19274060E-13</totfact>
</mgrwt>
</event>
<event>
 4    1 -0.4926183E-019  0.1496780E+02  0.7818608E-02  0.1869053E+00
         -2   -1    0    0    0  501 -0.00000000000E+00  0.00000000000E+00  0.11998964743E+03  0.11998964746E+03  0.25500000000E-02 0. -1.
          2   -1    0    0  501    0  0.00000000000E+00 -0.00000000000E+00 -0.46677669416E+00  0.46678365943E+00  0.25500000000E-02 0.  1.
         31    1    1    2    0    0 -0.82814969020E-01  0.57728824619E+00  0.56075745907E+02  0.56571090895E+02  0.74470750000E+01 0.  1.
        -31    1    1    2    0    0  0.82814969020E-01 -0.57728824619E+00  0.63447124829E+02  0.63885340221E+02  0.74470750000E+01 0. -1.
<mgrwt>
<rscale>  0 0.14967804E+02</rscale>
<asrwt>0</asrwt>
<pdfrwt beam="2">  1        2 0.99141018E+00 0.14967804E+02</pdfrwt>
<pdfrwt beam="1">  1       -2 0.99601805E+00 0.14967804E+02</pdfrwt>
<totfact>-0.14820185E-13</totfact>
</mgrwt>
</event>
<event>
 4    1  0.4926183E-019  0.1490588E+02  0.7818608E-02  0.1870954E+00
          2   -1    0    0  501    0  0.00000000000E+00  0.00000000000E+00  0.11989123276E+03  0.11989123279E+03  0.25500000000E-02 0. -1.
         -2   -1    0    0    0  501 -0.00000000000E+00 -0.00000000000E+00 -0.46330266081E+00  0.46330967831E+00  0.25500000000E-02 0.  1.
         31    1    1    2    0    0  0.25437542927E+00  0.71791522367E-01  0.60784049650E+02  0.61239117227E+02  0.74470750000E+01 0. -1.
        -31    1    1    2    0    0 -0.25437542927E+00 -0.71791522367E-01  0.58643880454E+02  0.59115425242E+02  0.74470750000E+01 0. -1.
<mgrwt>
<rscale>  0 0.14905885E+02</rscale>
<asrwt>0</asrwt>
<pdfrwt beam="1">  1        2 0.99517556E+00 0.14905885E+02</pdfrwt>
<pdfrwt beam="2">  1       -2 0.98405689E+00 0.14905885E+02</pdfrwt>
<totfact> 0.61078980E-13</totfact>
</mgrwt>
</event>
<event>
 4    1  0.4926183E-019  0.1491486E+02  0.7818608E-02  0.1870678E+00
         -2   -1    0    0    0  501 -0.00000000000E+00  0.00000000000E+00  0.11851271288E+03  0.11851271290E+03  0.25500000000E-02 0. -1.
          2   -1    0    0  501    0  0.00000000000E+00 -0.00000000000E+00 -0.46925655241E+00  0.46926348087E+00  0.25500000000E-02 0.  1.
         31    1    1    2    0    0 -0.25646836824E-01  0.34459438913E+00  0.57530320126E+02  0.58011344261E+02  0.74470750000E+01 0.  1.
        -31    1    1    2    0    0  0.25646836824E-01 -0.34459438913E+00  0.60513136197E+02  0.60970632123E+02  0.74470750000E+01 0.  1.
<mgrwt>
<rscale>  0 0.14914863E+02</rscale>
<asrwt>0</asrwt>
<pdfrwt beam="2">  1        2 0.99660829E+00 0.14914863E+02</pdfrwt>
<pdfrwt beam="1">  1       -2 0.98382623E+00 0.14914863E+02</pdfrwt>
<totfact> 0.52680552E-13</totfact>
</mgrwt>
</event>
<event>
 4    1 -0.4926183E-019  0.1491870E+02  0.7818608E-02  0.1870560E+00
         -2   -1    0    0    0  501 -0.00000000000E+00  0.00000000000E+00  0.11959983626E+03  0.11959983629E+03  0.25500000000E-02 0. -1.
          2   -1    0    0  501    0  0.00000000000E+00 -0.00000000000E+00 -0.46523039068E+00  0.46523737910E+00  0.25500000000E-02 0.  1.
         31    1    1    2    0    0  0.41273567607E+00 -0.47153961405E-01  0.60388014125E+02  0.60846887761E+02  0.74470750000E+01 0. -1.
        -31    1    1    2    0    0 -0.41273567607E+00  0.47153961405E-01  0.58746591745E+02  0.59218185906E+02  0.74470750000E+01 0.  1.
<mgrwt>
<rscale>  0 0.14918700E+02</rscale>
<asrwt>0</asrwt>
<pdfrwt beam="2">  1        2 0.98812620E+00 0.14918700E+02</pdfrwt>
<pdfrwt beam="1">  1       -2 0.99278203E+00 0.14918700E+02</pdfrwt>
<totfact>-0.18259628E-13</totfact>
</mgrwt>
</event>
<event>
 4    1 -0.4926183E-019  0.1500477E+02  0.7818608E-02  0.1867923E+00
          2   -1    0    0  501    0  0.00000000000E+00  0.00000000000E+00  0.12011341107E+03  0.12011341110E+03  0.25500000000E-02 0.  1.
         -2   -1    0    0    0  501 -0.00000000000E+00 -0.00000000000E+00 -0.46860150389E+00  0.46860844204E+00  0.25500000000E-02 0. -1.
         31    1    1    2    0    0 -0.52725245991E+00 -0.89157887924E-01  0.65732597837E+02  0.66155266523E+02  0.74470750000E+01 0.  1.
        -31    1    1    2    0    0  0.52725245991E+00  0.89157887924E-01  0.53912211729E+02  0.54426753016E+02  0.74470750000E+01 0. -1.
<mgrwt>
<rscale>  0 0.15004765E+02</rscale>
<asrwt>0</asrwt>
<pdfrwt beam="1">  1        2 0.99705650E+00 0.15004765E+02</pdfrwt>
<pdfrwt beam="2">  1       -2 0.99527483E+00 0.15004765E+02</pdfrwt>
<totfact>-0.86140437E-14</totfact>
</mgrwt>
</event>
<event>
 4    1  0.4926183E-019  0.1493624E+02  0.7818608E-02  0.1870020E+00
          2   -1    0    0  501    0  0.00000000000E+00  0.00000000000E+00  0.11993543023E+03  0.11993543026E+03  0.25500000000E-02 0.  1.
         -2   -1    0    0    0  501 -0.00000000000E+00 -0.00000000000E+00 -0.46502021558E+00  0.46502720715E+00  0.25500000000E-02 0. -1.
         31    1    1    2    0    0  0.44561217475E+00  0.33024467907E+00  0.60373210296E+02  0.60833305674E+02  0.74470750000E+01 0.  1.
        -31    1    1    2    0    0 -0.44561217475E+00 -0.33024467907E+00  0.59097199719E+02  0.59567151791E+02  0.74470750000E+01 0. -1.
<mgrwt>
<rscale>  0 0.14936241E+02</rscale>
<asrwt>0</asrwt>
<pdfrwt beam="1">  1        2 0.99555522E+00 0.14936241E+02</pdfrwt>
<pdfrwt beam="2">  1       -2 0.98769224E+00 0.14936241E+02</pdfrwt>
<totfact> 0.16782159E-13</totfact>
</mgrwt>
</event>
<event>
 4    1 -0.4926183E-019  0.1493919E+02  0.7818608E-02  0.1869930E+00
          2   -1    0    0  501    0  0.00000000000E+00  0.00000000000E+00  0.11916533337E+03  0.11916533340E+03  0.25500000000E-02 0. -1.
         -2   -1    0    0    0  501 -0.00000000000E+00 -0.00000000000E+00 -0.46821050477E+00  0.46821744871E+00  0.25500000000E-02 0.  1.
         31    1    1    2    0    0  0.35029772113E+00  0.45758909552E+00  0.59845805101E+02  0.60310126931E+02  0.74470750000E+01 0.  1.
        -31    1    1    2    0    0 -0.35029772113E+00 -0.45758909552E+00  0.58851317764E+02  0.59323423914E+02  0.74470750000E+01 0.  1.
<mgrwt>
<rscale>  0 0.14939194E+02</rscale>
<asrwt>0</asrwt>
<pdfrwt beam="1">  1        2 0.98921390E+00 0.14939194E+02</pdfrwt>
<pdfrwt beam="2">  1       -2 0.99441690E+00 0.14939194E+02</pdfrwt>
<totfact>-0.19303538E-13</totfact>
</mgrwt>
</event>
<event>
 4    1  0.4926183E-019  0.1495069E+02  0.7818608E-02  0.1869577E+00
         -2   -1    0    0    0  501 -0.00000000000E+00  0.00000000000E+00  0.11916402562E+03  0.11916402565E+03  0.25500000000E-02 0.  1.
          2   -1    0    0  501    0  0.00000000000E+00 -0.00000000000E+00 -0.46893642535E+00  0.46894335854E+00  0.25500000000E-02 0. -1.
         31    1    1    2    0    0 -0.31791436429E+00  0.39418883295E+00  0.62601726741E+02  0.63045155019E+02  0.74470750000E+01 0.  1.
        -31    1    1    2    0    0  0.31791436429E+00 -0.39418883295E+00  0.56093362456E+02  0.56587813989E+02  0.74470750000E+01 0. -1.
<mgrwt>
<rscale>  0 0.14950688E+02</rscale>
<asrwt>0</asrwt>
<pdfrwt beam="2">  1        2 0.99595255E+00 0.14950688E+02</pdfrwt>
<pdfrwt beam="1">  1       -2 0.98920909E+00 0.14950688E+02</pdfrwt>
<totfact> 0.51556728E-14</totfact>
</mgrwt>
</event>
<event>
 4    1  0.4926183E-019  0.1496326E+02  0.7818608E-02  0.1869192E+00
          2   -1    0    0  501    0  0.00000000000E+00  0.00000000000E+00  0.12034663643E+03  0.12034663646E+03  0.25500000000E-02 0. -1.
         -2   -1    0    0    0  501 -0.00000000000E+00 -0.00000000000E+00 -0.46510938107E+00  0.46511637131E+00  0.25500000000E-02 0.  1.
         31    1    1    2    0    0 -0.51904796652E+00 -0.47367585130E+00  0.58741367488E+02  0.59215715482E+02  0.74470750000E+01 0. -1.
        -31    1    1    2    0    0  0.51904796652E+00  0.47367585130E+00  0.61140159560E+02  0.61596037346E+02  0.74470750000E+01 0. -1.
<mgrwt>
<rscale>  0 0.14963258E+02</rscale>
<asrwt>0</asrwt>
<pdfrwt beam="1">  1        2 0.99895610E+00 0.14963258E+02</pdfrwt>
<pdfrwt beam="2">  1       -2 0.98789393E+00 0.14963258E+02</pdfrwt>
<totfact> 0.51181878E-14</totfact>
</mgrwt>
</event>
<event>
 4    1  0.4926183E-019  0.1490632E+02  0.7818608E-02  0.1870941E+00
         -2   -1    0    0    0  501 -0.00000000000E+00  0.00000000000E+00  0.11845626313E+03  0.11845626315E+03  0.25500000000E-02 0.  1.
          2   -1    0    0  501    0  0.00000000000E+00 -0.00000000000E+00 -0.46894281596E+00  0.46894974906E+00  0.25500000000E-02 0. -1.
         31    1    1    2    0    0  0.21984832901E+00 -0.20368463815E+00  0.59230427173E+02  0.59697506228E+02  0.74470750000E+01 0. -1.
        -31    1    1    2    0    0 -0.21984832901E+00  0.20368463815E+00  0.58756893137E+02  0.59227706674E+02  0.74470750000E+01 0.  1.
<mgrwt>
<rscale>  0 0.14906324E+02</rscale>
<asrwt>0</asrwt>
<pdfrwt beam="2">  1        2 0.99594274E+00 0.14906324E+02</pdfrwt>
<pdfrwt beam="1">  1       -2 0.98335687E+00 0.14906324E+02</pdfrwt>
<totfact> 0.65585019E-13</totfact>
</mgrwt>
</event>
<event>
 4    1  0.4926183E-019  0.1491513E+02  0.7818608E-02  0.1870669E+00
          2   -1    0    0  501    0  0.00000000000E+00  0.00000000000E+00  0.12016708955E+03  0.12016708958E+03  0.25500000000E-02 0.  1.
         -2   -1    0    0    0  501 -0.00000000000E+00 -0.00000000000E+00 -0.46281259509E+00  0.46281962002E+00  0.25500000000E-02 0. -1.
         31    1    1    2    0    0  0.79070908869E-01 -0.39030160908E-02  0.62985289292E+02  0.63424063736E+02  0.74470750000E+01 0.  1.
        -31    1    1    2    0    0 -0.79070908869E-01  0.39030160908E-02  0.56718987665E+02  0.57205845463E+02  0.74470750000E+01 0. -1.
<mgrwt>
<rscale>  0 0.14915129E+02</rscale>
<asrwt>0</asrwt>
<pdfrwt beam="1">  1        2 0.99745249E+00 0.14915129E+02</pdfrwt>
<pdfrwt beam="2">  1       -2 0.98302868E+00 0.14915129E+02</pdfrwt>
<totfact> 0.52120736E-13</totfact>
</mgrwt>
</event>
<event>
 4    1 -0.4926183E-019  0.1496583E+02  0.7818608E-02  0.1869113E+00
         -2   -1    0    0    0  501 -0.00000000000E+00  0.00000000000E+00  0.12015554410E+03  0.12015554413E+03  0.25500000000E-02 0. -1.
          2   -1    0    0  501    0  0.00000000000E+00 -0.00000000000E+00 -0.46600948988E+00  0.46601646662E+00  0.25500000000E-02 0.  1.
         31    1    1    2    0    0 -0.23604134275E+00  0.69150768385E+00  0.60126488042E+02  0.60590324217E+02  0.74470750000E+01 0.  1.
        -31    1    1    2    0    0  0.23604134275E+00 -0.69150768385E+00  0.59563046571E+02  0.60031236380E+02  0.74470750000E+01 0.  1.
<mgrwt>
<rscale>  0 0.14965834E+02</rscale>
<asrwt>0</asrwt>
<pdfrwt beam="2">  1        2 0.98979229E+00 0.14965834E+02</pdfrwt>
<pdfrwt beam="1">  1       -2 0.99738346E+00 0.14965834E+02</pdfrwt>
<totfact>-0.13294781E-13</totfact>
</mgrwt>
</event>
<event>
 4    1 -0.4926183E-019  0.1501432E+02  0.7818608E-02  0.1867632E+00
          2   -1    0    0  501    0  0.00000000000E+00  0.00000000000E+00  0.12013287884E+03  0.12013287886E+03  0.25500000000E-02 0.  1.
         -2   -1    0    0    0  501 -0.00000000000E+00 -0.00000000000E+00 -0.46912236177E+00  0.46912929221E+00  0.25500000000E-02 0. -1.
         31    1    1    2    0    0  0.30694989457E+00 -0.58215068736E+00  0.54352136520E+02  0.54863893300E+02  0.74470750000E+01 0. -1.
        -31    1    1    2    0    0 -0.30694989457E+00  0.58215068736E+00  0.65311619956E+02  0.65738114857E+02  0.74470750000E+01 0.  1.
<mgrwt>
<rscale>  0 0.15014318E+02</rscale>
<asrwt>0</asrwt>
<pdfrwt beam="1">  1        2 0.99722178E+00 0.15014318E+02</pdfrwt>
<pdfrwt beam="2">  1       -2 0.99637741E+00 0.15014318E+02</pdfrwt>
<totfact>-0.74786276E-14</totfact>
</mgrwt>
</event>
<event>
 4    1 -0.4926183E-019  0.1494779E+02  0.7818608E-02  0.1869666E+00
         -2   -1    0    0    0  501 -0.00000000000E+00  0.00000000000E+00  0.12012580349E+03  0.12012580352E+03  0.25500000000E-02 0. -1.
          2   -1    0    0  501    0  0.00000000000E+00 -0.00000000000E+00 -0.46500177825E+00  0.46500877010E+00  0.25500000000E-02 0.  1.
         31    1    1    2    0    0 -0.44159343495E+00 -0.37202768211E+00  0.61915493977E+02  0.62364418780E+02  0.74470750000E+01 0. -1.
        -31    1    1    2    0    0  0.44159343495E+00  0.37202768211E+00  0.57745307737E+02  0.58226393509E+02  0.74470750000E+01 0. -1.
<mgrwt>
<rscale>  0 0.14947794E+02</rscale>
<asrwt>0</asrwt>
<pdfrwt beam="2">  1        2 0.98765927E+00 0.14947794E+02</pdfrwt>
<pdfrwt beam="1">  1       -2 0.99712921E+00 0.14947794E+02</pdfrwt>
<totfact>-0.18154935E-13</totfact>
</mgrwt>
</event>
<event>
 4    1 -0.4926183E-019  0.1491486E+02  0.7818608E-02  0.1870678E+00
         -2   -1    0    0    0  501 -0.00000000000E+00  0.00000000000E+00  0.12009927125E+03  0.12009927128E+03  0.25500000000E-02 0. -1.
          2   -1    0    0  501    0  0.00000000000E+00 -0.00000000000E+00 -0.46305753524E+00  0.46306455645E+00  0.25500000000E-02 0.  1.
         31    1    1    2    0    0  0.35177810973E+00 -0.10090155252E+00  0.58662372074E+02  0.59134311126E+02  0.74470750000E+01 0. -1.
        -31    1    1    2    0    0 -0.35177810973E+00  0.10090155252E+00  0.60973841643E+02  0.61428024709E+02  0.74470750000E+01 0. -1.
<mgrwt>
<rscale>  0 0.14914865E+02</rscale>
<asrwt>0</asrwt>
<pdfrwt beam="2">  1        2 0.98354481E+00 0.14914865E+02</pdfrwt>
<pdfrwt beam="1">  1       -2 0.99689375E+00 0.14914865E+02</pdfrwt>
<totfact>-0.36175637E-13</totfact>
</mgrwt>
</event>
<event>
 4    1 -0.4926183E-019  0.1492548E+02  0.7818608E-02  0.1870351E+00
         -2   -1    0    0    0  501 -0.00000000000E+00  0.00000000000E+00  0.12024042644E+03  0.12024042647E+03  0.25500000000E-02 0. -1.
          2   -1    0    0  501    0  0.00000000000E+00 -0.00000000000E+00 -0.46317267923E+00  0.46317969869E+00  0.25500000000E-02 0.  1.
         31    1    1    2    0    0  0.30344507011E+00  0.25318144507E+00  0.62138521306E+02  0.62584430459E+02  0.74470750000E+01 0.  1.
        -31    1    1    2    0    0 -0.30344507011E+00 -0.25318144507E+00  0.57638732455E+02  0.58119175707E+02  0.74470750000E+01 0.  1.
<mgrwt>
<rscale>  0 0.14925482E+02</rscale>
<asrwt>0</asrwt>
<pdfrwt beam="2">  1        2 0.98379287E+00 0.14925482E+02</pdfrwt>
<pdfrwt beam="1">  1       -2 0.99806187E+00 0.14925482E+02</pdfrwt>
<totfact>-0.24547531E-13</totfact>
</mgrwt>
</event>
<event>
 4    1 -0.4926183E-019  0.1494787E+02  0.7818608E-02  0.1869664E+00
         -2   -1    0    0    0  501 -0.00000000000E+00  0.00000000000E+00  0.11966786406E+03  0.11966786409E+03  0.25500000000E-02 0. -1.
          2   -1    0    0  501    0  0.00000000000E+00 -0.00000000000E+00 -0.46678579048E+00  0.46679275562E+00  0.25500000000E-02 0.  1.
         31    1    1    2    0    0 -0.19353601601E+00  0.59731032002E+00  0.58951752510E+02  0.59423583583E+02  0.74470750000E+01 0. -1.
        -31    1    1    2    0    0  0.19353601601E+00 -0.59731032002E+00  0.60249325764E+02  0.60711073264E+02  0.74470750000E+01 0. -1.
<mgrwt>
<rscale>  0 0.14947867E+02</rscale>
<asrwt>0</asrwt>
<pdfrwt beam="2">  1        2 0.99141909E+00 0.14947867E+02</pdfrwt>
<pdfrwt beam="1">  1       -2 0.99335740E+00 0.14947867E+02</pdfrwt>
<totfact>-0.14515129E-13</totfact>
</mgrwt>
</event>
<event>
 4    1 -0.4926183E-019  0.1493074E+02  0.7818608E-02  0.1870189E+00
          2   -1    0    0  501    0  0.00000000000E+00  0.00000000000E+00  0.11855126722E+03  0.11855126724E+03  0.25500000000E-02 0. -1.
         -2   -1    0    0    0  501 -0.00000000000E+00 -0.00000000000E+00 -0.47010332973E+00  0.47011024571E+00  0.25500000000E-02 0.  1.
         31    1    1    2    0    0  0.32100062095E+00  0.23634464770E+00  0.56349869621E+02  0.56841231800E+02  0.74470750000E+01 0.  1.
        -31    1    1    2    0    0 -0.32100062095E+00 -0.23634464770E+00  0.61731294266E+02  0.62180145690E+02  0.74470750000E+01 0. -1.
<mgrwt>
<rscale>  0 0.14930741E+02</rscale>
<asrwt>0</asrwt>
<pdfrwt beam="1">  1        2 0.98415202E+00 0.14930741E+02</pdfrwt>
<pdfrwt beam="2">  1       -2 0.99840083E+00 0.14930741E+02</pdfrwt>
<totfact>-0.19692494E-13</totfact>
</mgrwt>
</event>
<event>
 4    1  0.4926183E-019  0.1493894E+02  0.7818608E-02  0.1869937E+00
          2   -1    0    0  501    0  0.00000000000E+00  0.00000000000E+00  0.12030471980E+03  0.12030471983E+03  0.25500000000E-02 0. -1.
         -2   -1    0    0    0  501 -0.00000000000E+00 -0.00000000000E+00 -0.46376044987E+00  0.46376746044E+00  0.25500000000E-02 0.  1.
         31    1    1    2    0    0  0.25272122840E+00  0.59769042276E-01  0.64094820529E+02  0.64526524663E+02  0.74470750000E+01 0. -1.
        -31    1    1    2    0    0 -0.25272122840E+00 -0.59769042276E-01  0.55746138824E+02  0.56241962627E+02  0.74470750000E+01 0.  1.
<mgrwt>
<rscale>  0 0.14938942E+02</rscale>
<asrwt>0</asrwt>
<pdfrwt beam="1">  1        2 0.99859835E+00 0.14938942E+02</pdfrwt>
<pdfrwt beam="2">  1       -2 0.98503852E+00 0.14938942E+02</pdfrwt>
<totfact> 0.19723934E-13</totfact>
</mgrwt>
</event>
<event>
 4    1  0.4926183E-019  0.1493313E+02  0.7818608E-02  0.1870116E+00
         -2   -1    0    0    0  501 -0.00000000000E+00  0.00000000000E+00  0.11892111877E+03  0.11892111880E+03  0.25500000000E-02 0.  1.
          2   -1    0    0  501    0  0.00000000000E+00 -0.00000000000E+00 -0.46879096058E+00  0.46879789592E+00  0.25500000000E-02 0. -1.
         31    1    1    2    0    0  0.46902215778E+00 -0.19549178842E+00  0.57786263961E+02  0.58266366177E+02  0.74470750000E+01 0.  1.
        -31    1    1    2    0    0 -0.46902215778E+00  0.19549178842E+00  0.60666063851E+02  0.61123550519E+02  0.74470750000E+01 0.  1.
<mgrwt>
<rscale>  0 0.14933126E+02</rscale>
<asrwt>0</asrwt>
<pdfrwt beam="2">  1        2 0.99563685E+00 0.14933126E+02</pdfrwt>
<pdfrwt beam="1">  1       -2 0.98719936E+00 0.14933126E+02</pdfrwt>
<totfact> 0.20977666E-13</totfact>
</mgrwt>
</event>
<event>
 4    1  0.4926183E-019  0.1489991E+02  0.7818608E-02  0.1871138E+00
          2   -1    0    0  501    0  0.00000000000E+00  0.00000000000E+00  0.11967252005E+03  0.11967252008E+03  0.25500000000E-02 0.  1.
         -2   -1    0    0    0  501 -0.00000000000E+00 -0.00000000000E+00 -0.46377751439E+00  0.46378452470E+00  0.25500000000E-02 0. -1.
         31    1    1    2    0    0  0.16360057414E+00  0.93553110631E-01  0.58910624086E+02  0.59379761482E+02  0.74470750000E+01 0.  1.
        -31    1    1    2    0    0 -0.16360057414E+00 -0.93553110631E-01  0.60298118454E+02  0.60756543125E+02  0.74470750000E+01 0.  1.
<mgrwt>
<rscale>  0 0.14899912E+02</rscale>
<asrwt>0</asrwt>
<pdfrwt beam="1">  1        2 0.99337102E+00 0.14899912E+02</pdfrwt>
<pdfrwt beam="2">  1       -2 0.98505464E+00 0.14899912E+02</pdfrwt>
<totfact> 0.54862682E-13</totfact>
</mgrwt>
</event>
<event>
 4    1 -0.4926183E-019  0.1493015E+02  0.7818608E-02  0.1870208E+00
          2   -1    0    0  501    0  0.00000000000E+00  0.00000000000E+00  0.11852893312E+03  0.11852893315E+03  0.25500000000E-02 0.  1.
         -2   -1    0    0    0  501 -0.00000000000E+00 -0.00000000000E+00 -0.47015443007E+00  0.47016134530E+00  0.25500000000E-02 0. -1.
         31    1    1    2    0    0  0.20422577863E+00 -0.41911289274E+00  0.57228958714E+02  0.57713343390E+02  0.74470750000E+01 0.  1.
        -31    1    1    2    0    0 -0.20422577863E+00  0.41911289274E+00  0.60829819979E+02  0.61285751105E+02  0.74470750000E+01 0.  1.
<mgrwt>
<rscale>  0 0.14930146E+02</rscale>
<asrwt>0</asrwt>
<pdfrwt beam="1">  1        2 0.98396777E+00 0.14930146E+02</pdfrwt>
<pdfrwt beam="2">  1       -2 0.99850818E+00 0.14930146E+02</pdfrwt>
<totfact>-0.19128162E-13</totfact>
</mgrwt>
</event>
<event>
 4    1  0.4926183E-019  0.1490318E+02  0.7818608E-02  0.1871037E+00
         -2   -1    0    0    0  501 -0.00000000000E+00  0.00000000000E+00  0.11846085176E+03  0.11846085179E+03  0.25500000000E-02 0. -1.
          2   -1    0    0  501    0  0.00000000000E+00 -0.00000000000E+00 -0.46872701254E+00  0.46873394883E+00  0.25500000000E-02 0.  1.
         31    1    1    2    0    0 -0.22997251394E+00 -0.11158901971E+00  0.59348431300E+02  0.59814384251E+02  0.74470750000E+01 0.  1.
        -31    1    1    2    0    0  0.22997251394E+00  0.11158901971E+00  0.58643693451E+02  0.59115201489E+02  0.74470750000E+01 0.  1.
<mgrwt>
<rscale>  0 0.14903183E+02</rscale>
<asrwt>0</asrwt>
<pdfrwt beam="2">  1        2 0.99548638E+00 0.14903183E+02</pdfrwt>
<pdfrwt beam="1">  1       -2 0.98339303E+00 0.14903183E+02</pdfrwt>
<totfact> 0.69057435E-13</totfact>
</mgrwt>
</event>
<event>
 4    1 -0.4926183E-019  0.1491602E+02  0.7818608E-02  0.1870642E+00
         -2   -1    0    0    0  501 -0.00000000000E+00  0.00000000000E+00  0.11946636743E+03  0.11946636745E+03  0.25500000000E-02 0.  1.
          2   -1    0    0  501    0  0.00000000000E+00 -0.00000000000E+00 -0.46558287141E+00  0.46558985454E+00  0.25500000000E-02 0. -1.
         31    1    1    2    0    0 -0.74720956989E-01  0.39046616270E+00  0.58935170912E+02  0.59405145767E+02  0.74470750000E+01 0.  1.
        -31    1    1    2    0    0  0.74720956989E-01 -0.39046616270E+00  0.60065613642E+02  0.60526811540E+02  0.74470750000E+01 0. -1.
<mgrwt>
<rscale>  0 0.14916020E+02</rscale>
<asrwt>0</asrwt>
<pdfrwt beam="2">  1        2 0.98886765E+00 0.14916020E+02</pdfrwt>
<pdfrwt beam="1">  1       -2 0.99168134E+00 0.14916020E+02</pdfrwt>
<totfact>-0.11526251E-13</totfact>
</mgrwt>
</event>
<event>
 4    1  0.4926183E-019  0.1490642E+02  0.7818608E-02  0.1870938E+00
         -2   -1    0    0    0  501 -0.00000000000E+00  0.00000000000E+00  0.11837086605E+03  0.11837086608E+03  0.25500000000E-02 0. -1.
          2   -1    0    0  501    0  0.00000000000E+00 -0.00000000000E+00 -0.46928710289E+00  0.46929403090E+00  0.25500000000E-02 0.  1.
         31    1    1    2    0    0  0.13253196054E+00 -0.20692524037E+00  0.57546529248E+02  0.58026910458E+02  0.74470750000E+01 0.  1.
        -31    1    1    2    0    0 -0.13253196054E+00  0.20692524037E+00  0.60355049698E+02  0.60813249649E+02  0.74470750000E+01 0. -1.
<mgrwt>
<rscale>  0 0.14906419E+02</rscale>
<asrwt>0</asrwt>
<pdfrwt beam="2">  1        2 0.99666821E+00 0.14906419E+02</pdfrwt>
<pdfrwt beam="1">  1       -2 0.98265359E+00 0.14906419E+02</pdfrwt>
<totfact> 0.67884035E-13</totfact>
</mgrwt>
</event>
<event>
 4    1 -0.4926183E-019  0.1500716E+02  0.7818608E-02  0.1867850E+00
         -2   -1    0    0    0  501 -0.00000000000E+00  0.00000000000E+00  0.12005870967E+03  0.12005870970E+03  0.25500000000E-02 0.  1.
          2   -1    0    0  501    0  0.00000000000E+00 -0.00000000000E+00 -0.46896440557E+00  0.46897133834E+00  0.25500000000E-02 0. -1.
         31    1    1    2    0    0 -0.25707314193E+00 -0.10824435186E+00  0.52761359253E+02  0.53285061319E+02  0.74470750000E+01 0. -1.
        -31    1    1    2    0    0  0.25707314193E+00  0.10824435186E+00  0.66828386010E+02  0.67242619715E+02  0.74470750000E+01 0.  1.
<mgrwt>
<rscale>  0 0.15007156E+02</rscale>
<asrwt>0</asrwt>
<pdfrwt beam="2">  1        2 0.99604084E+00 0.15007156E+02</pdfrwt>
<pdfrwt beam="1">  1       -2 0.99660720E+00 0.15007156E+02</pdfrwt>
<totfact>-0.90620504E-14</totfact>
</mgrwt>
</event>
<event>
 4    1 -0.4926183E-019  0.1489952E+02  0.7818608E-02  0.1871150E+00
         -2   -1    0    0    0  501 -0.00000000000E+00  0.00000000000E+00  0.12014560604E+03  0.12014560607E+03  0.25500000000E-02 0. -1.
          2   -1    0    0  501    0  0.00000000000E+00 -0.00000000000E+00 -0.46192714375E+00  0.46193418214E+00  0.25500000000E-02 0.  1.
         31    1    1    2    0    0 -0.17227558190E+00  0.61411759218E-01  0.59185898424E+02  0.59652853650E+02  0.74470750000E+01 0. -1.
        -31    1    1    2    0    0  0.17227558190E+00 -0.61411759218E-01  0.60497780473E+02  0.60954686600E+02  0.74470750000E+01 0. -1.
<mgrwt>
<rscale>  0 0.14899523E+02</rscale>
<asrwt>0</asrwt>
<pdfrwt beam="2">  1        2 0.98115451E+00 0.14899523E+02</pdfrwt>
<pdfrwt beam="1">  1       -2 0.99726753E+00 0.14899523E+02</pdfrwt>
<totfact>-0.49719571E-13</totfact>
</mgrwt>
</event>
<event>
 4    1  0.4926183E-019  0.1489736E+02  0.7818608E-02  0.1871217E+00
         -2   -1    0    0    0  501 -0.00000000000E+00  0.00000000000E+00  0.11859299573E+03  0.11859299576E+03  0.25500000000E-02 0.  1.
          2   -1    0    0  501    0  0.00000000000E+00 -0.00000000000E+00 -0.46783914544E+00  0.46784609489E+00  0.25500000000E-02 0. -1.
         31    1    1    2    0    0 -0.14837464681E+00  0.22123608460E-01  0.59364861537E+02  0.59830328562E+02  0.74470750000E+01 0. -1.
        -31    1    1    2    0    0  0.14837464681E+00 -0.22123608460E-01  0.58760295052E+02  0.59230513294E+02  0.74470750000E+01 0. -1.
<mgrwt>
<rscale>  0 0.14897364E+02</rscale>
<asrwt>0</asrwt>
<pdfrwt beam="2">  1        2 0.99361252E+00 0.14897364E+02</pdfrwt>
<pdfrwt beam="1">  1       -2 0.98447834E+00 0.14897364E+02</pdfrwt>
<totfact> 0.63072434E-13</totfact>
</mgrwt>
</event>
<event>
 4    1 -0.4926183E-019  0.1493405E+02  0.7818608E-02  0.1870088E+00
         -2   -1    0    0    0  501 -0.00000000000E+00  0.00000000000E+00  0.11995914570E+03  0.11995914573E+03  0.25500000000E-02 0.  1.
          2   -1    0    0  501    0  0.00000000000E+00 -0.00000000000E+00 -0.46479174310E+00  0.46479873812E+00  0.25500000000E-02 0. -1.
         31    1    1    2    0    0  0.33409786822E+00 -0.40683413228E+00  0.58595961714E+02  0.59069643563E+02  0.74470750000E+01 0. -1.
        -31    1    1    2    0    0 -0.33409786822E+00  0.40683413228E+00  0.60898392245E+02  0.61354300904E+02  0.74470750000E+01 0. -1.
<mgrwt>
<rscale>  0 0.14934047E+02</rscale>
<asrwt>0</asrwt>
<pdfrwt beam="2">  1        2 0.98720960E+00 0.14934047E+02</pdfrwt>
<pdfrwt beam="1">  1       -2 0.99574943E+00 0.14934047E+02</pdfrwt>
<totfact>-0.23846441E-13</totfact>
</mgrwt>
</event>
<event>
 4    1 -0.4926183E-019  0.1497182E+02  0.7818608E-02  0.1868930E+00
         -2   -1    0    0    0  501 -0.00000000000E+00  0.00000000000E+00  0.12030409484E+03  0.12030409486E+03  0.25500000000E-02 0.  1.
          2   -1    0    0  501    0  0.00000000000E+00 -0.00000000000E+00 -0.46580621525E+00  0.46581319503E+00  0.25500000000E-02 0. -1.
         31    1    1    2    0    0  0.70044528420E+00  0.58974865099E-01  0.62281818802E+02  0.62729402843E+02  0.74470750000E+01 0. -1.
        -31    1    1    2    0    0 -0.70044528420E+00 -0.58974865099E-01  0.57556469820E+02  0.58040505217E+02  0.74470750000E+01 0. -1.
<mgrwt>
<rscale>  0 0.14971816E+02</rscale>
<asrwt>0</asrwt>
<pdfrwt beam="2">  1        2 0.98936693E+00 0.14971816E+02</pdfrwt>
<pdfrwt beam="1">  1       -2 0.99861010E+00 0.14971816E+02</pdfrwt>
<totfact>-0.83187793E-14</totfact>
</mgrwt>
</event>
<event>
 4    1 -0.4926183E-019  0.1500764E+02  0.7818608E-02  0.1867835E+00
          2   -1    0    0  501    0  0.00000000000E+00  0.00000000000E+00  0.11979366510E+03  0.11979366512E+03  0.25500000000E-02 0.  1.
         -2   -1    0    0    0  501 -0.00000000000E+00 -0.00000000000E+00 -0.47003237979E+00  0.47003929681E+00  0.25500000000E-02 0. -1.
         31    1    1    2    0    0  0.56908253495E+00 -0.29902052825E+00  0.64947839621E+02  0.65376555934E+02  0.74470750000E+01 0.  1.
        -31    1    1    2    0    0 -0.56908253495E+00  0.29902052825E+00  0.54375793095E+02  0.54887148486E+02  0.74470750000E+01 0. -1.
<mgrwt>
<rscale>  0 0.15007641E+02</rscale>
<asrwt>0</asrwt>
<pdfrwt beam="1">  1        2 0.99442445E+00 0.15007641E+02</pdfrwt>
<pdfrwt beam="2">  1       -2 0.99829163E+00 0.15007641E+02</pdfrwt>
<totfact>-0.65807408E-14</totfact>
</mgrwt>
</event>
<event>
 4    1  0.4926183E-019  0.1492151E+02  0.7818608E-02  0.1870473E+00
          2   -1    0    0  501    0  0.00000000000E+00  0.00000000000E+00  0.12010336467E+03  0.12010336470E+03  0.25500000000E-02 0. -1.
         -2   -1    0    0    0  501 -0.00000000000E+00 -0.00000000000E+00 -0.46345460405E+00  0.46346161924E+00  0.25500000000E-02 0.  1.
         31    1    1    2    0    0  0.29380675784E+00  0.34281273113E+00  0.59734133146E+02  0.60198251069E+02  0.74470750000E+01 0.  1.
        -31    1    1    2    0    0 -0.29380675784E+00 -0.34281273113E+00  0.59905776921E+02  0.60368575248E+02  0.74470750000E+01 0.  1.
<mgrwt>
<rscale>  0 0.14921512E+02</rscale>
<asrwt>0</asrwt>
<pdfrwt beam="1">  1        2 0.99693088E+00 0.14921512E+02</pdfrwt>
<pdfrwt beam="2">  1       -2 0.98438506E+00 0.14921512E+02</pdfrwt>
<totfact> 0.42920506E-13</totfact>
</mgrwt>
</event>
<event>
 4    1 -0.4926183E-019  0.1501226E+02  0.7818608E-02  0.1867695E+00
          2   -1    0    0  501    0  0.00000000000E+00  0.00000000000E+00  0.11989136260E+03  0.11989136263E+03  0.25500000000E-02 0. -1.
         -2   -1    0    0    0  501 -0.00000000000E+00 -0.00000000000E+00 -0.46993856879E+00  0.46994548720E+00  0.25500000000E-02 0.  1.
         31    1    1    2    0    0 -0.76998068514E+00  0.37660517333E+00  0.56622498170E+02  0.57116555628E+02  0.74470750000E+01 0. -1.
        -31    1    1    2    0    0  0.76998068514E+00 -0.37660517333E+00  0.62798925865E+02  0.63244752490E+02  0.74470750000E+01 0. -1.
<mgrwt>
<rscale>  0 0.15012261E+02</rscale>
<asrwt>0</asrwt>
<pdfrwt beam="1">  1        2 0.99523151E+00 0.15012261E+02</pdfrwt>
<pdfrwt beam="2">  1       -2 0.99809635E+00 0.15012261E+02</pdfrwt>
<totfact>-0.66476151E-14</totfact>
</mgrwt>
</event>
<event>
 4    1 -0.4926183E-019  0.1489799E+02  0.7818608E-02  0.1871197E+00
          2   -1    0    0  501    0  0.00000000000E+00  0.00000000000E+00  0.11809211198E+03  0.11809211200E+03  0.25500000000E-02 0. -1.
         -2   -1    0    0    0  501 -0.00000000000E+00 -0.00000000000E+00 -0.46986329090E+00  0.46987021041E+00  0.25500000000E-02 0.  1.
         31    1    1    2    0    0 -0.15662658903E+00 -0.28868618177E-01  0.59266128149E+02  0.59732388510E+02  0.74470750000E+01 0. -1.
        -31    1    1    2    0    0  0.15662658903E+00  0.28868618177E-01  0.58356120535E+02  0.58829593703E+02  0.74470750000E+01 0.  1.
<mgrwt>
<rscale>  0 0.14897995E+02</rscale>
<asrwt>0</asrwt>
<pdfrwt beam="1">  1        2 0.98035342E+00 0.14897995E+02</pdfrwt>
<pdfrwt beam="2">  1       -2 0.99787774E+00 0.14897995E+02</pdfrwt>
<totfact>-0.47049383E-13</totfact>
</mgrwt>
</event>
<event>
 4    1 -0.4926183E-019  0.1491731E+02  0.7818608E-02  0.1870602E+00
         -2   -1    0    0    0  501 -0.00000000000E+00  0.00000000000E+00  0.11958760023E+03  0.11958760026E+03  0.25500000000E-02 0.  1.
          2   -1    0    0  501    0  0.00000000000E+00 -0.00000000000E+00 -0.46519125307E+00  0.46519824208E+00  0.25500000000E-02 0. -1.
         31    1    1    2    0    0  0.33030682603E+00  0.18571434453E+00  0.58190503080E+02  0.58666320553E+02  0.74470750000E+01 0. -1.
        -31    1    1    2    0    0 -0.33030682603E+00 -0.18571434453E+00  0.60931905902E+02  0.61386477952E+02  0.74470750000E+01 0. -1.
<mgrwt>
<rscale>  0 0.14917309E+02</rscale>
<asrwt>0</asrwt>
<pdfrwt beam="2">  1        2 0.98804301E+00 0.14917309E+02</pdfrwt>
<pdfrwt beam="1">  1       -2 0.99268053E+00 0.14917309E+02</pdfrwt>
<totfact>-0.18038499E-13</totfact>
</mgrwt>
</event>
<event>
 4    1  0.4926183E-019  0.1490323E+02  0.7818608E-02  0.1871036E+00
          2   -1    0    0  501    0  0.00000000000E+00  0.00000000000E+00  0.11946046072E+03  0.11946046075E+03  0.25500000000E-02 0. -1.
         -2   -1    0    0    0  501 -0.00000000000E+00 -0.00000000000E+00 -0.46480761784E+00  0.46481461261E+00  0.25500000000E-02 0.  1.
         31    1    1    2    0    0 -0.18445004090E+00  0.16379925823E+00  0.60160180496E+02  0.60619857270E+02  0.74470750000E+01 0. -1.
        -31    1    1    2    0    0  0.18445004090E+00 -0.16379925823E+00  0.58835472605E+02  0.59305418089E+02  0.74470750000E+01 0.  1.
<mgrwt>
<rscale>  0 0.14903228E+02</rscale>
<asrwt>0</asrwt>
<pdfrwt beam="1">  1        2 0.99162608E+00 0.14903228E+02</pdfrwt>
<pdfrwt beam="2">  1       -2 0.98722728E+00 0.14903228E+02</pdfrwt>
<totfact> 0.29079479E-13</totfact>
</mgrwt>
</event>
<event>
 4    1 -0.4926183E-019  0.1496746E+02  0.7818608E-02  0.1869063E+00
         -2   -1    0    0    0  501 -0.00000000000E+00  0.00000000000E+00  0.12034656433E+03  0.12034656435E+03  0.25500000000E-02 0.  1.
          2   -1    0    0  501    0  0.00000000000E+00 -0.00000000000E+00 -0.46537079788E+00  0.46537778420E+00  0.25500000000E-02 0. -1.
         31    1    1    2    0    0  0.26070978318E+00 -0.41455646548E+00  0.64416156622E+02  0.64847050717E+02  0.74470750000E+01 0.  1.
        -31    1    1    2    0    0 -0.26070978318E+00  0.41455646548E+00  0.55465036908E+02  0.55964891422E+02  0.74470750000E+01 0. -1.
<mgrwt>
<rscale>  0 0.14967458E+02</rscale>
<asrwt>0</asrwt>
<pdfrwt beam="2">  1        2 0.98844703E+00 0.14967458E+02</pdfrwt>
<pdfrwt beam="1">  1       -2 0.99895767E+00 0.14967458E+02</pdfrwt>
<totfact>-0.71307915E-14</totfact>
</mgrwt>
</event>
<event>
 4    1 -0.4926183E-019  0.1493789E+02  0.7818608E-02  0.1869970E+00
          2   -1    0    0  501    0  0.00000000000E+00  0.00000000000E+00  0.11862281941E+03  0.11862281944E+03  0.25500000000E-02 0. -1.
         -2   -1    0    0    0  501 -0.00000000000E+00 -0.00000000000E+00 -0.47026966745E+00  0.47027658099E+00  0.25500000000E-02 0.  1.
         31    1    1    2    0    0  0.32023885508E+00  0.43422164358E+00  0.57582623422E+02  0.58064692780E+02  0.74470750000E+01 0. -1.
        -31    1    1    2    0    0 -0.32023885508E+00 -0.43422164358E+00  0.60569926321E+02  0.61028403240E+02  0.74470750000E+01 0. -1.
<mgrwt>
<rscale>  0 0.14937888E+02</rscale>
<asrwt>0</asrwt>
<pdfrwt beam="1">  1        2 0.98474504E+00 0.14937888E+02</pdfrwt>
<pdfrwt beam="2">  1       -2 0.99875507E+00 0.14937888E+02</pdfrwt>
<totfact>-0.14344144E-13</totfact>
</mgrwt>
</event>
<event>
 4    1  0.4926183E-019  0.1493628E+02  0.7818608E-02  0.1870019E+00
         -2   -1    0    0    0  501 -0.00000000000E+00  0.00000000000E+00  0.11890940724E+03  0.11890940726E+03  0.25500000000E-02 0. -1.
          2   -1    0    0  501    0  0.00000000000E+00 -0.00000000000E+00 -0.46903545818E+00  0.46904238991E+00  0.25500000000E-02 0.  1.
         31    1    1    2    0    0 -0.71455025655E-01 -0.11443874168E+00  0.54871673974E+02  0.55374883592E+02  0.74470750000E+01 0.  1.
        -31    1    1    2    0    0  0.71455025655E-01  0.11443874168E+00  0.63568697803E+02  0.64003566061E+02  0.74470750000E+01 0. -1.
<mgrwt>
<rscale>  0 0.14936284E+02</rscale>
<asrwt>0</asrwt>
<pdfrwt beam="2">  1        2 0.99615369E+00 0.14936284E+02</pdfrwt>
<pdfrwt beam="1">  1       -2 0.98710455E+00 0.14936284E+02</pdfrwt>
<totfact> 0.20329534E-13</totfact>
</mgrwt>
</event>
<event>
 4    1 -0.4926183E-019  0.1492257E+02  0.7818608E-02  0.1870441E+00
          2   -1    0    0  501    0  0.00000000000E+00  0.00000000000E+00  0.11870100921E+03  0.11870100924E+03  0.25500000000E-02 0.  1.
         -2   -1    0    0    0  501 -0.00000000000E+00 -0.00000000000E+00 -0.46899623501E+00  0.46900316732E+00  0.25500000000E-02 0. -1.
         31    1    1    2    0    0  0.37193598002E+00 -0.17190416452E+00  0.57442249497E+02  0.57924423525E+02  0.74470750000E+01 0. -1.
        -31    1    1    2    0    0 -0.37193598002E+00  0.17190416452E+00  0.60789763482E+02  0.61245588883E+02  0.74470750000E+01 0. -1.
<mgrwt>
<rscale>  0 0.14922566E+02</rscale>
<asrwt>0</asrwt>
<pdfrwt beam="1">  1        2 0.98538104E+00 0.14922566E+02</pdfrwt>
<pdfrwt beam="2">  1       -2 0.99606384E+00 0.14922566E+02</pdfrwt>
<totfact>-0.30427034E-13</totfact>
</mgrwt>
</event>
<event>
 4    1 -0.4926183E-019  0.1499430E+02  0.7818608E-02  0.1868243E+00
          2   -1    0    0  501    0  0.00000000000E+00  0.00000000000E+00  0.11971813033E+03  0.11971813036E+03  0.25500000000E-02 0.  1.
         -2   -1    0    0    0  501 -0.00000000000E+00 -0.00000000000E+00 -0.46949289258E+00  0.46949981755E+00  0.25500000000E-02 0. -1.
         31    1    1    2    0    0 -0.65747560578E+00 -0.42817074657E+00  0.62544211937E+02  0.62990895987E+02  0.74470750000E+01 0.  1.
        -31    1    1    2    0    0  0.65747560578E+00  0.42817074657E+00  0.56704425502E+02  0.57196734190E+02  0.74470750000E+01 0. -1.
<mgrwt>
<rscale>  0 0.14994296E+02</rscale>
<asrwt>0</asrwt>
<pdfrwt beam="1">  1        2 0.99379542E+00 0.14994296E+02</pdfrwt>
<pdfrwt beam="2">  1       -2 0.99714786E+00 0.14994296E+02</pdfrwt>
<totfact>-0.10286299E-13</totfact>
</mgrwt>
</event>
<event>
 4    1 -0.4926183E-019  0.1495464E+02  0.7818608E-02  0.1869456E+00
         -2   -1    0    0    0  501 -0.00000000000E+00  0.00000000000E+00  0.11980320823E+03  0.11980320826E+03  0.25500000000E-02 0. -1.
          2   -1    0    0  501    0  0.00000000000E+00 -0.00000000000E+00 -0.46668116242E+00  0.46668812911E+00  0.25500000000E-02 0.  1.
         31    1    1    2    0    0 -0.18830287642E+00  0.53165926341E+00  0.62604263394E+02  0.63048162866E+02  0.74470750000E+01 0. -1.
        -31    1    1    2    0    0  0.18830287642E+00 -0.53165926341E+00  0.56732263676E+02  0.57221733524E+02  0.74470750000E+01 0. -1.
<mgrwt>
<rscale>  0 0.14954641E+02</rscale>
<asrwt>0</asrwt>
<pdfrwt beam="2">  1        2 0.99120208E+00 0.14954641E+02</pdfrwt>
<pdfrwt beam="1">  1       -2 0.99447565E+00 0.14954641E+02</pdfrwt>
<totfact>-0.16073980E-13</totfact>
</mgrwt>
</event>
<event>
 4    1  0.4926183E-019  0.1491066E+02  0.7818608E-02  0.1870807E+00
          2   -1    0    0  501    0  0.00000000000E+00  0.00000000000E+00  0.11962421985E+03  0.11962421987E+03  0.25500000000E-02 0.  1.
         -2   -1    0    0    0  501 -0.00000000000E+00 -0.00000000000E+00 -0.46463429686E+00  0.46464129424E+00  0.25500000000E-02 0. -1.
         31    1    1    2    0    0  0.30276187077E+00  0.99920553413E-02  0.61003451799E+02  0.61457073002E+02  0.74470750000E+01 0.  1.
        -31    1    1    2    0    0 -0.30276187077E+00 -0.99920553413E-02  0.58156133751E+02  0.58631788166E+02  0.74470750000E+01 0. -1.
<mgrwt>
<rscale>  0 0.14910659E+02</rscale>
<asrwt>0</asrwt>
<pdfrwt beam="1">  1        2 0.99297873E+00 0.14910659E+02</pdfrwt>
<pdfrwt beam="2">  1       -2 0.98686582E+00 0.14910659E+02</pdfrwt>
<totfact> 0.30707719E-13</totfact>
</mgrwt>
</event>
<event>
 4    1 -0.4926183E-019  0.1496264E+02  0.7818608E-02  0.1869211E+00
         -2   -1    0    0    0  501 -0.00000000000E+00  0.00000000000E+00  0.11998664534E+03  0.11998664536E+03  0.25500000000E-02 0.  1.
          2   -1    0    0  501    0  0.00000000000E+00 -0.00000000000E+00 -0.46646646693E+00  0.46647343684E+00  0.25500000000E-02 0. -1.
         31    1    1    2    0    0 -0.61455918130E+00 -0.34270486605E+00  0.58738237267E+02  0.59212621737E+02  0.74470750000E+01 0. -1.
        -31    1    1    2    0    0  0.61455918130E+00  0.34270486605E+00  0.60781941604E+02  0.61240497065E+02  0.74470750000E+01 0. -1.
<mgrwt>
<rscale>  0 0.14962643E+02</rscale>
<asrwt>0</asrwt>
<pdfrwt beam="2">  1        2 0.99075373E+00 0.14962643E+02</pdfrwt>
<pdfrwt beam="1">  1       -2 0.99599066E+00 0.14962643E+02</pdfrwt>
<totfact>-0.15675476E-13</totfact>
</mgrwt>
</event>
<event>
 4    1 -0.4926183E-019  0.1498093E+02  0.7818608E-02  0.1868651E+00
          2   -1    0    0  501    0  0.00000000000E+00  0.00000000000E+00  0.11995386566E+03  0.11995386569E+03  0.25500000000E-02 0. -1.
         -2   -1    0    0    0  501 -0.00000000000E+00 -0.00000000000E+00 -0.46773524003E+00  0.46774219102E+00  0.25500000000E-02 0.  1.
         31    1    1    2    0    0  0.61672787130E-01 -0.18247403934E-01  0.53292300874E+02  0.53810151412E+02  0.74470750000E+01 0.  1.
        -31    1    1    2    0    0 -0.61672787130E-01  0.18247403934E-01  0.66193829548E+02  0.66611456468E+02  0.74470750000E+01 0. -1.
<mgrwt>
<rscale>  0 0.14980931E+02</rscale>
<asrwt>0</asrwt>
<pdfrwt beam="1">  1        2 0.99573011E+00 0.14980931E+02</pdfrwt>
<pdfrwt beam="2">  1       -2 0.99343699E+00 0.14980931E+02</pdfrwt>
<totfact>-0.10161702E-13</totfact>
</mgrwt>
</event>
<event>
 4    1 -0.4926183E-019  0.1494042E+02  0.7818608E-02  0.1869892E+00
          2   -1    0    0  501    0  0.00000000000E+00  0.00000000000E+00  0.11867679487E+03  0.11867679490E+03  0.25500000000E-02 0.  1.
         -2   -1    0    0    0  501 -0.00000000000E+00 -0.00000000000E+00 -0.47021499269E+00  0.47022190703E+00  0.25500000000E-02 0. -1.
         31    1    1    2    0    0  0.19165970804E+00  0.47885709469E+00  0.56860989628E+02  0.57348906747E+02  0.74470750000E+01 0. -1.
        -31    1    1    2    0    0 -0.19165970804E+00 -0.47885709469E+00  0.61345590249E+02  0.61798110057E+02  0.74470750000E+01 0.  1.
<mgrwt>
<rscale>  0 0.14940418E+02</rscale>
<asrwt>0</asrwt>
<pdfrwt beam="1">  1        2 0.98519090E+00 0.14940418E+02</pdfrwt>
<pdfrwt beam="2">  1       -2 0.99864121E+00 0.14940418E+02</pdfrwt>
<totfact>-0.14421122E-13</totfact>
</mgrwt>
</event>
<event>
 4    1 -0.4926183E-019  0.1497938E+02  0.7818608E-02  0.1868698E+00
          2   -1    0    0  501    0  0.00000000000E+00  0.00000000000E+00  0.11936753522E+03  0.11936753524E+03  0.25500000000E-02 0.  1.
         -2   -1    0    0    0  501 -0.00000000000E+00 -0.00000000000E+00 -0.46993560014E+00  0.46994251859E+00  0.25500000000E-02 0. -1.
         31    1    1    2    0    0  0.53816728553E+00  0.13327577946E+00  0.64038675761E+02  0.64472616712E+02  0.74470750000E+01 0.  1.
        -31    1    1    2    0    0 -0.53816728553E+00 -0.13327577946E+00  0.54858923857E+02  0.55364861051E+02  0.74470750000E+01 0.  1.
<mgrwt>
<rscale>  0 0.14979382E+02</rscale>
<asrwt>0</asrwt>
<pdfrwt beam="1">  1        2 0.99090011E+00 0.14979382E+02</pdfrwt>
<pdfrwt beam="2">  1       -2 0.99807297E+00 0.14979382E+02</pdfrwt>
<totfact>-0.95082086E-14</totfact>
</mgrwt>
</event>
<event>
 4    1  0.4926183E-019  0.1492163E+02  0.7818608E-02  0.1870470E+00
         -2   -1    0    0    0  501 -0.00000000000E+00  0.00000000000E+00  0.11834985410E+03  0.11834985412E+03  0.25500000000E-02 0.  1.
          2   -1    0    0  501    0  0.00000000000E+00 -0.00000000000E+00 -0.47032862342E+00  0.47033553609E+00  0.25500000000E-02 0. -1.
         31    1    1    2    0    0  0.30329203578E+00  0.33544138378E+00  0.59078427076E+02  0.59547661405E+02  0.74470750000E+01 0.  1.
        -31    1    1    2    0    0 -0.30329203578E+00 -0.33544138378E+00  0.58801098396E+02  0.59272528254E+02  0.74470750000E+01 0.  1.
<mgrwt>
<rscale>  0 0.14921627E+02</rscale>
<asrwt>0</asrwt>
<pdfrwt beam="2">  1        2 0.99887069E+00 0.14921627E+02</pdfrwt>
<pdfrwt beam="1">  1       -2 0.98248846E+00 0.14921627E+02</pdfrwt>
<totfact> 0.30346450E-13</totfact>
</mgrwt>
</event>
<event>
 4    1  0.4926183E-019  0.1489657E+02  0.7818608E-02  0.1871241E+00
          2   -1    0    0  501    0  0.00000000000E+00  0.00000000000E+00  0.11984380936E+03  0.11984380939E+03  0.25500000000E-02 0. -1.
         -2   -1    0    0    0  501 -0.00000000000E+00 -0.00000000000E+00 -0.46290671051E+00  0.46291373401E+00  0.25500000000E-02 0.  1.
         31    1    1    2    0    0  0.33435051902E-01  0.11911831229E+00  0.59271226317E+02  0.59737362699E+02  0.74470750000E+01 0. -1.
        -31    1    1    2    0    0 -0.33435051902E-01 -0.11911831229E+00  0.60109676332E+02  0.60569360421E+02  0.74470750000E+01 0. -1.
<mgrwt>
<rscale>  0 0.14896567E+02</rscale>
<asrwt>0</asrwt>
<pdfrwt beam="1">  1        2 0.99478016E+00 0.14896567E+02</pdfrwt>
<pdfrwt beam="2">  1       -2 0.98321764E+00 0.14896567E+02</pdfrwt>
<totfact> 0.77558006E-13</totfact>
</mgrwt>
</event>
<event>
 4    1 -0.4926183E-019  0.1497211E+02  0.7818608E-02  0.1868921E+00
         -2   -1    0    0    0  501 -0.00000000000E+00  0.00000000000E+00  0.11974189590E+03  0.11974189593E+03  0.25500000000E-02 0. -1.
          2   -1    0    0  501    0  0.00000000000E+00 -0.00000000000E+00 -0.46801167175E+00  0.46801861864E+00  0.25500000000E-02 0.  1.
         31    1    1    2    0    0 -0.76220898776E+00 -0.28587408497E-01  0.59493716617E+02  0.59962847020E+02  0.74470750000E+01 0.  1.
        -31    1    1    2    0    0  0.76220898776E+00  0.28587408497E-01  0.59780167615E+02  0.60247067530E+02  0.74470750000E+01 0.  1.
<mgrwt>
<rscale>  0 0.14972111E+02</rscale>
<asrwt>0</asrwt>
<pdfrwt beam="2">  1        2 0.99401499E+00 0.14972111E+02</pdfrwt>
<pdfrwt beam="1">  1       -2 0.99397968E+00 0.14972111E+02</pdfrwt>
<totfact>-0.12747084E-13</totfact>
</mgrwt>
</event>
<event>
 4    1  0.4926183E-019  0.1490535E+02  0.7818608E-02  0.1870971E+00
          2   -1    0    0  501    0  0.00000000000E+00  0.00000000000E+00  0.12026158777E+03  0.12026158779E+03  0.25500000000E-02 0. -1.
         -2   -1    0    0    0  501 -0.00000000000E+00 -0.00000000000E+00 -0.46184262013E+00  0.46184965981E+00  0.25500000000E-02 0.  1.
         31    1    1    2    0    0  0.26688878968E+00  0.97121027841E-02  0.59008822280E+02  0.59477486135E+02  0.74470750000E+01 0.  1.
        -31    1    1    2    0    0 -0.26688878968E+00 -0.97121027841E-02  0.60790922867E+02  0.61245951319E+02  0.74470750000E+01 0.  1.
<mgrwt>
<rscale>  0 0.14905348E+02</rscale>
<asrwt>0</asrwt>
<pdfrwt beam="1">  1        2 0.99822585E+00 0.14905348E+02</pdfrwt>
<pdfrwt beam="2">  1       -2 0.98097930E+00 0.14905348E+02</pdfrwt>
<totfact> 0.59530168E-13</totfact>
</mgrwt>
</event>
<event>
 4    1  0.4926183E-019  0.1491520E+02  0.7818608E-02  0.1870667E+00
         -2   -1    0    0    0  501 -0.00000000000E+00  0.00000000000E+00  0.11855422747E+03  0.11855422750E+03  0.25500000000E-02 0.  1.
          2   -1    0    0  501    0  0.00000000000E+00 -0.00000000000E+00 -0.46911335048E+00  0.46912028106E+00  0.25500000000E-02 0. -1.
         31    1    1    2    0    0  0.26161201991E+00  0.28681589090E+00  0.59668602693E+02  0.60132784548E+02  0.74470750000E+01 0. -1.
        -31    1    1    2    0    0 -0.26161201991E+00 -0.28681589090E+00  0.58416511425E+02  0.58890563228E+02  0.74470750000E+01 0. -1.
<mgrwt>
<rscale>  0 0.14915198E+02</rscale>
<asrwt>0</asrwt>
<pdfrwt beam="2">  1        2 0.99630674E+00 0.14915198E+02</pdfrwt>
<pdfrwt beam="1">  1       -2 0.98416832E+00 0.14915198E+02</pdfrwt>
<totfact> 0.51057935E-13</totfact>
</mgrwt>
</event>
<event>
 4    1 -0.4926183E-019  0.1497701E+02  0.7818608E-02  0.1868771E+00
          2   -1    0    0  501    0  0.00000000000E+00  0.00000000000E+00  0.11947707453E+03  0.11947707455E+03  0.25500000000E-02 0.  1.
         -2   -1    0    0    0  501 -0.00000000000E+00 -0.00000000000E+00 -0.46935635865E+00  0.46936328564E+00  0.25500000000E-02 0. -1.
         31    1    1    2    0    0 -0.66208247388E+00 -0.29712746682E-01  0.62897693149E+02  0.63340492306E+02  0.74470750000E+01 0. -1.
        -31    1    1    2    0    0  0.66208247388E+00  0.29712746682E-01  0.56110025019E+02  0.56605945533E+02  0.74470750000E+01 0.  1.
<mgrwt>
<rscale>  0 0.14977015E+02</rscale>
<asrwt>0</asrwt>
<pdfrwt beam="1">  1        2 0.99180107E+00 0.14977015E+02</pdfrwt>
<pdfrwt beam="2">  1       -2 0.99685116E+00 0.14977015E+02</pdfrwt>
<totfact>-0.12689208E-13</totfact>
</mgrwt>
</event>
<event>
 4    1 -0.4926183E-019  0.1493467E+02  0.7818608E-02  0.1870069E+00
          2   -1    0    0  501    0  0.00000000000E+00  0.00000000000E+00  0.11899563647E+03  0.11899563650E+03  0.25500000000E-02 0. -1.
         -2   -1    0    0    0  501 -0.00000000000E+00 -0.00000000000E+00 -0.46859405649E+00  0.46860099475E+00  0.25500000000E-02 0.  1.
         31    1    1    2    0    0  0.43118072699E+00 -0.17541705565E+00  0.61601812197E+02  0.62052065880E+02  0.74470750000E+01 0. -1.
        -31    1    1    2    0    0 -0.43118072699E+00  0.17541705565E+00  0.56925230220E+02  0.57412171616E+02  0.74470750000E+01 0.  1.
<mgrwt>
<rscale>  0 0.14934666E+02</rscale>
<asrwt>0</asrwt>
<pdfrwt beam="1">  1        2 0.98781390E+00 0.14934666E+02</pdfrwt>
<pdfrwt beam="2">  1       -2 0.99522275E+00 0.14934666E+02</pdfrwt>
<totfact>-0.22706705E-13</totfact>
</mgrwt>
</event>
<event>
 4    1 -0.4926183E-019  0.1499466E+02  0.7818608E-02  0.1868232E+00
          2   -1    0    0  501    0  0.00000000000E+00  0.00000000000E+00  0.11998033473E+03  0.11998033476E+03  0.25500000000E-02 0.  1.
         -2   -1    0    0    0  501 -0.00000000000E+00 -0.00000000000E+00 -0.46848938282E+00  0.46849632263E+00  0.25500000000E-02 0. -1.
         31    1    1    2    0    0 -0.74098403682E+00  0.29912998667E+00  0.57061999648E+02  0.57551448860E+02  0.74470750000E+01 0. -1.
        -31    1    1    2    0    0  0.74098403682E+00 -0.29912998667E+00  0.62449845703E+02  0.62897382222E+02  0.74470750000E+01 0.  1.
<mgrwt>
<rscale>  0 0.14994657E+02</rscale>
<asrwt>0</asrwt>
<pdfrwt beam="1">  1        2 0.99595521E+00 0.14994657E+02</pdfrwt>
<pdfrwt beam="2">  1       -2 0.99503334E+00 0.14994657E+02</pdfrwt>
<totfact>-0.10613368E-13</totfact>
</mgrwt>
</event>
<event>
 4    1 -0.4926183E-019  0.1497161E+02  0.7818608E-02  0.1868936E+00
         -2   -1    0    0    0  501 -0.00000000000E+00  0.00000000000E+00  0.12022230333E+03  0.12022230336E+03  0.25500000000E-02 0. -1.
          2   -1    0    0  501    0  0.00000000000E+00 -0.00000000000E+00 -0.46611058828E+00  0.46611756351E+00  0.25500000000E-02 0.  1.
         31    1    1    2    0    0 -0.57640914556E+00  0.39494189075E+00  0.62298568679E+02  0.62745986423E+02  0.74470750000E+01 0. -1.
        -31    1    1    2    0    0  0.57640914556E+00 -0.39494189075E+00  0.57457624067E+02  0.57942434502E+02  0.74470750000E+01 0.  1.
<mgrwt>
<rscale>  0 0.14971615E+02</rscale>
<asrwt>0</asrwt>
<pdfrwt beam="2">  1        2 0.99000831E+00 0.14971615E+02</pdfrwt>
<pdfrwt beam="1">  1       -2 0.99793631E+00 0.14971615E+02</pdfrwt>
<totfact>-0.10875826E-13</totfact>
</mgrwt>
</event>
<event>
 4    1 -0.4926183E-019  0.1493737E+02  0.7818608E-02  0.1869986E+00
          2   -1    0    0  501    0  0.00000000000E+00  0.00000000000E+00  0.11865162668E+03  0.11865162670E+03  0.25500000000E-02 0. -1.
         -2   -1    0    0    0  501 -0.00000000000E+00 -0.00000000000E+00 -0.47012308910E+00  0.47013000479E+00  0.25500000000E-02 0.  1.
         31    1    1    2    0    0 -0.22811407696E+00 -0.51842979521E+00  0.58776658535E+02  0.59249264300E+02  0.74470750000E+01 0.  1.
        -31    1    1    2    0    0  0.22811407696E+00  0.51842979521E+00  0.59404845052E+02  0.59872492408E+02  0.74470750000E+01 0.  1.
<mgrwt>
<rscale>  0 0.14937374E+02</rscale>
<asrwt>0</asrwt>
<pdfrwt beam="1">  1        2 0.98498203E+00 0.14937374E+02</pdfrwt>
<pdfrwt beam="2">  1       -2 0.99844596E+00 0.14937374E+02</pdfrwt>
<totfact>-0.16764648E-13</totfact>
</mgrwt>
</event>
<event>
 4    1 -0.4926183E-019  0.1497021E+02  0.7818608E-02  0.1868979E+00
          2   -1    0    0  501    0  0.00000000000E+00  0.00000000000E+00  0.12001654553E+03  0.12001654556E+03  0.25500000000E-02 0.  1.
         -2   -1    0    0    0  501 -0.00000000000E+00 -0.00000000000E+00 -0.46682182448E+00  0.46682878907E+00  0.25500000000E-02 0. -1.
         31    1    1    2    0    0  0.46520120660E+00 -0.38137041835E+00  0.56122159036E+02  0.56617289907E+02  0.74470750000E+01 0. -1.
        -31    1    1    2    0    0 -0.46520120660E+00  0.38137041835E+00  0.63427564672E+02  0.63866084441E+02  0.74470750000E+01 0.  1.
<mgrwt>
<rscale>  0 0.14970206E+02</rscale>
<asrwt>0</asrwt>
<pdfrwt beam="1">  1        2 0.99624084E+00 0.14970206E+02</pdfrwt>
<pdfrwt beam="2">  1       -2 0.99150652E+00 0.14970206E+02</pdfrwt>
<totfact>-0.52947531E-14</totfact>
</mgrwt>
</event>
<event>
 4    1  0.4926183E-019  0.1492848E+02  0.7818608E-02  0.1870259E+00
         -2   -1    0    0    0  501 -0.00000000000E+00  0.00000000000E+00  0.11919916644E+03  0.11919916647E+03  0.25500000000E-02 0.  1.
          2   -1    0    0  501    0  0.00000000000E+00 -0.00000000000E+00 -0.46740665294E+00  0.46741360882E+00  0.25500000000E-02 0. -1.
         31    1    1    2    0    0 -0.57811431850E-01  0.50024395442E+00  0.58974077964E+02  0.59444548816E+02  0.74470750000E+01 0. -1.
        -31    1    1    2    0    0  0.57811431850E-01 -0.50024395442E+00  0.59757681827E+02  0.60222031264E+02  0.74470750000E+01 0. -1.
<mgrwt>
<rscale>  0 0.14928483E+02</rscale>
<asrwt>0</asrwt>
<pdfrwt beam="2">  1        2 0.99271742E+00 0.14928483E+02</pdfrwt>
<pdfrwt beam="1">  1       -2 0.98948701E+00 0.14928483E+02</pdfrwt>
<totfact> 0.47521858E-14</totfact>
</mgrwt>
</event>
<event>
 4    1 -0.4926183E-019  0.1494375E+02  0.7818608E-02  0.1869790E+00
          2   -1    0    0  501    0  0.00000000000E+00  0.00000000000E+00  0.11872748322E+03  0.11872748325E+03  0.25500000000E-02 0.  1.
         -2   -1    0    0    0  501 -0.00000000000E+00 -0.00000000000E+00 -0.47022404429E+00  0.47023095850E+00  0.25500000000E-02 0. -1.
         31    1    1    2    0    0 -0.51949756868E+00 -0.24724481178E+00  0.60703792002E+02  0.61161591683E+02  0.74470750000E+01 0.  1.
        -31    1    1    2    0    0  0.51949756868E+00  0.24724481178E+00  0.57553467175E+02  0.58036122524E+02  0.74470750000E+01 0. -1.
<mgrwt>
<rscale>  0 0.14943752E+02</rscale>
<asrwt>0</asrwt>
<pdfrwt beam="1">  1        2 0.98561010E+00 0.14943752E+02</pdfrwt>
<pdfrwt beam="2">  1       -2 0.99866204E+00 0.14943752E+02</pdfrwt>
<totfact>-0.13308386E-13</totfact>
</mgrwt>
</event>
<event>
 4    1  0.4926183E-019  0.1493037E+02  0.7818608E-02  0.1870201E+00
          2   -1    0    0  501    0  0.00000000000E+00  0.00000000000E+00  0.12011957856E+03  0.12011957859E+03  0.25500000000E-02 0.  1.
         -2   -1    0    0    0  501 -0.00000000000E+00 -0.00000000000E+00 -0.46394250923E+00  0.46394951705E+00  0.25500000000E-02 0. -1.
         31    1    1    2    0    0  0.21796213719E+00 -0.21179622237E+00  0.56423145899E+02  0.56913290929E+02  0.74470750000E+01 0. -1.
        -31    1    1    2    0    0 -0.21796213719E+00  0.21179622237E+00  0.63232490153E+02  0.63670237177E+02  0.74470750000E+01 0.  1.
<mgrwt>
<rscale>  0 0.14930372E+02</rscale>
<asrwt>0</asrwt>
<pdfrwt beam="1">  1        2 0.99706898E+00 0.14930372E+02</pdfrwt>
<pdfrwt beam="2">  1       -2 0.98541789E+00 0.14930372E+02</pdfrwt>
<totfact> 0.31182565E-13</totfact>
</mgrwt>
</event>
<event>
 4    1 -0.4926183E-019  0.1497208E+02  0.7818608E-02  0.1868922E+00
         -2   -1    0    0    0  501 -0.00000000000E+00  0.00000000000E+00  0.12001318588E+03  0.12001318590E+03  0.25500000000E-02 0. -1.
          2   -1    0    0  501    0  0.00000000000E+00 -0.00000000000E+00 -0.46695199048E+00  0.46695895313E+00  0.25500000000E-02 0.  1.
         31    1    1    2    0    0 -0.29853597964E+00 -0.69821358744E+00  0.60357013911E+02  0.60819443275E+02  0.74470750000E+01 0.  1.
        -31    1    1    2    0    0  0.29853597964E+00  0.69821358744E+00  0.59189219976E+02  0.59660701583E+02  0.74470750000E+01 0. -1.
<mgrwt>
<rscale>  0 0.14972083E+02</rscale>
<asrwt>0</asrwt>
<pdfrwt beam="2">  1        2 0.99178180E+00 0.14972083E+02</pdfrwt>
<pdfrwt beam="1">  1       -2 0.99621413E+00 0.14972083E+02</pdfrwt>
<totfact>-0.14078135E-13</totfact>
</mgrwt>
</event>
<event>
 4    1  0.4926183E-019  0.1489628E+02  0.7818608E-02  0.1871250E+00
         -2   -1    0    0    0  501 -0.00000000000E+00  0.00000000000E+00  0.11836172336E+03  0.11836172339E+03  0.25500000000E-02 0. -1.
          2   -1    0    0  501    0  0.00000000000E+00 -0.00000000000E+00 -0.46868505444E+00  0.46869199135E+00  0.25500000000E-02 0.  1.
         31    1    1    2    0    0  0.11647912368E+00 -0.27321623152E-01  0.59260037353E+02  0.59726252746E+02  0.74470750000E+01 0.  1.
        -31    1    1    2    0    0 -0.11647912368E+00  0.27321623152E-01  0.58633000956E+02  0.59104162637E+02  0.74470750000E+01 0.  1.
<mgrwt>
<rscale>  0 0.14896279E+02</rscale>
<asrwt>0</asrwt>
<pdfrwt beam="2">  1        2 0.99539434E+00 0.14896279E+02</pdfrwt>
<pdfrwt beam="1">  1       -2 0.98257302E+00 0.14896279E+02</pdfrwt>
<totfact> 0.83589016E-13</totfact>
</mgrwt>
</event>
<event>
 4    1 -0.4926183E-019  0.1497893E+02  0.7818608E-02  0.1868712E+00
          2   -1    0    0  501    0  0.00000000000E+00  0.00000000000E+00  0.11989361867E+03  0.11989361869E+03  0.25500000000E-02 0.  1.
         -2   -1    0    0    0  501 -0.00000000000E+00 -0.00000000000E+00 -0.46784545070E+00  0.46785240006E+00  0.25500000000E-02 0. -1.
         31    1    1    2    0    0  0.26396842316E+00 -0.73560129762E+00  0.58510548869E+02  0.58987744859E+02  0.74470750000E+01 0. -1.
        -31    1    1    2    0    0 -0.26396842316E+00  0.73560129762E+00  0.60915224348E+02  0.61373726236E+02  0.74470750000E+01 0. -1.
<mgrwt>
<rscale>  0 0.14978932E+02</rscale>
<asrwt>0</asrwt>
<pdfrwt beam="1">  1        2 0.99523286E+00 0.14978932E+02</pdfrwt>
<pdfrwt beam="2">  1       -2 0.99366822E+00 0.14978932E+02</pdfrwt>
<totfact>-0.11075632E-13</totfact>
</mgrwt>
</event>
<event>
 4    1 -0.4926183E-019  0.1499090E+02  0.7818608E-02  0.1868346E+00
          2   -1    0    0  501    0  0.00000000000E+00  0.00000000000E+00  0.11977031610E+03  0.11977031613E+03  0.25500000000E-02 0.  1.
         -2   -1    0    0    0  501 -0.00000000000E+00 -0.00000000000E+00 -0.46907575566E+00  0.46908268679E+00  0.25500000000E-02 0. -1.
         31    1    1    2    0    0 -0.17927703865E-02 -0.16380287611E+00  0.66342167984E+02  0.66759036943E+02  0.74470750000E+01 0.  1.
        -31    1    1    2    0    0  0.17927703865E-02  0.16380287611E+00  0.52959072364E+02  0.53480361875E+02  0.74470750000E+01 0.  1.
<mgrwt>
<rscale>  0 0.14990900E+02</rscale>
<asrwt>0</asrwt>
<pdfrwt beam="1">  1        2 0.99422348E+00 0.14990900E+02</pdfrwt>
<pdfrwt beam="2">  1       -2 0.99626707E+00 0.14990900E+02</pdfrwt>
<totfact>-0.11655680E-13</totfact>
</mgrwt>
</event>
<event>
 4    1 -0.4926183E-019  0.1497924E+02  0.7818608E-02  0.1868703E+00
         -2   -1    0    0    0  501 -0.00000000000E+00  0.00000000000E+00  0.11987911478E+03  0.11987911481E+03  0.25500000000E-02 0.  1.
          2   -1    0    0  501    0  0.00000000000E+00 -0.00000000000E+00 -0.46792118528E+00  0.46792813351E+00  0.25500000000E-02 0. -1.
         31    1    1    2    0    0  0.23977462843E+00 -0.50845308791E+00  0.64246584777E+02  0.64679197568E+02  0.74470750000E+01 0. -1.
        -31    1    1    2    0    0 -0.23977462843E+00  0.50845308791E+00  0.55164608816E+02  0.55667845371E+02  0.74470750000E+01 0. -1.
<mgrwt>
<rscale>  0 0.14979239E+02</rscale>
<asrwt>0</asrwt>
<pdfrwt beam="2">  1        2 0.99382798E+00 0.14979239E+02</pdfrwt>
<pdfrwt beam="1">  1       -2 0.99511355E+00 0.14979239E+02</pdfrwt>
<totfact>-0.13200882E-13</totfact>
</mgrwt>
</event>
<event>
 4    1 -0.4926183E-019  0.1491407E+02  0.7818608E-02  0.1870702E+00
         -2   -1    0    0    0  501 -0.00000000000E+00  0.00000000000E+00  0.11938268684E+03  0.11938268687E+03  0.25500000000E-02 0. -1.
          2   -1    0    0  501    0  0.00000000000E+00 -0.00000000000E+00 -0.46578741248E+00  0.46579439254E+00  0.25500000000E-02 0.  1.
         31    1    1    2    0    0  0.35665687807E+00 -0.20325303794E-03  0.58287228392E+02  0.58762123208E+02  0.74470750000E+01 0.  1.
        -31    1    1    2    0    0 -0.35665687807E+00  0.20325303794E-03  0.60629671040E+02  0.61086358056E+02  0.74470750000E+01 0. -1.
<mgrwt>
<rscale>  0 0.14914070E+02</rscale>
<asrwt>0</asrwt>
<pdfrwt beam="2">  1        2 0.98929770E+00 0.14914070E+02</pdfrwt>
<pdfrwt beam="1">  1       -2 0.99099110E+00 0.14914070E+02</pdfrwt>
<totfact>-0.66563579E-14</totfact>
</mgrwt>
</event>
<event>
 4    1 -0.4926183E-019  0.1493668E+02  0.7818608E-02  0.1870007E+00
         -2   -1    0    0    0  501 -0.00000000000E+00  0.00000000000E+00  0.11999953466E+03  0.11999953468E+03  0.25500000000E-02 0. -1.
          2   -1    0    0  501    0  0.00000000000E+00 -0.00000000000E+00 -0.46479921127E+00  0.46480620617E+00  0.25500000000E-02 0.  1.
         31    1    1    2    0    0  0.31448719506E+00  0.46460022637E+00  0.60164964011E+02  0.60626698542E+02  0.74470750000E+01 0.  1.
        -31    1    1    2    0    0 -0.31448719506E+00 -0.46460022637E+00  0.59369771434E+02  0.59837642348E+02  0.74470750000E+01 0.  1.
<mgrwt>
<rscale>  0 0.14936681E+02</rscale>
<asrwt>0</asrwt>
<pdfrwt beam="2">  1        2 0.98722669E+00 0.14936681E+02</pdfrwt>
<pdfrwt beam="1">  1       -2 0.99608346E+00 0.14936681E+02</pdfrwt>
<totfact>-0.23011036E-13</totfact>
</mgrwt>
</event>
<event>
 4    1 -0.4926183E-019  0.1501810E+02  0.7818608E-02  0.1867517E+00
         -2   -1    0    0    0  501 -0.00000000000E+00  0.00000000000E+00  0.12001325982E+03  0.12001325985E+03  0.25500000000E-02 0.  1.
          2   -1    0    0  501    0  0.00000000000E+00 -0.00000000000E+00 -0.46982673624E+00  0.46983365629E+00  0.25500000000E-02 0. -1.
         31    1    1    2    0    0 -0.44014469161E-01 -0.89164113997E+00  0.56879494580E+02  0.57371881536E+02  0.74470750000E+01 0. -1.
        -31    1    1    2    0    0  0.44014469161E-01  0.89164113997E+00  0.62663938508E+02  0.63111211972E+02  0.74470750000E+01 0. -1.
<mgrwt>
<rscale>  0 0.15018103E+02</rscale>
<asrwt>0</asrwt>
<pdfrwt beam="2">  1        2 0.99786371E+00 0.15018103E+02</pdfrwt>
<pdfrwt beam="1">  1       -2 0.99623851E+00 0.15018103E+02</pdfrwt>
<totfact>-0.62886016E-14</totfact>
</mgrwt>
</event>
<event>
 4    1 -0.4926183E-019  0.1501824E+02  0.7818608E-02  0.1867513E+00
          2   -1    0    0  501    0  0.00000000000E+00  0.00000000000E+00  0.12003514577E+03  0.12003514580E+03  0.25500000000E-02 0.  1.
         -2   -1    0    0    0  501 -0.00000000000E+00 -0.00000000000E+00 -0.46974941838E+00  0.46975633957E+00  0.25500000000E-02 0. -1.
         31    1    1    2    0    0 -0.45892490824E+00  0.40931924051E-01  0.52994811335E+02  0.53517485385E+02  0.74470750000E+01 0. -1.
        -31    1    1    2    0    0  0.45892490824E+00 -0.40931924051E-01  0.66570585021E+02  0.66987416756E+02  0.74470750000E+01 0.  1.
<mgrwt>
<rscale>  0 0.15018237E+02</rscale>
<asrwt>0</asrwt>
<pdfrwt beam="1">  1        2 0.99641884E+00 0.15018237E+02</pdfrwt>
<pdfrwt beam="2">  1       -2 0.99770085E+00 0.15018237E+02</pdfrwt>
<totfact>-0.65496136E-14</totfact>
</mgrwt>
</event>
<event>
 4    1 -0.4926183E-019  0.1495626E+02  0.7818608E-02  0.1869406E+00
          2   -1    0    0  501    0  0.00000000000E+00  0.00000000000E+00  0.11936984245E+03  0.11936984248E+03  0.25500000000E-02 0. -1.
         -2   -1    0    0    0  501 -0.00000000000E+00 -0.00000000000E+00 -0.46847663983E+00  0.46848357982E+00  0.25500000000E-02 0.  1.
         31    1    1    2    0    0 -0.29426267370E+00  0.58271408718E+00  0.57902616924E+02  0.58383200657E+02  0.74470750000E+01 0.  1.
        -31    1    1    2    0    0  0.29426267370E+00 -0.58271408718E+00  0.60998748886E+02  0.61455125400E+02  0.74470750000E+01 0. -1.
<mgrwt>
<rscale>  0 0.14956256E+02</rscale>
<asrwt>0</asrwt>
<pdfrwt beam="1">  1        2 0.99090713E+00 0.14956256E+02</pdfrwt>
<pdfrwt beam="2">  1       -2 0.99498659E+00 0.14956256E+02</pdfrwt>
<totfact>-0.16475660E-13</totfact>
</mgrwt>
</event>
<event>
 4    1 -0.4926183E-019  0.1499989E+02  0.7818608E-02  0.1868072E+00
         -2   -1    0    0    0  501 -0.00000000000E+00  0.00000000000E+00  0.12003423926E+03  0.12003423929E+03  0.25500000000E-02 0.  1.
          2   -1    0    0  501    0  0.00000000000E+00 -0.00000000000E+00 -0.46860570652E+00  0.46861264461E+00  0.25500000000E-02 0. -1.
         31    1    1    2    0    0  0.22652753992E+00  0.94534744759E-01  0.52919053129E+02  0.53441045664E+02  0.74470750000E+01 0. -1.
        -31    1    1    2    0    0 -0.22652753992E+00 -0.94534744759E-01  0.66646580425E+02  0.67061806268E+02  0.74470750000E+01 0.  1.
<mgrwt>
<rscale>  0 0.14999887E+02</rscale>
<asrwt>0</asrwt>
<pdfrwt beam="2">  1        2 0.99528117E+00 0.14999887E+02</pdfrwt>
<pdfrwt beam="1">  1       -2 0.99640189E+00 0.14999887E+02</pdfrwt>
<totfact>-0.10323804E-13</totfact>
</mgrwt>
</event>
<event>
 4    1 -0.4926183E-019  0.1497637E+02  0.7818608E-02  0.1868791E+00
         -2   -1    0    0    0  501 -0.00000000000E+00  0.00000000000E+00  0.11956106785E+03  0.11956106788E+03  0.25500000000E-02 0.  1.
          2   -1    0    0  501    0  0.00000000000E+00 -0.00000000000E+00 -0.46898595991E+00  0.46899289237E+00  0.25500000000E-02 0. -1.
         31    1    1    2    0    0  0.45681630591E+00  0.62382620069E+00  0.60563411207E+02  0.61024450373E+02  0.74470750000E+01 0.  1.
        -31    1    1    2    0    0 -0.45681630591E+00 -0.62382620069E+00  0.58528670687E+02  0.59005610400E+02  0.74470750000E+01 0.  1.
<mgrwt>
<rscale>  0 0.14976365E+02</rscale>
<asrwt>0</asrwt>
<pdfrwt beam="2">  1        2 0.99607030E+00 0.14976365E+02</pdfrwt>
<pdfrwt beam="1">  1       -2 0.99249252E+00 0.14976365E+02</pdfrwt>
<totfact>-0.80933705E-14</totfact>
</mgrwt>
</event>
<event>
 4    1  0.4926183E-019  0.1492363E+02  0.7818608E-02  0.1870408E+00
         -2   -1    0    0    0  501 -0.00000000000E+00  0.00000000000E+00  0.11834192210E+03  0.11834192213E+03  0.25500000000E-02 0. -1.
          2   -1    0    0  501    0  0.00000000000E+00 -0.00000000000E+00 -0.47048622737E+00  0.47049313772E+00  0.25500000000E-02 0.  1.
         31    1    1    2    0    0 -0.14554809063E+00 -0.44022390884E+00  0.59484372414E+02  0.59950516835E+02  0.74470750000E+01 0.  1.
        -31    1    1    2    0    0  0.14554809063E+00  0.44022390884E+00  0.58387063461E+02  0.58861898431E+02  0.74470750000E+01 0.  1.
<mgrwt>
<rscale>  0 0.14923626E+02</rscale>
<asrwt>0</asrwt>
<pdfrwt beam="2">  1        2 0.99920381E+00 0.14923626E+02</pdfrwt>
<pdfrwt beam="1">  1       -2 0.98242418E+00 0.14923626E+02</pdfrwt>
<totfact> 0.22498029E-13</totfact>
</mgrwt>
</event>
<event>
 4    1 -0.4926183E-019  0.1489550E+02  0.7818608E-02  0.1871274E+00
         -2   -1    0    0    0  501 -0.00000000000E+00  0.00000000000E+00  0.11980402974E+03  0.11980402977E+03  0.25500000000E-02 0. -1.
          2   -1    0    0  501    0  0.00000000000E+00 -0.00000000000E+00 -0.46299395958E+00  0.46300098175E+00  0.25500000000E-02 0.  1.
         31    1    1    2    0    0 -0.49336153900E-01  0.32389163466E-01  0.59016727287E+02  0.59484758626E+02  0.74470750000E+01 0. -1.
        -31    1    1    2    0    0  0.49336153900E-01 -0.32389163466E-01  0.60324308497E+02  0.60782272126E+02  0.74470750000E+01 0. -1.
<mgrwt>
<rscale>  0 0.14895498E+02</rscale>
<asrwt>0</asrwt>
<pdfrwt beam="2">  1        2 0.98340098E+00 0.14895498E+02</pdfrwt>
<pdfrwt beam="1">  1       -2 0.99445196E+00 0.14895498E+02</pdfrwt>
<totfact>-0.45214611E-13</totfact>
</mgrwt>
</event>
<event>
 4    1  0.4926183E-019  0.1489505E+02  0.7818608E-02  0.1871288E+00
         -2   -1    0    0    0  501 -0.00000000000E+00  0.00000000000E+00  0.11858007961E+03  0.11858007964E+03  0.25500000000E-02 0.  1.
          2   -1    0    0  501    0  0.00000000000E+00 -0.00000000000E+00 -0.46774471943E+00  0.46775167029E+00  0.25500000000E-02 0. -1.
         31    1    1    2    0    0 -0.30251948416E-01 -0.51224476467E-01  0.59505187585E+02  0.59969407323E+02  0.74470750000E+01 0.  1.
        -31    1    1    2    0    0  0.30251948416E-01  0.51224476467E-01  0.58607147305E+02  0.59078423984E+02  0.74470750000E+01 0. -1.
<mgrwt>
<rscale>  0 0.14895049E+02</rscale>
<asrwt>0</asrwt>
<pdfrwt beam="2">  1        2 0.99341234E+00 0.14895049E+02</pdfrwt>
<pdfrwt beam="1">  1       -2 0.98437076E+00 0.14895049E+02</pdfrwt>
<totfact> 0.65849535E-13</totfact>
</mgrwt>
</event>
<event>
 4    1  0.4926183E-019  0.1493347E+02  0.7818608E-02  0.1870105E+00
         -2   -1    0    0    0  501 -0.00000000000E+00  0.00000000000E+00  0.11878759142E+03  0.11878759144E+03  0.25500000000E-02 0.  1.
          2   -1    0    0  501    0  0.00000000000E+00 -0.00000000000E+00 -0.46933977256E+00  0.46934669979E+00  0.25500000000E-02 0. -1.
         31    1    1    2    0    0 -0.53015904234E+00  0.61469737591E-01  0.58427964644E+02  0.58903062956E+02  0.74470750000E+01 0. -1.
        -31    1    1    2    0    0  0.53015904234E+00 -0.61469737591E-01  0.59890286999E+02  0.60353875186E+02  0.74470750000E+01 0.  1.
<mgrwt>
<rscale>  0 0.14933473E+02</rscale>
<asrwt>0</asrwt>
<pdfrwt beam="2">  1        2 0.99679343E+00 0.14933473E+02</pdfrwt>
<pdfrwt beam="1">  1       -2 0.98609980E+00 0.14933473E+02</pdfrwt>
<totfact> 0.26607578E-13</totfact>
</mgrwt>
</event>
<event>
 4    1  0.4926183E-019  0.1495481E+02  0.7818608E-02  0.1869451E+00
          2   -1    0    0  501    0  0.00000000000E+00  0.00000000000E+00  0.12032420966E+03  0.12032420968E+03  0.25500000000E-02 0.  1.
         -2   -1    0    0    0  501 -0.00000000000E+00 -0.00000000000E+00 -0.46467067534E+00  0.46467767218E+00  0.25500000000E-02 0. -1.
         31    1    1    2    0    0 -0.53207899213E+00 -0.30138658783E+00  0.62195458984E+02  0.62642700981E+02  0.74470750000E+01 0.  1.
        -31    1    1    2    0    0  0.53207899213E+00  0.30138658783E+00  0.57664079998E+02  0.58146186375E+02  0.74470750000E+01 0.  1.
<mgrwt>
<rscale>  0 0.14954806E+02</rscale>
<asrwt>0</asrwt>
<pdfrwt beam="1">  1        2 0.99876703E+00 0.14954806E+02</pdfrwt>
<pdfrwt beam="2">  1       -2 0.98696501E+00 0.14954806E+02</pdfrwt>
<totfact> 0.91925285E-14</totfact>
</mgrwt>
</event>
<event>
 4    1  0.4926183E-019  0.1494988E+02  0.7818608E-02  0.1869602E+00
         -2   -1    0    0    0  501 -0.00000000000E+00  0.00000000000E+00  0.11888105010E+03  0.11888105012E+03  0.25500000000E-02 0. -1.
          2   -1    0    0  501    0  0.00000000000E+00 -0.00000000000E+00 -0.47000209948E+00  0.47000901695E+00  0.25500000000E-02 0.  1.
         31    1    1    2    0    0 -0.17200306460E+00  0.58114720752E+00  0.60963948453E+02  0.61420104641E+02  0.74470750000E+01 0. -1.
        -31    1    1    2    0    0  0.17200306460E+00 -0.58114720752E+00  0.57447099545E+02  0.57930954500E+02  0.74470750000E+01 0.  1.
<mgrwt>
<rscale>  0 0.14949884E+02</rscale>
<asrwt>0</asrwt>
<pdfrwt beam="2">  1        2 0.99819762E+00 0.14949884E+02</pdfrwt>
<pdfrwt beam="1">  1       -2 0.98687806E+00 0.14949884E+02</pdfrwt>
<totfact> 0.13072477E-13</totfact>
</mgrwt>
</event>
<event>
 4    1 -0.4926183E-019  0.1495579E+02  0.7818608E-02  0.1869421E+00
         -2   -1    0    0    0  501 -0.00000000000E+00  0.00000000000E+00  0.12007884068E+03  0.12007884071E+03  0.25500000000E-02 0.  1.
          2   -1    0    0  501    0  0.00000000000E+00 -0.00000000000E+00 -0.46568122943E+00  0.46568821108E+00  0.25500000000E-02 0. -1.
         31    1    1    2    0    0 -0.67396017527E+00 -0.40672730221E-01  0.59291621703E+02  0.59761285183E+02  0.74470750000E+01 0.  1.
        -31    1    1    2    0    0  0.67396017527E+00  0.40672730221E-01  0.60321537750E+02  0.60783243737E+02  0.74470750000E+01 0. -1.
<mgrwt>
<rscale>  0 0.14955786E+02</rscale>
<asrwt>0</asrwt>
<pdfrwt beam="2">  1        2 0.98909533E+00 0.14955786E+02</pdfrwt>
<pdfrwt beam="1">  1       -2 0.99674651E+00 0.14955786E+02</pdfrwt>
<totfact>-0.16511730E-13</totfact>
</mgrwt>
</event>
<event>
 4    1 -0.4926183E-019  0.1499412E+02  0.7818608E-02  0.1868248E+00
         -2   -1    0    0    0  501 -0.00000000000E+00  0.00000000000E+00  0.12028669575E+03  0.12028669578E+03  0.25500000000E-02 0. -1.
          2   -1    0    0  501    0  0.00000000000E+00 -0.00000000000E+00 -0.46726279974E+00  0.46726975777E+00  0.25500000000E-02 0.  1.
         31    1    1    2    0    0  0.73798331276E+00 -0.12927871163E+00  0.63379811488E+02  0.63820222208E+02  0.74470750000E+01 0. -1.
        -31    1    1    2    0    0 -0.73798331276E+00  0.12927871163E+00  0.56439621463E+02  0.56933743327E+02  0.74470750000E+01 0.  1.
<mgrwt>
<rscale>  0 0.14994122E+02</rscale>
<asrwt>0</asrwt>
<pdfrwt beam="2">  1        2 0.99244813E+00 0.14994122E+02</pdfrwt>
<pdfrwt beam="1">  1       -2 0.99847827E+00 0.14994122E+02</pdfrwt>
<totfact>-0.69331976E-14</totfact>
</mgrwt>
</event>
<event>
 4    1  0.4926183E-019  0.1492186E+02  0.7818608E-02  0.1870462E+00
          2   -1    0    0  501    0  0.00000000000E+00  0.00000000000E+00  0.11985652903E+03  0.11985652906E+03  0.25500000000E-02 0. -1.
         -2   -1    0    0    0  501 -0.00000000000E+00 -0.00000000000E+00 -0.46443075124E+00  0.46443775169E+00  0.25500000000E-02 0.  1.
         31    1    1    2    0    0 -0.45145345559E+00 -0.25536033658E-01  0.59327221604E+02  0.59794503189E+02  0.74470750000E+01 0.  1.
        -31    1    1    2    0    0  0.45145345559E+00  0.25536033658E-01  0.60064876673E+02  0.60526463619E+02  0.74470750000E+01 0. -1.
<mgrwt>
<rscale>  0 0.14921861E+02</rscale>
<asrwt>0</asrwt>
<pdfrwt beam="1">  1        2 0.99489794E+00 0.14921861E+02</pdfrwt>
<pdfrwt beam="2">  1       -2 0.98644257E+00 0.14921861E+02</pdfrwt>
<totfact> 0.30866846E-13</totfact>
</mgrwt>
</event>
<event>
 4    1 -0.4926183E-019  0.1495354E+02  0.7818608E-02  0.1869490E+00
         -2   -1    0    0    0  501 -0.00000000000E+00  0.00000000000E+00  0.12006519005E+03  0.12006519008E+03  0.25500000000E-02 0. -1.
          2   -1    0    0  501    0  0.00000000000E+00 -0.00000000000E+00 -0.46559420459E+00  0.46560118755E+00  0.25500000000E-02 0.  1.
         31    1    1    2    0    0  0.17109312579E+00 -0.58139284648E+00  0.57579722112E+02  0.58062471658E+02  0.74470750000E+01 0.  1.
        -31    1    1    2    0    0 -0.17109312579E+00  0.58139284648E+00  0.62019873738E+02  0.62468319611E+02  0.74470750000E+01 0.  1.
<mgrwt>
<rscale>  0 0.14953539E+02</rscale>
<asrwt>0</asrwt>
<pdfrwt beam="2">  1        2 0.98891078E+00 0.14953539E+02</pdfrwt>
<pdfrwt beam="1">  1       -2 0.99663291E+00 0.14953539E+02</pdfrwt>
<totfact>-0.17198672E-13</totfact>
</mgrwt>
</event>
<event>
 4    1  0.4926183E-019  0.1493590E+02  0.7818608E-02  0.1870031E+00
          2   -1    0    0  501    0  0.00000000000E+00  0.00000000000E+00  0.11979954309E+03  0.11979954312E+03  0.25500000000E-02 0.  1.
         -2   -1    0    0    0  501 -0.00000000000E+00 -0.00000000000E+00 -0.46552668954E+00  0.46553367351E+00  0.25500000000E-02 0. -1.
         31    1    1    2    0    0 -0.28344971994E+00  0.22953842386E+00  0.56266507329E+02  0.56758363301E+02  0.74470750000E+01 0. -1.
        -31    1    1    2    0    0  0.28344971994E+00 -0.22953842386E+00  0.63067509076E+02  0.63506713493E+02  0.74470750000E+01 0.  1.
<mgrwt>
<rscale>  0 0.14935904E+02</rscale>
<asrwt>0</asrwt>
<pdfrwt beam="1">  1        2 0.99443580E+00 0.14935904E+02</pdfrwt>
<pdfrwt beam="2">  1       -2 0.98875947E+00 0.14935904E+02</pdfrwt>
<totfact> 0.95018223E-14</totfact>
</mgrwt>
</event>
<event>
 4    1  0.4926183E-019  0.1490648E+02  0.7818608E-02  0.1870936E+00
         -2   -1    0    0    0  501 -0.00000000000E+00  0.00000000000E+00  0.11846004132E+03  0.11846004134E+03  0.25500000000E-02 0. -1.
          2   -1    0    0  501    0  0.00000000000E+00 -0.00000000000E+00 -0.46893771146E+00  0.46894464463E+00  0.25500000000E-02 0.  1.
         31    1    1    2    0    0 -0.54307786915E-01  0.18917220841E+00  0.57156495491E+02  0.57639939611E+02  0.74470750000E+01 0. -1.
        -31    1    1    2    0    0  0.54307786915E-01 -0.18917220841E+00  0.60834608113E+02  0.61289046377E+02  0.74470750000E+01 0. -1.
<mgrwt>
<rscale>  0 0.14906481E+02</rscale>
<asrwt>0</asrwt>
<pdfrwt beam="2">  1        2 0.99593207E+00 0.14906481E+02</pdfrwt>
<pdfrwt beam="1">  1       -2 0.98338807E+00 0.14906481E+02</pdfrwt>
<totfact> 0.65217260E-13</totfact>
</mgrwt>
</event>
<event>
 4    1 -0.4926183E-019  0.1497983E+02  0.7818608E-02  0.1868685E+00
         -2   -1    0    0    0  501 -0.00000000000E+00  0.00000000000E+00  0.11995246072E+03  0.11995246074E+03  0.25500000000E-02 0. -1.
          2   -1    0    0  501    0  0.00000000000E+00 -0.00000000000E+00 -0.46767186131E+00  0.46767881325E+00  0.25500000000E-02 0.  1.
         31    1    1    2    0    0 -0.57070413355E+00 -0.37875904833E+00  0.56420862381E+02  0.56914337380E+02  0.74470750000E+01 0.  1.
        -31    1    1    2    0    0  0.57070413355E+00  0.37875904833E+00  0.63063926474E+02  0.63505802176E+02  0.74470750000E+01 0. -1.
<mgrwt>
<rscale>  0 0.14979828E+02</rscale>
<asrwt>0</asrwt>
<pdfrwt beam="2">  1        2 0.99330286E+00 0.14979828E+02</pdfrwt>
<pdfrwt beam="1">  1       -2 0.99571797E+00 0.14979828E+02</pdfrwt>
<totfact>-0.13280041E-13</totfact>
</mgrwt>
</event>
<event>
 4    1 -0.4926183E-019  0.1498323E+02  0.7818608E-02  0.1868581E+00
         -2   -1    0    0    0  501 -0.00000000000E+00  0.00000000000E+00  0.11940809759E+03  0.11940809762E+03  0.25500000000E-02 0. -1.
          2   -1    0    0  501    0  0.00000000000E+00 -0.00000000000E+00 -0.47001751240E+00  0.47002442965E+00  0.25500000000E-02 0.  1.
         31    1    1    2    0    0 -0.49681363527E+00 -0.49476742739E+00  0.62804225935E+02  0.63248093568E+02  0.74470750000E+01 0. -1.
        -31    1    1    2    0    0  0.49681363527E+00  0.49476742739E+00  0.56133854141E+02  0.56630028478E+02  0.74470750000E+01 0.  1.
<mgrwt>
<rscale>  0 0.14983232E+02</rscale>
<asrwt>0</asrwt>
<pdfrwt beam="2">  1        2 0.99824758E+00 0.14983232E+02</pdfrwt>
<pdfrwt beam="1">  1       -2 0.99123619E+00 0.14983232E+02</pdfrwt>
<totfact>-0.25535585E-14</totfact>
</mgrwt>
</event>
<event>
 4    1  0.4926183E-019  0.1490829E+02  0.7818608E-02  0.1870880E+00
          2   -1    0    0  501    0  0.00000000000E+00  0.00000000000E+00  0.11998941171E+03  0.11998941174E+03  0.25500000000E-02 0. -1.
         -2   -1    0    0    0  501 -0.00000000000E+00 -0.00000000000E+00 -0.46307291905E+00  0.46307994003E+00  0.25500000000E-02 0.  1.
         31    1    1    2    0    0 -0.31741826283E+00  0.59113810825E-01  0.59495594952E+02  0.59960728761E+02  0.74470750000E+01 0. -1.
        -31    1    1    2    0    0  0.31741826283E+00 -0.59113810825E-01  0.60030743843E+02  0.60491762920E+02  0.74470750000E+01 0.  1.
<mgrwt>
<rscale>  0 0.14908289E+02</rscale>
<asrwt>0</asrwt>
<pdfrwt beam="1">  1        2 0.99598548E+00 0.14908289E+02</pdfrwt>
<pdfrwt beam="2">  1       -2 0.98357390E+00 0.14908289E+02</pdfrwt>
<totfact> 0.61990888E-13</totfact>
</mgrwt>
</event>
<event>
 4    1 -0.4926183E-019  0.1498473E+02  0.7818608E-02  0.1868535E+00
          2   -1    0    0  501    0  0.00000000000E+00  0.00000000000E+00  0.11981800011E+03  0.11981800014E+03  0.25500000000E-02 0. -1.
         -2   -1    0    0    0  501 -0.00000000000E+00 -0.00000000000E+00 -0.46850339995E+00  0.46851033955E+00  0.25500000000E-02 0.  1.
         31    1    1    2    0    0  0.22574800163E+00 -0.17088498374E+00  0.53475171668E+02  0.53991972319E+02  0.74470750000E+01 0.  1.
        -31    1    1    2    0    0 -0.22574800163E+00  0.17088498374E+00  0.65874325042E+02  0.66294538159E+02  0.74470750000E+01 0. -1.
<mgrwt>
<rscale>  0 0.14984733E+02</rscale>
<asrwt>0</asrwt>
<pdfrwt beam="1">  1        2 0.99461303E+00 0.14984733E+02</pdfrwt>
<pdfrwt beam="2">  1       -2 0.99505775E+00 0.14984733E+02</pdfrwt>
<totfact>-0.12369856E-13</totfact>
</mgrwt>
</event>
<event>
 4    1  0.4926183E-019  0.1491257E+02  0.7818608E-02  0.1870748E+00
         -2   -1    0    0    0  501 -0.00000000000E+00  0.00000000000E+00  0.11903705494E+03  0.11903705497E+03  0.25500000000E-02 0. -1.
          2   -1    0    0  501    0  0.00000000000E+00 -0.00000000000E+00 -0.46704601881E+00  0.46705298007E+00  0.25500000000E-02 0.  1.
         31    1    1    2    0    0  0.39237466662E-01  0.20345049941E+00  0.56823595117E+02  0.57309884137E+02  0.74470750000E+01 0.  1.
        -31    1    1    2    0    0 -0.39237466662E-01 -0.20345049941E+00  0.61746413808E+02  0.62194223815E+02  0.74470750000E+01 0. -1.
<mgrwt>
<rscale>  0 0.14912572E+02</rscale>
<asrwt>0</asrwt>
<pdfrwt beam="2">  1        2 0.99194920E+00 0.14912572E+02</pdfrwt>
<pdfrwt beam="1">  1       -2 0.98814358E+00 0.14912572E+02</pdfrwt>
<totfact> 0.17707553E-13</totfact>
</mgrwt>
</event>
<event>
 4    1 -0.4926183E-019  0.1493829E+02  0.7818608E-02  0.1869958E+00
         -2   -1    0    0    0  501 -0.00000000000E+00  0.00000000000E+00  0.11971560518E+03  0.11971560520E+03  0.25500000000E-02 0.  1.
          2   -1    0    0  501    0  0.00000000000E+00 -0.00000000000E+00 -0.46600180019E+00  0.46600877704E+00  0.25500000000E-02 0. -1.
         31    1    1    2    0    0 -0.51476052837E+00 -0.55662371246E-01  0.61613541083E+02  0.62064123675E+02  0.74470750000E+01 0.  1.
        -31    1    1    2    0    0  0.51476052837E+00  0.55662371246E-01  0.57636062293E+02  0.58117490306E+02  0.74470750000E+01 0. -1.
<mgrwt>
<rscale>  0 0.14938288E+02</rscale>
<asrwt>0</asrwt>
<pdfrwt beam="2">  1        2 0.98976197E+00 0.14938288E+02</pdfrwt>
<pdfrwt beam="1">  1       -2 0.99374567E+00 0.14938288E+02</pdfrwt>
<totfact>-0.17529610E-13</totfact>
</mgrwt>
</event>
<event>
 4    1  0.4926183E-019  0.1491488E+02  0.7818608E-02  0.1870677E+00
         -2   -1    0    0    0  501 -0.00000000000E+00  0.00000000000E+00  0.11876713821E+03  0.11876713823E+03  0.25500000000E-02 0.  1.
          2   -1    0    0  501    0  0.00000000000E+00 -0.00000000000E+00 -0.46825215399E+00  0.46825909731E+00  0.25500000000E-02 0. -1.
         31    1    1    2    0    0  0.92067009568E-01  0.27448341906E+00  0.57024673159E+02  0.57509617391E+02  0.74470750000E+01 0. -1.
        -31    1    1    2    0    0 -0.92067009568E-01 -0.27448341906E+00  0.61274212892E+02  0.61725779939E+02  0.74470750000E+01 0.  1.
<mgrwt>
<rscale>  0 0.14914876E+02</rscale>
<asrwt>0</asrwt>
<pdfrwt beam="2">  1        2 0.99449196E+00 0.14914876E+02</pdfrwt>
<pdfrwt beam="1">  1       -2 0.98592169E+00 0.14914876E+02</pdfrwt>
<totfact> 0.38436540E-13</totfact>
</mgrwt>
</event>
<event>
 4    1 -0.4926183E-019  0.1501123E+02  0.7818608E-02  0.1867726E+00
          2   -1    0    0  501    0  0.00000000000E+00  0.00000000000E+00  0.11991774941E+03  0.11991774944E+03  0.25500000000E-02 0.  1.
         -2   -1    0    0    0  501 -0.00000000000E+00 -0.00000000000E+00 -0.46977045567E+00  0.46977737655E+00  0.25500000000E-02 0. -1.
         31    1    1    2    0    0 -0.89152614779E-01 -0.56636935423E+00  0.65653165750E+02  0.66076666240E+02  0.74470750000E+01 0.  1.
        -31    1    1    2    0    0  0.89152614779E-01  0.56636935423E+00  0.53794813208E+02  0.54310860577E+02  0.74470750000E+01 0. -1.
<mgrwt>
<rscale>  0 0.15011227E+02</rscale>
<asrwt>0</asrwt>
<pdfrwt beam="1">  1        2 0.99544830E+00 0.15011227E+02</pdfrwt>
<pdfrwt beam="2">  1       -2 0.99774155E+00 0.15011227E+02</pdfrwt>
<totfact>-0.74260138E-14</totfact>
</mgrwt>
</event>
<event>
 4    1 -0.4926183E-019  0.1493195E+02  0.7818608E-02  0.1870152E+00
          2   -1    0    0  501    0  0.00000000000E+00  0.00000000000E+00  0.11860408979E+03  0.11860408982E+03  0.25500000000E-02 0. -1.
         -2   -1    0    0    0  501 -0.00000000000E+00 -0.00000000000E+00 -0.46997003583E+00  0.46997695377E+00  0.25500000000E-02 0.  1.
         31    1    1    2    0    0  0.20725833410E+00  0.40726225203E+00  0.56911933311E+02  0.57398918960E+02  0.74470750000E+01 0.  1.
        -31    1    1    2    0    0 -0.20725833410E+00 -0.40726225203E+00  0.61222186445E+02  0.61675147813E+02  0.74470750000E+01 0. -1.
<mgrwt>
<rscale>  0 0.14931950E+02</rscale>
<asrwt>0</asrwt>
<pdfrwt beam="1">  1        2 0.98458770E+00 0.14931950E+02</pdfrwt>
<pdfrwt beam="2">  1       -2 0.99812062E+00 0.14931950E+02</pdfrwt>
<totfact>-0.20977559E-13</totfact>
</mgrwt>
</event>
<event>
 4    1 -0.4926183E-019  0.1500531E+02  0.7818608E-02  0.1867906E+00
          2   -1    0    0  501    0  0.00000000000E+00  0.00000000000E+00  0.12023564986E+03  0.12023564989E+03  0.25500000000E-02 0. -1.
         -2   -1    0    0    0  501 -0.00000000000E+00 -0.00000000000E+00 -0.46815913067E+00  0.46816607537E+00  0.25500000000E-02 0.  1.
         31    1    1    2    0    0 -0.82821021446E+00  0.15929839560E+00  0.57101799738E+02  0.57591542500E+02  0.74470750000E+01 0.  1.
        -31    1    1    2    0    0  0.82821021446E+00 -0.15929839560E+00  0.62665690993E+02  0.63112273464E+02  0.74470750000E+01 0. -1.
<mgrwt>
<rscale>  0 0.15005311E+02</rscale>
<asrwt>0</asrwt>
<pdfrwt beam="1">  1        2 0.99806360E+00 0.15005311E+02</pdfrwt>
<pdfrwt beam="2">  1       -2 0.99434285E+00 0.15005311E+02</pdfrwt>
<totfact>-0.63580962E-14</totfact>
</mgrwt>
</event>
<event>
 4    1  0.4926183E-019  0.1494723E+02  0.7818608E-02  0.1869683E+00
          2   -1    0    0  501    0  0.00000000000E+00  0.00000000000E+00  0.12028904743E+03  0.12028904746E+03  0.25500000000E-02 0. -1.
         -2   -1    0    0    0  501 -0.00000000000E+00 -0.00000000000E+00 -0.46433545120E+00  0.46434245309E+00  0.25500000000E-02 0.  1.
         31    1    1    2    0    0 -0.44423722660E+00 -0.43224212808E+00  0.59035256196E+02  0.59506340672E+02  0.74470750000E+01 0.  1.
        -31    1    1    2    0    0  0.44423722660E+00  0.43224212808E+00  0.60789455784E+02  0.61247049239E+02  0.74470750000E+01 0. -1.
<mgrwt>
<rscale>  0 0.14947226E+02</rscale>
<asrwt>0</asrwt>
<pdfrwt beam="1">  1        2 0.99847351E+00 0.14947226E+02</pdfrwt>
<pdfrwt beam="2">  1       -2 0.98625463E+00 0.14947226E+02</pdfrwt>
<totfact> 0.14437816E-13</totfact>
</mgrwt>
</event>
<event>
 4    1 -0.4926183E-019  0.1497888E+02  0.7818608E-02  0.1868714E+00
         -2   -1    0    0    0  501 -0.00000000000E+00  0.00000000000E+00  0.12003119395E+03  0.12003119397E+03  0.25500000000E-02 0.  1.
          2   -1    0    0  501    0  0.00000000000E+00 -0.00000000000E+00 -0.46730589811E+00  0.46731285549E+00  0.25500000000E-02 0. -1.
         31    1    1    2    0    0 -0.61837607812E+00 -0.28660241498E+00  0.56482205507E+02  0.56975108556E+02  0.74470750000E+01 0. -1.
        -31    1    1    2    0    0  0.61837607812E+00  0.28660241498E+00  0.63081682542E+02  0.63523398275E+02  0.74470750000E+01 0.  1.
<mgrwt>
<rscale>  0 0.14978879E+02</rscale>
<asrwt>0</asrwt>
<pdfrwt beam="2">  1        2 0.99253113E+00 0.14978879E+02</pdfrwt>
<pdfrwt beam="1">  1       -2 0.99636596E+00 0.14978879E+02</pdfrwt>
<totfact>-0.13061890E-13</totfact>
</mgrwt>
</event>
<event>
 4    1 -0.4926183E-019  0.1493566E+02  0.7818608E-02  0.1870038E+00
         -2   -1    0    0    0  501 -0.00000000000E+00  0.00000000000E+00  0.12022401099E+03  0.12022401102E+03  0.25500000000E-02 0.  1.
          2   -1    0    0  501    0  0.00000000000E+00 -0.00000000000E+00 -0.46386791432E+00  0.46387492327E+00  0.25500000000E-02 0. -1.
         31    1    1    2    0    0  0.18562344611E+00 -0.47709043766E+00  0.58119178225E+02  0.58596585865E+02  0.74470750000E+01 0. -1.
        -31    1    1    2    0    0 -0.18562344611E+00  0.47709043766E+00  0.61640964850E+02  0.62091300076E+02  0.74470750000E+01 0.  1.
<mgrwt>
<rscale>  0 0.14935660E+02</rscale>
<asrwt>0</asrwt>
<pdfrwt beam="2">  1        2 0.98526335E+00 0.14935660E+02</pdfrwt>
<pdfrwt beam="1">  1       -2 0.99793188E+00 0.14935660E+02</pdfrwt>
<totfact>-0.20309304E-13</totfact>
</mgrwt>
</event>
<event>
 4    1 -0.4926183E-019  0.1491243E+02  0.7818608E-02  0.1870752E+00
          2   -1    0    0  501    0  0.00000000000E+00  0.00000000000E+00  0.11884414153E+03  0.11884414156E+03  0.25500000000E-02 0. -1.
         -2   -1    0    0    0  501 -0.00000000000E+00 -0.00000000000E+00 -0.46779545919E+00  0.46780240930E+00  0.25500000000E-02 0.  1.
         31    1    1    2    0    0 -0.84670690107E-01 -0.21159088000E+00  0.61511174687E+02  0.61960757559E+02  0.74470750000E+01 0.  1.
        -31    1    1    2    0    0  0.84670690107E-01  0.21159088000E+00  0.56865171384E+02  0.57351186408E+02  0.74470750000E+01 0.  1.
<mgrwt>
<rscale>  0 0.14912433E+02</rscale>
<asrwt>0</asrwt>
<pdfrwt beam="1">  1        2 0.98655463E+00 0.14912433E+02</pdfrwt>
<pdfrwt beam="2">  1       -2 0.99352836E+00 0.14912433E+02</pdfrwt>
<totfact>-0.25569980E-13</totfact>
</mgrwt>
</event>
<event>
 4    1 -0.4926183E-019  0.1500758E+02  0.7818608E-02  0.1867837E+00
          2   -1    0    0  501    0  0.00000000000E+00  0.00000000000E+00  0.11997565629E+03  0.11997565632E+03  0.25500000000E-02 0.  1.
         -2   -1    0    0    0  501 -0.00000000000E+00 -0.00000000000E+00 -0.46931549342E+00  0.46932242101E+00  0.25500000000E-02 0. -1.
         31    1    1    2    0    0 -0.33399646695E+00 -0.84974737633E+00  0.60712989846E+02  0.61174828863E+02  0.74470750000E+01 0. -1.
        -31    1    1    2    0    0  0.33399646695E+00  0.84974737633E+00  0.58793350954E+02  0.59270149879E+02  0.74470750000E+01 0. -1.
<mgrwt>
<rscale>  0 0.15007579E+02</rscale>
<asrwt>0</asrwt>
<pdfrwt beam="1">  1        2 0.99592336E+00 0.15007579E+02</pdfrwt>
<pdfrwt beam="2">  1       -2 0.99678092E+00 0.15007579E+02</pdfrwt>
<totfact>-0.89366500E-14</totfact>
</mgrwt>
</event>
<event>
 4    1 -0.4926183E-019  0.1497341E+02  0.7818608E-02  0.1868881E+00
          2   -1    0    0  501    0  0.00000000000E+00  0.00000000000E+00  0.11963403441E+03  0.11963403444E+03  0.25500000000E-02 0.  1.
         -2   -1    0    0    0  501 -0.00000000000E+00 -0.00000000000E+00 -0.46851502899E+00  0.46852196841E+00  0.25500000000E-02 0. -1.
         31    1    1    2    0    0  0.35151899813E+00 -0.53541415378E+00  0.56164609153E+02  0.56659795987E+02  0.74470750000E+01 0. -1.
        -31    1    1    2    0    0 -0.35151899813E+00  0.53541415378E+00  0.63000910232E+02  0.63442760422E+02  0.74470750000E+01 0.  1.
<mgrwt>
<rscale>  0 0.14973411E+02</rscale>
<asrwt>0</asrwt>
<pdfrwt beam="1">  1        2 0.99309197E+00 0.14973411E+02</pdfrwt>
<pdfrwt beam="2">  1       -2 0.99507639E+00 0.14973411E+02</pdfrwt>
<totfact>-0.13964439E-13</totfact>
</mgrwt>
</event>
<event>
 4    1  0.4926183E-019  0.1489553E+02  0.7818608E-02  0.1871273E+00
         -2   -1    0    0    0  501 -0.00000000000E+00  0.00000000000E+00  0.11832787308E+03  0.11832787311E+03  0.25500000000E-02 0.  1.
          2   -1    0    0  501    0  0.00000000000E+00 -0.00000000000E+00 -0.46877188086E+00  0.46877881649E+00  0.25500000000E-02 0. -1.
         31    1    1    2    0    0 -0.85540735466E-01 -0.34093930241E-01  0.59266742855E+02  0.59732857075E+02  0.74470750000E+01 0.  1.
        -31    1    1    2    0    0  0.85540735466E-01  0.34093930241E-01  0.58592358348E+02  0.59063794853E+02  0.74470750000E+01 0.  1.
<mgrwt>
<rscale>  0 0.14895529E+02</rscale>
<asrwt>0</asrwt>
<pdfrwt beam="2">  1        2 0.99557689E+00 0.14895529E+02</pdfrwt>
<pdfrwt beam="1">  1       -2 0.98229384E+00 0.14895529E+02</pdfrwt>
<totfact> 0.86640902E-13</totfact>
</mgrwt>
</event>
<event>
 4    1 -0.4926183E-019  0.1489433E+02  0.7818608E-02  0.1871310E+00
         -2   -1    0    0    0  501 -0.00000000000E+00  0.00000000000E+00  0.11970349910E+03  0.11970349913E+03  0.25500000000E-02 0.  1.
          2   -1    0    0  501    0  0.00000000000E+00 -0.00000000000E+00 -0.46331037294E+00  0.46331739032E+00  0.25500000000E-02 0. -1.
         31    1    1    2    0    0  0.28084103842E-01  0.24060156841E-01  0.59607578619E+02  0.60070989026E+02  0.74470750000E+01 0. -1.
        -31    1    1    2    0    0 -0.28084103842E-01 -0.24060156841E-01  0.59632610108E+02  0.60095827492E+02  0.74470750000E+01 0.  1.
<mgrwt>
<rscale>  0 0.14894334E+02</rscale>
<asrwt>0</asrwt>
<pdfrwt beam="2">  1        2 0.98406726E+00 0.14894334E+02</pdfrwt>
<pdfrwt beam="1">  1       -2 0.99362332E+00 0.14894334E+02</pdfrwt>
<totfact>-0.38369711E-13</totfact>
</mgrwt>
</event>
<event>
 4    1  0.4926183E-019  0.1490135E+02  0.7818608E-02  0.1871094E+00
         -2   -1    0    0    0  501 -0.00000000000E+00  0.00000000000E+00  0.11809747138E+03  0.11809747141E+03  0.25500000000E-02 0.  1.
          2   -1    0    0  501    0  0.00000000000E+00 -0.00000000000E+00 -0.47005346497E+00  0.47006038169E+00  0.25500000000E-02 0. -1.
         31    1    1    2    0    0  0.14390975337E+00 -0.90971377900E-01  0.57565083197E+02  0.58045040402E+02  0.74470750000E+01 0. -1.
        -31    1    1    2    0    0 -0.14390975337E+00  0.90971377900E-01  0.60062334723E+02  0.60522491392E+02  0.74470750000E+01 0.  1.
<mgrwt>
<rscale>  0 0.14901347E+02</rscale>
<asrwt>0</asrwt>
<pdfrwt beam="2">  1        2 0.99828020E+00 0.14901347E+02</pdfrwt>
<pdfrwt beam="1">  1       -2 0.98039931E+00 0.14901347E+02</pdfrwt>
<totfact> 0.64359637E-13</totfact>
</mgrwt>
</event>
<event>
 4    1  0.4926183E-019  0.1490965E+02  0.7818608E-02  0.1870838E+00
         -2   -1    0    0    0  501 -0.00000000000E+00  0.00000000000E+00  0.11828394633E+03  0.11828394636E+03  0.25500000000E-02 0. -1.
          2   -1    0    0  501    0  0.00000000000E+00 -0.00000000000E+00 -0.46983581991E+00  0.46984273983E+00  0.25500000000E-02 0.  1.
         31    1    1    2    0    0  0.13582731531E+00 -0.26399021375E+00  0.57589076818E+02  0.58069345052E+02  0.74470750000E+01 0.  1.
        -31    1    1    2    0    0 -0.13582731531E+00  0.26399021375E+00  0.60225033691E+02  0.60684444045E+02  0.74470750000E+01 0. -1.
<mgrwt>
<rscale>  0 0.14909654E+02</rscale>
<asrwt>0</asrwt>
<pdfrwt beam="2">  1        2 0.99782604E+00 0.14909654E+02</pdfrwt>
<pdfrwt beam="1">  1       -2 0.98193942E+00 0.14909654E+02</pdfrwt>
<totfact> 0.58172481E-13</totfact>
</mgrwt>
</event>
<event>
 4    1 -0.4926183E-019  0.1491674E+02  0.7818608E-02  0.1870620E+00
         -2   -1    0    0    0  501 -0.00000000000E+00  0.00000000000E+00  0.12001095044E+03  0.12001095046E+03  0.25500000000E-02 0.  1.
          2   -1    0    0  501    0  0.00000000000E+00 -0.00000000000E+00 -0.46351458086E+00  0.46352159515E+00  0.25500000000E-02 0. -1.
         31    1    1    2    0    0 -0.17179923746E+00 -0.36389343385E+00  0.59128101815E+02  0.59596587853E+02  0.74470750000E+01 0.  1.
        -31    1    1    2    0    0  0.17179923746E+00  0.36389343385E+00  0.60419334041E+02  0.60877884206E+02  0.74470750000E+01 0.  1.
<mgrwt>
<rscale>  0 0.14916736E+02</rscale>
<asrwt>0</asrwt>
<pdfrwt beam="2">  1        2 0.98450905E+00 0.14916736E+02</pdfrwt>
<pdfrwt beam="1">  1       -2 0.99616723E+00 0.14916736E+02</pdfrwt>
<totfact>-0.34625359E-13</totfact>
</mgrwt>
</event>
<event>
 4    1 -0.4926183E-019  0.1493387E+02  0.7818608E-02  0.1870093E+00
          2   -1    0    0  501    0  0.00000000000E+00  0.00000000000E+00  0.11902616896E+03  0.11902616899E+03  0.25500000000E-02 0.  1.
         -2   -1    0    0    0  501 -0.00000000000E+00 -0.00000000000E+00 -0.46842370593E+00  0.46843064671E+00  0.25500000000E-02 0. -1.
         31    1    1    2    0    0  0.28744493776E-01  0.50707315717E+00  0.57714567847E+02  0.58195259406E+02  0.74470750000E+01 0. -1.
        -31    1    1    2    0    0 -0.28744493776E-01 -0.50707315717E+00  0.60843177410E+02  0.61299340232E+02  0.74470750000E+01 0. -1.
<mgrwt>
<rscale>  0 0.14933867E+02</rscale>
<asrwt>0</asrwt>
<pdfrwt beam="1">  1        2 0.98806496E+00 0.14933867E+02</pdfrwt>
<pdfrwt beam="2">  1       -2 0.99486337E+00 0.14933867E+02</pdfrwt>
<totfact>-0.22181864E-13</totfact>
</mgrwt>
</event>
<event>
 4    1 -0.4926183E-019  0.1491913E+02  0.7818608E-02  0.1870546E+00
          2   -1    0    0  501    0  0.00000000000E+00  0.00000000000E+00  0.11856843157E+03  0.11856843160E+03  0.25500000000E-02 0.  1.
         -2   -1    0    0    0  501 -0.00000000000E+00 -0.00000000000E+00 -0.46930431529E+00  0.46931124305E+00  0.25500000000E-02 0. -1.
         31    1    1    2    0    0 -0.49467668278E-03 -0.14601829641E+00  0.55810075417E+02  0.56304926656E+02  0.74470750000E+01 0. -1.
        -31    1    1    2    0    0  0.49467668278E-03  0.14601829641E+00  0.62289051839E+02  0.62732816186E+02  0.74470750000E+01 0.  1.
<mgrwt>
<rscale>  0 0.14919127E+02</rscale>
<asrwt>0</asrwt>
<pdfrwt beam="1">  1        2 0.98428734E+00 0.14919127E+02</pdfrwt>
<pdfrwt beam="2">  1       -2 0.99671117E+00 0.14919127E+02</pdfrwt>
<totfact>-0.33089555E-13</totfact>
</mgrwt>
</event>
<event>
 4    1  0.4926183E-019  0.1492191E+02  0.7818608E-02  0.1870461E+00
          2   -1    0    0  501    0  0.00000000000E+00  0.00000000000E+00  0.12011686714E+03  0.12011686716E+03  0.25500000000E-02 0.  1.
         -2   -1    0    0    0  501 -0.00000000000E+00 -0.00000000000E+00 -0.46342743231E+00  0.46343444792E+00  0.25500000000E-02 0. -1.
         31    1    1    2    0    0 -0.31323174367E+00  0.91656454808E-01  0.62387628142E+02  0.62831374219E+02  0.74470750000E+01 0. -1.
        -31    1    1    2    0    0  0.31323174367E+00 -0.91656454808E-01  0.57265811563E+02  0.57748927393E+02  0.74470750000E+01 0. -1.
<mgrwt>
<rscale>  0 0.14921914E+02</rscale>
<asrwt>0</asrwt>
<pdfrwt beam="1">  1        2 0.99704230E+00 0.14921914E+02</pdfrwt>
<pdfrwt beam="2">  1       -2 0.98432800E+00 0.14921914E+02</pdfrwt>
<totfact> 0.42486809E-13</totfact>
</mgrwt>
</event>
<event>
 4    1  0.4926183E-019  0.1490734E+02  0.7818608E-02  0.1870909E+00
         -2   -1    0    0    0  501 -0.00000000000E+00  0.00000000000E+00  0.11849875824E+03  0.11849875827E+03  0.25500000000E-02 0. -1.
          2   -1    0    0  501    0  0.00000000000E+00 -0.00000000000E+00 -0.46883822967E+00  0.46884516432E+00  0.25500000000E-02 0.  1.
         31    1    1    2    0    0 -0.12546515996E-01 -0.30971963720E+00  0.58644710844E+02  0.59116470799E+02  0.74470750000E+01 0.  1.
        -31    1    1    2    0    0  0.12546515996E-01  0.30971963720E+00  0.59385209167E+02  0.59851132634E+02  0.74470750000E+01 0.  1.
<mgrwt>
<rscale>  0 0.14907335E+02</rscale>
<asrwt>0</asrwt>
<pdfrwt beam="2">  1        2 0.99572291E+00 0.14907335E+02</pdfrwt>
<pdfrwt beam="1">  1       -2 0.98370738E+00 0.14907335E+02</pdfrwt>
<totfact> 0.62283913E-13</totfact>
</mgrwt>
</event>
<event>
 4    1 -0.4926183E-019  0.1502693E+02  0.7818608E-02  0.1867248E+00
         -2   -1    0    0    0  501 -0.00000000000E+00  0.00000000000E+00  0.12023519458E+03  0.12023519461E+03  0.25500000000E-02 0.  1.
          2   -1    0    0  501    0  0.00000000000E+00 -0.00000000000E+00 -0.46951071807E+00  0.46951764278E+00  0.25500000000E-02 0. -1.
         31    1    1    2    0    0 -0.33674117842E+00  0.60389847876E+00  0.54117734044E+02  0.54632098185E+02  0.74470750000E+01 0. -1.
        -31    1    1    2    0    0  0.33674117842E+00 -0.60389847876E+00  0.65647949820E+02  0.66072614067E+02  0.74470750000E+01 0. -1.
<mgrwt>
<rscale>  0 0.15026927E+02</rscale>
<asrwt>0</asrwt>
<pdfrwt beam="2">  1        2 0.99720232E+00 0.15026927E+02</pdfrwt>
<pdfrwt beam="1">  1       -2 0.99807101E+00 0.15026927E+02</pdfrwt>
<totfact>-0.48470868E-14</totfact>
</mgrwt>
</event>
<event>
 4    1  0.4926183E-019  0.1490186E+02  0.7818608E-02  0.1871078E+00
         -2   -1    0    0    0  501 -0.00000000000E+00  0.00000000000E+00  0.11852835230E+03  0.11852835233E+03  0.25500000000E-02 0.  1.
          2   -1    0    0  501    0  0.00000000000E+00 -0.00000000000E+00 -0.46837689831E+00  0.46838383979E+00  0.25500000000E-02 0. -1.
         31    1    1    2    0    0  0.11179024148E+00 -0.12090121950E+00  0.57639607372E+02  0.58118933044E+02  0.74470750000E+01 0. -1.
        -31    1    1    2    0    0 -0.11179024148E+00  0.12090121950E+00  0.60420368028E+02  0.60877803121E+02  0.74470750000E+01 0.  1.
<mgrwt>
<rscale>  0 0.14901860E+02</rscale>
<asrwt>0</asrwt>
<pdfrwt beam="2">  1        2 0.99474798E+00 0.14901860E+02</pdfrwt>
<pdfrwt beam="1">  1       -2 0.98394827E+00 0.14901860E+02</pdfrwt>
<totfact> 0.65539872E-13</totfact>
</mgrwt>
</event>
<event>
 4    1 -0.4926183E-019  0.1496698E+02  0.7818608E-02  0.1869078E+00
          2   -1    0    0  501    0  0.00000000000E+00  0.00000000000E+00  0.11954344483E+03  0.11954344486E+03  0.25500000000E-02 0. -1.
         -2   -1    0    0    0  501 -0.00000000000E+00 -0.00000000000E+00 -0.46846731193E+00  0.46847425207E+00  0.25500000000E-02 0.  1.
         31    1    1    2    0    0 -0.52340462181E+00 -0.42649165257E+00  0.57160986288E+02  0.57648010608E+02  0.74470750000E+01 0. -1.
        -31    1    1    2    0    0  0.52340462181E+00  0.42649165257E+00  0.61913991232E+02  0.62363908504E+02  0.74470750000E+01 0.  1.
<mgrwt>
<rscale>  0 0.14966979E+02</rscale>
<asrwt>0</asrwt>
<pdfrwt beam="1">  1        2 0.99234252E+00 0.14966979E+02</pdfrwt>
<pdfrwt beam="2">  1       -2 0.99497250E+00 0.14966979E+02</pdfrwt>
<totfact>-0.14770869E-13</totfact>
</mgrwt>
</event>
<event>
 4    1  0.4926183E-019  0.1492919E+02  0.7818608E-02  0.1870237E+00
          2   -1    0    0  501    0  0.00000000000E+00  0.00000000000E+00  0.11977810021E+03  0.11977810023E+03  0.25500000000E-02 0. -1.
         -2   -1    0    0    0  501 -0.00000000000E+00 -0.00000000000E+00 -0.46519131285E+00  0.46519830186E+00  0.25500000000E-02 0.  1.
         31    1    1    2    0    0  0.34174224003E+00  0.13830008863E+00  0.56805289026E+02  0.57292544908E+02  0.74470750000E+01 0.  1.
        -31    1    1    2    0    0 -0.34174224003E+00 -0.13830008863E+00  0.62507619867E+02  0.62950753627E+02  0.74470750000E+01 0. -1.
<mgrwt>
<rscale>  0 0.14929187E+02</rscale>
<asrwt>0</asrwt>
<pdfrwt beam="1">  1        2 0.99425572E+00 0.14929187E+02</pdfrwt>
<pdfrwt beam="2">  1       -2 0.98804922E+00 0.14929187E+02</pdfrwt>
<totfact> 0.15764226E-13</totfact>
</mgrwt>
</event>
<event>
 4    1  0.4926183E-019  0.1490929E+02  0.7818608E-02  0.1870849E+00
         -2   -1    0    0    0  501 -0.00000000000E+00  0.00000000000E+00  0.11848254791E+03  0.11848254794E+03  0.25500000000E-02 0. -1.
          2   -1    0    0  501    0  0.00000000000E+00 -0.00000000000E+00 -0.46902552430E+00  0.46903245617E+00  0.25500000000E-02 0.  1.
         31    1    1    2    0    0 -0.31829475355E+00  0.26879709643E-03  0.58150606119E+02  0.58626386804E+02  0.74470750000E+01 0.  1.
        -31    1    1    2    0    0  0.31829475355E+00 -0.26879709643E-03  0.59862916267E+02  0.60325193590E+02  0.74470750000E+01 0. -1.
<mgrwt>
<rscale>  0 0.14909293E+02</rscale>
<asrwt>0</asrwt>
<pdfrwt beam="2">  1        2 0.99611857E+00 0.14909293E+02</pdfrwt>
<pdfrwt beam="1">  1       -2 0.98357489E+00 0.14909293E+02</pdfrwt>
<totfact> 0.60760720E-13</totfact>
</mgrwt>
</event>
<event>
 4    1  0.4926183E-019  0.1495879E+02  0.7818608E-02  0.1869329E+00
         -2   -1    0    0    0  501 -0.00000000000E+00  0.00000000000E+00  0.11900614605E+03  0.11900614608E+03  0.25500000000E-02 0. -1.
          2   -1    0    0  501    0  0.00000000000E+00 -0.00000000000E+00 -0.47006736949E+00  0.47007428600E+00  0.25500000000E-02 0.  1.
         31    1    1    2    0    0  0.32647355376E+00  0.87721107753E-01  0.54422113473E+02  0.54930316228E+02  0.74470750000E+01 0.  1.
        -31    1    1    2    0    0 -0.32647355376E+00 -0.87721107753E-01  0.64113965208E+02  0.64545904136E+02  0.74470750000E+01 0. -1.
<mgrwt>
<rscale>  0 0.14958786E+02</rscale>
<asrwt>0</asrwt>
<pdfrwt beam="2">  1        2 0.99833983E+00 0.14958786E+02</pdfrwt>
<pdfrwt beam="1">  1       -2 0.98791298E+00 0.14958786E+02</pdfrwt>
<totfact> 0.75226932E-14</totfact>
</mgrwt>
</event>
<event>
 4    1 -0.4926183E-019  0.1489946E+02  0.7818608E-02  0.1871152E+00
          2   -1    0    0  501    0  0.00000000000E+00  0.00000000000E+00  0.11873392156E+03  0.11873392159E+03  0.25500000000E-02 0. -1.
         -2   -1    0    0    0  501 -0.00000000000E+00 -0.00000000000E+00 -0.46741545972E+00  0.46742241547E+00  0.25500000000E-02 0.  1.
         31    1    1    2    0    0 -0.83495805023E-01  0.15322812541E+00  0.58369635083E+02  0.58843042717E+02  0.74470750000E+01 0. -1.
        -31    1    1    2    0    0  0.83495805023E-01 -0.15322812541E+00  0.59896871019E+02  0.60358301287E+02  0.74470750000E+01 0. -1.
<mgrwt>
<rscale>  0 0.14899461E+02</rscale>
<asrwt>0</asrwt>
<pdfrwt beam="1">  1        2 0.98564011E+00 0.14899461E+02</pdfrwt>
<pdfrwt beam="2">  1       -2 0.99272086E+00 0.14899461E+02</pdfrwt>
<totfact>-0.25709832E-13</totfact>
</mgrwt>
</event>
<event>
 4    1  0.4926183E-019  0.1492992E+02  0.7818608E-02  0.1870215E+00
          2   -1    0    0  501    0  0.00000000000E+00  0.00000000000E+00  0.11983075822E+03  0.11983075825E+03  0.25500000000E-02 0.  1.
         -2   -1    0    0    0  501 -0.00000000000E+00 -0.00000000000E+00 -0.46503243803E+00  0.46503942943E+00  0.25500000000E-02 0. -1.
         31    1    1    2    0    0 -0.67203648036E-01  0.24775083238E+00  0.63293326124E+02  0.63730447626E+02  0.74470750000E+01 0.  1.
        -31    1    1    2    0    0  0.67203648036E-01 -0.24775083238E+00  0.56072399659E+02  0.56565350051E+02  0.74470750000E+01 0.  1.
<mgrwt>
<rscale>  0 0.14929918E+02</rscale>
<asrwt>0</asrwt>
<pdfrwt beam="1">  1        2 0.99468982E+00 0.14929918E+02</pdfrwt>
<pdfrwt beam="2">  1       -2 0.98771477E+00 0.14929918E+02</pdfrwt>
<totfact> 0.18210582E-13</totfact>
</mgrwt>
</event>
<event>
 4    1 -0.4926183E-019  0.1499299E+02  0.7818608E-02  0.1868283E+00
          2   -1    0    0  501    0  0.00000000000E+00  0.00000000000E+00  0.11936829606E+03  0.11936829609E+03  0.25500000000E-02 0.  1.
         -2   -1    0    0    0  501 -0.00000000000E+00 -0.00000000000E+00 -0.47078659212E+00  0.47079349807E+00  0.25500000000E-02 0. -1.
         31    1    1    2    0    0 -0.55954558125E-01 -0.77588995914E+00  0.62367533956E+02  0.62815391059E+02  0.74470750000E+01 0.  1.
        -31    1    1    2    0    0  0.55954558125E-01  0.77588995914E+00  0.56529975513E+02  0.57023698527E+02  0.74470750000E+01 0. -1.
<mgrwt>
<rscale>  0 0.14992986E+02</rscale>
<asrwt>0</asrwt>
<pdfrwt beam="1">  1        2 0.99091344E+00 0.14992986E+02</pdfrwt>
<pdfrwt beam="2">  1       -2 0.99987324E+00 0.14992986E+02</pdfrwt>
<totfact>-0.72597238E-15</totfact>
</mgrwt>
</event>
<event>
 4    1 -0.4926183E-019  0.1501975E+02  0.7818608E-02  0.1867466E+00
         -2   -1    0    0    0  501 -0.00000000000E+00  0.00000000000E+00  0.12018981595E+03  0.12018981598E+03  0.25500000000E-02 0. -1.
          2   -1    0    0  501    0  0.00000000000E+00 -0.00000000000E+00 -0.46923949742E+00  0.46924642613E+00  0.25500000000E-02 0.  1.
         31    1    1    2    0    0  0.46523292857E+00 -0.18084224689E+00  0.66534056307E+02  0.66951390728E+02  0.74470750000E+01 0. -1.
        -31    1    1    2    0    0 -0.46523292857E+00  0.18084224689E+00  0.53186520146E+02  0.53707671676E+02  0.74470750000E+01 0.  1.
<mgrwt>
<rscale>  0 0.15019751E+02</rscale>
<asrwt>0</asrwt>
<pdfrwt beam="2">  1        2 0.99662706E+00 0.15019751E+02</pdfrwt>
<pdfrwt beam="1">  1       -2 0.99769355E+00 0.15019751E+02</pdfrwt>
<totfact>-0.63226638E-14</totfact>
</mgrwt>
</event>
<event>
 4    1  0.4926183E-019  0.1493196E+02  0.7818608E-02  0.1870152E+00
          2   -1    0    0  501    0  0.00000000000E+00  0.00000000000E+00  0.12037510084E+03  0.12037510087E+03  0.25500000000E-02 0. -1.
         -2   -1    0    0    0  501 -0.00000000000E+00 -0.00000000000E+00 -0.46305637728E+00  0.46306339851E+00  0.25500000000E-02 0.  1.
         31    1    1    2    0    0 -0.32917527074E+00 -0.83786134893E-01  0.56653083744E+02  0.57141457806E+02  0.74470750000E+01 0.  1.
        -31    1    1    2    0    0  0.32917527074E+00  0.83786134893E-01  0.63258960718E+02  0.63696706459E+02  0.74470750000E+01 0.  1.
<mgrwt>
<rscale>  0 0.14931964E+02</rscale>
<asrwt>0</asrwt>
<pdfrwt beam="1">  1        2 0.99917449E+00 0.14931964E+02</pdfrwt>
<pdfrwt beam="2">  1       -2 0.98355101E+00 0.14931964E+02</pdfrwt>
<totfact> 0.18149830E-13</totfact>
</mgrwt>
</event>
<event>
 4    1 -0.4926183E-019  0.1497724E+02  0.7818608E-02  0.1868764E+00
          2   -1    0    0  501    0  0.00000000000E+00  0.00000000000E+00  0.11995874872E+03  0.11995874875E+03  0.25500000000E-02 0.  1.
         -2   -1    0    0    0  501 -0.00000000000E+00 -0.00000000000E+00 -0.46748595361E+00  0.46749290831E+00  0.25500000000E-02 0. -1.
         31    1    1    2    0    0 -0.50079470062E+00  0.11834556844E+00  0.54950003638E+02  0.55454725920E+02  0.74470750000E+01 0. -1.
        -31    1    1    2    0    0  0.50079470062E+00 -0.11834556844E+00  0.64541259128E+02  0.64971515735E+02  0.74470750000E+01 0. -1.
<mgrwt>
<rscale>  0 0.14977243E+02</rscale>
<asrwt>0</asrwt>
<pdfrwt beam="1">  1        2 0.99576842E+00 0.14977243E+02</pdfrwt>
<pdfrwt beam="2">  1       -2 0.99290975E+00 0.14977243E+02</pdfrwt>
<totfact>-0.92974564E-14</totfact>
</mgrwt>
</event>
<event>
 4    1 -0.4926183E-019  0.1498570E+02  0.7818608E-02  0.1868505E+00
          2   -1    0    0  501    0  0.00000000000E+00  0.00000000000E+00  0.11944977649E+03  0.11944977652E+03  0.25500000000E-02 0.  1.
         -2   -1    0    0    0  501 -0.00000000000E+00 -0.00000000000E+00 -0.47000809202E+00  0.47001500940E+00  0.25500000000E-02 0. -1.
         31    1    1    2    0    0 -0.39281268965E+00  0.46782672436E-01  0.53678653563E+02  0.54194218002E+02  0.74470750000E+01 0. -1.
        -31    1    1    2    0    0  0.39281268965E+00 -0.46782672436E-01  0.65301114834E+02  0.65725573524E+02  0.74470750000E+01 0. -1.
<mgrwt>
<rscale>  0 0.14985697E+02</rscale>
<asrwt>0</asrwt>
<pdfrwt beam="1">  1        2 0.99158074E+00 0.14985697E+02</pdfrwt>
<pdfrwt beam="2">  1       -2 0.99822902E+00 0.14985697E+02</pdfrwt>
<totfact>-0.84034677E-14</totfact>
</mgrwt>
</event>
<event>
 4    1  0.4926183E-019  0.1491217E+02  0.7818608E-02  0.1870761E+00
         -2   -1    0    0    0  501 -0.00000000000E+00  0.00000000000E+00  0.11837282702E+03  0.11837282704E+03  0.25500000000E-02 0.  1.
          2   -1    0    0  501    0  0.00000000000E+00 -0.00000000000E+00 -0.46964123329E+00  0.46964815608E+00  0.25500000000E-02 0. -1.
         31    1    1    2    0    0  0.13945959098E-01  0.36463439277E+00  0.59215270744E+02  0.59682831434E+02  0.74470750000E+01 0.  1.
        -31    1    1    2    0    0 -0.13945959098E-01 -0.36463439277E+00  0.58687915040E+02  0.59159643766E+02  0.74470750000E+01 0. -1.
<mgrwt>
<rscale>  0 0.14912166E+02</rscale>
<asrwt>0</asrwt>
<pdfrwt beam="2">  1        2 0.99741739E+00 0.14912166E+02</pdfrwt>
<pdfrwt beam="1">  1       -2 0.98267273E+00 0.14912166E+02</pdfrwt>
<totfact> 0.56850014E-13</totfact>
</mgrwt>
</event>
<event>
 4    1 -0.4926183E-019  0.1500538E+02  0.7818608E-02  0.1867904E+00
         -2   -1    0    0    0  501 -0.00000000000E+00  0.00000000000E+00  0.11989436916E+03  0.11989436919E+03  0.25500000000E-02 0.  1.
          2   -1    0    0  501    0  0.00000000000E+00 -0.00000000000E+00 -0.46949613883E+00  0.46950306375E+00  0.25500000000E-02 0. -1.
         31    1    1    2    0    0  0.37040482179E+00 -0.46423039891E+00  0.65262432886E+02  0.65688635104E+02  0.74470750000E+01 0.  1.
        -31    1    1    2    0    0 -0.37040482179E+00  0.46423039891E+00  0.54162440136E+02  0.54675237147E+02  0.74470750000E+01 0. -1.
<mgrwt>
<rscale>  0 0.15005381E+02</rscale>
<asrwt>0</asrwt>
<pdfrwt beam="2">  1        2 0.99716045E+00 0.15005381E+02</pdfrwt>
<pdfrwt beam="1">  1       -2 0.99525271E+00 0.15005381E+02</pdfrwt>
<totfact>-0.84123362E-14</totfact>
</mgrwt>
</event>
<event>
 4    1 -0.4926183E-019  0.1498490E+02  0.7818608E-02  0.1868530E+00
          2   -1    0    0  501    0  0.00000000000E+00  0.00000000000E+00  0.12000933986E+03  0.12000933989E+03  0.25500000000E-02 0.  1.
         -2   -1    0    0    0  501 -0.00000000000E+00 -0.00000000000E+00 -0.46776673004E+00  0.46777368057E+00  0.25500000000E-02 0. -1.
         31    1    1    2    0    0  0.68043281254E+00 -0.44781076244E+00  0.58807760188E+02  0.59283008592E+02  0.74470750000E+01 0.  1.
        -31    1    1    2    0    0 -0.68043281254E+00  0.44781076244E+00  0.60733812941E+02  0.61194104975E+02  0.74470750000E+01 0. -1.
<mgrwt>
<rscale>  0 0.14984899E+02</rscale>
<asrwt>0</asrwt>
<pdfrwt beam="1">  1        2 0.99618907E+00 0.14984899E+02</pdfrwt>
<pdfrwt beam="2">  1       -2 0.99350540E+00 0.14984899E+02</pdfrwt>
<totfact>-0.95916638E-14</totfact>
</mgrwt>
</event>
<event>
 4    1 -0.4926183E-019  0.1490891E+02  0.7818608E-02  0.1870861E+00
          2   -1    0    0  501    0  0.00000000000E+00  0.00000000000E+00  0.11891166100E+03  0.11891166103E+03  0.25500000000E-02 0. -1.
         -2   -1    0    0    0  501 -0.00000000000E+00 -0.00000000000E+00 -0.46730866968E+00  0.46731562702E+00  0.25500000000E-02 0.  1.
         31    1    1    2    0    0  0.14567356338E+00 -0.87932939835E-01  0.61500903505E+02  0.61950375390E+02  0.74470750000E+01 0. -1.
        -31    1    1    2    0    0 -0.14567356338E+00  0.87932939835E-01  0.56943448823E+02  0.57428601262E+02  0.74470750000E+01 0.  1.
<mgrwt>
<rscale>  0 0.14908906E+02</rscale>
<asrwt>0</asrwt>
<pdfrwt beam="1">  1        2 0.98710890E+00 0.14908906E+02</pdfrwt>
<pdfrwt beam="2">  1       -2 0.99250076E+00 0.14908906E+02</pdfrwt>
<totfact>-0.19553053E-13</totfact>
</mgrwt>
</event>
<event>
 4    1 -0.4926183E-019  0.1495322E+02  0.7818608E-02  0.1869499E+00
         -2   -1    0    0    0  501 -0.00000000000E+00  0.00000000000E+00  0.11958029757E+03  0.11958029760E+03  0.25500000000E-02 0. -1.
          2   -1    0    0  501    0  0.00000000000E+00 -0.00000000000E+00 -0.46746241601E+00  0.46746937106E+00  0.25500000000E-02 0.  1.
         31    1    1    2    0    0 -0.23416280476E+00  0.50893758352E+00  0.56696092349E+02  0.57185834464E+02  0.74470750000E+01 0.  1.
        -31    1    1    2    0    0  0.23416280476E+00 -0.50893758352E+00  0.62416742805E+02  0.62861932503E+02  0.74470750000E+01 0. -1.
<mgrwt>
<rscale>  0 0.14953222E+02</rscale>
<asrwt>0</asrwt>
<pdfrwt beam="2">  1        2 0.99284775E+00 0.14953222E+02</pdfrwt>
<pdfrwt beam="1">  1       -2 0.99263893E+00 0.14953222E+02</pdfrwt>
<totfact>-0.11453475E-13</totfact>
</mgrwt>
</event>
<event>
 4    1  0.4926183E-019  0.1491906E+02  0.7818608E-02  0.1870549E+00
          2   -1    0    0  501    0  0.00000000000E+00  0.00000000000E+00  0.11960898021E+03  0.11960898024E+03  0.25500000000E-02 0. -1.
         -2   -1    0    0    0  501 -0.00000000000E+00 -0.00000000000E+00 -0.46521722668E+00  0.46522421530E+00  0.25500000000E-02 0.  1.
         31    1    1    2    0    0  0.12753618943E+00 -0.95831476791E-01  0.62793284450E+02  0.63233542897E+02  0.74470750000E+01 0. -1.
        -31    1    1    2    0    0 -0.12753618943E+00  0.95831476791E-01  0.56350478536E+02  0.56840661559E+02  0.74470750000E+01 0.  1.
<mgrwt>
<rscale>  0 0.14919059E+02</rscale>
<asrwt>0</asrwt>
<pdfrwt beam="1">  1        2 0.99285753E+00 0.14919059E+02</pdfrwt>
<pdfrwt beam="2">  1       -2 0.98809864E+00 0.14919059E+02</pdfrwt>
<totfact> 0.17039607E-13</totfact>
</mgrwt>
</event>
<event>
 4    1 -0.4926183E-019  0.1497166E+02  0.7818608E-02  0.1868934E+00
         -2   -1    0    0    0  501 -0.00000000000E+00  0.00000000000E+00  0.12000616358E+03  0.12000616361E+03  0.25500000000E-02 0.  1.
          2   -1    0    0  501    0  0.00000000000E+00 -0.00000000000E+00 -0.46695301329E+00  0.46695997593E+00  0.25500000000E-02 0. -1.
         31    1    1    2    0    0  0.37847284662E+00 -0.21403792790E+00  0.64792737995E+02  0.65220754955E+02  0.74470750000E+01 0. -1.
        -31    1    1    2    0    0 -0.37847284662E+00  0.21403792790E+00  0.54746472574E+02  0.55252368631E+02  0.74470750000E+01 0. -1.
<mgrwt>
<rscale>  0 0.14971661E+02</rscale>
<asrwt>0</asrwt>
<pdfrwt beam="2">  1        2 0.99178374E+00 0.14971661E+02</pdfrwt>
<pdfrwt beam="1">  1       -2 0.99615608E+00 0.14971661E+02</pdfrwt>
<totfact>-0.14178275E-13</totfact>
</mgrwt>
</event>
<event>
 4    1 -0.4926183E-019  0.1501178E+02  0.7818608E-02  0.1867709E+00
         -2   -1    0    0    0  501 -0.00000000000E+00  0.00000000000E+00  0.12009553257E+03  0.12009553260E+03  0.25500000000E-02 0.  1.
          2   -1    0    0  501    0  0.00000000000E+00 -0.00000000000E+00 -0.46910947082E+00  0.46911640146E+00  0.25500000000E-02 0. -1.
         31    1    1    2    0    0 -0.54763805521E+00 -0.35369591807E+00  0.54399132124E+02  0.54910377072E+02  0.74470750000E+01 0.  1.
        -31    1    1    2    0    0  0.54763805521E+00  0.35369591807E+00  0.65227290973E+02  0.65654271925E+02  0.74470750000E+01 0.  1.
<mgrwt>
<rscale>  0 0.15011778E+02</rscale>
<asrwt>0</asrwt>
<pdfrwt beam="2">  1        2 0.99634893E+00 0.15011778E+02</pdfrwt>
<pdfrwt beam="1">  1       -2 0.99691287E+00 0.15011778E+02</pdfrwt>
<totfact>-0.81547863E-14</totfact>
</mgrwt>
</event>
<event>
 4    1 -0.4926183E-019  0.1494846E+02  0.7818608E-02  0.1869645E+00
         -2   -1    0    0    0  501 -0.00000000000E+00  0.00000000000E+00  0.11980375841E+03  0.11980375844E+03  0.25500000000E-02 0. -1.
          2   -1    0    0  501    0  0.00000000000E+00 -0.00000000000E+00 -0.46629321336E+00  0.46630018585E+00  0.25500000000E-02 0.  1.
         31    1    1    2    0    0  0.16290320505E+00 -0.48233429822E+00  0.62742871237E+02  0.63185330584E+02  0.74470750000E+01 0. -1.
        -31    1    1    2    0    0 -0.16290320505E+00  0.48233429822E+00  0.56594593960E+02  0.57084728040E+02  0.74470750000E+01 0.  1.
<mgrwt>
<rscale>  0 0.14948458E+02</rscale>
<asrwt>0</asrwt>
<pdfrwt beam="2">  1        2 0.99038133E+00 0.14948458E+02</pdfrwt>
<pdfrwt beam="1">  1       -2 0.99447699E+00 0.14948458E+02</pdfrwt>
<totfact>-0.17228812E-13</totfact>
</mgrwt>
</event>
<event>
 4    1 -0.4926183E-019  0.1495093E+02  0.7818608E-02  0.1869570E+00
         -2   -1    0    0    0  501 -0.00000000000E+00  0.00000000000E+00  0.12007620685E+03  0.12007620688E+03  0.25500000000E-02 0.  1.
          2   -1    0    0  501    0  0.00000000000E+00 -0.00000000000E+00 -0.46538895054E+00  0.46539593658E+00  0.25500000000E-02 0. -1.
         31    1    1    2    0    0  0.12682248938E+00 -0.54929625272E+00  0.62428210451E+02  0.62873350448E+02  0.74470750000E+01 0.  1.
        -31    1    1    2    0    0 -0.12682248938E+00  0.54929625272E+00  0.57182607453E+02  0.57668252370E+02  0.74470750000E+01 0. -1.
<mgrwt>
<rscale>  0 0.14950928E+02</rscale>
<asrwt>0</asrwt>
<pdfrwt beam="2">  1        2 0.98847686E+00 0.14950928E+02</pdfrwt>
<pdfrwt beam="1">  1       -2 0.99672231E+00 0.14950928E+02</pdfrwt>
<totfact>-0.17807691E-13</totfact>
</mgrwt>
</event>
<event>
 4    1  0.4926183E-019  0.1491345E+02  0.7818608E-02  0.1870721E+00
         -2   -1    0    0    0  501 -0.00000000000E+00  0.00000000000E+00  0.11878928612E+03  0.11878928614E+03  0.25500000000E-02 0. -1.
          2   -1    0    0  501    0  0.00000000000E+00 -0.00000000000E+00 -0.46807536564E+00  0.46808231158E+00  0.25500000000E-02 0.  1.
         31    1    1    2    0    0  0.15653809817E+00 -0.34264332838E+00  0.58810241623E+02  0.59281070794E+02  0.74470750000E+01 0.  1.
        -31    1    1    2    0    0 -0.15653809817E+00  0.34264332838E+00  0.59510969127E+02  0.59976297661E+02  0.74470750000E+01 0.  1.
<mgrwt>
<rscale>  0 0.14913451E+02</rscale>
<asrwt>0</asrwt>
<pdfrwt beam="2">  1        2 0.99411869E+00 0.14913451E+02</pdfrwt>
<pdfrwt beam="1">  1       -2 0.98610336E+00 0.14913451E+02</pdfrwt>
<totfact> 0.37344415E-13</totfact>
</mgrwt>
</event>
<event>
 4    1 -0.4926183E-019  0.1492488E+02  0.7818608E-02  0.1870370E+00
         -2   -1    0    0    0  501 -0.00000000000E+00  0.00000000000E+00  0.12029629463E+03  0.12029629466E+03  0.25500000000E-02 0.  1.
          2   -1    0    0  501    0  0.00000000000E+00 -0.00000000000E+00 -0.46292008564E+00  0.46292710894E+00  0.25500000000E-02 0. -1.
         31    1    1    2    0    0  0.25849696117E+00  0.30195506770E+00  0.57759627501E+02  0.58239089044E+02  0.74470750000E+01 0.  1.
        -31    1    1    2    0    0 -0.25849696117E+00 -0.30195506770E+00  0.62073747047E+02  0.62520132726E+02  0.74470750000E+01 0.  1.
<mgrwt>
<rscale>  0 0.14924878E+02</rscale>
<asrwt>0</asrwt>
<pdfrwt beam="2">  1        2 0.98326017E+00 0.14924878E+02</pdfrwt>
<pdfrwt beam="1">  1       -2 0.99852174E+00 0.14924878E+02</pdfrwt>
<totfact>-0.21372147E-13</totfact>
</mgrwt>
</event>
<event>
 4    1 -0.4926183E-019  0.1498451E+02  0.7818608E-02  0.1868541E+00
         -2   -1    0    0    0  501 -0.00000000000E+00  0.00000000000E+00  0.11941849364E+03  0.11941849366E+03  0.25500000000E-02 0.  1.
          2   -1    0    0  501    0  0.00000000000E+00 -0.00000000000E+00 -0.47005693498E+00  0.47006385164E+00  0.25500000000E-02 0. -1.
         31    1    1    2    0    0 -0.33927207155E-01 -0.73018529671E+00  0.56473536899E+02  0.56967127517E+02  0.74470750000E+01 0. -1.
        -31    1    1    2    0    0  0.33927207155E-01  0.73018529671E+00  0.62474899802E+02  0.62921429998E+02  0.74470750000E+01 0.  1.
<mgrwt>
<rscale>  0 0.14984513E+02</rscale>
<asrwt>0</asrwt>
<pdfrwt beam="2">  1        2 0.99833132E+00 0.14984513E+02</pdfrwt>
<pdfrwt beam="1">  1       -2 0.99132248E+00 0.14984513E+02</pdfrwt>
<totfact>-0.26174309E-14</totfact>
</mgrwt>
</event>
<event>
 4    1 -0.4926183E-019  0.1492014E+02  0.7818608E-02  0.1870515E+00
          2   -1    0    0  501    0  0.00000000000E+00  0.00000000000E+00  0.11867836160E+03  0.11867836162E+03  0.25500000000E-02 0.  1.
         -2   -1    0    0    0  501 -0.00000000000E+00 -0.00000000000E+00 -0.46893354214E+00  0.46894047538E+00  0.25500000000E-02 0. -1.
         31    1    1    2    0    0 -0.31140006788E+00  0.26438800164E+00  0.57795403746E+02  0.58274647071E+02  0.74470750000E+01 0. -1.
        -31    1    1    2    0    0  0.31140006788E+00 -0.26438800164E+00  0.60414024308E+02  0.60872655028E+02  0.74470750000E+01 0.  1.
<mgrwt>
<rscale>  0 0.14920145E+02</rscale>
<asrwt>0</asrwt>
<pdfrwt beam="1">  1        2 0.98519326E+00 0.14920145E+02</pdfrwt>
<pdfrwt beam="2">  1       -2 0.99593047E+00 0.14920145E+02</pdfrwt>
<totfact>-0.31805570E-13</totfact>
</mgrwt>
</event>
<event>
 4    1  0.4926183E-019  0.1491758E+02  0.7818608E-02  0.1870594E+00
          2   -1    0    0  501    0  0.00000000000E+00  0.00000000000E+00  0.11982514334E+03  0.11982514336E+03  0.25500000000E-02 0. -1.
         -2   -1    0    0    0  501 -0.00000000000E+00 -0.00000000000E+00 -0.46428607843E+00  0.46429308107E+00  0.25500000000E-02 0.  1.
         31    1    1    2    0    0 -0.20403112949E+00  0.36456223449E+00  0.59596505115E+02  0.60061442559E+02  0.74470750000E+01 0.  1.
        -31    1    1    2    0    0  0.20403112949E+00 -0.36456223449E+00  0.59764352142E+02  0.60227993884E+02  0.74470750000E+01 0. -1.
<mgrwt>
<rscale>  0 0.14917583E+02</rscale>
<asrwt>0</asrwt>
<pdfrwt beam="1">  1        2 0.99463722E+00 0.14917583E+02</pdfrwt>
<pdfrwt beam="2">  1       -2 0.98613548E+00 0.14917583E+02</pdfrwt>
<totfact> 0.35295097E-13</totfact>
</mgrwt>
</event>
<event>
 4    1 -0.4926183E-019  0.1498843E+02  0.7818608E-02  0.1868422E+00
          2   -1    0    0  501    0  0.00000000000E+00  0.00000000000E+00  0.11970209864E+03  0.11970209866E+03  0.25500000000E-02 0.  1.
         -2   -1    0    0    0  501 -0.00000000000E+00 -0.00000000000E+00 -0.46918849985E+00  0.46919542932E+00  0.25500000000E-02 0. -1.
         31    1    1    2    0    0  0.58838842725E+00  0.57786243168E+00  0.58368845524E+02  0.58847779735E+02  0.74470750000E+01 0. -1.
        -31    1    1    2    0    0 -0.58838842725E+00 -0.57786243168E+00  0.60864064613E+02  0.61323514358E+02  0.74470750000E+01 0.  1.
<mgrwt>
<rscale>  0 0.14988431E+02</rscale>
<asrwt>0</asrwt>
<pdfrwt beam="1">  1        2 0.99366034E+00 0.14988431E+02</pdfrwt>
<pdfrwt beam="2">  1       -2 0.99650338E+00 0.14988431E+02</pdfrwt>
<totfact>-0.11784392E-13</totfact>
</mgrwt>
</event>
<event>
 4    1  0.4926183E-019  0.1491789E+02  0.7818608E-02  0.1870585E+00
          2   -1    0    0  501    0  0.00000000000E+00  0.00000000000E+00  0.12001846314E+03  0.12001846317E+03  0.25500000000E-02 0. -1.
         -2   -1    0    0    0  501 -0.00000000000E+00 -0.00000000000E+00 -0.46355718404E+00  0.46356419769E+00  0.25500000000E-02 0.  1.
         31    1    1    2    0    0  0.28298272980E+00  0.15189803087E+00  0.57583915953E+02  0.58064356147E+02  0.74470750000E+01 0.  1.
        -31    1    1    2    0    0 -0.28298272980E+00 -0.15189803087E+00  0.61970990002E+02  0.62417671217E+02  0.74470750000E+01 0.  1.
<mgrwt>
<rscale>  0 0.14917888E+02</rscale>
<asrwt>0</asrwt>
<pdfrwt beam="1">  1        2 0.99622970E+00 0.14917888E+02</pdfrwt>
<pdfrwt beam="2">  1       -2 0.98459943E+00 0.14917888E+02</pdfrwt>
<totfact> 0.46234408E-13</totfact>
</mgrwt>
</event>
<event>
 4    1 -0.4926183E-019  0.1495412E+02  0.7818608E-02  0.1869472E+00
         -2   -1    0    0    0  501 -0.00000000000E+00  0.00000000000E+00  0.12027870242E+03  0.12027870245E+03  0.25500000000E-02 0.  1.
          2   -1    0    0  501    0  0.00000000000E+00 -0.00000000000E+00 -0.46480372363E+00  0.46481071846E+00  0.25500000000E-02 0. -1.
         31    1    1    2    0    0 -0.60883521974E-01  0.65519405302E+00  0.60879238915E+02  0.61336560410E+02  0.74470750000E+01 0.  1.
        -31    1    1    2    0    0  0.60883521974E-01 -0.65519405302E+00  0.58934659786E+02  0.59406952760E+02  0.74470750000E+01 0.  1.
<mgrwt>
<rscale>  0 0.14954118E+02</rscale>
<asrwt>0</asrwt>
<pdfrwt beam="2">  1        2 0.98724507E+00 0.14954118E+02</pdfrwt>
<pdfrwt beam="1">  1       -2 0.99839185E+00 0.14954118E+02</pdfrwt>
<totfact>-0.12241954E-13</totfact>
</mgrwt>
</event>
<event>
 4    1 -0.4926183E-019  0.1493494E+02  0.7818608E-02  0.1870060E+00
          2   -1    0    0  501    0  0.00000000000E+00  0.00000000000E+00  0.11881041527E+03  0.11881041530E+03  0.25500000000E-02 0.  1.
         -2   -1    0    0    0  501 -0.00000000000E+00 -0.00000000000E+00 -0.46934153450E+00  0.46934846171E+00  0.25500000000E-02 0. -1.
         31    1    1    2    0    0 -0.24938499163E+00 -0.37909842275E+00  0.56667231268E+02  0.57156276420E+02  0.74470750000E+01 0.  1.
        -31    1    1    2    0    0  0.24938499163E+00  0.37909842275E+00  0.61673842468E+02  0.62123487340E+02  0.74470750000E+01 0. -1.
<mgrwt>
<rscale>  0 0.14934936E+02</rscale>
<asrwt>0</asrwt>
<pdfrwt beam="1">  1        2 0.98628854E+00 0.14934936E+02</pdfrwt>
<pdfrwt beam="2">  1       -2 0.99679791E+00 0.14934936E+02</pdfrwt>
<totfact>-0.23668457E-13</totfact>
</mgrwt>
</event>
<event>
 4    1 -0.4926183E-019  0.1498921E+02  0.7818608E-02  0.1868398E+00
          2   -1    0    0  501    0  0.00000000000E+00  0.00000000000E+00  0.11970695825E+03  0.11970695827E+03  0.25500000000E-02 0.  1.
         -2   -1    0    0    0  501 -0.00000000000E+00 -0.00000000000E+00 -0.46921848505E+00  0.46922541407E+00  0.25500000000E-02 0. -1.
         31    1    1    2    0    0 -0.15280000356E+00  0.81091099459E+00  0.60990896318E+02  0.61449404263E+02  0.74470750000E+01 0.  1.
        -31    1    1    2    0    0  0.15280000356E+00 -0.81091099459E+00  0.58246843443E+02  0.58726779424E+02  0.74470750000E+01 0. -1.
<mgrwt>
<rscale>  0 0.14989214E+02</rscale>
<asrwt>0</asrwt>
<pdfrwt beam="1">  1        2 0.99370077E+00 0.14989214E+02</pdfrwt>
<pdfrwt beam="2">  1       -2 0.99656697E+00 0.14989214E+02</pdfrwt>
<totfact>-0.11628680E-13</totfact>
</mgrwt>
</event>
<event>
 4    1  0.4926183E-019  0.1491976E+02  0.7818608E-02  0.1870527E+00
         -2   -1    0    0    0  501 -0.00000000000E+00  0.00000000000E+00  0.11853834468E+03  0.11853834471E+03  0.25500000000E-02 0. -1.
          2   -1    0    0  501    0  0.00000000000E+00 -0.00000000000E+00 -0.46946303248E+00  0.46946995789E+00  0.25500000000E-02 0.  1.
         31    1    1    2    0    0 -0.91290194993E-01 -0.42275423896E+00  0.58542516213E+02  0.59015863847E+02  0.74470750000E+01 0.  1.
        -31    1    1    2    0    0  0.91290194993E-01  0.42275423896E+00  0.59526365438E+02  0.59991950822E+02  0.74470750000E+01 0.  1.
<mgrwt>
<rscale>  0 0.14919757E+02</rscale>
<asrwt>0</asrwt>
<pdfrwt beam="2">  1        2 0.99704593E+00 0.14919757E+02</pdfrwt>
<pdfrwt beam="1">  1       -2 0.98403988E+00 0.14919757E+02</pdfrwt>
<totfact> 0.45654194E-13</totfact>
</mgrwt>
</event>
<event>
 4    1  0.4926183E-019  0.1489529E+02  0.7818608E-02  0.1871281E+00
          2   -1    0    0  501    0  0.00000000000E+00  0.00000000000E+00  0.11981168655E+03  0.11981168658E+03  0.25500000000E-02 0. -1.
         -2   -1    0    0    0  501 -0.00000000000E+00 -0.00000000000E+00 -0.46295143790E+00  0.46295846072E+00  0.25500000000E-02 0.  1.
         31    1    1    2    0    0  0.89206220781E-01  0.22345140619E-01  0.59627688071E+02  0.60091002386E+02  0.74470750000E+01 0.  1.
        -31    1    1    2    0    0 -0.89206220781E-01 -0.22345140619E-01  0.59721047040E+02  0.60183642651E+02  0.74470750000E+01 0. -1.
<mgrwt>
<rscale>  0 0.14895290E+02</rscale>
<asrwt>0</asrwt>
<pdfrwt beam="1">  1        2 0.99451492E+00 0.14895290E+02</pdfrwt>
<pdfrwt beam="2">  1       -2 0.98331126E+00 0.14895290E+02</pdfrwt>
<totfact> 0.77840478E-13</totfact>
</mgrwt>
</event>
<event>
 4    1 -0.4926183E-019  0.1498805E+02  0.7818608E-02  0.1868433E+00
          2   -1    0    0  501    0  0.00000000000E+00  0.00000000000E+00  0.11964620654E+03  0.11964620657E+03  0.25500000000E-02 0.  1.
         -2   -1    0    0    0  501 -0.00000000000E+00 -0.00000000000E+00 -0.46938411616E+00  0.46939104273E+00  0.25500000000E-02 0. -1.
         31    1    1    2    0    0 -0.45375529606E+00  0.56599903087E+00  0.62943546549E+02  0.63386711754E+02  0.74470750000E+01 0. -1.
        -31    1    1    2    0    0  0.45375529606E+00 -0.56599903087E+00  0.56233275874E+02  0.56728885855E+02  0.74470750000E+01 0.  1.
<mgrwt>
<rscale>  0 0.14988055E+02</rscale>
<asrwt>0</asrwt>
<pdfrwt beam="1">  1        2 0.99319980E+00 0.14988055E+02</pdfrwt>
<pdfrwt beam="2">  1       -2 0.99691540E+00 0.14988055E+02</pdfrwt>
<totfact>-0.11322760E-13</totfact>
</mgrwt>
</event>
<event>
 4    1  0.4926183E-019  0.1495231E+02  0.7818608E-02  0.1869527E+00
          2   -1    0    0  501    0  0.00000000000E+00  0.00000000000E+00  0.12030011049E+03  0.12030011052E+03  0.25500000000E-02 0.  1.
         -2   -1    0    0    0  501 -0.00000000000E+00 -0.00000000000E+00 -0.46460839442E+00  0.46461539219E+00  0.25500000000E-02 0. -1.
         31    1    1    2    0    0 -0.19377725919E+00  0.16929549354E+00  0.55020011484E+02  0.55522309033E+02  0.74470750000E+01 0. -1.
        -31    1    1    2    0    0  0.19377725919E+00 -0.16929549354E+00  0.64815490616E+02  0.65242416880E+02  0.74470750000E+01 0.  1.
<mgrwt>
<rscale>  0 0.14952306E+02</rscale>
<asrwt>0</asrwt>
<pdfrwt beam="1">  1        2 0.99856725E+00 0.14952306E+02</pdfrwt>
<pdfrwt beam="2">  1       -2 0.98683247E+00 0.14952306E+02</pdfrwt>
<totfact> 0.11026577E-13</totfact>
</mgrwt>
</event>
<event>
 4    1  0.4926183E-019  0.1490367E+02  0.7818608E-02  0.1871022E+00
          2   -1    0    0  501    0  0.00000000000E+00  0.00000000000E+00  0.12021634503E+03  0.12021634505E+03  0.25500000000E-02 0.  1.
         -2   -1    0    0    0  501 -0.00000000000E+00 -0.00000000000E+00 -0.46191223526E+00  0.46191927388E+00  0.25500000000E-02 0. -1.
         31    1    1    2    0    0 -0.23255122763E+00 -0.83431917561E-01  0.59073183769E+02  0.59541254670E+02  0.74470750000E+01 0. -1.
        -31    1    1    2    0    0  0.23255122763E+00  0.83431917561E-01  0.60681249023E+02  0.61137009659E+02  0.74470750000E+01 0. -1.
<mgrwt>
<rscale>  0 0.14903668E+02</rscale>
<asrwt>0</asrwt>
<pdfrwt beam="1">  1        2 0.99785232E+00 0.14903668E+02</pdfrwt>
<pdfrwt beam="2">  1       -2 0.98112518E+00 0.14903668E+02</pdfrwt>
<totfact> 0.67324548E-13</totfact>
</mgrwt>
</event>
<event>
 4    1  0.4926183E-019  0.1491582E+02  0.7818608E-02  0.1870648E+00
          2   -1    0    0  501    0  0.00000000000E+00  0.00000000000E+00  0.12013066719E+03  0.12013066721E+03  0.25500000000E-02 0.  1.
         -2   -1    0    0    0  501 -0.00000000000E+00 -0.00000000000E+00 -0.46299562765E+00  0.46300264980E+00  0.25500000000E-02 0. -1.
         31    1    1    2    0    0  0.26580920106E+00  0.28668314451E+00  0.60584948639E+02  0.61042180248E+02  0.74470750000E+01 0. -1.
        -31    1    1    2    0    0 -0.26580920106E+00 -0.28668314451E+00  0.59082722921E+02  0.59551489616E+02  0.74470750000E+01 0. -1.
<mgrwt>
<rscale>  0 0.14915817E+02</rscale>
<asrwt>0</asrwt>
<pdfrwt beam="1">  1        2 0.99715284E+00 0.14915817E+02</pdfrwt>
<pdfrwt beam="2">  1       -2 0.98341481E+00 0.14915817E+02</pdfrwt>
<totfact> 0.51679100E-13</totfact>
</mgrwt>
</event>
<event>
 4    1 -0.4926183E-019  0.1491948E+02  0.7818608E-02  0.1870535E+00
         -2   -1    0    0    0  501 -0.00000000000E+00  0.00000000000E+00  0.11977445863E+03  0.11977445865E+03  0.25500000000E-02 0. -1.
          2   -1    0    0  501    0  0.00000000000E+00 -0.00000000000E+00 -0.46460096437E+00  0.46460796225E+00  0.25500000000E-02 0.  1.
         31    1    1    2    0    0 -0.39789028437E+00  0.95917251810E-01  0.60831363869E+02  0.61286876842E+02  0.74470750000E+01 0.  1.
        -31    1    1    2    0    0  0.39789028437E+00 -0.95917251810E-01  0.58478493792E+02  0.58952189773E+02  0.74470750000E+01 0. -1.
<mgrwt>
<rscale>  0 0.14919484E+02</rscale>
<asrwt>0</asrwt>
<pdfrwt beam="2">  1        2 0.98680009E+00 0.14919484E+02</pdfrwt>
<pdfrwt beam="1">  1       -2 0.99422073E+00 0.14919484E+02</pdfrwt>
<totfact>-0.26055431E-13</totfact>
</mgrwt>
</event>
<event>
 4    1  0.4926183E-019  0.1493808E+02  0.7818608E-02  0.1869964E+00
         -2   -1    0    0    0  501 -0.00000000000E+00  0.00000000000E+00  0.11879116713E+03  0.11879116716E+03  0.25500000000E-02 0. -1.
          2   -1    0    0  501    0  0.00000000000E+00 -0.00000000000E+00 -0.46961498486E+00  0.46962190803E+00  0.25500000000E-02 0.  1.
         31    1    1    2    0    0  0.12106370179E+00  0.18814807103E+00  0.63366776288E+02  0.63803270444E+02  0.74470750000E+01 0. -1.
        -31    1    1    2    0    0 -0.12106370179E+00 -0.18814807103E+00  0.54954775856E+02  0.55457518621E+02  0.74470750000E+01 0.  1.
<mgrwt>
<rscale>  0 0.14938076E+02</rscale>
<asrwt>0</asrwt>
<pdfrwt beam="2">  1        2 0.99737574E+00 0.14938076E+02</pdfrwt>
<pdfrwt beam="1">  1       -2 0.98613165E+00 0.14938076E+02</pdfrwt>
<totfact> 0.22948184E-13</totfact>
</mgrwt>
</event>
<event>
 4    1 -0.4926183E-019  0.1489796E+02  0.7818608E-02  0.1871198E+00
          2   -1    0    0  501    0  0.00000000000E+00  0.00000000000E+00  0.11840095126E+03  0.11840095129E+03  0.25500000000E-02 0. -1.
         -2   -1    0    0    0  501 -0.00000000000E+00 -0.00000000000E+00 -0.46863538540E+00  0.46864232305E+00  0.25500000000E-02 0.  1.
         31    1    1    2    0    0 -0.52010761117E-02  0.74716744337E-02  0.60307956424E+02  0.60766015312E+02  0.74470750000E+01 0. -1.
        -31    1    1    2    0    0  0.52010761117E-02 -0.74716744337E-02  0.57624359455E+02  0.58103578302E+02  0.74470750000E+01 0.  1.
<mgrwt>
<rscale>  0 0.14897958E+02</rscale>
<asrwt>0</asrwt>
<pdfrwt beam="1">  1        2 0.98289697E+00 0.14897958E+02</pdfrwt>
<pdfrwt beam="2">  1       -2 0.99529057E+00 0.14897958E+02</pdfrwt>
<totfact>-0.48798420E-13</totfact>
</mgrwt>
</event>
<event>
 4    1  0.4926183E-019  0.1490409E+02  0.7818608E-02  0.1871009E+00
          2   -1    0    0  501    0  0.00000000000E+00  0.00000000000E+00  0.11952991799E+03  0.11952991802E+03  0.25500000000E-02 0. -1.
         -2   -1    0    0    0  501 -0.00000000000E+00 -0.00000000000E+00 -0.46459146124E+00  0.46459845927E+00  0.25500000000E-02 0.  1.
         31    1    1    2    0    0 -0.22000549329E+00 -0.14857731771E+00  0.60015532874E+02  0.60476388697E+02  0.74470750000E+01 0. -1.
        -31    1    1    2    0    0  0.22000549329E+00  0.14857731771E+00  0.59049793654E+02  0.59518127778E+02  0.74470750000E+01 0.  1.
<mgrwt>
<rscale>  0 0.14904093E+02</rscale>
<asrwt>0</asrwt>
<pdfrwt beam="1">  1        2 0.99219862E+00 0.14904093E+02</pdfrwt>
<pdfrwt beam="2">  1       -2 0.98677218E+00 0.14904093E+02</pdfrwt>
<totfact> 0.33712145E-13</totfact>
</mgrwt>
</event>
<event>
 4    1 -0.4926183E-019  0.1491550E+02  0.7818608E-02  0.1870658E+00
         -2   -1    0    0    0  501 -0.00000000000E+00  0.00000000000E+00  0.11989524440E+03  0.11989524443E+03  0.25500000000E-02 0.  1.
          2   -1    0    0  501    0  0.00000000000E+00 -0.00000000000E+00 -0.46388503564E+00  0.46389204433E+00  0.25500000000E-02 0. -1.
         31    1    1    2    0    0  0.53813429243E-01  0.38244453469E-01  0.56541331543E+02  0.57029689261E+02  0.74470750000E+01 0. -1.
        -31    1    1    2    0    0 -0.53813429243E-01 -0.38244453469E-01  0.62890027823E+02  0.63329447212E+02  0.74470750000E+01 0.  1.
<mgrwt>
<rscale>  0 0.14915500E+02</rscale>
<asrwt>0</asrwt>
<pdfrwt beam="2">  1        2 0.98528920E+00 0.14915500E+02</pdfrwt>
<pdfrwt beam="1">  1       -2 0.99521355E+00 0.14915500E+02</pdfrwt>
<totfact>-0.32920642E-13</totfact>
</mgrwt>
</event>
<event>
 4    1  0.4926183E-019  0.1492332E+02  0.7818608E-02  0.1870417E+00
         -2   -1    0    0    0  501 -0.00000000000E+00  0.00000000000E+00  0.11830218878E+03  0.11830218881E+03  0.25500000000E-02 0. -1.
          2   -1    0    0  501    0  0.00000000000E+00 -0.00000000000E+00 -0.47062496652E+00  0.47063187484E+00  0.25500000000E-02 0.  1.
         31    1    1    2    0    0  0.82235322010E-01  0.45707811404E+00  0.59250283747E+02  0.59718261305E+02  0.74470750000E+01 0. -1.
        -31    1    1    2    0    0 -0.82235322010E-01 -0.45707811404E+00  0.58581280065E+02  0.59054559376E+02  0.74470750000E+01 0. -1.
<mgrwt>
<rscale>  0 0.14923321E+02</rscale>
<asrwt>0</asrwt>
<pdfrwt beam="2">  1        2 0.99949596E+00 0.14923321E+02</pdfrwt>
<pdfrwt beam="1">  1       -2 0.98209678E+00 0.14923321E+02</pdfrwt>
<totfact> 0.15726236E-13</totfact>
</mgrwt>
</event>
<event>
 4    1 -0.4926183E-019  0.1498025E+02  0.7818608E-02  0.1868672E+00
         -2   -1    0    0    0  501 -0.00000000000E+00  0.00000000000E+00  0.11972454491E+03  0.11972454494E+03  0.25500000000E-02 0. -1.
          2   -1    0    0  501    0  0.00000000000E+00 -0.00000000000E+00 -0.46858832069E+00  0.46859525903E+00  0.25500000000E-02 0.  1.
         31    1    1    2    0    0 -0.57376994005E+00  0.50791945844E+00  0.57732307450E+02  0.58215680394E+02  0.74470750000E+01 0. -1.
        -31    1    1    2    0    0  0.57376994005E+00 -0.50791945844E+00  0.61523649137E+02  0.61977459800E+02  0.74470750000E+01 0. -1.
<mgrwt>
<rscale>  0 0.14980246E+02</rscale>
<asrwt>0</asrwt>
<pdfrwt beam="2">  1        2 0.99523438E+00 0.14980246E+02</pdfrwt>
<pdfrwt beam="1">  1       -2 0.99384098E+00 0.14980246E+02</pdfrwt>
<totfact>-0.11248999E-13</totfact>
</mgrwt>
</event>
<event>
 4    1 -0.4926183E-019  0.1497877E+02  0.7818608E-02  0.1868717E+00
          2   -1    0    0  501    0  0.00000000000E+00  0.00000000000E+00  0.11967702491E+03  0.11967702494E+03  0.25500000000E-02 0.  1.
         -2   -1    0    0    0  501 -0.00000000000E+00 -0.00000000000E+00 -0.46868184074E+00  0.46868877770E+00  0.25500000000E-02 0. -1.
         31    1    1    2    0    0 -0.55545610008E+00  0.42388436928E+00  0.56563232443E+02  0.57055643015E+02  0.74470750000E+01 0. -1.
        -31    1    1    2    0    0  0.55545610008E+00 -0.42388436928E+00  0.62645110625E+02  0.63090070698E+02  0.74470750000E+01 0.  1.
<mgrwt>
<rscale>  0 0.14978767E+02</rscale>
<asrwt>0</asrwt>
<pdfrwt beam="1">  1        2 0.99344882E+00 0.14978767E+02</pdfrwt>
<pdfrwt beam="2">  1       -2 0.99543069E+00 0.14978767E+02</pdfrwt>
<totfact>-0.13401543E-13</totfact>
</mgrwt>
</event>
<event>
 4    1 -0.4926183E-019  0.1497280E+02  0.7818608E-02  0.1868900E+00
         -2   -1    0    0    0  501 -0.00000000000E+00  0.00000000000E+00  0.11972257947E+03  0.11972257950E+03  0.25500000000E-02 0.  1.
          2   -1    0    0  501    0  0.00000000000E+00 -0.00000000000E+00 -0.46813014437E+00  0.46813708950E+00  0.25500000000E-02 0. -1.
         31    1    1    2    0    0 -0.27475279842E+00  0.43331243605E-01  0.53895310414E+02  0.54408094778E+02  0.74470750000E+01 0. -1.
        -31    1    1    2    0    0  0.27475279842E+00 -0.43331243605E-01  0.65359138916E+02  0.65782621813E+02  0.74470750000E+01 0.  1.
<mgrwt>
<rscale>  0 0.14972798E+02</rscale>
<asrwt>0</asrwt>
<pdfrwt beam="2">  1        2 0.99426500E+00 0.14972798E+02</pdfrwt>
<pdfrwt beam="1">  1       -2 0.99382094E+00 0.14972798E+02</pdfrwt>
<totfact>-0.12334882E-13</totfact>
</mgrwt>
</event>
<event>
 4    1  0.4926183E-019  0.1490893E+02  0.7818608E-02  0.1870860E+00
         -2   -1    0    0    0  501 -0.00000000000E+00  0.00000000000E+00  0.11844700747E+03  0.11844700750E+03  0.25500000000E-02 0. -1.
          2   -1    0    0  501    0  0.00000000000E+00 -0.00000000000E+00 -0.46914328628E+00  0.46915021641E+00  0.25500000000E-02 0.  1.
         31    1    1    2    0    0 -0.16169485929E+00  0.11441577091E-01  0.56679560924E+02  0.57166929502E+02  0.74470750000E+01 0.  1.
        -31    1    1    2    0    0  0.16169485929E+00 -0.11441577091E-01  0.61298303260E+02  0.61749228212E+02  0.74470750000E+01 0. -1.
<mgrwt>
<rscale>  0 0.14908928E+02</rscale>
<asrwt>0</asrwt>
<pdfrwt beam="2">  1        2 0.99636651E+00 0.14908928E+02</pdfrwt>
<pdfrwt beam="1">  1       -2 0.98328199E+00 0.14908928E+02</pdfrwt>
<totfact> 0.62463047E-13</totfact>
</mgrwt>
</event>
<event>
 4    1 -0.4926183E-019  0.1493224E+02  0.7818608E-02  0.1870143E+00
         -2   -1    0    0    0  501 -0.00000000000E+00  0.00000000000E+00  0.12035326166E+03  0.12035326169E+03  0.25500000000E-02 0.  1.
          2   -1    0    0  501    0  0.00000000000E+00 -0.00000000000E+00 -0.46315724950E+00  0.46316426920E+00  0.25500000000E-02 0. -1.
         31    1    1    2    0    0 -0.46502998292E+00 -0.13845250659E+00  0.58162036479E+02  0.58638867958E+02  0.74470750000E+01 0. -1.
        -31    1    1    2    0    0  0.46502998292E+00  0.13845250659E+00  0.61728067930E+02  0.62177557996E+02  0.74470750000E+01 0. -1.
<mgrwt>
<rscale>  0 0.14932235E+02</rscale>
<asrwt>0</asrwt>
<pdfrwt beam="2">  1        2 0.98376376E+00 0.14932235E+02</pdfrwt>
<pdfrwt beam="1">  1       -2 0.99899474E+00 0.14932235E+02</pdfrwt>
<totfact>-0.13907136E-13</totfact>
</mgrwt>
</event>
<event>
 4    1 -0.4926183E-019  0.1492033E+02  0.7818608E-02  0.1870510E+00
          2   -1    0    0  501    0  0.00000000000E+00  0.00000000000E+00  0.11830152129E+03  0.11830152132E+03  0.25500000000E-02 0. -1.
         -2   -1    0    0    0  501 -0.00000000000E+00 -0.00000000000E+00 -0.47043877204E+00  0.47044568309E+00  0.25500000000E-02 0.  1.
         31    1    1    2    0    0  0.19555189421E+00  0.23465318119E+00  0.56375611125E+02  0.56866174115E+02  0.74470750000E+01 0.  1.
        -31    1    1    2    0    0 -0.19555189421E+00 -0.23465318119E+00  0.61455471397E+02  0.61905792890E+02  0.74470750000E+01 0. -1.
<mgrwt>
<rscale>  0 0.14920326E+02</rscale>
<asrwt>0</asrwt>
<pdfrwt beam="1">  1        2 0.98208972E+00 0.14920326E+02</pdfrwt>
<pdfrwt beam="2">  1       -2 0.99910207E+00 0.14920326E+02</pdfrwt>
<totfact>-0.16623624E-13</totfact>
</mgrwt>
</event>
<event>
 4    1 -0.4926183E-019  0.1491630E+02  0.7818608E-02  0.1870634E+00
         -2   -1    0    0    0  501 -0.00000000000E+00  0.00000000000E+00  0.12028105384E+03  0.12028105387E+03  0.25500000000E-02 0. -1.
          2   -1    0    0  501    0  0.00000000000E+00 -0.00000000000E+00 -0.46244641648E+00  0.46245344697E+00  0.25500000000E-02 0.  1.
         31    1    1    2    0    0  0.39486662398E+00 -0.10345447801E-01  0.60677905837E+02  0.61134468261E+02  0.74470750000E+01 0.  1.
        -31    1    1    2    0    0 -0.39486662398E+00  0.10345447801E-01  0.59140701589E+02  0.59609039056E+02  0.74470750000E+01 0. -1.
<mgrwt>
<rscale>  0 0.14916296E+02</rscale>
<asrwt>0</asrwt>
<pdfrwt beam="2">  1        2 0.98225747E+00 0.14916296E+02</pdfrwt>
<pdfrwt beam="1">  1       -2 0.99839180E+00 0.14916296E+02</pdfrwt>
<totfact>-0.27223858E-13</totfact>
</mgrwt>
</event>
<event>
 4    1 -0.4926183E-019  0.1492391E+02  0.7818608E-02  0.1870399E+00
          2   -1    0    0  501    0  0.00000000000E+00  0.00000000000E+00  0.11916822093E+03  0.11916822096E+03  0.25500000000E-02 0. -1.
         -2   -1    0    0    0  501 -0.00000000000E+00 -0.00000000000E+00 -0.46724171384E+00  0.46724867218E+00  0.25500000000E-02 0.  1.
         31    1    1    2    0    0 -0.38728784701E+00  0.23549355975E+00  0.60377288221E+02  0.60836512951E+02  0.74470750000E+01 0. -1.
        -31    1    1    2    0    0  0.38728784701E+00 -0.23549355975E+00  0.58323691000E+02  0.58798956683E+02  0.74470750000E+01 0.  1.
<mgrwt>
<rscale>  0 0.14923911E+02</rscale>
<asrwt>0</asrwt>
<pdfrwt beam="1">  1        2 0.98922977E+00 0.14923911E+02</pdfrwt>
<pdfrwt beam="2">  1       -2 0.99236748E+00 0.14923911E+02</pdfrwt>
<totfact>-0.14453158E-13</totfact>
</mgrwt>
</event>
<event>
 4    1 -0.4926183E-019  0.1499837E+02  0.7818608E-02  0.1868118E+00
          2   -1    0    0  501    0  0.00000000000E+00  0.00000000000E+00  0.11986838200E+03  0.11986838203E+03  0.25500000000E-02 0. -1.
         -2   -1    0    0    0  501 -0.00000000000E+00 -0.00000000000E+00 -0.46915901598E+00  0.46916594588E+00  0.25500000000E-02 0.  1.
         31    1    1    2    0    0  0.38012229711E+00  0.28516695185E+00  0.65666175259E+02  0.66088813822E+02  0.74470750000E+01 0. -1.
        -31    1    1    2    0    0 -0.38012229711E+00 -0.28516695185E+00  0.53733047726E+02  0.54248734152E+02  0.74470750000E+01 0.  1.
<mgrwt>
<rscale>  0 0.14998367E+02</rscale>
<asrwt>0</asrwt>
<pdfrwt beam="1">  1        2 0.99503504E+00 0.14998367E+02</pdfrwt>
<pdfrwt beam="2">  1       -2 0.99644640E+00 0.14998367E+02</pdfrwt>
<totfact>-0.10533139E-13</totfact>
</mgrwt>
</event>
<event>
 4    1  0.4926183E-019  0.1491331E+02  0.7818608E-02  0.1870726E+00
          2   -1    0    0  501    0  0.00000000000E+00  0.00000000000E+00  0.12020679947E+03  0.12020679950E+03  0.25500000000E-02 0. -1.
         -2   -1    0    0    0  501 -0.00000000000E+00 -0.00000000000E+00 -0.46254675896E+00  0.46255378793E+00  0.25500000000E-02 0.  1.
         31    1    1    2    0    0 -0.26590070027E+00 -0.23453378507E+00  0.58815405811E+02  0.59286057349E+02  0.74470750000E+01 0. -1.
        -31    1    1    2    0    0  0.26590070027E+00  0.23453378507E+00  0.60928846900E+02  0.61383295935E+02  0.74470750000E+01 0. -1.
<mgrwt>
<rscale>  0 0.14913308E+02</rscale>
<asrwt>0</asrwt>
<pdfrwt beam="1">  1        2 0.99777864E+00 0.14913308E+02</pdfrwt>
<pdfrwt beam="2">  1       -2 0.98246746E+00 0.14913308E+02</pdfrwt>
<totfact> 0.53123991E-13</totfact>
</mgrwt>
</event>
<event>
 4    1 -0.4926183E-019  0.1496904E+02  0.7818608E-02  0.1869015E+00
         -2   -1    0    0    0  501 -0.00000000000E+00  0.00000000000E+00  0.12011635060E+03  0.12011635063E+03  0.25500000000E-02 0.  1.
          2   -1    0    0  501    0  0.00000000000E+00 -0.00000000000E+00 -0.46636115530E+00  0.46636812678E+00  0.25500000000E-02 0. -1.
         31    1    1    2    0    0 -0.57460658613E+00  0.39466368877E+00  0.62003904513E+02  0.62453414903E+02  0.74470750000E+01 0.  1.
        -31    1    1    2    0    0  0.57460658613E+00 -0.39466368877E+00  0.57646084933E+02  0.58129303852E+02  0.74470750000E+01 0. -1.
<mgrwt>
<rscale>  0 0.14969038E+02</rscale>
<asrwt>0</asrwt>
<pdfrwt beam="2">  1        2 0.99053507E+00 0.14969038E+02</pdfrwt>
<pdfrwt beam="1">  1       -2 0.99706229E+00 0.14969038E+02</pdfrwt>
<totfact>-0.13436290E-13</totfact>
</mgrwt>
</event>
<event>
 4    1 -0.4926183E-019  0.1493064E+02  0.7818608E-02  0.1870193E+00
          2   -1    0    0  501    0  0.00000000000E+00  0.00000000000E+00  0.11905871642E+03  0.11905871644E+03  0.25500000000E-02 0.  1.
         -2   -1    0    0    0  501 -0.00000000000E+00 -0.00000000000E+00 -0.46809310142E+00  0.46810004710E+00  0.25500000000E-02 0. -1.
         31    1    1    2    0    0  0.92711009575E-01  0.33710847074E+00  0.56196696637E+02  0.56689063111E+02  0.74470750000E+01 0. -1.
        -31    1    1    2    0    0 -0.92711009575E-01 -0.33710847074E+00  0.62393926678E+02  0.62837753380E+02  0.74470750000E+01 0.  1.
<mgrwt>
<rscale>  0 0.14930637E+02</rscale>
<asrwt>0</asrwt>
<pdfrwt beam="1">  1        2 0.98833135E+00 0.14930637E+02</pdfrwt>
<pdfrwt beam="2">  1       -2 0.99416504E+00 0.14930637E+02</pdfrwt>
<totfact>-0.21160340E-13</totfact>
</mgrwt>
</event>
<event>
 4    1 -0.4926183E-019  0.1493177E+02  0.7818608E-02  0.1870158E+00
          2   -1    0    0  501    0  0.00000000000E+00  0.00000000000E+00  0.11917745923E+03  0.11917745926E+03  0.25500000000E-02 0.  1.
         -2   -1    0    0    0  501 -0.00000000000E+00 -0.00000000000E+00 -0.46769798204E+00  0.46770493359E+00  0.25500000000E-02 0. -1.
         31    1    1    2    0    0 -0.22492712793E-01 -0.50694151201E+00  0.58138281554E+02  0.58615494571E+02  0.74470750000E+01 0. -1.
        -31    1    1    2    0    0  0.22492712793E-01  0.50694151201E+00  0.60571479694E+02  0.61029669620E+02  0.74470750000E+01 0.  1.
<mgrwt>
<rscale>  0 0.14931775E+02</rscale>
<asrwt>0</asrwt>
<pdfrwt beam="1">  1        2 0.98930993E+00 0.14931775E+02</pdfrwt>
<pdfrwt beam="2">  1       -2 0.99333303E+00 0.14931775E+02</pdfrwt>
<totfact>-0.17519202E-13</totfact>
</mgrwt>
</event>
<event>
 4    1 -0.4926183E-019  0.1494707E+02  0.7818608E-02  0.1869688E+00
         -2   -1    0    0    0  501 -0.00000000000E+00  0.00000000000E+00  0.11999902443E+03  0.11999902446E+03  0.25500000000E-02 0.  1.
          2   -1    0    0  501    0  0.00000000000E+00 -0.00000000000E+00 -0.46544800919E+00  0.46545499434E+00  0.25500000000E-02 0. -1.
         31    1    1    2    0    0  0.41665135337E+00 -0.43522450944E+00  0.58329938447E+02  0.58806493383E+02  0.74470750000E+01 0. -1.
        -31    1    1    2    0    0 -0.41665135337E+00  0.43522450944E+00  0.61203637973E+02  0.61657986067E+02  0.74470750000E+01 0.  1.
<mgrwt>
<rscale>  0 0.14947071E+02</rscale>
<asrwt>0</asrwt>
<pdfrwt beam="2">  1        2 0.98859936E+00 0.14947071E+02</pdfrwt>
<pdfrwt beam="1">  1       -2 0.99608460E+00 0.14947071E+02</pdfrwt>
<totfact>-0.19275928E-13</totfact>
</mgrwt>
</event>
<event>
 4    1 -0.4926183E-019  0.1490745E+02  0.7818608E-02  0.1870906E+00
         -2   -1    0    0    0  501 -0.00000000000E+00  0.00000000000E+00  0.12021797917E+03  0.12021797920E+03  0.25500000000E-02 0.  1.
          2   -1    0    0  501    0  0.00000000000E+00 -0.00000000000E+00 -0.46214036197E+00  0.46214739712E+00  0.25500000000E-02 0. -1.
         31    1    1    2    0    0 -0.99717925997E-01 -0.16136018813E+00  0.61911428541E+02  0.62357997810E+02  0.74470750000E+01 0.  1.
        -31    1    1    2    0    0  0.99717925997E-01  0.16136018813E+00  0.57844410271E+02  0.58322128788E+02  0.74470750000E+01 0. -1.
<mgrwt>
<rscale>  0 0.14907449E+02</rscale>
<asrwt>0</asrwt>
<pdfrwt beam="2">  1        2 0.98160792E+00 0.14907449E+02</pdfrwt>
<pdfrwt beam="1">  1       -2 0.99786772E+00 0.14907449E+02</pdfrwt>
<totfact>-0.38307725E-13</totfact>
</mgrwt>
</event>
<event>
 4    1 -0.4926183E-019  0.1496737E+02  0.7818608E-02  0.1869066E+00
          2   -1    0    0  501    0  0.00000000000E+00  0.00000000000E+00  0.11970831097E+03  0.11970831100E+03  0.25500000000E-02 0. -1.
         -2   -1    0    0    0  501 -0.00000000000E+00 -0.00000000000E+00 -0.46784632011E+00  0.46785326945E+00  0.25500000000E-02 0.  1.
         31    1    1    2    0    0 -0.67303574456E+00 -0.15644892754E+00  0.57509105968E+02  0.57993393147E+02  0.74470750000E+01 0.  1.
        -31    1    1    2    0    0  0.67303574456E+00  0.15644892754E+00  0.61731358686E+02  0.62182771124E+02  0.74470750000E+01 0. -1.
<mgrwt>
<rscale>  0 0.14967366E+02</rscale>
<asrwt>0</asrwt>
<pdfrwt beam="1">  1        2 0.99370061E+00 0.14967366E+02</pdfrwt>
<pdfrwt beam="2">  1       -2 0.99366408E+00 0.14967366E+02</pdfrwt>
<totfact>-0.12725214E-13</totfact>
</mgrwt>
</event>
<event>
 4    1 -0.4926183E-019  0.1494795E+02  0.7818608E-02  0.1869661E+00
         -2   -1    0    0    0  501 -0.00000000000E+00  0.00000000000E+00  0.11947621079E+03  0.11947621082E+03  0.25500000000E-02 0.  1.
          2   -1    0    0  501    0  0.00000000000E+00 -0.00000000000E+00 -0.46754007802E+00  0.46754703192E+00  0.25500000000E-02 0. -1.
         31    1    1    2    0    0 -0.64925285781E-01 -0.15325806437E+00  0.54599086585E+02  0.55104871702E+02  0.74470750000E+01 0. -1.
        -31    1    1    2    0    0  0.64925285781E-01  0.15325806437E+00  0.64409584125E+02  0.64838886145E+02  0.74470750000E+01 0.  1.
<mgrwt>
<rscale>  0 0.14947954E+02</rscale>
<asrwt>0</asrwt>
<pdfrwt beam="2">  1        2 0.99300868E+00 0.14947954E+02</pdfrwt>
<pdfrwt beam="1">  1       -2 0.99177891E+00 0.14947954E+02</pdfrwt>
<totfact>-0.84598704E-14</totfact>
</mgrwt>
</event>
<event>
 4    1 -0.4926183E-019  0.1493698E+02  0.7818608E-02  0.1869998E+00
         -2   -1    0    0    0  501 -0.00000000000E+00  0.00000000000E+00  0.11993416255E+03  0.11993416258E+03  0.25500000000E-02 0.  1.
          2   -1    0    0  501    0  0.00000000000E+00 -0.00000000000E+00 -0.46507096751E+00  0.46507795832E+00  0.25500000000E-02 0. -1.
         31    1    1    2    0    0  0.34618689118E+00 -0.18861041096E+00  0.62998535499E+02  0.63438393898E+02  0.74470750000E+01 0.  1.
        -31    1    1    2    0    0 -0.34618689118E+00  0.18861041096E+00  0.56470556087E+02  0.56960846641E+02  0.74470750000E+01 0. -1.
<mgrwt>
<rscale>  0 0.14936977E+02</rscale>
<asrwt>0</asrwt>
<pdfrwt beam="2">  1        2 0.98779958E+00 0.14936977E+02</pdfrwt>
<pdfrwt beam="1">  1       -2 0.99554516E+00 0.14936977E+02</pdfrwt>
<totfact>-0.22361620E-13</totfact>
</mgrwt>
</event>
<event>
 4    1 -0.4926183E-019  0.1497671E+02  0.7818608E-02  0.1868780E+00
          2   -1    0    0  501    0  0.00000000000E+00  0.00000000000E+00  0.11986394858E+03  0.11986394861E+03  0.25500000000E-02 0. -1.
         -2   -1    0    0    0  501 -0.00000000000E+00 -0.00000000000E+00 -0.46782233639E+00  0.46782928610E+00  0.25500000000E-02 0.  1.
         31    1    1    2    0    0 -0.27271123709E+00  0.65403972559E+00  0.62415452709E+02  0.62862149203E+02  0.74470750000E+01 0. -1.
        -31    1    1    2    0    0  0.27271123709E+00 -0.65403972559E+00  0.56980673533E+02  0.57469628690E+02  0.74470750000E+01 0.  1.
<mgrwt>
<rscale>  0 0.14976709E+02</rscale>
<asrwt>0</asrwt>
<pdfrwt beam="1">  1        2 0.99498733E+00 0.14976709E+02</pdfrwt>
<pdfrwt beam="2">  1       -2 0.99361836E+00 0.14976709E+02</pdfrwt>
<totfact>-0.11311965E-13</totfact>
</mgrwt>
</event>
<event>
 4    1 -0.4926183E-019  0.1494797E+02  0.7818608E-02  0.1869660E+00
         -2   -1    0    0    0  501 -0.00000000000E+00  0.00000000000E+00  0.11998313751E+03  0.11998313754E+03  0.25500000000E-02 0.  1.
          2   -1    0    0  501    0  0.00000000000E+00 -0.00000000000E+00 -0.46556560060E+00  0.46557258399E+00  0.25500000000E-02 0. -1.
         31    1    1    2    0    0  0.10773683940E+00  0.36661352810E+00  0.63831834638E+02  0.64265916721E+02  0.74470750000E+01 0.  1.
        -31    1    1    2    0    0 -0.10773683940E+00 -0.36661352810E+00  0.55685737275E+02  0.56182793404E+02  0.74470750000E+01 0. -1.
<mgrwt>
<rscale>  0 0.14947969E+02</rscale>
<asrwt>0</asrwt>
<pdfrwt beam="2">  1        2 0.98884765E+00 0.14947969E+02</pdfrwt>
<pdfrwt beam="1">  1       -2 0.99595421E+00 0.14947969E+02</pdfrwt>
<totfact>-0.18996353E-13</totfact>
</mgrwt>
</event>
<event>
 4    1  0.4926183E-019  0.1491857E+02  0.7818608E-02  0.1870564E+00
         -2   -1    0    0    0  501 -0.00000000000E+00  0.00000000000E+00  0.11843128170E+03  0.11843128173E+03  0.25500000000E-02 0. -1.
          2   -1    0    0  501    0  0.00000000000E+00 -0.00000000000E+00 -0.46981276215E+00  0.46981968241E+00  0.25500000000E-02 0.  1.
         31    1    1    2    0    0  0.36695726625E+00  0.37318346067E-01  0.57272022462E+02  0.57755342032E+02  0.74470750000E+01 0.  1.
        -31    1    1    2    0    0 -0.36695726625E+00 -0.37318346067E-01  0.60689446480E+02  0.61145759382E+02  0.74470750000E+01 0. -1.
<mgrwt>
<rscale>  0 0.14918571E+02</rscale>
<asrwt>0</asrwt>
<pdfrwt beam="2">  1        2 0.99778218E+00 0.14918571E+02</pdfrwt>
<pdfrwt beam="1">  1       -2 0.98315750E+00 0.14918571E+02</pdfrwt>
<totfact> 0.45725366E-13</totfact>
</mgrwt>
</event>
<event>
 4    1 -0.4926183E-019  0.1498356E+02  0.7818608E-02  0.1868571E+00
         -2   -1    0    0    0  501 -0.00000000000E+00  0.00000000000E+00  0.12000152909E+03  0.12000152912E+03  0.25500000000E-02 0. -1.
          2   -1    0    0  501    0  0.00000000000E+00 -0.00000000000E+00 -0.46771347609E+00  0.46772042741E+00  0.25500000000E-02 0.  1.
         31    1    1    2    0    0 -0.17621846361E+00 -0.79734187680E+00  0.59510180641E+02  0.59979891072E+02  0.74470750000E+01 0.  1.
        -31    1    1    2    0    0  0.17621846361E+00  0.79734187680E+00  0.60023634978E+02  0.60489358477E+02  0.74470750000E+01 0.  1.
<mgrwt>
<rscale>  0 0.14983558E+02</rscale>
<asrwt>0</asrwt>
<pdfrwt beam="2">  1        2 0.99339248E+00 0.14983558E+02</pdfrwt>
<pdfrwt beam="1">  1       -2 0.99612404E+00 0.14983558E+02</pdfrwt>
<totfact>-0.12667840E-13</totfact>
</mgrwt>
</event>
<event>
 4    1 -0.4926183E-019  0.1502475E+02  0.7818608E-02  0.1867314E+00
          2   -1    0    0  501    0  0.00000000000E+00  0.00000000000E+00  0.12008046935E+03  0.12008046937E+03  0.25500000000E-02 0.  1.
         -2   -1    0    0    0  501 -0.00000000000E+00 -0.00000000000E+00 -0.46997944872E+00  0.46998636652E+00  0.25500000000E-02 0. -1.
         31    1    1    2    0    0  0.83859962391E+00  0.52200285337E+00  0.59538047492E+02  0.60010113827E+02  0.74470750000E+01 0. -1.
        -31    1    1    2    0    0 -0.83859962391E+00 -0.52200285337E+00  0.60072442405E+02  0.60540341912E+02  0.74470750000E+01 0.  1.
<mgrwt>
<rscale>  0 0.15024749E+02</rscale>
<asrwt>0</asrwt>
<pdfrwt beam="1">  1        2 0.99679551E+00 0.15024749E+02</pdfrwt>
<pdfrwt beam="2">  1       -2 0.99818897E+00 0.15024749E+02</pdfrwt>
<totfact>-0.50441467E-14</totfact>
</mgrwt>
</event>
<event>
 4    1 -0.4926183E-019  0.1500013E+02  0.7818608E-02  0.1868064E+00
          2   -1    0    0  501    0  0.00000000000E+00  0.00000000000E+00  0.12008738408E+03  0.12008738410E+03  0.25500000000E-02 0.  1.
         -2   -1    0    0    0  501 -0.00000000000E+00 -0.00000000000E+00 -0.46841362003E+00  0.46842056096E+00  0.25500000000E-02 0. -1.
         31    1    1    2    0    0 -0.79433144404E-02 -0.87503302465E+00  0.61113220794E+02  0.61571506622E+02  0.74470750000E+01 0.  1.
        -31    1    1    2    0    0  0.79433144404E-02  0.87503302465E+00  0.58505749662E+02  0.58984298042E+02  0.74470750000E+01 0. -1.
<mgrwt>
<rscale>  0 0.15000132E+02</rscale>
<asrwt>0</asrwt>
<pdfrwt beam="1">  1        2 0.99683974E+00 0.15000132E+02</pdfrwt>
<pdfrwt beam="2">  1       -2 0.99487650E+00 0.15000132E+02</pdfrwt>
<totfact>-0.91328797E-14</totfact>
</mgrwt>
</event>
<event>
 4    1  0.4926183E-019  0.1491361E+02  0.7818608E-02  0.1870716E+00
          2   -1    0    0  501    0  0.00000000000E+00  0.00000000000E+00  0.12016027799E+03  0.12016027802E+03  0.25500000000E-02 0. -1.
         -2   -1    0    0    0  501 -0.00000000000E+00 -0.00000000000E+00 -0.46274431381E+00  0.46275133977E+00  0.25500000000E-02 0.  1.
         31    1    1    2    0    0  0.36589530620E-01  0.35078851789E+00  0.61009442430E+02  0.61463284838E+02  0.74470750000E+01 0. -1.
        -31    1    1    2    0    0 -0.36589530620E-01 -0.35078851789E+00  0.58688091245E+02  0.59159744518E+02  0.74470750000E+01 0. -1.
<mgrwt>
<rscale>  0 0.14913606E+02</rscale>
<asrwt>0</asrwt>
<pdfrwt beam="1">  1        2 0.99739560E+00 0.14913606E+02</pdfrwt>
<pdfrwt beam="2">  1       -2 0.98288400E+00 0.14913606E+02</pdfrwt>
<totfact> 0.54656154E-13</totfact>
</mgrwt>
</event>
<event>
 4    1 -0.4926183E-019  0.1491122E+02  0.7818608E-02  0.1870790E+00
         -2   -1    0    0    0  501 -0.00000000000E+00  0.00000000000E+00  0.12041848664E+03  0.12041848667E+03  0.25500000000E-02 0.  1.
          2   -1    0    0  501    0  0.00000000000E+00 -0.00000000000E+00 -0.46160413586E+00  0.46161117917E+00  0.25500000000E-02 0. -1.
         31    1    1    2    0    0  0.33786015191E-02 -0.90761226585E-01  0.57182835244E+02  0.57665794208E+02  0.74470750000E+01 0. -1.
        -31    1    1    2    0    0 -0.33786015191E-02  0.90761226585E-01  0.62774047262E+02  0.63214303640E+02  0.74470750000E+01 0.  1.
<mgrwt>
<rscale>  0 0.14911217E+02</rscale>
<asrwt>0</asrwt>
<pdfrwt beam="2">  1        2 0.98047957E+00 0.14911217E+02</pdfrwt>
<pdfrwt beam="1">  1       -2 0.99952122E+00 0.14911217E+02</pdfrwt>
<totfact>-0.11995172E-13</totfact>
</mgrwt>
</event>
<event>
 4    1  0.4926183E-019  0.1491794E+02  0.7818608E-02  0.1870583E+00
         -2   -1    0    0    0  501 -0.00000000000E+00  0.00000000000E+00  0.11890128058E+03  0.11890128060E+03  0.25500000000E-02 0. -1.
          2   -1    0    0  501    0  0.00000000000E+00 -0.00000000000E+00 -0.46791605285E+00  0.46792300116E+00  0.25500000000E-02 0.  1.
         31    1    1    2    0    0  0.12215549807E+00  0.15849843421E+00  0.62181257497E+02  0.62625935152E+02  0.74470750000E+01 0. -1.
        -31    1    1    2    0    0 -0.12215549807E+00 -0.15849843421E+00  0.56252107028E+02  0.56743268454E+02  0.74470750000E+01 0.  1.
<mgrwt>
<rscale>  0 0.14917940E+02</rscale>
<asrwt>0</asrwt>
<pdfrwt beam="2">  1        2 0.99378534E+00 0.14917940E+02</pdfrwt>
<pdfrwt beam="1">  1       -2 0.98702809E+00 0.14917940E+02</pdfrwt>
<totfact> 0.27050149E-13</totfact>
</mgrwt>
</event>
<event>
 4    1 -0.4926183E-019  0.1501088E+02  0.7818608E-02  0.1867737E+00
          2   -1    0    0  501    0  0.00000000000E+00  0.00000000000E+00  0.12011746043E+03  0.12011746045E+03  0.25500000000E-02 0.  1.
         -2   -1    0    0    0  501 -0.00000000000E+00 -0.00000000000E+00 -0.46896791933E+00  0.46897485205E+00  0.25500000000E-02 0. -1.
         31    1    1    2    0    0  0.21595615320E+00  0.17669223939E+00  0.52662139904E+02  0.53186819443E+02  0.74470750000E+01 0. -1.
        -31    1    1    2    0    0 -0.21595615320E+00 -0.17669223939E+00  0.66986352603E+02  0.67399615862E+02  0.74470750000E+01 0.  1.
<mgrwt>
<rscale>  0 0.15010883E+02</rscale>
<asrwt>0</asrwt>
<pdfrwt beam="1">  1        2 0.99709302E+00 0.15010883E+02</pdfrwt>
<pdfrwt beam="2">  1       -2 0.99605017E+00 0.15010883E+02</pdfrwt>
<totfact>-0.80448940E-14</totfact>
</mgrwt>
</event>
<event>
 4    1 -0.4926183E-019  0.1502195E+02  0.7818608E-02  0.1867399E+00
          2   -1    0    0  501    0  0.00000000000E+00  0.00000000000E+00  0.12031343942E+03  0.12031343945E+03  0.25500000000E-02 0. -1.
         -2   -1    0    0    0  501 -0.00000000000E+00 -0.00000000000E+00 -0.46889456998E+00  0.46890150379E+00  0.25500000000E-02 0.  1.
         31    1    1    2    0    0 -0.16604533578E+00  0.91745562590E+00  0.62287253020E+02  0.62737788539E+02  0.74470750000E+01 0. -1.
        -31    1    1    2    0    0  0.16604533578E+00 -0.91745562590E+00  0.57557291834E+02  0.58044552417E+02  0.74470750000E+01 0.  1.
<mgrwt>
<rscale>  0 0.15021949E+02</rscale>
<asrwt>0</asrwt>
<pdfrwt beam="1">  1        2 0.99871290E+00 0.15021949E+02</pdfrwt>
<pdfrwt beam="2">  1       -2 0.99590129E+00 0.15021949E+02</pdfrwt>
<totfact>-0.43245613E-14</totfact>
</mgrwt>
</event>
<event>
 4    1 -0.4926183E-019  0.1490302E+02  0.7818608E-02  0.1871042E+00
          2   -1    0    0  501    0  0.00000000000E+00  0.00000000000E+00  0.11805331297E+03  0.11805331300E+03  0.25500000000E-02 0.  1.
         -2   -1    0    0    0  501 -0.00000000000E+00 -0.00000000000E+00 -0.47033480344E+00  0.47034171601E+00  0.25500000000E-02 0. -1.
         31    1    1    2    0    0  0.55581398184E-01 -0.12719557791E+00  0.57071011825E+02  0.57555004863E+02  0.74470750000E+01 0. -1.
        -31    1    1    2    0    0 -0.55581398184E-01  0.12719557791E+00  0.60511966339E+02  0.60968649848E+02  0.74470750000E+01 0.  1.
<mgrwt>
<rscale>  0 0.14903019E+02</rscale>
<asrwt>0</asrwt>
<pdfrwt beam="1">  1        2 0.98003650E+00 0.14903019E+02</pdfrwt>
<pdfrwt beam="2">  1       -2 0.99887383E+00 0.14903019E+02</pdfrwt>
<totfact>-0.28820252E-13</totfact>
</mgrwt>
</event>
<event>
 4    1  0.4926183E-019  0.1490155E+02  0.7818608E-02  0.1871088E+00
         -2   -1    0    0    0  501 -0.00000000000E+00  0.00000000000E+00  0.11829771467E+03  0.11829771470E+03  0.25500000000E-02 0. -1.
          2   -1    0    0  501    0  0.00000000000E+00 -0.00000000000E+00 -0.46927029425E+00  0.46927722251E+00  0.25500000000E-02 0.  1.
         31    1    1    2    0    0  0.16246642341E+00  0.75115669629E-01  0.60124332733E+02  0.60584043694E+02  0.74470750000E+01 0. -1.
        -31    1    1    2    0    0 -0.16246642341E+00 -0.75115669629E-01  0.57704111641E+02  0.58182948224E+02  0.74470750000E+01 0.  1.
<mgrwt>
<rscale>  0 0.14901546E+02</rscale>
<asrwt>0</asrwt>
<pdfrwt beam="2">  1        2 0.99663022E+00 0.14901546E+02</pdfrwt>
<pdfrwt beam="1">  1       -2 0.98204859E+00 0.14901546E+02</pdfrwt>
<totfact> 0.77445130E-13</totfact>
</mgrwt>
</event>
<event>
 4    1 -0.4926183E-019  0.1496767E+02  0.7818608E-02  0.1869057E+00
          2   -1    0    0  501    0  0.00000000000E+00  0.00000000000E+00  0.11996819516E+03  0.11996819519E+03  0.25500000000E-02 0.  1.
         -2   -1    0    0    0  501 -0.00000000000E+00 -0.00000000000E+00 -0.46685170034E+00  0.46685866449E+00  0.25500000000E-02 0. -1.
         31    1    1    2    0    0  0.10606002673E-01  0.46171299467E+00  0.55089624627E+02  0.55592616048E+02  0.74470750000E+01 0. -1.
        -31    1    1    2    0    0 -0.10606002673E-01 -0.46171299467E+00  0.64411718831E+02  0.64842437802E+02  0.74470750000E+01 0.  1.
<mgrwt>
<rscale>  0 0.14967669E+02</rscale>
<asrwt>0</asrwt>
<pdfrwt beam="1">  1        2 0.99584129E+00 0.14967669E+02</pdfrwt>
<pdfrwt beam="2">  1       -2 0.99156818E+00 0.14967669E+02</pdfrwt>
<totfact>-0.58222072E-14</totfact>
</mgrwt>
</event>
<event>
 4    1  0.4926183E-019  0.1490382E+02  0.7818608E-02  0.1871018E+00
         -2   -1    0    0    0  501 -0.00000000000E+00  0.00000000000E+00  0.11869549406E+03  0.11869549408E+03  0.25500000000E-02 0.  1.
          2   -1    0    0  501    0  0.00000000000E+00 -0.00000000000E+00 -0.46784061103E+00  0.46784756046E+00  0.25500000000E-02 0. -1.
         31    1    1    2    0    0  0.12088530330E+00 -0.35254538939E-02  0.61030017048E+02  0.61482814938E+02  0.74470750000E+01 0.  1.
        -31    1    1    2    0    0 -0.12088530330E+00  0.35254538939E-02  0.57197636397E+02  0.57680526707E+02  0.74470750000E+01 0. -1.
<mgrwt>
<rscale>  0 0.14903823E+02</rscale>
<asrwt>0</asrwt>
<pdfrwt beam="2">  1        2 0.99361900E+00 0.14903823E+02</pdfrwt>
<pdfrwt beam="1">  1       -2 0.98532588E+00 0.14903823E+02</pdfrwt>
<totfact> 0.49760823E-13</totfact>
</mgrwt>
</event>
<event>
 4    1 -0.4926183E-019  0.1499440E+02  0.7818608E-02  0.1868239E+00
          2   -1    0    0  501    0  0.00000000000E+00  0.00000000000E+00  0.11964217793E+03  0.11964217796E+03  0.25500000000E-02 0.  1.
         -2   -1    0    0    0  501 -0.00000000000E+00 -0.00000000000E+00 -0.46979764121E+00  0.46980456169E+00  0.25500000000E-02 0. -1.
         31    1    1    2    0    0  0.49927169695E+00  0.60253690452E+00  0.56623608000E+02  0.57116584562E+02  0.74470750000E+01 0. -1.
        -31    1    1    2    0    0 -0.49927169695E+00 -0.60253690452E+00  0.62548772289E+02  0.62995397958E+02  0.74470750000E+01 0. -1.
<mgrwt>
<rscale>  0 0.14994403E+02</rscale>
<asrwt>0</asrwt>
<pdfrwt beam="1">  1        2 0.99316991E+00 0.14994403E+02</pdfrwt>
<pdfrwt beam="2">  1       -2 0.99779009E+00 0.14994403E+02</pdfrwt>
<totfact>-0.89509803E-14</totfact>
</mgrwt>
</event>
<event>
 4    1  0.4926183E-019  0.1494546E+02  0.7818608E-02  0.1869737E+00
         -2   -1    0    0    0  501 -0.00000000000E+00  0.00000000000E+00  0.11910608419E+03  0.11910608422E+03  0.25500000000E-02 0. -1.
          2   -1    0    0  501    0  0.00000000000E+00 -0.00000000000E+00 -0.46883625469E+00  0.46884318936E+00  0.25500000000E-02 0.  1.
         31    1    1    2    0    0  0.55912474781E-01  0.50969715393E-01  0.64231220732E+02  0.64661536998E+02  0.74470750000E+01 0. -1.
        -31    1    1    2    0    0 -0.55912474781E-01 -0.50969715393E-01  0.54406027208E+02  0.54913390414E+02  0.74470750000E+01 0.  1.
<mgrwt>
<rscale>  0 0.14945456E+02</rscale>
<asrwt>0</asrwt>
<pdfrwt beam="2">  1        2 0.99573874E+00 0.14945456E+02</pdfrwt>
<pdfrwt beam="1">  1       -2 0.98872916E+00 0.14945456E+02</pdfrwt>
<totfact> 0.84704403E-14</totfact>
</mgrwt>
</event>
<event>
 4    1 -0.4926183E-019  0.1492914E+02  0.7818608E-02  0.1870238E+00
         -2   -1    0    0    0  501 -0.00000000000E+00  0.00000000000E+00  0.12017977138E+03  0.12017977140E+03  0.25500000000E-02 0.  1.
          2   -1    0    0  501    0  0.00000000000E+00 -0.00000000000E+00 -0.46363384448E+00  0.46364085697E+00  0.25500000000E-02 0. -1.
         31    1    1    2    0    0 -0.43249539672E+00 -0.18167756456E+00  0.58224793185E+02  0.58700984033E+02  0.74470750000E+01 0.  1.
        -31    1    1    2    0    0  0.43249539672E+00  0.18167756456E+00  0.61491344348E+02  0.61942428228E+02  0.74470750000E+01 0.  1.
<mgrwt>
<rscale>  0 0.14929144E+02</rscale>
<asrwt>0</asrwt>
<pdfrwt beam="2">  1        2 0.98476671E+00 0.14929144E+02</pdfrwt>
<pdfrwt beam="1">  1       -2 0.99756414E+00 0.14929144E+02</pdfrwt>
<totfact>-0.24966493E-13</totfact>
</mgrwt>
</event>
<event>
 4    1 -0.4926183E-019  0.1497844E+02  0.7818608E-02  0.1868727E+00
          2   -1    0    0  501    0  0.00000000000E+00  0.00000000000E+00  0.11996725805E+03  0.11996725808E+03  0.25500000000E-02 0.  1.
         -2   -1    0    0    0  501 -0.00000000000E+00 -0.00000000000E+00 -0.46752783759E+00  0.46753479167E+00  0.25500000000E-02 0. -1.
         31    1    1    2    0    0 -0.43024098712E+00  0.15928893145E+00  0.54544915752E+02  0.55052858606E+02  0.74470750000E+01 0. -1.
        -31    1    1    2    0    0  0.43024098712E+00 -0.15928893145E+00  0.64954814465E+02  0.65381934267E+02  0.74470750000E+01 0.  1.
<mgrwt>
<rscale>  0 0.14978445E+02</rscale>
<asrwt>0</asrwt>
<pdfrwt beam="1">  1        2 0.99583913E+00 0.14978445E+02</pdfrwt>
<pdfrwt beam="2">  1       -2 0.99299863E+00 0.14978445E+02</pdfrwt>
<totfact>-0.93646646E-14</totfact>
</mgrwt>
</event>
<event>
 4    1 -0.4926183E-019  0.1496397E+02  0.7818608E-02  0.1869170E+00
         -2   -1    0    0    0  501 -0.00000000000E+00  0.00000000000E+00  0.12023632923E+03  0.12023632925E+03  0.25500000000E-02 0.  1.
          2   -1    0    0  501    0  0.00000000000E+00 -0.00000000000E+00 -0.46558058517E+00  0.46558756834E+00  0.25500000000E-02 0. -1.
         31    1    1    2    0    0 -0.56560563831E+00 -0.40599861887E+00  0.61425419319E+02  0.61879122563E+02  0.74470750000E+01 0. -1.
        -31    1    1    2    0    0  0.56560563831E+00  0.40599861887E+00  0.58345329322E+02  0.58822794259E+02  0.74470750000E+01 0.  1.
<mgrwt>
<rscale>  0 0.14963973E+02</rscale>
<asrwt>0</asrwt>
<pdfrwt beam="2">  1        2 0.98888740E+00 0.14963973E+02</pdfrwt>
<pdfrwt beam="1">  1       -2 0.99804790E+00 0.14963973E+02</pdfrwt>
<totfact>-0.11688773E-13</totfact>
</mgrwt>
</event>
<event>
 4    1  0.4926183E-019  0.1489806E+02  0.7818608E-02  0.1871195E+00
          2   -1    0    0  501    0  0.00000000000E+00  0.00000000000E+00  0.11935722220E+03  0.11935722223E+03  0.25500000000E-02 0.  1.
         -2   -1    0    0    0  501 -0.00000000000E+00 -0.00000000000E+00 -0.46488704247E+00  0.46489403605E+00  0.25500000000E-02 0. -1.
         31    1    1    2    0    0 -0.49396500607E-01 -0.44240202254E-01  0.58181544086E+02  0.58656247711E+02  0.74470750000E+01 0.  1.
        -31    1    1    2    0    0  0.49396500607E-01  0.44240202254E-01  0.60710791072E+02  0.61165868553E+02  0.74470750000E+01 0.  1.
<mgrwt>
<rscale>  0 0.14898060E+02</rscale>
<asrwt>0</asrwt>
<pdfrwt beam="1">  1        2 0.99077309E+00 0.14898060E+02</pdfrwt>
<pdfrwt beam="2">  1       -2 0.98739201E+00 0.14898060E+02</pdfrwt>
<totfact> 0.28887758E-13</totfact>
</mgrwt>
</event>
<event>
 4    1 -0.4926183E-019  0.1500397E+02  0.7818608E-02  0.1867947E+00
          2   -1    0    0  501    0  0.00000000000E+00  0.00000000000E+00  0.11991855102E+03  0.11991855105E+03  0.25500000000E-02 0.  1.
         -2   -1    0    0    0  501 -0.00000000000E+00 -0.00000000000E+00 -0.46931349300E+00  0.46932042062E+00  0.25500000000E-02 0. -1.
         31    1    1    2    0    0  0.59109377079E+00 -0.37468174483E+00  0.55107601448E+02  0.55612916140E+02  0.74470750000E+01 0. -1.
        -31    1    1    2    0    0 -0.59109377079E+00  0.37468174483E+00  0.64341636083E+02  0.64774955332E+02  0.74470750000E+01 0.  1.
<mgrwt>
<rscale>  0 0.15003974E+02</rscale>
<asrwt>0</asrwt>
<pdfrwt beam="1">  1        2 0.99545115E+00 0.15003974E+02</pdfrwt>
<pdfrwt beam="2">  1       -2 0.99677483E+00 0.15003974E+02</pdfrwt>
<totfact>-0.95131027E-14</totfact>
</mgrwt>
</event>
<event>
 4    1 -0.4926183E-019  0.1494744E+02  0.7818608E-02  0.1869677E+00
          2   -1    0    0  501    0  0.00000000000E+00  0.00000000000E+00  0.11935886293E+03  0.11935886295E+03  0.25500000000E-02 0.  1.
         -2   -1    0    0    0  501 -0.00000000000E+00 -0.00000000000E+00 -0.46796776726E+00  0.46797471481E+00  0.25500000000E-02 0. -1.
         31    1    1    2    0    0  0.30703840168E+00 -0.47134850152E+00  0.61729113487E+02  0.62179247502E+02  0.74470750000E+01 0.  1.
        -31    1    1    2    0    0 -0.30703840168E+00  0.47134850152E+00  0.57161781673E+02  0.57647590167E+02  0.74470750000E+01 0. -1.
<mgrwt>
<rscale>  0 0.14947444E+02</rscale>
<asrwt>0</asrwt>
<pdfrwt beam="1">  1        2 0.99081213E+00 0.14947444E+02</pdfrwt>
<pdfrwt beam="2">  1       -2 0.99390968E+00 0.14947444E+02</pdfrwt>
<totfact>-0.16144855E-13</totfact>
</mgrwt>
</event>
<event>
 4    1 -0.4926183E-019  0.1491016E+02  0.7818608E-02  0.1870823E+00
         -2   -1    0    0    0  501 -0.00000000000E+00  0.00000000000E+00  0.11994407835E+03  0.11994407838E+03  0.25500000000E-02 0.  1.
          2   -1    0    0  501    0  0.00000000000E+00 -0.00000000000E+00 -0.46336392180E+00  0.46337093837E+00  0.25500000000E-02 0. -1.
         31    1    1    2    0    0  0.88426735518E-01  0.33375939606E+00  0.59792642625E+02  0.60255607646E+02  0.74470750000E+01 0. -1.
        -31    1    1    2    0    0 -0.88426735518E-01 -0.33375939606E+00  0.59688071806E+02  0.60151841673E+02  0.74470750000E+01 0. -1.
<mgrwt>
<rscale>  0 0.14910155E+02</rscale>
<asrwt>0</asrwt>
<pdfrwt beam="2">  1        2 0.98418817E+00 0.14910155E+02</pdfrwt>
<pdfrwt beam="1">  1       -2 0.99561304E+00 0.14910155E+02</pdfrwt>
<totfact>-0.38540470E-13</totfact>
</mgrwt>
</event>
<event>
 4    1  0.4926183E-019  0.1493284E+02  0.7818608E-02  0.1870125E+00
          2   -1    0    0  501    0  0.00000000000E+00  0.00000000000E+00  0.11983020065E+03  0.11983020068E+03  0.25500000000E-02 0. -1.
         -2   -1    0    0    0  501 -0.00000000000E+00 -0.00000000000E+00 -0.46521667329E+00  0.46522366191E+00  0.25500000000E-02 0.  1.
         31    1    1    2    0    0  0.46007356714E+00 -0.46891449305E-01  0.61883304343E+02  0.62331502059E+02  0.74470750000E+01 0. -1.
        -31    1    1    2    0    0 -0.46007356714E+00  0.46891449305E-01  0.57481679636E+02  0.57963922283E+02  0.74470750000E+01 0.  1.
<mgrwt>
<rscale>  0 0.14932840E+02</rscale>
<asrwt>0</asrwt>
<pdfrwt beam="1">  1        2 0.99468673E+00 0.14932840E+02</pdfrwt>
<pdfrwt beam="2">  1       -2 0.98810454E+00 0.14932840E+02</pdfrwt>
<totfact> 0.14681082E-13</totfact>
</mgrwt>
</event>
<event>
 4    1 -0.4926183E-019  0.1492343E+02  0.7818608E-02  0.1870414E+00
          2   -1    0    0  501    0  0.00000000000E+00  0.00000000000E+00  0.11908703081E+03  0.11908703083E+03  0.25500000000E-02 0. -1.
         -2   -1    0    0    0  501 -0.00000000000E+00 -0.00000000000E+00 -0.46753004448E+00  0.46753699853E+00  0.25500000000E-02 0.  1.
         31    1    1    2    0    0  0.21982584065E+00  0.41039579197E+00  0.58998654301E+02  0.59468620999E+02  0.74470750000E+01 0. -1.
        -31    1    1    2    0    0 -0.21982584065E+00 -0.41039579197E+00  0.59620846461E+02  0.60085946833E+02  0.74470750000E+01 0.  1.
<mgrwt>
<rscale>  0 0.14923429E+02</rscale>
<asrwt>0</asrwt>
<pdfrwt beam="1">  1        2 0.98856081E+00 0.14923429E+02</pdfrwt>
<pdfrwt beam="2">  1       -2 0.99297481E+00 0.14923429E+02</pdfrwt>
<totfact>-0.17994576E-13</totfact>
</mgrwt>
</event>
<event>
 4    1  0.4926183E-019  0.1489877E+02  0.7818608E-02  0.1871173E+00
          2   -1    0    0  501    0  0.00000000000E+00  0.00000000000E+00  0.11942535270E+03  0.11942535273E+03  0.25500000000E-02 0.  1.
         -2   -1    0    0    0  501 -0.00000000000E+00 -0.00000000000E+00 -0.46466586296E+00  0.46467285987E+00  0.25500000000E-02 0. -1.
         31    1    1    2    0    0 -0.12987360736E-01 -0.19388541395E-01  0.60960527696E+02  0.61413723284E+02  0.74470750000E+01 0.  1.
        -31    1    1    2    0    0  0.12987360736E-01  0.19388541395E-01  0.58000159139E+02  0.58476302301E+02  0.74470750000E+01 0. -1.
<mgrwt>
<rscale>  0 0.14898766E+02</rscale>
<asrwt>0</asrwt>
<pdfrwt beam="1">  1        2 0.99133461E+00 0.14898766E+02</pdfrwt>
<pdfrwt beam="2">  1       -2 0.98692625E+00 0.14898766E+02</pdfrwt>
<totfact> 0.33809236E-13</totfact>
</mgrwt>
</event>
<event>
 4    1  0.4926183E-019  0.1493070E+02  0.7818608E-02  0.1870191E+00
          2   -1    0    0  501    0  0.00000000000E+00  0.00000000000E+00  0.11996280427E+03  0.11996280429E+03  0.25500000000E-02 0. -1.
         -2   -1    0    0    0  501 -0.00000000000E+00 -0.00000000000E+00 -0.46456910306E+00  0.46457610143E+00  0.25500000000E-02 0.  1.
         31    1    1    2    0    0 -0.38052694438E-01  0.10170222037E+00  0.63867537640E+02  0.64300335004E+02  0.74470750000E+01 0. -1.
        -31    1    1    2    0    0  0.38052694438E-01 -0.10170222037E+00  0.55630697524E+02  0.56127045392E+02  0.74470750000E+01 0.  1.
<mgrwt>
<rscale>  0 0.14930698E+02</rscale>
<asrwt>0</asrwt>
<pdfrwt beam="1">  1        2 0.99577784E+00 0.14930698E+02</pdfrwt>
<pdfrwt beam="2">  1       -2 0.98673867E+00 0.14930698E+02</pdfrwt>
<totfact> 0.24927869E-13</totfact>
</mgrwt>
</event>
<event>
 4    1 -0.4926183E-019  0.1495704E+02  0.7818608E-02  0.1869382E+00
          2   -1    0    0  501    0  0.00000000000E+00  0.00000000000E+00  0.11905877996E+03  0.11905877999E+03  0.25500000000E-02 0.  1.
         -2   -1    0    0    0  501 -0.00000000000E+00 -0.00000000000E+00 -0.46975006640E+00  0.46975698759E+00  0.25500000000E-02 0. -1.
         31    1    1    2    0    0 -0.30212555667E+00  0.52148906670E+00  0.56691111478E+02  0.57181328048E+02  0.74470750000E+01 0. -1.
        -31    1    1    2    0    0  0.30212555667E+00 -0.52148906670E+00  0.61897918416E+02  0.62347208927E+02  0.74470750000E+01 0.  1.
<mgrwt>
<rscale>  0 0.14957043E+02</rscale>
<asrwt>0</asrwt>
<pdfrwt beam="1">  1        2 0.98834557E+00 0.14957043E+02</pdfrwt>
<pdfrwt beam="2">  1       -2 0.99767033E+00 0.14957043E+02</pdfrwt>
<totfact>-0.14316339E-13</totfact>
</mgrwt>
</event>
<event>
 4    1 -0.4926183E-019  0.1494638E+02  0.7818608E-02  0.1869709E+00
          2   -1    0    0  501    0  0.00000000000E+00  0.00000000000E+00  0.11924064209E+03  0.11924064212E+03  0.25500000000E-02 0.  1.
         -2   -1    0    0    0  501 -0.00000000000E+00 -0.00000000000E+00 -0.46836505190E+00  0.46837199355E+00  0.25500000000E-02 0. -1.
         31    1    1    2    0    0  0.57073734098E+00 -0.25071625974E+00  0.59644531637E+02  0.60110878217E+02  0.74470750000E+01 0.  1.
        -31    1    1    2    0    0 -0.57073734098E+00  0.25071625974E+00  0.59127745400E+02  0.59598135892E+02  0.74470750000E+01 0. -1.
<mgrwt>
<rscale>  0 0.14946380E+02</rscale>
<asrwt>0</asrwt>
<pdfrwt beam="1">  1        2 0.98983788E+00 0.14946380E+02</pdfrwt>
<pdfrwt beam="2">  1       -2 0.99474630E+00 0.14946380E+02</pdfrwt>
<totfact>-0.18186213E-13</totfact>
</mgrwt>
</event>
<event>
 4    1 -0.4926183E-019  0.1492045E+02  0.7818608E-02  0.1870506E+00
         -2   -1    0    0    0  501 -0.00000000000E+00  0.00000000000E+00  0.11959195529E+03  0.11959195531E+03  0.25500000000E-02 0. -1.
          2   -1    0    0  501    0  0.00000000000E+00 -0.00000000000E+00 -0.46537040397E+00  0.46537739029E+00  0.25500000000E-02 0.  1.
         31    1    1    2    0    0  0.34390321576E+00  0.12886245445E+00  0.57573081245E+02  0.58053884324E+02  0.74470750000E+01 0. -1.
        -31    1    1    2    0    0 -0.34390321576E+00 -0.12886245445E+00  0.61553503639E+02  0.62003448382E+02  0.74470750000E+01 0. -1.
<mgrwt>
<rscale>  0 0.14920453E+02</rscale>
<asrwt>0</asrwt>
<pdfrwt beam="2">  1        2 0.98842217E+00 0.14920453E+02</pdfrwt>
<pdfrwt beam="1">  1       -2 0.99271803E+00 0.14920453E+02</pdfrwt>
<totfact>-0.17357439E-13</totfact>
</mgrwt>
</event>
<event>
 4    1  0.4926183E-019  0.1494479E+02  0.7818608E-02  0.1869758E+00
         -2   -1    0    0    0  501 -0.00000000000E+00  0.00000000000E+00  0.11868958507E+03  0.11868958509E+03  0.25500000000E-02 0.  1.
          2   -1    0    0  501    0  0.00000000000E+00 -0.00000000000E+00 -0.47043938130E+00  0.47044629234E+00  0.25500000000E-02 0. -1.
         31    1    1    2    0    0 -0.15511881731E+00  0.58874952678E+00  0.58439885047E+02  0.58915615741E+02  0.74470750000E+01 0.  1.
        -31    1    1    2    0    0  0.15511881731E+00 -0.58874952678E+00  0.59779260637E+02  0.60244415644E+02  0.74470750000E+01 0. -1.
<mgrwt>
<rscale>  0 0.14944788E+02</rscale>
<asrwt>0</asrwt>
<pdfrwt beam="2">  1        2 0.99911630E+00 0.14944788E+02</pdfrwt>
<pdfrwt beam="1">  1       -2 0.98529851E+00 0.14944788E+02</pdfrwt>
<totfact> 0.12213084E-13</totfact>
</mgrwt>
</event>
<event>
 4    1  0.4926183E-019  0.1491841E+02  0.7818608E-02  0.1870569E+00
          2   -1    0    0  501    0  0.00000000000E+00  0.00000000000E+00  0.11980274508E+03  0.11980274510E+03  0.25500000000E-02 0. -1.
         -2   -1    0    0    0  501 -0.00000000000E+00 -0.00000000000E+00 -0.46442411820E+00  0.46443111875E+00  0.25500000000E-02 0.  1.
         31    1    1    2    0    0  0.41019103085E+00 -0.93215829736E-01  0.60168392434E+02  0.60628964366E+02  0.74470750000E+01 0. -1.
        -31    1    1    2    0    0 -0.41019103085E+00  0.93215829736E-01  0.59169928524E+02  0.59638211857E+02  0.74470750000E+01 0. -1.
<mgrwt>
<rscale>  0 0.14918406E+02</rscale>
<asrwt>0</asrwt>
<pdfrwt beam="1">  1        2 0.99445316E+00 0.14918406E+02</pdfrwt>
<pdfrwt beam="2">  1       -2 0.98642683E+00 0.14918406E+02</pdfrwt>
<totfact> 0.32374588E-13</totfact>
</mgrwt>
</event>
<event>
 4    1 -0.4926183E-019  0.1499287E+02  0.7818608E-02  0.1868286E+00
          2   -1    0    0  501    0  0.00000000000E+00  0.00000000000E+00  0.11988519180E+03  0.11988519183E+03  0.25500000000E-02 0. -1.
         -2   -1    0    0    0  501 -0.00000000000E+00 -0.00000000000E+00 -0.46874942245E+00  0.46875635841E+00  0.25500000000E-02 0.  1.
         31    1    1    2    0    0 -0.27230677286E+00 -0.30222921644E+00  0.53636429928E+02  0.54152479490E+02  0.74470750000E+01 0.  1.
        -31    1    1    2    0    0  0.27230677286E+00  0.30222921644E+00  0.65780012448E+02  0.66201468694E+02  0.74470750000E+01 0. -1.
<mgrwt>
<rscale>  0 0.14992869E+02</rscale>
<asrwt>0</asrwt>
<pdfrwt beam="1">  1        2 0.99517065E+00 0.14992869E+02</pdfrwt>
<pdfrwt beam="2">  1       -2 0.99558041E+00 0.14992869E+02</pdfrwt>
<totfact>-0.11409278E-13</totfact>
</mgrwt>
</event>
<event>
 4    1 -0.4926183E-019  0.1493905E+02  0.7818608E-02  0.1869934E+00
          2   -1    0    0  501    0  0.00000000000E+00  0.00000000000E+00  0.11913398090E+03  0.11913398093E+03  0.25500000000E-02 0. -1.
         -2   -1    0    0    0  501 -0.00000000000E+00 -0.00000000000E+00 -0.46832475298E+00  0.46833169523E+00  0.25500000000E-02 0.  1.
         31    1    1    2    0    0  0.21911036798E+00  0.18711633772E+00  0.55314947136E+02  0.55814741105E+02  0.74470750000E+01 0.  1.
        -31    1    1    2    0    0 -0.21911036798E+00 -0.18711633772E+00  0.63350709010E+02  0.63787571516E+02  0.74470750000E+01 0. -1.
<mgrwt>
<rscale>  0 0.14939051E+02</rscale>
<asrwt>0</asrwt>
<pdfrwt beam="1">  1        2 0.98895560E+00 0.14939051E+02</pdfrwt>
<pdfrwt beam="2">  1       -2 0.99465757E+00 0.14939051E+02</pdfrwt>
<totfact>-0.19945908E-13</totfact>
</mgrwt>
</event>
<event>
 4    1 -0.4926183E-019  0.1492934E+02  0.7818608E-02  0.1870232E+00
         -2   -1    0    0    0  501 -0.00000000000E+00  0.00000000000E+00  0.12007110216E+03  0.12007110218E+03  0.25500000000E-02 0. -1.
          2   -1    0    0  501    0  0.00000000000E+00 -0.00000000000E+00 -0.46406589664E+00  0.46407290260E+00  0.25500000000E-02 0.  1.
         31    1    1    2    0    0 -0.43645555521E+00 -0.25794287954E+00  0.59211681123E+02  0.59680307769E+02  0.74470750000E+01 0.  1.
        -31    1    1    2    0    0  0.43645555521E+00  0.25794287954E+00  0.60395355136E+02  0.60854867316E+02  0.74470750000E+01 0. -1.
<mgrwt>
<rscale>  0 0.14929344E+02</rscale>
<asrwt>0</asrwt>
<pdfrwt beam="2">  1        2 0.98567742E+00 0.14929344E+02</pdfrwt>
<pdfrwt beam="1">  1       -2 0.99666916E+00 0.14929344E+02</pdfrwt>
<totfact>-0.26622210E-13</totfact>
</mgrwt>
</event>
<event>
 4    1 -0.4926183E-019  0.1497310E+02  0.7818608E-02  0.1868890E+00
          2   -1    0    0  501    0  0.00000000000E+00  0.00000000000E+00  0.11979919456E+03  0.11979919458E+03  0.25500000000E-02 0.  1.
         -2   -1    0    0    0  501 -0.00000000000E+00 -0.00000000000E+00 -0.46784977356E+00  0.46785672285E+00  0.25500000000E-02 0. -1.
         31    1    1    2    0    0 -0.46966942991E-02  0.41427606881E+00  0.64857938307E+02  0.65285394494E+02  0.74470750000E+01 0.  1.
        -31    1    1    2    0    0  0.46966942991E-02 -0.41427606881E+00  0.54473406476E+02  0.54981656813E+02  0.74470750000E+01 0. -1.
<mgrwt>
<rscale>  0 0.14973102E+02</rscale>
<asrwt>0</asrwt>
<pdfrwt beam="1">  1        2 0.99445213E+00 0.14973102E+02</pdfrwt>
<pdfrwt beam="2">  1       -2 0.99367432E+00 0.14973102E+02</pdfrwt>
<totfact>-0.11973592E-13</totfact>
</mgrwt>
</event>
<event>
 4    1 -0.4926183E-019  0.1499833E+02  0.7818608E-02  0.1868120E+00
         -2   -1    0    0    0  501 -0.00000000000E+00  0.00000000000E+00  0.12017026982E+03  0.12017026985E+03  0.25500000000E-02 0.  1.
          2   -1    0    0  501    0  0.00000000000E+00 -0.00000000000E+00 -0.46797801420E+00  0.46798496159E+00  0.25500000000E-02 0. -1.
         31    1    1    2    0    0  0.24411502074E+00 -0.92453547027E-01  0.53071712872E+02  0.53592292104E+02  0.74470750000E+01 0. -1.
        -31    1    1    2    0    0 -0.24411502074E+00  0.92453547027E-01  0.66630578935E+02  0.67045962705E+02  0.74470750000E+01 0.  1.
<mgrwt>
<rscale>  0 0.14998329E+02</rscale>
<asrwt>0</asrwt>
<pdfrwt beam="2">  1        2 0.99395757E+00 0.14998329E+02</pdfrwt>
<pdfrwt beam="1">  1       -2 0.99752150E+00 0.14998329E+02</pdfrwt>
<totfact>-0.91959968E-14</totfact>
</mgrwt>
</event>
<event>
 4    1  0.4926183E-019  0.1490863E+02  0.7818608E-02  0.1870870E+00
         -2   -1    0    0    0  501 -0.00000000000E+00  0.00000000000E+00  0.11843592294E+03  0.11843592297E+03  0.25500000000E-02 0. -1.
          2   -1    0    0  501    0  0.00000000000E+00 -0.00000000000E+00 -0.46916833578E+00  0.46917526555E+00  0.25500000000E-02 0.  1.
         31    1    1    2    0    0  0.30228648845E+00 -0.10157547187E+00  0.58356507477E+02  0.58830626256E+02  0.74470750000E+01 0.  1.
        -31    1    1    2    0    0 -0.30228648845E+00  0.10157547187E+00  0.59610247126E+02  0.60074471976E+02  0.74470750000E+01 0. -1.
<mgrwt>
<rscale>  0 0.14908628E+02</rscale>
<asrwt>0</asrwt>
<pdfrwt beam="2">  1        2 0.99641913E+00 0.14908628E+02</pdfrwt>
<pdfrwt beam="1">  1       -2 0.98319055E+00 0.14908628E+02</pdfrwt>
<totfact> 0.63193168E-13</totfact>
</mgrwt>
</event>
<event>
 4    1 -0.4926183E-019  0.1492307E+02  0.7818608E-02  0.1870425E+00
          2   -1    0    0  501    0  0.00000000000E+00  0.00000000000E+00  0.11919840383E+03  0.11919840385E+03  0.25500000000E-02 0.  1.
         -2   -1    0    0    0  501 -0.00000000000E+00 -0.00000000000E+00 -0.46707100376E+00  0.46707796464E+00  0.25500000000E-02 0. -1.
         31    1    1    2    0    0 -0.23118104144E+00 -0.36075711103E+00  0.60800561143E+02  0.61256434370E+02  0.74470750000E+01 0. -1.
        -31    1    1    2    0    0  0.23118104144E+00  0.36075711103E+00  0.57930771681E+02  0.58409047450E+02  0.74470750000E+01 0.  1.
<mgrwt>
<rscale>  0 0.14923074E+02</rscale>
<asrwt>0</asrwt>
<pdfrwt beam="1">  1        2 0.98947793E+00 0.14923074E+02</pdfrwt>
<pdfrwt beam="2">  1       -2 0.99200731E+00 0.14923074E+02</pdfrwt>
<totfact>-0.12463720E-13</totfact>
</mgrwt>
</event>
<event>
 4    1 -0.4926183E-019  0.1497091E+02  0.7818608E-02  0.1868957E+00
         -2   -1    0    0    0  501 -0.00000000000E+00  0.00000000000E+00  0.11989697953E+03  0.11989697956E+03  0.25500000000E-02 0. -1.
          2   -1    0    0  501    0  0.00000000000E+00 -0.00000000000E+00 -0.46733160596E+00  0.46733856296E+00  0.25500000000E-02 0.  1.
         31    1    1    2    0    0  0.69972164583E+00 -0.28879362370E+00  0.59806534601E+02  0.60273157534E+02  0.74470750000E+01 0. -1.
        -31    1    1    2    0    0 -0.69972164583E+00  0.28879362370E+00  0.59623113325E+02  0.60091160587E+02  0.74470750000E+01 0. -1.
<mgrwt>
<rscale>  0 0.14970914E+02</rscale>
<asrwt>0</asrwt>
<pdfrwt beam="2">  1        2 0.99258121E+00 0.14970914E+02</pdfrwt>
<pdfrwt beam="1">  1       -2 0.99525640E+00 0.14970914E+02</pdfrwt>
<totfact>-0.14394684E-13</totfact>
</mgrwt>
</event>
<event>
 4    1 -0.4926183E-019  0.1492583E+02  0.7818608E-02  0.1870340E+00
         -2   -1    0    0    0  501 -0.00000000000E+00  0.00000000000E+00  0.11969906000E+03  0.11969906002E+03  0.25500000000E-02 0.  1.
          2   -1    0    0  501    0  0.00000000000E+00 -0.00000000000E+00 -0.46528912230E+00  0.46529610984E+00  0.25500000000E-02 0. -1.
         31    1    1    2    0    0  0.24692877851E+00 -0.24145088505E+00  0.56864351985E+02  0.57350960978E+02  0.74470750000E+01 0. -1.
        -31    1    1    2    0    0 -0.24692877851E+00  0.24145088505E+00  0.62369418891E+02  0.62813395157E+02  0.74470750000E+01 0.  1.
<mgrwt>
<rscale>  0 0.14925829E+02</rscale>
<asrwt>0</asrwt>
<pdfrwt beam="2">  1        2 0.98825363E+00 0.14925829E+02</pdfrwt>
<pdfrwt beam="1">  1       -2 0.99360297E+00 0.14925829E+02</pdfrwt>
<totfact>-0.20447994E-13</totfact>
</mgrwt>
</event>
<event>
 4    1  0.4926183E-019  0.1490672E+02  0.7818608E-02  0.1870928E+00
          2   -1    0    0  501    0  0.00000000000E+00  0.00000000000E+00  0.12028531384E+03  0.12028531387E+03  0.25500000000E-02 0.  1.
         -2   -1    0    0    0  501 -0.00000000000E+00 -0.00000000000E+00 -0.46183646303E+00  0.46184350281E+00  0.25500000000E-02 0. -1.
         31    1    1    2    0    0  0.11072769892E+00 -0.46145008558E-01  0.57631360777E+02  0.58110644989E+02  0.74470750000E+01 0. -1.
        -31    1    1    2    0    0 -0.11072769892E+00  0.46145008558E-01  0.62192116602E+02  0.62636512383E+02  0.74470750000E+01 0.  1.
<mgrwt>
<rscale>  0 0.14906719E+02</rscale>
<asrwt>0</asrwt>
<pdfrwt beam="1">  1        2 0.99842198E+00 0.14906719E+02</pdfrwt>
<pdfrwt beam="2">  1       -2 0.98096701E+00 0.14906719E+02</pdfrwt>
<totfact> 0.54233713E-13</totfact>
</mgrwt>
</event>
<event>
 4    1 -0.4926183E-019  0.1495702E+02  0.7818608E-02  0.1869383E+00
         -2   -1    0    0    0  501 -0.00000000000E+00  0.00000000000E+00  0.12003732281E+03  0.12003732284E+03  0.25500000000E-02 0.  1.
          2   -1    0    0  501    0  0.00000000000E+00 -0.00000000000E+00 -0.46591893029E+00  0.46592590838E+00  0.25500000000E-02 0. -1.
         31    1    1    2    0    0  0.45269831828E+00  0.43697768554E-01  0.55659383862E+02  0.56157214881E+02  0.74470750000E+01 0. -1.
        -31    1    1    2    0    0 -0.45269831828E+00 -0.43697768554E-01  0.63912020023E+02  0.64346033869E+02  0.74470750000E+01 0.  1.
<mgrwt>
<rscale>  0 0.14957016E+02</rscale>
<asrwt>0</asrwt>
<pdfrwt beam="2">  1        2 0.98959692E+00 0.14957016E+02</pdfrwt>
<pdfrwt beam="1">  1       -2 0.99640517E+00 0.14957016E+02</pdfrwt>
<totfact>-0.16566136E-13</totfact>
</mgrwt>
</event>
<event>
 4    1  0.4926183E-019  0.1489633E+02  0.7818608E-02  0.1871249E+00
         -2   -1    0    0    0  501 -0.00000000000E+00  0.00000000000E+00  0.11879794042E+03  0.11879794045E+03  0.25500000000E-02 0. -1.
          2   -1    0    0  501    0  0.00000000000E+00 -0.00000000000E+00 -0.46696731214E+00  0.46697427456E+00  0.25500000000E-02 0.  1.
         31    1    1    2    0    0 -0.74469979884E-01 -0.57548344626E-01  0.59853662954E+02  0.60315244778E+02  0.74470750000E+01 0. -1.
        -31    1    1    2    0    0  0.74469979884E-01  0.57548344626E-01  0.58477310158E+02  0.58949669948E+02  0.74470750000E+01 0. -1.
<mgrwt>
<rscale>  0 0.14896331E+02</rscale>
<asrwt>0</asrwt>
<pdfrwt beam="2">  1        2 0.99177490E+00 0.14896331E+02</pdfrwt>
<pdfrwt beam="1">  1       -2 0.98616576E+00 0.14896331E+02</pdfrwt>
<totfact> 0.43495677E-13</totfact>
</mgrwt>
</event>
<event>
 4    1 -0.4926183E-019  0.1490091E+02  0.7818608E-02  0.1871107E+00
          2   -1    0    0  501    0  0.00000000000E+00  0.00000000000E+00  0.11794972343E+03  0.11794972346E+03  0.25500000000E-02 0. -1.
         -2   -1    0    0    0  501 -0.00000000000E+00 -0.00000000000E+00 -0.47061462834E+00  0.47062153681E+00  0.25500000000E-02 0.  1.
         31    1    1    2    0    0 -0.17152285130E+00 -0.13631573155E+00  0.59124629604E+02  0.59592187021E+02  0.74470750000E+01 0. -1.
        -31    1    1    2    0    0  0.17152285130E+00  0.13631573155E+00  0.58354479197E+02  0.58828157972E+02  0.74470750000E+01 0.  1.
<mgrwt>
<rscale>  0 0.14900909E+02</rscale>
<asrwt>0</asrwt>
<pdfrwt beam="1">  1        2 0.97918227E+00 0.14900909E+02</pdfrwt>
<pdfrwt beam="2">  1       -2 0.99946226E+00 0.14900909E+02</pdfrwt>
<totfact>-0.16574555E-13</totfact>
</mgrwt>
</event>
<event>
 4    1 -0.4926183E-019  0.1491678E+02  0.7818608E-02  0.1870619E+00
          2   -1    0    0  501    0  0.00000000000E+00  0.00000000000E+00  0.11871627428E+03  0.11871627431E+03  0.25500000000E-02 0. -1.
         -2   -1    0    0    0  501 -0.00000000000E+00 -0.00000000000E+00 -0.46857252589E+00  0.46857946446E+00  0.25500000000E-02 0.  1.
         31    1    1    2    0    0 -0.24856669829E-01  0.48543398120E-01  0.55871434142E+02  0.56365583945E+02  0.74470750000E+01 0.  1.
        -31    1    1    2    0    0  0.24856669829E-01 -0.48543398120E-01  0.62376267617E+02  0.62819269831E+02  0.74470750000E+01 0. -1.
<mgrwt>
<rscale>  0 0.14916782E+02</rscale>
<asrwt>0</asrwt>
<pdfrwt beam="1">  1        2 0.98550376E+00 0.14916782E+02</pdfrwt>
<pdfrwt beam="2">  1       -2 0.99516802E+00 0.14916782E+02</pdfrwt>
<totfact>-0.31869384E-13</totfact>
</mgrwt>
</event>
<event>
 4    1  0.4926183E-019  0.1490283E+02  0.7818608E-02  0.1871048E+00
         -2   -1    0    0    0  501 -0.00000000000E+00  0.00000000000E+00  0.11854478610E+03  0.11854478612E+03  0.25500000000E-02 0. -1.
          2   -1    0    0  501    0  0.00000000000E+00 -0.00000000000E+00 -0.46837311612E+00  0.46838005765E+00  0.25500000000E-02 0.  1.
         31    1    1    2    0    0 -0.14800334652E+00  0.13330653887E+00  0.60300992934E+02  0.60759430137E+02  0.74470750000E+01 0. -1.
        -31    1    1    2    0    0  0.14800334652E+00 -0.13330653887E+00  0.57775420046E+02  0.58253736044E+02  0.74470750000E+01 0.  1.
<mgrwt>
<rscale>  0 0.14902833E+02</rscale>
<asrwt>0</asrwt>
<pdfrwt beam="2">  1        2 0.99474052E+00 0.14902833E+02</pdfrwt>
<pdfrwt beam="1">  1       -2 0.98408413E+00 0.14902833E+02</pdfrwt>
<totfact> 0.63421498E-13</totfact>
</mgrwt>
</event>
<event>
 4    1 -0.4926183E-019  0.1497239E+02  0.7818608E-02  0.1868912E+00
          2   -1    0    0  501    0  0.00000000000E+00  0.00000000000E+00  0.12012854880E+03  0.12012854882E+03  0.25500000000E-02 0.  1.
         -2   -1    0    0    0  501 -0.00000000000E+00 -0.00000000000E+00 -0.46652270337E+00  0.46652967243E+00  0.25500000000E-02 0. -1.
         31    1    1    2    0    0 -0.52419094221E+00  0.27414150210E+00  0.63729434922E+02  0.64165798765E+02  0.74470750000E+01 0.  1.
        -31    1    1    2    0    0  0.52419094221E+00 -0.27414150210E+00  0.55932591171E+02  0.56429279730E+02  0.74470750000E+01 0. -1.
<mgrwt>
<rscale>  0 0.14972390E+02</rscale>
<asrwt>0</asrwt>
<pdfrwt beam="1">  1        2 0.99716449E+00 0.14972390E+02</pdfrwt>
<pdfrwt beam="2">  1       -2 0.99087725E+00 0.14972390E+02</pdfrwt>
<totfact>-0.25793720E-14</totfact>
</mgrwt>
</event>
<event>
 4    1 -0.4926183E-019  0.1493704E+02  0.7818608E-02  0.1869996E+00
          2   -1    0    0  501    0  0.00000000000E+00  0.00000000000E+00  0.11886969879E+03  0.11886969881E+03  0.25500000000E-02 0.  1.
         -2   -1    0    0    0  501 -0.00000000000E+00 -0.00000000000E+00 -0.46923954904E+00  0.46924647775E+00  0.25500000000E-02 0. -1.
         31    1    1    2    0    0 -0.46955752226E+00  0.94041544014E-01  0.61604046855E+02  0.62054386171E+02  0.74470750000E+01 0.  1.
        -31    1    1    2    0    0  0.46955752226E+00 -0.94041544014E-01  0.56796412383E+02  0.57284559121E+02  0.74470750000E+01 0.  1.
<mgrwt>
<rscale>  0 0.14937038E+02</rscale>
<asrwt>0</asrwt>
<pdfrwt beam="1">  1        2 0.98677790E+00 0.14937038E+02</pdfrwt>
<pdfrwt beam="2">  1       -2 0.99658412E+00 0.14937038E+02</pdfrwt>
<totfact>-0.22869334E-13</totfact>
</mgrwt>
</event>
<event>
 4    1 -0.4926183E-019  0.1497588E+02  0.7818608E-02  0.1868805E+00
          2   -1    0    0  501    0  0.00000000000E+00  0.00000000000E+00  0.11934775407E+03  0.11934775409E+03  0.25500000000E-02 0.  1.
         -2   -1    0    0    0  501 -0.00000000000E+00 -0.00000000000E+00 -0.46979384803E+00  0.46980076857E+00  0.25500000000E-02 0. -1.
         31    1    1    2    0    0 -0.15224394083E-02 -0.66279607169E+00  0.56130229521E+02  0.56625973661E+02  0.74470750000E+01 0. -1.
        -31    1    1    2    0    0  0.15224394083E-02  0.66279607169E+00  0.62747730696E+02  0.63191581200E+02  0.74470750000E+01 0.  1.
<mgrwt>
<rscale>  0 0.14975882E+02</rscale>
<asrwt>0</asrwt>
<pdfrwt beam="1">  1        2 0.99073538E+00 0.14975882E+02</pdfrwt>
<pdfrwt beam="2">  1       -2 0.99777244E+00 0.14975882E+02</pdfrwt>
<totfact>-0.10816736E-13</totfact>
</mgrwt>
</event>
<event>
 4    1  0.4926183E-019  0.1493816E+02  0.7818608E-02  0.1869961E+00
          2   -1    0    0  501    0  0.00000000000E+00  0.00000000000E+00  0.12022902836E+03  0.12022902839E+03  0.25500000000E-02 0. -1.
         -2   -1    0    0    0  501 -0.00000000000E+00 -0.00000000000E+00 -0.46400408876E+00  0.46401109565E+00  0.25500000000E-02 0.  1.
         31    1    1    2    0    0  0.35936735292E+00 -0.35455890797E+00  0.62071481584E+02  0.62518658087E+02  0.74470750000E+01 0.  1.
        -31    1    1    2    0    0 -0.35936735292E+00  0.35455890797E+00  0.57693542692E+02  0.58174381400E+02  0.74470750000E+01 0. -1.
<mgrwt>
<rscale>  0 0.14938164E+02</rscale>
<asrwt>0</asrwt>
<pdfrwt beam="1">  1        2 0.99797450E+00 0.14938164E+02</pdfrwt>
<pdfrwt beam="2">  1       -2 0.98555163E+00 0.14938164E+02</pdfrwt>
<totfact> 0.22848963E-13</totfact>
</mgrwt>
</event>
<event>
 4    1 -0.4926183E-019  0.1493254E+02  0.7818608E-02  0.1870134E+00
         -2   -1    0    0    0  501 -0.00000000000E+00  0.00000000000E+00  0.12021703624E+03  0.12021703627E+03  0.25500000000E-02 0.  1.
          2   -1    0    0  501    0  0.00000000000E+00 -0.00000000000E+00 -0.46370094152E+00  0.46370795299E+00  0.25500000000E-02 0. -1.
         31    1    1    2    0    0 -0.64470502979E-01  0.34798044635E+00  0.63119493429E+02  0.63558277381E+02  0.74470750000E+01 0.  1.
        -31    1    1    2    0    0  0.64470502979E-01 -0.34798044635E+00  0.56633841871E+02  0.57122466840E+02  0.74470750000E+01 0. -1.
<mgrwt>
<rscale>  0 0.14932539E+02</rscale>
<asrwt>0</asrwt>
<pdfrwt beam="2">  1        2 0.98490985E+00 0.14932539E+02</pdfrwt>
<pdfrwt beam="1">  1       -2 0.99787283E+00 0.14932539E+02</pdfrwt>
<totfact>-0.21985986E-13</totfact>
</mgrwt>
</event>
<event>
 4    1 -0.4926183E-019  0.1499210E+02  0.7818608E-02  0.1868310E+00
         -2   -1    0    0    0  501 -0.00000000000E+00  0.00000000000E+00  0.12003683519E+03  0.12003683522E+03  0.25500000000E-02 0. -1.
          2   -1    0    0  501    0  0.00000000000E+00 -0.00000000000E+00 -0.46810908413E+00  0.46811602958E+00  0.25500000000E-02 0.  1.
         31    1    1    2    0    0 -0.77535124618E+00  0.33036266048E+00  0.58605282730E+02  0.59082555792E+02  0.74470750000E+01 0.  1.
        -31    1    1    2    0    0  0.77535124618E+00 -0.33036266048E+00  0.60963443376E+02  0.61422395454E+02  0.74470750000E+01 0. -1.
<mgrwt>
<rscale>  0 0.14992098E+02</rscale>
<asrwt>0</asrwt>
<pdfrwt beam="2">  1        2 0.99423058E+00 0.14992098E+02</pdfrwt>
<pdfrwt beam="1">  1       -2 0.99641925E+00 0.14992098E+02</pdfrwt>
<totfact>-0.11402721E-13</totfact>
</mgrwt>
</event>
<event>
 4    1  0.4926183E-019  0.1492208E+02  0.7818608E-02  0.1870456E+00
          2   -1    0    0  501    0  0.00000000000E+00  0.00000000000E+00  0.11990262645E+03  0.11990262647E+03  0.25500000000E-02 0.  1.
         -2   -1    0    0    0  501 -0.00000000000E+00 -0.00000000000E+00 -0.46426561685E+00  0.46427261979E+00  0.25500000000E-02 0. -1.
         31    1    1    2    0    0 -0.35868781699E+00  0.14109818909E+00  0.57749959451E+02  0.58229419612E+02  0.74470750000E+01 0. -1.
        -31    1    1    2    0    0  0.35868781699E+00 -0.14109818909E+00  0.61688401377E+02  0.62137479481E+02  0.74470750000E+01 0.  1.
<mgrwt>
<rscale>  0 0.14922076E+02</rscale>
<asrwt>0</asrwt>
<pdfrwt beam="1">  1        2 0.99527774E+00 0.14922076E+02</pdfrwt>
<pdfrwt beam="2">  1       -2 0.98609465E+00 0.14922076E+02</pdfrwt>
<totfact> 0.33523359E-13</totfact>
</mgrwt>
</event>
<event>
 4    1 -0.4926183E-019  0.1493102E+02  0.7818608E-02  0.1870181E+00
          2   -1    0    0  501    0  0.00000000000E+00  0.00000000000E+00  0.11909678077E+03  0.11909678080E+03  0.25500000000E-02 0. -1.
         -2   -1    0    0    0  501 -0.00000000000E+00 -0.00000000000E+00 -0.46796772413E+00  0.46797467168E+00  0.25500000000E-02 0.  1.
         31    1    1    2    0    0 -0.98902048451E-01  0.35786796279E+00  0.62279342608E+02  0.62724104560E+02  0.74470750000E+01 0. -1.
        -31    1    1    2    0    0  0.98902048451E-01 -0.35786796279E+00  0.56349470442E+02  0.56840650913E+02  0.74470750000E+01 0.  1.
<mgrwt>
<rscale>  0 0.14931024E+02</rscale>
<asrwt>0</asrwt>
<pdfrwt beam="1">  1        2 0.98864505E+00 0.14931024E+02</pdfrwt>
<pdfrwt beam="2">  1       -2 0.99390105E+00 0.14931024E+02</pdfrwt>
<totfact>-0.20041506E-13</totfact>
</mgrwt>
</event>
<event>
 4    1  0.4926183E-019  0.1492355E+02  0.7818608E-02  0.1870411E+00
         -2   -1    0    0    0  501 -0.00000000000E+00  0.00000000000E+00  0.11845480921E+03  0.11845480924E+03  0.25500000000E-02 0.  1.
          2   -1    0    0  501    0  0.00000000000E+00 -0.00000000000E+00 -0.47003277580E+00  0.47003969282E+00  0.25500000000E-02 0. -1.
         31    1    1    2    0    0  0.31360914618E+00  0.12121721216E+00  0.61587931579E+02  0.62037450677E+02  0.74470750000E+01 0.  1.
        -31    1    1    2    0    0 -0.31360914618E+00 -0.12121721216E+00  0.56396844854E+02  0.56887398252E+02  0.74470750000E+01 0. -1.
<mgrwt>
<rscale>  0 0.14923546E+02</rscale>
<asrwt>0</asrwt>
<pdfrwt beam="2">  1        2 0.99824837E+00 0.14923546E+02</pdfrwt>
<pdfrwt beam="1">  1       -2 0.98335386E+00 0.14923546E+02</pdfrwt>
<totfact> 0.36373844E-13</totfact>
</mgrwt>
</event>
<event>
 4    1 -0.4926183E-019  0.1491136E+02  0.7818608E-02  0.1870785E+00
          2   -1    0    0  501    0  0.00000000000E+00  0.00000000000E+00  0.11880394375E+03  0.11880394378E+03  0.25500000000E-02 0.  1.
         -2   -1    0    0    0  501 -0.00000000000E+00 -0.00000000000E+00 -0.46788667117E+00  0.46789361991E+00  0.25500000000E-02 0. -1.
         31    1    1    2    0    0 -0.53832808706E-01 -0.20449071753E+00  0.56855895880E+02  0.57341926518E+02  0.74470750000E+01 0. -1.
        -31    1    1    2    0    0  0.53832808706E-01  0.20449071753E+00  0.61480161200E+02  0.61929910881E+02  0.74470750000E+01 0.  1.
<mgrwt>
<rscale>  0 0.14911364E+02</rscale>
<asrwt>0</asrwt>
<pdfrwt beam="1">  1        2 0.98622300E+00 0.14911364E+02</pdfrwt>
<pdfrwt beam="2">  1       -2 0.99372000E+00 0.14911364E+02</pdfrwt>
<totfact>-0.27414710E-13</totfact>
</mgrwt>
</event>
<event>
 4    1 -0.4926183E-019  0.1492995E+02  0.7818608E-02  0.1870214E+00
          2   -1    0    0  501    0  0.00000000000E+00  0.00000000000E+00  0.11886610508E+03  0.11886610511E+03  0.25500000000E-02 0.  1.
         -2   -1    0    0    0  501 -0.00000000000E+00 -0.00000000000E+00 -0.46880822084E+00  0.46881515592E+00  0.25500000000E-02 0. -1.
         31    1    1    2    0    0  0.20194731975E+00 -0.26724951503E+00  0.56054937065E+02  0.56548449142E+02  0.74470750000E+01 0. -1.
        -31    1    1    2    0    0 -0.20194731975E+00  0.26724951503E+00  0.62342359799E+02  0.62786471125E+02  0.74470750000E+01 0.  1.
<mgrwt>
<rscale>  0 0.14929946E+02</rscale>
<asrwt>0</asrwt>
<pdfrwt beam="1">  1        2 0.98674462E+00 0.14929946E+02</pdfrwt>
<pdfrwt beam="2">  1       -2 0.99567155E+00 0.14929946E+02</pdfrwt>
<totfact>-0.25641782E-13</totfact>
</mgrwt>
</event>
<event>
 4    1 -0.4926183E-019  0.1493862E+02  0.7818608E-02  0.1869947E+00
         -2   -1    0    0    0  501 -0.00000000000E+00  0.00000000000E+00  0.12004815105E+03  0.12004815107E+03  0.25500000000E-02 0.  1.
          2   -1    0    0  501    0  0.00000000000E+00 -0.00000000000E+00 -0.46473147382E+00  0.46473846974E+00  0.25500000000E-02 0. -1.
         31    1    1    2    0    0 -0.41924605582E+00 -0.39151673059E+00  0.59380465430E+02  0.59848372187E+02  0.74470750000E+01 0.  1.
        -31    1    1    2    0    0  0.41924605582E+00  0.39151673059E+00  0.60202954143E+02  0.60664517358E+02  0.74470750000E+01 0. -1.
<mgrwt>
<rscale>  0 0.14938618E+02</rscale>
<asrwt>0</asrwt>
<pdfrwt beam="2">  1        2 0.98708491E+00 0.14938618E+02</pdfrwt>
<pdfrwt beam="1">  1       -2 0.99648489E+00 0.14938618E+02</pdfrwt>
<totfact>-0.22237719E-13</totfact>
</mgrwt>
</event>
<event>
 4    1  0.4926183E-019  0.1491962E+02  0.7818608E-02  0.1870531E+00
          2   -1    0    0  501    0  0.00000000000E+00  0.00000000000E+00  0.12019569554E+03  0.12019569556E+03  0.25500000000E-02 0. -1.
         -2   -1    0    0    0  501 -0.00000000000E+00 -0.00000000000E+00 -0.46298133105E+00  0.46298835342E+00  0.25500000000E-02 0.  1.
         31    1    1    2    0    0  0.15671931019E+00  0.40652864821E+00  0.59817933011E+02  0.60281289487E+02  0.74470750000E+01 0.  1.
        -31    1    1    2    0    0 -0.15671931019E+00 -0.40652864821E+00  0.59914781193E+02  0.60377394428E+02  0.74470750000E+01 0. -1.
<mgrwt>
<rscale>  0 0.14919623E+02</rscale>
<asrwt>0</asrwt>
<pdfrwt beam="1">  1        2 0.99769042E+00 0.14919623E+02</pdfrwt>
<pdfrwt beam="2">  1       -2 0.98338660E+00 0.14919623E+02</pdfrwt>
<totfact> 0.44755410E-13</totfact>
</mgrwt>
</event>
<event>
 4    1 -0.4926183E-019  0.1499563E+02  0.7818608E-02  0.1868202E+00
         -2   -1    0    0    0  501 -0.00000000000E+00  0.00000000000E+00  0.11986816878E+03  0.11986816881E+03  0.25500000000E-02 0.  1.
          2   -1    0    0  501    0  0.00000000000E+00 -0.00000000000E+00 -0.46898896236E+00  0.46899589478E+00  0.25500000000E-02 0. -1.
         31    1    1    2    0    0  0.22971926099E+00 -0.81698222746E+00  0.58133005671E+02  0.58614209074E+02  0.74470750000E+01 0. -1.
        -31    1    1    2    0    0 -0.22971926099E+00  0.81698222746E+00  0.61266174147E+02  0.61722955629E+02  0.74470750000E+01 0.  1.
<mgrwt>
<rscale>  0 0.14995635E+02</rscale>
<asrwt>0</asrwt>
<pdfrwt beam="2">  1        2 0.99608663E+00 0.14995635E+02</pdfrwt>
<pdfrwt beam="1">  1       -2 0.99503187E+00 0.14995635E+02</pdfrwt>
<totfact>-0.10410520E-13</totfact>
</mgrwt>
</event>
<event>
 4    1  0.4926183E-019  0.1493029E+02  0.7818608E-02  0.1870203E+00
          2   -1    0    0  501    0  0.00000000000E+00  0.00000000000E+00  0.11973374545E+03  0.11973374548E+03  0.25500000000E-02 0. -1.
         -2   -1    0    0    0  501 -0.00000000000E+00 -0.00000000000E+00 -0.46543245354E+00  0.46543943893E+00  0.25500000000E-02 0.  1.
         31    1    1    2    0    0 -0.72767629078E-02  0.12068268799E+00  0.55569959245E+02  0.56066870019E+02  0.74470750000E+01 0.  1.
        -31    1    1    2    0    0  0.72767629078E-02 -0.12068268799E+00  0.63698353751E+02  0.64132314896E+02  0.74470750000E+01 0. -1.
<mgrwt>
<rscale>  0 0.14930290E+02</rscale>
<asrwt>0</asrwt>
<pdfrwt beam="1">  1        2 0.99389096E+00 0.14930290E+02</pdfrwt>
<pdfrwt beam="2">  1       -2 0.98855799E+00 0.14930290E+02</pdfrwt>
<totfact> 0.11644947E-13</totfact>
</mgrwt>
</event>
<event>
 4    1  0.4926183E-019  0.1489753E+02  0.7818608E-02  0.1871212E+00
         -2   -1    0    0    0  501 -0.00000000000E+00  0.00000000000E+00  0.11827229447E+03  0.11827229449E+03  0.25500000000E-02 0. -1.
          2   -1    0    0  501    0  0.00000000000E+00 -0.00000000000E+00 -0.46911817440E+00  0.46912510490E+00  0.25500000000E-02 0.  1.
         31    1    1    2    0    0  0.10768500790E+00 -0.11116893513E+00  0.59179452085E+02  0.59646378177E+02  0.74470750000E+01 0.  1.
        -31    1    1    2    0    0 -0.10768500790E+00  0.11116893513E+00  0.58623724207E+02  0.59095041420E+02  0.74470750000E+01 0.  1.
<mgrwt>
<rscale>  0 0.14897529E+02</rscale>
<asrwt>0</asrwt>
<pdfrwt beam="2">  1        2 0.99630758E+00 0.14897529E+02</pdfrwt>
<pdfrwt beam="1">  1       -2 0.98183714E+00 0.14897529E+02</pdfrwt>
<totfact> 0.85496445E-13</totfact>
</mgrwt>
</event>
<event>
 4    1 -0.4926183E-019  0.1491519E+02  0.7818608E-02  0.1870668E+00
          2   -1    0    0  501    0  0.00000000000E+00  0.00000000000E+00  0.11842285846E+03  0.11842285849E+03  0.25500000000E-02 0. -1.
         -2   -1    0    0    0  501 -0.00000000000E+00 -0.00000000000E+00 -0.46963321657E+00  0.46964013948E+00  0.25500000000E-02 0.  1.
         31    1    1    2    0    0  0.67015993294E-01 -0.32844722907E+00  0.60656754155E+02  0.61113117408E+02  0.74470750000E+01 0.  1.
        -31    1    1    2    0    0 -0.67015993294E-01  0.32844722907E+00  0.57296471087E+02  0.57779381217E+02  0.74470750000E+01 0.  1.
<mgrwt>
<rscale>  0 0.14915190E+02</rscale>
<asrwt>0</asrwt>
<pdfrwt beam="1">  1        2 0.98308636E+00 0.14915190E+02</pdfrwt>
<pdfrwt beam="2">  1       -2 0.99740209E+00 0.14915190E+02</pdfrwt>
<totfact>-0.34635550E-13</totfact>
</mgrwt>
</event>
<event>
 4    1 -0.4926183E-019  0.1494710E+02  0.7818608E-02  0.1869687E+00
         -2   -1    0    0    0  501 -0.00000000000E+00  0.00000000000E+00  0.12011031902E+03  0.12011031905E+03  0.25500000000E-02 0. -1.
          2   -1    0    0  501    0  0.00000000000E+00 -0.00000000000E+00 -0.46501876841E+00  0.46502576001E+00  0.25500000000E-02 0.  1.
         31    1    1    2    0    0  0.24516191747E+00  0.29173364392E+00  0.63854735290E+02  0.64288656526E+02  0.74470750000E+01 0. -1.
        -31    1    1    2    0    0 -0.24516191747E+00 -0.29173364392E+00  0.55790564965E+02  0.56286688285E+02  0.74470750000E+01 0.  1.
<mgrwt>
<rscale>  0 0.14947104E+02</rscale>
<asrwt>0</asrwt>
<pdfrwt beam="2">  1        2 0.98769473E+00 0.14947104E+02</pdfrwt>
<pdfrwt beam="1">  1       -2 0.99700131E+00 0.14947104E+02</pdfrwt>
<totfact>-0.18597482E-13</totfact>
</mgrwt>
</event>
<event>
 4    1  0.4926183E-019  0.1491775E+02  0.7818608E-02  0.1870589E+00
          2   -1    0    0  501    0  0.00000000000E+00  0.00000000000E+00  0.12022612506E+03  0.12022612509E+03  0.25500000000E-02 0.  1.
         -2   -1    0    0    0  501 -0.00000000000E+00 -0.00000000000E+00 -0.46274795805E+00  0.46275498396E+00  0.25500000000E-02 0. -1.
         31    1    1    2    0    0  0.26739122128E+00  0.32307879559E+00  0.59913493850E+02  0.60376001436E+02  0.74470750000E+01 0.  1.
        -31    1    1    2    0    0 -0.26739122128E+00 -0.32307879559E+00  0.59849883256E+02  0.60312878640E+02  0.74470750000E+01 0. -1.
<mgrwt>
<rscale>  0 0.14917750E+02</rscale>
<asrwt>0</asrwt>
<pdfrwt beam="1">  1        2 0.99794010E+00 0.14917750E+02</pdfrwt>
<pdfrwt beam="2">  1       -2 0.98289377E+00 0.14917750E+02</pdfrwt>
<totfact> 0.45802816E-13</totfact>
</mgrwt>
</event>
<event>
 4    1 -0.4926183E-019  0.1492302E+02  0.7818608E-02  0.1870427E+00
         -2   -1    0    0    0  501 -0.00000000000E+00  0.00000000000E+00  0.12028527767E+03  0.12028527770E+03  0.25500000000E-02 0.  1.
          2   -1    0    0  501    0  0.00000000000E+00 -0.00000000000E+00 -0.46284745108E+00  0.46285447548E+00  0.25500000000E-02 0. -1.
         31    1    1    2    0    0  0.40850288653E-01 -0.30474942939E+00  0.62722238206E+02  0.63163538791E+02  0.74470750000E+01 0.  1.
        -31    1    1    2    0    0 -0.40850288653E-01  0.30474942939E+00  0.57100192014E+02  0.57584593382E+02  0.74470750000E+01 0. -1.
<mgrwt>
<rscale>  0 0.14923024E+02</rscale>
<asrwt>0</asrwt>
<pdfrwt beam="2">  1        2 0.98310614E+00 0.14923024E+02</pdfrwt>
<pdfrwt beam="1">  1       -2 0.99843004E+00 0.14923024E+02</pdfrwt>
<totfact>-0.23104105E-13</totfact>
</mgrwt>
</event>
<event>
 4    1 -0.4926183E-019  0.1497773E+02  0.7818608E-02  0.1868749E+00
         -2   -1    0    0    0  501 -0.00000000000E+00  0.00000000000E+00  0.12002903371E+03  0.12002903374E+03  0.25500000000E-02 0. -1.
          2   -1    0    0  501    0  0.00000000000E+00 -0.00000000000E+00 -0.46724240297E+00  0.46724936130E+00  0.25500000000E-02 0.  1.
         31    1    1    2    0    0 -0.76539171293E+00  0.17614819590E+00  0.60468088240E+02  0.60930004712E+02  0.74470750000E+01 0.  1.
        -31    1    1    2    0    0  0.76539171293E+00 -0.17614819590E+00  0.59093703069E+02  0.59566278389E+02  0.74470750000E+01 0. -1.
<mgrwt>
<rscale>  0 0.14977727E+02</rscale>
<asrwt>0</asrwt>
<pdfrwt beam="2">  1        2 0.99239673E+00 0.14977727E+02</pdfrwt>
<pdfrwt beam="1">  1       -2 0.99634758E+00 0.14977727E+02</pdfrwt>
<totfact>-0.13222567E-13</totfact>
</mgrwt>
</event>
<event>
 4    1 -0.4926183E-019  0.1497842E+02  0.7818608E-02  0.1868728E+00
         -2   -1    0    0    0  501 -0.00000000000E+00  0.00000000000E+00  0.12019998526E+03  0.12019998528E+03  0.25500000000E-02 0.  1.
          2   -1    0    0  501    0  0.00000000000E+00 -0.00000000000E+00 -0.46662082902E+00  0.46662779661E+00  0.25500000000E-02 0. -1.
         31    1    1    2    0    0  0.68812976887E-01 -0.72998167094E-01  0.53527199820E+02  0.54042854389E+02  0.74470750000E+01 0. -1.
        -31    1    1    2    0    0 -0.68812976887E-01  0.72998167094E-01  0.66206164607E+02  0.66623758690E+02  0.74470750000E+01 0.  1.
<mgrwt>
<rscale>  0 0.14978416E+02</rscale>
<asrwt>0</asrwt>
<pdfrwt beam="2">  1        2 0.99108713E+00 0.14978416E+02</pdfrwt>
<pdfrwt beam="1">  1       -2 0.99775598E+00 0.14978416E+02</pdfrwt>
<totfact>-0.10565964E-13</totfact>
</mgrwt>
</event>
<event>
 4    1  0.4926183E-019  0.1492523E+02  0.7818608E-02  0.1870359E+00
         -2   -1    0    0    0  501 -0.00000000000E+00  0.00000000000E+00  0.11855776183E+03  0.11855776186E+03  0.25500000000E-02 0. -1.
          2   -1    0    0  501    0  0.00000000000E+00 -0.00000000000E+00 -0.46973076156E+00  0.46973768303E+00  0.25500000000E-02 0.  1.
         31    1    1    2    0    0  0.58008107490E-02  0.16053687349E+00  0.55425216923E+02  0.55923513862E+02  0.74470750000E+01 0.  1.
        -31    1    1    2    0    0 -0.58008107490E-02 -0.16053687349E+00  0.62662814151E+02  0.63103985683E+02  0.74470750000E+01 0. -1.
<mgrwt>
<rscale>  0 0.14925233E+02</rscale>
<asrwt>0</asrwt>
<pdfrwt beam="2">  1        2 0.99761292E+00 0.14925233E+02</pdfrwt>
<pdfrwt beam="1">  1       -2 0.98420265E+00 0.14925233E+02</pdfrwt>
<totfact> 0.37685114E-13</totfact>
</mgrwt>
</event>
<event>
 4    1  0.4926183E-019  0.1492777E+02  0.7818608E-02  0.1870281E+00
         -2   -1    0    0    0  501 -0.00000000000E+00  0.00000000000E+00  0.11889333320E+03  0.11889333323E+03  0.25500000000E-02 0.  1.
          2   -1    0    0  501    0  0.00000000000E+00 -0.00000000000E+00 -0.46856429060E+00  0.46857122930E+00  0.25500000000E-02 0. -1.
         31    1    1    2    0    0  0.37227838995E+00  0.31647144680E+00  0.60085177304E+02  0.60546892596E+02  0.74470750000E+01 0.  1.
        -31    1    1    2    0    0 -0.37227838995E+00 -0.31647144680E+00  0.58339591605E+02  0.58815011860E+02  0.74470750000E+01 0. -1.
<mgrwt>
<rscale>  0 0.14927771E+02</rscale>
<asrwt>0</asrwt>
<pdfrwt beam="2">  1        2 0.99515642E+00 0.14927771E+02</pdfrwt>
<pdfrwt beam="1">  1       -2 0.98696774E+00 0.14927771E+02</pdfrwt>
<totfact> 0.24498569E-13</totfact>
</mgrwt>
</event>
<event>
 4    1  0.4926183E-019  0.1491918E+02  0.7818608E-02  0.1870545E+00
          2   -1    0    0  501    0  0.00000000000E+00  0.00000000000E+00  0.11995588704E+03  0.11995588707E+03  0.25500000000E-02 0.  1.
         -2   -1    0    0    0  501 -0.00000000000E+00 -0.00000000000E+00 -0.46387922545E+00  0.46388623423E+00  0.25500000000E-02 0. -1.
         31    1    1    2    0    0 -0.17365565575E+00  0.20170784372E+00  0.62491482694E+02  0.62934213094E+02  0.74470750000E+01 0.  1.
        -31    1    1    2    0    0  0.17365565575E+00 -0.20170784372E+00  0.57000525121E+02  0.57485560208E+02  0.74470750000E+01 0. -1.
<mgrwt>
<rscale>  0 0.14919178E+02</rscale>
<asrwt>0</asrwt>
<pdfrwt beam="1">  1        2 0.99571494E+00 0.14919178E+02</pdfrwt>
<pdfrwt beam="2">  1       -2 0.98527882E+00 0.14919178E+02</pdfrwt>
<totfact> 0.41166342E-13</totfact>
</mgrwt>
</event>
<event>
 4    1 -0.4926183E-019  0.1497689E+02  0.7818608E-02  0.1868775E+00
         -2   -1    0    0    0  501 -0.00000000000E+00  0.00000000000E+00  0.12038002950E+03  0.12038002953E+03  0.25500000000E-02 0. -1.
          2   -1    0    0  501    0  0.00000000000E+00 -0.00000000000E+00 -0.46582789016E+00  0.46583486961E+00  0.25500000000E-02 0.  1.
         31    1    1    2    0    0  0.18564950230E+00  0.27389096524E+00  0.54203908560E+02  0.54714094265E+02  0.74470750000E+01 0.  1.
        -31    1    1    2    0    0 -0.18564950230E+00 -0.27389096524E+00  0.65710293054E+02  0.66131770135E+02  0.74470750000E+01 0. -1.
<mgrwt>
<rscale>  0 0.14976889E+02</rscale>
<asrwt>0</asrwt>
<pdfrwt beam="2">  1        2 0.98941520E+00 0.14976889E+02</pdfrwt>
<pdfrwt beam="1">  1       -2 0.99923816E+00 0.14976889E+02</pdfrwt>
<totfact>-0.47815945E-14</totfact>
</mgrwt>
</event>
<event>
 4    1 -0.4926183E-019  0.1500515E+02  0.7818608E-02  0.1867911E+00
          2   -1    0    0  501    0  0.00000000000E+00  0.00000000000E+00  0.12012125810E+03  0.12012125813E+03  0.25500000000E-02 0. -1.
         -2   -1    0    0    0  501 -0.00000000000E+00 -0.00000000000E+00 -0.46859489135E+00  0.46860182960E+00  0.25500000000E-02 0.  1.
         31    1    1    2    0    0  0.17880848465E+00 -0.56386687523E+00  0.65392971261E+02  0.65818306988E+02  0.74470750000E+01 0. -1.
        -31    1    1    2    0    0 -0.17880848465E+00  0.56386687523E+00  0.54259691950E+02  0.54771552972E+02  0.74470750000E+01 0.  1.
<mgrwt>
<rscale>  0 0.15005149E+02</rscale>
<asrwt>0</asrwt>
<pdfrwt beam="1">  1        2 0.99712133E+00 0.15005149E+02</pdfrwt>
<pdfrwt beam="2">  1       -2 0.99526110E+00 0.15005149E+02</pdfrwt>
<totfact>-0.84889629E-14</totfact>
</mgrwt>
</event>
<event>
 4    1 -0.4926183E-019  0.1499081E+02  0.7818608E-02  0.1868349E+00
         -2   -1    0    0    0  501 -0.00000000000E+00  0.00000000000E+00  0.11975988181E+03  0.11975988183E+03  0.25500000000E-02 0. -1.
          2   -1    0    0  501    0  0.00000000000E+00 -0.00000000000E+00 -0.46911073934E+00  0.46911766996E+00  0.25500000000E-02 0.  1.
         31    1    1    2    0    0 -0.68804638876E+00 -0.37033067727E+00  0.62324489796E+02  0.62772697146E+02  0.74470750000E+01 0.  1.
        -31    1    1    2    0    0  0.68804638876E+00  0.37033067727E+00  0.56966281270E+02  0.57456302356E+02  0.74470750000E+01 0.  1.
<mgrwt>
<rscale>  0 0.14990806E+02</rscale>
<asrwt>0</asrwt>
<pdfrwt beam="2">  1        2 0.99634075E+00 0.14990806E+02</pdfrwt>
<pdfrwt beam="1">  1       -2 0.99413749E+00 0.14990806E+02</pdfrwt>
<totfact>-0.98723173E-14</totfact>
</mgrwt>
</event>
<event>
 4    1 -0.4926183E-019  0.1496254E+02  0.7818608E-02  0.1869214E+00
         -2   -1    0    0    0  501 -0.00000000000E+00  0.00000000000E+00  0.12016846490E+03  0.12016846493E+03  0.25500000000E-02 0. -1.
          2   -1    0    0  501    0  0.00000000000E+00 -0.00000000000E+00 -0.46575425055E+00  0.46576123111E+00  0.25500000000E-02 0.  1.
         31    1    1    2    0    0  0.48585605097E+00  0.32103678815E+00  0.63188740176E+02  0.63628727253E+02  0.74470750000E+01 0. -1.
        -31    1    1    2    0    0 -0.48585605097E+00 -0.32103678815E+00  0.56513970473E+02  0.57005498904E+02  0.74470750000E+01 0.  1.
<mgrwt>
<rscale>  0 0.14962539E+02</rscale>
<asrwt>0</asrwt>
<pdfrwt beam="2">  1        2 0.98925268E+00 0.14962539E+02</pdfrwt>
<pdfrwt beam="1">  1       -2 0.99748819E+00 0.14962539E+02</pdfrwt>
<totfact>-0.13645122E-13</totfact>
</mgrwt>
</event>
<event>
 4    1 -0.4926183E-019  0.1490874E+02  0.7818608E-02  0.1870866E+00
         -2   -1    0    0    0  501 -0.00000000000E+00  0.00000000000E+00  0.11975793381E+03  0.11975793384E+03  0.25500000000E-02 0.  1.
          2   -1    0    0  501    0  0.00000000000E+00 -0.00000000000E+00 -0.46399608249E+00  0.46400308950E+00  0.25500000000E-02 0. -1.
         31    1    1    2    0    0 -0.63279222998E-01  0.26098151923E+00  0.58104403634E+02  0.58580310373E+02  0.74470750000E+01 0.  1.
        -31    1    1    2    0    0  0.63279222998E-01 -0.26098151923E+00  0.61189534096E+02  0.61641626557E+02  0.74470750000E+01 0. -1.
<mgrwt>
<rscale>  0 0.14908740E+02</rscale>
<asrwt>0</asrwt>
<pdfrwt beam="2">  1        2 0.98551979E+00 0.14908740E+02</pdfrwt>
<pdfrwt beam="1">  1       -2 0.99407909E+00 0.14908740E+02</pdfrwt>
<totfact>-0.31419008E-13</totfact>
</mgrwt>
</event>
<event>
 4    1  0.4926183E-019  0.1493784E+02  0.7818608E-02  0.1869971E+00
          2   -1    0    0  501    0  0.00000000000E+00  0.00000000000E+00  0.12016466510E+03  0.12016466512E+03  0.25500000000E-02 0. -1.
         -2   -1    0    0    0  501 -0.00000000000E+00 -0.00000000000E+00 -0.46423258818E+00  0.46423959162E+00  0.25500000000E-02 0.  1.
         31    1    1    2    0    0 -0.38714203236E+00  0.20298897107E+00  0.62814753565E+02  0.63256171833E+02  0.74470750000E+01 0. -1.
        -31    1    1    2    0    0  0.38714203236E+00 -0.20298897107E+00  0.56885678944E+02  0.57372732883E+02  0.74470750000E+01 0.  1.
<mgrwt>
<rscale>  0 0.14937842E+02</rscale>
<asrwt>0</asrwt>
<pdfrwt beam="1">  1        2 0.99744418E+00 0.14937842E+02</pdfrwt>
<pdfrwt beam="2">  1       -2 0.98603306E+00 0.14937842E+02</pdfrwt>
<totfact> 0.23285757E-13</totfact>
</mgrwt>
</event>
<event>
 4    1  0.4926183E-019  0.1492325E+02  0.7818608E-02  0.1870420E+00
         -2   -1    0    0    0  501 -0.00000000000E+00  0.00000000000E+00  0.11874283925E+03  0.11874283928E+03  0.25500000000E-02 0.  1.
          2   -1    0    0  501    0  0.00000000000E+00 -0.00000000000E+00 -0.46887391644E+00  0.46888085056E+00  0.25500000000E-02 0. -1.
         31    1    1    2    0    0  0.45776109147E+00 -0.85776525581E-01  0.59156793561E+02  0.59625515119E+02  0.74470750000E+01 0. -1.
        -31    1    1    2    0    0 -0.45776109147E+00  0.85776525581E-01  0.59117171773E+02  0.59586205009E+02  0.74470750000E+01 0. -1.
<mgrwt>
<rscale>  0 0.14923248E+02</rscale>
<asrwt>0</asrwt>
<pdfrwt beam="2">  1        2 0.99580647E+00 0.14923248E+02</pdfrwt>
<pdfrwt beam="1">  1       -2 0.98572591E+00 0.14923248E+02</pdfrwt>
<totfact> 0.35460701E-13</totfact>
</mgrwt>
</event>
<event>
 4    1 -0.4926183E-019  0.1495501E+02  0.7818608E-02  0.1869445E+00
          2   -1    0    0  501    0  0.00000000000E+00  0.00000000000E+00  0.11924587407E+03  0.11924587410E+03  0.25500000000E-02 0.  1.
         -2   -1    0    0    0  501 -0.00000000000E+00 -0.00000000000E+00 -0.46888546898E+00  0.46889240293E+00  0.25500000000E-02 0. -1.
         31    1    1    2    0    0  0.40905012605E-01 -0.60255868563E+00  0.56995040799E+02  0.57482678712E+02  0.74470750000E+01 0.  1.
        -31    1    1    2    0    0 -0.40905012605E-01  0.60255868563E+00  0.61781947801E+02  0.62232087787E+02  0.74470750000E+01 0.  1.
<mgrwt>
<rscale>  0 0.14955009E+02</rscale>
<asrwt>0</asrwt>
<pdfrwt beam="1">  1        2 0.98988545E+00 0.14955009E+02</pdfrwt>
<pdfrwt beam="2">  1       -2 0.99584743E+00 0.14955009E+02</pdfrwt>
<totfact>-0.17205154E-13</totfact>
</mgrwt>
</event>
<event>
 4    1  0.4926183E-019  0.1490823E+02  0.7818608E-02  0.1870882E+00
          2   -1    0    0  501    0  0.00000000000E+00  0.00000000000E+00  0.11972929207E+03  0.11972929209E+03  0.25500000000E-02 0. -1.
         -2   -1    0    0    0  501 -0.00000000000E+00 -0.00000000000E+00 -0.46407548153E+00  0.46408248734E+00  0.25500000000E-02 0.  1.
         31    1    1    2    0    0 -0.62014647877E-01  0.19287183290E-01  0.57074107158E+02  0.57557943428E+02  0.74470750000E+01 0.  1.
        -31    1    1    2    0    0  0.62014647877E-01 -0.19287183290E-01  0.62191109429E+02  0.62635431154E+02  0.74470750000E+01 0. -1.
<mgrwt>
<rscale>  0 0.14908233E+02</rscale>
<asrwt>0</asrwt>
<pdfrwt beam="1">  1        2 0.99384292E+00 0.14908233E+02</pdfrwt>
<pdfrwt beam="2">  1       -2 0.98568687E+00 0.14908233E+02</pdfrwt>
<totfact> 0.43781617E-13</totfact>
</mgrwt>
</event>
<event>
 4    1  0.4926183E-019  0.1493349E+02  0.7818608E-02  0.1870105E+00
          2   -1    0    0  501    0  0.00000000000E+00  0.00000000000E+00  0.12021162951E+03  0.12021162954E+03  0.25500000000E-02 0. -1.
         -2   -1    0    0    0  501 -0.00000000000E+00 -0.00000000000E+00 -0.46378097613E+00  0.46378798639E+00  0.25500000000E-02 0.  1.
         31    1    1    2    0    0  0.15772118616E+00 -0.14235453992E+00  0.55847867396E+02  0.56342598090E+02  0.74470750000E+01 0.  1.
        -31    1    1    2    0    0 -0.15772118616E+00  0.14235453992E+00  0.63899981140E+02  0.64332819436E+02  0.74470750000E+01 0. -1.
<mgrwt>
<rscale>  0 0.14933491E+02</rscale>
<asrwt>0</asrwt>
<pdfrwt beam="1">  1        2 0.99782878E+00 0.14933491E+02</pdfrwt>
<pdfrwt beam="2">  1       -2 0.98507902E+00 0.14933491E+02</pdfrwt>
<totfact> 0.27735607E-13</totfact>
</mgrwt>
</event>
<event>
 4    1  0.4926183E-019  0.1490167E+02  0.7818608E-02  0.1871084E+00
         -2   -1    0    0    0  501 -0.00000000000E+00  0.00000000000E+00  0.11913619073E+03  0.11913619075E+03  0.25500000000E-02 0.  1.
          2   -1    0    0  501    0  0.00000000000E+00 -0.00000000000E+00 -0.46597501519E+00  0.46598199245E+00  0.25500000000E-02 0. -1.
         31    1    1    2    0    0  0.13934069257E+00 -0.46364943422E-01  0.57846152241E+02  0.58323732911E+02  0.74470750000E+01 0. -1.
        -31    1    1    2    0    0 -0.13934069257E+00  0.46364943422E-01  0.60824063469E+02  0.61278439834E+02  0.74470750000E+01 0.  1.
<mgrwt>
<rscale>  0 0.14901665E+02</rscale>
<asrwt>0</asrwt>
<pdfrwt beam="2">  1        2 0.98968664E+00 0.14901665E+02</pdfrwt>
<pdfrwt beam="1">  1       -2 0.98895445E+00 0.14901665E+02</pdfrwt>
<totfact> 0.11686150E-13</totfact>
</mgrwt>
</event>
<event>
 4    1  0.4926183E-019  0.1491489E+02  0.7818608E-02  0.1870677E+00
         -2   -1    0    0    0  501 -0.00000000000E+00  0.00000000000E+00  0.11832291989E+03  0.11832291992E+03  0.25500000000E-02 0. -1.
          2   -1    0    0  501    0  0.00000000000E+00 -0.00000000000E+00 -0.47001115249E+00  0.47001806983E+00  0.25500000000E-02 0.  1.
         31    1    1    2    0    0  0.19667768635E+00 -0.24729271517E+00  0.57062938257E+02  0.57547699210E+02  0.74470750000E+01 0.  1.
        -31    1    1    2    0    0 -0.19667768635E+00  0.24729271517E+00  0.60789970480E+02  0.61245238777E+02  0.74470750000E+01 0. -1.
<mgrwt>
<rscale>  0 0.14914892E+02</rscale>
<asrwt>0</asrwt>
<pdfrwt beam="2">  1        2 0.99819823E+00 0.14914892E+02</pdfrwt>
<pdfrwt beam="1">  1       -2 0.98226313E+00 0.14914892E+02</pdfrwt>
<totfact> 0.47075878E-13</totfact>
</mgrwt>
</event>
<event>
 4    1 -0.4926183E-019  0.1489535E+02  0.7818608E-02  0.1871279E+00
          2   -1    0    0  501    0  0.00000000000E+00  0.00000000000E+00  0.11793835464E+03  0.11793835467E+03  0.25500000000E-02 0. -1.
         -2   -1    0    0    0  501 -0.00000000000E+00 -0.00000000000E+00 -0.47030897675E+00  0.47031588971E+00  0.25500000000E-02 0.  1.
         31    1    1    2    0    0 -0.43268076628E-01  0.14524571731E-01  0.59392845617E+02  0.59857924452E+02  0.74470750000E+01 0. -1.
        -31    1    1    2    0    0  0.43268076628E-01 -0.14524571731E-01  0.58075200050E+02  0.58550746110E+02  0.74470750000E+01 0.  1.
<mgrwt>
<rscale>  0 0.14895352E+02</rscale>
<asrwt>0</asrwt>
<pdfrwt beam="1">  1        2 0.97908573E+00 0.14895352E+02</pdfrwt>
<pdfrwt beam="2">  1       -2 0.99881534E+00 0.14895352E+02</pdfrwt>
<totfact>-0.35197239E-13</totfact>
</mgrwt>
</event>
<event>
 4    1  0.4926183E-019  0.1491366E+02  0.7818608E-02  0.1870715E+00
         -2   -1    0    0    0  501 -0.00000000000E+00  0.00000000000E+00  0.11821185686E+03  0.11821185688E+03  0.25500000000E-02 0.  1.
          2   -1    0    0  501    0  0.00000000000E+00 -0.00000000000E+00 -0.47037471428E+00  0.47038162627E+00  0.25500000000E-02 0. -1.
         31    1    1    2    0    0 -0.28599500555E+00 -0.18128423034E+00  0.60265020195E+02  0.60724346371E+02  0.74470750000E+01 0. -1.
        -31    1    1    2    0    0  0.28599500555E+00  0.18128423034E+00  0.57476461947E+02  0.57957892138E+02  0.74470750000E+01 0. -1.
<mgrwt>
<rscale>  0 0.14913656E+02</rscale>
<asrwt>0</asrwt>
<pdfrwt beam="2">  1        2 0.99896357E+00 0.14913656E+02</pdfrwt>
<pdfrwt beam="1">  1       -2 0.98134779E+00 0.14913656E+02</pdfrwt>
<totfact> 0.35256258E-13</totfact>
</mgrwt>
</event>
<event>
 4    1  0.4926183E-019  0.1491428E+02  0.7818608E-02  0.1870695E+00
          2   -1    0    0  501    0  0.00000000000E+00  0.00000000000E+00  0.12021978077E+03  0.12021978080E+03  0.25500000000E-02 0.  1.
         -2   -1    0    0    0  501 -0.00000000000E+00 -0.00000000000E+00 -0.46255731734E+00  0.46256434614E+00  0.25500000000E-02 0. -1.
         31    1    1    2    0    0 -0.45988636160E-01  0.27196471067E+00  0.57678029864E+02  0.58157459838E+02  0.74470750000E+01 0.  1.
        -31    1    1    2    0    0  0.45988636160E-01 -0.27196471067E+00  0.62079193593E+02  0.62524885310E+02  0.74470750000E+01 0.  1.
<mgrwt>
<rscale>  0 0.14914284E+02</rscale>
<asrwt>0</asrwt>
<pdfrwt beam="1">  1        2 0.99788607E+00 0.14914284E+02</pdfrwt>
<pdfrwt beam="2">  1       -2 0.98249020E+00 0.14914284E+02</pdfrwt>
<totfact> 0.50916052E-13</totfact>
</mgrwt>
</event>
<event>
 4    1 -0.4926183E-019  0.1496043E+02  0.7818608E-02  0.1869279E+00
          2   -1    0    0  501    0  0.00000000000E+00  0.00000000000E+00  0.11926393996E+03  0.11926393999E+03  0.25500000000E-02 0. -1.
         -2   -1    0    0    0  501 -0.00000000000E+00 -0.00000000000E+00 -0.46915407815E+00  0.46916100813E+00  0.25500000000E-02 0.  1.
         31    1    1    2    0    0 -0.20585487875E+00  0.61638353695E+00  0.61550113479E+02  0.62002400762E+02  0.74470750000E+01 0.  1.
        -31    1    1    2    0    0  0.20585487875E+00 -0.61638353695E+00  0.57244672405E+02  0.57730700236E+02  0.74470750000E+01 0.  1.
<mgrwt>
<rscale>  0 0.14960425E+02</rscale>
<asrwt>0</asrwt>
<pdfrwt beam="1">  1        2 0.99003705E+00 0.14960425E+02</pdfrwt>
<pdfrwt beam="2">  1       -2 0.99641626E+00 0.14960425E+02</pdfrwt>
<totfact>-0.15839126E-13</totfact>
</mgrwt>
</event>
<event>
 4    1  0.4926183E-019  0.1492359E+02  0.7818608E-02  0.1870409E+00
         -2   -1    0    0    0  501 -0.00000000000E+00  0.00000000000E+00  0.11834316199E+03  0.11834316202E+03  0.25500000000E-02 0. -1.
          2   -1    0    0  501    0  0.00000000000E+00 -0.00000000000E+00 -0.47047917626E+00  0.47048608671E+00  0.25500000000E-02 0.  1.
         31    1    1    2    0    0 -0.18271974505E+00  0.27996582983E+00  0.61549255888E+02  0.61999045104E+02  0.74470750000E+01 0. -1.
        -31    1    1    2    0    0  0.18271974505E+00 -0.27996582983E+00  0.56323426930E+02  0.56814603004E+02  0.74470750000E+01 0.  1.
<mgrwt>
<rscale>  0 0.14923593E+02</rscale>
<asrwt>0</asrwt>
<pdfrwt beam="2">  1        2 0.99918894E+00 0.14923593E+02</pdfrwt>
<pdfrwt beam="1">  1       -2 0.98243437E+00 0.14923593E+02</pdfrwt>
<totfact> 0.22832313E-13</totfact>
</mgrwt>
</event>
<event>
 4    1 -0.4926183E-019  0.1495040E+02  0.7818608E-02  0.1869586E+00
          2   -1    0    0  501    0  0.00000000000E+00  0.00000000000E+00  0.11963636809E+03  0.11963636812E+03  0.25500000000E-02 0.  1.
         -2   -1    0    0    0  501 -0.00000000000E+00 -0.00000000000E+00 -0.46706687933E+00  0.46707384027E+00  0.25500000000E-02 0. -1.
         31    1    1    2    0    0  0.57156269351E+00 -0.24110929828E-02  0.57134919670E+02  0.57621043565E+02  0.74470750000E+01 0.  1.
        -31    1    1    2    0    0 -0.57156269351E+00  0.24110929828E-02  0.62034381540E+02  0.62482398392E+02  0.74470750000E+01 0.  1.
<mgrwt>
<rscale>  0 0.14950399E+02</rscale>
<asrwt>0</asrwt>
<pdfrwt beam="1">  1        2 0.99309929E+00 0.14950399E+02</pdfrwt>
<pdfrwt beam="2">  1       -2 0.99201276E+00 0.14950399E+02</pdfrwt>
<totfact>-0.92822637E-14</totfact>
</mgrwt>
</event>
<event>
 4    1 -0.4926183E-019  0.1491158E+02  0.7818608E-02  0.1870779E+00
         -2   -1    0    0    0  501 -0.00000000000E+00  0.00000000000E+00  0.12014125268E+03  0.12014125271E+03  0.25500000000E-02 0.  1.
          2   -1    0    0  501    0  0.00000000000E+00 -0.00000000000E+00 -0.46269170786E+00  0.46269873463E+00  0.25500000000E-02 0. -1.
         31    1    1    2    0    0  0.45946402074E-01 -0.24295331367E+00  0.57719016356E+02  0.58197980313E+02  0.74470750000E+01 0.  1.
        -31    1    1    2    0    0 -0.45946402074E-01  0.24295331367E+00  0.61959544615E+02  0.62405971127E+02  0.74470750000E+01 0.  1.
<mgrwt>
<rscale>  0 0.14911578E+02</rscale>
<asrwt>0</asrwt>
<pdfrwt beam="2">  1        2 0.98277209E+00 0.14911578E+02</pdfrwt>
<pdfrwt beam="1">  1       -2 0.99723785E+00 0.14911578E+02</pdfrwt>
<totfact>-0.38137021E-13</totfact>
</mgrwt>
</event>
<event>
 4    1  0.4926183E-019  0.1491573E+02  0.7818608E-02  0.1870651E+00
          2   -1    0    0  501    0  0.00000000000E+00  0.00000000000E+00  0.12016695877E+03  0.12016695879E+03  0.25500000000E-02 0.  1.
         -2   -1    0    0    0  501 -0.00000000000E+00 -0.00000000000E+00 -0.46285021796E+00  0.46285724231E+00  0.25500000000E-02 0. -1.
         31    1    1    2    0    0  0.10068728908E+00  0.34502413713E+00  0.58413885509E+02  0.58887775692E+02  0.74470750000E+01 0. -1.
        -31    1    1    2    0    0 -0.10068728908E+00 -0.34502413713E+00  0.61290223039E+02  0.61742040344E+02  0.74470750000E+01 0. -1.
<mgrwt>
<rscale>  0 0.14915727E+02</rscale>
<asrwt>0</asrwt>
<pdfrwt beam="1">  1        2 0.99745172E+00 0.14915727E+02</pdfrwt>
<pdfrwt beam="2">  1       -2 0.98310828E+00 0.14915727E+02</pdfrwt>
<totfact> 0.51221401E-13</totfact>
</mgrwt>
</event>
<event>
 4    1  0.4926183E-019  0.1491245E+02  0.7818608E-02  0.1870752E+00
          2   -1    0    0  501    0  0.00000000000E+00  0.00000000000E+00  0.11995818111E+03  0.11995818114E+03  0.25500000000E-02 0.  1.
         -2   -1    0    0    0  501 -0.00000000000E+00 -0.00000000000E+00 -0.46345211609E+00  0.46345913133E+00  0.25500000000E-02 0. -1.
         31    1    1    2    0    0  0.76407700873E-01 -0.36095310261E+00  0.59620820653E+02  0.60085250325E+02  0.74470750000E+01 0.  1.
        -31    1    1    2    0    0 -0.76407700873E-01  0.36095310261E+00  0.59873908340E+02  0.60336389942E+02  0.74470750000E+01 0.  1.
<mgrwt>
<rscale>  0 0.14912451E+02</rscale>
<asrwt>0</asrwt>
<pdfrwt beam="1">  1        2 0.99573038E+00 0.14912451E+02</pdfrwt>
<pdfrwt beam="2">  1       -2 0.98437522E+00 0.14912451E+02</pdfrwt>
<totfact> 0.52723669E-13</totfact>
</mgrwt>
</event>
<event>
 4    1 -0.4926183E-019  0.1494522E+02  0.7818608E-02  0.1869745E+00
          2   -1    0    0  501    0  0.00000000000E+00  0.00000000000E+00  0.11926261852E+03  0.11926261855E+03  0.25500000000E-02 0.  1.
         -2   -1    0    0    0  501 -0.00000000000E+00 -0.00000000000E+00 -0.46820625582E+00  0.46821319982E+00  0.25500000000E-02 0. -1.
         31    1    1    2    0    0 -0.47168482513E+00  0.28786247126E+00  0.57193819068E+02  0.57679261585E+02  0.74470750000E+01 0. -1.
        -31    1    1    2    0    0  0.47168482513E+00 -0.28786247126E+00  0.61600593196E+02  0.62051570162E+02  0.74470750000E+01 0.  1.
<mgrwt>
<rscale>  0 0.14945223E+02</rscale>
<asrwt>0</asrwt>
<pdfrwt beam="1">  1        2 0.99001829E+00 0.14945223E+02</pdfrwt>
<pdfrwt beam="2">  1       -2 0.99441108E+00 0.14945223E+02</pdfrwt>
<totfact>-0.17786758E-13</totfact>
</mgrwt>
</event>
<event>
 4    1 -0.4926183E-019  0.1501259E+02  0.7818608E-02  0.1867684E+00
         -2   -1    0    0    0  501 -0.00000000000E+00  0.00000000000E+00  0.12037050572E+03  0.12037050575E+03  0.25500000000E-02 0.  1.
          2   -1    0    0  501    0  0.00000000000E+00 -0.00000000000E+00 -0.46808855297E+00  0.46809549872E+00  0.25500000000E-02 0. -1.
         31    1    1    2    0    0  0.62050628743E+00 -0.67000975611E+00  0.58122616922E+02  0.58604875779E+02  0.74470750000E+01 0. -1.
        -31    1    1    2    0    0 -0.62050628743E+00  0.67000975611E+00  0.61779800244E+02  0.62233725466E+02  0.74470750000E+01 0. -1.
<mgrwt>
<rscale>  0 0.15012592E+02</rscale>
<asrwt>0</asrwt>
<pdfrwt beam="2">  1        2 0.99419785E+00 0.15012592E+02</pdfrwt>
<pdfrwt beam="1">  1       -2 0.99917810E+00 0.15012592E+02</pdfrwt>
<totfact>-0.34857851E-14</totfact>
</mgrwt>
</event>
<event>
 4    1 -0.4926183E-019  0.1497190E+02  0.7818608E-02  0.1868927E+00
         -2   -1    0    0    0  501 -0.00000000000E+00  0.00000000000E+00  0.11994114370E+03  0.11994114372E+03  0.25500000000E-02 0. -1.
          2   -1    0    0  501    0  0.00000000000E+00 -0.00000000000E+00 -0.46722134157E+00  0.46722830021E+00  0.25500000000E-02 0.  1.
         31    1    1    2    0    0 -0.47030646669E+00  0.54638072362E+00  0.61720596325E+02  0.62172426821E+02  0.74470750000E+01 0. -1.
        -31    1    1    2    0    0  0.47030646669E+00 -0.54638072362E+00  0.57753326029E+02  0.58235945202E+02  0.74470750000E+01 0.  1.
<mgrwt>
<rscale>  0 0.14971905E+02</rscale>
<asrwt>0</asrwt>
<pdfrwt beam="2">  1        2 0.99234935E+00 0.14971905E+02</pdfrwt>
<pdfrwt beam="1">  1       -2 0.99562067E+00 0.14971905E+02</pdfrwt>
<totfact>-0.14330867E-13</totfact>
</mgrwt>
</event>
<event>
 4    1 -0.4926183E-019  0.1496933E+02  0.7818608E-02  0.1869006E+00
         -2   -1    0    0    0  501 -0.00000000000E+00  0.00000000000E+00  0.12013061831E+03  0.12013061833E+03  0.25500000000E-02 0. -1.
          2   -1    0    0  501    0  0.00000000000E+00 -0.00000000000E+00 -0.46632370611E+00  0.46633067815E+00  0.25500000000E-02 0.  1.
         31    1    1    2    0    0  0.74676714565E+00  0.59600057975E-01  0.59782622868E+02  0.60249333078E+02  0.74470750000E+01 0.  1.
        -31    1    1    2    0    0 -0.74676714565E+00 -0.59600057975E-01  0.59881671734E+02  0.60347615935E+02  0.74470750000E+01 0. -1.
<mgrwt>
<rscale>  0 0.14969326E+02</rscale>
<asrwt>0</asrwt>
<pdfrwt beam="2">  1        2 0.99045629E+00 0.14969326E+02</pdfrwt>
<pdfrwt beam="1">  1       -2 0.99717995E+00 0.14969326E+02</pdfrwt>
<totfact>-0.13164348E-13</totfact>
</mgrwt>
</event>
<event>
 4    1  0.4926183E-019  0.1492259E+02  0.7818608E-02  0.1870440E+00
         -2   -1    0    0    0  501 -0.00000000000E+00  0.00000000000E+00  0.11867458611E+03  0.11867458614E+03  0.25500000000E-02 0.  1.
          2   -1    0    0  501    0  0.00000000000E+00 -0.00000000000E+00 -0.46910221688E+00  0.46910914762E+00  0.25500000000E-02 0. -1.
         31    1    1    2    0    0  0.34866539958E+00 -0.18276629666E-01  0.56706199518E+02  0.57194177076E+02  0.74470750000E+01 0.  1.
        -31    1    1    2    0    0 -0.34866539958E+00  0.18276629666E-01  0.61499284377E+02  0.61949518211E+02  0.74470750000E+01 0.  1.
<mgrwt>
<rscale>  0 0.14922590E+02</rscale>
<asrwt>0</asrwt>
<pdfrwt beam="2">  1        2 0.99628717E+00 0.14922590E+02</pdfrwt>
<pdfrwt beam="1">  1       -2 0.98516343E+00 0.14922590E+02</pdfrwt>
<totfact> 0.39159336E-13</totfact>
</mgrwt>
</event>
<event>
 4    1  0.4926183E-019  0.1490156E+02  0.7818608E-02  0.1871087E+00
          2   -1    0    0  501    0  0.00000000000E+00  0.00000000000E+00  0.12017433115E+03  0.12017433118E+03  0.25500000000E-02 0.  1.
         -2   -1    0    0    0  501 -0.00000000000E+00 -0.00000000000E+00 -0.46194311892E+00  0.46195015707E+00  0.25500000000E-02 0. -1.
         31    1    1    2    0    0  0.14165624177E+00  0.16346126698E+00  0.59113369784E+02  0.59581005357E+02  0.74470750000E+01 0. -1.
        -31    1    1    2    0    0 -0.14165624177E+00 -0.16346126698E+00  0.60599018248E+02  0.61055275978E+02  0.74470750000E+01 0. -1.
<mgrwt>
<rscale>  0 0.14901561E+02</rscale>
<asrwt>0</asrwt>
<pdfrwt beam="1">  1        2 0.99750518E+00 0.14901561E+02</pdfrwt>
<pdfrwt beam="2">  1       -2 0.98118921E+00 0.14901561E+02</pdfrwt>
<totfact> 0.74388025E-13</totfact>
</mgrwt>
</event>
<event>
 4    1 -0.4926183E-019  0.1490448E+02  0.7818608E-02  0.1870997E+00
          2   -1    0    0  501    0  0.00000000000E+00  0.00000000000E+00  0.11841945578E+03  0.11841945581E+03  0.25500000000E-02 0. -1.
         -2   -1    0    0    0  501 -0.00000000000E+00 -0.00000000000E+00 -0.46897260469E+00  0.46897953734E+00  0.25500000000E-02 0.  1.
         31    1    1    2    0    0  0.18414677412E+00  0.14679379484E+00  0.60145121981E+02  0.60604868473E+02  0.74470750000E+01 0. -1.
        -31    1    1    2    0    0 -0.18414677412E+00 -0.14679379484E+00  0.57805361197E+02  0.58283566874E+02  0.74470750000E+01 0.  1.
<mgrwt>
<rscale>  0 0.14904482E+02</rscale>
<asrwt>0</asrwt>
<pdfrwt beam="1">  1        2 0.98305277E+00 0.14904482E+02</pdfrwt>
<pdfrwt beam="2">  1       -2 0.99600454E+00 0.14904482E+02</pdfrwt>
<totfact>-0.45017293E-13</totfact>
</mgrwt>
</event>
<event>
 4    1  0.4926183E-019  0.1492473E+02  0.7818608E-02  0.1870374E+00
          2   -1    0    0  501    0  0.00000000000E+00  0.00000000000E+00  0.12002623335E+03  0.12002623338E+03  0.25500000000E-02 0.  1.
         -2   -1    0    0    0  501 -0.00000000000E+00 -0.00000000000E+00 -0.46395257412E+00  0.46395958178E+00  0.25500000000E-02 0. -1.
         31    1    1    2    0    0  0.85230110550E-02  0.32040686796E+00  0.56924046841E+02  0.57410005818E+02  0.74470750000E+01 0. -1.
        -31    1    1    2    0    0 -0.85230110550E-02 -0.32040686796E+00  0.62638233939E+02  0.63080187145E+02  0.74470750000E+01 0.  1.
<mgrwt>
<rscale>  0 0.14924732E+02</rscale>
<asrwt>0</asrwt>
<pdfrwt beam="1">  1        2 0.99629722E+00 0.14924732E+02</pdfrwt>
<pdfrwt beam="2">  1       -2 0.98543624E+00 0.14924732E+02</pdfrwt>
<totfact> 0.36059084E-13</totfact>
</mgrwt>
</event>
