<event>
 4    1  0.5160210E-019  0.1491827E+02  0.7818608E-02  0.1870573E+00
          2   -1    0    0  501    0  0.00000000000E+00  0.00000000000E+00  0.12030659880E+03  0.12030659882E+03  0.25500000000E-02 0. -1.
         -2   -1    0    0    0  501 -0.00000000000E+00 -0.00000000000E+00 -0.46247089374E+00  0.46247792385E+00  0.25500000000E-02 0.  1.
         31    1    1    2    0    0  0.36543418976E+00 -0.13732428762E+00  0.58582034321E+02  0.59054771792E+02  0.74470750000E+01 0.  1.
        -31    1    1    2    0    0 -0.36543418976E+00  0.13732428762E+00  0.61262093581E+02  0.61714304955E+02  0.74470750000E+01 0.  1.
<mgrwt>
<rscale>  0 0.14918274E+02</rscale>
<asrwt>0</asrwt>
<pdfrwt beam="1">  1        2 0.99860322E+00 0.14918274E+02</pdfrwt>
<pdfrwt beam="2">  1       -2 0.98231006E+00 0.14918274E+02</pdfrwt>
<totfact> 0.37805556E-13</totfact>
</mgrwt>
</event>
<event>
 4    1  0.5160210E-019  0.1490690E+02  0.7818608E-02  0.1870923E+00
         -2   -1    0    0    0  501 -0.00000000000E+00  0.00000000000E+00  0.11844796353E+03  0.11844796356E+03  0.25500000000E-02 0.  1.
          2   -1    0    0  501    0  0.00000000000E+00 -0.00000000000E+00 -0.46901157873E+00  0.46901851081E+00  0.25500000000E-02 0. -1.
         31    1    1    2    0    0  0.21358389751E+00 -0.18178090627E-01  0.57223521418E+02  0.57706466519E+02  0.74470750000E+01 0. -1.
        -31    1    1    2    0    0 -0.21358389751E+00  0.18178090627E-01  0.60755430534E+02  0.61210515550E+02  0.74470750000E+01 0. -1.
<mgrwt>
<rscale>  0 0.14906895E+02</rscale>
<asrwt>0</asrwt>
<pdfrwt beam="2">  1        2 0.99608793E+00 0.14906895E+02</pdfrwt>
<pdfrwt beam="1">  1       -2 0.98328881E+00 0.14906895E+02</pdfrwt>
<totfact> 0.65205188E-13</totfact>
</mgrwt>
</event>
<event>
 4    1  0.5160210E-019  0.1490775E+02  0.7818608E-02  0.1870897E+00
          2   -1    0    0  501    0  0.00000000000E+00  0.00000000000E+00  0.11987072686E+03  0.11987072689E+03  0.25500000000E-02 0. -1.
         -2   -1    0    0    0  501 -0.00000000000E+00 -0.00000000000E+00 -0.46349775248E+00  0.46350476702E+00  0.25500000000E-02 0.  1.
         31    1    1    2    0    0  0.21175407365E+00  0.11072943878E+00  0.58006410571E+02  0.58482986366E+02  0.74470750000E+01 0.  1.
        -31    1    1    2    0    0 -0.21175407365E+00 -0.11072943878E+00  0.61400818540E+02  0.61851245293E+02  0.74470750000E+01 0. -1.
<mgrwt>
<rscale>  0 0.14907748E+02</rscale>
<asrwt>0</asrwt>
<pdfrwt beam="1">  1        2 0.99500762E+00 0.14907748E+02</pdfrwt>
<pdfrwt beam="2">  1       -2 0.98446901E+00 0.14907748E+02</pdfrwt>
<totfact> 0.55972776E-13</totfact>
</mgrwt>
</event>
<event>
 4    1  0.5160210E-019  0.1493662E+02  0.7818608E-02  0.1870009E+00
          2   -1    0    0  501    0  0.00000000000E+00  0.00000000000E+00  0.12000380866E+03  0.12000380869E+03  0.25500000000E-02 0.  1.
         -2   -1    0    0    0  501 -0.00000000000E+00 -0.00000000000E+00 -0.46477880675E+00  0.46478580196E+00  0.25500000000E-02 0. -1.
         31    1    1    2    0    0  0.31885261192E-01  0.55204998345E+00  0.58925616277E+02  0.59396910320E+02  0.74470750000E+01 0.  1.
        -31    1    1    2    0    0 -0.31885261192E-01 -0.55204998345E+00  0.60613413578E+02  0.61071684171E+02  0.74470750000E+01 0.  1.
<mgrwt>
<rscale>  0 0.14936619E+02</rscale>
<asrwt>0</asrwt>
<pdfrwt beam="1">  1        2 0.99611863E+00 0.14936619E+02</pdfrwt>
<pdfrwt beam="2">  1       -2 0.98718365E+00 0.14936619E+02</pdfrwt>
<totfact> 0.19750706E-13</totfact>
</mgrwt>
</event>
<event>
 4    1 -0.5160210E-019  0.1489977E+02  0.7818608E-02  0.1871143E+00
         -2   -1    0    0    0  501 -0.00000000000E+00  0.00000000000E+00  0.11963424459E+03  0.11963424461E+03  0.25500000000E-02 0.  1.
          2   -1    0    0  501    0  0.00000000000E+00 -0.00000000000E+00 -0.46391677771E+00  0.46392378592E+00  0.25500000000E-02 0. -1.
         31    1    1    2    0    0  0.19732549749E+00 -0.49268326789E-01  0.59411360671E+02  0.59876623715E+02  0.74470750000E+01 0. -1.
        -31    1    1    2    0    0 -0.19732549749E+00  0.49268326789E-01  0.59758967138E+02  0.60221544685E+02  0.74470750000E+01 0. -1.
<mgrwt>
<rscale>  0 0.14899766E+02</rscale>
<asrwt>0</asrwt>
<pdfrwt beam="2">  1        2 0.98534807E+00 0.14899766E+02</pdfrwt>
<pdfrwt beam="1">  1       -2 0.99305568E+00 0.14899766E+02</pdfrwt>
<totfact>-0.28779686E-13</totfact>
</mgrwt>
</event>
<event>
 4    1 -0.5160210E-019  0.1495131E+02  0.7818608E-02  0.1869558E+00
         -2   -1    0    0    0  501 -0.00000000000E+00  0.00000000000E+00  0.11967044482E+03  0.11967044485E+03  0.25500000000E-02 0. -1.
          2   -1    0    0  501    0  0.00000000000E+00 -0.00000000000E+00 -0.46699091352E+00  0.46699787559E+00  0.25500000000E-02 0.  1.
         31    1    1    2    0    0  0.12423450328E+00  0.43576969056E+00  0.55822814743E+02  0.56319187683E+02  0.74470750000E+01 0.  1.
        -31    1    1    2    0    0 -0.12423450328E+00 -0.43576969056E+00  0.63380639161E+02  0.63818255037E+02  0.74470750000E+01 0. -1.
<mgrwt>
<rscale>  0 0.14951312E+02</rscale>
<asrwt>0</asrwt>
<pdfrwt beam="2">  1        2 0.99185314E+00 0.14951312E+02</pdfrwt>
<pdfrwt beam="1">  1       -2 0.99338043E+00 0.14951312E+02</pdfrwt>
<totfact>-0.14088992E-13</totfact>
</mgrwt>
</event>
<event>
 4    1 -0.5160210E-019  0.1497539E+02  0.7818608E-02  0.1868820E+00
          2   -1    0    0  501    0  0.00000000000E+00  0.00000000000E+00  0.11931998171E+03  0.11931998174E+03  0.25500000000E-02 0. -1.
         -2   -1    0    0    0  501 -0.00000000000E+00 -0.00000000000E+00 -0.46987226733E+00  0.46987918671E+00  0.25500000000E-02 0.  1.
         31    1    1    2    0    0  0.77475356116E+00 -0.64597085627E-01  0.59802329294E+02  0.60269245316E+02  0.74470750000E+01 0.  1.
        -31    1    1    2    0    0 -0.77475356116E+00  0.64597085627E-01  0.59047780151E+02  0.59520615611E+02  0.74470750000E+01 0. -1.
<mgrwt>
<rscale>  0 0.14975389E+02</rscale>
<asrwt>0</asrwt>
<pdfrwt beam="1">  1        2 0.99050638E+00 0.14975389E+02</pdfrwt>
<pdfrwt beam="2">  1       -2 0.99793743E+00 0.14975389E+02</pdfrwt>
<totfact>-0.10386507E-13</totfact>
</mgrwt>
</event>
<event>
 4    1 -0.5160210E-019  0.1498150E+02  0.7818608E-02  0.1868634E+00
          2   -1    0    0  501    0  0.00000000000E+00  0.00000000000E+00  0.11947458951E+03  0.11947458954E+03  0.25500000000E-02 0. -1.
         -2   -1    0    0    0  501 -0.00000000000E+00 -0.00000000000E+00 -0.46964712557E+00  0.46965404827E+00  0.25500000000E-02 0.  1.
         31    1    1    2    0    0  0.19444464398E-01 -0.25641177831E+00  0.53372329525E+02  0.53889986176E+02  0.74470750000E+01 0.  1.
        -31    1    1    2    0    0 -0.19444464398E-01  0.25641177831E+00  0.65632612864E+02  0.66054257414E+02  0.74470750000E+01 0. -1.
<mgrwt>
<rscale>  0 0.14981497E+02</rscale>
<asrwt>0</asrwt>
<pdfrwt beam="1">  1        2 0.99178293E+00 0.14981497E+02</pdfrwt>
<pdfrwt beam="2">  1       -2 0.99746620E+00 0.14981497E+02</pdfrwt>
<totfact>-0.10966592E-13</totfact>
</mgrwt>
</event>
<event>
 4    1 -0.5160210E-019  0.1500474E+02  0.7818608E-02  0.1867924E+00
         -2   -1    0    0    0  501 -0.00000000000E+00  0.00000000000E+00  0.12000271946E+03  0.12000271949E+03  0.25500000000E-02 0.  1.
          2   -1    0    0  501    0  0.00000000000E+00 -0.00000000000E+00 -0.46903197539E+00  0.46903890717E+00  0.25500000000E-02 0. -1.
         31    1    1    2    0    0 -0.66748480808E+00  0.61303255622E+00  0.59184495679E+02  0.59658065672E+02  0.74470750000E+01 0.  1.
        -31    1    1    2    0    0  0.66748480808E+00 -0.61303255622E+00  0.60349191809E+02  0.60813692726E+02  0.74470750000E+01 0.  1.
<mgrwt>
<rscale>  0 0.15004737E+02</rscale>
<asrwt>0</asrwt>
<pdfrwt beam="2">  1        2 0.99618198E+00 0.15004737E+02</pdfrwt>
<pdfrwt beam="1">  1       -2 0.99614479E+00 0.15004737E+02</pdfrwt>
<totfact>-0.94791581E-14</totfact>
</mgrwt>
</event>
<event>
 4    1 -0.5160210E-019  0.1495900E+02  0.7818608E-02  0.1869322E+00
          2   -1    0    0  501    0  0.00000000000E+00  0.00000000000E+00  0.11989637932E+03  0.11989637934E+03  0.25500000000E-02 0. -1.
         -2   -1    0    0    0  501 -0.00000000000E+00 -0.00000000000E+00 -0.46659027964E+00  0.46659724770E+00  0.25500000000E-02 0.  1.
         31    1    1    2    0    0  0.18147337702E+00 -0.67071256279E+00  0.59992709552E+02  0.60457149399E+02  0.74470750000E+01 0.  1.
        -31    1    1    2    0    0 -0.18147337702E+00  0.67071256279E+00  0.59437079485E+02  0.59905827193E+02  0.74470750000E+01 0.  1.
<mgrwt>
<rscale>  0 0.14958998E+02</rscale>
<asrwt>0</asrwt>
<pdfrwt beam="1">  1        2 0.99524530E+00 0.14958998E+02</pdfrwt>
<pdfrwt beam="2">  1       -2 0.99101279E+00 0.14958998E+02</pdfrwt>
<totfact>-0.41213199E-14</totfact>
</mgrwt>
</event>
<event>
 4    1 -0.5160210E-019  0.1499714E+02  0.7818608E-02  0.1868156E+00
          2   -1    0    0  501    0  0.00000000000E+00  0.00000000000E+00  0.11986093731E+03  0.11986093734E+03  0.25500000000E-02 0.  1.
         -2   -1    0    0    0  501 -0.00000000000E+00 -0.00000000000E+00 -0.46911127707E+00  0.46911820768E+00  0.25500000000E-02 0. -1.
         31    1    1    2    0    0  0.23834530737E+00 -0.31371196730E+00  0.65984983701E+02  0.66405061733E+02  0.74470750000E+01 0.  1.
        -31    1    1    2    0    0 -0.23834530737E+00  0.31371196730E+00  0.53406842334E+02  0.53924993814E+02  0.74470750000E+01 0. -1.
<mgrwt>
<rscale>  0 0.14997138E+02</rscale>
<asrwt>0</asrwt>
<pdfrwt beam="1">  1        2 0.99497309E+00 0.14997138E+02</pdfrwt>
<pdfrwt beam="2">  1       -2 0.99634516E+00 0.14997138E+02</pdfrwt>
<totfact>-0.10758216E-13</totfact>
</mgrwt>
</event>
<event>
 4    1  0.5160210E-019  0.1493515E+02  0.7818608E-02  0.1870054E+00
         -2   -1    0    0    0  501 -0.00000000000E+00  0.00000000000E+00  0.11873966262E+03  0.11873966265E+03  0.25500000000E-02 0. -1.
          2   -1    0    0  501    0  0.00000000000E+00 -0.00000000000E+00 -0.46963473589E+00  0.46964165877E+00  0.25500000000E-02 0.  1.
         31    1    1    2    0    0 -0.40075246418E+00 -0.81588915776E-01  0.62105475119E+02  0.62551708411E+02  0.74470750000E+01 0. -1.
        -31    1    1    2    0    0  0.40075246418E+00  0.81588915776E-01  0.56164552765E+02  0.56657595895E+02  0.74470750000E+01 0.  1.
<mgrwt>
<rscale>  0 0.14935151E+02</rscale>
<asrwt>0</asrwt>
<pdfrwt beam="2">  1        2 0.99741582E+00 0.14935151E+02</pdfrwt>
<pdfrwt beam="1">  1       -2 0.98570593E+00 0.14935151E+02</pdfrwt>
<totfact> 0.26119165E-13</totfact>
</mgrwt>
</event>
<event>
 4    1 -0.5160210E-019  0.1503282E+02  0.7818608E-02  0.1867069E+00
          2   -1    0    0  501    0  0.00000000000E+00  0.00000000000E+00  0.12007639189E+03  0.12007639192E+03  0.25500000000E-02 0. -1.
         -2   -1    0    0    0  501 -0.00000000000E+00 -0.00000000000E+00 -0.47050060148E+00  0.47050751163E+00  0.25500000000E-02 0.  1.
         31    1    1    2    0    0 -0.66124380762E+00 -0.45719594431E+00  0.54787211777E+02  0.55296869458E+02  0.74470750000E+01 0.  1.
        -31    1    1    2    0    0  0.66124380762E+00  0.45719594431E+00  0.64818679515E+02  0.65250029975E+02  0.74470750000E+01 0. -1.
<mgrwt>
<rscale>  0 0.15032822E+02</rscale>
<asrwt>0</asrwt>
<pdfrwt beam="1">  1        2 0.99676611E+00 0.15032822E+02</pdfrwt>
<pdfrwt beam="2">  1       -2 0.99929138E+00 0.15032822E+02</pdfrwt>
<totfact>-0.21841580E-14</totfact>
</mgrwt>
</event>
<event>
 4    1  0.5160210E-019  0.1495256E+02  0.7818608E-02  0.1869520E+00
          2   -1    0    0  501    0  0.00000000000E+00  0.00000000000E+00  0.11996481482E+03  0.11996481485E+03  0.25500000000E-02 0. -1.
         -2   -1    0    0    0  501 -0.00000000000E+00 -0.00000000000E+00 -0.46592277242E+00  0.46592975046E+00  0.25500000000E-02 0.  1.
         31    1    1    2    0    0 -0.33605115861E-01 -0.22670019081E+00  0.64735975263E+02  0.65163317454E+02  0.74470750000E+01 0. -1.
        -31    1    1    2    0    0  0.33605115861E-01  0.22670019081E+00  0.54762916787E+02  0.55267427146E+02  0.74470750000E+01 0.  1.
<mgrwt>
<rscale>  0 0.14952560E+02</rscale>
<asrwt>0</asrwt>
<pdfrwt beam="1">  1        2 0.99580566E+00 0.14952560E+02</pdfrwt>
<pdfrwt beam="2">  1       -2 0.98960274E+00 0.14952560E+02</pdfrwt>
<totfact> 0.29210100E-14</totfact>
</mgrwt>
</event>
<event>
 4    1 -0.5160210E-019  0.1495158E+02  0.7818608E-02  0.1869550E+00
          2   -1    0    0  501    0  0.00000000000E+00  0.00000000000E+00  0.11941380173E+03  0.11941380176E+03  0.25500000000E-02 0. -1.
         -2   -1    0    0    0  501 -0.00000000000E+00 -0.00000000000E+00 -0.46801115511E+00  0.46801810201E+00  0.25500000000E-02 0.  1.
         31    1    1    2    0    0  0.36103008007E-01  0.65355810337E+00  0.59524635787E+02  0.59992246443E+02  0.74470750000E+01 0.  1.
        -31    1    1    2    0    0 -0.36103008007E-01 -0.65355810337E+00  0.59421154788E+02  0.59889573417E+02  0.74470750000E+01 0.  1.
<mgrwt>
<rscale>  0 0.14951576E+02</rscale>
<asrwt>0</asrwt>
<pdfrwt beam="1">  1        2 0.99126676E+00 0.14951576E+02</pdfrwt>
<pdfrwt beam="2">  1       -2 0.99400326E+00 0.14951576E+02</pdfrwt>
<totfact>-0.15660847E-13</totfact>
</mgrwt>
</event>
<event>
 4    1 -0.5160210E-019  0.1491348E+02  0.7818608E-02  0.1870720E+00
         -2   -1    0    0    0  501 -0.00000000000E+00  0.00000000000E+00  0.11987980969E+03  0.11987980972E+03  0.25500000000E-02 0.  1.
          2   -1    0    0  501    0  0.00000000000E+00 -0.00000000000E+00 -0.46381893921E+00  0.46382594890E+00  0.25500000000E-02 0. -1.
         31    1    1    2    0    0 -0.18519435468E+00 -0.31656351456E+00  0.58920898021E+02  0.59390787661E+02  0.74470750000E+01 0. -1.
        -31    1    1    2    0    0  0.18519435468E+00  0.31656351456E+00  0.60495092729E+02  0.60952848003E+02  0.74470750000E+01 0.  1.
<mgrwt>
<rscale>  0 0.14913477E+02</rscale>
<asrwt>0</asrwt>
<pdfrwt beam="2">  1        2 0.98514886E+00 0.14913477E+02</pdfrwt>
<pdfrwt beam="1">  1       -2 0.99508538E+00 0.14913477E+02</pdfrwt>
<totfact>-0.33816470E-13</totfact>
</mgrwt>
</event>
<event>
 4    1  0.5160210E-019  0.1489637E+02  0.7818608E-02  0.1871247E+00
         -2   -1    0    0    0  501 -0.00000000000E+00  0.00000000000E+00  0.11865506241E+03  0.11865506243E+03  0.25500000000E-02 0. -1.
          2   -1    0    0  501    0  0.00000000000E+00 -0.00000000000E+00 -0.46753235808E+00  0.46753931209E+00  0.25500000000E-02 0.  1.
         31    1    1    2    0    0  0.51397063193E-01 -0.34091519660E-01  0.59997327151E+02  0.60457770346E+02  0.74470750000E+01 0. -1.
        -31    1    1    2    0    0 -0.51397063193E-01  0.34091519660E-01  0.58190202897E+02  0.58664831399E+02  0.74470750000E+01 0. -1.
<mgrwt>
<rscale>  0 0.14896375E+02</rscale>
<asrwt>0</asrwt>
<pdfrwt beam="2">  1        2 0.99296557E+00 0.14896375E+02</pdfrwt>
<pdfrwt beam="1">  1       -2 0.98498902E+00 0.14896375E+02</pdfrwt>
<totfact> 0.57570606E-13</totfact>
</mgrwt>
</event>
<event>
 4    1 -0.5160210E-019  0.1490530E+02  0.7818608E-02  0.1870972E+00
         -2   -1    0    0    0  501 -0.00000000000E+00  0.00000000000E+00  0.12036894302E+03  0.12036894304E+03  0.25500000000E-02 0.  1.
          2   -1    0    0  501    0  0.00000000000E+00 -0.00000000000E+00 -0.46142756753E+00  0.46143461354E+00  0.25500000000E-02 0. -1.
         31    1    1    2    0    0 -0.25805948077E+00 -0.62467585955E-01  0.59045501506E+02  0.59513869568E+02  0.74470750000E+01 0. -1.
        -31    1    1    2    0    0  0.25805948077E+00  0.62467585955E-01  0.60862013944E+02  0.61316508090E+02  0.74470750000E+01 0.  1.
<mgrwt>
<rscale>  0 0.14905298E+02</rscale>
<asrwt>0</asrwt>
<pdfrwt beam="2">  1        2 0.98010443E+00 0.14905298E+02</pdfrwt>
<pdfrwt beam="1">  1       -2 0.99911010E+00 0.14905298E+02</pdfrwt>
<totfact>-0.22965413E-13</totfact>
</mgrwt>
</event>
<event>
 4    1  0.5160210E-019  0.1494346E+02  0.7818608E-02  0.1869799E+00
         -2   -1    0    0    0  501 -0.00000000000E+00  0.00000000000E+00  0.11886113333E+03  0.11886113336E+03  0.25500000000E-02 0. -1.
          2   -1    0    0  501    0  0.00000000000E+00 -0.00000000000E+00 -0.46967724611E+00  0.46968416836E+00  0.25500000000E-02 0.  1.
         31    1    1    2    0    0  0.21493350156E-01  0.37846836953E+00  0.62976482979E+02  0.63416401937E+02  0.74470750000E+01 0. -1.
        -31    1    1    2    0    0 -0.21493350156E-01 -0.37846836953E+00  0.55414973105E+02  0.55914415588E+02  0.74470750000E+01 0.  1.
<mgrwt>
<rscale>  0 0.14943465E+02</rscale>
<asrwt>0</asrwt>
<pdfrwt beam="2">  1        2 0.99750976E+00 0.14943465E+02</pdfrwt>
<pdfrwt beam="1">  1       -2 0.98671069E+00 0.14943465E+02</pdfrwt>
<totfact> 0.17889710E-13</totfact>
</mgrwt>
</event>
<event>
 4    1 -0.5160210E-019  0.1492580E+02  0.7818608E-02  0.1870341E+00
          2   -1    0    0  501    0  0.00000000000E+00  0.00000000000E+00  0.11888607145E+03  0.11888607147E+03  0.25500000000E-02 0. -1.
         -2   -1    0    0    0  501 -0.00000000000E+00 -0.00000000000E+00 -0.46846932826E+00  0.46847626836E+00  0.25500000000E-02 0.  1.
         31    1    1    2    0    0 -0.14714235137E+00  0.20696361510E+00  0.62520202061E+02  0.62962680031E+02  0.74470750000E+01 0. -1.
        -31    1    1    2    0    0  0.14714235137E+00 -0.20696361510E+00  0.55897400058E+02  0.56391867712E+02  0.74470750000E+01 0.  1.
<mgrwt>
<rscale>  0 0.14925802E+02</rscale>
<asrwt>0</asrwt>
<pdfrwt beam="1">  1        2 0.98690691E+00 0.14925802E+02</pdfrwt>
<pdfrwt beam="2">  1       -2 0.99495529E+00 0.14925802E+02</pdfrwt>
<totfact>-0.25914270E-13</totfact>
</mgrwt>
</event>
<event>
 4    1 -0.5160210E-019  0.1498716E+02  0.7818608E-02  0.1868461E+00
         -2   -1    0    0    0  501 -0.00000000000E+00  0.00000000000E+00  0.11967427864E+03  0.11967427867E+03  0.25500000000E-02 0. -1.
          2   -1    0    0  501    0  0.00000000000E+00 -0.00000000000E+00 -0.46921807816E+00  0.46922500719E+00  0.25500000000E-02 0.  1.
         31    1    1    2    0    0 -0.21765479886E+00  0.78879976287E+00  0.60876314411E+02  0.61335586416E+02  0.74470750000E+01 0.  1.
        -31    1    1    2    0    0  0.21765479886E+00 -0.78879976287E+00  0.58328746151E+02  0.58807917259E+02  0.74470750000E+01 0.  1.
<mgrwt>
<rscale>  0 0.14987162E+02</rscale>
<asrwt>0</asrwt>
<pdfrwt beam="2">  1        2 0.99656505E+00 0.14987162E+02</pdfrwt>
<pdfrwt beam="1">  1       -2 0.99343055E+00 0.14987162E+02</pdfrwt>
<totfact>-0.89152263E-14</totfact>
</mgrwt>
</event>
<event>
 4    1  0.5160210E-019  0.1491875E+02  0.7818608E-02  0.1870558E+00
         -2   -1    0    0    0  501 -0.00000000000E+00  0.00000000000E+00  0.11839130311E+03  0.11839130314E+03  0.25500000000E-02 0.  1.
          2   -1    0    0  501    0  0.00000000000E+00 -0.00000000000E+00 -0.46998267005E+00  0.46998958780E+00  0.25500000000E-02 0. -1.
         31    1    1    2    0    0  0.18255451422E+00  0.36436315603E+00  0.57913921316E+02  0.58392185221E+02  0.74470750000E+01 0. -1.
        -31    1    1    2    0    0 -0.18255451422E+00 -0.36436315603E+00  0.60007399128E+02  0.60469107509E+02  0.74470750000E+01 0.  1.
<mgrwt>
<rscale>  0 0.14918750E+02</rscale>
<asrwt>0</asrwt>
<pdfrwt beam="2">  1        2 0.99814026E+00 0.14918750E+02</pdfrwt>
<pdfrwt beam="1">  1       -2 0.98282833E+00 0.14918750E+02</pdfrwt>
<totfact> 0.42881386E-13</totfact>
</mgrwt>
</event>
<event>
 4    1  0.5160210E-019  0.1491155E+02  0.7818608E-02  0.1870779E+00
         -2   -1    0    0    0  501 -0.00000000000E+00  0.00000000000E+00  0.11815100284E+03  0.11815100287E+03  0.25500000000E-02 0.  1.
          2   -1    0    0  501    0  0.00000000000E+00 -0.00000000000E+00 -0.47048440712E+00  0.47049131750E+00  0.25500000000E-02 0. -1.
         31    1    1    2    0    0  0.21576276477E+00 -0.25861885931E+00  0.57826107676E+02  0.58304640401E+02  0.74470750000E+01 0. -1.
        -31    1    1    2    0    0 -0.21576276477E+00  0.25861885931E+00  0.59854410755E+02  0.60316853782E+02  0.74470750000E+01 0.  1.
<mgrwt>
<rscale>  0 0.14911555E+02</rscale>
<asrwt>0</asrwt>
<pdfrwt beam="2">  1        2 0.99919357E+00 0.14911555E+02</pdfrwt>
<pdfrwt beam="1">  1       -2 0.98084551E+00 0.14911555E+02</pdfrwt>
<totfact> 0.30861655E-13</totfact>
</mgrwt>
</event>
<event>
 4    1  0.5160210E-019  0.1491625E+02  0.7818608E-02  0.1870635E+00
          2   -1    0    0  501    0  0.00000000000E+00  0.00000000000E+00  0.12034380796E+03  0.12034380799E+03  0.25500000000E-02 0.  1.
         -2   -1    0    0    0  501 -0.00000000000E+00 -0.00000000000E+00 -0.46220268131E+00  0.46220971551E+00  0.25500000000E-02 0. -1.
         31    1    1    2    0    0  0.28577797707E+00 -0.98111919323E-01  0.57746058780E+02  0.58225059258E+02  0.74470750000E+01 0. -1.
        -31    1    1    2    0    0 -0.28577797707E+00  0.98111919323E-01  0.62135546500E+02  0.62580958445E+02  0.74470750000E+01 0.  1.
<mgrwt>
<rscale>  0 0.14916254E+02</rscale>
<asrwt>0</asrwt>
<pdfrwt beam="1">  1        2 0.99890868E+00 0.14916254E+02</pdfrwt>
<pdfrwt beam="2">  1       -2 0.98174371E+00 0.14916254E+02</pdfrwt>
<totfact> 0.34211174E-13</totfact>
</mgrwt>
</event>
<event>
 4    1 -0.5160210E-019  0.1494312E+02  0.7818608E-02  0.1869809E+00
         -2   -1    0    0    0  501 -0.00000000000E+00  0.00000000000E+00  0.11972467469E+03  0.11972467472E+03  0.25500000000E-02 0. -1.
          2   -1    0    0  501    0  0.00000000000E+00 -0.00000000000E+00 -0.46626796097E+00  0.46627493384E+00  0.25500000000E-02 0.  1.
         31    1    1    2    0    0  0.36351844067E+00  0.38016051858E+00  0.57234982326E+02  0.57719830176E+02  0.74470750000E+01 0.  1.
        -31    1    1    2    0    0 -0.36351844067E+00 -0.38016051858E+00  0.62023424402E+02  0.62471119473E+02  0.74470750000E+01 0.  1.
<mgrwt>
<rscale>  0 0.14943119E+02</rscale>
<asrwt>0</asrwt>
<pdfrwt beam="2">  1        2 0.99032537E+00 0.14943119E+02</pdfrwt>
<pdfrwt beam="1">  1       -2 0.99382287E+00 0.14943119E+02</pdfrwt>
<totfact>-0.16730165E-13</totfact>
</mgrwt>
</event>
<event>
 4    1  0.5160210E-019  0.1491860E+02  0.7818608E-02  0.1870563E+00
         -2   -1    0    0    0  501 -0.00000000000E+00  0.00000000000E+00  0.11831016943E+03  0.11831016946E+03  0.25500000000E-02 0.  1.
          2   -1    0    0  501    0  0.00000000000E+00 -0.00000000000E+00 -0.47029570290E+00  0.47030261606E+00  0.25500000000E-02 0. -1.
         31    1    1    2    0    0 -0.14160789828E+00 -0.33156587274E+00  0.60740093433E+02  0.61195979157E+02  0.74470750000E+01 0. -1.
        -31    1    1    2    0    0  0.14160789828E+00  0.33156587274E+00  0.57099780298E+02  0.57584492920E+02  0.74470750000E+01 0. -1.
<mgrwt>
<rscale>  0 0.14918603E+02</rscale>
<asrwt>0</asrwt>
<pdfrwt beam="2">  1        2 0.99879973E+00 0.14918603E+02</pdfrwt>
<pdfrwt beam="1">  1       -2 0.98216005E+00 0.14918603E+02</pdfrwt>
<totfact> 0.34231627E-13</totfact>
</mgrwt>
</event>
<event>
 4    1 -0.5160210E-019  0.1503327E+02  0.7818608E-02  0.1867055E+00
         -2   -1    0    0    0  501 -0.00000000000E+00  0.00000000000E+00  0.12003280875E+03  0.12003280878E+03  0.25500000000E-02 0.  1.
          2   -1    0    0  501    0  0.00000000000E+00 -0.00000000000E+00 -0.47069976005E+00  0.47070666727E+00  0.25500000000E-02 0. -1.
         31    1    1    2    0    0  0.47509241066E+00  0.81392469081E+00  0.56648534517E+02  0.57143709848E+02  0.74470750000E+01 0. -1.
        -31    1    1    2    0    0 -0.47509241066E+00 -0.81392469081E+00  0.62913574472E+02  0.63359805595E+02  0.74470750000E+01 0.  1.
<mgrwt>
<rscale>  0 0.15033274E+02</rscale>
<asrwt>0</asrwt>
<pdfrwt beam="2">  1        2 0.99971129E+00 0.15033274E+02</pdfrwt>
<pdfrwt beam="1">  1       -2 0.99640738E+00 0.15033274E+02</pdfrwt>
<totfact>-0.10183767E-14</totfact>
</mgrwt>
</event>
<event>
 4    1  0.5160210E-019  0.1491195E+02  0.7818608E-02  0.1870767E+00
         -2   -1    0    0    0  501 -0.00000000000E+00  0.00000000000E+00  0.11833988335E+03  0.11833988338E+03  0.25500000000E-02 0. -1.
          2   -1    0    0  501    0  0.00000000000E+00 -0.00000000000E+00 -0.46975848221E+00  0.46976540327E+00  0.25500000000E-02 0.  1.
         31    1    1    2    0    0  0.22464440154E-01  0.77460721097E-01  0.56105275211E+02  0.56597414582E+02  0.74470750000E+01 0.  1.
        -31    1    1    2    0    0 -0.22464440154E-01 -0.77460721097E-01  0.61764849660E+02  0.62212234202E+02  0.74470750000E+01 0. -1.
<mgrwt>
<rscale>  0 0.14911952E+02</rscale>
<asrwt>0</asrwt>
<pdfrwt beam="2">  1        2 0.99766431E+00 0.14911952E+02</pdfrwt>
<pdfrwt beam="1">  1       -2 0.98240130E+00 0.14911952E+02</pdfrwt>
<totfact> 0.55920780E-13</totfact>
</mgrwt>
</event>
<event>
 4    1 -0.5160210E-019  0.1489687E+02  0.7818608E-02  0.1871232E+00
         -2   -1    0    0    0  501 -0.00000000000E+00  0.00000000000E+00  0.12022880254E+03  0.12022880257E+03  0.25500000000E-02 0. -1.
          2   -1    0    0  501    0  0.00000000000E+00 -0.00000000000E+00 -0.46144334825E+00  0.46145039402E+00  0.25500000000E-02 0.  1.
         31    1    1    2    0    0  0.57412833671E-02 -0.10617162397E+00  0.59116083981E+02  0.59583400513E+02  0.74470750000E+01 0.  1.
        -31    1    1    2    0    0 -0.57412833671E-02  0.10617162397E+00  0.60651275212E+02  0.61106852449E+02  0.74470750000E+01 0.  1.
<mgrwt>
<rscale>  0 0.14896873E+02</rscale>
<asrwt>0</asrwt>
<pdfrwt beam="2">  1        2 0.98013345E+00 0.14896873E+02</pdfrwt>
<pdfrwt beam="1">  1       -2 0.99795145E+00 0.14896873E+02</pdfrwt>
<totfact>-0.47436077E-13</totfact>
</mgrwt>
</event>
<event>
 4    1  0.5160210E-019  0.1491865E+02  0.7818608E-02  0.1870561E+00
         -2   -1    0    0    0  501 -0.00000000000E+00  0.00000000000E+00  0.11853671121E+03  0.11853671124E+03  0.25500000000E-02 0. -1.
          2   -1    0    0  501    0  0.00000000000E+00 -0.00000000000E+00 -0.46940003238E+00  0.46940695872E+00  0.25500000000E-02 0.  1.
         31    1    1    2    0    0 -0.66969284284E-01  0.16649846631E+00  0.62127428231E+02  0.62572425807E+02  0.74470750000E+01 0. -1.
        -31    1    1    2    0    0  0.66969284284E-01 -0.16649846631E+00  0.55939882950E+02  0.56433692393E+02  0.74470750000E+01 0.  1.
<mgrwt>
<rscale>  0 0.14918653E+02</rscale>
<asrwt>0</asrwt>
<pdfrwt beam="2">  1        2 0.99691260E+00 0.14918653E+02</pdfrwt>
<pdfrwt beam="1">  1       -2 0.98402585E+00 0.14918653E+02</pdfrwt>
<totfact> 0.47193100E-13</totfact>
</mgrwt>
</event>
<event>
 4    1 -0.5160210E-019  0.1496000E+02  0.7818608E-02  0.1869292E+00
         -2   -1    0    0    0  501 -0.00000000000E+00  0.00000000000E+00  0.11997281486E+03  0.11997281489E+03  0.25500000000E-02 0. -1.
          2   -1    0    0  501    0  0.00000000000E+00 -0.00000000000E+00 -0.46635523026E+00  0.46636220183E+00  0.25500000000E-02 0.  1.
         31    1    1    2    0    0 -0.95122256139E-02 -0.69134894404E+00  0.58821592329E+02  0.59295165941E+02  0.74470750000E+01 0. -1.
        -31    1    1    2    0    0  0.95122256139E-02  0.69134894404E+00  0.60684867302E+02  0.61144011149E+02  0.74470750000E+01 0. -1.
<mgrwt>
<rscale>  0 0.14959996E+02</rscale>
<asrwt>0</asrwt>
<pdfrwt beam="2">  1        2 0.99051795E+00 0.14959996E+02</pdfrwt>
<pdfrwt beam="1">  1       -2 0.99587538E+00 0.14959996E+02</pdfrwt>
<totfact>-0.16185144E-13</totfact>
</mgrwt>
</event>
<event>
 4    1  0.5160210E-019  0.1490606E+02  0.7818608E-02  0.1870949E+00
         -2   -1    0    0    0  501 -0.00000000000E+00  0.00000000000E+00  0.11845557697E+03  0.11845557700E+03  0.25500000000E-02 0.  1.
          2   -1    0    0  501    0  0.00000000000E+00 -0.00000000000E+00 -0.46892861934E+00  0.46893555265E+00  0.25500000000E-02 0. -1.
         31    1    1    2    0    0  0.88545288851E-01  0.18656587116E-01  0.61257096086E+02  0.61708175595E+02  0.74470750000E+01 0.  1.
        -31    1    1    2    0    0 -0.88545288851E-01 -0.18656587116E-01  0.56729552263E+02  0.57216336953E+02  0.74470750000E+01 0. -1.
<mgrwt>
<rscale>  0 0.14906056E+02</rscale>
<asrwt>0</asrwt>
<pdfrwt beam="2">  1        2 0.99591269E+00 0.14906056E+02</pdfrwt>
<pdfrwt beam="1">  1       -2 0.98335108E+00 0.14906056E+02</pdfrwt>
<totfact> 0.65952335E-13</totfact>
</mgrwt>
</event>
<event>
 4    1  0.5160210E-019  0.1491370E+02  0.7818608E-02  0.1870714E+00
         -2   -1    0    0    0  501 -0.00000000000E+00  0.00000000000E+00  0.11846537296E+03  0.11846537299E+03  0.25500000000E-02 0. -1.
          2   -1    0    0  501    0  0.00000000000E+00 -0.00000000000E+00 -0.46937063473E+00  0.46937756151E+00  0.25500000000E-02 0.  1.
         31    1    1    2    0    0 -0.20365098621E+00  0.23061172861E+00  0.57197034847E+02  0.57680623929E+02  0.74470750000E+01 0.  1.
        -31    1    1    2    0    0  0.20365098621E+00 -0.23061172861E+00  0.60798967477E+02  0.61254126619E+02  0.74470750000E+01 0. -1.
<mgrwt>
<rscale>  0 0.14913696E+02</rscale>
<asrwt>0</asrwt>
<pdfrwt beam="2">  1        2 0.99684805E+00 0.14913696E+02</pdfrwt>
<pdfrwt beam="1">  1       -2 0.98343573E+00 0.14913696E+02</pdfrwt>
<totfact> 0.55083406E-13</totfact>
</mgrwt>
</event>
<event>
 4    1  0.5160210E-019  0.1493797E+02  0.7818608E-02  0.1869967E+00
         -2   -1    0    0    0  501 -0.00000000000E+00  0.00000000000E+00  0.11869610423E+03  0.11869610426E+03  0.25500000000E-02 0.  1.
          2   -1    0    0  501    0  0.00000000000E+00 -0.00000000000E+00 -0.46998419536E+00  0.46999111310E+00  0.25500000000E-02 0. -1.
         31    1    1    2    0    0 -0.11749782883E+00 -0.53703646481E+00  0.57862696383E+02  0.58342546847E+02  0.74470750000E+01 0. -1.
        -31    1    1    2    0    0  0.11749782883E+00  0.53703646481E+00  0.60363423650E+02  0.60823548521E+02  0.74470750000E+01 0. -1.
<mgrwt>
<rscale>  0 0.14937966E+02</rscale>
<asrwt>0</asrwt>
<pdfrwt beam="2">  1        2 0.99815362E+00 0.14937966E+02</pdfrwt>
<pdfrwt beam="1">  1       -2 0.98534865E+00 0.14937966E+02</pdfrwt>
<totfact> 0.22595721E-13</totfact>
</mgrwt>
</event>
<event>
 4    1 -0.5160210E-019  0.1499718E+02  0.7818608E-02  0.1868155E+00
          2   -1    0    0  501    0  0.00000000000E+00  0.00000000000E+00  0.11984902106E+03  0.11984902109E+03  0.25500000000E-02 0. -1.
         -2   -1    0    0    0  501 -0.00000000000E+00 -0.00000000000E+00 -0.46916060006E+00  0.46916752994E+00  0.25500000000E-02 0.  1.
         31    1    1    2    0    0  0.41455582271E-02 -0.87255743772E+00  0.60432083500E+02  0.60895459732E+02  0.74470750000E+01 0. -1.
        -31    1    1    2    0    0 -0.41455582271E-02  0.87255743772E+00  0.58947776959E+02  0.59422728885E+02  0.74470750000E+01 0.  1.
<mgrwt>
<rscale>  0 0.14997181E+02</rscale>
<asrwt>0</asrwt>
<pdfrwt beam="1">  1        2 0.99487497E+00 0.14997181E+02</pdfrwt>
<pdfrwt beam="2">  1       -2 0.99644912E+00 0.14997181E+02</pdfrwt>
<totfact>-0.10701904E-13</totfact>
</mgrwt>
</event>
<event>
 4    1 -0.5160210E-019  0.1500816E+02  0.7818608E-02  0.1867820E+00
          2   -1    0    0  501    0  0.00000000000E+00  0.00000000000E+00  0.12010964379E+03  0.12010964382E+03  0.25500000000E-02 0. -1.
         -2   -1    0    0    0  501 -0.00000000000E+00 -0.00000000000E+00 -0.46882805910E+00  0.46883499390E+00  0.25500000000E-02 0.  1.
         31    1    1    2    0    0  0.67679430178E+00  0.52998708775E-01  0.54794021283E+02  0.55301939873E+02  0.74470750000E+01 0.  1.
        -31    1    1    2    0    0 -0.67679430178E+00 -0.52998708775E-01  0.64846794449E+02  0.65276538939E+02  0.74470750000E+01 0. -1.
<mgrwt>
<rscale>  0 0.15008157E+02</rscale>
<asrwt>0</asrwt>
<pdfrwt beam="1">  1        2 0.99702723E+00 0.15008157E+02</pdfrwt>
<pdfrwt beam="2">  1       -2 0.99575402E+00 0.15008157E+02</pdfrwt>
<totfact>-0.84092559E-14</totfact>
</mgrwt>
</event>
<event>
 4    1  0.5160210E-019  0.1492035E+02  0.7818608E-02  0.1870509E+00
          2   -1    0    0  501    0  0.00000000000E+00  0.00000000000E+00  0.12026900964E+03  0.12026900966E+03  0.25500000000E-02 0.  1.
         -2   -1    0    0    0  501 -0.00000000000E+00 -0.00000000000E+00 -0.46274397631E+00  0.46275100228E+00  0.25500000000E-02 0. -1.
         31    1    1    2    0    0  0.24765953797E+00  0.26518117032E+00  0.61943845875E+02  0.62390949858E+02  0.74470750000E+01 0.  1.
        -31    1    1    2    0    0 -0.24765953797E+00 -0.26518117032E+00  0.57862419786E+02  0.58340810809E+02  0.74470750000E+01 0.  1.
<mgrwt>
<rscale>  0 0.14920347E+02</rscale>
<asrwt>0</asrwt>
<pdfrwt beam="1">  1        2 0.99829467E+00 0.14920347E+02</pdfrwt>
<pdfrwt beam="2">  1       -2 0.98288669E+00 0.14920347E+02</pdfrwt>
<totfact> 0.39497162E-13</totfact>
</mgrwt>
</event>
<event>
 4    1 -0.5160210E-019  0.1497169E+02  0.7818608E-02  0.1868933E+00
         -2   -1    0    0    0  501 -0.00000000000E+00  0.00000000000E+00  0.12026226229E+03  0.12026226231E+03  0.25500000000E-02 0.  1.
          2   -1    0    0  501    0  0.00000000000E+00 -0.00000000000E+00 -0.46596064570E+00  0.46596762317E+00  0.25500000000E-02 0. -1.
         31    1    1    2    0    0  0.43872455693E+00 -0.61078911394E+00  0.58963464171E+02  0.59436643375E+02  0.74470750000E+01 0.  1.
        -31    1    1    2    0    0 -0.43872455693E+00  0.61078911394E+00  0.60832837471E+02  0.61291586563E+02  0.74470750000E+01 0.  1.
<mgrwt>
<rscale>  0 0.14971694E+02</rscale>
<asrwt>0</asrwt>
<pdfrwt beam="2">  1        2 0.98969234E+00 0.14971694E+02</pdfrwt>
<pdfrwt beam="1">  1       -2 0.99826547E+00 0.14971694E+02</pdfrwt>
<totfact>-0.97307899E-14</totfact>
</mgrwt>
</event>
<event>
 4    1 -0.5160210E-019  0.1493936E+02  0.7818608E-02  0.1869925E+00
         -2   -1    0    0    0  501 -0.00000000000E+00  0.00000000000E+00  0.12036926358E+03  0.12036926361E+03  0.25500000000E-02 0.  1.
          2   -1    0    0  501    0  0.00000000000E+00 -0.00000000000E+00 -0.46353772963E+00  0.46354474357E+00  0.25500000000E-02 0. -1.
         31    1    1    2    0    0  0.80290568305E-01 -0.53974805569E+00  0.58346990987E+02  0.58822853194E+02  0.74470750000E+01 0. -1.
        -31    1    1    2    0    0 -0.80290568305E-01  0.53974805569E+00  0.61558734862E+02  0.62009955156E+02  0.74470750000E+01 0.  1.
<mgrwt>
<rscale>  0 0.14939360E+02</rscale>
<asrwt>0</asrwt>
<pdfrwt beam="2">  1        2 0.98456930E+00 0.14939360E+02</pdfrwt>
<pdfrwt beam="1">  1       -2 0.99913020E+00 0.14939360E+02</pdfrwt>
<totfact>-0.10642450E-13</totfact>
</mgrwt>
</event>
<event>
 4    1 -0.5160210E-019  0.1491651E+02  0.7818608E-02  0.1870627E+00
          2   -1    0    0  501    0  0.00000000000E+00  0.00000000000E+00  0.11863403832E+03  0.11863403835E+03  0.25500000000E-02 0.  1.
         -2   -1    0    0    0  501 -0.00000000000E+00 -0.00000000000E+00 -0.46888012123E+00  0.46888705526E+00  0.25500000000E-02 0. -1.
         31    1    1    2    0    0 -0.16515426724E+00 -0.18609043770E+00  0.61666509656E+02  0.62115048457E+02  0.74470750000E+01 0.  1.
        -31    1    1    2    0    0  0.16515426724E+00  0.18609043770E+00  0.56498648545E+02  0.56987876948E+02  0.74470750000E+01 0. -1.
<mgrwt>
<rscale>  0 0.14916509E+02</rscale>
<asrwt>0</asrwt>
<pdfrwt beam="1">  1        2 0.98482632E+00 0.14916509E+02</pdfrwt>
<pdfrwt beam="2">  1       -2 0.99581600E+00 0.14916509E+02</pdfrwt>
<totfact>-0.34124112E-13</totfact>
</mgrwt>
</event>
<event>
 4    1 -0.5160210E-019  0.1495580E+02  0.7818608E-02  0.1869420E+00
          2   -1    0    0  501    0  0.00000000000E+00  0.00000000000E+00  0.11882296486E+03  0.11882296489E+03  0.25500000000E-02 0.  1.
         -2   -1    0    0    0  501 -0.00000000000E+00 -0.00000000000E+00 -0.47060387334E+00  0.47061078197E+00  0.25500000000E-02 0. -1.
         31    1    1    2    0    0  0.43927055394E+00  0.51438197660E+00  0.58778340607E+02  0.59252086867E+02  0.74470750000E+01 0. -1.
        -31    1    1    2    0    0 -0.43927055394E+00 -0.51438197660E+00  0.59574020377E+02  0.60041488800E+02  0.74470750000E+01 0.  1.
<mgrwt>
<rscale>  0 0.14955796E+02</rscale>
<asrwt>0</asrwt>
<pdfrwt beam="1">  1        2 0.98640275E+00 0.14955796E+02</pdfrwt>
<pdfrwt beam="2">  1       -2 0.99946870E+00 0.14955796E+02</pdfrwt>
<totfact>-0.49979380E-14</totfact>
</mgrwt>
</event>
<event>
 4    1 -0.5160210E-019  0.1494430E+02  0.7818608E-02  0.1869773E+00
          2   -1    0    0  501    0  0.00000000000E+00  0.00000000000E+00  0.11902472255E+03  0.11902472258E+03  0.25500000000E-02 0.  1.
         -2   -1    0    0    0  501 -0.00000000000E+00 -0.00000000000E+00 -0.46908421088E+00  0.46909114189E+00  0.25500000000E-02 0. -1.
         31    1    1    2    0    0  0.27801910165E+00  0.13601383055E+00  0.63496113080E+02  0.63932081905E+02  0.74470750000E+01 0.  1.
        -31    1    1    2    0    0 -0.27801910165E+00 -0.13601383055E+00  0.55059525263E+02  0.55561731818E+02  0.74470750000E+01 0. -1.
<mgrwt>
<rscale>  0 0.14944301E+02</rscale>
<asrwt>0</asrwt>
<pdfrwt beam="1">  1        2 0.98805846E+00 0.14944301E+02</pdfrwt>
<pdfrwt beam="2">  1       -2 0.99626062E+00 0.14944301E+02</pdfrwt>
<totfact>-0.20153460E-13</totfact>
</mgrwt>
</event>
<event>
 4    1  0.5160210E-019  0.1491653E+02  0.7818608E-02  0.1870626E+00
          2   -1    0    0  501    0  0.00000000000E+00  0.00000000000E+00  0.11988106526E+03  0.11988106528E+03  0.25500000000E-02 0. -1.
         -2   -1    0    0    0  501 -0.00000000000E+00 -0.00000000000E+00 -0.46400403172E+00  0.46401103861E+00  0.25500000000E-02 0.  1.
         31    1    1    2    0    0 -0.60664014600E-01 -0.10886015820E+00  0.62846354085E+02  0.63286164984E+02  0.74470750000E+01 0. -1.
        -31    1    1    2    0    0  0.60664014600E-01  0.10886015820E+00  0.56570707140E+02  0.57058911338E+02  0.74470750000E+01 0.  1.
<mgrwt>
<rscale>  0 0.14916531E+02</rscale>
<asrwt>0</asrwt>
<pdfrwt beam="1">  1        2 0.99509729E+00 0.14916531E+02</pdfrwt>
<pdfrwt beam="2">  1       -2 0.98554052E+00 0.14916531E+02</pdfrwt>
<totfact> 0.40914231E-13</totfact>
</mgrwt>
</event>
<event>
 4    1 -0.5160210E-019  0.1496739E+02  0.7818608E-02  0.1869065E+00
         -2   -1    0    0    0  501 -0.00000000000E+00  0.00000000000E+00  0.11957808445E+03  0.11957808447E+03  0.25500000000E-02 0.  1.
          2   -1    0    0  501    0  0.00000000000E+00 -0.00000000000E+00 -0.46835740307E+00  0.46836434483E+00  0.25500000000E-02 0. -1.
         31    1    1    2    0    0 -0.80912720839E-01  0.66275708776E-01  0.65425948181E+02  0.65848497027E+02  0.74470750000E+01 0.  1.
        -31    1    1    2    0    0  0.80912720839E-01 -0.66275708776E-01  0.53683778861E+02  0.54197951790E+02  0.74470750000E+01 0. -1.
<mgrwt>
<rscale>  0 0.14967391E+02</rscale>
<asrwt>0</asrwt>
<pdfrwt beam="2">  1        2 0.99474111E+00 0.14967391E+02</pdfrwt>
<pdfrwt beam="1">  1       -2 0.99262803E+00 0.14967391E+02</pdfrwt>
<totfact>-0.98176325E-14</totfact>
</mgrwt>
</event>
<event>
 4    1  0.5160210E-019  0.1492952E+02  0.7818608E-02  0.1870227E+00
          2   -1    0    0  501    0  0.00000000000E+00  0.00000000000E+00  0.11996454159E+03  0.11996454162E+03  0.25500000000E-02 0. -1.
         -2   -1    0    0    0  501 -0.00000000000E+00 -0.00000000000E+00 -0.46448878266E+00  0.46449578224E+00  0.25500000000E-02 0.  1.
         31    1    1    2    0    0  0.39579060066E+00 -0.52552727052E-01  0.57145294642E+02  0.57629879731E+02  0.74470750000E+01 0.  1.
        -31    1    1    2    0    0 -0.39579060066E+00  0.52552727052E-01  0.62354758167E+02  0.62799157670E+02  0.74470750000E+01 0. -1.
<mgrwt>
<rscale>  0 0.14929515E+02</rscale>
<asrwt>0</asrwt>
<pdfrwt beam="1">  1        2 0.99579154E+00 0.14929515E+02</pdfrwt>
<pdfrwt beam="2">  1       -2 0.98656878E+00 0.14929515E+02</pdfrwt>
<totfact> 0.26557745E-13</totfact>
</mgrwt>
</event>
<event>
 4    1 -0.5160210E-019  0.1492388E+02  0.7818608E-02  0.1870400E+00
          2   -1    0    0  501    0  0.00000000000E+00  0.00000000000E+00  0.11875653474E+03  0.11875653477E+03  0.25500000000E-02 0.  1.
         -2   -1    0    0    0  501 -0.00000000000E+00 -0.00000000000E+00 -0.46885931095E+00  0.46886624528E+00  0.25500000000E-02 0. -1.
         31    1    1    2    0    0 -0.22049246955E-02 -0.43515315709E-01  0.62888388809E+02  0.63327800148E+02  0.74470750000E+01 0.  1.
        -31    1    1    2    0    0  0.22049246955E-02  0.43515315709E-01  0.55399286624E+02  0.55897600869E+02  0.74470750000E+01 0. -1.
<mgrwt>
<rscale>  0 0.14923876E+02</rscale>
<asrwt>0</asrwt>
<pdfrwt beam="1">  1        2 0.98583903E+00 0.14923876E+02</pdfrwt>
<pdfrwt beam="2">  1       -2 0.99577602E+00 0.14923876E+02</pdfrwt>
<totfact>-0.29137741E-13</totfact>
</mgrwt>
</event>
<event>
 4    1 -0.5160210E-019  0.1492654E+02  0.7818608E-02  0.1870318E+00
         -2   -1    0    0    0  501 -0.00000000000E+00  0.00000000000E+00  0.12040862041E+03  0.12040862044E+03  0.25500000000E-02 0. -1.
          2   -1    0    0  501    0  0.00000000000E+00 -0.00000000000E+00 -0.46259124739E+00  0.46259827568E+00  0.25500000000E-02 0.  1.
         31    1    1    2    0    0 -0.71523682701E-01 -0.19377482529E-01  0.56039287566E+02  0.56531992429E+02  0.74470750000E+01 0.  1.
        -31    1    1    2    0    0  0.71523682701E-01  0.19377482529E-01  0.63906741595E+02  0.64339226281E+02  0.74470750000E+01 0. -1.
<mgrwt>
<rscale>  0 0.14926540E+02</rscale>
<asrwt>0</asrwt>
<pdfrwt beam="2">  1        2 0.98256790E+00 0.14926540E+02</pdfrwt>
<pdfrwt beam="1">  1       -2 0.99944781E+00 0.14926540E+02</pdfrwt>
<totfact>-0.96897856E-14</totfact>
</mgrwt>
</event>
<event>
 4    1 -0.5160210E-019  0.1500251E+02  0.7818608E-02  0.1867992E+00
         -2   -1    0    0    0  501 -0.00000000000E+00  0.00000000000E+00  0.12002444427E+03  0.12002444430E+03  0.25500000000E-02 0. -1.
          2   -1    0    0  501    0  0.00000000000E+00 -0.00000000000E+00 -0.46880802542E+00  0.46881496051E+00  0.25500000000E-02 0.  1.
         31    1    1    2    0    0 -0.22029929992E+00 -0.91696611052E-01  0.52808515037E+02  0.53331558448E+02  0.74470750000E+01 0.  1.
        -31    1    1    2    0    0  0.22029929992E+00  0.91696611052E-01  0.66747121208E+02  0.67161700810E+02  0.74470750000E+01 0. -1.
<mgrwt>
<rscale>  0 0.15002512E+02</rscale>
<asrwt>0</asrwt>
<pdfrwt beam="2">  1        2 0.99570889E+00 0.15002512E+02</pdfrwt>
<pdfrwt beam="1">  1       -2 0.99632257E+00 0.15002512E+02</pdfrwt>
<totfact>-0.99128112E-14</totfact>
</mgrwt>
</event>
<event>
 4    1 -0.5160210E-019  0.1492923E+02  0.7818608E-02  0.1870236E+00
         -2   -1    0    0    0  501 -0.00000000000E+00  0.00000000000E+00  0.12038955053E+03  0.12038955056E+03  0.25500000000E-02 0.  1.
          2   -1    0    0  501    0  0.00000000000E+00 -0.00000000000E+00 -0.46283108614E+00  0.46283811078E+00  0.25500000000E-02 0. -1.
         31    1    1    2    0    0 -0.21699302402E+00  0.25418894957E+00  0.63096754540E+02  0.63535588905E+02  0.74470750000E+01 0.  1.
        -31    1    1    2    0    0  0.21699302402E+00 -0.25418894957E+00  0.56829964905E+02  0.57316799763E+02  0.74470750000E+01 0.  1.
<mgrwt>
<rscale>  0 0.14929227E+02</rscale>
<asrwt>0</asrwt>
<pdfrwt beam="2">  1        2 0.98307478E+00 0.14929227E+02</pdfrwt>
<pdfrwt beam="1">  1       -2 0.99929211E+00 0.14929227E+02</pdfrwt>
<totfact>-0.11264638E-13</totfact>
</mgrwt>
</event>
<event>
 4    1  0.5160210E-019  0.1495461E+02  0.7818608E-02  0.1869457E+00
         -2   -1    0    0    0  501 -0.00000000000E+00  0.00000000000E+00  0.11912382271E+03  0.11912382274E+03  0.25500000000E-02 0.  1.
          2   -1    0    0  501    0  0.00000000000E+00 -0.00000000000E+00 -0.46934108480E+00  0.46934801202E+00  0.25500000000E-02 0. -1.
         31    1    1    2    0    0  0.25747086507E+00 -0.44087616841E+00  0.62817952043E+02  0.63259897945E+02  0.74470750000E+01 0.  1.
        -31    1    1    2    0    0 -0.25747086507E+00  0.44087616841E+00  0.55836529586E+02  0.56333272808E+02  0.74470750000E+01 0. -1.
<mgrwt>
<rscale>  0 0.14954614E+02</rscale>
<asrwt>0</asrwt>
<pdfrwt beam="2">  1        2 0.99680728E+00 0.14954614E+02</pdfrwt>
<pdfrwt beam="1">  1       -2 0.98888001E+00 0.14954614E+02</pdfrwt>
<totfact> 0.62427844E-14</totfact>
</mgrwt>
</event>
<event>
 4    1 -0.5160210E-019  0.1498802E+02  0.7818608E-02  0.1868434E+00
          2   -1    0    0  501    0  0.00000000000E+00  0.00000000000E+00  0.12004046654E+03  0.12004046657E+03  0.25500000000E-02 0.  1.
         -2   -1    0    0    0  501 -0.00000000000E+00 -0.00000000000E+00 -0.46784004829E+00  0.46784699773E+00  0.25500000000E-02 0. -1.
         31    1    1    2    0    0  0.58529232785E+00  0.44673846876E+00  0.62993274795E+02  0.63436217871E+02  0.74470750000E+01 0.  1.
        -31    1    1    2    0    0 -0.58529232785E+00 -0.44673846876E+00  0.56579351698E+02  0.57072095695E+02  0.74470750000E+01 0. -1.
<mgrwt>
<rscale>  0 0.14988016E+02</rscale>
<asrwt>0</asrwt>
<pdfrwt beam="1">  1        2 0.99644705E+00 0.14988016E+02</pdfrwt>
<pdfrwt beam="2">  1       -2 0.99366151E+00 0.14988016E+02</pdfrwt>
<totfact>-0.93475970E-14</totfact>
</mgrwt>
</event>
<event>
 4    1 -0.5160210E-019  0.1496301E+02  0.7818608E-02  0.1869199E+00
         -2   -1    0    0    0  501 -0.00000000000E+00  0.00000000000E+00  0.11966794492E+03  0.11966794494E+03  0.25500000000E-02 0. -1.
          2   -1    0    0  501    0  0.00000000000E+00 -0.00000000000E+00 -0.46773156221E+00  0.46773851326E+00  0.25500000000E-02 0.  1.
         31    1    1    2    0    0  0.35240463220E-01 -0.56058818116E+00  0.63176927848E+02  0.63616810981E+02  0.74470750000E+01 0. -1.
        -31    1    1    2    0    0 -0.35240463220E-01  0.56058818116E+00  0.56023285506E+02  0.56518872476E+02  0.74470750000E+01 0.  1.
<mgrwt>
<rscale>  0 0.14963007E+02</rscale>
<asrwt>0</asrwt>
<pdfrwt beam="2">  1        2 0.99341999E+00 0.14963007E+02</pdfrwt>
<pdfrwt beam="1">  1       -2 0.99336589E+00 0.14963007E+02</pdfrwt>
<totfact>-0.12553239E-13</totfact>
</mgrwt>
</event>
<event>
 4    1 -0.5160210E-019  0.1495588E+02  0.7818608E-02  0.1869418E+00
         -2   -1    0    0    0  501 -0.00000000000E+00  0.00000000000E+00  0.11941979305E+03  0.11941979308E+03  0.25500000000E-02 0. -1.
          2   -1    0    0  501    0  0.00000000000E+00 -0.00000000000E+00 -0.46825715825E+00  0.46826410150E+00  0.25500000000E-02 0.  1.
         31    1    1    2    0    0 -0.65399682946E+00  0.18152743459E+00  0.59469282709E+02  0.59937594013E+02  0.74470750000E+01 0.  1.
        -31    1    1    2    0    0  0.65399682946E+00 -0.18152743459E+00  0.59482253186E+02  0.59950463169E+02  0.74470750000E+01 0. -1.
<mgrwt>
<rscale>  0 0.14955881E+02</rscale>
<asrwt>0</asrwt>
<pdfrwt beam="2">  1        2 0.99452389E+00 0.14955881E+02</pdfrwt>
<pdfrwt beam="1">  1       -2 0.99131834E+00 0.14955881E+02</pdfrwt>
<totfact>-0.57513162E-14</totfact>
</mgrwt>
</event>
<event>
 4    1 -0.5160210E-019  0.1491336E+02  0.7818608E-02  0.1870724E+00
          2   -1    0    0  501    0  0.00000000000E+00  0.00000000000E+00  0.11858750436E+03  0.11858750439E+03  0.25500000000E-02 0. -1.
         -2   -1    0    0    0  501 -0.00000000000E+00 -0.00000000000E+00 -0.46886588524E+00  0.46887281948E+00  0.25500000000E-02 0.  1.
         31    1    1    2    0    0  0.71378205329E-01  0.30017686277E+00  0.60806940568E+02  0.61262044924E+02  0.74470750000E+01 0.  1.
        -31    1    1    2    0    0 -0.71378205329E-01 -0.30017686277E+00  0.57311697911E+02  0.57794332287E+02  0.74470750000E+01 0.  1.
<mgrwt>
<rscale>  0 0.14913356E+02</rscale>
<asrwt>0</asrwt>
<pdfrwt beam="1">  1        2 0.98444143E+00 0.14913356E+02</pdfrwt>
<pdfrwt beam="2">  1       -2 0.99578435E+00 0.14913356E+02</pdfrwt>
<totfact>-0.36452093E-13</totfact>
</mgrwt>
</event>
<event>
 4    1 -0.5160210E-019  0.1497026E+02  0.7818608E-02  0.1868977E+00
         -2   -1    0    0    0  501 -0.00000000000E+00  0.00000000000E+00  0.11938925123E+03  0.11938925125E+03  0.25500000000E-02 0.  1.
          2   -1    0    0  501    0  0.00000000000E+00 -0.00000000000E+00 -0.46927831359E+00  0.46928524173E+00  0.25500000000E-02 0. -1.
         31    1    1    2    0    0  0.18888525375E+00  0.64328455794E+00  0.56700555374E+02  0.57191445151E+02  0.74470750000E+01 0. -1.
        -31    1    1    2    0    0 -0.18888525375E+00 -0.64328455794E+00  0.62219417539E+02  0.62667091344E+02  0.74470750000E+01 0. -1.
<mgrwt>
<rscale>  0 0.14970264E+02</rscale>
<asrwt>0</asrwt>
<pdfrwt beam="2">  1        2 0.99668318E+00 0.14970264E+02</pdfrwt>
<pdfrwt beam="1">  1       -2 0.99107424E+00 0.14970264E+02</pdfrwt>
<totfact>-0.35442021E-14</totfact>
</mgrwt>
</event>
<event>
 4    1 -0.5160210E-019  0.1495924E+02  0.7818608E-02  0.1869315E+00
         -2   -1    0    0    0  501 -0.00000000000E+00  0.00000000000E+00  0.12009661255E+03  0.12009661258E+03  0.25500000000E-02 0.  1.
          2   -1    0    0  501    0  0.00000000000E+00 -0.00000000000E+00 -0.46582713164E+00  0.46583411110E+00  0.25500000000E-02 0. -1.
         31    1    1    2    0    0 -0.56559011006E+00  0.20791945432E+00  0.62637726755E+02  0.63081747453E+02  0.74470750000E+01 0.  1.
        -31    1    1    2    0    0  0.56559011006E+00 -0.20791945432E+00  0.56993058666E+02  0.57480699238E+02  0.74470750000E+01 0. -1.
<mgrwt>
<rscale>  0 0.14959236E+02</rscale>
<asrwt>0</asrwt>
<pdfrwt beam="2">  1        2 0.98940459E+00 0.14959236E+02</pdfrwt>
<pdfrwt beam="1">  1       -2 0.99689466E+00 0.14959236E+02</pdfrwt>
<totfact>-0.15521476E-13</totfact>
</mgrwt>
</event>
<event>
 4    1  0.5160210E-019  0.1489563E+02  0.7818608E-02  0.1871270E+00
          2   -1    0    0  501    0  0.00000000000E+00  0.00000000000E+00  0.12031986076E+03  0.12031986079E+03  0.25500000000E-02 0.  1.
         -2   -1    0    0    0  501 -0.00000000000E+00 -0.00000000000E+00 -0.46101691490E+00  0.46102396719E+00  0.25500000000E-02 0. -1.
         31    1    1    2    0    0  0.34567671601E-01  0.91114232281E-01  0.59615827100E+02  0.60079241537E+02  0.74470750000E+01 0. -1.
        -31    1    1    2    0    0 -0.34567671601E-01 -0.91114232281E-01  0.60243016747E+02  0.60701643219E+02  0.74470750000E+01 0.  1.
<mgrwt>
<rscale>  0 0.14895626E+02</rscale>
<asrwt>0</asrwt>
<pdfrwt beam="1">  1        2 0.99870086E+00 0.14895626E+02</pdfrwt>
<pdfrwt beam="2">  1       -2 0.97923399E+00 0.14895626E+02</pdfrwt>
<totfact> 0.61836403E-13</totfact>
</mgrwt>
</event>
<event>
 4    1 -0.5160210E-019  0.1494401E+02  0.7818608E-02  0.1869782E+00
         -2   -1    0    0    0  501 -0.00000000000E+00  0.00000000000E+00  0.11985686713E+03  0.11985686716E+03  0.25500000000E-02 0.  1.
          2   -1    0    0  501    0  0.00000000000E+00 -0.00000000000E+00 -0.46580902676E+00  0.46581600650E+00  0.25500000000E-02 0. -1.
         31    1    1    2    0    0  0.26238229248E+00  0.16758717644E+00  0.63917624093E+02  0.64350746116E+02  0.74470750000E+01 0.  1.
        -31    1    1    2    0    0 -0.26238229248E+00 -0.16758717644E+00  0.55473434014E+02  0.55971937051E+02  0.74470750000E+01 0. -1.
<mgrwt>
<rscale>  0 0.14944006E+02</rscale>
<asrwt>0</asrwt>
<pdfrwt beam="2">  1        2 0.98935864E+00 0.14944006E+02</pdfrwt>
<pdfrwt beam="1">  1       -2 0.99491213E+00 0.14944006E+02</pdfrwt>
<totfact>-0.19073204E-13</totfact>
</mgrwt>
</event>
<event>
 4    1 -0.5160210E-019  0.1494228E+02  0.7818608E-02  0.1869835E+00
          2   -1    0    0  501    0  0.00000000000E+00  0.00000000000E+00  0.11889927431E+03  0.11889927434E+03  0.25500000000E-02 0. -1.
         -2   -1    0    0    0  501 -0.00000000000E+00 -0.00000000000E+00 -0.46945235443E+00  0.46945928001E+00  0.25500000000E-02 0.  1.
         31    1    1    2    0    0 -0.40402648800E+00  0.41392348551E+00  0.57965429903E+02  0.58444713704E+02  0.74470750000E+01 0.  1.
        -31    1    1    2    0    0  0.40402648800E+00 -0.41392348551E+00  0.60464392055E+02  0.60924019916E+02  0.74470750000E+01 0. -1.
<mgrwt>
<rscale>  0 0.14942284E+02</rscale>
<asrwt>0</asrwt>
<pdfrwt beam="1">  1        2 0.98702421E+00 0.14942284E+02</pdfrwt>
<pdfrwt beam="2">  1       -2 0.99703528E+00 0.14942284E+02</pdfrwt>
<totfact>-0.20239085E-13</totfact>
</mgrwt>
</event>
<event>
 4    1  0.5160210E-019  0.1494066E+02  0.7818608E-02  0.1869885E+00
         -2   -1    0    0    0  501 -0.00000000000E+00  0.00000000000E+00  0.11856894760E+03  0.11856894763E+03  0.25500000000E-02 0. -1.
          2   -1    0    0  501    0  0.00000000000E+00 -0.00000000000E+00 -0.47065775433E+00  0.47066466216E+00  0.25500000000E-02 0.  1.
         31    1    1    2    0    0 -0.41779950979E+00  0.11681920957E+00  0.62222951226E+02  0.62668515130E+02  0.74470750000E+01 0.  1.
        -31    1    1    2    0    0  0.41779950979E+00 -0.11681920957E+00  0.55875338620E+02  0.56371097160E+02  0.74470750000E+01 0.  1.
<mgrwt>
<rscale>  0 0.14940657E+02</rscale>
<asrwt>0</asrwt>
<pdfrwt beam="2">  1        2 0.99957423E+00 0.14940657E+02</pdfrwt>
<pdfrwt beam="1">  1       -2 0.98430280E+00 0.14940657E+02</pdfrwt>
<totfact> 0.81407239E-14</totfact>
</mgrwt>
</event>
<event>
 4    1 -0.5160210E-019  0.1493330E+02  0.7818608E-02  0.1870111E+00
          2   -1    0    0  501    0  0.00000000000E+00  0.00000000000E+00  0.11860671021E+03  0.11860671023E+03  0.25500000000E-02 0.  1.
         -2   -1    0    0    0  501 -0.00000000000E+00 -0.00000000000E+00 -0.47004452036E+00  0.47005143720E+00  0.25500000000E-02 0. -1.
         31    1    1    2    0    0 -0.49253047243E+00  0.18584592733E+00  0.58098375399E+02  0.58576081083E+02  0.74470750000E+01 0. -1.
        -31    1    1    2    0    0  0.49253047243E+00 -0.18584592733E+00  0.60038290287E+02  0.60500680588E+02  0.74470750000E+01 0. -1.
<mgrwt>
<rscale>  0 0.14933298E+02</rscale>
<asrwt>0</asrwt>
<pdfrwt beam="1">  1        2 0.98460998E+00 0.14933298E+02</pdfrwt>
<pdfrwt beam="2">  1       -2 0.99827827E+00 0.14933298E+02</pdfrwt>
<totfact>-0.19434790E-13</totfact>
</mgrwt>
</event>
<event>
 4    1 -0.5160210E-019  0.1498819E+02  0.7818608E-02  0.1868429E+00
         -2   -1    0    0    0  501 -0.00000000000E+00  0.00000000000E+00  0.11988896272E+03  0.11988896275E+03  0.25500000000E-02 0. -1.
          2   -1    0    0  501    0  0.00000000000E+00 -0.00000000000E+00 -0.46844182013E+00  0.46844876065E+00  0.25500000000E-02 0.  1.
         31    1    1    2    0    0 -0.17424285361E+00  0.48089203178E-01  0.53138160676E+02  0.53657764761E+02  0.74470750000E+01 0.  1.
        -31    1    1    2    0    0  0.17424285361E+00 -0.48089203178E-01  0.66282360227E+02  0.66699646750E+02  0.74470750000E+01 0. -1.
<mgrwt>
<rscale>  0 0.14988185E+02</rscale>
<asrwt>0</asrwt>
<pdfrwt beam="2">  1        2 0.99492976E+00 0.14988185E+02</pdfrwt>
<pdfrwt beam="1">  1       -2 0.99519929E+00 0.14988185E+02</pdfrwt>
<totfact>-0.11942807E-13</totfact>
</mgrwt>
</event>
<event>
 4    1 -0.5160210E-019  0.1491985E+02  0.7818608E-02  0.1870524E+00
          2   -1    0    0  501    0  0.00000000000E+00  0.00000000000E+00  0.11852708719E+03  0.11852708721E+03  0.25500000000E-02 0. -1.
         -2   -1    0    0    0  501 -0.00000000000E+00 -0.00000000000E+00 -0.46951363443E+00  0.46952055910E+00  0.25500000000E-02 0.  1.
         31    1    1    2    0    0  0.65475932311E-01 -0.35582881921E+00  0.57064266969E+02  0.57549286634E+02  0.74470750000E+01 0. -1.
        -31    1    1    2    0    0 -0.65475932311E-01  0.35582881921E+00  0.60993306582E+02  0.61447321139E+02  0.74470750000E+01 0.  1.
<mgrwt>
<rscale>  0 0.14919852E+02</rscale>
<asrwt>0</asrwt>
<pdfrwt beam="1">  1        2 0.98394721E+00 0.14919852E+02</pdfrwt>
<pdfrwt beam="2">  1       -2 0.99715260E+00 0.14919852E+02</pdfrwt>
<totfact>-0.31947306E-13</totfact>
</mgrwt>
</event>
<event>
 4    1 -0.5160210E-019  0.1491840E+02  0.7818608E-02  0.1870569E+00
          2   -1    0    0  501    0  0.00000000000E+00  0.00000000000E+00  0.11839139257E+03  0.11839139259E+03  0.25500000000E-02 0.  1.
         -2   -1    0    0    0  501 -0.00000000000E+00 -0.00000000000E+00 -0.46996008416E+00  0.46996700225E+00  0.25500000000E-02 0. -1.
         31    1    1    2    0    0  0.39905433426E+00  0.98645733224E-01  0.58097427274E+02  0.58574217513E+02  0.74470750000E+01 0.  1.
        -31    1    1    2    0    0 -0.39905433426E+00 -0.98645733224E-01  0.59824005209E+02  0.60287142084E+02  0.74470750000E+01 0. -1.
<mgrwt>
<rscale>  0 0.14918397E+02</rscale>
<asrwt>0</asrwt>
<pdfrwt beam="1">  1        2 0.98282888E+00 0.14918397E+02</pdfrwt>
<pdfrwt beam="2">  1       -2 0.99809249E+00 0.14918397E+02</pdfrwt>
<totfact>-0.28505015E-13</totfact>
</mgrwt>
</event>
<event>
 4    1 -0.5160210E-019  0.1493894E+02  0.7818608E-02  0.1869938E+00
         -2   -1    0    0    0  501 -0.00000000000E+00  0.00000000000E+00  0.11972871934E+03  0.11972871937E+03  0.25500000000E-02 0. -1.
          2   -1    0    0  501    0  0.00000000000E+00 -0.00000000000E+00 -0.46599138839E+00  0.46599836540E+00  0.25500000000E-02 0.  1.
         31    1    1    2    0    0 -0.32782772840E+00 -0.16722192761E+00  0.56045702432E+02  0.56539500540E+02  0.74470750000E+01 0.  1.
        -31    1    1    2    0    0  0.32782772840E+00  0.16722192761E+00  0.63217025520E+02  0.63655217193E+02  0.74470750000E+01 0. -1.
<mgrwt>
<rscale>  0 0.14938939E+02</rscale>
<asrwt>0</asrwt>
<pdfrwt beam="2">  1        2 0.98974036E+00 0.14938939E+02</pdfrwt>
<pdfrwt beam="1">  1       -2 0.99385402E+00 0.14938939E+02</pdfrwt>
<totfact>-0.17731896E-13</totfact>
</mgrwt>
</event>
<event>
 4    1 -0.5160210E-019  0.1494117E+02  0.7818608E-02  0.1869869E+00
          2   -1    0    0  501    0  0.00000000000E+00  0.00000000000E+00  0.11904862029E+03  0.11904862031E+03  0.25500000000E-02 0. -1.
         -2   -1    0    0    0  501 -0.00000000000E+00 -0.00000000000E+00 -0.46879362601E+00  0.46880056131E+00  0.25500000000E-02 0.  1.
         31    1    1    2    0    0 -0.19669069961E+00 -0.17403353029E+00  0.63535895243E+02  0.63971383331E+02  0.74470750000E+01 0. -1.
        -31    1    1    2    0    0  0.19669069961E+00  0.17403353029E+00  0.55043931418E+02  0.55546037545E+02  0.74470750000E+01 0.  1.
<mgrwt>
<rscale>  0 0.14941171E+02</rscale>
<asrwt>0</asrwt>
<pdfrwt beam="1">  1        2 0.98825366E+00 0.14941171E+02</pdfrwt>
<pdfrwt beam="2">  1       -2 0.99564667E+00 0.14941171E+02</pdfrwt>
<totfact>-0.20953332E-13</totfact>
</mgrwt>
</event>
<event>
 4    1  0.5160210E-019  0.1492358E+02  0.7818608E-02  0.1870409E+00
         -2   -1    0    0    0  501 -0.00000000000E+00  0.00000000000E+00  0.11862771793E+03  0.11862771796E+03  0.25500000000E-02 0. -1.
          2   -1    0    0  501    0  0.00000000000E+00 -0.00000000000E+00 -0.46935009701E+00  0.46935702409E+00  0.25500000000E-02 0.  1.
         31    1    1    2    0    0  0.28156090905E+00  0.37042173066E+00  0.58647191981E+02  0.59119950458E+02  0.74470750000E+01 0.  1.
        -31    1    1    2    0    0 -0.28156090905E+00 -0.37042173066E+00  0.59511175850E+02  0.59977124522E+02  0.74470750000E+01 0.  1.
<mgrwt>
<rscale>  0 0.14923585E+02</rscale>
<asrwt>0</asrwt>
<pdfrwt beam="2">  1        2 0.99680999E+00 0.14923585E+02</pdfrwt>
<pdfrwt beam="1">  1       -2 0.98477794E+00 0.14923585E+02</pdfrwt>
<totfact> 0.39658523E-13</totfact>
</mgrwt>
</event>
<event>
 4    1  0.5160210E-019  0.1493337E+02  0.7818608E-02  0.1870109E+00
         -2   -1    0    0    0  501 -0.00000000000E+00  0.00000000000E+00  0.11851027795E+03  0.11851027797E+03  0.25500000000E-02 0. -1.
          2   -1    0    0  501    0  0.00000000000E+00 -0.00000000000E+00 -0.47043132466E+00  0.47043823582E+00  0.25500000000E-02 0.  1.
         31    1    1    2    0    0 -0.23406116558E+00  0.11242782417E+00  0.62799288947E+02  0.63239837468E+02  0.74470750000E+01 0. -1.
        -31    1    1    2    0    0  0.23406116558E+00 -0.11242782417E+00  0.55240557674E+02  0.55740878741E+02  0.74470750000E+01 0. -1.
<mgrwt>
<rscale>  0 0.14933367E+02</rscale>
<asrwt>0</asrwt>
<pdfrwt beam="2">  1        2 0.99909329E+00 0.14933367E+02</pdfrwt>
<pdfrwt beam="1">  1       -2 0.98381581E+00 0.14933367E+02</pdfrwt>
<totfact> 0.18553241E-13</totfact>
</mgrwt>
</event>
<event>
 4    1 -0.5160210E-019  0.1498591E+02  0.7818608E-02  0.1868499E+00
          2   -1    0    0  501    0  0.00000000000E+00  0.00000000000E+00  0.11953760432E+03  0.11953760435E+03  0.25500000000E-02 0. -1.
         -2   -1    0    0    0  501 -0.00000000000E+00 -0.00000000000E+00 -0.46967580502E+00  0.46968272729E+00  0.25500000000E-02 0.  1.
         31    1    1    2    0    0 -0.22107147339E+00 -0.70138803833E+00  0.62579048603E+02  0.63024892446E+02  0.74470750000E+01 0. -1.
        -31    1    1    2    0    0  0.22107147339E+00  0.70138803833E+00  0.56488879911E+02  0.56982394627E+02  0.74470750000E+01 0. -1.
<mgrwt>
<rscale>  0 0.14985905E+02</rscale>
<asrwt>0</asrwt>
<pdfrwt beam="1">  1        2 0.99230421E+00 0.14985905E+02</pdfrwt>
<pdfrwt beam="2">  1       -2 0.99752893E+00 0.14985905E+02</pdfrwt>
<totfact>-0.10364855E-13</totfact>
</mgrwt>
</event>
<event>
 4    1 -0.5160210E-019  0.1492555E+02  0.7818608E-02  0.1870349E+00
         -2   -1    0    0    0  501 -0.00000000000E+00  0.00000000000E+00  0.11994707352E+03  0.11994707355E+03  0.25500000000E-02 0. -1.
          2   -1    0    0  501    0  0.00000000000E+00 -0.00000000000E+00 -0.46430947730E+00  0.46431647958E+00  0.25500000000E-02 0.  1.
         31    1    1    2    0    0 -0.46874376406E+00 -0.60109283721E-01  0.58905850697E+02  0.59376607400E+02  0.74470750000E+01 0. -1.
        -31    1    1    2    0    0  0.46874376406E+00  0.60109283721E-01  0.60576913348E+02  0.61034782630E+02  0.74470750000E+01 0.  1.
<mgrwt>
<rscale>  0 0.14925547E+02</rscale>
<asrwt>0</asrwt>
<pdfrwt beam="2">  1        2 0.98618886E+00 0.14925547E+02</pdfrwt>
<pdfrwt beam="1">  1       -2 0.99564562E+00 0.14925547E+02</pdfrwt>
<totfact>-0.27907300E-13</totfact>
</mgrwt>
</event>
<event>
 4    1 -0.5160210E-019  0.1497036E+02  0.7818608E-02  0.1868974E+00
         -2   -1    0    0    0  501 -0.00000000000E+00  0.00000000000E+00  0.12001972339E+03  0.12001972342E+03  0.25500000000E-02 0. -1.
          2   -1    0    0  501    0  0.00000000000E+00 -0.00000000000E+00 -0.46681878904E+00  0.46682575369E+00  0.25500000000E-02 0.  1.
         31    1    1    2    0    0  0.21656106645E+00  0.64643571914E+00  0.62374200657E+02  0.62820893112E+02  0.74470750000E+01 0. -1.
        -31    1    1    2    0    0 -0.21656106645E+00 -0.64643571914E+00  0.57178703949E+02  0.57665656063E+02  0.74470750000E+01 0.  1.
<mgrwt>
<rscale>  0 0.14970355E+02</rscale>
<asrwt>0</asrwt>
<pdfrwt beam="2">  1        2 0.99150020E+00 0.14970355E+02</pdfrwt>
<pdfrwt beam="1">  1       -2 0.99626709E+00 0.14970355E+02</pdfrwt>
<totfact>-0.14282357E-13</totfact>
</mgrwt>
</event>
<event>
 4    1  0.5160210E-019  0.1491837E+02  0.7818608E-02  0.1870570E+00
          2   -1    0    0  501    0  0.00000000000E+00  0.00000000000E+00  0.12027942929E+03  0.12027942932E+03  0.25500000000E-02 0.  1.
         -2   -1    0    0    0  501 -0.00000000000E+00 -0.00000000000E+00 -0.46258115099E+00  0.46258817943E+00  0.25500000000E-02 0. -1.
         31    1    1    2    0    0 -0.39603834167E+00 -0.35009052272E-01  0.58696429339E+02  0.59168300763E+02  0.74470750000E+01 0.  1.
        -31    1    1    2    0    0  0.39603834167E+00  0.35009052272E-01  0.61120418799E+02  0.61573716732E+02  0.74470750000E+01 0. -1.
<mgrwt>
<rscale>  0 0.14918368E+02</rscale>
<asrwt>0</asrwt>
<pdfrwt beam="1">  1        2 0.99837948E+00 0.14918368E+02</pdfrwt>
<pdfrwt beam="2">  1       -2 0.98254250E+00 0.14918368E+02</pdfrwt>
<totfact> 0.40774288E-13</totfact>
</mgrwt>
</event>
<event>
 4    1 -0.5160210E-019  0.1496902E+02  0.7818608E-02  0.1869015E+00
          2   -1    0    0  501    0  0.00000000000E+00  0.00000000000E+00  0.11977079007E+03  0.11977079010E+03  0.25500000000E-02 0.  1.
         -2   -1    0    0    0  501 -0.00000000000E+00 -0.00000000000E+00 -0.46770564967E+00  0.46771260110E+00  0.25500000000E-02 0. -1.
         31    1    1    2    0    0  0.42274469958E+00 -0.53752798345E+00  0.57224198024E+02  0.57710791148E+02  0.74470750000E+01 0. -1.
        -31    1    1    2    0    0 -0.42274469958E+00  0.53752798345E+00  0.62078886398E+02  0.62527711551E+02  0.74470750000E+01 0.  1.
<mgrwt>
<rscale>  0 0.14969021E+02</rscale>
<asrwt>0</asrwt>
<pdfrwt beam="1">  1        2 0.99421607E+00 0.14969021E+02</pdfrwt>
<pdfrwt beam="2">  1       -2 0.99336849E+00 0.14969021E+02</pdfrwt>
<totfact>-0.11794694E-13</totfact>
</mgrwt>
</event>
<event>
 4    1 -0.5160210E-019  0.1494174E+02  0.7818608E-02  0.1869851E+00
         -2   -1    0    0    0  501 -0.00000000000E+00  0.00000000000E+00  0.12025651783E+03  0.12025651786E+03  0.25500000000E-02 0. -1.
          2   -1    0    0  501    0  0.00000000000E+00 -0.00000000000E+00 -0.46412032789E+00  0.46412733302E+00  0.25500000000E-02 0.  1.
         31    1    1    2    0    0 -0.37501303723E+00  0.45811317184E+00  0.59354790826E+02  0.59823077675E+02  0.74470750000E+01 0. -1.
        -31    1    1    2    0    0  0.37501303723E+00 -0.45811317184E+00  0.60437606674E+02  0.60897567513E+02  0.74470750000E+01 0.  1.
<mgrwt>
<rscale>  0 0.14941743E+02</rscale>
<asrwt>0</asrwt>
<pdfrwt beam="2">  1        2 0.98579844E+00 0.14941743E+02</pdfrwt>
<pdfrwt beam="1">  1       -2 0.99820276E+00 0.14941743E+02</pdfrwt>
<totfact>-0.16648647E-13</totfact>
</mgrwt>
</event>
<event>
 4    1 -0.5160210E-019  0.1489564E+02  0.7818608E-02  0.1871270E+00
         -2   -1    0    0    0  501 -0.00000000000E+00  0.00000000000E+00  0.12022006997E+03  0.12022007000E+03  0.25500000000E-02 0. -1.
          2   -1    0    0  501    0  0.00000000000E+00 -0.00000000000E+00 -0.46140026086E+00  0.46140730729E+00  0.25500000000E-02 0.  1.
         31    1    1    2    0    0  0.23438444546E-01 -0.91476460711E-01  0.60255445567E+02  0.60713973382E+02  0.74470750000E+01 0. -1.
        -31    1    1    2    0    0 -0.23438444546E-01  0.91476460711E-01  0.59503224143E+02  0.59967503923E+02  0.74470750000E+01 0.  1.
<mgrwt>
<rscale>  0 0.14895637E+02</rscale>
<asrwt>0</asrwt>
<pdfrwt beam="2">  1        2 0.98004201E+00 0.14895637E+02</pdfrwt>
<pdfrwt beam="1">  1       -2 0.99787889E+00 0.14895637E+02</pdfrwt>
<totfact>-0.49501579E-13</totfact>
</mgrwt>
</event>
<event>
 4    1  0.5160210E-019  0.1490649E+02  0.7818608E-02  0.1870936E+00
         -2   -1    0    0    0  501 -0.00000000000E+00  0.00000000000E+00  0.11879857252E+03  0.11879857254E+03  0.25500000000E-02 0. -1.
          2   -1    0    0  501    0  0.00000000000E+00 -0.00000000000E+00 -0.46760169692E+00  0.46760864990E+00  0.25500000000E-02 0.  1.
         31    1    1    2    0    0 -0.13138620778E+00 -0.27298323367E+00  0.59077067552E+02  0.59545366056E+02  0.74470750000E+01 0.  1.
        -31    1    1    2    0    0  0.13138620778E+00  0.27298323367E+00  0.59253903267E+02  0.59720815137E+02  0.74470750000E+01 0. -1.
<mgrwt>
<rscale>  0 0.14906486E+02</rscale>
<asrwt>0</asrwt>
<pdfrwt beam="2">  1        2 0.99311696E+00 0.14906486E+02</pdfrwt>
<pdfrwt beam="1">  1       -2 0.98617623E+00 0.14906486E+02</pdfrwt>
<totfact> 0.39326608E-13</totfact>
</mgrwt>
</event>
<event>
 4    1 -0.5160210E-019  0.1501733E+02  0.7818608E-02  0.1867540E+00
          2   -1    0    0  501    0  0.00000000000E+00  0.00000000000E+00  0.12013828700E+03  0.12013828703E+03  0.25500000000E-02 0. -1.
         -2   -1    0    0    0  501 -0.00000000000E+00 -0.00000000000E+00 -0.46928928514E+00  0.46929621312E+00  0.25500000000E-02 0.  1.
         31    1    1    2    0    0 -0.12589825168E+00  0.37069706263E+00  0.66871970006E+02  0.67286496158E+02  0.74470750000E+01 0. -1.
        -31    1    1    2    0    0  0.12589825168E+00 -0.37069706263E+00  0.52797027711E+02  0.53321087085E+02  0.74470750000E+01 0.  1.
<mgrwt>
<rscale>  0 0.15017327E+02</rscale>
<asrwt>0</asrwt>
<pdfrwt beam="1">  1        2 0.99726788E+00 0.15017327E+02</pdfrwt>
<pdfrwt beam="2">  1       -2 0.99673073E+00 0.15017327E+02</pdfrwt>
<totfact>-0.69788837E-14</totfact>
</mgrwt>
</event>
<event>
 4    1 -0.5160210E-019  0.1491048E+02  0.7818608E-02  0.1870812E+00
          2   -1    0    0  501    0  0.00000000000E+00  0.00000000000E+00  0.11841286486E+03  0.11841286489E+03  0.25500000000E-02 0. -1.
         -2   -1    0    0    0  501 -0.00000000000E+00 -0.00000000000E+00 -0.46937646598E+00  0.46938339267E+00  0.25500000000E-02 0.  1.
         31    1    1    2    0    0 -0.93937103540E-01 -0.98921159743E-01  0.56411784782E+02  0.56901379579E+02  0.74470750000E+01 0. -1.
        -31    1    1    2    0    0  0.93937103540E-01  0.98921159743E-01  0.61531703615E+02  0.61980868705E+02  0.74470750000E+01 0. -1.
<mgrwt>
<rscale>  0 0.14910483E+02</rscale>
<asrwt>0</asrwt>
<pdfrwt beam="1">  1        2 0.98300161E+00 0.14910483E+02</pdfrwt>
<pdfrwt beam="2">  1       -2 0.99685864E+00 0.14910483E+02</pdfrwt>
<totfact>-0.39925744E-13</totfact>
</mgrwt>
</event>
<event>
 4    1 -0.5160210E-019  0.1495319E+02  0.7818608E-02  0.1869500E+00
          2   -1    0    0  501    0  0.00000000000E+00  0.00000000000E+00  0.11899449336E+03  0.11899449339E+03  0.25500000000E-02 0.  1.
         -2   -1    0    0    0  501 -0.00000000000E+00 -0.00000000000E+00 -0.46976158136E+00  0.46976850238E+00  0.25500000000E-02 0. -1.
         31    1    1    2    0    0  0.56080790795E+00 -0.17788324048E+00  0.61716790652E+02  0.62167252814E+02  0.74470750000E+01 0.  1.
        -31    1    1    2    0    0 -0.56080790795E+00  0.17788324048E+00  0.56807941124E+02  0.57297009073E+02  0.74470750000E+01 0.  1.
<mgrwt>
<rscale>  0 0.14953188E+02</rscale>
<asrwt>0</asrwt>
<pdfrwt beam="1">  1        2 0.98781410E+00 0.14953188E+02</pdfrwt>
<pdfrwt beam="2">  1       -2 0.99769257E+00 0.14953188E+02</pdfrwt>
<totfact>-0.15200016E-13</totfact>
</mgrwt>
</event>
<event>
 4    1 -0.5160210E-019  0.1502267E+02  0.7818608E-02  0.1867378E+00
          2   -1    0    0  501    0  0.00000000000E+00  0.00000000000E+00  0.11999190222E+03  0.11999190224E+03  0.25500000000E-02 0. -1.
         -2   -1    0    0    0  501 -0.00000000000E+00 -0.00000000000E+00 -0.47019600451E+00  0.47020291913E+00  0.25500000000E-02 0.  1.
         31    1    1    2    0    0 -0.19951154228E+00  0.73932926872E+00  0.64669918397E+02  0.65101794785E+02  0.74470750000E+01 0. -1.
        -31    1    1    2    0    0  0.19951154228E+00 -0.73932926872E+00  0.54851787813E+02  0.55360310377E+02  0.74470750000E+01 0.  1.
<mgrwt>
<rscale>  0 0.15022667E+02</rscale>
<asrwt>0</asrwt>
<pdfrwt beam="1">  1        2 0.99606497E+00 0.15022667E+02</pdfrwt>
<pdfrwt beam="2">  1       -2 0.99864424E+00 0.15022667E+02</pdfrwt>
<totfact>-0.44725951E-14</totfact>
</mgrwt>
</event>
<event>
 4    1  0.5160210E-019  0.1489569E+02  0.7818608E-02  0.1871268E+00
         -2   -1    0    0    0  501 -0.00000000000E+00  0.00000000000E+00  0.11835953279E+03  0.11835953282E+03  0.25500000000E-02 0.  1.
          2   -1    0    0  501    0  0.00000000000E+00 -0.00000000000E+00 -0.46865663285E+00  0.46866357018E+00  0.25500000000E-02 0. -1.
         31    1    1    2    0    0 -0.57035728129E-01  0.79233783134E-01  0.59296513185E+02  0.59762404010E+02  0.74470750000E+01 0.  1.
        -31    1    1    2    0    0  0.57035728129E-01 -0.79233783134E-01  0.58594362973E+02  0.59065792379E+02  0.74470750000E+01 0. -1.
<mgrwt>
<rscale>  0 0.14895690E+02</rscale>
<asrwt>0</asrwt>
<pdfrwt beam="2">  1        2 0.99533414E+00 0.14895690E+02</pdfrwt>
<pdfrwt beam="1">  1       -2 0.98255467E+00 0.14895690E+02</pdfrwt>
<totfact> 0.84499116E-13</totfact>
</mgrwt>
</event>
<event>
 4    1 -0.5160210E-019  0.1500202E+02  0.7818608E-02  0.1868007E+00
         -2   -1    0    0    0  501 -0.00000000000E+00  0.00000000000E+00  0.11978972300E+03  0.11978972303E+03  0.25500000000E-02 0.  1.
          2   -1    0    0  501    0  0.00000000000E+00 -0.00000000000E+00 -0.46969584199E+00  0.46970276397E+00  0.25500000000E-02 0. -1.
         31    1    1    2    0    0  0.85832301603E+00 -0.18561185049E+00  0.61160918908E+02  0.61618894001E+02  0.74470750000E+01 0.  1.
        -31    1    1    2    0    0 -0.85832301603E+00  0.18561185049E+00  0.58159108253E+02  0.58640531794E+02  0.74470750000E+01 0. -1.
<mgrwt>
<rscale>  0 0.15002020E+02</rscale>
<asrwt>0</asrwt>
<pdfrwt beam="2">  1        2 0.99757954E+00 0.15002020E+02</pdfrwt>
<pdfrwt beam="1">  1       -2 0.99438907E+00 0.15002020E+02</pdfrwt>
<totfact>-0.75460702E-14</totfact>
</mgrwt>
</event>
<event>
 4    1 -0.5160210E-019  0.1490876E+02  0.7818608E-02  0.1870866E+00
         -2   -1    0    0    0  501 -0.00000000000E+00  0.00000000000E+00  0.12015612452E+03  0.12015612454E+03  0.25500000000E-02 0.  1.
          2   -1    0    0  501    0  0.00000000000E+00 -0.00000000000E+00 -0.46245960202E+00  0.46246663231E+00  0.25500000000E-02 0. -1.
         31    1    1    2    0    0  0.23774305818E+00 -0.92551423488E-01  0.61539372687E+02  0.61988857098E+02  0.74470750000E+01 0.  1.
        -31    1    1    2    0    0 -0.23774305818E+00  0.92551423488E-01  0.58154292227E+02  0.58629734077E+02  0.74470750000E+01 0. -1.
<mgrwt>
<rscale>  0 0.14908760E+02</rscale>
<asrwt>0</asrwt>
<pdfrwt beam="2">  1        2 0.98228146E+00 0.14908760E+02</pdfrwt>
<pdfrwt beam="1">  1       -2 0.99735890E+00 0.14908760E+02</pdfrwt>
<totfact>-0.40155564E-13</totfact>
</mgrwt>
</event>
<event>
 4    1  0.5160210E-019  0.1493854E+02  0.7818608E-02  0.1869950E+00
          2   -1    0    0  501    0  0.00000000000E+00  0.00000000000E+00  0.11996635876E+03  0.11996635879E+03  0.25500000000E-02 0.  1.
         -2   -1    0    0    0  501 -0.00000000000E+00 -0.00000000000E+00 -0.46504375755E+00  0.46505074877E+00  0.25500000000E-02 0. -1.
         31    1    1    2    0    0 -0.56711977955E+00  0.33859580071E-01  0.60486513905E+02  0.60945878136E+02  0.74470750000E+01 0.  1.
        -31    1    1    2    0    0  0.56711977955E+00 -0.33859580071E-01  0.59014801099E+02  0.59485531401E+02  0.74470750000E+01 0. -1.
<mgrwt>
<rscale>  0 0.14938545E+02</rscale>
<asrwt>0</asrwt>
<pdfrwt beam="1">  1        2 0.99581116E+00 0.14938545E+02</pdfrwt>
<pdfrwt beam="2">  1       -2 0.98774303E+00 0.14938545E+02</pdfrwt>
<totfact> 0.15815337E-13</totfact>
</mgrwt>
</event>
<event>
 4    1 -0.5160210E-019  0.1500516E+02  0.7818608E-02  0.1867911E+00
          2   -1    0    0  501    0  0.00000000000E+00  0.00000000000E+00  0.12014357020E+03  0.12014357023E+03  0.25500000000E-02 0. -1.
         -2   -1    0    0    0  501 -0.00000000000E+00 -0.00000000000E+00 -0.46850859256E+00  0.46851553208E+00  0.25500000000E-02 0.  1.
         31    1    1    2    0    0  0.57368816729E+00  0.10299998912E+00  0.65464514433E+02  0.65889310993E+02  0.74470750000E+01 0. -1.
        -31    1    1    2    0    0 -0.57368816729E+00 -0.10299998912E+00  0.54210547173E+02  0.54722774765E+02  0.74470750000E+01 0.  1.
<mgrwt>
<rscale>  0 0.15005161E+02</rscale>
<asrwt>0</asrwt>
<pdfrwt beam="1">  1        2 0.99730511E+00 0.15005161E+02</pdfrwt>
<pdfrwt beam="2">  1       -2 0.99507924E+00 0.15005161E+02</pdfrwt>
<totfact>-0.81600081E-14</totfact>
</mgrwt>
</event>
<event>
 4    1  0.5160210E-019  0.1494938E+02  0.7818608E-02  0.1869617E+00
         -2   -1    0    0    0  501 -0.00000000000E+00  0.00000000000E+00  0.11894791982E+03  0.11894791984E+03  0.25500000000E-02 0.  1.
          2   -1    0    0  501    0  0.00000000000E+00 -0.00000000000E+00 -0.46970615208E+00  0.46971307391E+00  0.25500000000E-02 0. -1.
         31    1    1    2    0    0  0.52269903048E+00  0.34969096987E+00  0.60267081641E+02  0.60728704528E+02  0.74470750000E+01 0.  1.
        -31    1    1    2    0    0 -0.52269903048E+00 -0.34969096987E+00  0.58211132022E+02  0.58688928389E+02  0.74470750000E+01 0. -1.
<mgrwt>
<rscale>  0 0.14949379E+02</rscale>
<asrwt>0</asrwt>
<pdfrwt beam="2">  1        2 0.99757378E+00 0.14949379E+02</pdfrwt>
<pdfrwt beam="1">  1       -2 0.98742854E+00 0.14949379E+02</pdfrwt>
<totfact> 0.12925538E-13</totfact>
</mgrwt>
</event>
<event>
 4    1 -0.5160210E-019  0.1491637E+02  0.7818608E-02  0.1870631E+00
          2   -1    0    0  501    0  0.00000000000E+00  0.00000000000E+00  0.11904918036E+03  0.11904918039E+03  0.25500000000E-02 0. -1.
         -2   -1    0    0    0  501 -0.00000000000E+00 -0.00000000000E+00 -0.46723640519E+00  0.46724336360E+00  0.25500000000E-02 0.  1.
         31    1    1    2    0    0 -0.36462667450E+00 -0.43650712133E-01  0.60695880257E+02  0.61152135402E+02  0.74470750000E+01 0.  1.
        -31    1    1    2    0    0  0.36462667450E+00  0.43650712133E-01  0.57886063702E+02  0.58364288353E+02  0.74470750000E+01 0.  1.
<mgrwt>
<rscale>  0 0.14916371E+02</rscale>
<asrwt>0</asrwt>
<pdfrwt beam="1">  1        2 0.98824541E+00 0.14916371E+02</pdfrwt>
<pdfrwt beam="2">  1       -2 0.99235237E+00 0.14916371E+02</pdfrwt>
<totfact>-0.16128577E-13</totfact>
</mgrwt>
</event>
<event>
 4    1  0.5160210E-019  0.1491693E+02  0.7818608E-02  0.1870614E+00
          2   -1    0    0  501    0  0.00000000000E+00  0.00000000000E+00  0.11983257316E+03  0.11983257319E+03  0.25500000000E-02 0. -1.
         -2   -1    0    0    0  501 -0.00000000000E+00 -0.00000000000E+00 -0.46421644481E+00  0.46422344849E+00  0.25500000000E-02 0.  1.
         31    1    1    2    0    0 -0.33339874144E+00 -0.22302418653E+00  0.60442983166E+02  0.60901346739E+02  0.74470750000E+01 0.  1.
        -31    1    1    2    0    0  0.33339874144E+00  0.22302418653E+00  0.58925373550E+02  0.59395449898E+02  0.74470750000E+01 0. -1.
<mgrwt>
<rscale>  0 0.14916926E+02</rscale>
<asrwt>0</asrwt>
<pdfrwt beam="1">  1        2 0.99469808E+00 0.14916926E+02</pdfrwt>
<pdfrwt beam="2">  1       -2 0.98598839E+00 0.14916926E+02</pdfrwt>
<totfact> 0.36886920E-13</totfact>
</mgrwt>
</event>
<event>
 4    1 -0.5160210E-019  0.1497734E+02  0.7818608E-02  0.1868761E+00
          2   -1    0    0  501    0  0.00000000000E+00  0.00000000000E+00  0.11978932902E+03  0.11978932904E+03  0.25500000000E-02 0. -1.
         -2   -1    0    0    0  501 -0.00000000000E+00 -0.00000000000E+00 -0.46815314440E+00  0.46816008919E+00  0.25500000000E-02 0.  1.
         31    1    1    2    0    0 -0.48304753857E+00 -0.48961222846E+00  0.62751493009E+02  0.63195584150E+02  0.74470750000E+01 0. -1.
        -31    1    1    2    0    0  0.48304753857E+00  0.48961222846E+00  0.56569682862E+02  0.57061904982E+02  0.74470750000E+01 0.  1.
<mgrwt>
<rscale>  0 0.14977339E+02</rscale>
<asrwt>0</asrwt>
<pdfrwt beam="1">  1        2 0.99437306E+00 0.14977339E+02</pdfrwt>
<pdfrwt beam="2">  1       -2 0.99431582E+00 0.14977339E+02</pdfrwt>
<totfact>-0.12589847E-13</totfact>
</mgrwt>
</event>
<event>
 4    1  0.5160210E-019  0.1491098E+02  0.7818608E-02  0.1870797E+00
          2   -1    0    0  501    0  0.00000000000E+00  0.00000000000E+00  0.11988442253E+03  0.11988442256E+03  0.25500000000E-02 0. -1.
         -2   -1    0    0    0  501 -0.00000000000E+00 -0.00000000000E+00 -0.46364596516E+00  0.46365297746E+00  0.25500000000E-02 0.  1.
         31    1    1    2    0    0  0.17493583404E+00 -0.28354128396E+00  0.60679865882E+02  0.61136045405E+02  0.74470750000E+01 0. -1.
        -31    1    1    2    0    0 -0.17493583404E+00  0.28354128396E+00  0.58740910685E+02  0.59212030133E+02  0.74470750000E+01 0.  1.
<mgrwt>
<rscale>  0 0.14910983E+02</rscale>
<asrwt>0</asrwt>
<pdfrwt beam="1">  1        2 0.99512209E+00 0.14910983E+02</pdfrwt>
<pdfrwt beam="2">  1       -2 0.98478303E+00 0.14910983E+02</pdfrwt>
<totfact> 0.50840570E-13</totfact>
</mgrwt>
</event>
<event>
 4    1  0.5160210E-019  0.1490039E+02  0.7818608E-02  0.1871123E+00
         -2   -1    0    0    0  501 -0.00000000000E+00  0.00000000000E+00  0.11894948959E+03  0.11894948961E+03  0.25500000000E-02 0.  1.
          2   -1    0    0  501    0  0.00000000000E+00 -0.00000000000E+00 -0.46662678311E+00  0.46663375062E+00  0.25500000000E-02 0. -1.
         31    1    1    2    0    0 -0.13322329274E+00 -0.79369535026E-01  0.58040321700E+02  0.58516338890E+02  0.74470750000E+01 0. -1.
        -31    1    1    2    0    0  0.13322329274E+00  0.79369535026E-01  0.60442541102E+02  0.60899784473E+02  0.74470750000E+01 0.  1.
<mgrwt>
<rscale>  0 0.14900394E+02</rscale>
<asrwt>0</asrwt>
<pdfrwt beam="2">  1        2 0.99105944E+00 0.14900394E+02</pdfrwt>
<pdfrwt beam="1">  1       -2 0.98741606E+00 0.14900394E+02</pdfrwt>
<totfact> 0.27894696E-13</totfact>
</mgrwt>
</event>
<event>
 4    1  0.5160210E-019  0.1489622E+02  0.7818608E-02  0.1871252E+00
         -2   -1    0    0    0  501 -0.00000000000E+00  0.00000000000E+00  0.11811811163E+03  0.11811811165E+03  0.25500000000E-02 0. -1.
          2   -1    0    0  501    0  0.00000000000E+00 -0.00000000000E+00 -0.46964797591E+00  0.46965489859E+00  0.25500000000E-02 0.  1.
         31    1    1    2    0    0 -0.29436117277E-01  0.32433543725E-01  0.59749197123E+02  0.60211522164E+02  0.74470750000E+01 0. -1.
        -31    1    1    2    0    0  0.29436117277E-01 -0.32433543725E-01  0.57899266529E+02  0.58376244390E+02  0.74470750000E+01 0.  1.
<mgrwt>
<rscale>  0 0.14896220E+02</rscale>
<asrwt>0</asrwt>
<pdfrwt beam="2">  1        2 0.99742315E+00 0.14896220E+02</pdfrwt>
<pdfrwt beam="1">  1       -2 0.98056663E+00 0.14896220E+02</pdfrwt>
<totfact> 0.85200998E-13</totfact>
</mgrwt>
</event>
<event>
 4    1 -0.5160210E-019  0.1498120E+02  0.7818608E-02  0.1868643E+00
          2   -1    0    0  501    0  0.00000000000E+00  0.00000000000E+00  0.12013873516E+03  0.12013873519E+03  0.25500000000E-02 0. -1.
         -2   -1    0    0    0  501 -0.00000000000E+00 -0.00000000000E+00 -0.46703255847E+00  0.46703951992E+00  0.25500000000E-02 0.  1.
         31    1    1    2    0    0 -0.13675754404E+00 -0.78422125407E+00  0.58802043216E+02  0.59277085944E+02  0.74470750000E+01 0.  1.
        -31    1    1    2    0    0  0.13675754404E+00  0.78422125407E+00  0.60869659387E+02  0.61328688765E+02  0.74470750000E+01 0. -1.
<mgrwt>
<rscale>  0 0.14981205E+02</rscale>
<asrwt>0</asrwt>
<pdfrwt beam="1">  1        2 0.99725293E+00 0.14981205E+02</pdfrwt>
<pdfrwt beam="2">  1       -2 0.99195628E+00 0.14981205E+02</pdfrwt>
<totfact>-0.53784542E-14</totfact>
</mgrwt>
</event>
<event>
 4    1 -0.5160210E-019  0.1492882E+02  0.7818608E-02  0.1870248E+00
          2   -1    0    0  501    0  0.00000000000E+00  0.00000000000E+00  0.11923537398E+03  0.11923537400E+03  0.25500000000E-02 0. -1.
         -2   -1    0    0    0  501 -0.00000000000E+00 -0.00000000000E+00 -0.46728597413E+00  0.46729293181E+00  0.25500000000E-02 0.  1.
         31    1    1    2    0    0 -0.45785478866E+00  0.13852984803E+00  0.60765609057E+02  0.61222111950E+02  0.74470750000E+01 0. -1.
        -31    1    1    2    0    0  0.45785478866E+00 -0.13852984803E+00  0.58002478945E+02  0.58480554985E+02  0.74470750000E+01 0.  1.
<mgrwt>
<rscale>  0 0.14928823E+02</rscale>
<asrwt>0</asrwt>
<pdfrwt beam="1">  1        2 0.98978540E+00 0.14928823E+02</pdfrwt>
<pdfrwt beam="2">  1       -2 0.99246329E+00 0.14928823E+02</pdfrwt>
<totfact>-0.14022764E-13</totfact>
</mgrwt>
</event>
<event>
 4    1 -0.5160210E-019  0.1495026E+02  0.7818608E-02  0.1869590E+00
         -2   -1    0    0    0  501 -0.00000000000E+00  0.00000000000E+00  0.11969415407E+03  0.11969415410E+03  0.25500000000E-02 0. -1.
          2   -1    0    0  501    0  0.00000000000E+00 -0.00000000000E+00 -0.46683290438E+00  0.46683986881E+00  0.25500000000E-02 0.  1.
         31    1    1    2    0    0 -0.50802191474E+00  0.28042544247E+00  0.61914359137E+02  0.62363318690E+02  0.74470750000E+01 0. -1.
        -31    1    1    2    0    0  0.50802191474E+00 -0.28042544247E+00  0.57312962028E+02  0.57797675274E+02  0.74470750000E+01 0. -1.
<mgrwt>
<rscale>  0 0.14950263E+02</rscale>
<asrwt>0</asrwt>
<pdfrwt beam="2">  1        2 0.99151961E+00 0.14950263E+02</pdfrwt>
<pdfrwt beam="1">  1       -2 0.99357517E+00 0.14950263E+02</pdfrwt>
<totfact>-0.14791558E-13</totfact>
</mgrwt>
</event>
<event>
 4    1 -0.5160210E-019  0.1494014E+02  0.7818608E-02  0.1869901E+00
         -2   -1    0    0    0  501 -0.00000000000E+00  0.00000000000E+00  0.12009122653E+03  0.12009122656E+03  0.25500000000E-02 0. -1.
          2   -1    0    0  501    0  0.00000000000E+00 -0.00000000000E+00 -0.46465920157E+00  0.46466619858E+00  0.25500000000E-02 0.  1.
         31    1    1    2    0    0 -0.32559837422E-01 -0.33406978396E+00  0.55940642390E+02  0.56435158012E+02  0.74470750000E+01 0.  1.
        -31    1    1    2    0    0  0.32559837422E-01  0.33406978396E+00  0.63685924937E+02  0.64120734742E+02  0.74470750000E+01 0. -1.
<mgrwt>
<rscale>  0 0.14940136E+02</rscale>
<asrwt>0</asrwt>
<pdfrwt beam="2">  1        2 0.98693336E+00 0.14940136E+02</pdfrwt>
<pdfrwt beam="1">  1       -2 0.99684047E+00 0.14940136E+02</pdfrwt>
<totfact>-0.21351264E-13</totfact>
</mgrwt>
</event>
<event>
 4    1 -0.5160210E-019  0.1498790E+02  0.7818608E-02  0.1868438E+00
         -2   -1    0    0    0  501 -0.00000000000E+00  0.00000000000E+00  0.11977033408E+03  0.11977033411E+03  0.25500000000E-02 0.  1.
          2   -1    0    0  501    0  0.00000000000E+00 -0.00000000000E+00 -0.46888824735E+00  0.46889518126E+00  0.25500000000E-02 0. -1.
         31    1    1    2    0    0  0.23084104010E+00 -0.57018441217E+00  0.64203023433E+02  0.64636410341E+02  0.74470750000E+01 0.  1.
        -31    1    1    2    0    0 -0.23084104010E+00  0.57018441217E+00  0.55098422401E+02  0.55602818948E+02  0.74470750000E+01 0.  1.
<mgrwt>
<rscale>  0 0.14987905E+02</rscale>
<asrwt>0</asrwt>
<pdfrwt beam="2">  1        2 0.99587039E+00 0.14987905E+02</pdfrwt>
<pdfrwt beam="1">  1       -2 0.99422207E+00 0.14987905E+02</pdfrwt>
<totfact>-0.10650661E-13</totfact>
</mgrwt>
</event>
<event>
 4    1 -0.5160210E-019  0.1497268E+02  0.7818608E-02  0.1868903E+00
         -2   -1    0    0    0  501 -0.00000000000E+00  0.00000000000E+00  0.12033834639E+03  0.12033834642E+03  0.25500000000E-02 0.  1.
          2   -1    0    0  501    0  0.00000000000E+00 -0.00000000000E+00 -0.46572744288E+00  0.46573442384E+00  0.25500000000E-02 0. -1.
         31    1    1    2    0    0  0.45764181730E+00 -0.15584133151E+00  0.55145036443E+02  0.55647710581E+02  0.74470750000E+01 0. -1.
        -31    1    1    2    0    0 -0.45764181730E+00  0.15584133151E+00  0.64727582504E+02  0.65156370260E+02  0.74470750000E+01 0.  1.
<mgrwt>
<rscale>  0 0.14972681E+02</rscale>
<asrwt>0</asrwt>
<pdfrwt beam="2">  1        2 0.98920135E+00 0.14972681E+02</pdfrwt>
<pdfrwt beam="1">  1       -2 0.99889266E+00 0.14972681E+02</pdfrwt>
<totfact>-0.69119045E-14</totfact>
</mgrwt>
</event>
<event>
 4    1 -0.5160210E-019  0.1492289E+02  0.7818608E-02  0.1870431E+00
         -2   -1    0    0    0  501 -0.00000000000E+00  0.00000000000E+00  0.11977872922E+03  0.11977872925E+03  0.25500000000E-02 0.  1.
          2   -1    0    0  501    0  0.00000000000E+00 -0.00000000000E+00 -0.46479666280E+00  0.46480365774E+00  0.25500000000E-02 0. -1.
         31    1    1    2    0    0  0.41123423654E+00 -0.23022031190E-01  0.57955176135E+02  0.58433132814E+02  0.74470750000E+01 0. -1.
        -31    1    1    2    0    0 -0.41123423654E+00  0.23022031190E-01  0.61358756423E+02  0.61810400091E+02  0.74470750000E+01 0. -1.
<mgrwt>
<rscale>  0 0.14922892E+02</rscale>
<asrwt>0</asrwt>
<pdfrwt beam="2">  1        2 0.98721427E+00 0.14922892E+02</pdfrwt>
<pdfrwt beam="1">  1       -2 0.99425766E+00 0.14922892E+02</pdfrwt>
<totfact>-0.24605571E-13</totfact>
</mgrwt>
</event>
<event>
 4    1 -0.5160210E-019  0.1496433E+02  0.7818608E-02  0.1869159E+00
         -2   -1    0    0    0  501 -0.00000000000E+00  0.00000000000E+00  0.11941264650E+03  0.11941264652E+03  0.25500000000E-02 0.  1.
          2   -1    0    0  501    0  0.00000000000E+00 -0.00000000000E+00 -0.46881471352E+00  0.46882164851E+00  0.25500000000E-02 0. -1.
         31    1    1    2    0    0 -0.61711751782E+00  0.21287258016E+00  0.61976576869E+02  0.62425805203E+02  0.74470750000E+01 0. -1.
        -31    1    1    2    0    0  0.61711751782E+00 -0.21287258016E+00  0.56967254914E+02  0.57455662970E+02  0.74470750000E+01 0. -1.
<mgrwt>
<rscale>  0 0.14964334E+02</rscale>
<asrwt>0</asrwt>
<pdfrwt beam="2">  1        2 0.99570319E+00 0.14964334E+02</pdfrwt>
<pdfrwt beam="1">  1       -2 0.99126386E+00 0.14964334E+02</pdfrwt>
<totfact>-0.48633489E-14</totfact>
</mgrwt>
</event>
<event>
 4    1  0.5160210E-019  0.1490322E+02  0.7818608E-02  0.1871036E+00
          2   -1    0    0  501    0  0.00000000000E+00  0.00000000000E+00  0.12043887565E+03  0.12043887568E+03  0.25500000000E-02 0. -1.
         -2   -1    0    0    0  501 -0.00000000000E+00 -0.00000000000E+00 -0.46103127917E+00  0.46103833124E+00  0.25500000000E-02 0.  1.
         31    1    1    2    0    0  0.65682184801E-01  0.17917588248E+00  0.61421217306E+02  0.61871328413E+02  0.74470750000E+01 0. -1.
        -31    1    1    2    0    0 -0.65682184801E-01 -0.17917588248E+00  0.58556627067E+02  0.59028585597E+02  0.74470750000E+01 0.  1.
<mgrwt>
<rscale>  0 0.14903223E+02</rscale>
<asrwt>0</asrwt>
<pdfrwt beam="1">  1        2 0.99968508E+00 0.14903223E+02</pdfrwt>
<pdfrwt beam="2">  1       -2 0.97926808E+00 0.14903223E+02</pdfrwt>
<totfact> 0.16624048E-13</totfact>
</mgrwt>
</event>
<event>
 4    1 -0.5160210E-019  0.1491242E+02  0.7818608E-02  0.1870753E+00
         -2   -1    0    0    0  501 -0.00000000000E+00  0.00000000000E+00  0.12023702285E+03  0.12023702287E+03  0.25500000000E-02 0.  1.
          2   -1    0    0  501    0  0.00000000000E+00 -0.00000000000E+00 -0.46237542300E+00  0.46238245457E+00  0.25500000000E-02 0. -1.
         31    1    1    2    0    0  0.24608729710E+00 -0.73749065015E-01  0.57743645876E+02  0.58222448961E+02  0.74470750000E+01 0. -1.
        -31    1    1    2    0    0 -0.24608729710E+00  0.73749065015E-01  0.62031001546E+02  0.62476956366E+02  0.74470750000E+01 0.  1.
<mgrwt>
<rscale>  0 0.14912420E+02</rscale>
<asrwt>0</asrwt>
<pdfrwt beam="2">  1        2 0.98210588E+00 0.14912420E+02</pdfrwt>
<pdfrwt beam="1">  1       -2 0.99802713E+00 0.14912420E+02</pdfrwt>
<totfact>-0.33105728E-13</totfact>
</mgrwt>
</event>
<event>
 4    1 -0.5160210E-019  0.1499536E+02  0.7818608E-02  0.1868210E+00
         -2   -1    0    0    0  501 -0.00000000000E+00  0.00000000000E+00  0.11948785172E+03  0.11948785174E+03  0.25500000000E-02 0.  1.
          2   -1    0    0  501    0  0.00000000000E+00 -0.00000000000E+00 -0.47046463441E+00  0.47047154508E+00  0.25500000000E-02 0. -1.
         31    1    1    2    0    0  0.13996070932E+00  0.81721204348E+00  0.57409264792E+02  0.57896200519E+02  0.74470750000E+01 0. -1.
        -31    1    1    2    0    0 -0.13996070932E+00 -0.81721204348E+00  0.61608122288E+02  0.62062122768E+02  0.74470750000E+01 0. -1.
<mgrwt>
<rscale>  0 0.14995363E+02</rscale>
<asrwt>0</asrwt>
<pdfrwt beam="2">  1        2 0.99919608E+00 0.14995363E+02</pdfrwt>
<pdfrwt beam="1">  1       -2 0.99189935E+00 0.14995363E+02</pdfrwt>
<totfact>-0.19050222E-14</totfact>
</mgrwt>
</event>
<event>
 4    1 -0.5160210E-019  0.1495692E+02  0.7818608E-02  0.1869386E+00
         -2   -1    0    0    0  501 -0.00000000000E+00  0.00000000000E+00  0.12007373871E+03  0.12007373874E+03  0.25500000000E-02 0. -1.
          2   -1    0    0  501    0  0.00000000000E+00 -0.00000000000E+00 -0.46577150601E+00  0.46577848631E+00  0.25500000000E-02 0.  1.
         31    1    1    2    0    0  0.45091881123E+00  0.28104574380E+00  0.56327263359E+02  0.56819907057E+02  0.74470750000E+01 0.  1.
        -31    1    1    2    0    0 -0.45091881123E+00 -0.28104574380E+00  0.63280703846E+02  0.63719610167E+02  0.74470750000E+01 0. -1.
<mgrwt>
<rscale>  0 0.14956918E+02</rscale>
<asrwt>0</asrwt>
<pdfrwt beam="2">  1        2 0.98928617E+00 0.14956918E+02</pdfrwt>
<pdfrwt beam="1">  1       -2 0.99670507E+00 0.14956918E+02</pdfrwt>
<totfact>-0.16296259E-13</totfact>
</mgrwt>
</event>
<event>
 4    1 -0.5160210E-019  0.1492395E+02  0.7818608E-02  0.1870398E+00
          2   -1    0    0  501    0  0.00000000000E+00  0.00000000000E+00  0.11859355828E+03  0.11859355831E+03  0.25500000000E-02 0.  1.
         -2   -1    0    0    0  501 -0.00000000000E+00 -0.00000000000E+00 -0.46950846414E+00  0.46951538889E+00  0.25500000000E-02 0. -1.
         31    1    1    2    0    0 -0.43379151391E+00  0.16954418239E+00  0.59639915052E+02  0.60104869302E+02  0.74470750000E+01 0. -1.
        -31    1    1    2    0    0  0.43379151391E+00 -0.16954418239E+00  0.58484134767E+02  0.58958204398E+02  0.74470750000E+01 0.  1.
<mgrwt>
<rscale>  0 0.14923953E+02</rscale>
<asrwt>0</asrwt>
<pdfrwt beam="1">  1        2 0.98449680E+00 0.14923953E+02</pdfrwt>
<pdfrwt beam="2">  1       -2 0.99714386E+00 0.14923953E+02</pdfrwt>
<totfact>-0.29221611E-13</totfact>
</mgrwt>
</event>
<event>
 4    1 -0.5160210E-019  0.1497381E+02  0.7818608E-02  0.1868869E+00
         -2   -1    0    0    0  501 -0.00000000000E+00  0.00000000000E+00  0.11938888230E+03  0.11938888233E+03  0.25500000000E-02 0.  1.
          2   -1    0    0  501    0  0.00000000000E+00 -0.00000000000E+00 -0.46950202171E+00  0.46950894655E+00  0.25500000000E-02 0. -1.
         31    1    1    2    0    0 -0.10840811946E+00  0.61471353117E+00  0.63085551790E+02  0.63526651067E+02  0.74470750000E+01 0.  1.
        -31    1    1    2    0    0  0.10840811946E+00 -0.61471353117E+00  0.55833828492E+02  0.56331740211E+02  0.74470750000E+01 0. -1.
<mgrwt>
<rscale>  0 0.14973809E+02</rscale>
<asrwt>0</asrwt>
<pdfrwt beam="2">  1        2 0.99715643E+00 0.14973809E+02</pdfrwt>
<pdfrwt beam="1">  1       -2 0.99107304E+00 0.14973809E+02</pdfrwt>
<totfact>-0.31943429E-14</totfact>
</mgrwt>
</event>
<event>
 4    1 -0.5160210E-019  0.1490785E+02  0.7818608E-02  0.1870894E+00
          2   -1    0    0  501    0  0.00000000000E+00  0.00000000000E+00  0.11805728003E+03  0.11805728006E+03  0.25500000000E-02 0. -1.
         -2   -1    0    0    0  501 -0.00000000000E+00 -0.00000000000E+00 -0.47062390399E+00  0.47063081232E+00  0.25500000000E-02 0.  1.
         31    1    1    2    0    0  0.50385119076E-02 -0.17016293675E+00  0.60942699478E+02  0.61396258246E+02  0.74470750000E+01 0. -1.
        -31    1    1    2    0    0 -0.50385119076E-02  0.17016293675E+00  0.56643956652E+02  0.57131652628E+02  0.74470750000E+01 0.  1.
<mgrwt>
<rscale>  0 0.14907849E+02</rscale>
<asrwt>0</asrwt>
<pdfrwt beam="1">  1        2 0.98007170E+00 0.14907849E+02</pdfrwt>
<pdfrwt beam="2">  1       -2 0.99948549E+00 0.14907849E+02</pdfrwt>
<totfact>-0.13749141E-13</totfact>
</mgrwt>
</event>
<event>
 4    1 -0.5160210E-019  0.1495874E+02  0.7818608E-02  0.1869330E+00
          2   -1    0    0  501    0  0.00000000000E+00  0.00000000000E+00  0.11909762155E+03  0.11909762158E+03  0.25500000000E-02 0.  1.
         -2   -1    0    0    0  501 -0.00000000000E+00 -0.00000000000E+00 -0.46970346393E+00  0.46971038580E+00  0.25500000000E-02 0. -1.
         31    1    1    2    0    0  0.31225134817E+00  0.18188451537E+00  0.54575219849E+02  0.55082158006E+02  0.74470750000E+01 0. -1.
        -31    1    1    2    0    0 -0.31225134817E+00 -0.18188451537E+00  0.64052698236E+02  0.64485173957E+02  0.74470750000E+01 0.  1.
<mgrwt>
<rscale>  0 0.14958741E+02</rscale>
<asrwt>0</asrwt>
<pdfrwt beam="1">  1        2 0.98866636E+00 0.14958741E+02</pdfrwt>
<pdfrwt beam="2">  1       -2 0.99757302E+00 0.14958741E+02</pdfrwt>
<totfact>-0.14207722E-13</totfact>
</mgrwt>
</event>
<event>
 4    1 -0.5160210E-019  0.1496854E+02  0.7818608E-02  0.1869030E+00
          2   -1    0    0  501    0  0.00000000000E+00  0.00000000000E+00  0.11982995449E+03  0.11982995452E+03  0.25500000000E-02 0. -1.
         -2   -1    0    0    0  501 -0.00000000000E+00 -0.00000000000E+00 -0.46744476093E+00  0.46745171624E+00  0.25500000000E-02 0.  1.
         31    1    1    2    0    0 -0.67934268551E+00  0.17903947013E+00  0.57683096727E+02  0.58166073752E+02  0.74470750000E+01 0. -1.
        -31    1    1    2    0    0  0.67934268551E+00 -0.17903947013E+00  0.61679413006E+02  0.62131332486E+02  0.74470750000E+01 0.  1.
<mgrwt>
<rscale>  0 0.14968541E+02</rscale>
<asrwt>0</asrwt>
<pdfrwt beam="1">  1        2 0.99470312E+00 0.14968541E+02</pdfrwt>
<pdfrwt beam="2">  1       -2 0.99281845E+00 0.14968541E+02</pdfrwt>
<totfact>-0.10285603E-13</totfact>
</mgrwt>
</event>
<event>
 4    1 -0.5160210E-019  0.1498784E+02  0.7818608E-02  0.1868440E+00
          2   -1    0    0  501    0  0.00000000000E+00  0.00000000000E+00  0.12015637760E+03  0.12015637763E+03  0.25500000000E-02 0.  1.
         -2   -1    0    0    0  501 -0.00000000000E+00 -0.00000000000E+00 -0.46737762413E+00  0.46738458045E+00  0.25500000000E-02 0. -1.
         31    1    1    2    0    0 -0.34117614812E+00  0.23096978488E+00  0.65704436791E+02  0.66126406890E+02  0.74470750000E+01 0.  1.
        -31    1    1    2    0    0  0.34117614812E+00 -0.23096978488E+00  0.53984563188E+02  0.54497355320E+02  0.74470750000E+01 0. -1.
<mgrwt>
<rscale>  0 0.14987838E+02</rscale>
<asrwt>0</asrwt>
<pdfrwt beam="1">  1        2 0.99740166E+00 0.14987838E+02</pdfrwt>
<pdfrwt beam="2">  1       -2 0.99268689E+00 0.14987838E+02</pdfrwt>
<totfact>-0.64803274E-14</totfact>
</mgrwt>
</event>
<event>
 4    1 -0.5160210E-019  0.1492255E+02  0.7818608E-02  0.1870441E+00
         -2   -1    0    0    0  501 -0.00000000000E+00  0.00000000000E+00  0.11986168982E+03  0.11986168984E+03  0.25500000000E-02 0. -1.
          2   -1    0    0  501    0  0.00000000000E+00 -0.00000000000E+00 -0.46445371284E+00  0.46446071295E+00  0.25500000000E-02 0.  1.
         31    1    1    2    0    0 -0.89091882545E-01  0.34531019878E+00  0.57354308705E+02  0.57836863933E+02  0.74470750000E+01 0.  1.
        -31    1    1    2    0    0  0.89091882545E-01 -0.34531019878E+00  0.62042927397E+02  0.62489286622E+02  0.74470750000E+01 0. -1.
<mgrwt>
<rscale>  0 0.14922551E+02</rscale>
<asrwt>0</asrwt>
<pdfrwt beam="2">  1        2 0.98649132E+00 0.14922551E+02</pdfrwt>
<pdfrwt beam="1">  1       -2 0.99494080E+00 0.14922551E+02</pdfrwt>
<totfact>-0.27542623E-13</totfact>
</mgrwt>
</event>
<event>
 4    1 -0.5160210E-019  0.1498581E+02  0.7818608E-02  0.1868502E+00
          2   -1    0    0  501    0  0.00000000000E+00  0.00000000000E+00  0.11984755559E+03  0.11984755561E+03  0.25500000000E-02 0.  1.
         -2   -1    0    0    0  501 -0.00000000000E+00 -0.00000000000E+00 -0.46845520540E+00  0.46846214571E+00  0.25500000000E-02 0. -1.
         31    1    1    2    0    0 -0.96132914311E-02  0.68282485677E+00  0.63441282980E+02  0.63880526409E+02  0.74470750000E+01 0. -1.
        -31    1    1    2    0    0  0.96132914311E-02 -0.68282485677E+00  0.55937817402E+02  0.56435491350E+02  0.74470750000E+01 0. -1.
<mgrwt>
<rscale>  0 0.14985811E+02</rscale>
<asrwt>0</asrwt>
<pdfrwt beam="1">  1        2 0.99485702E+00 0.14985811E+02</pdfrwt>
<pdfrwt beam="2">  1       -2 0.99495674E+00 0.14985811E+02</pdfrwt>
<totfact>-0.12110771E-13</totfact>
</mgrwt>
</event>
<event>
 4    1 -0.5160210E-019  0.1490414E+02  0.7818608E-02  0.1871008E+00
         -2   -1    0    0    0  501 -0.00000000000E+00  0.00000000000E+00  0.11972939133E+03  0.11972939135E+03  0.25500000000E-02 0. -1.
          2   -1    0    0  501    0  0.00000000000E+00 -0.00000000000E+00 -0.46382047925E+00  0.46382748891E+00  0.25500000000E-02 0.  1.
         31    1    1    2    0    0  0.20066167328E+00 -0.12234304863E+00  0.58515126769E+02  0.58987576826E+02  0.74470750000E+01 0.  1.
        -31    1    1    2    0    0 -0.20066167328E+00  0.12234304863E+00  0.60750444079E+02  0.61205642017E+02  0.74470750000E+01 0. -1.
<mgrwt>
<rscale>  0 0.14904143E+02</rscale>
<asrwt>0</asrwt>
<pdfrwt beam="2">  1        2 0.98514735E+00 0.14904143E+02</pdfrwt>
<pdfrwt beam="1">  1       -2 0.99384163E+00 0.14904143E+02</pdfrwt>
<totfact>-0.32793634E-13</totfact>
</mgrwt>
</event>
<event>
 4    1 -0.5160210E-019  0.1494424E+02  0.7818608E-02  0.1869775E+00
         -2   -1    0    0    0  501 -0.00000000000E+00  0.00000000000E+00  0.11990478118E+03  0.11990478121E+03  0.25500000000E-02 0.  1.
          2   -1    0    0  501    0  0.00000000000E+00 -0.00000000000E+00 -0.46563734083E+00  0.46564432314E+00  0.25500000000E-02 0. -1.
         31    1    1    2    0    0 -0.36446182531E+00 -0.46695951620E+00  0.60934612327E+02  0.61390852650E+02  0.74470750000E+01 0. -1.
        -31    1    1    2    0    0  0.36446182531E+00  0.46695951620E+00  0.58504531515E+02  0.58979572883E+02  0.74470750000E+01 0.  1.
<mgrwt>
<rscale>  0 0.14944238E+02</rscale>
<asrwt>0</asrwt>
<pdfrwt beam="2">  1        2 0.98899693E+00 0.14944238E+02</pdfrwt>
<pdfrwt beam="1">  1       -2 0.99530690E+00 0.14944238E+02</pdfrwt>
<totfact>-0.19601281E-13</totfact>
</mgrwt>
</event>
<event>
 4    1  0.5160210E-019  0.1490427E+02  0.7818608E-02  0.1871004E+00
         -2   -1    0    0    0  501 -0.00000000000E+00  0.00000000000E+00  0.11856327581E+03  0.11856327583E+03  0.25500000000E-02 0.  1.
          2   -1    0    0  501    0  0.00000000000E+00 -0.00000000000E+00 -0.46839060204E+00  0.46839754331E+00  0.25500000000E-02 0. -1.
         31    1    1    2    0    0 -0.11189115225E+00  0.11475121585E+00  0.60828347319E+02  0.61282725552E+02  0.74470750000E+01 0.  1.
        -31    1    1    2    0    0  0.11189115225E+00 -0.11475121585E+00  0.57266537885E+02  0.57748947825E+02  0.74470750000E+01 0. -1.
<mgrwt>
<rscale>  0 0.14904273E+02</rscale>
<asrwt>0</asrwt>
<pdfrwt beam="2">  1        2 0.99477812E+00 0.14904273E+02</pdfrwt>
<pdfrwt beam="1">  1       -2 0.98423716E+00 0.14904273E+02</pdfrwt>
<totfact> 0.60804686E-13</totfact>
</mgrwt>
</event>
<event>
 4    1 -0.5160210E-019  0.1493645E+02  0.7818608E-02  0.1870014E+00
         -2   -1    0    0    0  501 -0.00000000000E+00  0.00000000000E+00  0.12019675656E+03  0.12019675658E+03  0.25500000000E-02 0.  1.
          2   -1    0    0  501    0  0.00000000000E+00 -0.00000000000E+00 -0.46402190428E+00  0.46402891090E+00  0.25500000000E-02 0. -1.
         31    1    1    2    0    0  0.20093787985E+00 -0.14500344752E-01  0.64101419316E+02  0.64532871242E+02  0.74470750000E+01 0.  1.
        -31    1    1    2    0    0 -0.20093787985E+00  0.14500344752E-01  0.55631315334E+02  0.56127914251E+02  0.74470750000E+01 0. -1.
<mgrwt>
<rscale>  0 0.14936446E+02</rscale>
<asrwt>0</asrwt>
<pdfrwt beam="2">  1        2 0.98558831E+00 0.14936446E+02</pdfrwt>
<pdfrwt beam="1">  1       -2 0.99770780E+00 0.14936446E+02</pdfrwt>
<totfact>-0.20899461E-13</totfact>
</mgrwt>
</event>
<event>
 4    1 -0.5160210E-019  0.1493120E+02  0.7818608E-02  0.1870175E+00
         -2   -1    0    0    0  501 -0.00000000000E+00  0.00000000000E+00  0.11997958130E+03  0.11997958133E+03  0.25500000000E-02 0. -1.
          2   -1    0    0  501    0  0.00000000000E+00 -0.00000000000E+00 -0.46453541467E+00  0.46454241355E+00  0.25500000000E-02 0.  1.
         31    1    1    2    0    0 -0.38546035903E+00 -0.34251306996E+00  0.58936204426E+02  0.59407078813E+02  0.74470750000E+01 0.  1.
        -31    1    1    2    0    0  0.38546035903E+00  0.34251306996E+00  0.60578841458E+02  0.61037044926E+02  0.74470750000E+01 0. -1.
<mgrwt>
<rscale>  0 0.14931201E+02</rscale>
<asrwt>0</asrwt>
<pdfrwt beam="2">  1        2 0.98666792E+00 0.14931201E+02</pdfrwt>
<pdfrwt beam="1">  1       -2 0.99591629E+00 0.14931201E+02</pdfrwt>
<totfact>-0.25374104E-13</totfact>
</mgrwt>
</event>
<event>
 4    1 -0.5160210E-019  0.1491321E+02  0.7818608E-02  0.1870728E+00
          2   -1    0    0  501    0  0.00000000000E+00  0.00000000000E+00  0.11829677981E+03  0.11829677983E+03  0.25500000000E-02 0. -1.
         -2   -1    0    0    0  501 -0.00000000000E+00 -0.00000000000E+00 -0.47000919188E+00  0.47001610925E+00  0.25500000000E-02 0.  1.
         31    1    1    2    0    0 -0.36085406011E+00  0.10805999106E+00  0.59016491330E+02  0.59485687922E+02  0.74470750000E+01 0. -1.
        -31    1    1    2    0    0  0.36085406011E+00 -0.10805999106E+00  0.58810279285E+02  0.59281108021E+02  0.74470750000E+01 0.  1.
<mgrwt>
<rscale>  0 0.14913214E+02</rscale>
<asrwt>0</asrwt>
<pdfrwt beam="1">  1        2 0.98204697E+00 0.14913214E+02</pdfrwt>
<pdfrwt beam="2">  1       -2 0.99819321E+00 0.14913214E+02</pdfrwt>
<totfact>-0.31113492E-13</totfact>
</mgrwt>
</event>
<event>
 4    1 -0.5160210E-019  0.1491371E+02  0.7818608E-02  0.1870713E+00
         -2   -1    0    0    0  501 -0.00000000000E+00  0.00000000000E+00  0.11996050880E+03  0.11996050882E+03  0.25500000000E-02 0.  1.
          2   -1    0    0  501    0  0.00000000000E+00 -0.00000000000E+00 -0.46352123157E+00  0.46352824576E+00  0.25500000000E-02 0. -1.
         31    1    1    2    0    0  0.22956267857E+00  0.10195753421E+00  0.62069836957E+02  0.62515491522E+02  0.74470750000E+01 0.  1.
        -31    1    1    2    0    0 -0.22956267857E+00 -0.10195753421E+00  0.57427150607E+02  0.57908545546E+02  0.74470750000E+01 0. -1.
<mgrwt>
<rscale>  0 0.14913707E+02</rscale>
<asrwt>0</asrwt>
<pdfrwt beam="2">  1        2 0.98452153E+00 0.14913707E+02</pdfrwt>
<pdfrwt beam="1">  1       -2 0.99575019E+00 0.14913707E+02</pdfrwt>
<totfact>-0.36079842E-13</totfact>
</mgrwt>
</event>
<event>
 4    1  0.5160210E-019  0.1490160E+02  0.7818608E-02  0.1871086E+00
          2   -1    0    0  501    0  0.00000000000E+00  0.00000000000E+00  0.12021404050E+03  0.12021404053E+03  0.25500000000E-02 0. -1.
         -2   -1    0    0    0  501 -0.00000000000E+00 -0.00000000000E+00 -0.46179277537E+00  0.46179981581E+00  0.25500000000E-02 0.  1.
         31    1    1    2    0    0  0.82621377983E-01 -0.11932169251E+00  0.58373876819E+02  0.58847170577E+02  0.74470750000E+01 0.  1.
        -31    1    1    2    0    0 -0.82621377983E-01  0.11932169251E+00  0.61378370907E+02  0.61828669768E+02  0.74470750000E+01 0. -1.
<mgrwt>
<rscale>  0 0.14901597E+02</rscale>
<asrwt>0</asrwt>
<pdfrwt beam="1">  1        2 0.99783228E+00 0.14901597E+02</pdfrwt>
<pdfrwt beam="2">  1       -2 0.98087235E+00 0.14901597E+02</pdfrwt>
<totfact> 0.71000126E-13</totfact>
</mgrwt>
</event>
<event>
 4    1 -0.5160210E-019  0.1491013E+02  0.7818608E-02  0.1870823E+00
          2   -1    0    0  501    0  0.00000000000E+00  0.00000000000E+00  0.11903258994E+03  0.11903258997E+03  0.25500000000E-02 0.  1.
         -2   -1    0    0    0  501 -0.00000000000E+00 -0.00000000000E+00 -0.46691067655E+00  0.46691763982E+00  0.25500000000E-02 0. -1.
         31    1    1    2    0    0 -0.24654778396E+00  0.18880029207E+00  0.60488968021E+02  0.60946456908E+02  0.74470750000E+01 0.  1.
        -31    1    1    2    0    0  0.24654778396E+00 -0.18880029207E+00  0.58076711244E+02  0.58553050700E+02  0.74470750000E+01 0. -1.
<mgrwt>
<rscale>  0 0.14910131E+02</rscale>
<asrwt>0</asrwt>
<pdfrwt beam="1">  1        2 0.98810554E+00 0.14910131E+02</pdfrwt>
<pdfrwt beam="2">  1       -2 0.99166273E+00 0.14910131E+02</pdfrwt>
<totfact>-0.12511673E-13</totfact>
</mgrwt>
</event>
<event>
 4    1 -0.5160210E-019  0.1496095E+02  0.7818608E-02  0.1869262E+00
          2   -1    0    0  501    0  0.00000000000E+00  0.00000000000E+00  0.11983921837E+03  0.11983921840E+03  0.25500000000E-02 0.  1.
         -2   -1    0    0    0  501 -0.00000000000E+00 -0.00000000000E+00 -0.46693488222E+00  0.46694184513E+00  0.25500000000E-02 0. -1.
         31    1    1    2    0    0  0.59118536766E+00  0.38072954714E+00  0.59168076630E+02  0.59639036489E+02  0.74470750000E+01 0. -1.
        -31    1    1    2    0    0 -0.59118536766E+00 -0.38072954714E+00  0.60204206860E+02  0.60667123756E+02  0.74470750000E+01 0. -1.
<mgrwt>
<rscale>  0 0.14960953E+02</rscale>
<asrwt>0</asrwt>
<pdfrwt beam="1">  1        2 0.99477551E+00 0.14960953E+02</pdfrwt>
<pdfrwt beam="2">  1       -2 0.99174003E+00 0.14960953E+02</pdfrwt>
<totfact>-0.71964281E-14</totfact>
</mgrwt>
</event>
<event>
 4    1 -0.5160210E-019  0.1489979E+02  0.7818608E-02  0.1871142E+00
         -2   -1    0    0    0  501 -0.00000000000E+00  0.00000000000E+00  0.11994785595E+03  0.11994785597E+03  0.25500000000E-02 0.  1.
          2   -1    0    0  501    0  0.00000000000E+00 -0.00000000000E+00 -0.46270510659E+00  0.46271213315E+00  0.25500000000E-02 0. -1.
         31    1    1    2    0    0  0.74006476599E-01  0.19074159639E+00  0.59832843599E+02  0.60294858475E+02  0.74470750000E+01 0.  1.
        -31    1    1    2    0    0 -0.74006476599E-01 -0.19074159639E+00  0.59652307240E+02  0.60115709631E+02  0.74470750000E+01 0.  1.
<mgrwt>
<rscale>  0 0.14899787E+02</rscale>
<asrwt>0</asrwt>
<pdfrwt beam="2">  1        2 0.98279436E+00 0.14899787E+02</pdfrwt>
<pdfrwt beam="1">  1       -2 0.99563882E+00 0.14899787E+02</pdfrwt>
<totfact>-0.48622057E-13</totfact>
</mgrwt>
</event>
<event>
 4    1  0.5160210E-019  0.1494293E+02  0.7818608E-02  0.1869815E+00
          2   -1    0    0  501    0  0.00000000000E+00  0.00000000000E+00  0.11991576559E+03  0.11991576562E+03  0.25500000000E-02 0. -1.
         -2   -1    0    0    0  501 -0.00000000000E+00 -0.00000000000E+00 -0.46551295821E+00  0.46551994238E+00  0.25500000000E-02 0.  1.
         31    1    1    2    0    0 -0.41824306164E+00 -0.54932797530E-01  0.63198534626E+02  0.63637187633E+02  0.74470750000E+01 0. -1.
        -31    1    1    2    0    0  0.41824306164E+00  0.54932797530E-01  0.56251718010E+02  0.56744097931E+02  0.74470750000E+01 0.  1.
<mgrwt>
<rscale>  0 0.14942927E+02</rscale>
<asrwt>0</asrwt>
<pdfrwt beam="1">  1        2 0.99539670E+00 0.14942927E+02</pdfrwt>
<pdfrwt beam="2">  1       -2 0.98873412E+00 0.14942927E+02</pdfrwt>
<totfact> 0.88024750E-14</totfact>
</mgrwt>
</event>
<event>
 4    1 -0.5160210E-019  0.1492110E+02  0.7818608E-02  0.1870486E+00
         -2   -1    0    0    0  501 -0.00000000000E+00  0.00000000000E+00  0.12005875220E+03  0.12005875223E+03  0.25500000000E-02 0. -1.
          2   -1    0    0  501    0  0.00000000000E+00 -0.00000000000E+00 -0.46360110922E+00  0.46360812220E+00  0.25500000000E-02 0.  1.
         31    1    1    2    0    0 -0.72381718371E-01  0.32508009784E+00  0.62220132092E+02  0.62665099376E+02  0.74470750000E+01 0. -1.
        -31    1    1    2    0    0  0.72381718371E-01 -0.32508009784E+00  0.57375018999E+02  0.57857260974E+02  0.74470750000E+01 0. -1.
<mgrwt>
<rscale>  0 0.14921098E+02</rscale>
<asrwt>0</asrwt>
<pdfrwt beam="2">  1        2 0.98469364E+00 0.14921098E+02</pdfrwt>
<pdfrwt beam="1">  1       -2 0.99656320E+00 0.14921098E+02</pdfrwt>
<totfact>-0.31743182E-13</totfact>
</mgrwt>
</event>
<event>
 4    1 -0.5160210E-019  0.1500530E+02  0.7818608E-02  0.1867907E+00
         -2   -1    0    0    0  501 -0.00000000000E+00  0.00000000000E+00  0.12022239405E+03  0.12022239408E+03  0.25500000000E-02 0.  1.
          2   -1    0    0  501    0  0.00000000000E+00 -0.00000000000E+00 -0.46820998287E+00  0.46821692682E+00  0.25500000000E-02 0. -1.
         31    1    1    2    0    0  0.36210275419E+00  0.82751463671E+00  0.60859574443E+02  0.61320164924E+02  0.74470750000E+01 0. -1.
        -31    1    1    2    0    0 -0.36210275419E+00 -0.82751463671E+00  0.58894609626E+02  0.59370446081E+02  0.74470750000E+01 0.  1.
<mgrwt>
<rscale>  0 0.15005298E+02</rscale>
<asrwt>0</asrwt>
<pdfrwt beam="2">  1        2 0.99445001E+00 0.15005298E+02</pdfrwt>
<pdfrwt beam="1">  1       -2 0.99795441E+00 0.15005298E+02</pdfrwt>
<totfact>-0.76117537E-14</totfact>
</mgrwt>
</event>
<event>
 4    1  0.5160210E-019  0.1494796E+02  0.7818608E-02  0.1869661E+00
         -2   -1    0    0    0  501 -0.00000000000E+00  0.00000000000E+00  0.11873179079E+03  0.11873179082E+03  0.25500000000E-02 0. -1.
          2   -1    0    0  501    0  0.00000000000E+00 -0.00000000000E+00 -0.47047164376E+00  0.47047855433E+00  0.25500000000E-02 0.  1.
         31    1    1    2    0    0  0.61333004030E-02  0.61606495900E+00  0.60309551397E+02  0.60770720659E+02  0.74470750000E+01 0. -1.
        -31    1    1    2    0    0 -0.61333004030E-02 -0.61606495900E+00  0.57951767752E+02  0.58431548716E+02  0.74470750000E+01 0.  1.
<mgrwt>
<rscale>  0 0.14947957E+02</rscale>
<asrwt>0</asrwt>
<pdfrwt beam="2">  1        2 0.99918595E+00 0.14947957E+02</pdfrwt>
<pdfrwt beam="1">  1       -2 0.98564776E+00 0.14947957E+02</pdfrwt>
<totfact> 0.10192445E-13</totfact>
</mgrwt>
</event>
<event>
 4    1  0.5160210E-019  0.1491184E+02  0.7818608E-02  0.1870771E+00
          2   -1    0    0  501    0  0.00000000000E+00  0.00000000000E+00  0.12003291670E+03  0.12003291673E+03  0.25500000000E-02 0.  1.
         -2   -1    0    0    0  501 -0.00000000000E+00 -0.00000000000E+00 -0.46312590064E+00  0.46313292082E+00  0.25500000000E-02 0. -1.
         31    1    1    2    0    0 -0.18546791295E+00 -0.85928373221E-01  0.62209994414E+02  0.62654481988E+02  0.74470750000E+01 0.  1.
        -31    1    1    2    0    0  0.18546791295E+00  0.85928373221E-01  0.57359796389E+02  0.57841567664E+02  0.74470750000E+01 0. -1.
<mgrwt>
<rscale>  0 0.14911845E+02</rscale>
<asrwt>0</asrwt>
<pdfrwt beam="1">  1        2 0.99634565E+00 0.14911845E+02</pdfrwt>
<pdfrwt beam="2">  1       -2 0.98368737E+00 0.14911845E+02</pdfrwt>
<totfact> 0.57058407E-13</totfact>
</mgrwt>
</event>
<event>
 4    1 -0.5160210E-019  0.1491935E+02  0.7818608E-02  0.1870540E+00
         -2   -1    0    0    0  501 -0.00000000000E+00  0.00000000000E+00  0.12030502148E+03  0.12030502151E+03  0.25500000000E-02 0. -1.
          2   -1    0    0  501    0  0.00000000000E+00 -0.00000000000E+00 -0.46254381836E+00  0.46255084737E+00  0.25500000000E-02 0.  1.
         31    1    1    2    0    0 -0.23421680232E+00 -0.36259008151E+00  0.60236302516E+02  0.60696436436E+02  0.74470750000E+01 0.  1.
        -31    1    1    2    0    0  0.23421680232E+00  0.36259008151E+00  0.59606175150E+02  0.60071135924E+02  0.74470750000E+01 0. -1.
<mgrwt>
<rscale>  0 0.14919353E+02</rscale>
<asrwt>0</asrwt>
<pdfrwt beam="2">  1        2 0.98246431E+00 0.14919353E+02</pdfrwt>
<pdfrwt beam="1">  1       -2 0.99859079E+00 0.14919353E+02</pdfrwt>
<totfact>-0.23450917E-13</totfact>
</mgrwt>
</event>
<event>
 4    1 -0.5160210E-019  0.1490432E+02  0.7818608E-02  0.1871002E+00
          2   -1    0    0  501    0  0.00000000000E+00  0.00000000000E+00  0.11807981163E+03  0.11807981166E+03  0.25500000000E-02 0. -1.
         -2   -1    0    0    0  501 -0.00000000000E+00 -0.00000000000E+00 -0.47031115504E+00  0.47031806796E+00  0.25500000000E-02 0.  1.
         31    1    1    2    0    0  0.16323947374E+00 -0.93196215984E-01  0.60403604942E+02  0.60861233545E+02  0.74470750000E+01 0. -1.
        -31    1    1    2    0    0 -0.16323947374E+00  0.93196215984E-01  0.57205895535E+02  0.57688896182E+02  0.74470750000E+01 0. -1.
<mgrwt>
<rscale>  0 0.14904317E+02</rscale>
<asrwt>0</asrwt>
<pdfrwt beam="1">  1        2 0.98025542E+00 0.14904317E+02</pdfrwt>
<pdfrwt beam="2">  1       -2 0.99882470E+00 0.14904317E+02</pdfrwt>
<totfact>-0.28894330E-13</totfact>
</mgrwt>
</event>
<event>
 4    1  0.5160210E-019  0.1490356E+02  0.7818608E-02  0.1871026E+00
          2   -1    0    0  501    0  0.00000000000E+00  0.00000000000E+00  0.12001522318E+03  0.12001522321E+03  0.25500000000E-02 0. -1.
         -2   -1    0    0    0  501 -0.00000000000E+00 -0.00000000000E+00 -0.46267971829E+00  0.46268674524E+00  0.25500000000E-02 0.  1.
         31    1    1    2    0    0 -0.76995026585E-01 -0.23602789828E+00  0.60520297238E+02  0.60977265774E+02  0.74470750000E+01 0. -1.
        -31    1    1    2    0    0  0.76995026585E-01  0.23602789828E+00  0.59032246224E+02  0.59500644179E+02  0.74470750000E+01 0.  1.
<mgrwt>
<rscale>  0 0.14903561E+02</rscale>
<asrwt>0</asrwt>
<pdfrwt beam="1">  1        2 0.99619565E+00 0.14903561E+02</pdfrwt>
<pdfrwt beam="2">  1       -2 0.98274277E+00 0.14903561E+02</pdfrwt>
<totfact> 0.72325340E-13</totfact>
</mgrwt>
</event>
<event>
 4    1 -0.5160210E-019  0.1490215E+02  0.7818608E-02  0.1871069E+00
          2   -1    0    0  501    0  0.00000000000E+00  0.00000000000E+00  0.11882534244E+03  0.11882534247E+03  0.25500000000E-02 0. -1.
         -2   -1    0    0    0  501 -0.00000000000E+00 -0.00000000000E+00 -0.46722441893E+00  0.46723137753E+00  0.25500000000E-02 0.  1.
         31    1    1    2    0    0  0.19537059519E+00 -0.43487942738E-01  0.58060315653E+02  0.58536307030E+02  0.74470750000E+01 0. -1.
        -31    1    1    2    0    0 -0.19537059519E+00  0.43487942738E-01  0.60297802371E+02  0.60756266818E+02  0.74470750000E+01 0. -1.
<mgrwt>
<rscale>  0 0.14902150E+02</rscale>
<asrwt>0</asrwt>
<pdfrwt beam="1">  1        2 0.98639447E+00 0.14902150E+02</pdfrwt>
<pdfrwt beam="2">  1       -2 0.99231970E+00 0.14902150E+02</pdfrwt>
<totfact>-0.20603575E-13</totfact>
</mgrwt>
</event>
<event>
 4    1  0.5160210E-019  0.1493357E+02  0.7818608E-02  0.1870103E+00
         -2   -1    0    0    0  501 -0.00000000000E+00  0.00000000000E+00  0.11865481910E+03  0.11865481913E+03  0.25500000000E-02 0. -1.
          2   -1    0    0  501    0  0.00000000000E+00 -0.00000000000E+00 -0.46987085565E+00  0.46987777505E+00  0.25500000000E-02 0.  1.
         31    1    1    2    0    0  0.39130057849E+00 -0.35176456815E+00  0.60134825071E+02  0.60596476521E+02  0.74470750000E+01 0. -1.
        -31    1    1    2    0    0 -0.39130057849E+00  0.35176456815E+00  0.58050123172E+02  0.58528220380E+02  0.74470750000E+01 0. -1.
<mgrwt>
<rscale>  0 0.14933567E+02</rscale>
<asrwt>0</asrwt>
<pdfrwt beam="2">  1        2 0.99791250E+00 0.14933567E+02</pdfrwt>
<pdfrwt beam="1">  1       -2 0.98500634E+00 0.14933567E+02</pdfrwt>
<totfact> 0.27476333E-13</totfact>
</mgrwt>
</event>
<event>
 4    1  0.5160210E-019  0.1489811E+02  0.7818608E-02  0.1871194E+00
         -2   -1    0    0    0  501 -0.00000000000E+00  0.00000000000E+00  0.11884206496E+03  0.11884206499E+03  0.25500000000E-02 0. -1.
          2   -1    0    0  501    0  0.00000000000E+00 -0.00000000000E+00 -0.46690511770E+00  0.46691208106E+00  0.25500000000E-02 0.  1.
         31    1    1    2    0    0  0.14986449999E-01  0.14390167590E+00  0.58448075861E+02  0.58920772484E+02  0.74470750000E+01 0. -1.
        -31    1    1    2    0    0 -0.14986449999E-01 -0.14390167590E+00  0.59927083981E+02  0.60388204583E+02  0.74470750000E+01 0. -1.
<mgrwt>
<rscale>  0 0.14898105E+02</rscale>
<asrwt>0</asrwt>
<pdfrwt beam="2">  1        2 0.99164476E+00 0.14898105E+02</pdfrwt>
<pdfrwt beam="1">  1       -2 0.98653010E+00 0.14898105E+02</pdfrwt>
<totfact> 0.38537395E-13</totfact>
</mgrwt>
</event>
<event>
 4    1 -0.5160210E-019  0.1495146E+02  0.7818608E-02  0.1869553E+00
         -2   -1    0    0    0  501 -0.00000000000E+00  0.00000000000E+00  0.12002543834E+03  0.12002543837E+03  0.25500000000E-02 0. -1.
          2   -1    0    0  501    0  0.00000000000E+00 -0.00000000000E+00 -0.46561862798E+00  0.46562561058E+00  0.25500000000E-02 0.  1.
         31    1    1    2    0    0  0.15971907567E+00 -0.32136061190E+00  0.64185020687E+02  0.64616596858E+02  0.74470750000E+01 0.  1.
        -31    1    1    2    0    0 -0.15971907567E+00  0.32136061190E+00  0.55374799029E+02  0.55874467124E+02  0.74470750000E+01 0.  1.
<mgrwt>
<rscale>  0 0.14951455E+02</rscale>
<asrwt>0</asrwt>
<pdfrwt beam="2">  1        2 0.98896119E+00 0.14951455E+02</pdfrwt>
<pdfrwt beam="1">  1       -2 0.99630442E+00 0.14951455E+02</pdfrwt>
<totfact>-0.17985851E-13</totfact>
</mgrwt>
</event>
<event>
 4    1 -0.5160210E-019  0.1499065E+02  0.7818608E-02  0.1868354E+00
          2   -1    0    0  501    0  0.00000000000E+00  0.00000000000E+00  0.12001523014E+03  0.12001523016E+03  0.25500000000E-02 0. -1.
         -2   -1    0    0    0  501 -0.00000000000E+00 -0.00000000000E+00 -0.46810310780E+00  0.46811005334E+00  0.25500000000E-02 0.  1.
         31    1    1    2    0    0  0.41906122894E+00 -0.65571231424E-01  0.65685624457E+02  0.66107791509E+02  0.74470750000E+01 0. -1.
        -31    1    1    2    0    0 -0.41906122894E+00  0.65571231424E-01  0.53861502573E+02  0.54375548709E+02  0.74470750000E+01 0.  1.
<mgrwt>
<rscale>  0 0.14990653E+02</rscale>
<asrwt>0</asrwt>
<pdfrwt beam="1">  1        2 0.99624055E+00 0.14990653E+02</pdfrwt>
<pdfrwt beam="2">  1       -2 0.99421725E+00 0.14990653E+02</pdfrwt>
<totfact>-0.10075797E-13</totfact>
</mgrwt>
</event>
<event>
 4    1 -0.5160210E-019  0.1493656E+02  0.7818608E-02  0.1870011E+00
         -2   -1    0    0    0  501 -0.00000000000E+00  0.00000000000E+00  0.12001843329E+03  0.12001843331E+03  0.25500000000E-02 0. -1.
          2   -1    0    0  501    0  0.00000000000E+00 -0.00000000000E+00 -0.46471841180E+00  0.46472540792E+00  0.25500000000E-02 0.  1.
         31    1    1    2    0    0  0.10283482016E+00 -0.27076651384E-01  0.64231373144E+02  0.64661731574E+02  0.74470750000E+01 0. -1.
        -31    1    1    2    0    0 -0.10283482016E+00  0.27076651384E-01  0.55322341730E+02  0.55821427146E+02  0.74470750000E+01 0.  1.
<mgrwt>
<rscale>  0 0.14936559E+02</rscale>
<asrwt>0</asrwt>
<pdfrwt beam="2">  1        2 0.98705633E+00 0.14936559E+02</pdfrwt>
<pdfrwt beam="1">  1       -2 0.99623905E+00 0.14936559E+02</pdfrwt>
<totfact>-0.23123017E-13</totfact>
</mgrwt>
</event>
<event>
 4    1 -0.5160210E-019  0.1500096E+02  0.7818608E-02  0.1868039E+00
         -2   -1    0    0    0  501 -0.00000000000E+00  0.00000000000E+00  0.12004740164E+03  0.12004740167E+03  0.25500000000E-02 0. -1.
          2   -1    0    0  501    0  0.00000000000E+00 -0.00000000000E+00 -0.46862154520E+00  0.46862848305E+00  0.25500000000E-02 0.  1.
         31    1    1    2    0    0  0.58063313679E+00 -0.44589914654E+00  0.55674568535E+02  0.56175194424E+02  0.74470750000E+01 0.  1.
        -31    1    1    2    0    0 -0.58063313679E+00  0.44589914654E+00  0.63904211564E+02  0.64340835731E+02  0.74470750000E+01 0. -1.
<mgrwt>
<rscale>  0 0.15000962E+02</rscale>
<asrwt>0</asrwt>
<pdfrwt beam="2">  1        2 0.99531511E+00 0.15000962E+02</pdfrwt>
<pdfrwt beam="1">  1       -2 0.99651086E+00 0.15000962E+02</pdfrwt>
<totfact>-0.10115306E-13</totfact>
</mgrwt>
</event>
<event>
 4    1 -0.5160210E-019  0.1496505E+02  0.7818608E-02  0.1869137E+00
         -2   -1    0    0    0  501 -0.00000000000E+00  0.00000000000E+00  0.12020969751E+03  0.12020969754E+03  0.25500000000E-02 0. -1.
          2   -1    0    0  501    0  0.00000000000E+00 -0.00000000000E+00 -0.46575055560E+00  0.46575753622E+00  0.25500000000E-02 0.  1.
         31    1    1    2    0    0 -0.49958471613E+00 -0.36997978359E+00  0.56825169501E+02  0.57314442201E+02  0.74470750000E+01 0.  1.
        -31    1    1    2    0    0  0.49958471613E+00  0.36997978359E+00  0.62918777458E+02  0.63361012877E+02  0.74470750000E+01 0. -1.
<mgrwt>
<rscale>  0 0.14965047E+02</rscale>
<asrwt>0</asrwt>
<pdfrwt beam="2">  1        2 0.98924617E+00 0.14965047E+02</pdfrwt>
<pdfrwt beam="1">  1       -2 0.99782909E+00 0.14965047E+02</pdfrwt>
<totfact>-0.12226933E-13</totfact>
</mgrwt>
</event>
<event>
 4    1  0.5160210E-019  0.1489701E+02  0.7818608E-02  0.1871228E+00
         -2   -1    0    0    0  501 -0.00000000000E+00  0.00000000000E+00  0.11806462306E+03  0.11806462308E+03  0.25500000000E-02 0.  1.
          2   -1    0    0  501    0  0.00000000000E+00 -0.00000000000E+00 -0.46991035878E+00  0.46991727760E+00  0.25500000000E-02 0. -1.
         31    1    1    2    0    0 -0.78214848279E-01  0.42286076588E-01  0.59717384064E+02  0.60180003250E+02  0.74470750000E+01 0.  1.
        -31    1    1    2    0    0  0.78214848279E-01 -0.42286076588E-01  0.57877328634E+02  0.58354537112E+02  0.74470750000E+01 0. -1.
<mgrwt>
<rscale>  0 0.14897007E+02</rscale>
<asrwt>0</asrwt>
<pdfrwt beam="2">  1        2 0.99797638E+00 0.14897007E+02</pdfrwt>
<pdfrwt beam="1">  1       -2 0.98012651E+00 0.14897007E+02</pdfrwt>
<totfact> 0.76740115E-13</totfact>
</mgrwt>
</event>
<event>
 4    1  0.5160210E-019  0.1491506E+02  0.7818608E-02  0.1870672E+00
         -2   -1    0    0    0  501 -0.00000000000E+00  0.00000000000E+00  0.11831345942E+03  0.11831345945E+03  0.25500000000E-02 0.  1.
          2   -1    0    0  501    0  0.00000000000E+00 -0.00000000000E+00 -0.47005907042E+00  0.47006598705E+00  0.25500000000E-02 0. -1.
         31    1    1    2    0    0 -0.18573283310E+00 -0.15090365861E+00  0.61421591378E+02  0.61871868261E+02  0.74470750000E+01 0.  1.
        -31    1    1    2    0    0  0.18573283310E+00  0.15090365861E+00  0.56421808972E+02  0.56911657175E+02  0.74470750000E+01 0. -1.
<mgrwt>
<rscale>  0 0.14915056E+02</rscale>
<asrwt>0</asrwt>
<pdfrwt beam="2">  1        2 0.99829928E+00 0.14915056E+02</pdfrwt>
<pdfrwt beam="1">  1       -2 0.98218530E+00 0.14915056E+02</pdfrwt>
<totfact> 0.45652385E-13</totfact>
</mgrwt>
</event>
<event>
 4    1  0.5160210E-019  0.1492238E+02  0.7818608E-02  0.1870446E+00
         -2   -1    0    0    0  501 -0.00000000000E+00  0.00000000000E+00  0.11875971360E+03  0.11875971362E+03  0.25500000000E-02 0. -1.
          2   -1    0    0  501    0  0.00000000000E+00 -0.00000000000E+00 -0.46875257157E+00  0.46875950748E+00  0.25500000000E-02 0.  1.
         31    1    1    2    0    0  0.20088659103E+00 -0.39340752708E+00  0.60133302988E+02  0.60594291639E+02  0.74470750000E+01 0. -1.
        -31    1    1    2    0    0 -0.20088659103E+00  0.39340752708E+00  0.58157658035E+02  0.58634181491E+02  0.74470750000E+01 0.  1.
<mgrwt>
<rscale>  0 0.14922377E+02</rscale>
<asrwt>0</asrwt>
<pdfrwt beam="2">  1        2 0.99555032E+00 0.14922377E+02</pdfrwt>
<pdfrwt beam="1">  1       -2 0.98586444E+00 0.14922377E+02</pdfrwt>
<totfact> 0.35054205E-13</totfact>
</mgrwt>
</event>
<event>
 4    1 -0.5160210E-019  0.1499467E+02  0.7818608E-02  0.1868231E+00
          2   -1    0    0  501    0  0.00000000000E+00  0.00000000000E+00  0.11969178213E+03  0.11969178216E+03  0.25500000000E-02 0. -1.
         -2   -1    0    0    0  501 -0.00000000000E+00 -0.00000000000E+00 -0.46961957981E+00  0.46962650291E+00  0.25500000000E-02 0.  1.
         31    1    1    2    0    0  0.78088352659E+00 -0.32404984974E+00  0.58084103612E+02  0.58565662344E+02  0.74470750000E+01 0.  1.
        -31    1    1    2    0    0 -0.78088352659E+00  0.32404984974E+00  0.61138058942E+02  0.61595746319E+02  0.74470750000E+01 0. -1.
<mgrwt>
<rscale>  0 0.14994669E+02</rscale>
<asrwt>0</asrwt>
<pdfrwt beam="1">  1        2 0.99357860E+00 0.14994669E+02</pdfrwt>
<pdfrwt beam="2">  1       -2 0.99741501E+00 0.14994669E+02</pdfrwt>
<totfact>-0.97655881E-14</totfact>
</mgrwt>
</event>
<event>
 4    1  0.5160210E-019  0.1491282E+02  0.7818608E-02  0.1870741E+00
          2   -1    0    0  501    0  0.00000000000E+00  0.00000000000E+00  0.12025483957E+03  0.12025483959E+03  0.25500000000E-02 0.  1.
         -2   -1    0    0    0  501 -0.00000000000E+00 -0.00000000000E+00 -0.46233140644E+00  0.46233843868E+00  0.25500000000E-02 0. -1.
         31    1    1    2    0    0 -0.32410803596E+00  0.11890034661E+00  0.61038342067E+02  0.61491928834E+02  0.74470750000E+01 0.  1.
        -31    1    1    2    0    0  0.32410803596E+00 -0.11890034661E+00  0.58754166093E+02  0.59225249199E+02  0.74470750000E+01 0.  1.
<mgrwt>
<rscale>  0 0.14912815E+02</rscale>
<asrwt>0</asrwt>
<pdfrwt beam="1">  1        2 0.99817409E+00 0.14912815E+02</pdfrwt>
<pdfrwt beam="2">  1       -2 0.98201330E+00 0.14912815E+02</pdfrwt>
<totfact> 0.50036705E-13</totfact>
</mgrwt>
</event>
<event>
 4    1  0.5160210E-019  0.1491940E+02  0.7818608E-02  0.1870538E+00
         -2   -1    0    0    0  501 -0.00000000000E+00  0.00000000000E+00  0.11882083749E+03  0.11882083752E+03  0.25500000000E-02 0.  1.
          2   -1    0    0  501    0  0.00000000000E+00 -0.00000000000E+00 -0.46832420557E+00  0.46833114783E+00  0.25500000000E-02 0. -1.
         31    1    1    2    0    0  0.25128558558E+00  0.26008142359E+00  0.61091479714E+02  0.61544769123E+02  0.74470750000E+01 0.  1.
        -31    1    1    2    0    0 -0.25128558558E+00 -0.26008142359E+00  0.57261033569E+02  0.57744399540E+02  0.74470750000E+01 0.  1.
<mgrwt>
<rscale>  0 0.14919395E+02</rscale>
<asrwt>0</asrwt>
<pdfrwt beam="2">  1        2 0.99464615E+00 0.14919395E+02</pdfrwt>
<pdfrwt beam="1">  1       -2 0.98636631E+00 0.14919395E+02</pdfrwt>
<totfact> 0.32515537E-13</totfact>
</mgrwt>
</event>
<event>
 4    1 -0.5160210E-019  0.1496103E+02  0.7818608E-02  0.1869260E+00
          2   -1    0    0  501    0  0.00000000000E+00  0.00000000000E+00  0.11940491498E+03  0.11940491501E+03  0.25500000000E-02 0. -1.
         -2   -1    0    0    0  501 -0.00000000000E+00 -0.00000000000E+00 -0.46863836819E+00  0.46864530579E+00  0.25500000000E-02 0.  1.
         31    1    1    2    0    0 -0.44180078098E+00 -0.54129134878E-01  0.55071550917E+02  0.55574569403E+02  0.74470750000E+01 0.  1.
        -31    1    1    2    0    0  0.44180078098E+00  0.54129134878E-01  0.63864725697E+02  0.64298990912E+02  0.74470750000E+01 0. -1.
<mgrwt>
<rscale>  0 0.14961035E+02</rscale>
<asrwt>0</asrwt>
<pdfrwt beam="1">  1        2 0.99119847E+00 0.14961035E+02</pdfrwt>
<pdfrwt beam="2">  1       -2 0.99532987E+00 0.14961035E+02</pdfrwt>
<totfact>-0.15901702E-13</totfact>
</mgrwt>
</event>
<event>
 4    1 -0.5160210E-019  0.1501584E+02  0.7818608E-02  0.1867585E+00
          2   -1    0    0  501    0  0.00000000000E+00  0.00000000000E+00  0.12022425463E+03  0.12022425466E+03  0.25500000000E-02 0. -1.
         -2   -1    0    0    0  501 -0.00000000000E+00 -0.00000000000E+00 -0.46886095914E+00  0.46886789345E+00  0.25500000000E-02 0.  1.
         31    1    1    2    0    0 -0.39607013388E+00 -0.62130015779E+00  0.64747439962E+02  0.65178468785E+02  0.74470750000E+01 0. -1.
        -31    1    1    2    0    0  0.39607013388E+00  0.62130015779E+00  0.55007953707E+02  0.55514653764E+02  0.74470750000E+01 0.  1.
<mgrwt>
<rscale>  0 0.15015842E+02</rscale>
<asrwt>0</asrwt>
<pdfrwt beam="1">  1        2 0.99797518E+00 0.15015842E+02</pdfrwt>
<pdfrwt beam="2">  1       -2 0.99582732E+00 0.15015842E+02</pdfrwt>
<totfact>-0.63140599E-14</totfact>
</mgrwt>
</event>
<event>
 4    1 -0.5160210E-019  0.1491459E+02  0.7818608E-02  0.1870686E+00
          2   -1    0    0  501    0  0.00000000000E+00  0.00000000000E+00  0.11921017477E+03  0.11921017480E+03  0.25500000000E-02 0. -1.
         -2   -1    0    0    0  501 -0.00000000000E+00 -0.00000000000E+00 -0.46649401260E+00  0.46650098209E+00  0.25500000000E-02 0.  1.
         31    1    1    2    0    0 -0.13982850544E+00 -0.24035489001E+00  0.61569382639E+02  0.62018748190E+02  0.74470750000E+01 0. -1.
        -31    1    1    2    0    0  0.13982850544E+00  0.24035489001E+00  0.57174298119E+02  0.57657927590E+02  0.74470750000E+01 0. -1.
<mgrwt>
<rscale>  0 0.14914590E+02</rscale>
<asrwt>0</asrwt>
<pdfrwt beam="1">  1        2 0.98957049E+00 0.14914590E+02</pdfrwt>
<pdfrwt beam="2">  1       -2 0.99078702E+00 0.14914590E+02</pdfrwt>
<totfact>-0.50377293E-14</totfact>
</mgrwt>
</event>
<event>
 4    1 -0.5160210E-019  0.1498582E+02  0.7818608E-02  0.1868501E+00
          2   -1    0    0  501    0  0.00000000000E+00  0.00000000000E+00  0.11965217181E+03  0.11965217183E+03  0.25500000000E-02 0. -1.
         -2   -1    0    0    0  501 -0.00000000000E+00 -0.00000000000E+00 -0.46922106787E+00  0.46922799686E+00  0.25500000000E-02 0.  1.
         31    1    1    2    0    0  0.50838256217E+00  0.30780110718E+00  0.64207395236E+02  0.64640557882E+02  0.74470750000E+01 0. -1.
        -31    1    1    2    0    0 -0.50838256217E+00 -0.30780110718E+00  0.54975555502E+02  0.55480841948E+02  0.74470750000E+01 0.  1.
<mgrwt>
<rscale>  0 0.14985825E+02</rscale>
<asrwt>0</asrwt>
<pdfrwt beam="1">  1        2 0.99324778E+00 0.14985825E+02</pdfrwt>
<pdfrwt beam="2">  1       -2 0.99657065E+00 0.14985825E+02</pdfrwt>
<totfact>-0.12022595E-13</totfact>
</mgrwt>
</event>
<event>
 4    1 -0.5160210E-019  0.1490834E+02  0.7818608E-02  0.1870879E+00
         -2   -1    0    0    0  501 -0.00000000000E+00  0.00000000000E+00  0.11978144105E+03  0.11978144108E+03  0.25500000000E-02 0. -1.
          2   -1    0    0  501    0  0.00000000000E+00 -0.00000000000E+00 -0.46387987065E+00  0.46388687942E+00  0.25500000000E-02 0.  1.
         31    1    1    2    0    0  0.20676790982E+00  0.16898684668E+00  0.58163113110E+02  0.58638536494E+02  0.74470750000E+01 0.  1.
        -31    1    1    2    0    0 -0.20676790982E+00 -0.16898684668E+00  0.61154448074E+02  0.61606791467E+02  0.74470750000E+01 0. -1.
<mgrwt>
<rscale>  0 0.14908336E+02</rscale>
<asrwt>0</asrwt>
<pdfrwt beam="2">  1        2 0.98527466E+00 0.14908336E+02</pdfrwt>
<pdfrwt beam="1">  1       -2 0.99427250E+00 0.14908336E+02</pdfrwt>
<totfact>-0.32984803E-13</totfact>
</mgrwt>
</event>
<event>
 4    1 -0.5160210E-019  0.1493545E+02  0.7818608E-02  0.1870045E+00
          2   -1    0    0  501    0  0.00000000000E+00  0.00000000000E+00  0.11914216952E+03  0.11914216955E+03  0.25500000000E-02 0. -1.
         -2   -1    0    0    0  501 -0.00000000000E+00 -0.00000000000E+00 -0.46806693827E+00  0.46807388434E+00  0.25500000000E-02 0.  1.
         31    1    1    2    0    0 -0.26970668054E+00 -0.42315544456E+00  0.61235572092E+02  0.61688783565E+02  0.74470750000E+01 0. -1.
        -31    1    1    2    0    0  0.26970668054E+00  0.42315544456E+00  0.57438530492E+02  0.57921459870E+02  0.74470750000E+01 0.  1.
<mgrwt>
<rscale>  0 0.14935451E+02</rscale>
<asrwt>0</asrwt>
<pdfrwt beam="1">  1        2 0.98902118E+00 0.14935451E+02</pdfrwt>
<pdfrwt beam="2">  1       -2 0.99411242E+00 0.14935451E+02</pdfrwt>
<totfact>-0.19466345E-13</totfact>
</mgrwt>
</event>
<event>
 4    1  0.5160210E-019  0.1495921E+02  0.7818608E-02  0.1869316E+00
         -2   -1    0    0    0  501 -0.00000000000E+00  0.00000000000E+00  0.11910063787E+03  0.11910063789E+03  0.25500000000E-02 0.  1.
          2   -1    0    0  501    0  0.00000000000E+00 -0.00000000000E+00 -0.46972095308E+00  0.46972787469E+00  0.25500000000E-02 0. -1.
         31    1    1    2    0    0  0.54991556545E+00  0.14739074262E+00  0.62526885993E+02  0.62971378651E+02  0.74470750000E+01 0.  1.
        -31    1    1    2    0    0 -0.54991556545E+00 -0.14739074262E+00  0.56104030922E+02  0.56598987119E+02  0.74470750000E+01 0. -1.
<mgrwt>
<rscale>  0 0.14959209E+02</rscale>
<asrwt>0</asrwt>
<pdfrwt beam="2">  1        2 0.99761012E+00 0.14959209E+02</pdfrwt>
<pdfrwt beam="1">  1       -2 0.98869144E+00 0.14959209E+02</pdfrwt>
<totfact> 0.59842650E-14</totfact>
</mgrwt>
</event>
<event>
 4    1  0.5160210E-019  0.1492948E+02  0.7818608E-02  0.1870228E+00
          2   -1    0    0  501    0  0.00000000000E+00  0.00000000000E+00  0.12046873449E+03  0.12046873452E+03  0.25500000000E-02 0.  1.
         -2   -1    0    0    0  501 -0.00000000000E+00 -0.00000000000E+00 -0.46254257013E+00  0.46254959916E+00  0.25500000000E-02 0. -1.
         31    1    1    2    0    0 -0.41641837591E+00 -0.27418481270E+00  0.60989757763E+02  0.61444756161E+02  0.74470750000E+01 0.  1.
        -31    1    1    2    0    0  0.41641837591E+00  0.27418481270E+00  0.59016434158E+02  0.59486527957E+02  0.74470750000E+01 0.  1.
<mgrwt>
<rscale>  0 0.14929480E+02</rscale>
<asrwt>0</asrwt>
<pdfrwt beam="1">  1        2 0.99994447E+00 0.14929480E+02</pdfrwt>
<pdfrwt beam="2">  1       -2 0.98246678E+00 0.14929480E+02</pdfrwt>
<totfact> 0.16877850E-14</totfact>
</mgrwt>
</event>
<event>
 4    1  0.5160210E-019  0.1494259E+02  0.7818608E-02  0.1869826E+00
         -2   -1    0    0    0  501 -0.00000000000E+00  0.00000000000E+00  0.11920153449E+03  0.11920153452E+03  0.25500000000E-02 0. -1.
          2   -1    0    0  501    0  0.00000000000E+00 -0.00000000000E+00 -0.46828086394E+00  0.46828780684E+00  0.25500000000E-02 0.  1.
         31    1    1    2    0    0  0.85635453953E-02  0.32495310566E+00  0.55317541629E+02  0.55817515224E+02  0.74470750000E+01 0.  1.
        -31    1    1    2    0    0 -0.85635453953E-02 -0.32495310566E+00  0.63415712000E+02  0.63852307103E+02  0.74470750000E+01 0. -1.
<mgrwt>
<rscale>  0 0.14942585E+02</rscale>
<asrwt>0</asrwt>
<pdfrwt beam="2">  1        2 0.99456693E+00 0.14942585E+02</pdfrwt>
<pdfrwt beam="1">  1       -2 0.98951382E+00 0.14942585E+02</pdfrwt>
<totfact> 0.39354925E-14</totfact>
</mgrwt>
</event>
<event>
 4    1  0.5160210E-019  0.1493749E+02  0.7818608E-02  0.1869982E+00
          2   -1    0    0  501    0  0.00000000000E+00  0.00000000000E+00  0.12034413755E+03  0.12034413758E+03  0.25500000000E-02 0.  1.
         -2   -1    0    0    0  501 -0.00000000000E+00 -0.00000000000E+00 -0.46351858824E+00  0.46352560247E+00  0.25500000000E-02 0. -1.
         31    1    1    2    0    0 -0.12358068409E+00 -0.51514511727E+00  0.58271111125E+02  0.58747442196E+02  0.74470750000E+01 0.  1.
        -31    1    1    2    0    0  0.12358068409E+00  0.51514511727E+00  0.61609507836E+02  0.62060220983E+02  0.74470750000E+01 0. -1.
<mgrwt>
<rscale>  0 0.14937492E+02</rscale>
<asrwt>0</asrwt>
<pdfrwt beam="1">  1        2 0.99892228E+00 0.14937492E+02</pdfrwt>
<pdfrwt beam="2">  1       -2 0.98452802E+00 0.14937492E+02</pdfrwt>
<totfact> 0.18080451E-13</totfact>
</mgrwt>
</event>
<event>
 4    1 -0.5160210E-019  0.1492520E+02  0.7818608E-02  0.1870360E+00
          2   -1    0    0  501    0  0.00000000000E+00  0.00000000000E+00  0.11908113853E+03  0.11908113855E+03  0.25500000000E-02 0. -1.
         -2   -1    0    0    0  501 -0.00000000000E+00 -0.00000000000E+00 -0.46766390295E+00  0.46767085501E+00  0.25500000000E-02 0.  1.
         31    1    1    2    0    0 -0.42520278257E-01 -0.28863215653E+00  0.62370703450E+02  0.62814398759E+02  0.74470750000E+01 0. -1.
        -31    1    1    2    0    0  0.42520278257E-01  0.28863215653E+00  0.56242771173E+02  0.56734410650E+02  0.74470750000E+01 0.  1.
<mgrwt>
<rscale>  0 0.14925196E+02</rscale>
<asrwt>0</asrwt>
<pdfrwt beam="1">  1        2 0.98851320E+00 0.14925196E+02</pdfrwt>
<pdfrwt beam="2">  1       -2 0.99325780E+00 0.14925196E+02</pdfrwt>
<totfact>-0.18966285E-13</totfact>
</mgrwt>
</event>
<event>
 4    1  0.5160210E-019  0.1492326E+02  0.7818608E-02  0.1870419E+00
          2   -1    0    0  501    0  0.00000000000E+00  0.00000000000E+00  0.11973549470E+03  0.11973549473E+03  0.25500000000E-02 0.  1.
         -2   -1    0    0    0  501 -0.00000000000E+00 -0.00000000000E+00 -0.46498751547E+00  0.46499450755E+00  0.25500000000E-02 0. -1.
         31    1    1    2    0    0  0.24403235656E+00  0.25146362206E+00  0.57162877012E+02  0.57646996626E+02  0.74470750000E+01 0. -1.
        -31    1    1    2    0    0 -0.24403235656E+00 -0.25146362206E+00  0.62107630172E+02  0.62553492607E+02  0.74470750000E+01 0.  1.
<mgrwt>
<rscale>  0 0.14923261E+02</rscale>
<asrwt>0</asrwt>
<pdfrwt beam="1">  1        2 0.99390174E+00 0.14923261E+02</pdfrwt>
<pdfrwt beam="2">  1       -2 0.98761668E+00 0.14923261E+02</pdfrwt>
<totfact> 0.20483957E-13</totfact>
</mgrwt>
</event>
<event>
 4    1 -0.5160210E-019  0.1496685E+02  0.7818608E-02  0.1869082E+00
          2   -1    0    0  501    0  0.00000000000E+00  0.00000000000E+00  0.11917587593E+03  0.11917587596E+03  0.25500000000E-02 0. -1.
         -2   -1    0    0    0  501 -0.00000000000E+00 -0.00000000000E+00 -0.46990382411E+00  0.46991074303E+00  0.25500000000E-02 0.  1.
         31    1    1    2    0    0 -0.60559333532E+00 -0.25467229795E+00  0.56688577438E+02  0.57179413597E+02  0.74470750000E+01 0.  1.
        -31    1    1    2    0    0  0.60559333532E+00  0.25467229795E+00  0.62017394668E+02  0.62466373104E+02  0.74470750000E+01 0.  1.
<mgrwt>
<rscale>  0 0.14966845E+02</rscale>
<asrwt>0</asrwt>
<pdfrwt beam="1">  1        2 0.98931508E+00 0.14966845E+02</pdfrwt>
<pdfrwt beam="2">  1       -2 0.99799945E+00 0.14966845E+02</pdfrwt>
<totfact>-0.11375646E-13</totfact>
</mgrwt>
</event>
<event>
 4    1  0.5160210E-019  0.1493610E+02  0.7818608E-02  0.1870025E+00
         -2   -1    0    0    0  501 -0.00000000000E+00  0.00000000000E+00  0.11868655081E+03  0.11868655083E+03  0.25500000000E-02 0.  1.
          2   -1    0    0  501    0  0.00000000000E+00 -0.00000000000E+00 -0.46990491513E+00  0.46991183403E+00  0.25500000000E-02 0. -1.
         31    1    1    2    0    0  0.29618308171E+00  0.40197285943E+00  0.61119835164E+02  0.61573878253E+02  0.74470750000E+01 0.  1.
        -31    1    1    2    0    0 -0.29618308171E+00 -0.40197285943E+00  0.57096810728E+02  0.57582584415E+02  0.74470750000E+01 0.  1.
<mgrwt>
<rscale>  0 0.14936105E+02</rscale>
<asrwt>0</asrwt>
<pdfrwt beam="2">  1        2 0.99798560E+00 0.14936105E+02</pdfrwt>
<pdfrwt beam="1">  1       -2 0.98526900E+00 0.14936105E+02</pdfrwt>
<totfact> 0.24776576E-13</totfact>
</mgrwt>
</event>
<event>
 4    1 -0.5160210E-019  0.1490691E+02  0.7818608E-02  0.1870923E+00
          2   -1    0    0  501    0  0.00000000000E+00  0.00000000000E+00  0.11874632327E+03  0.11874632330E+03  0.25500000000E-02 0. -1.
         -2   -1    0    0    0  501 -0.00000000000E+00 -0.00000000000E+00 -0.46783393829E+00  0.46784088782E+00  0.25500000000E-02 0.  1.
         31    1    1    2    0    0 -0.11093252242E+00 -0.15986487067E+00  0.61051691109E+02  0.61504518339E+02  0.74470750000E+01 0. -1.
        -31    1    1    2    0    0  0.11093252242E+00  0.15986487067E+00  0.57226798221E+02  0.57709645845E+02  0.74470750000E+01 0.  1.
<mgrwt>
<rscale>  0 0.14906908E+02</rscale>
<asrwt>0</asrwt>
<pdfrwt beam="1">  1        2 0.98574612E+00 0.14906908E+02</pdfrwt>
<pdfrwt beam="2">  1       -2 0.99360655E+00 0.14906908E+02</pdfrwt>
<totfact>-0.29169933E-13</totfact>
</mgrwt>
</event>
<event>
 4    1 -0.5160210E-019  0.1490167E+02  0.7818608E-02  0.1871084E+00
         -2   -1    0    0    0  501 -0.00000000000E+00  0.00000000000E+00  0.11981013696E+03  0.11981013699E+03  0.25500000000E-02 0.  1.
          2   -1    0    0  501    0  0.00000000000E+00 -0.00000000000E+00 -0.46335426006E+00  0.46336127677E+00  0.25500000000E-02 0. -1.
         31    1    1    2    0    0  0.62790097595E-01 -0.12104278731E+00  0.58111652805E+02  0.58587043890E+02  0.74470750000E+01 0. -1.
        -31    1    1    2    0    0 -0.62790097595E-01  0.12104278731E+00  0.61235129896E+02  0.61686454375E+02  0.74470750000E+01 0.  1.
<mgrwt>
<rscale>  0 0.14901673E+02</rscale>
<asrwt>0</asrwt>
<pdfrwt beam="2">  1        2 0.98416350E+00 0.14901673E+02</pdfrwt>
<pdfrwt beam="1">  1       -2 0.99450543E+00 0.14901673E+02</pdfrwt>
<totfact>-0.39840716E-13</totfact>
</mgrwt>
</event>
<event>
 4    1 -0.5160210E-019  0.1499242E+02  0.7818608E-02  0.1868300E+00
          2   -1    0    0  501    0  0.00000000000E+00  0.00000000000E+00  0.12012012933E+03  0.12012012935E+03  0.25500000000E-02 0.  1.
         -2   -1    0    0    0  501 -0.00000000000E+00 -0.00000000000E+00 -0.46780437718E+00  0.46781132715E+00  0.25500000000E-02 0. -1.
         31    1    1    2    0    0  0.20533999735E-01 -0.66887914274E+00  0.64130592569E+02  0.64565003293E+02  0.74470750000E+01 0.  1.
        -31    1    1    2    0    0 -0.20533999735E-01  0.66887914274E+00  0.55521732382E+02  0.56022937389E+02  0.74470750000E+01 0.  1.
<mgrwt>
<rscale>  0 0.14992417E+02</rscale>
<asrwt>0</asrwt>
<pdfrwt beam="1">  1        2 0.99710546E+00 0.14992417E+02</pdfrwt>
<pdfrwt beam="2">  1       -2 0.99358860E+00 0.14992417E+02</pdfrwt>
<totfact>-0.81126942E-14</totfact>
</mgrwt>
</event>
<event>
 4    1  0.5160210E-019  0.1493773E+02  0.7818608E-02  0.1869975E+00
         -2   -1    0    0    0  501 -0.00000000000E+00  0.00000000000E+00  0.11852392683E+03  0.11852392686E+03  0.25500000000E-02 0. -1.
          2   -1    0    0  501    0  0.00000000000E+00 -0.00000000000E+00 -0.47065205744E+00  0.47065896536E+00  0.25500000000E-02 0.  1.
         31    1    1    2    0    0  0.26389467376E-01 -0.20096189450E+00  0.63271383262E+02  0.63708460569E+02  0.74470750000E+01 0. -1.
        -31    1    1    2    0    0 -0.26389467376E-01  0.20096189450E+00  0.54781891514E+02  0.55286125257E+02  0.74470750000E+01 0.  1.
<mgrwt>
<rscale>  0 0.14937730E+02</rscale>
<asrwt>0</asrwt>
<pdfrwt beam="2">  1        2 0.99956067E+00 0.14937730E+02</pdfrwt>
<pdfrwt beam="1">  1       -2 0.98393049E+00 0.14937730E+02</pdfrwt>
<totfact> 0.92064941E-14</totfact>
</mgrwt>
</event>
<event>
 4    1  0.5160210E-019  0.1494090E+02  0.7818608E-02  0.1869877E+00
          2   -1    0    0  501    0  0.00000000000E+00  0.00000000000E+00  0.11986954763E+03  0.11986954766E+03  0.25500000000E-02 0.  1.
         -2   -1    0    0    0  501 -0.00000000000E+00 -0.00000000000E+00 -0.46556604710E+00  0.46557303048E+00  0.25500000000E-02 0. -1.
         31    1    1    2    0    0  0.10644117960E+00  0.78098814208E-01  0.64337515540E+02  0.64767215944E+02  0.74470750000E+01 0.  1.
        -31    1    1    2    0    0 -0.10644117960E+00 -0.78098814208E-01  0.55066466046E+02  0.55567904747E+02  0.74470750000E+01 0. -1.
<mgrwt>
<rscale>  0 0.14940899E+02</rscale>
<asrwt>0</asrwt>
<pdfrwt beam="1">  1        2 0.99501497E+00 0.14940899E+02</pdfrwt>
<pdfrwt beam="2">  1       -2 0.98884497E+00 0.14940899E+02</pdfrwt>
<totfact> 0.83561047E-14</totfact>
</mgrwt>
</event>
<event>
 4    1  0.5160210E-019  0.1495438E+02  0.7818608E-02  0.1869464E+00
          2   -1    0    0  501    0  0.00000000000E+00  0.00000000000E+00  0.12003937277E+03  0.12003937280E+03  0.25500000000E-02 0.  1.
         -2   -1    0    0    0  501 -0.00000000000E+00 -0.00000000000E+00 -0.46574701775E+00  0.46575399842E+00  0.25500000000E-02 0. -1.
         31    1    1    2    0    0 -0.23281029136E+00 -0.42429514289E+00  0.56048224769E+02  0.56542874465E+02  0.74470750000E+01 0. -1.
        -31    1    1    2    0    0  0.23281029136E+00  0.42429514289E+00  0.63525400985E+02  0.63962252331E+02  0.74470750000E+01 0.  1.
<mgrwt>
<rscale>  0 0.14954384E+02</rscale>
<asrwt>0</asrwt>
<pdfrwt beam="1">  1        2 0.99642070E+00 0.14954384E+02</pdfrwt>
<pdfrwt beam="2">  1       -2 0.98923327E+00 0.14954384E+02</pdfrwt>
<totfact> 0.46534988E-14</totfact>
</mgrwt>
</event>
<event>
 4    1 -0.5160210E-019  0.1491020E+02  0.7818608E-02  0.1870821E+00
         -2   -1    0    0    0  501 -0.00000000000E+00  0.00000000000E+00  0.11984406034E+03  0.11984406037E+03  0.25500000000E-02 0.  1.
          2   -1    0    0  501    0  0.00000000000E+00 -0.00000000000E+00 -0.46375351507E+00  0.46376052574E+00  0.25500000000E-02 0. -1.
         31    1    1    2    0    0  0.14238768989E+00  0.10909287841E-01  0.62231619344E+02  0.62675782927E+02  0.74470750000E+01 0.  1.
        -31    1    1    2    0    0 -0.14238768989E+00 -0.10909287841E-01  0.57148687485E+02  0.57632037970E+02  0.74470750000E+01 0. -1.
<mgrwt>
<rscale>  0 0.14910202E+02</rscale>
<asrwt>0</asrwt>
<pdfrwt beam="2">  1        2 0.98500931E+00 0.14910202E+02</pdfrwt>
<pdfrwt beam="1">  1       -2 0.99478924E+00 0.14910202E+02</pdfrwt>
<totfact>-0.34752480E-13</totfact>
</mgrwt>
</event>
<event>
 4    1  0.5160210E-019  0.1493849E+02  0.7818608E-02  0.1869951E+00
         -2   -1    0    0    0  501 -0.00000000000E+00  0.00000000000E+00  0.11894890959E+03  0.11894890962E+03  0.25500000000E-02 0.  1.
          2   -1    0    0  501    0  0.00000000000E+00 -0.00000000000E+00 -0.46901799303E+00  0.46902492501E+00  0.25500000000E-02 0. -1.
         31    1    1    2    0    0  0.53027301918E+00  0.22197151056E+00  0.59355098207E+02  0.59823215143E+02  0.74470750000E+01 0.  1.
        -31    1    1    2    0    0 -0.53027301918E+00 -0.22197151056E+00  0.59124793391E+02  0.59594719401E+02  0.74470750000E+01 0.  1.
<mgrwt>
<rscale>  0 0.14938486E+02</rscale>
<asrwt>0</asrwt>
<pdfrwt beam="2">  1        2 0.99611804E+00 0.14938486E+02</pdfrwt>
<pdfrwt beam="1">  1       -2 0.98743104E+00 0.14938486E+02</pdfrwt>
<totfact> 0.17655193E-13</totfact>
</mgrwt>
</event>
<event>
 4    1 -0.5160210E-019  0.1499938E+02  0.7818608E-02  0.1868087E+00
         -2   -1    0    0    0  501 -0.00000000000E+00  0.00000000000E+00  0.12040433491E+03  0.12040433494E+03  0.25500000000E-02 0. -1.
          2   -1    0    0  501    0  0.00000000000E+00 -0.00000000000E+00 -0.46713399020E+00  0.46714095015E+00  0.25500000000E-02 0.  1.
         31    1    1    2    0    0  0.20337437258E+00  0.59696400187E+00  0.54944336446E+02  0.55450308933E+02  0.74470750000E+01 0.  1.
        -31    1    1    2    0    0 -0.20337437258E+00 -0.59696400187E+00  0.64992864477E+02  0.65421166958E+02  0.74470750000E+01 0.  1.
<mgrwt>
<rscale>  0 0.14999384E+02</rscale>
<asrwt>0</asrwt>
<pdfrwt beam="2">  1        2 0.99217935E+00 0.14999384E+02</pdfrwt>
<pdfrwt beam="1">  1       -2 0.99944993E+00 0.14999384E+02</pdfrwt>
<totfact>-0.27704812E-14</totfact>
</mgrwt>
</event>
<event>
 4    1 -0.5160210E-019  0.1497779E+02  0.7818608E-02  0.1868747E+00
         -2   -1    0    0    0  501 -0.00000000000E+00  0.00000000000E+00  0.11960576466E+03  0.11960576469E+03  0.25500000000E-02 0. -1.
          2   -1    0    0  501    0  0.00000000000E+00 -0.00000000000E+00 -0.46889958817E+00  0.46890652191E+00  0.25500000000E-02 0.  1.
         31    1    1    2    0    0 -0.14878571157E-01  0.94635949844E-01  0.65857488955E+02  0.66277273291E+02  0.74470750000E+01 0. -1.
        -31    1    1    2    0    0  0.14878571157E-01 -0.94635949844E-01  0.53279376114E+02  0.53797397916E+02  0.74470750000E+01 0.  1.
<mgrwt>
<rscale>  0 0.14977785E+02</rscale>
<asrwt>0</asrwt>
<pdfrwt beam="2">  1        2 0.99588903E+00 0.14977785E+02</pdfrwt>
<pdfrwt beam="1">  1       -2 0.99286139E+00 0.14977785E+02</pdfrwt>
<totfact>-0.90578301E-14</totfact>
</mgrwt>
</event>
<event>
 4    1  0.5160210E-019  0.1489512E+02  0.7818608E-02  0.1871286E+00
          2   -1    0    0  501    0  0.00000000000E+00  0.00000000000E+00  0.11993374878E+03  0.11993374880E+03  0.25500000000E-02 0.  1.
         -2   -1    0    0    0  501 -0.00000000000E+00 -0.00000000000E+00 -0.46246951418E+00  0.46247654431E+00  0.25500000000E-02 0. -1.
         31    1    1    2    0    0  0.64997124501E-01 -0.54134243071E-01  0.59790558801E+02  0.60252609926E+02  0.74470750000E+01 0. -1.
        -31    1    1    2    0    0 -0.64997124501E-01  0.54134243071E-01  0.59680720461E+02  0.60143615422E+02  0.74470750000E+01 0. -1.
<mgrwt>
<rscale>  0 0.14895117E+02</rscale>
<asrwt>0</asrwt>
<pdfrwt beam="1">  1        2 0.99552023E+00 0.14895117E+02</pdfrwt>
<pdfrwt beam="2">  1       -2 0.98229545E+00 0.14895117E+02</pdfrwt>
<totfact> 0.87220064E-13</totfact>
</mgrwt>
</event>
<event>
 4    1 -0.5160210E-019  0.1498948E+02  0.7818608E-02  0.1868390E+00
          2   -1    0    0  501    0  0.00000000000E+00  0.00000000000E+00  0.11994599386E+03  0.11994599388E+03  0.25500000000E-02 0.  1.
         -2   -1    0    0    0  501 -0.00000000000E+00 -0.00000000000E+00 -0.46830003506E+00  0.46830697767E+00  0.25500000000E-02 0. -1.
         31    1    1    2    0    0  0.29361882601E+00 -0.64700592009E+00  0.63397092418E+02  0.63836941357E+02  0.74470750000E+01 0.  1.
        -31    1    1    2    0    0 -0.29361882601E+00  0.64700592009E+00  0.56080601405E+02  0.56577359506E+02  0.74470750000E+01 0. -1.
<mgrwt>
<rscale>  0 0.14989481E+02</rscale>
<asrwt>0</asrwt>
<pdfrwt beam="1">  1        2 0.99566969E+00 0.14989481E+02</pdfrwt>
<pdfrwt beam="2">  1       -2 0.99463164E+00 0.14989481E+02</pdfrwt>
<totfact>-0.11064762E-13</totfact>
</mgrwt>
</event>
<event>
 4    1  0.5160210E-019  0.1489711E+02  0.7818608E-02  0.1871224E+00
          2   -1    0    0  501    0  0.00000000000E+00  0.00000000000E+00  0.12045108644E+03  0.12045108647E+03  0.25500000000E-02 0.  1.
         -2   -1    0    0    0  501 -0.00000000000E+00 -0.00000000000E+00 -0.46060655021E+00  0.46061360878E+00  0.25500000000E-02 0. -1.
         31    1    1    2    0    0  0.89769833947E-01  0.78831498255E-01  0.60711545056E+02  0.61166697656E+02  0.74470750000E+01 0.  1.
        -31    1    1    2    0    0 -0.89769833947E-01 -0.78831498255E-01  0.59278934837E+02  0.59745002422E+02  0.74470750000E+01 0. -1.
<mgrwt>
<rscale>  0 0.14897112E+02</rscale>
<asrwt>0</asrwt>
<pdfrwt beam="1">  1        2 0.99978253E+00 0.14897112E+02</pdfrwt>
<pdfrwt beam="2">  1       -2 0.97836974E+00 0.14897112E+02</pdfrwt>
<totfact> 0.13338465E-13</totfact>
</mgrwt>
</event>
<event>
 4    1  0.5160210E-019  0.1490267E+02  0.7818608E-02  0.1871053E+00
          2   -1    0    0  501    0  0.00000000000E+00  0.00000000000E+00  0.12029586171E+03  0.12029586173E+03  0.25500000000E-02 0.  1.
         -2   -1    0    0    0  501 -0.00000000000E+00 -0.00000000000E+00 -0.46154530266E+00  0.46155234688E+00  0.25500000000E-02 0. -1.
         31    1    1    2    0    0 -0.83689462350E-01 -0.88132686438E-02  0.57992628638E+02  0.58468889026E+02  0.74470750000E+01 0. -1.
        -31    1    1    2    0    0  0.83689462350E-01  0.88132686438E-02  0.61841687766E+02  0.62288525054E+02  0.74470750000E+01 0.  1.
<mgrwt>
<rscale>  0 0.14902673E+02</rscale>
<asrwt>0</asrwt>
<pdfrwt beam="1">  1        2 0.99850679E+00 0.14902673E+02</pdfrwt>
<pdfrwt beam="2">  1       -2 0.98035127E+00 0.14902673E+02</pdfrwt>
<totfact> 0.57780735E-13</totfact>
</mgrwt>
</event>
<event>
 4    1 -0.5160210E-019  0.1500594E+02  0.7818608E-02  0.1867887E+00
          2   -1    0    0  501    0  0.00000000000E+00  0.00000000000E+00  0.11978780206E+03  0.11978780209E+03  0.25500000000E-02 0.  1.
         -2   -1    0    0    0  501 -0.00000000000E+00 -0.00000000000E+00 -0.46994863897E+00  0.46995555723E+00  0.25500000000E-02 0. -1.
         31    1    1    2    0    0  0.27313609469E+00  0.82556828494E+00  0.57400172194E+02  0.57887778160E+02  0.74470750000E+01 0. -1.
        -31    1    1    2    0    0 -0.27313609469E+00 -0.82556828494E+00  0.61917681226E+02  0.62369979484E+02  0.74470750000E+01 0.  1.
<mgrwt>
<rscale>  0 0.15005936E+02</rscale>
<asrwt>0</asrwt>
<pdfrwt beam="1">  1        2 0.99437528E+00 0.15005936E+02</pdfrwt>
<pdfrwt beam="2">  1       -2 0.99811428E+00 0.15005936E+02</pdfrwt>
<totfact>-0.71740376E-14</totfact>
</mgrwt>
</event>
<event>
 4    1 -0.5160210E-019  0.1495782E+02  0.7818608E-02  0.1869358E+00
         -2   -1    0    0    0  501 -0.00000000000E+00  0.00000000000E+00  0.11994611224E+03  0.11994611227E+03  0.25500000000E-02 0. -1.
          2   -1    0    0  501    0  0.00000000000E+00 -0.00000000000E+00 -0.46632347369E+00  0.46633044573E+00  0.25500000000E-02 0.  1.
         31    1    1    2    0    0 -0.56025219711E-01  0.64260161258E+00  0.57782745249E+02  0.58264231311E+02  0.74470750000E+01 0. -1.
        -31    1    1    2    0    0  0.56025219711E-01 -0.64260161258E+00  0.61697043519E+02  0.62148211404E+02  0.74470750000E+01 0. -1.
<mgrwt>
<rscale>  0 0.14957822E+02</rscale>
<asrwt>0</asrwt>
<pdfrwt beam="2">  1        2 0.99044991E+00 0.14957822E+02</pdfrwt>
<pdfrwt beam="1">  1       -2 0.99565432E+00 0.14957822E+02</pdfrwt>
<totfact>-0.16595025E-13</totfact>
</mgrwt>
</event>
<event>
 4    1 -0.5160210E-019  0.1498197E+02  0.7818608E-02  0.1868619E+00
         -2   -1    0    0    0  501 -0.00000000000E+00  0.00000000000E+00  0.12008308974E+03  0.12008308977E+03  0.25500000000E-02 0.  1.
          2   -1    0    0  501    0  0.00000000000E+00 -0.00000000000E+00 -0.46729689097E+00  0.46730384848E+00  0.25500000000E-02 0. -1.
         31    1    1    2    0    0 -0.19013507708E+00 -0.32137219730E+00  0.54025040601E+02  0.54537174197E+02  0.74470750000E+01 0. -1.
        -31    1    1    2    0    0  0.19013507708E+00  0.32137219730E+00  0.65590752246E+02  0.66013219416E+02  0.74470750000E+01 0.  1.
<mgrwt>
<rscale>  0 0.14981973E+02</rscale>
<asrwt>0</asrwt>
<pdfrwt beam="2">  1        2 0.99251374E+00 0.14981973E+02</pdfrwt>
<pdfrwt beam="1">  1       -2 0.99679500E+00 0.14981973E+02</pdfrwt>
<totfact>-0.12180866E-13</totfact>
</mgrwt>
</event>
<event>
 4    1 -0.5160210E-019  0.1493808E+02  0.7818608E-02  0.1869964E+00
          2   -1    0    0  501    0  0.00000000000E+00  0.00000000000E+00  0.11881482726E+03  0.11881482728E+03  0.25500000000E-02 0.  1.
         -2   -1    0    0    0  501 -0.00000000000E+00 -0.00000000000E+00 -0.46952191028E+00  0.46952883482E+00  0.25500000000E-02 0. -1.
         31    1    1    2    0    0 -0.18640606074E+00  0.46661321051E+00  0.61362099367E+02  0.61814388615E+02  0.74470750000E+01 0.  1.
        -31    1    1    2    0    0  0.18640606074E+00 -0.46661321051E+00  0.56983205978E+02  0.57469967502E+02  0.74470750000E+01 0. -1.
<mgrwt>
<rscale>  0 0.14938083E+02</rscale>
<asrwt>0</asrwt>
<pdfrwt beam="1">  1        2 0.98632652E+00 0.14938083E+02</pdfrwt>
<pdfrwt beam="2">  1       -2 0.99717963E+00 0.14938083E+02</pdfrwt>
<totfact>-0.21678097E-13</totfact>
</mgrwt>
</event>
<event>
 4    1  0.5160210E-019  0.1494726E+02  0.7818608E-02  0.1869682E+00
         -2   -1    0    0    0  501 -0.00000000000E+00  0.00000000000E+00  0.11878387742E+03  0.11878387744E+03  0.25500000000E-02 0.  1.
          2   -1    0    0  501    0  0.00000000000E+00 -0.00000000000E+00 -0.47022146764E+00  0.47022838188E+00  0.25500000000E-02 0. -1.
         31    1    1    2    0    0  0.47647973826E+00 -0.37767323609E+00  0.60456756745E+02  0.60916730314E+02  0.74470750000E+01 0.  1.
        -31    1    1    2    0    0 -0.47647973826E+00  0.37767323609E+00  0.57856899204E+02  0.58337375511E+02  0.74470750000E+01 0.  1.
<mgrwt>
<rscale>  0 0.14947260E+02</rscale>
<asrwt>0</asrwt>
<pdfrwt beam="2">  1        2 0.99865846E+00 0.14947260E+02</pdfrwt>
<pdfrwt beam="1">  1       -2 0.98607638E+00 0.14947260E+02</pdfrwt>
<totfact> 0.13774637E-13</totfact>
</mgrwt>
</event>
<event>
 4    1 -0.5160210E-019  0.1500359E+02  0.7818608E-02  0.1867959E+00
         -2   -1    0    0    0  501 -0.00000000000E+00  0.00000000000E+00  0.11995136862E+03  0.11995136865E+03  0.25500000000E-02 0.  1.
          2   -1    0    0  501    0  0.00000000000E+00 -0.00000000000E+00 -0.46916122971E+00  0.46916815958E+00  0.25500000000E-02 0. -1.
         31    1    1    2    0    0 -0.20620680468E+00  0.87892034770E+00  0.60180873943E+02  0.60646611916E+02  0.74470750000E+01 0. -1.
        -31    1    1    2    0    0  0.20620680468E+00 -0.87892034770E+00  0.59301333451E+02  0.59773924895E+02  0.74470750000E+01 0.  1.
<mgrwt>
<rscale>  0 0.15003593E+02</rscale>
<asrwt>0</asrwt>
<pdfrwt beam="2">  1        2 0.99645377E+00 0.15003593E+02</pdfrwt>
<pdfrwt beam="1">  1       -2 0.99572125E+00 0.15003593E+02</pdfrwt>
<totfact>-0.94572768E-14</totfact>
</mgrwt>
</event>
<event>
 4    1 -0.5160210E-019  0.1490778E+02  0.7818608E-02  0.1870896E+00
          2   -1    0    0  501    0  0.00000000000E+00  0.00000000000E+00  0.11823045389E+03  0.11823045392E+03  0.25500000000E-02 0.  1.
         -2   -1    0    0    0  501 -0.00000000000E+00 -0.00000000000E+00 -0.46993026382E+00  0.46993718235E+00  0.25500000000E-02 0. -1.
         31    1    1    2    0    0  0.18530804381E+00  0.16719552031E+00  0.60457948533E+02  0.60915390175E+02  0.74470750000E+01 0.  1.
        -31    1    1    2    0    0 -0.18530804381E+00 -0.16719552031E+00  0.57302575096E+02  0.57785000927E+02  0.74470750000E+01 0.  1.
<mgrwt>
<rscale>  0 0.14907781E+02</rscale>
<asrwt>0</asrwt>
<pdfrwt beam="1">  1        2 0.98149788E+00 0.14907781E+02</pdfrwt>
<pdfrwt beam="2">  1       -2 0.99802404E+00 0.14907781E+02</pdfrwt>
<totfact>-0.36724357E-13</totfact>
</mgrwt>
</event>
<event>
 4    1 -0.5160210E-019  0.1490873E+02  0.7818608E-02  0.1870867E+00
         -2   -1    0    0    0  501 -0.00000000000E+00  0.00000000000E+00  0.11975247925E+03  0.11975247928E+03  0.25500000000E-02 0. -1.
          2   -1    0    0  501    0  0.00000000000E+00 -0.00000000000E+00 -0.46401646048E+00  0.46402346718E+00  0.25500000000E-02 0.  1.
         31    1    1    2    0    0  0.29139873983E+00  0.13638573437E+00  0.59068156757E+02  0.59536623880E+02  0.74470750000E+01 0. -1.
        -31    1    1    2    0    0 -0.29139873983E+00 -0.13638573437E+00  0.60220306032E+02  0.60679878864E+02  0.74470750000E+01 0. -1.
<mgrwt>
<rscale>  0 0.14908728E+02</rscale>
<asrwt>0</asrwt>
<pdfrwt beam="2">  1        2 0.98556273E+00 0.14908728E+02</pdfrwt>
<pdfrwt beam="1">  1       -2 0.99403416E+00 0.14908728E+02</pdfrwt>
<totfact>-0.31121414E-13</totfact>
</mgrwt>
</event>
<event>
 4    1  0.5160210E-019  0.1493577E+02  0.7818608E-02  0.1870035E+00
         -2   -1    0    0    0  501 -0.00000000000E+00  0.00000000000E+00  0.11866803944E+03  0.11866803947E+03  0.25500000000E-02 0.  1.
          2   -1    0    0  501    0  0.00000000000E+00 -0.00000000000E+00 -0.46995707479E+00  0.46996399293E+00  0.25500000000E-02 0. -1.
         31    1    1    2    0    0 -0.54371943968E+00  0.73997605465E-01  0.59866873489E+02  0.60330776341E+02  0.74470750000E+01 0. -1.
        -31    1    1    2    0    0  0.54371943968E+00 -0.73997605465E-01  0.58331208874E+02  0.58807227117E+02  0.74470750000E+01 0.  1.
<mgrwt>
<rscale>  0 0.14935769E+02</rscale>
<asrwt>0</asrwt>
<pdfrwt beam="2">  1        2 0.99809532E+00 0.14935769E+02</pdfrwt>
<pdfrwt beam="1">  1       -2 0.98511637E+00 0.14935769E+02</pdfrwt>
<totfact> 0.24791038E-13</totfact>
</mgrwt>
</event>
<event>
 4    1 -0.5160210E-019  0.1492658E+02  0.7818608E-02  0.1870317E+00
          2   -1    0    0  501    0  0.00000000000E+00  0.00000000000E+00  0.11868673026E+03  0.11868673029E+03  0.25500000000E-02 0. -1.
         -2   -1    0    0    0  501 -0.00000000000E+00 -0.00000000000E+00 -0.46930500562E+00  0.46931193337E+00  0.25500000000E-02 0.  1.
         31    1    1    2    0    0  0.45257804699E+00 -0.84226572899E-01  0.60487774501E+02  0.60946219826E+02  0.74470750000E+01 0. -1.
        -31    1    1    2    0    0 -0.45257804699E+00  0.84226572899E-01  0.57729650753E+02  0.58209822394E+02  0.74470750000E+01 0.  1.
<mgrwt>
<rscale>  0 0.14926579E+02</rscale>
<asrwt>0</asrwt>
<pdfrwt beam="1">  1        2 0.98526553E+00 0.14926579E+02</pdfrwt>
<pdfrwt beam="2">  1       -2 0.99671655E+00 0.14926579E+02</pdfrwt>
<totfact>-0.28179348E-13</totfact>
</mgrwt>
</event>
<event>
 4    1 -0.5160210E-019  0.1498620E+02  0.7818608E-02  0.1868490E+00
          2   -1    0    0  501    0  0.00000000000E+00  0.00000000000E+00  0.11936793934E+03  0.11936793937E+03  0.25500000000E-02 0. -1.
         -2   -1    0    0    0  501 -0.00000000000E+00 -0.00000000000E+00 -0.47036170479E+00  0.47036861698E+00  0.25500000000E-02 0.  1.
         31    1    1    2    0    0 -0.22549811928E+00  0.47456365620E+00  0.64578687059E+02  0.65008782548E+02  0.74470750000E+01 0. -1.
        -31    1    1    2    0    0  0.22549811928E+00 -0.47456365620E+00  0.54318890577E+02  0.54829525437E+02  0.74470750000E+01 0.  1.
<mgrwt>
<rscale>  0 0.14986197E+02</rscale>
<asrwt>0</asrwt>
<pdfrwt beam="1">  1        2 0.99090698E+00 0.14986197E+02</pdfrwt>
<pdfrwt beam="2">  1       -2 0.99897440E+00 0.14986197E+02</pdfrwt>
<totfact>-0.54829925E-14</totfact>
</mgrwt>
</event>
<event>
 4    1  0.5160210E-019  0.1492757E+02  0.7818608E-02  0.1870287E+00
         -2   -1    0    0    0  501 -0.00000000000E+00  0.00000000000E+00  0.11864579756E+03  0.11864579759E+03  0.25500000000E-02 0.  1.
          2   -1    0    0  501    0  0.00000000000E+00 -0.00000000000E+00 -0.46952930641E+00  0.46953623085E+00  0.25500000000E-02 0. -1.
         31    1    1    2    0    0  0.17113570901E+00  0.46879107647E+00  0.59002744711E+02  0.59472950675E+02  0.74470750000E+01 0.  1.
        -31    1    1    2    0    0 -0.17113570901E+00 -0.46879107647E+00  0.59173523541E+02  0.59642383142E+02  0.74470750000E+01 0. -1.
<mgrwt>
<rscale>  0 0.14927571E+02</rscale>
<asrwt>0</asrwt>
<pdfrwt beam="2">  1        2 0.99718969E+00 0.14927571E+02</pdfrwt>
<pdfrwt beam="1">  1       -2 0.98492892E+00 0.14927571E+02</pdfrwt>
<totfact> 0.34918559E-13</totfact>
</mgrwt>
</event>
<event>
 4    1 -0.5160210E-019  0.1490457E+02  0.7818608E-02  0.1870995E+00
          2   -1    0    0  501    0  0.00000000000E+00  0.00000000000E+00  0.11843790064E+03  0.11843790066E+03  0.25500000000E-02 0. -1.
         -2   -1    0    0    0  501 -0.00000000000E+00 -0.00000000000E+00 -0.46890488498E+00  0.46891181864E+00  0.25500000000E-02 0.  1.
         31    1    1    2    0    0  0.26074434160E-01  0.27062710840E+00  0.58500596814E+02  0.58973321701E+02  0.74470750000E+01 0.  1.
        -31    1    1    2    0    0 -0.26074434160E-01 -0.27062710840E+00  0.59468398937E+02  0.59933490780E+02  0.74470750000E+01 0. -1.
<mgrwt>
<rscale>  0 0.14904566E+02</rscale>
<asrwt>0</asrwt>
<pdfrwt beam="1">  1        2 0.98320472E+00 0.14904566E+02</pdfrwt>
<pdfrwt beam="2">  1       -2 0.99586189E+00 0.14904566E+02</pdfrwt>
<totfact>-0.44514541E-13</totfact>
</mgrwt>
</event>
<event>
 4    1 -0.5160210E-019  0.1492721E+02  0.7818608E-02  0.1870298E+00
         -2   -1    0    0    0  501 -0.00000000000E+00  0.00000000000E+00  0.11995576137E+03  0.11995576139E+03  0.25500000000E-02 0.  1.
          2   -1    0    0  501    0  0.00000000000E+00 -0.00000000000E+00 -0.46437938960E+00  0.46438639083E+00  0.25500000000E-02 0. -1.
         31    1    1    2    0    0  0.34223914212E+00  0.35951757615E+00  0.59665081597E+02  0.60130086218E+02  0.74470750000E+01 0. -1.
        -31    1    1    2    0    0 -0.34223914212E+00 -0.35951757615E+00  0.59826300381E+02  0.60290061568E+02  0.74470750000E+01 0. -1.
<mgrwt>
<rscale>  0 0.14927211E+02</rscale>
<asrwt>0</asrwt>
<pdfrwt beam="2">  1        2 0.98633705E+00 0.14927211E+02</pdfrwt>
<pdfrwt beam="1">  1       -2 0.99571804E+00 0.14927211E+02</pdfrwt>
<totfact>-0.27134273E-13</totfact>
</mgrwt>
</event>
<event>
 4    1 -0.5160210E-019  0.1494755E+02  0.7818608E-02  0.1869673E+00
         -2   -1    0    0    0  501 -0.00000000000E+00  0.00000000000E+00  0.11986678996E+03  0.11986678998E+03  0.25500000000E-02 0. -1.
          2   -1    0    0  501    0  0.00000000000E+00 -0.00000000000E+00 -0.46599155692E+00  0.46599853392E+00  0.25500000000E-02 0.  1.
         31    1    1    2    0    0 -0.42124897237E+00  0.34786645619E+00  0.57155351858E+02  0.57641058576E+02  0.74470750000E+01 0.  1.
        -31    1    1    2    0    0  0.42124897237E+00 -0.34786645619E+00  0.62245446542E+02  0.62691729942E+02  0.74470750000E+01 0. -1.
<mgrwt>
<rscale>  0 0.14947553E+02</rscale>
<asrwt>0</asrwt>
<pdfrwt beam="2">  1        2 0.98974514E+00 0.14947553E+02</pdfrwt>
<pdfrwt beam="1">  1       -2 0.99499569E+00 0.14947553E+02</pdfrwt>
<totfact>-0.18305710E-13</totfact>
</mgrwt>
</event>
<event>
 4    1 -0.5160210E-019  0.1491681E+02  0.7818608E-02  0.1870618E+00
         -2   -1    0    0    0  501 -0.00000000000E+00  0.00000000000E+00  0.12008159468E+03  0.12008159470E+03  0.25500000000E-02 0.  1.
          2   -1    0    0  501    0  0.00000000000E+00 -0.00000000000E+00 -0.46324663619E+00  0.46325365453E+00  0.25500000000E-02 0. -1.
         31    1    1    2    0    0  0.14259698800E+00  0.31559963418E+00  0.58021134115E+02  0.58498127039E+02  0.74470750000E+01 0.  1.
        -31    1    1    2    0    0 -0.14259698800E+00 -0.31559963418E+00  0.61597213927E+02  0.62046721320E+02  0.74470750000E+01 0.  1.
<mgrwt>
<rscale>  0 0.14916812E+02</rscale>
<asrwt>0</asrwt>
<pdfrwt beam="2">  1        2 0.98394436E+00 0.14916812E+02</pdfrwt>
<pdfrwt beam="1">  1       -2 0.99674915E+00 0.14916812E+02</pdfrwt>
<totfact>-0.34791824E-13</totfact>
</mgrwt>
</event>
<event>
 4    1 -0.5160210E-019  0.1498485E+02  0.7818608E-02  0.1868531E+00
          2   -1    0    0  501    0  0.00000000000E+00  0.00000000000E+00  0.11948799017E+03  0.11948799020E+03  0.25500000000E-02 0. -1.
         -2   -1    0    0    0  501 -0.00000000000E+00 -0.00000000000E+00 -0.46980483553E+00  0.46981175590E+00  0.25500000000E-02 0.  1.
         31    1    1    2    0    0 -0.64534773593E+00  0.20030143088E+00  0.63271841220E+02  0.63712176322E+02  0.74470750000E+01 0. -1.
        -31    1    1    2    0    0  0.64534773593E+00 -0.20030143088E+00  0.55746344118E+02  0.56245625634E+02  0.74470750000E+01 0.  1.
<mgrwt>
<rscale>  0 0.14984853E+02</rscale>
<asrwt>0</asrwt>
<pdfrwt beam="1">  1        2 0.99189504E+00 0.14984853E+02</pdfrwt>
<pdfrwt beam="2">  1       -2 0.99780028E+00 0.14984853E+02</pdfrwt>
<totfact>-0.97771361E-14</totfact>
</mgrwt>
</event>
<event>
 4    1  0.5160210E-019  0.1494696E+02  0.7818608E-02  0.1869691E+00
          2   -1    0    0  501    0  0.00000000000E+00  0.00000000000E+00  0.12040525734E+03  0.12040525736E+03  0.25500000000E-02 0.  1.
         -2   -1    0    0    0  501 -0.00000000000E+00 -0.00000000000E+00 -0.46387052886E+00  0.46387753776E+00  0.25500000000E-02 0. -1.
         31    1    1    2    0    0 -0.35275281911E+00 -0.37781585213E+00  0.57091497529E+02  0.57577471250E+02  0.74470750000E+01 0. -1.
        -31    1    1    2    0    0  0.35275281911E+00  0.37781585213E+00  0.62849889279E+02  0.63291663652E+02  0.74470750000E+01 0.  1.
<mgrwt>
<rscale>  0 0.14946956E+02</rscale>
<asrwt>0</asrwt>
<pdfrwt beam="1">  1        2 0.99943058E+00 0.14946956E+02</pdfrwt>
<pdfrwt beam="2">  1       -2 0.98527459E+00 0.14946956E+02</pdfrwt>
<totfact> 0.82059583E-14</totfact>
</mgrwt>
</event>
<event>
 4    1 -0.5160210E-019  0.1494560E+02  0.7818608E-02  0.1869733E+00
          2   -1    0    0  501    0  0.00000000000E+00  0.00000000000E+00  0.11900386183E+03  0.11900386186E+03  0.25500000000E-02 0. -1.
         -2   -1    0    0    0  501 -0.00000000000E+00 -0.00000000000E+00 -0.46924807708E+00  0.46925500567E+00  0.25500000000E-02 0.  1.
         31    1    1    2    0    0  0.19681421361E-01 -0.57188888836E+00  0.57369230403E+02  0.57853392012E+02  0.74470750000E+01 0.  1.
        -31    1    1    2    0    0 -0.19681421361E-01  0.57188888836E+00  0.61165383352E+02  0.61619724853E+02  0.74470750000E+01 0. -1.
<mgrwt>
<rscale>  0 0.14945601E+02</rscale>
<asrwt>0</asrwt>
<pdfrwt beam="1">  1        2 0.98788732E+00 0.14945601E+02</pdfrwt>
<pdfrwt beam="2">  1       -2 0.99660658E+00 0.14945601E+02</pdfrwt>
<totfact>-0.19559494E-13</totfact>
</mgrwt>
</event>
<event>
 4    1 -0.5160210E-019  0.1492199E+02  0.7818608E-02  0.1870458E+00
         -2   -1    0    0    0  501 -0.00000000000E+00  0.00000000000E+00  0.11974873114E+03  0.11974873117E+03  0.25500000000E-02 0.  1.
          2   -1    0    0  501    0  0.00000000000E+00 -0.00000000000E+00 -0.46485705658E+00  0.46486405061E+00  0.25500000000E-02 0. -1.
         31    1    1    2    0    0 -0.19000355458E+00 -0.17615191872E+00  0.62660653983E+02  0.63102168065E+02  0.74470750000E+01 0.  1.
        -31    1    1    2    0    0  0.19000355458E+00  0.17615191872E+00  0.56623220101E+02  0.57111427154E+02  0.74470750000E+01 0. -1.
<mgrwt>
<rscale>  0 0.14921992E+02</rscale>
<asrwt>0</asrwt>
<pdfrwt beam="2">  1        2 0.98734109E+00 0.14921992E+02</pdfrwt>
<pdfrwt beam="1">  1       -2 0.99401011E+00 0.14921992E+02</pdfrwt>
<totfact>-0.23858037E-13</totfact>
</mgrwt>
</event>
<event>
 4    1  0.5160210E-019  0.1489931E+02  0.7818608E-02  0.1871157E+00
          2   -1    0    0  501    0  0.00000000000E+00  0.00000000000E+00  0.11999298012E+03  0.11999298015E+03  0.25500000000E-02 0.  1.
         -2   -1    0    0    0  501 -0.00000000000E+00 -0.00000000000E+00 -0.46250130188E+00  0.46250833154E+00  0.25500000000E-02 0. -1.
         31    1    1    2    0    0 -0.72941738674E-01  0.10534741531E+00  0.58566369079E+02  0.59038080353E+02  0.74470750000E+01 0. -1.
        -31    1    1    2    0    0  0.72941738674E-01 -0.10534741531E+00  0.60964109743E+02  0.61417408130E+02  0.74470750000E+01 0.  1.
<mgrwt>
<rscale>  0 0.14899307E+02</rscale>
<asrwt>0</asrwt>
<pdfrwt beam="1">  1        2 0.99601026E+00 0.14899307E+02</pdfrwt>
<pdfrwt beam="2">  1       -2 0.98236457E+00 0.14899307E+02</pdfrwt>
<totfact> 0.80537672E-13</totfact>
</mgrwt>
</event>
<event>
 4    1  0.5160210E-019  0.1492270E+02  0.7818608E-02  0.1870436E+00
         -2   -1    0    0    0  501 -0.00000000000E+00  0.00000000000E+00  0.11893854451E+03  0.11893854454E+03  0.25500000000E-02 0.  1.
          2   -1    0    0  501    0  0.00000000000E+00 -0.00000000000E+00 -0.46806809791E+00  0.46807504397E+00  0.25500000000E-02 0. -1.
         31    1    1    2    0    0 -0.15995479062E+00  0.30749842807E+00  0.61671321542E+02  0.62120294330E+02  0.74470750000E+01 0.  1.
        -31    1    1    2    0    0  0.15995479062E+00 -0.30749842807E+00  0.56799154870E+02  0.57286325251E+02  0.74470750000E+01 0. -1.
<mgrwt>
<rscale>  0 0.14922701E+02</rscale>
<asrwt>0</asrwt>
<pdfrwt beam="2">  1        2 0.99410822E+00 0.14922701E+02</pdfrwt>
<pdfrwt beam="1">  1       -2 0.98733748E+00 0.14922701E+02</pdfrwt>
<totfact> 0.23016798E-13</totfact>
</mgrwt>
</event>
<event>
 4    1 -0.5160210E-019  0.1496612E+02  0.7818608E-02  0.1869104E+00
          2   -1    0    0  501    0  0.00000000000E+00  0.00000000000E+00  0.11941184693E+03  0.11941184696E+03  0.25500000000E-02 0.  1.
         -2   -1    0    0    0  501 -0.00000000000E+00 -0.00000000000E+00 -0.46893002264E+00  0.46893695592E+00  0.25500000000E-02 0. -1.
         31    1    1    2    0    0 -0.87110858708E-01  0.33996032417E+00  0.64626219512E+02  0.65054825615E+02  0.74470750000E+01 0.  1.
        -31    1    1    2    0    0  0.87110858708E-01 -0.33996032417E+00  0.54316697399E+02  0.54825958301E+02  0.74470750000E+01 0. -1.
<mgrwt>
<rscale>  0 0.14966124E+02</rscale>
<asrwt>0</asrwt>
<pdfrwt beam="1">  1        2 0.99125820E+00 0.14966124E+02</pdfrwt>
<pdfrwt beam="2">  1       -2 0.99594710E+00 0.14966124E+02</pdfrwt>
<totfact>-0.15110186E-13</totfact>
</mgrwt>
</event>
<event>
 4    1  0.5160210E-019  0.1492307E+02  0.7818608E-02  0.1870425E+00
         -2   -1    0    0    0  501 -0.00000000000E+00  0.00000000000E+00  0.11868739521E+03  0.11868739524E+03  0.25500000000E-02 0.  1.
          2   -1    0    0  501    0  0.00000000000E+00 -0.00000000000E+00 -0.46908193743E+00  0.46908886847E+00  0.25500000000E-02 0. -1.
         31    1    1    2    0    0 -0.46154326483E+00  0.44379960780E-02  0.59513149190E+02  0.59979053797E+02  0.74470750000E+01 0.  1.
        -31    1    1    2    0    0  0.46154326483E+00 -0.44379960780E-02  0.58705164084E+02  0.59177430309E+02  0.74470750000E+01 0. -1.
<mgrwt>
<rscale>  0 0.14923073E+02</rscale>
<asrwt>0</asrwt>
<pdfrwt beam="2">  1        2 0.99624469E+00 0.14923073E+02</pdfrwt>
<pdfrwt beam="1">  1       -2 0.98526918E+00 0.14923073E+02</pdfrwt>
<totfact> 0.38229746E-13</totfact>
</mgrwt>
</event>
<event>
 4    1 -0.5160210E-019  0.1500163E+02  0.7818608E-02  0.1868019E+00
          2   -1    0    0  501    0  0.00000000000E+00  0.00000000000E+00  0.11957267186E+03  0.11957267189E+03  0.25500000000E-02 0.  1.
         -2   -1    0    0    0  501 -0.00000000000E+00 -0.00000000000E+00 -0.47052381455E+00  0.47053072435E+00  0.25500000000E-02 0. -1.
         31    1    1    2    0    0  0.83250194277E+00 -0.18021401645E+00  0.61782235532E+02  0.62235272073E+02  0.74470750000E+01 0. -1.
        -31    1    1    2    0    0 -0.83250194277E+00  0.18021401645E+00  0.57319912512E+02  0.57807930538E+02  0.74470750000E+01 0. -1.
<mgrwt>
<rscale>  0 0.15001627E+02</rscale>
<asrwt>0</asrwt>
<pdfrwt beam="1">  1        2 0.99260119E+00 0.15001627E+02</pdfrwt>
<pdfrwt beam="2">  1       -2 0.99932405E+00 0.15001627E+02</pdfrwt>
<totfact>-0.32708868E-14</totfact>
</mgrwt>
</event>
<event>
 4    1 -0.5160210E-019  0.1495408E+02  0.7818608E-02  0.1869473E+00
         -2   -1    0    0    0  501 -0.00000000000E+00  0.00000000000E+00  0.11947603705E+03  0.11947603708E+03  0.25500000000E-02 0.  1.
          2   -1    0    0  501    0  0.00000000000E+00 -0.00000000000E+00 -0.46792422227E+00  0.46793117046E+00  0.25500000000E-02 0. -1.
         31    1    1    2    0    0 -0.32086663606E+00  0.83107605723E-03  0.54797894220E+02  0.55302541471E+02  0.74470750000E+01 0. -1.
        -31    1    1    2    0    0  0.32086663606E+00 -0.83107605723E-03  0.64210218609E+02  0.64641426779E+02  0.74470750000E+01 0.  1.
<mgrwt>
<rscale>  0 0.14954083E+02</rscale>
<asrwt>0</asrwt>
<pdfrwt beam="2">  1        2 0.99382137E+00 0.14954083E+02</pdfrwt>
<pdfrwt beam="1">  1       -2 0.99178065E+00 0.14954083E+02</pdfrwt>
<totfact>-0.79678951E-14</totfact>
</mgrwt>
</event>
<event>
 4    1 -0.5160210E-019  0.1490392E+02  0.7818608E-02  0.1871015E+00
         -2   -1    0    0    0  501 -0.00000000000E+00  0.00000000000E+00  0.12015289741E+03  0.12015289743E+03  0.25500000000E-02 0. -1.
          2   -1    0    0  501    0  0.00000000000E+00 -0.00000000000E+00 -0.46217191106E+00  0.46217894572E+00  0.25500000000E-02 0.  1.
         31    1    1    2    0    0  0.13597400169E+00 -0.23024301010E+00  0.60136396888E+02  0.60596341948E+02  0.74470750000E+01 0. -1.
        -31    1    1    2    0    0 -0.13597400169E+00  0.23024301010E+00  0.59554328607E+02  0.60018734431E+02  0.74470750000E+01 0.  1.
<mgrwt>
<rscale>  0 0.14903922E+02</rscale>
<asrwt>0</asrwt>
<pdfrwt beam="2">  1        2 0.98167264E+00 0.14903922E+02</pdfrwt>
<pdfrwt beam="1">  1       -2 0.99732984E+00 0.14903922E+02</pdfrwt>
<totfact>-0.44846981E-13</totfact>
</mgrwt>
</event>
<event>
 4    1 -0.5160210E-019  0.1495186E+02  0.7818608E-02  0.1869541E+00
         -2   -1    0    0    0  501 -0.00000000000E+00  0.00000000000E+00  0.12017504625E+03  0.12017504628E+03  0.25500000000E-02 0.  1.
          2   -1    0    0  501    0  0.00000000000E+00 -0.00000000000E+00 -0.46506429236E+00  0.46507128328E+00  0.25500000000E-02 0. -1.
         31    1    1    2    0    0  0.84758808593E-02 -0.22156908765E+00  0.64838306148E+02  0.65264952577E+02  0.74470750000E+01 0.  1.
        -31    1    1    2    0    0 -0.84758808593E-02  0.22156908765E+00  0.54871675811E+02  0.55375164985E+02  0.74470750000E+01 0.  1.
<mgrwt>
<rscale>  0 0.14951862E+02</rscale>
<asrwt>0</asrwt>
<pdfrwt beam="2">  1        2 0.98779310E+00 0.14951862E+02</pdfrwt>
<pdfrwt beam="1">  1       -2 0.99753690E+00 0.14951862E+02</pdfrwt>
<totfact>-0.16007147E-13</totfact>
</mgrwt>
</event>
<event>
 4    1  0.5160210E-019  0.1492030E+02  0.7818608E-02  0.1870510E+00
          2   -1    0    0  501    0  0.00000000000E+00  0.00000000000E+00  0.11981473544E+03  0.11981473547E+03  0.25500000000E-02 0. -1.
         -2   -1    0    0    0  501 -0.00000000000E+00 -0.00000000000E+00 -0.46449539872E+00  0.46450239820E+00  0.25500000000E-02 0.  1.
         31    1    1    2    0    0 -0.41005785534E+00  0.14951613595E+00  0.60209084748E+02  0.60669459490E+02  0.74470750000E+01 0. -1.
        -31    1    1    2    0    0  0.41005785534E+00 -0.14951613595E+00  0.59141155295E+02  0.59609778378E+02  0.74470750000E+01 0. -1.
<mgrwt>
<rscale>  0 0.14920297E+02</rscale>
<asrwt>0</asrwt>
<pdfrwt beam="1">  1        2 0.99455289E+00 0.14920297E+02</pdfrwt>
<pdfrwt beam="2">  1       -2 0.98657802E+00 0.14920297E+02</pdfrwt>
<totfact> 0.30335370E-13</totfact>
</mgrwt>
</event>
<event>
 4    1  0.5160210E-019  0.1490270E+02  0.7818608E-02  0.1871052E+00
          2   -1    0    0  501    0  0.00000000000E+00  0.00000000000E+00  0.12022622687E+03  0.12022622690E+03  0.25500000000E-02 0.  1.
         -2   -1    0    0    0  501 -0.00000000000E+00 -0.00000000000E+00 -0.46181454605E+00  0.46182158616E+00  0.25500000000E-02 0. -1.
         31    1    1    2    0    0  0.71769287547E-01  0.79554985700E-01  0.58031213135E+02  0.58507197025E+02  0.74470750000E+01 0.  1.
        -31    1    1    2    0    0 -0.71769287547E-01 -0.79554985700E-01  0.61733199192E+02  0.62180851461E+02  0.74470750000E+01 0.  1.
<mgrwt>
<rscale>  0 0.14902704E+02</rscale>
<asrwt>0</asrwt>
<pdfrwt beam="1">  1        2 0.99793323E+00 0.14902704E+02</pdfrwt>
<pdfrwt beam="2">  1       -2 0.98091879E+00 0.14902704E+02</pdfrwt>
<totfact> 0.67880661E-13</totfact>
</mgrwt>
</event>
<event>
 4    1 -0.5160210E-019  0.1498940E+02  0.7818608E-02  0.1868392E+00
         -2   -1    0    0    0  501 -0.00000000000E+00  0.00000000000E+00  0.11979859872E+03  0.11979859874E+03  0.25500000000E-02 0.  1.
          2   -1    0    0  501    0  0.00000000000E+00 -0.00000000000E+00 -0.46887131367E+00  0.46887824783E+00  0.25500000000E-02 0. -1.
         31    1    1    2    0    0  0.58299754480E+00 -0.28064413089E+00  0.55321995201E+02  0.55824732210E+02  0.74470750000E+01 0.  1.
        -31    1    1    2    0    0 -0.58299754480E+00  0.28064413089E+00  0.64007732201E+02  0.64442744780E+02  0.74470750000E+01 0.  1.
<mgrwt>
<rscale>  0 0.14989402E+02</rscale>
<asrwt>0</asrwt>
<pdfrwt beam="2">  1        2 0.99583548E+00 0.14989402E+02</pdfrwt>
<pdfrwt beam="1">  1       -2 0.99445565E+00 0.14989402E+02</pdfrwt>
<totfact>-0.10790637E-13</totfact>
</mgrwt>
</event>
<event>
 4    1 -0.5160210E-019  0.1498371E+02  0.7818608E-02  0.1868566E+00
         -2   -1    0    0    0  501 -0.00000000000E+00  0.00000000000E+00  0.12006966904E+03  0.12006966907E+03  0.25500000000E-02 0.  1.
          2   -1    0    0  501    0  0.00000000000E+00 -0.00000000000E+00 -0.46745739807E+00  0.46746435319E+00  0.25500000000E-02 0. -1.
         31    1    1    2    0    0 -0.70160645019E+00  0.40646364767E+00  0.58938967600E+02  0.59413115489E+02  0.74470750000E+01 0. -1.
        -31    1    1    2    0    0  0.70160645019E+00 -0.40646364767E+00  0.60663244043E+02  0.61124017932E+02  0.74470750000E+01 0.  1.
<mgrwt>
<rscale>  0 0.14983708E+02</rscale>
<asrwt>0</asrwt>
<pdfrwt beam="2">  1        2 0.99285289E+00 0.14983708E+02</pdfrwt>
<pdfrwt beam="1">  1       -2 0.99668535E+00 0.14983708E+02</pdfrwt>
<totfact>-0.12130836E-13</totfact>
</mgrwt>
</event>
<event>
 4    1 -0.5160210E-019  0.1493086E+02  0.7818608E-02  0.1870186E+00
          2   -1    0    0  501    0  0.00000000000E+00  0.00000000000E+00  0.11912653172E+03  0.11912653174E+03  0.25500000000E-02 0. -1.
         -2   -1    0    0    0  501 -0.00000000000E+00 -0.00000000000E+00 -0.46784061869E+00  0.46784756812E+00  0.25500000000E-02 0.  1.
         31    1    1    2    0    0 -0.43576940624E+00  0.35435284822E-01  0.57027696105E+02  0.57513547966E+02  0.74470750000E+01 0.  1.
        -31    1    1    2    0    0  0.43576940624E+00 -0.35435284822E-01  0.61630994992E+02  0.62080831344E+02  0.74470750000E+01 0.  1.
<mgrwt>
<rscale>  0 0.14930860E+02</rscale>
<asrwt>0</asrwt>
<pdfrwt beam="1">  1        2 0.98889000E+00 0.14930860E+02</pdfrwt>
<pdfrwt beam="2">  1       -2 0.99363313E+00 0.14930860E+02</pdfrwt>
<totfact>-0.19021321E-13</totfact>
</mgrwt>
</event>
<event>
 4    1 -0.5160210E-019  0.1498726E+02  0.7818608E-02  0.1868458E+00
         -2   -1    0    0    0  501 -0.00000000000E+00  0.00000000000E+00  0.11966232620E+03  0.11966232623E+03  0.25500000000E-02 0. -1.
          2   -1    0    0  501    0  0.00000000000E+00 -0.00000000000E+00 -0.46927098376E+00  0.46927791201E+00  0.25500000000E-02 0.  1.
         31    1    1    2    0    0  0.57267979941E+00 -0.23815987453E+00  0.55127403722E+02  0.55631593987E+02  0.74470750000E+01 0.  1.
        -31    1    1    2    0    0 -0.57267979941E+00  0.23815987453E+00  0.64065651495E+02  0.64500010153E+02  0.74470750000E+01 0. -1.
<mgrwt>
<rscale>  0 0.14987258E+02</rscale>
<asrwt>0</asrwt>
<pdfrwt beam="2">  1        2 0.99667658E+00 0.14987258E+02</pdfrwt>
<pdfrwt beam="1">  1       -2 0.99333215E+00 0.14987258E+02</pdfrwt>
<totfact>-0.86166111E-14</totfact>
</mgrwt>
</event>
<event>
 4    1 -0.5160210E-019  0.1494327E+02  0.7818608E-02  0.1869805E+00
          2   -1    0    0  501    0  0.00000000000E+00  0.00000000000E+00  0.11959157606E+03  0.11959157609E+03  0.25500000000E-02 0.  1.
         -2   -1    0    0    0  501 -0.00000000000E+00 -0.00000000000E+00 -0.46679614622E+00  0.46680311120E+00  0.25500000000E-02 0. -1.
         31    1    1    2    0    0  0.47303591459E+00 -0.24658319956E+00  0.61860450188E+02  0.62309379629E+02  0.74470750000E+01 0. -1.
        -31    1    1    2    0    0 -0.47303591459E+00  0.24658319956E+00  0.57264329727E+02  0.57748999570E+02  0.74470750000E+01 0. -1.
<mgrwt>
<rscale>  0 0.14943267E+02</rscale>
<asrwt>0</asrwt>
<pdfrwt beam="1">  1        2 0.99272668E+00 0.14943267E+02</pdfrwt>
<pdfrwt beam="2">  1       -2 0.99143854E+00 0.14943267E+02</pdfrwt>
<totfact>-0.71736432E-14</totfact>
</mgrwt>
</event>
<event>
 4    1 -0.5160210E-019  0.1495649E+02  0.7818608E-02  0.1869399E+00
         -2   -1    0    0    0  501 -0.00000000000E+00  0.00000000000E+00  0.12000415635E+03  0.12000415638E+03  0.25500000000E-02 0. -1.
          2   -1    0    0  501    0  0.00000000000E+00 -0.00000000000E+00 -0.46601492187E+00  0.46602189852E+00  0.25500000000E-02 0.  1.
         31    1    1    2    0    0  0.66228231623E+00 -0.32176101762E-01  0.58481067730E+02  0.58957050995E+02  0.74470750000E+01 0.  1.
        -31    1    1    2    0    0 -0.66228231623E+00  0.32176101762E-01  0.61057073699E+02  0.61513127281E+02  0.74470750000E+01 0. -1.
<mgrwt>
<rscale>  0 0.14956490E+02</rscale>
<asrwt>0</asrwt>
<pdfrwt beam="2">  1        2 0.98979896E+00 0.14956490E+02</pdfrwt>
<pdfrwt beam="1">  1       -2 0.99613172E+00 0.14956490E+02</pdfrwt>
<totfact>-0.16835202E-13</totfact>
</mgrwt>
</event>
<event>
 4    1 -0.5160210E-019  0.1493898E+02  0.7818608E-02  0.1869936E+00
         -2   -1    0    0    0  501 -0.00000000000E+00  0.00000000000E+00  0.11986059872E+03  0.11986059875E+03  0.25500000000E-02 0.  1.
          2   -1    0    0  501    0  0.00000000000E+00 -0.00000000000E+00 -0.46548119101E+00  0.46548817566E+00  0.25500000000E-02 0. -1.
         31    1    1    2    0    0  0.30933110744E+00  0.45678360577E-02  0.63632276819E+02  0.64067318391E+02  0.74470750000E+01 0.  1.
        -31    1    1    2    0    0 -0.30933110744E+00 -0.45678360577E-02  0.55762840709E+02  0.56258768531E+02  0.74470750000E+01 0. -1.
<mgrwt>
<rscale>  0 0.14938979E+02</rscale>
<asrwt>0</asrwt>
<pdfrwt beam="2">  1        2 0.98866515E+00 0.14938979E+02</pdfrwt>
<pdfrwt beam="1">  1       -2 0.99494027E+00 0.14938979E+02</pdfrwt>
<totfact>-0.20595626E-13</totfact>
</mgrwt>
</event>
<event>
 4    1 -0.5160210E-019  0.1497055E+02  0.7818608E-02  0.1868968E+00
         -2   -1    0    0    0  501 -0.00000000000E+00  0.00000000000E+00  0.11979841046E+03  0.11979841049E+03  0.25500000000E-02 0.  1.
          2   -1    0    0  501    0  0.00000000000E+00 -0.00000000000E+00 -0.46769341858E+00  0.46770037020E+00  0.25500000000E-02 0. -1.
         31    1    1    2    0    0 -0.48376407227E+00 -0.44157025619E+00  0.56644397111E+02  0.57135590153E+02  0.74470750000E+01 0. -1.
        -31    1    1    2    0    0  0.48376407227E+00  0.44157025619E+00  0.62686319930E+02  0.63130520704E+02  0.74470750000E+01 0.  1.
<mgrwt>
<rscale>  0 0.14970551E+02</rscale>
<asrwt>0</asrwt>
<pdfrwt beam="2">  1        2 0.99334351E+00 0.14970551E+02</pdfrwt>
<pdfrwt beam="1">  1       -2 0.99444435E+00 0.14970551E+02</pdfrwt>
<totfact>-0.13718682E-13</totfact>
</mgrwt>
</event>
<event>
 4    1 -0.5160210E-019  0.1493408E+02  0.7818608E-02  0.1870087E+00
         -2   -1    0    0    0  501 -0.00000000000E+00  0.00000000000E+00  0.12008507889E+03  0.12008507891E+03  0.25500000000E-02 0.  1.
          2   -1    0    0  501    0  0.00000000000E+00 -0.00000000000E+00 -0.46430615763E+00  0.46431315996E+00  0.25500000000E-02 0. -1.
         31    1    1    2    0    0 -0.30395348077E+00  0.40760219012E+00  0.61408824415E+02  0.61860820956E+02  0.74470750000E+01 0. -1.
        -31    1    1    2    0    0  0.30395348077E+00 -0.40760219012E+00  0.58211948313E+02  0.58688571117E+02  0.74470750000E+01 0. -1.
<mgrwt>
<rscale>  0 0.14934077E+02</rscale>
<asrwt>0</asrwt>
<pdfrwt beam="2">  1        2 0.98618621E+00 0.14934077E+02</pdfrwt>
<pdfrwt beam="1">  1       -2 0.99678672E+00 0.14934077E+02</pdfrwt>
<totfact>-0.24089004E-13</totfact>
</mgrwt>
</event>
<event>
 4    1 -0.5160210E-019  0.1497028E+02  0.7818608E-02  0.1868977E+00
          2   -1    0    0  501    0  0.00000000000E+00  0.00000000000E+00  0.11963293063E+03  0.11963293066E+03  0.25500000000E-02 0.  1.
         -2   -1    0    0    0  501 -0.00000000000E+00 -0.00000000000E+00 -0.46832345722E+00  0.46833039948E+00  0.25500000000E-02 0. -1.
         31    1    1    2    0    0  0.70400454064E+00  0.25796993527E+00  0.58949111273E+02  0.59422376398E+02  0.74470750000E+01 0. -1.
        -31    1    1    2    0    0 -0.70400454064E+00 -0.25796993527E+00  0.60215495903E+02  0.60678884661E+02  0.74470750000E+01 0. -1.
<mgrwt>
<rscale>  0 0.14970281E+02</rscale>
<asrwt>0</asrwt>
<pdfrwt beam="1">  1        2 0.99308126E+00 0.14970281E+02</pdfrwt>
<pdfrwt beam="2">  1       -2 0.99467107E+00 0.14970281E+02</pdfrwt>
<totfact>-0.14035222E-13</totfact>
</mgrwt>
</event>
<event>
 4    1 -0.5160210E-019  0.1496938E+02  0.7818608E-02  0.1869004E+00
          2   -1    0    0  501    0  0.00000000000E+00  0.00000000000E+00  0.11927146292E+03  0.11927146295E+03  0.25500000000E-02 0. -1.
         -2   -1    0    0    0  501 -0.00000000000E+00 -0.00000000000E+00 -0.46968626285E+00  0.46969318497E+00  0.25500000000E-02 0.  1.
         31    1    1    2    0    0 -0.20974062432E+00 -0.28633314621E+00  0.54121016325E+02  0.54632127104E+02  0.74470750000E+01 0. -1.
        -31    1    1    2    0    0  0.20974062432E+00  0.28633314621E+00  0.64680760333E+02  0.65109029029E+02  0.74470750000E+01 0. -1.
<mgrwt>
<rscale>  0 0.14969380E+02</rscale>
<asrwt>0</asrwt>
<pdfrwt beam="1">  1        2 0.99010366E+00 0.14969380E+02</pdfrwt>
<pdfrwt beam="2">  1       -2 0.99754234E+00 0.14969380E+02</pdfrwt>
<totfact>-0.12328049E-13</totfact>
</mgrwt>
</event>
<event>
 4    1 -0.5160210E-019  0.1497246E+02  0.7818608E-02  0.1868910E+00
          2   -1    0    0  501    0  0.00000000000E+00  0.00000000000E+00  0.11906799357E+03  0.11906799360E+03  0.25500000000E-02 0.  1.
         -2   -1    0    0    0  501 -0.00000000000E+00 -0.00000000000E+00 -0.47068260914E+00  0.47068951661E+00  0.25500000000E-02 0. -1.
         31    1    1    2    0    0 -0.41911133662E+00 -0.90998528251E-01  0.64353085977E+02  0.64783968201E+02  0.74470750000E+01 0.  1.
        -31    1    1    2    0    0  0.41911133662E+00  0.90998528251E-01  0.54244224984E+02  0.54754714913E+02  0.74470750000E+01 0. -1.
<mgrwt>
<rscale>  0 0.14972461E+02</rscale>
<asrwt>0</asrwt>
<pdfrwt beam="1">  1        2 0.98842947E+00 0.14972461E+02</pdfrwt>
<pdfrwt beam="2">  1       -2 0.99964337E+00 0.14972461E+02</pdfrwt>
<totfact>-0.25804852E-14</totfact>
</mgrwt>
</event>
<event>
 4    1  0.5160210E-019  0.1492422E+02  0.7818608E-02  0.1870390E+00
         -2   -1    0    0    0  501 -0.00000000000E+00  0.00000000000E+00  0.11875632164E+03  0.11875632166E+03  0.25500000000E-02 0.  1.
          2   -1    0    0  501    0  0.00000000000E+00 -0.00000000000E+00 -0.46888143287E+00  0.46888836687E+00  0.25500000000E-02 0. -1.
         31    1    1    2    0    0  0.18303684619E+00  0.43512227578E+00  0.58856871020E+02  0.59328012154E+02  0.74470750000E+01 0. -1.
        -31    1    1    2    0    0 -0.18303684619E+00 -0.43512227578E+00  0.59430569184E+02  0.59897197876E+02  0.74470750000E+01 0.  1.
<mgrwt>
<rscale>  0 0.14924215E+02</rscale>
<asrwt>0</asrwt>
<pdfrwt beam="2">  1        2 0.99582281E+00 0.14924215E+02</pdfrwt>
<pdfrwt beam="1">  1       -2 0.98583745E+00 0.14924215E+02</pdfrwt>
<totfact> 0.34135607E-13</totfact>
</mgrwt>
</event>
<event>
 4    1 -0.5160210E-019  0.1496322E+02  0.7818608E-02  0.1869193E+00
         -2   -1    0    0    0  501 -0.00000000000E+00  0.00000000000E+00  0.11959952526E+03  0.11959952529E+03  0.25500000000E-02 0. -1.
          2   -1    0    0  501    0  0.00000000000E+00 -0.00000000000E+00 -0.46801234727E+00  0.46801929415E+00  0.25500000000E-02 0.  1.
         31    1    1    2    0    0  0.17552894001E+00  0.36507822347E-01  0.53986764687E+02  0.54498273649E+02  0.74470750000E+01 0.  1.
        -31    1    1    2    0    0 -0.17552894001E+00 -0.36507822347E-01  0.65144748226E+02  0.65569270933E+02  0.74470750000E+01 0. -1.
<mgrwt>
<rscale>  0 0.14963218E+02</rscale>
<asrwt>0</asrwt>
<pdfrwt beam="2">  1        2 0.99401181E+00 0.14963218E+02</pdfrwt>
<pdfrwt beam="1">  1       -2 0.99280247E+00 0.14963218E+02</pdfrwt>
<totfact>-0.10889333E-13</totfact>
</mgrwt>
</event>
<event>
 4    1 -0.5160210E-019  0.1498417E+02  0.7818608E-02  0.1868552E+00
         -2   -1    0    0    0  501 -0.00000000000E+00  0.00000000000E+00  0.12001033986E+03  0.12001033989E+03  0.25500000000E-02 0. -1.
          2   -1    0    0  501    0  0.00000000000E+00 -0.00000000000E+00 -0.46771761611E+00  0.46772456737E+00  0.25500000000E-02 0.  1.
         31    1    1    2    0    0  0.48157742515E+00  0.65314526219E+00  0.60720237476E+02  0.61180590719E+02  0.74470750000E+01 0. -1.
        -31    1    1    2    0    0 -0.48157742515E+00 -0.65314526219E+00  0.58822384769E+02  0.59297473737E+02  0.74470750000E+01 0.  1.
<mgrwt>
<rscale>  0 0.14984174E+02</rscale>
<asrwt>0</asrwt>
<pdfrwt beam="2">  1        2 0.99340152E+00 0.14984174E+02</pdfrwt>
<pdfrwt beam="1">  1       -2 0.99619693E+00 0.14984174E+02</pdfrwt>
<totfact>-0.12547119E-13</totfact>
</mgrwt>
</event>
<event>
 4    1  0.5160210E-019  0.1491324E+02  0.7818608E-02  0.1870728E+00
          2   -1    0    0  501    0  0.00000000000E+00  0.00000000000E+00  0.11989300882E+03  0.11989300885E+03  0.25500000000E-02 0.  1.
         -2   -1    0    0    0  501 -0.00000000000E+00 -0.00000000000E+00 -0.46375306029E+00  0.46376007097E+00  0.25500000000E-02 0. -1.
         31    1    1    2    0    0  0.85542978136E-01  0.31542296466E+00  0.58195364896E+02  0.58670829470E+02  0.74470750000E+01 0.  1.
        -31    1    1    2    0    0 -0.85542978136E-01 -0.31542296466E+00  0.61233890866E+02  0.61685939450E+02  0.74470750000E+01 0.  1.
<mgrwt>
<rscale>  0 0.14913239E+02</rscale>
<asrwt>0</asrwt>
<pdfrwt beam="1">  1        2 0.99519397E+00 0.14913239E+02</pdfrwt>
<pdfrwt beam="2">  1       -2 0.98500989E+00 0.14913239E+02</pdfrwt>
<totfact> 0.47357929E-13</totfact>
</mgrwt>
</event>
<event>
 4    1 -0.5160210E-019  0.1503277E+02  0.7818608E-02  0.1867070E+00
          2   -1    0    0  501    0  0.00000000000E+00  0.00000000000E+00  0.12008294766E+03  0.12008294768E+03  0.25500000000E-02 0.  1.
         -2   -1    0    0    0  501 -0.00000000000E+00 -0.00000000000E+00 -0.47047190559E+00  0.47047881616E+00  0.25500000000E-02 0. -1.
         31    1    1    2    0    0  0.81166760014E+00  0.56458804071E+00  0.57848765053E+02  0.58334519011E+02  0.74470750000E+01 0.  1.
        -31    1    1    2    0    0 -0.81166760014E+00 -0.56458804071E+00  0.61763710697E+02  0.62218907488E+02  0.74470750000E+01 0.  1.
<mgrwt>
<rscale>  0 0.15032774E+02</rscale>
<asrwt>0</asrwt>
<pdfrwt beam="1">  1        2 0.99682008E+00 0.15032774E+02</pdfrwt>
<pdfrwt beam="2">  1       -2 0.99923088E+00 0.15032774E+02</pdfrwt>
<totfact>-0.23334381E-14</totfact>
</mgrwt>
</event>
<event>
 4    1  0.5160210E-019  0.1492673E+02  0.7818608E-02  0.1870313E+00
         -2   -1    0    0    0  501 -0.00000000000E+00  0.00000000000E+00  0.11844140168E+03  0.11844140171E+03  0.25500000000E-02 0.  1.
          2   -1    0    0  501    0  0.00000000000E+00 -0.00000000000E+00 -0.47028674482E+00  0.47029365811E+00  0.25500000000E-02 0. -1.
         31    1    1    2    0    0  0.18166038158E+00 -0.43819218185E+00  0.57919880885E+02  0.58398600503E+02  0.74470750000E+01 0. -1.
        -31    1    1    2    0    0 -0.18166038158E+00  0.43819218185E+00  0.60051234053E+02  0.60513094866E+02  0.74470750000E+01 0.  1.
<mgrwt>
<rscale>  0 0.14926732E+02</rscale>
<asrwt>0</asrwt>
<pdfrwt beam="2">  1        2 0.99878516E+00 0.14926732E+02</pdfrwt>
<pdfrwt beam="1">  1       -2 0.98324510E+00 0.14926732E+02</pdfrwt>
<totfact> 0.27443448E-13</totfact>
</mgrwt>
</event>
<event>
 4    1 -0.5160210E-019  0.1501048E+02  0.7818608E-02  0.1867749E+00
         -2   -1    0    0    0  501 -0.00000000000E+00  0.00000000000E+00  0.12003211845E+03  0.12003211848E+03  0.25500000000E-02 0.  1.
          2   -1    0    0  501    0  0.00000000000E+00 -0.00000000000E+00 -0.46927595571E+00  0.46928288388E+00  0.25500000000E-02 0. -1.
         31    1    1    2    0    0 -0.71732676811E+00  0.25322812105E+00  0.55450876291E+02  0.55953885385E+02  0.74470750000E+01 0. -1.
        -31    1    1    2    0    0  0.71732676811E+00 -0.25322812105E+00  0.64111966207E+02  0.64547515980E+02  0.74470750000E+01 0.  1.
<mgrwt>
<rscale>  0 0.15010477E+02</rscale>
<asrwt>0</asrwt>
<pdfrwt beam="2">  1        2 0.99669910E+00 0.15010477E+02</pdfrwt>
<pdfrwt beam="1">  1       -2 0.99638990E+00 0.15010477E+02</pdfrwt>
<totfact>-0.83814948E-14</totfact>
</mgrwt>
</event>
<event>
 4    1 -0.5160210E-019  0.1490225E+02  0.7818608E-02  0.1871066E+00
         -2   -1    0    0    0  501 -0.00000000000E+00  0.00000000000E+00  0.12038417193E+03  0.12038417195E+03  0.25500000000E-02 0.  1.
          2   -1    0    0  501    0  0.00000000000E+00 -0.00000000000E+00 -0.46118044423E+00  0.46118749402E+00  0.25500000000E-02 0. -1.
         31    1    1    2    0    0 -0.18612357302E+00 -0.15249982563E+00  0.59561814067E+02  0.60026048672E+02  0.74470750000E+01 0. -1.
        -31    1    1    2    0    0  0.18612357302E+00  0.15249982563E+00  0.60361177415E+02  0.60819310775E+02  0.74470750000E+01 0. -1.
<mgrwt>
<rscale>  0 0.14902249E+02</rscale>
<asrwt>0</asrwt>
<pdfrwt beam="2">  1        2 0.97958200E+00 0.14902249E+02</pdfrwt>
<pdfrwt beam="1">  1       -2 0.99923398E+00 0.14902249E+02</pdfrwt>
<totfact>-0.21743756E-13</totfact>
</mgrwt>
</event>
<event>
 4    1  0.5160210E-019  0.1491391E+02  0.7818608E-02  0.1870707E+00
         -2   -1    0    0    0  501 -0.00000000000E+00  0.00000000000E+00  0.11812942942E+03  0.11812942944E+03  0.25500000000E-02 0.  1.
          2   -1    0    0  501    0  0.00000000000E+00 -0.00000000000E+00 -0.47071870517E+00  0.47072561211E+00  0.25500000000E-02 0. -1.
         31    1    1    2    0    0  0.33450257453E-01  0.32257686909E+00  0.57198791048E+02  0.57682456589E+02  0.74470750000E+01 0. -1.
        -31    1    1    2    0    0 -0.33450257453E-01 -0.32257686909E+00  0.60459919664E+02  0.60917698468E+02  0.74470750000E+01 0. -1.
<mgrwt>
<rscale>  0 0.14913905E+02</rscale>
<asrwt>0</asrwt>
<pdfrwt beam="2">  1        2 0.99968845E+00 0.14913905E+02</pdfrwt>
<pdfrwt beam="1">  1       -2 0.98066906E+00 0.14913905E+02</pdfrwt>
<totfact> 0.12996305E-13</totfact>
</mgrwt>
</event>
<event>
 4    1 -0.5160210E-019  0.1494119E+02  0.7818608E-02  0.1869869E+00
          2   -1    0    0  501    0  0.00000000000E+00  0.00000000000E+00  0.11931240830E+03  0.11931240832E+03  0.25500000000E-02 0.  1.
         -2   -1    0    0    0  501 -0.00000000000E+00 -0.00000000000E+00 -0.46775815450E+00  0.46776510515E+00  0.25500000000E-02 0. -1.
         31    1    1    2    0    0 -0.44832534598E+00 -0.34711626635E+00  0.60795944306E+02  0.61252977523E+02  0.74470750000E+01 0.  1.
        -31    1    1    2    0    0  0.44832534598E+00  0.34711626635E+00  0.58048705835E+02  0.58527195905E+02  0.74470750000E+01 0. -1.
<mgrwt>
<rscale>  0 0.14941187E+02</rscale>
<asrwt>0</asrwt>
<pdfrwt beam="1">  1        2 0.99042628E+00 0.14941187E+02</pdfrwt>
<pdfrwt beam="2">  1       -2 0.99346472E+00 0.14941187E+02</pdfrwt>
<totfact>-0.15980920E-13</totfact>
</mgrwt>
</event>
<event>
 4    1  0.5160210E-019  0.1491123E+02  0.7818608E-02  0.1870789E+00
          2   -1    0    0  501    0  0.00000000000E+00  0.00000000000E+00  0.12019167327E+03  0.12019167330E+03  0.25500000000E-02 0. -1.
         -2   -1    0    0    0  501 -0.00000000000E+00 -0.00000000000E+00 -0.46247616132E+00  0.46248319135E+00  0.25500000000E-02 0.  1.
         31    1    1    2    0    0  0.12107620028E+00  0.20578736901E+00  0.62009615057E+02  0.62455650612E+02  0.74470750000E+01 0. -1.
        -31    1    1    2    0    0 -0.12107620028E+00 -0.20578736901E+00  0.57719582056E+02  0.58198505880E+02  0.74470750000E+01 0.  1.
<mgrwt>
<rscale>  0 0.14911232E+02</rscale>
<asrwt>0</asrwt>
<pdfrwt beam="1">  1        2 0.99765298E+00 0.14911232E+02</pdfrwt>
<pdfrwt beam="2">  1       -2 0.98231761E+00 0.14911232E+02</pdfrwt>
<totfact> 0.57097483E-13</totfact>
</mgrwt>
</event>
<event>
 4    1  0.5160210E-019  0.1493042E+02  0.7818608E-02  0.1870199E+00
         -2   -1    0    0    0  501 -0.00000000000E+00  0.00000000000E+00  0.11859055696E+03  0.11859055698E+03  0.25500000000E-02 0. -1.
          2   -1    0    0  501    0  0.00000000000E+00 -0.00000000000E+00 -0.46992766560E+00  0.46993458417E+00  0.25500000000E-02 0.  1.
         31    1    1    2    0    0  0.41944170312E+00 -0.40305702136E-01  0.61491056002E+02  0.61941798894E+02  0.74470750000E+01 0. -1.
        -31    1    1    2    0    0 -0.41944170312E+00  0.40305702136E-01  0.56629573289E+02  0.57118692674E+02  0.74470750000E+01 0. -1.
<mgrwt>
<rscale>  0 0.14930425E+02</rscale>
<asrwt>0</asrwt>
<pdfrwt beam="2">  1        2 0.99803054E+00 0.14930425E+02</pdfrwt>
<pdfrwt beam="1">  1       -2 0.98447545E+00 0.14930425E+02</pdfrwt>
<totfact> 0.30348919E-13</totfact>
</mgrwt>
</event>
<event>
 4    1 -0.5160210E-019  0.1498991E+02  0.7818608E-02  0.1868376E+00
         -2   -1    0    0    0  501 -0.00000000000E+00  0.00000000000E+00  0.11973698320E+03  0.11973698323E+03  0.25500000000E-02 0. -1.
          2   -1    0    0  501    0  0.00000000000E+00 -0.00000000000E+00 -0.46914463749E+00  0.46915156761E+00  0.25500000000E-02 0.  1.
         31    1    1    2    0    0  0.64510839586E-01  0.18679695668E+00  0.53038694794E+02  0.53559323430E+02  0.74470750000E+01 0.  1.
        -31    1    1    2    0    0 -0.64510839586E-01 -0.18679695668E+00  0.66229143769E+02  0.66646811365E+02  0.74470750000E+01 0.  1.
<mgrwt>
<rscale>  0 0.14989914E+02</rscale>
<asrwt>0</asrwt>
<pdfrwt beam="2">  1        2 0.99641172E+00 0.14989914E+02</pdfrwt>
<pdfrwt beam="1">  1       -2 0.99394843E+00 0.14989914E+02</pdfrwt>
<totfact>-0.96395862E-14</totfact>
</mgrwt>
</event>
<event>
 4    1 -0.5160210E-019  0.1500607E+02  0.7818608E-02  0.1867883E+00
          2   -1    0    0  501    0  0.00000000000E+00  0.00000000000E+00  0.12021449827E+03  0.12021449830E+03  0.25500000000E-02 0.  1.
         -2   -1    0    0    0  501 -0.00000000000E+00 -0.00000000000E+00 -0.46828858946E+00  0.46829553225E+00  0.25500000000E-02 0. -1.
         31    1    1    2    0    0 -0.99214494390E-01 -0.29495644238E+00  0.52956149022E+02  0.53478121584E+02  0.74470750000E+01 0. -1.
        -31    1    1    2    0    0  0.99214494390E-01  0.29495644238E+00  0.66790060658E+02  0.67204672245E+02  0.74470750000E+01 0.  1.
<mgrwt>
<rscale>  0 0.15006065E+02</rscale>
<asrwt>0</asrwt>
<pdfrwt beam="1">  1        2 0.99788978E+00 0.15006065E+02</pdfrwt>
<pdfrwt beam="2">  1       -2 0.99461607E+00 0.15006065E+02</pdfrwt>
<totfact>-0.68398931E-14</totfact>
</mgrwt>
</event>
<event>
 4    1 -0.5160210E-019  0.1493034E+02  0.7818608E-02  0.1870202E+00
          2   -1    0    0  501    0  0.00000000000E+00  0.00000000000E+00  0.11845008051E+03  0.11845008054E+03  0.25500000000E-02 0.  1.
         -2   -1    0    0    0  501 -0.00000000000E+00 -0.00000000000E+00 -0.47047958518E+00  0.47048649563E+00  0.25500000000E-02 0. -1.
         31    1    1    2    0    0 -0.15881967796E+00  0.20755427257E-01  0.55053942278E+02  0.55555568046E+02  0.74470750000E+01 0.  1.
        -31    1    1    2    0    0  0.15881967796E+00 -0.20755427257E-01  0.62925658649E+02  0.63364998990E+02  0.74470750000E+01 0.  1.
<mgrwt>
<rscale>  0 0.14930339E+02</rscale>
<asrwt>0</asrwt>
<pdfrwt beam="1">  1        2 0.98331845E+00 0.14930339E+02</pdfrwt>
<pdfrwt beam="2">  1       -2 0.99919337E+00 0.14930339E+02</pdfrwt>
<totfact>-0.12222546E-13</totfact>
</mgrwt>
</event>
<event>
 4    1 -0.5160210E-019  0.1499214E+02  0.7818608E-02  0.1868308E+00
          2   -1    0    0  501    0  0.00000000000E+00  0.00000000000E+00  0.12025147733E+03  0.12025147735E+03  0.25500000000E-02 0. -1.
         -2   -1    0    0    0  501 -0.00000000000E+00 -0.00000000000E+00 -0.46727632755E+00  0.46728328537E+00  0.25500000000E-02 0.  1.
         31    1    1    2    0    0 -0.64396904774E+00  0.48191337259E+00  0.57541378750E+02  0.58026856981E+02  0.74470750000E+01 0.  1.
        -31    1    1    2    0    0  0.64396904774E+00 -0.48191337259E+00  0.62242822251E+02  0.62691903659E+02  0.74470750000E+01 0. -1.
<mgrwt>
<rscale>  0 0.14992143E+02</rscale>
<asrwt>0</asrwt>
<pdfrwt beam="1">  1        2 0.99818718E+00 0.14992143E+02</pdfrwt>
<pdfrwt beam="2">  1       -2 0.99247562E+00 0.14992143E+02</pdfrwt>
<totfact>-0.46751318E-14</totfact>
</mgrwt>
</event>
<event>
 4    1 -0.5160210E-019  0.1492729E+02  0.7818608E-02  0.1870296E+00
          2   -1    0    0  501    0  0.00000000000E+00  0.00000000000E+00  0.11883036842E+03  0.11883036844E+03  0.25500000000E-02 0.  1.
         -2   -1    0    0    0  501 -0.00000000000E+00 -0.00000000000E+00 -0.46878214374E+00  0.46878907922E+00  0.25500000000E-02 0. -1.
         31    1    1    2    0    0  0.26145064310E+00  0.22557054117E+00  0.56323653428E+02  0.56814893295E+02  0.74470750000E+01 0. -1.
        -31    1    1    2    0    0 -0.26145064310E+00 -0.22557054117E+00  0.62037932844E+02  0.62484264228E+02  0.74470750000E+01 0. -1.
<mgrwt>
<rscale>  0 0.14927286E+02</rscale>
<asrwt>0</asrwt>
<pdfrwt beam="1">  1        2 0.98644890E+00 0.14927286E+02</pdfrwt>
<pdfrwt beam="2">  1       -2 0.99561521E+00 0.14927286E+02</pdfrwt>
<totfact>-0.26897206E-13</totfact>
</mgrwt>
</event>
<event>
 4    1 -0.5160210E-019  0.1497335E+02  0.7818608E-02  0.1868883E+00
         -2   -1    0    0    0  501 -0.00000000000E+00  0.00000000000E+00  0.11994498056E+03  0.11994498059E+03  0.25500000000E-02 0.  1.
          2   -1    0    0  501    0  0.00000000000E+00 -0.00000000000E+00 -0.46729654797E+00  0.46730350549E+00  0.25500000000E-02 0. -1.
         31    1    1    2    0    0 -0.11742273351E+00  0.82820103639E-01  0.53663589081E+02  0.54178043213E+02  0.74470750000E+01 0. -1.
        -31    1    1    2    0    0  0.11742273351E+00 -0.82820103639E-01  0.65814094935E+02  0.66234240884E+02  0.74470750000E+01 0.  1.
<mgrwt>
<rscale>  0 0.14973349E+02</rscale>
<asrwt>0</asrwt>
<pdfrwt beam="2">  1        2 0.99250859E+00 0.14973349E+02</pdfrwt>
<pdfrwt beam="1">  1       -2 0.99565301E+00 0.14973349E+02</pdfrwt>
<totfact>-0.14134064E-13</totfact>
</mgrwt>
</event>
<event>
 4    1  0.5160210E-019  0.1489502E+02  0.7818608E-02  0.1871289E+00
          2   -1    0    0  501    0  0.00000000000E+00  0.00000000000E+00  0.11990038181E+03  0.11990038184E+03  0.25500000000E-02 0. -1.
         -2   -1    0    0    0  501 -0.00000000000E+00 -0.00000000000E+00 -0.46259238007E+00  0.46259940834E+00  0.25500000000E-02 0.  1.
         31    1    1    2    0    0  0.37051048607E-01 -0.49801379375E-01  0.59303023846E+02  0.59768816421E+02  0.74470750000E+01 0. -1.
        -31    1    1    2    0    0 -0.37051048607E-01  0.49801379375E-01  0.60134765582E+02  0.60594164823E+02  0.74470750000E+01 0. -1.
<mgrwt>
<rscale>  0 0.14895023E+02</rscale>
<asrwt>0</asrwt>
<pdfrwt beam="1">  1        2 0.99524534E+00 0.14895023E+02</pdfrwt>
<pdfrwt beam="2">  1       -2 0.98255436E+00 0.14895023E+02</pdfrwt>
<totfact> 0.85357132E-13</totfact>
</mgrwt>
</event>
<event>
 4    1 -0.5160210E-019  0.1490510E+02  0.7818608E-02  0.1870978E+00
          2   -1    0    0  501    0  0.00000000000E+00  0.00000000000E+00  0.11853440260E+03  0.11853440262E+03  0.25500000000E-02 0.  1.
         -2   -1    0    0    0  501 -0.00000000000E+00 -0.00000000000E+00 -0.46855687728E+00  0.46856381609E+00  0.25500000000E-02 0. -1.
         31    1    1    2    0    0 -0.22075974314E+00 -0.16990674273E+00  0.58528295362E+02  0.59000829547E+02  0.74470750000E+01 0. -1.
        -31    1    1    2    0    0  0.22075974314E+00  0.16990674273E+00  0.59537550356E+02  0.60002136892E+02  0.74470750000E+01 0.  1.
<mgrwt>
<rscale>  0 0.14905103E+02</rscale>
<asrwt>0</asrwt>
<pdfrwt beam="1">  1        2 0.98399979E+00 0.14905103E+02</pdfrwt>
<pdfrwt beam="2">  1       -2 0.99512891E+00 0.14905103E+02</pdfrwt>
<totfact>-0.40789311E-13</totfact>
</mgrwt>
</event>
<event>
 4    1 -0.5160210E-019  0.1499852E+02  0.7818608E-02  0.1868114E+00
          2   -1    0    0  501    0  0.00000000000E+00  0.00000000000E+00  0.12021570803E+03  0.12021570805E+03  0.25500000000E-02 0.  1.
         -2   -1    0    0    0  501 -0.00000000000E+00 -0.00000000000E+00 -0.46781334296E+00  0.46782029280E+00  0.25500000000E-02 0. -1.
         31    1    1    2    0    0  0.31487572154E+00 -0.56709722962E+00  0.64696807005E+02  0.65127233234E+02  0.74470750000E+01 0.  1.
        -31    1    1    2    0    0 -0.31487572154E+00  0.56709722962E+00  0.55051087677E+02  0.55556295111E+02  0.74470750000E+01 0. -1.
<mgrwt>
<rscale>  0 0.14998524E+02</rscale>
<asrwt>0</asrwt>
<pdfrwt beam="1">  1        2 0.99789585E+00 0.14998524E+02</pdfrwt>
<pdfrwt beam="2">  1       -2 0.99361064E+00 0.14998524E+02</pdfrwt>
<totfact>-0.64465529E-14</totfact>
</mgrwt>
</event>
<event>
 4    1 -0.5160210E-019  0.1491789E+02  0.7818608E-02  0.1870584E+00
          2   -1    0    0  501    0  0.00000000000E+00  0.00000000000E+00  0.11842991831E+03  0.11842991834E+03  0.25500000000E-02 0.  1.
         -2   -1    0    0    0  501 -0.00000000000E+00 -0.00000000000E+00 -0.46977537247E+00  0.46978229328E+00  0.25500000000E-02 0. -1.
         31    1    1    2    0    0 -0.40162809120E+00 -0.11814708130E-01  0.57987738823E+02  0.58465359184E+02  0.74470750000E+01 0.  1.
        -31    1    1    2    0    0  0.40162809120E+00  0.11814708130E-01  0.59972404117E+02  0.60434341449E+02  0.74470750000E+01 0.  1.
<mgrwt>
<rscale>  0 0.14917892E+02</rscale>
<asrwt>0</asrwt>
<pdfrwt beam="1">  1        2 0.98314591E+00 0.14917892E+02</pdfrwt>
<pdfrwt beam="2">  1       -2 0.99770304E+00 0.14917892E+02</pdfrwt>
<totfact>-0.31297540E-13</totfact>
</mgrwt>
</event>
<event>
 4    1 -0.5160210E-019  0.1498827E+02  0.7818608E-02  0.1868427E+00
          2   -1    0    0  501    0  0.00000000000E+00  0.00000000000E+00  0.11965853965E+03  0.11965853967E+03  0.25500000000E-02 0.  1.
         -2   -1    0    0    0  501 -0.00000000000E+00 -0.00000000000E+00 -0.46934898408E+00  0.46935591117E+00  0.25500000000E-02 0. -1.
         31    1    1    2    0    0 -0.17938352471E+00  0.17403844774E+00  0.66009626335E+02  0.66428850380E+02  0.74470750000E+01 0.  1.
        -31    1    1    2    0    0  0.17938352471E+00 -0.17403844774E+00  0.53179564326E+02  0.53699045204E+02  0.74470750000E+01 0. -1.
<mgrwt>
<rscale>  0 0.14988266E+02</rscale>
<asrwt>0</asrwt>
<pdfrwt beam="1">  1        2 0.99330149E+00 0.14988266E+02</pdfrwt>
<pdfrwt beam="2">  1       -2 0.99684147E+00 0.14988266E+02</pdfrwt>
<totfact>-0.11406510E-13</totfact>
</mgrwt>
</event>
<event>
 4    1 -0.5160210E-019  0.1492591E+02  0.7818608E-02  0.1870338E+00
         -2   -1    0    0    0  501 -0.00000000000E+00  0.00000000000E+00  0.11944691660E+03  0.11944691663E+03  0.25500000000E-02 0. -1.
          2   -1    0    0  501    0  0.00000000000E+00 -0.00000000000E+00 -0.46627608813E+00  0.46628306088E+00  0.25500000000E-02 0.  1.
         31    1    1    2    0    0  0.31079172428E+00 -0.37411250030E+00  0.59598998497E+02  0.60064432899E+02  0.74470750000E+01 0. -1.
        -31    1    1    2    0    0 -0.31079172428E+00  0.37411250030E+00  0.59381642017E+02  0.59848766791E+02  0.74470750000E+01 0.  1.
<mgrwt>
<rscale>  0 0.14925905E+02</rscale>
<asrwt>0</asrwt>
<pdfrwt beam="2">  1        2 0.99033363E+00 0.14925905E+02</pdfrwt>
<pdfrwt beam="1">  1       -2 0.99152623E+00 0.14925905E+02</pdfrwt>
<totfact>-0.91225855E-14</totfact>
</mgrwt>
</event>
<event>
 4    1 -0.5160210E-019  0.1489722E+02  0.7818608E-02  0.1871221E+00
          2   -1    0    0  501    0  0.00000000000E+00  0.00000000000E+00  0.11840030383E+03  0.11840030386E+03  0.25500000000E-02 0. -1.
         -2   -1    0    0    0  501 -0.00000000000E+00 -0.00000000000E+00 -0.46859143788E+00  0.46859837617E+00  0.25500000000E-02 0.  1.
         31    1    1    2    0    0 -0.96355213670E-01 -0.49605366469E-01  0.59806961460E+02  0.60268924913E+02  0.74470750000E+01 0. -1.
        -31    1    1    2    0    0  0.96355213670E-01  0.49605366469E-01  0.58124750935E+02  0.58599977323E+02  0.74470750000E+01 0. -1.
<mgrwt>
<rscale>  0 0.14897219E+02</rscale>
<asrwt>0</asrwt>
<pdfrwt beam="1">  1        2 0.98289125E+00 0.14897219E+02</pdfrwt>
<pdfrwt beam="2">  1       -2 0.99519758E+00 0.14897219E+02</pdfrwt>
<totfact>-0.49035179E-13</totfact>
</mgrwt>
</event>
<event>
 4    1 -0.5160210E-019  0.1492806E+02  0.7818608E-02  0.1870272E+00
          2   -1    0    0  501    0  0.00000000000E+00  0.00000000000E+00  0.11862305770E+03  0.11862305773E+03  0.25500000000E-02 0. -1.
         -2   -1    0    0    0  501 -0.00000000000E+00 -0.00000000000E+00 -0.46965002114E+00  0.46965694379E+00  0.25500000000E-02 0.  1.
         31    1    1    2    0    0  0.12537710969E+00  0.13347354035E+00  0.62812439725E+02  0.63252628758E+02  0.74470750000E+01 0. -1.
        -31    1    1    2    0    0 -0.12537710969E+00 -0.13347354035E+00  0.55340967955E+02  0.55840085914E+02  0.74470750000E+01 0.  1.
<mgrwt>
<rscale>  0 0.14928059E+02</rscale>
<asrwt>0</asrwt>
<pdfrwt beam="1">  1        2 0.98474189E+00 0.14928059E+02</pdfrwt>
<pdfrwt beam="2">  1       -2 0.99744429E+00 0.14928059E+02</pdfrwt>
<totfact>-0.25967204E-13</totfact>
</mgrwt>
</event>
<event>
 4    1  0.5160210E-019  0.1490244E+02  0.7818608E-02  0.1871060E+00
         -2   -1    0    0    0  501 -0.00000000000E+00  0.00000000000E+00  0.11837674333E+03  0.11837674336E+03  0.25500000000E-02 0. -1.
          2   -1    0    0  501    0  0.00000000000E+00 -0.00000000000E+00 -0.46901334678E+00  0.46902027883E+00  0.25500000000E-02 0.  1.
         31    1    1    2    0    0  0.87761008982E-01  0.12056869007E+00  0.57368454533E+02  0.57849984791E+02  0.74470750000E+01 0.  1.
        -31    1    1    2    0    0 -0.87761008982E-01 -0.12056869007E+00  0.60539275452E+02  0.60995778846E+02  0.74470750000E+01 0. -1.
<mgrwt>
<rscale>  0 0.14902441E+02</rscale>
<asrwt>0</asrwt>
<pdfrwt beam="2">  1        2 0.99608930E+00 0.14902441E+02</pdfrwt>
<pdfrwt beam="1">  1       -2 0.98269993E+00 0.14902441E+02</pdfrwt>
<totfact> 0.74197291E-13</totfact>
</mgrwt>
</event>
<event>
 4    1 -0.5160210E-019  0.1499278E+02  0.7818608E-02  0.1868289E+00
          2   -1    0    0  501    0  0.00000000000E+00  0.00000000000E+00  0.11989824598E+03  0.11989824601E+03  0.25500000000E-02 0. -1.
         -2   -1    0    0    0  501 -0.00000000000E+00 -0.00000000000E+00 -0.46869254173E+00  0.46869947853E+00  0.25500000000E-02 0.  1.
         31    1    1    2    0    0  0.30671987239E+00 -0.26406322627E+00  0.65792493900E+02  0.66213857961E+02  0.74470750000E+01 0. -1.
        -31    1    1    2    0    0 -0.30671987239E+00  0.26406322627E+00  0.53637059541E+02  0.54153087528E+02  0.74470750000E+01 0.  1.
<mgrwt>
<rscale>  0 0.14992776E+02</rscale>
<asrwt>0</asrwt>
<pdfrwt beam="1">  1        2 0.99527812E+00 0.14992776E+02</pdfrwt>
<pdfrwt beam="2">  1       -2 0.99546049E+00 0.14992776E+02</pdfrwt>
<totfact>-0.11362121E-13</totfact>
</mgrwt>
</event>
<event>
 4    1 -0.5160210E-019  0.1493710E+02  0.7818608E-02  0.1869994E+00
          2   -1    0    0  501    0  0.00000000000E+00  0.00000000000E+00  0.11870386196E+03  0.11870386199E+03  0.25500000000E-02 0.  1.
         -2   -1    0    0    0  501 -0.00000000000E+00 -0.00000000000E+00 -0.46989876557E+00  0.46990568457E+00  0.25500000000E-02 0. -1.
         31    1    1    2    0    0  0.39183020190E+00  0.40826589372E+00  0.59048295003E+02  0.59518738904E+02  0.74470750000E+01 0. -1.
        -31    1    1    2    0    0 -0.39183020190E+00 -0.40826589372E+00  0.59185668196E+02  0.59655028772E+02  0.74470750000E+01 0.  1.
<mgrwt>
<rscale>  0 0.14937096E+02</rscale>
<asrwt>0</asrwt>
<pdfrwt beam="1">  1        2 0.98541209E+00 0.14937096E+02</pdfrwt>
<pdfrwt beam="2">  1       -2 0.99797316E+00 0.14937096E+02</pdfrwt>
<totfact>-0.19516321E-13</totfact>
</mgrwt>
</event>
<event>
 4    1 -0.5160210E-019  0.1496884E+02  0.7818608E-02  0.1869021E+00
          2   -1    0    0  501    0  0.00000000000E+00  0.00000000000E+00  0.11906711815E+03  0.11906711818E+03  0.25500000000E-02 0.  1.
         -2   -1    0    0    0  501 -0.00000000000E+00 -0.00000000000E+00 -0.47045824183E+00  0.47046515260E+00  0.25500000000E-02 0. -1.
         31    1    1    2    0    0  0.84608985077E-01 -0.73696404351E+00  0.59981614906E+02  0.60446698235E+02  0.74470750000E+01 0. -1.
        -31    1    1    2    0    0 -0.84608985077E-01  0.73696404351E+00  0.58615045003E+02  0.59090885096E+02  0.74470750000E+01 0. -1.
<mgrwt>
<rscale>  0 0.14968837E+02</rscale>
<asrwt>0</asrwt>
<pdfrwt beam="1">  1        2 0.98842038E+00 0.14968837E+02</pdfrwt>
<pdfrwt beam="2">  1       -2 0.99916871E+00 0.14968837E+02</pdfrwt>
<totfact>-0.58046293E-14</totfact>
</mgrwt>
</event>
<event>
 4    1 -0.5160210E-019  0.1498464E+02  0.7818608E-02  0.1868538E+00
         -2   -1    0    0    0  501 -0.00000000000E+00  0.00000000000E+00  0.11955185018E+03  0.11955185021E+03  0.25500000000E-02 0. -1.
          2   -1    0    0  501    0  0.00000000000E+00 -0.00000000000E+00 -0.46954032156E+00  0.46954724584E+00  0.25500000000E-02 0.  1.
         31    1    1    2    0    0  0.69331212354E+00 -0.25639471729E+00  0.62423345967E+02  0.62870338537E+02  0.74470750000E+01 0. -1.
        -31    1    1    2    0    0 -0.69331212354E+00  0.25639471729E+00  0.56658963896E+02  0.57151058920E+02  0.74470750000E+01 0.  1.
<mgrwt>
<rscale>  0 0.14984636E+02</rscale>
<asrwt>0</asrwt>
<pdfrwt beam="2">  1        2 0.99724278E+00 0.14984636E+02</pdfrwt>
<pdfrwt beam="1">  1       -2 0.99242089E+00 0.14984636E+02</pdfrwt>
<totfact>-0.63126194E-14</totfact>
</mgrwt>
</event>
<event>
 4    1 -0.5160210E-019  0.1496055E+02  0.7818608E-02  0.1869275E+00
          2   -1    0    0  501    0  0.00000000000E+00  0.00000000000E+00  0.11973022032E+03  0.11973022034E+03  0.25500000000E-02 0. -1.
         -2   -1    0    0    0  501 -0.00000000000E+00 -0.00000000000E+00 -0.46733489044E+00  0.46734184740E+00  0.25500000000E-02 0.  1.
         31    1    1    2    0    0  0.49439273438E+00  0.19232393996E+00  0.63349773682E+02  0.63788197688E+02  0.74470750000E+01 0. -1.
        -31    1    1    2    0    0 -0.49439273438E+00 -0.19232393996E+00  0.55913111744E+02  0.56409364503E+02  0.74470750000E+01 0.  1.
<mgrwt>
<rscale>  0 0.14960552E+02</rscale>
<asrwt>0</asrwt>
<pdfrwt beam="1">  1        2 0.99387754E+00 0.14960552E+02</pdfrwt>
<pdfrwt beam="2">  1       -2 0.99258280E+00 0.14960552E+02</pdfrwt>
<totfact>-0.10462889E-13</totfact>
</mgrwt>
</event>
<event>
 4    1 -0.5160210E-019  0.1494334E+02  0.7818608E-02  0.1869802E+00
          2   -1    0    0  501    0  0.00000000000E+00  0.00000000000E+00  0.11942842022E+03  0.11942842025E+03  0.25500000000E-02 0. -1.
         -2   -1    0    0    0  501 -0.00000000000E+00 -0.00000000000E+00 -0.46743856428E+00  0.46744551969E+00  0.25500000000E-02 0.  1.
         31    1    1    2    0    0  0.23541937979E+00  0.53560091831E+00  0.60740214927E+02  0.61197834325E+02  0.74470750000E+01 0.  1.
        -31    1    1    2    0    0 -0.23541937979E+00 -0.53560091831E+00  0.58220766728E+02  0.58698031441E+02  0.74470750000E+01 0.  1.
<mgrwt>
<rscale>  0 0.14943342E+02</rscale>
<asrwt>0</asrwt>
<pdfrwt beam="1">  1        2 0.99138291E+00 0.14943342E+02</pdfrwt>
<pdfrwt beam="2">  1       -2 0.99279237E+00 0.14943342E+02</pdfrwt>
<totfact>-0.13205542E-13</totfact>
</mgrwt>
</event>
<event>
 4    1 -0.5160210E-019  0.1491962E+02  0.7818608E-02  0.1870531E+00
          2   -1    0    0  501    0  0.00000000000E+00  0.00000000000E+00  0.11853293189E+03  0.11853293192E+03  0.25500000000E-02 0. -1.
         -2   -1    0    0    0  501 -0.00000000000E+00 -0.00000000000E+00 -0.46947570433E+00  0.46948262956E+00  0.25500000000E-02 0.  1.
         31    1    1    2    0    0  0.39695452111E+00 -0.15054725311E+00  0.59812501771E+02  0.60275820455E+02  0.74470750000E+01 0. -1.
        -31    1    1    2    0    0 -0.39695452111E+00  0.15054725311E+00  0.58250954417E+02  0.58726594094E+02  0.74470750000E+01 0.  1.
<mgrwt>
<rscale>  0 0.14919617E+02</rscale>
<asrwt>0</asrwt>
<pdfrwt beam="1">  1        2 0.98399523E+00 0.14919617E+02</pdfrwt>
<pdfrwt beam="2">  1       -2 0.99707255E+00 0.14919617E+02</pdfrwt>
<totfact>-0.32285458E-13</totfact>
</mgrwt>
</event>
<event>
 4    1 -0.5160210E-019  0.1496860E+02  0.7818608E-02  0.1869028E+00
          2   -1    0    0  501    0  0.00000000000E+00  0.00000000000E+00  0.11971426854E+03  0.11971426857E+03  0.25500000000E-02 0. -1.
         -2   -1    0    0    0  501 -0.00000000000E+00 -0.00000000000E+00 -0.46789997842E+00  0.46790692697E+00  0.25500000000E-02 0.  1.
         31    1    1    2    0    0  0.15561888752E-01 -0.35553266531E+00  0.64882922217E+02  0.65309870365E+02  0.74470750000E+01 0. -1.
        -31    1    1    2    0    0 -0.15561888752E-01  0.35553266531E+00  0.54363446347E+02  0.54872305132E+02  0.74470750000E+01 0.  1.
<mgrwt>
<rscale>  0 0.14968597E+02</rscale>
<asrwt>0</asrwt>
<pdfrwt beam="1">  1        2 0.99375031E+00 0.14968597E+02</pdfrwt>
<pdfrwt beam="2">  1       -2 0.99377779E+00 0.14968597E+02</pdfrwt>
<totfact>-0.12813128E-13</totfact>
</mgrwt>
</event>
<event>
 4    1 -0.5160210E-019  0.1492481E+02  0.7818608E-02  0.1870372E+00
          2   -1    0    0  501    0  0.00000000000E+00  0.00000000000E+00  0.11879668210E+03  0.11879668212E+03  0.25500000000E-02 0. -1.
         -2   -1    0    0    0  501 -0.00000000000E+00 -0.00000000000E+00 -0.46875965281E+00  0.46876658862E+00  0.25500000000E-02 0.  1.
         31    1    1    2    0    0 -0.24893979025E+00  0.82615460294E-03  0.55902179444E+02  0.56396582914E+02  0.74470750000E+01 0. -1.
        -31    1    1    2    0    0  0.24893979025E+00 -0.82615460294E-03  0.62425743000E+02  0.62868865799E+02  0.74470750000E+01 0. -1.
<mgrwt>
<rscale>  0 0.14924812E+02</rscale>
<asrwt>0</asrwt>
<pdfrwt beam="1">  1        2 0.98617018E+00 0.14924812E+02</pdfrwt>
<pdfrwt beam="2">  1       -2 0.99556652E+00 0.14924812E+02</pdfrwt>
<totfact>-0.28146941E-13</totfact>
</mgrwt>
</event>
<event>
 4    1  0.5160210E-019  0.1492754E+02  0.7818608E-02  0.1870288E+00
          2   -1    0    0  501    0  0.00000000000E+00  0.00000000000E+00  0.11978331646E+03  0.11978331649E+03  0.25500000000E-02 0. -1.
         -2   -1    0    0    0  501 -0.00000000000E+00 -0.00000000000E+00 -0.46506838870E+00  0.46507537956E+00  0.25500000000E-02 0.  1.
         31    1    1    2    0    0 -0.35408652415E+00 -0.18362538815E+00  0.62073540678E+02  0.62519936612E+02  0.74470750000E+01 0. -1.
        -31    1    1    2    0    0  0.35408652415E+00  0.18362538815E+00  0.57244707394E+02  0.57728455255E+02  0.74470750000E+01 0.  1.
<mgrwt>
<rscale>  0 0.14927539E+02</rscale>
<asrwt>0</asrwt>
<pdfrwt beam="1">  1        2 0.99429784E+00 0.14927539E+02</pdfrwt>
<pdfrwt beam="2">  1       -2 0.98778931E+00 0.14927539E+02</pdfrwt>
<totfact> 0.18144339E-13</totfact>
</mgrwt>
</event>
<event>
 4    1 -0.5160210E-019  0.1495398E+02  0.7818608E-02  0.1869476E+00
          2   -1    0    0  501    0  0.00000000000E+00  0.00000000000E+00  0.11918631178E+03  0.11918631180E+03  0.25500000000E-02 0. -1.
         -2   -1    0    0    0  501 -0.00000000000E+00 -0.00000000000E+00 -0.46905499862E+00  0.46906193006E+00  0.25500000000E-02 0.  1.
         31    1    1    2    0    0  0.41308242319E-01  0.37164783357E+00  0.63789197709E+02  0.64223519826E+02  0.74470750000E+01 0. -1.
        -31    1    1    2    0    0 -0.41308242319E-01 -0.37164783357E+00  0.54928059070E+02  0.55431853909E+02  0.74470750000E+01 0.  1.
<mgrwt>
<rscale>  0 0.14953976E+02</rscale>
<asrwt>0</asrwt>
<pdfrwt beam="1">  1        2 0.98939435E+00 0.14953976E+02</pdfrwt>
<pdfrwt beam="2">  1       -2 0.99620412E+00 0.14953976E+02</pdfrwt>
<totfact>-0.17387276E-13</totfact>
</mgrwt>
</event>
<event>
 4    1 -0.5160210E-019  0.1493861E+02  0.7818608E-02  0.1869948E+00
         -2   -1    0    0    0  501 -0.00000000000E+00  0.00000000000E+00  0.12014089382E+03  0.12014089385E+03  0.25500000000E-02 0.  1.
          2   -1    0    0  501    0  0.00000000000E+00 -0.00000000000E+00 -0.46437235406E+00  0.46437935540E+00  0.25500000000E-02 0. -1.
         31    1    1    2    0    0  0.41140403817E+00  0.92418022239E-01  0.56671956196E+02  0.57160715002E+02  0.74470750000E+01 0. -1.
        -31    1    1    2    0    0 -0.41140403817E+00 -0.92418022239E-01  0.63004565269E+02  0.63444558200E+02  0.74470750000E+01 0.  1.
<mgrwt>
<rscale>  0 0.14938612E+02</rscale>
<asrwt>0</asrwt>
<pdfrwt beam="2">  1        2 0.98632803E+00 0.14938612E+02</pdfrwt>
<pdfrwt beam="1">  1       -2 0.99724878E+00 0.14938612E+02</pdfrwt>
<totfact>-0.21306922E-13</totfact>
</mgrwt>
</event>
<event>
 4    1  0.5160210E-019  0.1490882E+02  0.7818608E-02  0.1870864E+00
         -2   -1    0    0    0  501 -0.00000000000E+00  0.00000000000E+00  0.11820707274E+03  0.11820707277E+03  0.25500000000E-02 0.  1.
          2   -1    0    0  501    0  0.00000000000E+00 -0.00000000000E+00 -0.47008903959E+00  0.47009595579E+00  0.25500000000E-02 0. -1.
         31    1    1    2    0    0 -0.12218399123E+00 -0.26798926706E+00  0.60064856567E+02  0.60525471230E+02  0.74470750000E+01 0. -1.
        -31    1    1    2    0    0  0.12218399123E+00  0.26798926706E+00  0.57672127135E+02  0.58151697494E+02  0.74470750000E+01 0.  1.
<mgrwt>
<rscale>  0 0.14908824E+02</rscale>
<asrwt>0</asrwt>
<pdfrwt beam="2">  1        2 0.99835912E+00 0.14908824E+02</pdfrwt>
<pdfrwt beam="1">  1       -2 0.98130587E+00 0.14908824E+02</pdfrwt>
<totfact> 0.52610884E-13</totfact>
</mgrwt>
</event>
<event>
 4    1 -0.5160210E-019  0.1492915E+02  0.7818608E-02  0.1870238E+00
         -2   -1    0    0    0  501 -0.00000000000E+00  0.00000000000E+00  0.11990459487E+03  0.11990459490E+03  0.25500000000E-02 0.  1.
          2   -1    0    0  501    0  0.00000000000E+00 -0.00000000000E+00 -0.46469839862E+00  0.46470539504E+00  0.25500000000E-02 0. -1.
         31    1    1    2    0    0 -0.20536948959E+00  0.44795409992E+00  0.60805583625E+02  0.61261903052E+02  0.74470750000E+01 0. -1.
        -31    1    1    2    0    0  0.20536948959E+00 -0.44795409992E+00  0.58634312850E+02  0.59107397244E+02  0.74470750000E+01 0. -1.
<mgrwt>
<rscale>  0 0.14929152E+02</rscale>
<asrwt>0</asrwt>
<pdfrwt beam="2">  1        2 0.98701038E+00 0.14929152E+02</pdfrwt>
<pdfrwt beam="1">  1       -2 0.99529759E+00 0.14929152E+02</pdfrwt>
<totfact>-0.25257764E-13</totfact>
</mgrwt>
</event>
<event>
 4    1  0.5160210E-019  0.1491952E+02  0.7818608E-02  0.1870534E+00
         -2   -1    0    0    0  501 -0.00000000000E+00  0.00000000000E+00  0.11846626921E+03  0.11846626923E+03  0.25500000000E-02 0.  1.
          2   -1    0    0  501    0  0.00000000000E+00 -0.00000000000E+00 -0.46973368142E+00  0.46974060284E+00  0.25500000000E-02 0. -1.
         31    1    1    2    0    0  0.90259099307E-02  0.80910789917E-01  0.62403427760E+02  0.62846267592E+02  0.74470750000E+01 0.  1.
        -31    1    1    2    0    0 -0.90259099307E-02 -0.80910789917E-01  0.55593107765E+02  0.56089742244E+02  0.74470750000E+01 0. -1.
<mgrwt>
<rscale>  0 0.14919519E+02</rscale>
<asrwt>0</asrwt>
<pdfrwt beam="2">  1        2 0.99761606E+00 0.14919519E+02</pdfrwt>
<pdfrwt beam="1">  1       -2 0.98344614E+00 0.14919519E+02</pdfrwt>
<totfact> 0.45196289E-13</totfact>
</mgrwt>
</event>
<event>
 4    1 -0.5160210E-019  0.1497907E+02  0.7818608E-02  0.1868708E+00
          2   -1    0    0  501    0  0.00000000000E+00  0.00000000000E+00  0.11973687473E+03  0.11973687475E+03  0.25500000000E-02 0. -1.
         -2   -1    0    0    0  501 -0.00000000000E+00 -0.00000000000E+00 -0.46846623225E+00  0.46847317240E+00  0.25500000000E-02 0.  1.
         31    1    1    2    0    0 -0.34438779801E+00 -0.59418050486E+00  0.62869358010E+02  0.63312611351E+02  0.74470750000E+01 0. -1.
        -31    1    1    2    0    0  0.34438779801E+00  0.59418050486E+00  0.56399050485E+02  0.56892736576E+02  0.74470750000E+01 0.  1.
<mgrwt>
<rscale>  0 0.14979066E+02</rscale>
<asrwt>0</asrwt>
<pdfrwt beam="1">  1        2 0.99394192E+00 0.14979066E+02</pdfrwt>
<pdfrwt beam="2">  1       -2 0.99497649E+00 0.14979066E+02</pdfrwt>
<totfact>-0.13126846E-13</totfact>
</mgrwt>
</event>
<event>
 4    1 -0.5160210E-019  0.1501336E+02  0.7818608E-02  0.1867661E+00
          2   -1    0    0  501    0  0.00000000000E+00  0.00000000000E+00  0.12009300864E+03  0.12009300866E+03  0.25500000000E-02 0.  1.
         -2   -1    0    0    0  501 -0.00000000000E+00 -0.00000000000E+00 -0.46921819806E+00  0.46922512709E+00  0.25500000000E-02 0. -1.
         31    1    1    2    0    0 -0.52298472242E-01 -0.93047520163E+00  0.61024425777E+02  0.61484209247E+02  0.74470750000E+01 0.  1.
        -31    1    1    2    0    0  0.52298472242E-01  0.93047520163E+00  0.58599364662E+02  0.59078024545E+02  0.74470750000E+01 0.  1.
<mgrwt>
<rscale>  0 0.15013360E+02</rscale>
<asrwt>0</asrwt>
<pdfrwt beam="1">  1        2 0.99689290E+00 0.15013360E+02</pdfrwt>
<pdfrwt beam="2">  1       -2 0.99657887E+00 0.15013360E+02</pdfrwt>
<totfact>-0.78234518E-14</totfact>
</mgrwt>
</event>
<event>
 4    1 -0.5160210E-019  0.1490723E+02  0.7818608E-02  0.1870913E+00
          2   -1    0    0  501    0  0.00000000000E+00  0.00000000000E+00  0.11878983186E+03  0.11878983188E+03  0.25500000000E-02 0.  1.
         -2   -1    0    0    0  501 -0.00000000000E+00 -0.00000000000E+00 -0.46768264267E+00  0.46768959445E+00  0.25500000000E-02 0. -1.
         31    1    1    2    0    0  0.89247892653E-01 -0.29682744715E+00  0.59456193374E+02  0.59921564802E+02  0.74470750000E+01 0.  1.
        -31    1    1    2    0    0 -0.89247892653E-01  0.29682744715E+00  0.58865955838E+02  0.59335956675E+02  0.74470750000E+01 0.  1.
<mgrwt>
<rscale>  0 0.14907228E+02</rscale>
<asrwt>0</asrwt>
<pdfrwt beam="1">  1        2 0.98610463E+00 0.14907228E+02</pdfrwt>
<pdfrwt beam="2">  1       -2 0.99328791E+00 0.14907228E+02</pdfrwt>
<totfact>-0.26525806E-13</totfact>
</mgrwt>
</event>
<event>
 4    1 -0.5160210E-019  0.1495205E+02  0.7818608E-02  0.1869535E+00
          2   -1    0    0  501    0  0.00000000000E+00  0.00000000000E+00  0.11958961497E+03  0.11958961500E+03  0.25500000000E-02 0.  1.
         -2   -1    0    0    0  501 -0.00000000000E+00 -0.00000000000E+00 -0.46735246104E+00  0.46735941773E+00  0.25500000000E-02 0. -1.
         31    1    1    2    0    0 -0.51914044618E+00 -0.21418576809E+00  0.62303070554E+02  0.62749078948E+02  0.74470750000E+01 0.  1.
        -31    1    1    2    0    0  0.51914044618E+00  0.21418576809E+00  0.56819191957E+02  0.57307895469E+02  0.74470750000E+01 0.  1.
<mgrwt>
<rscale>  0 0.14952046E+02</rscale>
<asrwt>0</asrwt>
<pdfrwt beam="1">  1        2 0.99271506E+00 0.14952046E+02</pdfrwt>
<pdfrwt beam="2">  1       -2 0.99261543E+00 0.14952046E+02</pdfrwt>
<totfact>-0.11497210E-13</totfact>
</mgrwt>
</event>
<event>
 4    1 -0.5160210E-019  0.1491683E+02  0.7818608E-02  0.1870617E+00
          2   -1    0    0  501    0  0.00000000000E+00  0.00000000000E+00  0.11860169560E+03  0.11860169563E+03  0.25500000000E-02 0.  1.
         -2   -1    0    0    0  501 -0.00000000000E+00 -0.00000000000E+00 -0.46902792352E+00  0.46903485536E+00  0.25500000000E-02 0. -1.
         31    1    1    2    0    0 -0.28610051743E+00 -0.54183804146E-01  0.61382660676E+02  0.61833443597E+02  0.74470750000E+01 0.  1.
        -31    1    1    2    0    0  0.28610051743E+00  0.54183804146E-01  0.56750007001E+02  0.57237286885E+02  0.74470750000E+01 0. -1.
<mgrwt>
<rscale>  0 0.14916826E+02</rscale>
<asrwt>0</asrwt>
<pdfrwt beam="1">  1        2 0.98456011E+00 0.14916826E+02</pdfrwt>
<pdfrwt beam="2">  1       -2 0.99612759E+00 0.14916826E+02</pdfrwt>
<totfact>-0.34500688E-13</totfact>
</mgrwt>
</event>
<event>
 4    1 -0.5160210E-019  0.1491728E+02  0.7818608E-02  0.1870603E+00
         -2   -1    0    0    0  501 -0.00000000000E+00  0.00000000000E+00  0.12036256344E+03  0.12036256347E+03  0.25500000000E-02 0. -1.
          2   -1    0    0  501    0  0.00000000000E+00 -0.00000000000E+00 -0.46219444903E+00  0.46220148335E+00  0.25500000000E-02 0.  1.
         31    1    1    2    0    0 -0.26950161121E+00  0.38466609587E-01  0.57410735367E+02  0.57892361951E+02  0.74470750000E+01 0.  1.
        -31    1    1    2    0    0  0.26950161121E+00 -0.38466609587E-01  0.62489633627E+02  0.62932403002E+02  0.74470750000E+01 0. -1.
<mgrwt>
<rscale>  0 0.14917283E+02</rscale>
<asrwt>0</asrwt>
<pdfrwt beam="2">  1        2 0.98172688E+00 0.14917283E+02</pdfrwt>
<pdfrwt beam="1">  1       -2 0.99906369E+00 0.14917283E+02</pdfrwt>
<totfact>-0.18370885E-13</totfact>
</mgrwt>
</event>
<event>
 4    1 -0.5160210E-019  0.1495630E+02  0.7818608E-02  0.1869405E+00
         -2   -1    0    0    0  501 -0.00000000000E+00  0.00000000000E+00  0.12041178495E+03  0.12041178498E+03  0.25500000000E-02 0. -1.
          2   -1    0    0  501    0  0.00000000000E+00 -0.00000000000E+00 -0.46442532444E+00  0.46443232497E+00  0.25500000000E-02 0.  1.
         31    1    1    2    0    0  0.21434645088E-01 -0.15197656908E+00  0.65336014895E+02  0.65759237562E+02  0.74470750000E+01 0. -1.
        -31    1    1    2    0    0 -0.21434645088E-01  0.15197656908E+00  0.54611344732E+02  0.55116979741E+02  0.74470750000E+01 0.  1.
<mgrwt>
<rscale>  0 0.14956297E+02</rscale>
<asrwt>0</asrwt>
<pdfrwt beam="2">  1        2 0.98644865E+00 0.14956297E+02</pdfrwt>
<pdfrwt beam="1">  1       -2 0.99948914E+00 0.14956297E+02</pdfrwt>
<totfact>-0.47803018E-14</totfact>
</mgrwt>
</event>
<event>
 4    1 -0.5160210E-019  0.1501185E+02  0.7818608E-02  0.1867707E+00
          2   -1    0    0  501    0  0.00000000000E+00  0.00000000000E+00  0.11988878960E+03  0.11988878962E+03  0.25500000000E-02 0. -1.
         -2   -1    0    0    0  501 -0.00000000000E+00 -0.00000000000E+00 -0.46992283622E+00  0.46992975486E+00  0.25500000000E-02 0.  1.
         31    1    1    2    0    0  0.84298494285E-01 -0.18097994117E+00  0.67058158150E+02  0.67470700015E+02  0.74470750000E+01 0. -1.
        -31    1    1    2    0    0 -0.84298494285E-01  0.18097994117E+00  0.52360708610E+02  0.52888019363E+02  0.74470750000E+01 0.  1.
<mgrwt>
<rscale>  0 0.15011848E+02</rscale>
<asrwt>0</asrwt>
<pdfrwt beam="1">  1        2 0.99521010E+00 0.15011848E+02</pdfrwt>
<pdfrwt beam="2">  1       -2 0.99806298E+00 0.15011848E+02</pdfrwt>
<totfact>-0.67583430E-14</totfact>
</mgrwt>
</event>
<event>
 4    1 -0.5160210E-019  0.1495097E+02  0.7818608E-02  0.1869568E+00
         -2   -1    0    0    0  501 -0.00000000000E+00  0.00000000000E+00  0.11959652493E+03  0.11959652495E+03  0.25500000000E-02 0.  1.
          2   -1    0    0  501    0  0.00000000000E+00 -0.00000000000E+00 -0.46725845657E+00  0.46726541466E+00  0.25500000000E-02 0. -1.
         31    1    1    2    0    0 -0.23829909787E+00  0.58564856141E+00  0.58315116560E+02  0.58792104199E+02  0.74470750000E+01 0. -1.
        -31    1    1    2    0    0  0.23829909787E+00 -0.58564856141E+00  0.60814149909E+02  0.61271686169E+02  0.74470750000E+01 0.  1.
<mgrwt>
<rscale>  0 0.14950974E+02</rscale>
<asrwt>0</asrwt>
<pdfrwt beam="2">  1        2 0.99241678E+00 0.14950974E+02</pdfrwt>
<pdfrwt beam="1">  1       -2 0.99277142E+00 0.14950974E+02</pdfrwt>
<totfact>-0.12175413E-13</totfact>
</mgrwt>
</event>
<event>
 4    1 -0.5160210E-019  0.1490278E+02  0.7818608E-02  0.1871050E+00
         -2   -1    0    0    0  501 -0.00000000000E+00  0.00000000000E+00  0.12001307126E+03  0.12001307129E+03  0.25500000000E-02 0.  1.
          2   -1    0    0  501    0  0.00000000000E+00 -0.00000000000E+00 -0.46263955314E+00  0.46264658069E+00  0.25500000000E-02 0. -1.
         31    1    1    2    0    0  0.71890856425E-01  0.21877841113E+00  0.58917375110E+02  0.59386606640E+02  0.74470750000E+01 0. -1.
        -31    1    1    2    0    0 -0.71890856425E-01 -0.21877841113E+00  0.60633056601E+02  0.61089111232E+02  0.74470750000E+01 0.  1.
<mgrwt>
<rscale>  0 0.14902781E+02</rscale>
<asrwt>0</asrwt>
<pdfrwt beam="2">  1        2 0.98265772E+00 0.14902781E+02</pdfrwt>
<pdfrwt beam="1">  1       -2 0.99617753E+00 0.14902781E+02</pdfrwt>
<totfact>-0.47172418E-13</totfact>
</mgrwt>
</event>
<event>
 4    1 -0.5160210E-019  0.1493241E+02  0.7818608E-02  0.1870138E+00
          2   -1    0    0  501    0  0.00000000000E+00  0.00000000000E+00  0.11854513365E+03  0.11854513368E+03  0.25500000000E-02 0.  1.
         -2   -1    0    0    0  501 -0.00000000000E+00 -0.00000000000E+00 -0.47023248411E+00  0.47023939819E+00  0.25500000000E-02 0. -1.
         31    1    1    2    0    0 -0.31379661340E+00 -0.19952450791E-01  0.62478480131E+02  0.62921524710E+02  0.74470750000E+01 0.  1.
        -31    1    1    2    0    0  0.31379661340E+00  0.19952450791E-01  0.55596421037E+02  0.56093848366E+02  0.74470750000E+01 0. -1.
<mgrwt>
<rscale>  0 0.14932406E+02</rscale>
<asrwt>0</asrwt>
<pdfrwt beam="1">  1        2 0.98410238E+00 0.14932406E+02</pdfrwt>
<pdfrwt beam="2">  1       -2 0.99867383E+00 0.14932406E+02</pdfrwt>
<totfact>-0.16871824E-13</totfact>
</mgrwt>
</event>
<event>
 4    1 -0.5160210E-019  0.1492638E+02  0.7818608E-02  0.1870323E+00
          2   -1    0    0  501    0  0.00000000000E+00  0.00000000000E+00  0.11899600863E+03  0.11899600866E+03  0.25500000000E-02 0.  1.
         -2   -1    0    0    0  501 -0.00000000000E+00 -0.00000000000E+00 -0.46807293950E+00  0.46807988548E+00  0.25500000000E-02 0. -1.
         31    1    1    2    0    0 -0.33657036333E+00 -0.26306285398E+00  0.61188491008E+02  0.61641486351E+02  0.74470750000E+01 0.  1.
        -31    1    1    2    0    0  0.33657036333E+00  0.26306285398E+00  0.57339444684E+02  0.57822602193E+02  0.74470750000E+01 0. -1.
<mgrwt>
<rscale>  0 0.14926383E+02</rscale>
<asrwt>0</asrwt>
<pdfrwt beam="1">  1        2 0.98781267E+00 0.14926383E+02</pdfrwt>
<pdfrwt beam="2">  1       -2 0.99412034E+00 0.14926383E+02</pdfrwt>
<totfact>-0.22543703E-13</totfact>
</mgrwt>
</event>
<event>
 4    1 -0.5160210E-019  0.1493427E+02  0.7818608E-02  0.1870081E+00
          2   -1    0    0  501    0  0.00000000000E+00  0.00000000000E+00  0.11883623642E+03  0.11883623645E+03  0.25500000000E-02 0. -1.
         -2   -1    0    0    0  501 -0.00000000000E+00 -0.00000000000E+00 -0.46919759741E+00  0.46920452674E+00  0.25500000000E-02 0.  1.
         31    1    1    2    0    0  0.48683731795E+00  0.30055545792E-01  0.57206389796E+02  0.57691142071E+02  0.74470750000E+01 0.  1.
        -31    1    1    2    0    0 -0.48683731795E+00 -0.30055545792E-01  0.61160649026E+02  0.61614298902E+02  0.74470750000E+01 0. -1.
<mgrwt>
<rscale>  0 0.14934268E+02</rscale>
<asrwt>0</asrwt>
<pdfrwt beam="1">  1        2 0.98650086E+00 0.14934268E+02</pdfrwt>
<pdfrwt beam="2">  1       -2 0.99649428E+00 0.14934268E+02</pdfrwt>
<totfact>-0.24165237E-13</totfact>
</mgrwt>
</event>
<event>
 4    1  0.5160210E-019  0.1491726E+02  0.7818608E-02  0.1870604E+00
         -2   -1    0    0    0  501 -0.00000000000E+00  0.00000000000E+00  0.11877753606E+03  0.11877753609E+03  0.25500000000E-02 0. -1.
          2   -1    0    0  501    0  0.00000000000E+00 -0.00000000000E+00 -0.46836065777E+00  0.46836759949E+00  0.25500000000E-02 0.  1.
         31    1    1    2    0    0 -0.40481891278E+00  0.56047679822E-01  0.59730735699E+02  0.60194573949E+02  0.74470750000E+01 0. -1.
        -31    1    1    2    0    0  0.40481891278E+00 -0.56047679822E-01  0.58578439701E+02  0.59051329736E+02  0.74470750000E+01 0. -1.
<mgrwt>
<rscale>  0 0.14917257E+02</rscale>
<asrwt>0</asrwt>
<pdfrwt beam="2">  1        2 0.99472183E+00 0.14917257E+02</pdfrwt>
<pdfrwt beam="1">  1       -2 0.98600856E+00 0.14917257E+02</pdfrwt>
<totfact> 0.36556152E-13</totfact>
</mgrwt>
</event>
<event>
 4    1  0.5160210E-019  0.1492396E+02  0.7818608E-02  0.1870398E+00
         -2   -1    0    0    0  501 -0.00000000000E+00  0.00000000000E+00  0.11850157253E+03  0.11850157256E+03  0.25500000000E-02 0. -1.
          2   -1    0    0  501    0  0.00000000000E+00 -0.00000000000E+00 -0.46987350901E+00  0.46988042838E+00  0.25500000000E-02 0.  1.
         31    1    1    2    0    0 -0.20255408276E-02 -0.38424853642E+00  0.61192991895E+02  0.61645671658E+02  0.74470750000E+01 0. -1.
        -31    1    1    2    0    0  0.20255408276E-02  0.38424853642E+00  0.56838707123E+02  0.57325781325E+02  0.74470750000E+01 0.  1.
<mgrwt>
<rscale>  0 0.14923962E+02</rscale>
<asrwt>0</asrwt>
<pdfrwt beam="2">  1        2 0.99791302E+00 0.14923962E+02</pdfrwt>
<pdfrwt beam="1">  1       -2 0.98373921E+00 0.14923962E+02</pdfrwt>
<totfact> 0.38164653E-13</totfact>
</mgrwt>
</event>
<event>
 4    1 -0.5160210E-019  0.1492107E+02  0.7818608E-02  0.1870487E+00
          2   -1    0    0  501    0  0.00000000000E+00  0.00000000000E+00  0.11885080579E+03  0.11885080582E+03  0.25500000000E-02 0. -1.
         -2   -1    0    0    0  501 -0.00000000000E+00 -0.00000000000E+00 -0.46831115907E+00  0.46831810152E+00  0.25500000000E-02 0.  1.
         31    1    1    2    0    0 -0.10271866045E+00  0.37847445488E+00  0.60922199354E+02  0.61376926400E+02  0.74470750000E+01 0.  1.
        -31    1    1    2    0    0  0.10271866045E+00 -0.37847445488E+00  0.57460295279E+02  0.57942197522E+02  0.74470750000E+01 0. -1.
<mgrwt>
<rscale>  0 0.14921069E+02</rscale>
<asrwt>0</asrwt>
<pdfrwt beam="1">  1        2 0.98661400E+00 0.14921069E+02</pdfrwt>
<pdfrwt beam="2">  1       -2 0.99461953E+00 0.14921069E+02</pdfrwt>
<totfact>-0.27073014E-13</totfact>
</mgrwt>
</event>
<event>
 4    1 -0.5160210E-019  0.1492931E+02  0.7818608E-02  0.1870233E+00
          2   -1    0    0  501    0  0.00000000000E+00  0.00000000000E+00  0.11946705737E+03  0.11946705739E+03  0.25500000000E-02 0. -1.
         -2   -1    0    0    0  501 -0.00000000000E+00 -0.00000000000E+00 -0.46640996172E+00  0.46641693247E+00  0.25500000000E-02 0.  1.
         31    1    1    2    0    0  0.47109928004E+00  0.11021016676E+00  0.60845495149E+02  0.61301446041E+02  0.74470750000E+01 0.  1.
        -31    1    1    2    0    0 -0.47109928004E+00 -0.11021016676E+00  0.58155152257E+02  0.58632028286E+02  0.74470750000E+01 0.  1.
<mgrwt>
<rscale>  0 0.14929306E+02</rscale>
<asrwt>0</asrwt>
<pdfrwt beam="1">  1        2 0.99169388E+00 0.14929306E+02</pdfrwt>
<pdfrwt beam="2">  1       -2 0.99061750E+00 0.14929306E+02</pdfrwt>
<totfact>-0.31413197E-14</totfact>
</mgrwt>
</event>
<event>
 4    1 -0.5160210E-019  0.1494088E+02  0.7818608E-02  0.1869878E+00
          2   -1    0    0  501    0  0.00000000000E+00  0.00000000000E+00  0.11933517696E+03  0.11933517699E+03  0.25500000000E-02 0.  1.
         -2   -1    0    0    0  501 -0.00000000000E+00 -0.00000000000E+00 -0.46764993340E+00  0.46765688566E+00  0.25500000000E-02 0. -1.
         31    1    1    2    0    0 -0.35921409451E+00  0.37416100216E+00  0.61695314654E+02  0.62145312032E+02  0.74470750000E+01 0. -1.
        -31    1    1    2    0    0  0.35921409451E+00 -0.37416100216E+00  0.57172212373E+02  0.57657521841E+02  0.74470750000E+01 0. -1.
<mgrwt>
<rscale>  0 0.14940884E+02</rscale>
<asrwt>0</asrwt>
<pdfrwt beam="1">  1        2 0.99061365E+00 0.14940884E+02</pdfrwt>
<pdfrwt beam="2">  1       -2 0.99323652E+00 0.14940884E+02</pdfrwt>
<totfact>-0.15239886E-13</totfact>
</mgrwt>
</event>
<event>
 4    1  0.5160210E-019  0.1494560E+02  0.7818608E-02  0.1869733E+00
          2   -1    0    0  501    0  0.00000000000E+00  0.00000000000E+00  0.12033601745E+03  0.12033601747E+03  0.25500000000E-02 0.  1.
         -2   -1    0    0    0  501 -0.00000000000E+00 -0.00000000000E+00 -0.46405349722E+00  0.46406050337E+00  0.25500000000E-02 0. -1.
         31    1    1    2    0    0  0.51639571583E+00  0.19887570371E+00  0.62188017530E+02  0.62634772024E+02  0.74470750000E+01 0.  1.
        -31    1    1    2    0    0 -0.51639571583E+00 -0.19887570371E+00  0.57683946418E+02  0.58165305952E+02  0.74470750000E+01 0.  1.
<mgrwt>
<rscale>  0 0.14945605E+02</rscale>
<asrwt>0</asrwt>
<pdfrwt beam="1">  1        2 0.99885956E+00 0.14945605E+02</pdfrwt>
<pdfrwt beam="2">  1       -2 0.98565954E+00 0.14945605E+02</pdfrwt>
<totfact> 0.13721040E-13</totfact>
</mgrwt>
</event>
<event>
 4    1 -0.5160210E-019  0.1490259E+02  0.7818608E-02  0.1871055E+00
         -2   -1    0    0    0  501 -0.00000000000E+00  0.00000000000E+00  0.12014071334E+03  0.12014071336E+03  0.25500000000E-02 0.  1.
          2   -1    0    0  501    0  0.00000000000E+00 -0.00000000000E+00 -0.46213645522E+00  0.46214349042E+00  0.25500000000E-02 0. -1.
         31    1    1    2    0    0 -0.58928288986E-01 -0.24333077561E+00  0.59719038916E+02  0.60182100474E+02  0.74470750000E+01 0. -1.
        -31    1    1    2    0    0  0.58928288986E-01  0.24333077561E+00  0.59959537965E+02  0.60420756379E+02  0.74470750000E+01 0.  1.
<mgrwt>
<rscale>  0 0.14902594E+02</rscale>
<asrwt>0</asrwt>
<pdfrwt beam="2">  1        2 0.98159724E+00 0.14902594E+02</pdfrwt>
<pdfrwt beam="1">  1       -2 0.99722880E+00 0.14902594E+02</pdfrwt>
<totfact>-0.46611963E-13</totfact>
</mgrwt>
</event>
<event>
 4    1  0.5160210E-019  0.1495705E+02  0.7818608E-02  0.1869382E+00
         -2   -1    0    0    0  501 -0.00000000000E+00  0.00000000000E+00  0.11913866208E+03  0.11913866210E+03  0.25500000000E-02 0.  1.
          2   -1    0    0  501    0  0.00000000000E+00 -0.00000000000E+00 -0.46943564011E+00  0.46944256593E+00  0.25500000000E-02 0. -1.
         31    1    1    2    0    0  0.50381839158E-01 -0.55735605551E+00  0.56173715878E+02  0.56667966840E+02  0.74470750000E+01 0. -1.
        -31    1    1    2    0    0 -0.50381839158E-01  0.55735605551E+00  0.62495510559E+02  0.62940137831E+02  0.74470750000E+01 0.  1.
<mgrwt>
<rscale>  0 0.14957052E+02</rscale>
<asrwt>0</asrwt>
<pdfrwt beam="2">  1        2 0.99700780E+00 0.14957052E+02</pdfrwt>
<pdfrwt beam="1">  1       -2 0.98900349E+00 0.14957052E+02</pdfrwt>
<totfact> 0.53222758E-14</totfact>
</mgrwt>
</event>
<event>
 4    1 -0.5160210E-019  0.1492808E+02  0.7818608E-02  0.1870271E+00
          2   -1    0    0  501    0  0.00000000000E+00  0.00000000000E+00  0.11883859392E+03  0.11883859395E+03  0.25500000000E-02 0.  1.
         -2   -1    0    0    0  501 -0.00000000000E+00 -0.00000000000E+00 -0.46879931354E+00  0.46880624876E+00  0.25500000000E-02 0. -1.
         31    1    1    2    0    0  0.37972127424E+00 -0.59560355561E-01  0.61777174453E+02  0.62225605221E+02  0.74470750000E+01 0.  1.
        -31    1    1    2    0    0 -0.37972127424E+00  0.59560355561E-01  0.56592620158E+02  0.57081794979E+02  0.74470750000E+01 0. -1.
<mgrwt>
<rscale>  0 0.14928076E+02</rscale>
<asrwt>0</asrwt>
<pdfrwt beam="1">  1        2 0.98651706E+00 0.14928076E+02</pdfrwt>
<pdfrwt beam="2">  1       -2 0.99565180E+00 0.14928076E+02</pdfrwt>
<totfact>-0.26553587E-13</totfact>
</mgrwt>
</event>
<event>
 4    1 -0.5160210E-019  0.1491212E+02  0.7818608E-02  0.1870762E+00
         -2   -1    0    0    0  501 -0.00000000000E+00  0.00000000000E+00  0.12006999196E+03  0.12006999199E+03  0.25500000000E-02 0.  1.
          2   -1    0    0  501    0  0.00000000000E+00 -0.00000000000E+00 -0.46300018459E+00  0.46300720667E+00  0.25500000000E-02 0. -1.
         31    1    1    2    0    0  0.31505192120E+00  0.12334487209E+00  0.58676069588E+02  0.59147734868E+02  0.74470750000E+01 0. -1.
        -31    1    1    2    0    0 -0.31505192120E+00 -0.12334487209E+00  0.60930922187E+02  0.61385264326E+02  0.74470750000E+01 0. -1.
<mgrwt>
<rscale>  0 0.14912123E+02</rscale>
<asrwt>0</asrwt>
<pdfrwt beam="2">  1        2 0.98342254E+00 0.14912123E+02</pdfrwt>
<pdfrwt beam="1">  1       -2 0.99665117E+00 0.14912123E+02</pdfrwt>
<totfact>-0.38648021E-13</totfact>
</mgrwt>
</event>
<event>
 4    1 -0.5160210E-019  0.1493021E+02  0.7818608E-02  0.1870206E+00
          2   -1    0    0  501    0  0.00000000000E+00  0.00000000000E+00  0.11906420966E+03  0.11906420969E+03  0.25500000000E-02 0. -1.
         -2   -1    0    0    0  501 -0.00000000000E+00 -0.00000000000E+00 -0.46804474146E+00  0.46805168786E+00  0.25500000000E-02 0.  1.
         31    1    1    2    0    0 -0.40350201948E+00  0.32176164341E+00  0.58895899833E+02  0.59367097686E+02  0.74470750000E+01 0.  1.
        -31    1    1    2    0    0  0.40350201948E+00 -0.32176164341E+00  0.59700265084E+02  0.60165163688E+02  0.74470750000E+01 0. -1.
<mgrwt>
<rscale>  0 0.14930210E+02</rscale>
<asrwt>0</asrwt>
<pdfrwt beam="1">  1        2 0.98837637E+00 0.14930210E+02</pdfrwt>
<pdfrwt beam="2">  1       -2 0.99406292E+00 0.14930210E+02</pdfrwt>
<totfact>-0.20925304E-13</totfact>
</mgrwt>
</event>
<event>
 4    1 -0.5160210E-019  0.1493537E+02  0.7818608E-02  0.1870047E+00
          2   -1    0    0  501    0  0.00000000000E+00  0.00000000000E+00  0.11888049091E+03  0.11888049094E+03  0.25500000000E-02 0.  1.
         -2   -1    0    0    0  501 -0.00000000000E+00 -0.00000000000E+00 -0.46909215540E+00  0.46909908629E+00  0.25500000000E-02 0. -1.
         31    1    1    2    0    0  0.46667610862E+00 -0.14619133434E+00  0.57118264316E+02  0.57603769001E+02  0.74470750000E+01 0. -1.
        -31    1    1    2    0    0 -0.46667610862E+00  0.14619133434E+00  0.61293134436E+02  0.61745821021E+02  0.74470750000E+01 0.  1.
<mgrwt>
<rscale>  0 0.14935370E+02</rscale>
<asrwt>0</asrwt>
<pdfrwt beam="1">  1        2 0.98686591E+00 0.14935370E+02</pdfrwt>
<pdfrwt beam="2">  1       -2 0.99627268E+00 0.14935370E+02</pdfrwt>
<totfact>-0.23655108E-13</totfact>
</mgrwt>
</event>
<event>
 4    1  0.5160210E-019  0.1490376E+02  0.7818608E-02  0.1871020E+00
          2   -1    0    0  501    0  0.00000000000E+00  0.00000000000E+00  0.11952349488E+03  0.11952349491E+03  0.25500000000E-02 0. -1.
         -2   -1    0    0    0  501 -0.00000000000E+00 -0.00000000000E+00 -0.46459558283E+00  0.46460258080E+00  0.25500000000E-02 0.  1.
         31    1    1    2    0    0 -0.14624137048E+00  0.16843489603E+00  0.58340036677E+02  0.58813846689E+02  0.74470750000E+01 0. -1.
        -31    1    1    2    0    0  0.14624137048E+00 -0.16843489603E+00  0.60718862621E+02  0.61174250800E+02  0.74470750000E+01 0. -1.
<mgrwt>
<rscale>  0 0.14903759E+02</rscale>
<asrwt>0</asrwt>
<pdfrwt beam="1">  1        2 0.99214554E+00 0.14903759E+02</pdfrwt>
<pdfrwt beam="2">  1       -2 0.98678070E+00 0.14903759E+02</pdfrwt>
<totfact> 0.33728589E-13</totfact>
</mgrwt>
</event>
<event>
 4    1 -0.5160210E-019  0.1489723E+02  0.7818608E-02  0.1871221E+00
         -2   -1    0    0    0  501 -0.00000000000E+00  0.00000000000E+00  0.12015203526E+03  0.12015203529E+03  0.25500000000E-02 0. -1.
          2   -1    0    0  501    0  0.00000000000E+00 -0.00000000000E+00 -0.46176020729E+00  0.46176724822E+00  0.25500000000E-02 0.  1.
         31    1    1    2    0    0 -0.14557475130E+00 -0.37894604522E-01  0.59985579416E+02  0.60446267809E+02  0.74470750000E+01 0.  1.
        -31    1    1    2    0    0  0.14557475130E+00  0.37894604522E-01  0.59704695637E+02  0.60167534727E+02  0.74470750000E+01 0.  1.
<mgrwt>
<rscale>  0 0.14897229E+02</rscale>
<asrwt>0</asrwt>
<pdfrwt beam="2">  1        2 0.98080150E+00 0.14897229E+02</pdfrwt>
<pdfrwt beam="1">  1       -2 0.99731931E+00 0.14897229E+02</pdfrwt>
<totfact>-0.52034846E-13</totfact>
</mgrwt>
</event>
<event>
 4    1 -0.5160210E-019  0.1493004E+02  0.7818608E-02  0.1870211E+00
         -2   -1    0    0    0  501 -0.00000000000E+00  0.00000000000E+00  0.12005639101E+03  0.12005639104E+03  0.25500000000E-02 0. -1.
          2   -1    0    0  501    0  0.00000000000E+00 -0.00000000000E+00 -0.46416589393E+00  0.46417289838E+00  0.25500000000E-02 0.  1.
         31    1    1    2    0    0  0.32930205412E-01  0.41606239761E+00  0.62262972018E+02  0.62708139846E+02  0.74470750000E+01 0. -1.
        -31    1    1    2    0    0 -0.32930205412E-01 -0.41606239761E+00  0.57329253099E+02  0.57812424091E+02  0.74470750000E+01 0.  1.
<mgrwt>
<rscale>  0 0.14930038E+02</rscale>
<asrwt>0</asrwt>
<pdfrwt beam="2">  1        2 0.98588853E+00 0.14930038E+02</pdfrwt>
<pdfrwt beam="1">  1       -2 0.99654835E+00 0.14930038E+02</pdfrwt>
<totfact>-0.26290968E-13</totfact>
</mgrwt>
</event>
<event>
 4    1  0.5160210E-019  0.1494182E+02  0.7818608E-02  0.1869849E+00
         -2   -1    0    0    0  501 -0.00000000000E+00  0.00000000000E+00  0.11886158449E+03  0.11886158452E+03  0.25500000000E-02 0. -1.
          2   -1    0    0  501    0  0.00000000000E+00 -0.00000000000E+00 -0.46957238812E+00  0.46957931192E+00  0.25500000000E-02 0.  1.
         31    1    1    2    0    0  0.46863241836E+00  0.36765113518E+00  0.59425129226E+02  0.59892901861E+02  0.74470750000E+01 0.  1.
        -31    1    1    2    0    0 -0.46863241836E+00 -0.36765113518E+00  0.58966882874E+02  0.59438261967E+02  0.74470750000E+01 0. -1.
<mgrwt>
<rscale>  0 0.14941825E+02</rscale>
<asrwt>0</asrwt>
<pdfrwt beam="2">  1        2 0.99728796E+00 0.14941825E+02</pdfrwt>
<pdfrwt beam="1">  1       -2 0.98671355E+00 0.14941825E+02</pdfrwt>
<totfact> 0.18994024E-13</totfact>
</mgrwt>
</event>
<event>
 4    1  0.5160210E-019  0.1490165E+02  0.7818608E-02  0.1871084E+00
         -2   -1    0    0    0  501 -0.00000000000E+00  0.00000000000E+00  0.11822670496E+03  0.11822670499E+03  0.25500000000E-02 0.  1.
          2   -1    0    0  501    0  0.00000000000E+00 -0.00000000000E+00 -0.46955901105E+00  0.46956593505E+00  0.25500000000E-02 0. -1.
         31    1    1    2    0    0 -0.17181267954E-01  0.22598234100E+00  0.59415150359E+02  0.59880467445E+02  0.74470750000E+01 0.  1.
        -31    1    1    2    0    0  0.17181267954E-01 -0.22598234100E+00  0.58341995588E+02  0.58815803475E+02  0.74470750000E+01 0. -1.
<mgrwt>
<rscale>  0 0.14901655E+02</rscale>
<asrwt>0</asrwt>
<pdfrwt beam="2">  1        2 0.99723859E+00 0.14901655E+02</pdfrwt>
<pdfrwt beam="1">  1       -2 0.98146382E+00 0.14901655E+02</pdfrwt>
<totfact> 0.75957004E-13</totfact>
</mgrwt>
</event>
<event>
 4    1  0.5160210E-019  0.1489658E+02  0.7818608E-02  0.1871241E+00
          2   -1    0    0  501    0  0.00000000000E+00  0.00000000000E+00  0.11945082550E+03  0.11945082553E+03  0.25500000000E-02 0. -1.
         -2   -1    0    0    0  501 -0.00000000000E+00 -0.00000000000E+00 -0.46443020700E+00  0.46443720747E+00  0.25500000000E-02 0.  1.
         31    1    1    2    0    0 -0.10592510867E+00 -0.78978988101E-01  0.59294525615E+02  0.59760498256E+02  0.74470750000E+01 0.  1.
        -31    1    1    2    0    0  0.10592510867E+00  0.78978988101E-01  0.59691869679E+02  0.60154764480E+02  0.74470750000E+01 0.  1.
<mgrwt>
<rscale>  0 0.14896576E+02</rscale>
<asrwt>0</asrwt>
<pdfrwt beam="1">  1        2 0.99154329E+00 0.14896576E+02</pdfrwt>
<pdfrwt beam="2">  1       -2 0.98642849E+00 0.14896576E+02</pdfrwt>
<totfact> 0.40320160E-13</totfact>
</mgrwt>
</event>
<event>
 4    1 -0.5160210E-019  0.1497946E+02  0.7818608E-02  0.1868696E+00
          2   -1    0    0  501    0  0.00000000000E+00  0.00000000000E+00  0.11960058566E+03  0.11960058569E+03  0.25500000000E-02 0.  1.
         -2   -1    0    0    0  501 -0.00000000000E+00 -0.00000000000E+00 -0.46902450382E+00  0.46903143571E+00  0.25500000000E-02 0. -1.
         31    1    1    2    0    0  0.57084876486E+00  0.40589920002E+00  0.56498042609E+02  0.56991037604E+02  0.74470750000E+01 0. -1.
        -31    1    1    2    0    0 -0.57084876486E+00 -0.40589920002E+00  0.62633518550E+02  0.63078579521E+02  0.74470750000E+01 0.  1.
<mgrwt>
<rscale>  0 0.14979456E+02</rscale>
<asrwt>0</asrwt>
<pdfrwt beam="1">  1        2 0.99281960E+00 0.14979456E+02</pdfrwt>
<pdfrwt beam="2">  1       -2 0.99615313E+00 0.14979456E+02</pdfrwt>
<totfact>-0.13159607E-13</totfact>
</mgrwt>
</event>
<event>
 4    1 -0.5160210E-019  0.1493606E+02  0.7818608E-02  0.1870026E+00
          2   -1    0    0  501    0  0.00000000000E+00  0.00000000000E+00  0.11900000971E+03  0.11900000974E+03  0.25500000000E-02 0. -1.
         -2   -1    0    0    0  501 -0.00000000000E+00 -0.00000000000E+00 -0.46866455532E+00  0.46867149253E+00  0.25500000000E-02 0.  1.
         31    1    1    2    0    0 -0.33209030816E+00  0.34113955857E+00  0.56921141425E+02  0.57408204356E+02  0.74470750000E+01 0.  1.
        -31    1    1    2    0    0  0.33209030816E+00 -0.34113955857E+00  0.61610203728E+02  0.62060476872E+02  0.74470750000E+01 0. -1.
<mgrwt>
<rscale>  0 0.14936064E+02</rscale>
<asrwt>0</asrwt>
<pdfrwt beam="1">  1        2 0.98785064E+00 0.14936064E+02</pdfrwt>
<pdfrwt beam="2">  1       -2 0.99537203E+00 0.14936064E+02</pdfrwt>
<totfact>-0.22443478E-13</totfact>
</mgrwt>
</event>
<event>
 4    1 -0.5160210E-019  0.1494987E+02  0.7818608E-02  0.1869602E+00
          2   -1    0    0  501    0  0.00000000000E+00  0.00000000000E+00  0.11938012086E+03  0.11938012089E+03  0.25500000000E-02 0. -1.
         -2   -1    0    0    0  501 -0.00000000000E+00 -0.00000000000E+00 -0.46803639888E+00  0.46804334540E+00  0.25500000000E-02 0.  1.
         31    1    1    2    0    0 -0.62583369036E-01 -0.63332216436E+00  0.60286070082E+02  0.60747626996E+02  0.74470750000E+01 0.  1.
        -31    1    1    2    0    0  0.62583369036E-01  0.63332216436E+00  0.58626014383E+02  0.59100537241E+02  0.74470750000E+01 0. -1.
<mgrwt>
<rscale>  0 0.14949871E+02</rscale>
<asrwt>0</asrwt>
<pdfrwt beam="1">  1        2 0.99098848E+00 0.14949871E+02</pdfrwt>
<pdfrwt beam="2">  1       -2 0.99405557E+00 0.14949871E+02</pdfrwt>
<totfact>-0.16068839E-13</totfact>
</mgrwt>
</event>
<event>
 4    1 -0.5160210E-019  0.1492589E+02  0.7818608E-02  0.1870338E+00
          2   -1    0    0  501    0  0.00000000000E+00  0.00000000000E+00  0.11925029013E+03  0.11925029016E+03  0.25500000000E-02 0. -1.
         -2   -1    0    0    0  501 -0.00000000000E+00 -0.00000000000E+00 -0.46704408615E+00  0.46705104744E+00  0.25500000000E-02 0.  1.
         31    1    1    2    0    0 -0.28393411381E+00  0.14410529661E+00  0.62341375819E+02  0.62785407939E+02  0.74470750000E+01 0. -1.
        -31    1    1    2    0    0  0.28393411381E+00 -0.14410529661E+00  0.56441870227E+02  0.56931933268E+02  0.74470750000E+01 0.  1.
<mgrwt>
<rscale>  0 0.14925892E+02</rscale>
<asrwt>0</asrwt>
<pdfrwt beam="1">  1        2 0.98990674E+00 0.14925892E+02</pdfrwt>
<pdfrwt beam="2">  1       -2 0.99195205E+00 0.14925892E+02</pdfrwt>
<totfact>-0.11680021E-13</totfact>
</mgrwt>
</event>
<event>
 4    1 -0.5160210E-019  0.1498268E+02  0.7818608E-02  0.1868597E+00
          2   -1    0    0  501    0  0.00000000000E+00  0.00000000000E+00  0.12011753262E+03  0.12011753265E+03  0.25500000000E-02 0.  1.
         -2   -1    0    0    0  501 -0.00000000000E+00 -0.00000000000E+00 -0.46720729393E+00  0.46721425278E+00  0.25500000000E-02 0. -1.
         31    1    1    2    0    0 -0.69315791719E+00 -0.82122136846E-02  0.56403489703E+02  0.56897215328E+02  0.74470750000E+01 0.  1.
        -31    1    1    2    0    0  0.69315791719E+00  0.82122136846E-02  0.63246835621E+02  0.63687531570E+02  0.74470750000E+01 0.  1.
<mgrwt>
<rscale>  0 0.14982684E+02</rscale>
<asrwt>0</asrwt>
<pdfrwt beam="1">  1        2 0.99707906E+00 0.14982684E+02</pdfrwt>
<pdfrwt beam="2">  1       -2 0.99232528E+00 0.14982684E+02</pdfrwt>
<totfact>-0.63877095E-14</totfact>
</mgrwt>
</event>
<event>
 4    1 -0.5160210E-019  0.1496595E+02  0.7818608E-02  0.1869109E+00
         -2   -1    0    0    0  501 -0.00000000000E+00  0.00000000000E+00  0.11989835670E+03  0.11989835672E+03  0.25500000000E-02 0.  1.
          2   -1    0    0  501    0  0.00000000000E+00 -0.00000000000E+00 -0.46701640483E+00  0.46702336652E+00  0.25500000000E-02 0. -1.
         31    1    1    2    0    0 -0.52983443674E+00 -0.42036786505E+00  0.61969904324E+02  0.62419431283E+02  0.74470750000E+01 0.  1.
        -31    1    1    2    0    0  0.52983443674E+00  0.42036786505E+00  0.57461435966E+02  0.57945948806E+02  0.74470750000E+01 0. -1.
<mgrwt>
<rscale>  0 0.14965951E+02</rscale>
<asrwt>0</asrwt>
<pdfrwt beam="2">  1        2 0.99191440E+00 0.14965951E+02</pdfrwt>
<pdfrwt beam="1">  1       -2 0.99526518E+00 0.14965951E+02</pdfrwt>
<totfact>-0.15099955E-13</totfact>
</mgrwt>
</event>
<event>
 4    1 -0.5160210E-019  0.1497808E+02  0.7818608E-02  0.1868738E+00
         -2   -1    0    0    0  501 -0.00000000000E+00  0.00000000000E+00  0.11995566418E+03  0.11995566421E+03  0.25500000000E-02 0.  1.
          2   -1    0    0  501    0  0.00000000000E+00 -0.00000000000E+00 -0.46755018972E+00  0.46755714346E+00  0.25500000000E-02 0. -1.
         31    1    1    2    0    0  0.11414008293E+00  0.47697886455E-01  0.53457006599E+02  0.53973380324E+02  0.74470750000E+01 0. -1.
        -31    1    1    2    0    0 -0.11414008293E+00 -0.47697886455E-01  0.66031107393E+02  0.66449841028E+02  0.74470750000E+01 0.  1.
<mgrwt>
<rscale>  0 0.14978079E+02</rscale>
<asrwt>0</asrwt>
<pdfrwt beam="2">  1        2 0.99304555E+00 0.14978079E+02</pdfrwt>
<pdfrwt beam="1">  1       -2 0.99574345E+00 0.14978079E+02</pdfrwt>
<totfact>-0.13502613E-13</totfact>
</mgrwt>
</event>
<event>
 4    1  0.5160210E-019  0.1489867E+02  0.7818608E-02  0.1871176E+00
         -2   -1    0    0    0  501 -0.00000000000E+00  0.00000000000E+00  0.11850104155E+03  0.11850104158E+03  0.25500000000E-02 0.  1.
          2   -1    0    0  501    0  0.00000000000E+00 -0.00000000000E+00 -0.46828432990E+00  0.46829127275E+00  0.25500000000E-02 0. -1.
         31    1    1    2    0    0 -0.10043788832E+00 -0.30331333779E-01  0.60218458187E+02  0.60677282736E+02  0.74470750000E+01 0.  1.
        -31    1    1    2    0    0  0.10043788832E+00  0.30331333779E-01  0.57814299031E+02  0.58292050112E+02  0.74470750000E+01 0. -1.
<mgrwt>
<rscale>  0 0.14898670E+02</rscale>
<asrwt>0</asrwt>
<pdfrwt beam="2">  1        2 0.99455125E+00 0.14898670E+02</pdfrwt>
<pdfrwt beam="1">  1       -2 0.98372168E+00 0.14898670E+02</pdfrwt>
<totfact> 0.70514985E-13</totfact>
</mgrwt>
</event>
<event>
 4    1 -0.5160210E-019  0.1490146E+02  0.7818608E-02  0.1871091E+00
          2   -1    0    0  501    0  0.00000000000E+00  0.00000000000E+00  0.11801473832E+03  0.11801473834E+03  0.25500000000E-02 0.  1.
         -2   -1    0    0    0  501 -0.00000000000E+00 -0.00000000000E+00 -0.47038995893E+00  0.47039687070E+00  0.25500000000E-02 0. -1.
         31    1    1    2    0    0  0.61393956799E-01  0.12186606282E+00  0.60276880834E+02  0.60735326702E+02  0.74470750000E+01 0.  1.
        -31    1    1    2    0    0 -0.61393956799E-01 -0.12186606282E+00  0.57267467523E+02  0.57749808511E+02  0.74470750000E+01 0. -1.
<mgrwt>
<rscale>  0 0.14901458E+02</rscale>
<asrwt>0</asrwt>
<pdfrwt beam="1">  1        2 0.97971800E+00 0.14901458E+02</pdfrwt>
<pdfrwt beam="2">  1       -2 0.99898920E+00 0.14901458E+02</pdfrwt>
<totfact>-0.27513299E-13</totfact>
</mgrwt>
</event>
<event>
 4    1 -0.5160210E-019  0.1503472E+02  0.7818608E-02  0.1867011E+00
         -2   -1    0    0    0  501 -0.00000000000E+00  0.00000000000E+00  0.12005579005E+03  0.12005579008E+03  0.25500000000E-02 0.  1.
          2   -1    0    0  501    0  0.00000000000E+00 -0.00000000000E+00 -0.47070010136E+00  0.47070700857E+00  0.25500000000E-02 0. -1.
         31    1    1    2    0    0  0.73592416993E+00  0.19669827494E+00  0.54287975304E+02  0.54801673910E+02  0.74470750000E+01 0.  1.
        -31    1    1    2    0    0 -0.73592416993E+00 -0.19669827494E+00  0.65297114645E+02  0.65724823177E+02  0.74470750000E+01 0.  1.
<mgrwt>
<rscale>  0 0.15034719E+02</rscale>
<asrwt>0</asrwt>
<pdfrwt beam="2">  1        2 0.99971276E+00 0.15034719E+02</pdfrwt>
<pdfrwt beam="1">  1       -2 0.99659741E+00 0.15034719E+02</pdfrwt>
<totfact>-0.98359082E-15</totfact>
</mgrwt>
</event>
<event>
 4    1 -0.5160210E-019  0.1490605E+02  0.7818608E-02  0.1870949E+00
         -2   -1    0    0    0  501 -0.00000000000E+00  0.00000000000E+00  0.12008568757E+03  0.12008568760E+03  0.25500000000E-02 0.  1.
          2   -1    0    0  501    0  0.00000000000E+00 -0.00000000000E+00 -0.46256267907E+00  0.46256970780E+00  0.25500000000E-02 0. -1.
         31    1    1    2    0    0 -0.16144069538E+00 -0.23329118564E+00  0.60542491399E+02  0.60999448184E+02  0.74470750000E+01 0.  1.
        -31    1    1    2    0    0  0.16144069538E+00  0.23329118564E+00  0.59080633493E+02  0.59548809123E+02  0.74470750000E+01 0. -1.
<mgrwt>
<rscale>  0 0.14906050E+02</rscale>
<asrwt>0</asrwt>
<pdfrwt beam="2">  1        2 0.98249734E+00 0.14906050E+02</pdfrwt>
<pdfrwt beam="1">  1       -2 0.99677733E+00 0.14906050E+02</pdfrwt>
<totfact>-0.44167871E-13</totfact>
</mgrwt>
</event>
<event>
 4    1 -0.5160210E-019  0.1491350E+02  0.7818608E-02  0.1870720E+00
          2   -1    0    0  501    0  0.00000000000E+00  0.00000000000E+00  0.11830897288E+03  0.11830897291E+03  0.25500000000E-02 0. -1.
         -2   -1    0    0    0  501 -0.00000000000E+00 -0.00000000000E+00 -0.46997871806E+00  0.46998563588E+00  0.25500000000E-02 0.  1.
         31    1    1    2    0    0  0.60327560302E-01  0.28888507149E+00  0.60822532888E+02  0.61277455291E+02  0.74470750000E+01 0. -1.
        -31    1    1    2    0    0 -0.60327560302E-01 -0.28888507149E+00  0.57016461274E+02  0.57501503252E+02  0.74470750000E+01 0.  1.
<mgrwt>
<rscale>  0 0.14913499E+02</rscale>
<asrwt>0</asrwt>
<pdfrwt beam="1">  1        2 0.98214753E+00 0.14913499E+02</pdfrwt>
<pdfrwt beam="2">  1       -2 0.99812916E+00 0.14913499E+02</pdfrwt>
<totfact>-0.31481674E-13</totfact>
</mgrwt>
</event>
<event>
 4    1  0.5160210E-019  0.1491109E+02  0.7818608E-02  0.1870794E+00
          2   -1    0    0  501    0  0.00000000000E+00  0.00000000000E+00  0.12006578377E+03  0.12006578380E+03  0.25500000000E-02 0.  1.
         -2   -1    0    0    0  501 -0.00000000000E+00 -0.00000000000E+00 -0.46295231504E+00  0.46295933785E+00  0.25500000000E-02 0. -1.
         31    1    1    2    0    0 -0.95841330260E-01  0.60948207970E-02  0.62566384253E+02  0.63008099379E+02  0.74470750000E+01 0.  1.
        -31    1    1    2    0    0  0.95841330260E-01 -0.60948207970E-02  0.57036447202E+02  0.57520643757E+02  0.74470750000E+01 0. -1.
<mgrwt>
<rscale>  0 0.14911091E+02</rscale>
<asrwt>0</asrwt>
<pdfrwt beam="1">  1        2 0.99661598E+00 0.14911091E+02</pdfrwt>
<pdfrwt beam="2">  1       -2 0.98332113E+00 0.14911091E+02</pdfrwt>
<totfact> 0.59214518E-13</totfact>
</mgrwt>
</event>
<event>
 4    1 -0.5160210E-019  0.1495875E+02  0.7818608E-02  0.1869330E+00
          2   -1    0    0  501    0  0.00000000000E+00  0.00000000000E+00  0.11987495367E+03  0.11987495370E+03  0.25500000000E-02 0. -1.
         -2   -1    0    0    0  501 -0.00000000000E+00 -0.00000000000E+00 -0.46665805458E+00  0.46666502162E+00  0.25500000000E-02 0.  1.
         31    1    1    2    0    0 -0.66630145664E-01 -0.66369247332E+00  0.58152917104E+02  0.58631609402E+02  0.74470750000E+01 0.  1.
        -31    1    1    2    0    0  0.66630145664E-01  0.66369247332E+00  0.61255378513E+02  0.61710009318E+02  0.74470750000E+01 0. -1.
<mgrwt>
<rscale>  0 0.14958748E+02</rscale>
<asrwt>0</asrwt>
<pdfrwt beam="1">  1        2 0.99506870E+00 0.14958748E+02</pdfrwt>
<pdfrwt beam="2">  1       -2 0.99115550E+00 0.14958748E+02</pdfrwt>
<totfact>-0.48009159E-14</totfact>
</mgrwt>
</event>
<event>
 4    1 -0.5160210E-019  0.1500052E+02  0.7818608E-02  0.1868053E+00
          2   -1    0    0  501    0  0.00000000000E+00  0.00000000000E+00  0.11975465572E+03  0.11975465574E+03  0.25500000000E-02 0.  1.
         -2   -1    0    0    0  501 -0.00000000000E+00 -0.00000000000E+00 -0.46973941468E+00  0.46974633602E+00  0.25500000000E-02 0. -1.
         31    1    1    2    0    0 -0.74397902344E+00 -0.24521327892E+00  0.63055425486E+02  0.63498497964E+02  0.74470750000E+01 0.  1.
        -31    1    1    2    0    0  0.74397902344E+00  0.24521327892E+00  0.56229490816E+02  0.56725904117E+02  0.74470750000E+01 0. -1.
<mgrwt>
<rscale>  0 0.15000520E+02</rscale>
<asrwt>0</asrwt>
<pdfrwt beam="1">  1        2 0.99409947E+00 0.15000520E+02</pdfrwt>
<pdfrwt beam="2">  1       -2 0.99767058E+00 0.15000520E+02</pdfrwt>
<totfact>-0.86787495E-14</totfact>
</mgrwt>
</event>
<event>
 4    1  0.5160210E-019  0.1491819E+02  0.7818608E-02  0.1870575E+00
          2   -1    0    0  501    0  0.00000000000E+00  0.00000000000E+00  0.12016424276E+03  0.12016424279E+03  0.25500000000E-02 0. -1.
         -2   -1    0    0    0  501 -0.00000000000E+00 -0.00000000000E+00 -0.46301361775E+00  0.46302063963E+00  0.25500000000E-02 0.  1.
         31    1    1    2    0    0 -0.48938167206E-01  0.16193044562E+00  0.62988153215E+02  0.63427084024E+02  0.74470750000E+01 0. -1.
        -31    1    1    2    0    0  0.48938167206E-01 -0.16193044562E+00  0.56713075933E+02  0.57200179407E+02  0.74470750000E+01 0.  1.
<mgrwt>
<rscale>  0 0.14918191E+02</rscale>
<asrwt>0</asrwt>
<pdfrwt beam="1">  1        2 0.99743061E+00 0.14918191E+02</pdfrwt>
<pdfrwt beam="2">  1       -2 0.98345393E+00 0.14918191E+02</pdfrwt>
<totfact> 0.47643961E-13</totfact>
</mgrwt>
</event>
<event>
 4    1 -0.5160210E-019  0.1493417E+02  0.7818608E-02  0.1870084E+00
          2   -1    0    0  501    0  0.00000000000E+00  0.00000000000E+00  0.11860239354E+03  0.11860239357E+03  0.25500000000E-02 0.  1.
         -2   -1    0    0    0  501 -0.00000000000E+00 -0.00000000000E+00 -0.47011678305E+00  0.47012369883E+00  0.25500000000E-02 0. -1.
         31    1    1    2    0    0 -0.31330770551E+00 -0.44288476597E+00  0.59580045126E+02  0.60046107384E+02  0.74470750000E+01 0.  1.
        -31    1    1    2    0    0  0.31330770551E+00  0.44288476597E+00  0.58552231636E+02  0.59026409887E+02  0.74470750000E+01 0. -1.
<mgrwt>
<rscale>  0 0.14934174E+02</rscale>
<asrwt>0</asrwt>
<pdfrwt beam="1">  1        2 0.98457488E+00 0.14934174E+02</pdfrwt>
<pdfrwt beam="2">  1       -2 0.99843099E+00 0.14934174E+02</pdfrwt>
<totfact>-0.18065245E-13</totfact>
</mgrwt>
</event>
<event>
 4    1  0.5160210E-019  0.1491515E+02  0.7818608E-02  0.1870669E+00
         -2   -1    0    0    0  501 -0.00000000000E+00  0.00000000000E+00  0.11845017554E+03  0.11845017557E+03  0.25500000000E-02 0. -1.
          2   -1    0    0  501    0  0.00000000000E+00 -0.00000000000E+00 -0.46952234324E+00  0.46952926778E+00  0.25500000000E-02 0.  1.
         31    1    1    2    0    0  0.23100083795E+00 -0.20149006989E+00  0.56996551494E+02  0.57481821195E+02  0.74470750000E+01 0.  1.
        -31    1    1    2    0    0 -0.23100083795E+00  0.20149006989E+00  0.60984101703E+02  0.61437883641E+02  0.74470750000E+01 0. -1.
<mgrwt>
<rscale>  0 0.14915149E+02</rscale>
<asrwt>0</asrwt>
<pdfrwt beam="2">  1        2 0.99716846E+00 0.14915149E+02</pdfrwt>
<pdfrwt beam="1">  1       -2 0.98331132E+00 0.14915149E+02</pdfrwt>
<totfact> 0.52716015E-13</totfact>
</mgrwt>
</event>
<event>
 4    1 -0.5160210E-019  0.1498511E+02  0.7818608E-02  0.1868523E+00
          2   -1    0    0  501    0  0.00000000000E+00  0.00000000000E+00  0.11992371909E+03  0.11992371912E+03  0.25500000000E-02 0. -1.
         -2   -1    0    0    0  501 -0.00000000000E+00 -0.00000000000E+00 -0.46811383859E+00  0.46812078396E+00  0.25500000000E-02 0.  1.
         31    1    1    2    0    0 -0.55655188963E+00  0.26965425249E+00  0.55349530627E+02  0.55851695857E+02  0.74470750000E+01 0.  1.
        -31    1    1    2    0    0  0.55655188963E+00 -0.26965425249E+00  0.64106074628E+02  0.64540144048E+02  0.74470750000E+01 0. -1.
<mgrwt>
<rscale>  0 0.14985109E+02</rscale>
<asrwt>0</asrwt>
<pdfrwt beam="1">  1        2 0.99548397E+00 0.14985109E+02</pdfrwt>
<pdfrwt beam="2">  1       -2 0.99423700E+00 0.14985109E+02</pdfrwt>
<totfact>-0.11204313E-13</totfact>
</mgrwt>
</event>
<event>
 4    1 -0.5160210E-019  0.1495718E+02  0.7818608E-02  0.1869378E+00
          2   -1    0    0  501    0  0.00000000000E+00  0.00000000000E+00  0.11904909721E+03  0.11904909724E+03  0.25500000000E-02 0. -1.
         -2   -1    0    0    0  501 -0.00000000000E+00 -0.00000000000E+00 -0.46979683696E+00  0.46980375745E+00  0.25500000000E-02 0.  1.
         31    1    1    2    0    0  0.64803171542E+00 -0.15602043009E+00  0.60580370212E+02  0.61040023497E+02  0.74470750000E+01 0. -1.
        -31    1    1    2    0    0 -0.64803171542E+00  0.15602043009E+00  0.57998930165E+02  0.58478877501E+02  0.74470750000E+01 0.  1.
<mgrwt>
<rscale>  0 0.14957179E+02</rscale>
<asrwt>0</asrwt>
<pdfrwt beam="1">  1        2 0.98826590E+00 0.14957179E+02</pdfrwt>
<pdfrwt beam="2">  1       -2 0.99776895E+00 0.14957179E+02</pdfrwt>
<totfact>-0.13986122E-13</totfact>
</mgrwt>
</event>
<event>
 4    1 -0.5160210E-019  0.1499110E+02  0.7818608E-02  0.1868340E+00
         -2   -1    0    0    0  501 -0.00000000000E+00  0.00000000000E+00  0.12005966256E+03  0.12005966259E+03  0.25500000000E-02 0. -1.
          2   -1    0    0  501    0  0.00000000000E+00 -0.00000000000E+00 -0.46795767168E+00  0.46796461938E+00  0.25500000000E-02 0.  1.
         31    1    1    2    0    0  0.71934532809E+00 -0.38111992795E+00  0.61791708549E+02  0.62244171467E+02  0.74470750000E+01 0.  1.
        -31    1    1    2    0    0 -0.71934532809E+00  0.38111992795E+00  0.57799996338E+02  0.58283455738E+02  0.74470750000E+01 0.  1.
<mgrwt>
<rscale>  0 0.14991099E+02</rscale>
<asrwt>0</asrwt>
<pdfrwt beam="2">  1        2 0.99391098E+00 0.14991099E+02</pdfrwt>
<pdfrwt beam="1">  1       -2 0.99660675E+00 0.14991099E+02</pdfrwt>
<totfact>-0.11363719E-13</totfact>
</mgrwt>
</event>
<event>
 4    1 -0.5160210E-019  0.1495975E+02  0.7818608E-02  0.1869299E+00
          2   -1    0    0  501    0  0.00000000000E+00  0.00000000000E+00  0.11966331719E+03  0.11966331722E+03  0.25500000000E-02 0. -1.
         -2   -1    0    0    0  501 -0.00000000000E+00 -0.00000000000E+00 -0.46754621501E+00  0.46755316881E+00  0.25500000000E-02 0.  1.
         31    1    1    2    0    0  0.50332549684E+00 -0.48040003044E+00  0.59002152847E+02  0.59474339739E+02  0.74470750000E+01 0. -1.
        -31    1    1    2    0    0 -0.50332549684E+00  0.48040003044E+00  0.60193618131E+02  0.60656530650E+02  0.74470750000E+01 0. -1.
<mgrwt>
<rscale>  0 0.14959753E+02</rscale>
<asrwt>0</asrwt>
<pdfrwt beam="1">  1        2 0.99332609E+00 0.14959753E+02</pdfrwt>
<pdfrwt beam="2">  1       -2 0.99302772E+00 0.14959753E+02</pdfrwt>
<totfact>-0.11993819E-13</totfact>
</mgrwt>
</event>
<event>
 4    1  0.5160210E-019  0.1492196E+02  0.7818608E-02  0.1870459E+00
         -2   -1    0    0    0  501 -0.00000000000E+00  0.00000000000E+00  0.11872143486E+03  0.11872143489E+03  0.25500000000E-02 0.  1.
          2   -1    0    0  501    0  0.00000000000E+00 -0.00000000000E+00 -0.46887731004E+00  0.46888424411E+00  0.25500000000E-02 0. -1.
         31    1    1    2    0    0  0.21894966136E+00  0.15139682929E+00  0.56176104592E+02  0.56668196664E+02  0.74470750000E+01 0. -1.
        -31    1    1    2    0    0 -0.21894966136E+00 -0.15139682929E+00  0.62076452960E+02  0.62522122469E+02  0.74470750000E+01 0.  1.
<mgrwt>
<rscale>  0 0.14921957E+02</rscale>
<asrwt>0</asrwt>
<pdfrwt beam="2">  1        2 0.99581294E+00 0.14921957E+02</pdfrwt>
<pdfrwt beam="1">  1       -2 0.98554895E+00 0.14921957E+02</pdfrwt>
<totfact> 0.37450285E-13</totfact>
</mgrwt>
</event>
<event>
 4    1  0.5160210E-019  0.1491807E+02  0.7818608E-02  0.1870579E+00
          2   -1    0    0  501    0  0.00000000000E+00  0.00000000000E+00  0.11977702632E+03  0.11977702634E+03  0.25500000000E-02 0. -1.
         -2   -1    0    0    0  501 -0.00000000000E+00 -0.00000000000E+00 -0.46450286444E+00  0.46450986381E+00  0.25500000000E-02 0.  1.
         31    1    1    2    0    0  0.39125426209E+00 -0.12658559549E+00  0.60427864377E+02  0.60886409181E+02  0.74470750000E+01 0. -1.
        -31    1    1    2    0    0 -0.39125426209E+00  0.12658559549E+00  0.58884659074E+02  0.59355127025E+02  0.74470750000E+01 0. -1.
<mgrwt>
<rscale>  0 0.14918069E+02</rscale>
<asrwt>0</asrwt>
<pdfrwt beam="1">  1        2 0.99424115E+00 0.14918069E+02</pdfrwt>
<pdfrwt beam="2">  1       -2 0.98659262E+00 0.14918069E+02</pdfrwt>
<totfact> 0.31006656E-13</totfact>
</mgrwt>
</event>
<event>
 4    1 -0.5160210E-019  0.1501811E+02  0.7818608E-02  0.1867516E+00
         -2   -1    0    0    0  501 -0.00000000000E+00  0.00000000000E+00  0.12015330460E+03  0.12015330463E+03  0.25500000000E-02 0.  1.
          2   -1    0    0  501    0  0.00000000000E+00 -0.00000000000E+00 -0.46927931290E+00  0.46928624103E+00  0.25500000000E-02 0. -1.
         31    1    1    2    0    0 -0.37222752330E+00  0.84177238684E+00  0.62111188549E+02  0.62562814860E+02  0.74470750000E+01 0.  1.
        -31    1    1    2    0    0  0.37222752330E+00 -0.84177238684E+00  0.57572836742E+02  0.58059776013E+02  0.74470750000E+01 0. -1.
<mgrwt>
<rscale>  0 0.15018106E+02</rscale>
<asrwt>0</asrwt>
<pdfrwt beam="2">  1        2 0.99671011E+00 0.15018106E+02</pdfrwt>
<pdfrwt beam="1">  1       -2 0.99739198E+00 0.15018106E+02</pdfrwt>
<totfact>-0.68140163E-14</totfact>
</mgrwt>
</event>
<event>
 4    1 -0.5160210E-019  0.1492726E+02  0.7818608E-02  0.1870296E+00
         -2   -1    0    0    0  501 -0.00000000000E+00  0.00000000000E+00  0.12031149951E+03  0.12031149954E+03  0.25500000000E-02 0.  1.
          2   -1    0    0  501    0  0.00000000000E+00 -0.00000000000E+00 -0.46300903878E+00  0.46301606073E+00  0.25500000000E-02 0. -1.
         31    1    1    2    0    0  0.24448430835E+00 -0.41151510736E+00  0.58848004273E+02  0.59319268794E+02  0.74470750000E+01 0. -1.
        -31    1    1    2    0    0 -0.24448430835E+00  0.41151510736E+00  0.61000486199E+02  0.61455246805E+02  0.74470750000E+01 0.  1.
<mgrwt>
<rscale>  0 0.14927255E+02</rscale>
<asrwt>0</asrwt>
<pdfrwt beam="2">  1        2 0.98344886E+00 0.14927255E+02</pdfrwt>
<pdfrwt beam="1">  1       -2 0.99864820E+00 0.14927255E+02</pdfrwt>
<totfact>-0.19145020E-13</totfact>
</mgrwt>
</event>
<event>
 4    1  0.5160210E-019  0.1490363E+02  0.7818608E-02  0.1871023E+00
          2   -1    0    0  501    0  0.00000000000E+00  0.00000000000E+00  0.11996776685E+03  0.11996776688E+03  0.25500000000E-02 0.  1.
         -2   -1    0    0    0  501 -0.00000000000E+00 -0.00000000000E+00 -0.46286728412E+00  0.46287430822E+00  0.25500000000E-02 0. -1.
         31    1    1    2    0    0 -0.26136365989E+00 -0.39645179384E-01  0.59976715180E+02  0.60437862078E+02  0.74470750000E+01 0.  1.
        -31    1    1    2    0    0  0.26136365989E+00  0.39645179384E-01  0.59528184387E+02  0.59992779109E+02  0.74470750000E+01 0.  1.
<mgrwt>
<rscale>  0 0.14903634E+02</rscale>
<asrwt>0</asrwt>
<pdfrwt beam="1">  1        2 0.99580480E+00 0.14903634E+02</pdfrwt>
<pdfrwt beam="2">  1       -2 0.98313813E+00 0.14903634E+02</pdfrwt>
<totfact> 0.70238718E-13</totfact>
</mgrwt>
</event>
<event>
 4    1  0.5160210E-019  0.1491261E+02  0.7818608E-02  0.1870747E+00
          2   -1    0    0  501    0  0.00000000000E+00  0.00000000000E+00  0.12020119322E+03  0.12020119324E+03  0.25500000000E-02 0.  1.
         -2   -1    0    0    0  501 -0.00000000000E+00 -0.00000000000E+00 -0.46252488674E+00  0.46253191604E+00  0.25500000000E-02 0. -1.
         31    1    1    2    0    0  0.16585115282E+00  0.14866669153E+00  0.62268735593E+02  0.62712869228E+02  0.74470750000E+01 0. -1.
        -31    1    1    2    0    0 -0.16585115282E+00 -0.14866669153E+00  0.57469932735E+02  0.57950855930E+02  0.74470750000E+01 0. -1.
<mgrwt>
<rscale>  0 0.14912608E+02</rscale>
<asrwt>0</asrwt>
<pdfrwt beam="1">  1        2 0.99773210E+00 0.14912608E+02</pdfrwt>
<pdfrwt beam="2">  1       -2 0.98242100E+00 0.14912608E+02</pdfrwt>
<totfact> 0.54482261E-13</totfact>
</mgrwt>
</event>
<event>
 4    1  0.5160210E-019  0.1493162E+02  0.7818608E-02  0.1870162E+00
         -2   -1    0    0    0  501 -0.00000000000E+00  0.00000000000E+00  0.11849850751E+03  0.11849850754E+03  0.25500000000E-02 0.  1.
          2   -1    0    0  501    0  0.00000000000E+00 -0.00000000000E+00 -0.47036798343E+00  0.47037489552E+00  0.25500000000E-02 0. -1.
         31    1    1    2    0    0  0.51202471497E+00  0.12765952772E+00  0.59256327615E+02  0.59724783422E+02  0.74470750000E+01 0.  1.
        -31    1    1    2    0    0 -0.51202471497E+00 -0.12765952772E+00  0.58771811910E+02  0.59244099010E+02  0.74470750000E+01 0.  1.
<mgrwt>
<rscale>  0 0.14931620E+02</rscale>
<asrwt>0</asrwt>
<pdfrwt beam="2">  1        2 0.99895891E+00 0.14931620E+02</pdfrwt>
<pdfrwt beam="1">  1       -2 0.98371796E+00 0.14931620E+02</pdfrwt>
<totfact> 0.21486165E-13</totfact>
</mgrwt>
</event>
<event>
 4    1 -0.5160210E-019  0.1494099E+02  0.7818608E-02  0.1869875E+00
          2   -1    0    0  501    0  0.00000000000E+00  0.00000000000E+00  0.11931217868E+03  0.11931217871E+03  0.25500000000E-02 0. -1.
         -2   -1    0    0    0  501 -0.00000000000E+00 -0.00000000000E+00 -0.46774679081E+00  0.46775374163E+00  0.25500000000E-02 0.  1.
         31    1    1    2    0    0  0.17730194859E+00 -0.21911562772E+00  0.63587384282E+02  0.64022603927E+02  0.74470750000E+01 0. -1.
        -31    1    1    2    0    0 -0.17730194859E+00  0.21911562772E+00  0.55257047606E+02  0.55757328521E+02  0.74470750000E+01 0.  1.
<mgrwt>
<rscale>  0 0.14940991E+02</rscale>
<asrwt>0</asrwt>
<pdfrwt beam="1">  1        2 0.99042429E+00 0.14940991E+02</pdfrwt>
<pdfrwt beam="2">  1       -2 0.99344068E+00 0.14940991E+02</pdfrwt>
<totfact>-0.15936308E-13</totfact>
</mgrwt>
</event>
<event>
 4    1 -0.5160210E-019  0.1491102E+02  0.7818608E-02  0.1870796E+00
          2   -1    0    0  501    0  0.00000000000E+00  0.00000000000E+00  0.11822761550E+03  0.11822761553E+03  0.25500000000E-02 0.  1.
         -2   -1    0    0    0  501 -0.00000000000E+00 -0.00000000000E+00 -0.47014581257E+00  0.47015272793E+00  0.25500000000E-02 0. -1.
         31    1    1    2    0    0  0.34050128088E-01  0.23722317853E+00  0.60958673280E+02  0.61412345733E+02  0.74470750000E+01 0. -1.
        -31    1    1    2    0    0 -0.34050128088E-01 -0.23722317853E+00  0.56798796406E+02  0.57285422522E+02  0.74470750000E+01 0. -1.
<mgrwt>
<rscale>  0 0.14911020E+02</rscale>
<asrwt>0</asrwt>
<pdfrwt beam="1">  1        2 0.98147620E+00 0.14911020E+02</pdfrwt>
<pdfrwt beam="2">  1       -2 0.99847990E+00 0.14911020E+02</pdfrwt>
<totfact>-0.29591049E-13</totfact>
</mgrwt>
</event>
<event>
 4    1 -0.5160210E-019  0.1489667E+02  0.7818608E-02  0.1871238E+00
          2   -1    0    0  501    0  0.00000000000E+00  0.00000000000E+00  0.11865820310E+03  0.11865820313E+03  0.25500000000E-02 0. -1.
         -2   -1    0    0    0  501 -0.00000000000E+00 -0.00000000000E+00 -0.46753857647E+00  0.46754553039E+00  0.25500000000E-02 0.  1.
         31    1    1    2    0    0 -0.10692476716E+00  0.16020702306E-02  0.59780526403E+02  0.60242690001E+02  0.74470750000E+01 0. -1.
        -31    1    1    2    0    0  0.10692476716E+00 -0.16020702306E-02  0.58410138122E+02  0.58883058658E+02  0.74470750000E+01 0.  1.
<mgrwt>
<rscale>  0 0.14896671E+02</rscale>
<asrwt>0</asrwt>
<pdfrwt beam="1">  1        2 0.98501504E+00 0.14896671E+02</pdfrwt>
<pdfrwt beam="2">  1       -2 0.99297882E+00 0.14896671E+02</pdfrwt>
<totfact>-0.29947448E-13</totfact>
</mgrwt>
</event>
<event>
 4    1  0.5160210E-019  0.1490640E+02  0.7818608E-02  0.1870938E+00
          2   -1    0    0  501    0  0.00000000000E+00  0.00000000000E+00  0.11979845731E+03  0.11979845734E+03  0.25500000000E-02 0. -1.
         -2   -1    0    0    0  501 -0.00000000000E+00 -0.00000000000E+00 -0.46369380713E+00  0.46370081871E+00  0.25500000000E-02 0.  1.
         31    1    1    2    0    0  0.79389179365E-01 -0.24265093173E+00  0.60971222796E+02  0.61424865628E+02  0.74470750000E+01 0. -1.
        -31    1    1    2    0    0 -0.79389179365E-01  0.24265093173E+00  0.58363540707E+02  0.58837292528E+02  0.74470750000E+01 0.  1.
<mgrwt>
<rscale>  0 0.14906405E+02</rscale>
<asrwt>0</asrwt>
<pdfrwt beam="1">  1        2 0.99441167E+00 0.14906405E+02</pdfrwt>
<pdfrwt beam="2">  1       -2 0.98488153E+00 0.14906405E+02</pdfrwt>
<totfact> 0.53003646E-13</totfact>
</mgrwt>
</event>
<event>
 4    1  0.5160210E-019  0.1492156E+02  0.7818608E-02  0.1870472E+00
         -2   -1    0    0    0  501 -0.00000000000E+00  0.00000000000E+00  0.11901134648E+03  0.11901134650E+03  0.25500000000E-02 0. -1.
          2   -1    0    0  501    0  0.00000000000E+00 -0.00000000000E+00 -0.46771017576E+00  0.46771712713E+00  0.25500000000E-02 0.  1.
         31    1    1    2    0    0  0.82750576429E-01 -0.43952224152E+00  0.58747905787E+02  0.59219721275E+02  0.74470750000E+01 0.  1.
        -31    1    1    2    0    0 -0.82750576429E-01  0.43952224152E+00  0.59795730513E+02  0.60259342355E+02  0.74470750000E+01 0. -1.
<mgrwt>
<rscale>  0 0.14921560E+02</rscale>
<asrwt>0</asrwt>
<pdfrwt beam="2">  1        2 0.99335341E+00 0.14921560E+02</pdfrwt>
<pdfrwt beam="1">  1       -2 0.98793649E+00 0.14921560E+02</pdfrwt>
<totfact> 0.18046670E-13</totfact>
</mgrwt>
</event>
<event>
 4    1 -0.5160210E-019  0.1496619E+02  0.7818608E-02  0.1869102E+00
         -2   -1    0    0    0  501 -0.00000000000E+00  0.00000000000E+00  0.11994462800E+03  0.11994462803E+03  0.25500000000E-02 0. -1.
          2   -1    0    0  501    0  0.00000000000E+00 -0.00000000000E+00 -0.46685092922E+00  0.46685789338E+00  0.25500000000E-02 0.  1.
         31    1    1    2    0    0  0.10147547691E+00  0.67857462738E+00  0.57656420767E+02  0.58139423307E+02  0.74470750000E+01 0.  1.
        -31    1    1    2    0    0 -0.10147547691E+00 -0.67857462738E+00  0.61821356305E+02  0.62272062615E+02  0.74470750000E+01 0. -1.
<mgrwt>
<rscale>  0 0.14966186E+02</rscale>
<asrwt>0</asrwt>
<pdfrwt beam="2">  1        2 0.99156579E+00 0.14966186E+02</pdfrwt>
<pdfrwt beam="1">  1       -2 0.99564641E+00 0.14966186E+02</pdfrwt>
<totfact>-0.15153028E-13</totfact>
</mgrwt>
</event>
<event>
 4    1  0.5160210E-019  0.1495554E+02  0.7818608E-02  0.1869428E+00
         -2   -1    0    0    0  501 -0.00000000000E+00  0.00000000000E+00  0.11906855230E+03  0.11906855233E+03  0.25500000000E-02 0. -1.
          2   -1    0    0  501    0  0.00000000000E+00 -0.00000000000E+00 -0.46961721589E+00  0.46962413903E+00  0.25500000000E-02 0.  1.
         31    1    1    2    0    0 -0.67338691650E+00  0.68179694988E-01  0.59345374531E+02  0.59814634520E+02  0.74470750000E+01 0. -1.
        -31    1    1    2    0    0  0.67338691650E+00 -0.68179694988E-01  0.59253560554E+02  0.59723541948E+02  0.74470750000E+01 0. -1.
<mgrwt>
<rscale>  0 0.14955542E+02</rscale>
<asrwt>0</asrwt>
<pdfrwt beam="2">  1        2 0.99738961E+00 0.14955542E+02</pdfrwt>
<pdfrwt beam="1">  1       -2 0.98842528E+00 0.14955542E+02</pdfrwt>
<totfact> 0.77702350E-14</totfact>
</mgrwt>
</event>
<event>
 4    1 -0.5160210E-019  0.1490702E+02  0.7818608E-02  0.1870919E+00
         -2   -1    0    0    0  501 -0.00000000000E+00  0.00000000000E+00  0.11951652265E+03  0.11951652268E+03  0.25500000000E-02 0. -1.
          2   -1    0    0  501    0  0.00000000000E+00 -0.00000000000E+00 -0.46482602849E+00  0.46483302299E+00  0.25500000000E-02 0.  1.
         31    1    1    2    0    0 -0.79579967793E-01  0.24756160135E+00  0.58172669115E+02  0.58647983578E+02  0.74470750000E+01 0. -1.
        -31    1    1    2    0    0  0.79579967793E-01 -0.24756160135E+00  0.60879027509E+02  0.61333372125E+02  0.74470750000E+01 0. -1.
<mgrwt>
<rscale>  0 0.14907020E+02</rscale>
<asrwt>0</asrwt>
<pdfrwt beam="2">  1        2 0.98726803E+00 0.14907020E+02</pdfrwt>
<pdfrwt beam="1">  1       -2 0.99208980E+00 0.14907020E+02</pdfrwt>
<totfact>-0.16823315E-13</totfact>
</mgrwt>
</event>
<event>
 4    1 -0.5160210E-019  0.1501606E+02  0.7818608E-02  0.1867579E+00
          2   -1    0    0  501    0  0.00000000000E+00  0.00000000000E+00  0.12006868998E+03  0.12006869001E+03  0.25500000000E-02 0.  1.
         -2   -1    0    0    0  501 -0.00000000000E+00 -0.00000000000E+00 -0.46948221302E+00  0.46948913815E+00  0.25500000000E-02 0. -1.
         31    1    1    2    0    0 -0.46650413023E+00 -0.61585467426E+00  0.64302788945E+02  0.64737195608E+02  0.74470750000E+01 0.  1.
        -31    1    1    2    0    0  0.46650413023E+00  0.61585467426E+00  0.55296418824E+02  0.55800983538E+02  0.74470750000E+01 0.  1.
<mgrwt>
<rscale>  0 0.15016063E+02</rscale>
<asrwt>0</asrwt>
<pdfrwt beam="1">  1        2 0.99669400E+00 0.15016063E+02</pdfrwt>
<pdfrwt beam="2">  1       -2 0.99713664E+00 0.15016063E+02</pdfrwt>
<totfact>-0.72937868E-14</totfact>
</mgrwt>
</event>
<event>
 4    1 -0.5160210E-019  0.1496392E+02  0.7818608E-02  0.1869172E+00
         -2   -1    0    0    0  501 -0.00000000000E+00  0.00000000000E+00  0.11972760182E+03  0.11972760185E+03  0.25500000000E-02 0. -1.
          2   -1    0    0  501    0  0.00000000000E+00 -0.00000000000E+00 -0.46755539710E+00  0.46756235077E+00  0.25500000000E-02 0.  1.
         31    1    1    2    0    0  0.66798534318E+00 -0.85667109088E-01  0.57547237364E+02  0.58031000315E+02  0.74470750000E+01 0.  1.
        -31    1    1    2    0    0 -0.66798534318E+00  0.85667109088E-01  0.61712809061E+02  0.62164163885E+02  0.74470750000E+01 0.  1.
<mgrwt>
<rscale>  0 0.14963917E+02</rscale>
<asrwt>0</asrwt>
<pdfrwt beam="2">  1        2 0.99304922E+00 0.14963917E+02</pdfrwt>
<pdfrwt beam="1">  1       -2 0.99385771E+00 0.14963917E+02</pdfrwt>
<totfact>-0.13591081E-13</totfact>
</mgrwt>
</event>
<event>
 4    1 -0.5160210E-019  0.1495829E+02  0.7818608E-02  0.1869344E+00
          2   -1    0    0  501    0  0.00000000000E+00  0.00000000000E+00  0.11935044669E+03  0.11935044671E+03  0.25500000000E-02 0.  1.
         -2   -1    0    0    0  501 -0.00000000000E+00 -0.00000000000E+00 -0.46867999774E+00  0.46868693472E+00  0.25500000000E-02 0. -1.
         31    1    1    2    0    0 -0.38210464913E+00  0.24138130850E-01  0.64056824016E+02  0.64489396149E+02  0.74470750000E+01 0.  1.
        -31    1    1    2    0    0  0.38210464913E+00 -0.24138130850E-01  0.54824942672E+02  0.55329737498E+02  0.74470750000E+01 0. -1.
<mgrwt>
<rscale>  0 0.14958287E+02</rscale>
<asrwt>0</asrwt>
<pdfrwt beam="1">  1        2 0.99074843E+00 0.14958287E+02</pdfrwt>
<pdfrwt beam="2">  1       -2 0.99541617E+00 0.14958287E+02</pdfrwt>
<totfact>-0.16426630E-13</totfact>
</mgrwt>
</event>
<event>
 4    1 -0.5160210E-019  0.1491906E+02  0.7818608E-02  0.1870548E+00
         -2   -1    0    0    0  501 -0.00000000000E+00  0.00000000000E+00  0.12004051338E+03  0.12004051341E+03  0.25500000000E-02 0.  1.
          2   -1    0    0  501    0  0.00000000000E+00 -0.00000000000E+00 -0.46354499147E+00  0.46355200530E+00  0.25500000000E-02 0. -1.
         31    1    1    2    0    0 -0.31738441446E+00  0.16797731610E+00  0.61712274325E+02  0.62161022173E+02  0.74470750000E+01 0. -1.
        -31    1    1    2    0    0  0.31738441446E+00 -0.16797731610E+00  0.57864694066E+02  0.58343043241E+02  0.74470750000E+01 0. -1.
<mgrwt>
<rscale>  0 0.14919062E+02</rscale>
<asrwt>0</asrwt>
<pdfrwt beam="2">  1        2 0.98457433E+00 0.14919062E+02</pdfrwt>
<pdfrwt beam="1">  1       -2 0.99641193E+00 0.14919062E+02</pdfrwt>
<totfact>-0.33141345E-13</totfact>
</mgrwt>
</event>
<event>
 4    1 -0.5160210E-019  0.1490391E+02  0.7818608E-02  0.1871015E+00
          2   -1    0    0  501    0  0.00000000000E+00  0.00000000000E+00  0.11841191900E+03  0.11841191903E+03  0.25500000000E-02 0.  1.
         -2   -1    0    0    0  501 -0.00000000000E+00 -0.00000000000E+00 -0.46896654459E+00  0.46897347734E+00  0.25500000000E-02 0. -1.
         31    1    1    2    0    0 -0.15807308809E+00  0.14067708420E+00  0.57638208628E+02  0.58117697795E+02  0.74470750000E+01 0. -1.
        -31    1    1    2    0    0  0.15807308809E+00 -0.14067708420E+00  0.60304743830E+02  0.60763194712E+02  0.74470750000E+01 0.  1.
<mgrwt>
<rscale>  0 0.14903911E+02</rscale>
<asrwt>0</asrwt>
<pdfrwt beam="1">  1        2 0.98299040E+00 0.14903911E+02</pdfrwt>
<pdfrwt beam="2">  1       -2 0.99599147E+00 0.14903911E+02</pdfrwt>
<totfact>-0.45557940E-13</totfact>
</mgrwt>
</event>
<event>
 4    1 -0.5160210E-019  0.1491859E+02  0.7818608E-02  0.1870563E+00
         -2   -1    0    0    0  501 -0.00000000000E+00  0.00000000000E+00  0.11978471138E+03  0.11978471141E+03  0.25500000000E-02 0. -1.
          2   -1    0    0  501    0  0.00000000000E+00 -0.00000000000E+00 -0.46450525060E+00  0.46451224993E+00  0.25500000000E-02 0.  1.
         31    1    1    2    0    0 -0.25551269704E+00 -0.16554980197E+00  0.57249659345E+02  0.57732790636E+02  0.74470750000E+01 0.  1.
        -31    1    1    2    0    0  0.25551269704E+00  0.16554980197E+00  0.62070546784E+02  0.62516433021E+02  0.74470750000E+01 0. -1.
<mgrwt>
<rscale>  0 0.14918586E+02</rscale>
<asrwt>0</asrwt>
<pdfrwt beam="2">  1        2 0.98659791E+00 0.14918586E+02</pdfrwt>
<pdfrwt beam="1">  1       -2 0.99430472E+00 0.14918586E+02</pdfrwt>
<totfact>-0.26930906E-13</totfact>
</mgrwt>
</event>
<event>
 4    1  0.5160210E-019  0.1492642E+02  0.7818608E-02  0.1870322E+00
         -2   -1    0    0    0  501 -0.00000000000E+00  0.00000000000E+00  0.11866452349E+03  0.11866452352E+03  0.25500000000E-02 0.  1.
          2   -1    0    0  501    0  0.00000000000E+00 -0.00000000000E+00 -0.46938270340E+00  0.46938963000E+00  0.25500000000E-02 0. -1.
         31    1    1    2    0    0 -0.19577740413E+00  0.13099283113E+00  0.55663938026E+02  0.56160381147E+02  0.74470750000E+01 0. -1.
        -31    1    1    2    0    0  0.19577740413E+00 -0.13099283113E+00  0.62531202763E+02  0.62973532003E+02  0.74470750000E+01 0.  1.
<mgrwt>
<rscale>  0 0.14926418E+02</rscale>
<asrwt>0</asrwt>
<pdfrwt beam="2">  1        2 0.99688018E+00 0.14926418E+02</pdfrwt>
<pdfrwt beam="1">  1       -2 0.98508255E+00 0.14926418E+02</pdfrwt>
<totfact> 0.35887519E-13</totfact>
</mgrwt>
</event>
<event>
 4    1  0.5160210E-019  0.1493304E+02  0.7818608E-02  0.1870119E+00
         -2   -1    0    0    0  501 -0.00000000000E+00  0.00000000000E+00  0.11887166452E+03  0.11887166454E+03  0.25500000000E-02 0. -1.
          2   -1    0    0  501    0  0.00000000000E+00 -0.00000000000E+00 -0.46898051128E+00  0.46898744382E+00  0.25500000000E-02 0.  1.
         31    1    1    2    0    0 -0.60296256790E-01 -0.39588224549E+00  0.62078636807E+02  0.62525006456E+02  0.74470750000E+01 0. -1.
        -31    1    1    2    0    0  0.60296256790E-01  0.39588224549E+00  0.56324047197E+02  0.56815645531E+02  0.74470750000E+01 0.  1.
<mgrwt>
<rscale>  0 0.14933038E+02</rscale>
<asrwt>0</asrwt>
<pdfrwt beam="2">  1        2 0.99603621E+00 0.14933038E+02</pdfrwt>
<pdfrwt beam="1">  1       -2 0.98679201E+00 0.14933038E+02</pdfrwt>
<totfact> 0.23538008E-13</totfact>
</mgrwt>
</event>
<event>
 4    1 -0.5160210E-019  0.1492021E+02  0.7818608E-02  0.1870513E+00
          2   -1    0    0  501    0  0.00000000000E+00  0.00000000000E+00  0.11827853049E+03  0.11827853052E+03  0.25500000000E-02 0.  1.
         -2   -1    0    0    0  501 -0.00000000000E+00 -0.00000000000E+00 -0.47052310597E+00  0.47053001578E+00  0.25500000000E-02 0. -1.
         31    1    1    2    0    0 -0.17453198075E+00  0.30273877595E+00  0.61041911421E+02  0.61495495673E+02  0.74470750000E+01 0.  1.
        -31    1    1    2    0    0  0.17453198075E+00 -0.30273877595E+00  0.56766095962E+02  0.57253564859E+02  0.74470750000E+01 0. -1.
<mgrwt>
<rscale>  0 0.14920214E+02</rscale>
<asrwt>0</asrwt>
<pdfrwt beam="1">  1        2 0.98190032E+00 0.14920214E+02</pdfrwt>
<pdfrwt beam="2">  1       -2 0.99927970E+00 0.14920214E+02</pdfrwt>
<totfact>-0.13965467E-13</totfact>
</mgrwt>
</event>
<event>
 4    1  0.5160210E-019  0.1490916E+02  0.7818608E-02  0.1870853E+00
          2   -1    0    0  501    0  0.00000000000E+00  0.00000000000E+00  0.11999082255E+03  0.11999082257E+03  0.25500000000E-02 0.  1.
         -2   -1    0    0    0  501 -0.00000000000E+00 -0.00000000000E+00 -0.46312179739E+00  0.46312881763E+00  0.25500000000E-02 0. -1.
         31    1    1    2    0    0 -0.26315356497E+00 -0.19134750708E+00  0.60389668160E+02  0.60847981151E+02  0.74470750000E+01 0.  1.
        -31    1    1    2    0    0  0.26315356497E+00  0.19134750708E+00  0.59138032589E+02  0.59605970240E+02  0.74470750000E+01 0. -1.
<mgrwt>
<rscale>  0 0.14909164E+02</rscale>
<asrwt>0</asrwt>
<pdfrwt beam="1">  1        2 0.99599755E+00 0.14909164E+02</pdfrwt>
<pdfrwt beam="2">  1       -2 0.98367736E+00 0.14909164E+02</pdfrwt>
<totfact> 0.60391493E-13</totfact>
</mgrwt>
</event>
<event>
 4    1  0.5160210E-019  0.1489782E+02  0.7818608E-02  0.1871203E+00
         -2   -1    0    0    0  501 -0.00000000000E+00  0.00000000000E+00  0.11805749428E+03  0.11805749430E+03  0.25500000000E-02 0. -1.
          2   -1    0    0  501    0  0.00000000000E+00 -0.00000000000E+00 -0.46998995294E+00  0.46999687059E+00  0.25500000000E-02 0.  1.
         31    1    1    2    0    0  0.10854283077E+00 -0.11430899996E+00  0.58398054399E+02  0.58871185921E+02  0.74470750000E+01 0.  1.
        -31    1    1    2    0    0 -0.10854283077E+00  0.11430899996E+00  0.59189449923E+02  0.59656305252E+02  0.74470750000E+01 0. -1.
<mgrwt>
<rscale>  0 0.14897818E+02</rscale>
<asrwt>0</asrwt>
<pdfrwt beam="2">  1        2 0.99814451E+00 0.14897818E+02</pdfrwt>
<pdfrwt beam="1">  1       -2 0.98006823E+00 0.14897818E+02</pdfrwt>
<totfact> 0.72398314E-13</totfact>
</mgrwt>
</event>
<event>
 4    1  0.5160210E-019  0.1490747E+02  0.7818608E-02  0.1870905E+00
          2   -1    0    0  501    0  0.00000000000E+00  0.00000000000E+00  0.12017891260E+03  0.12017891262E+03  0.25500000000E-02 0. -1.
         -2   -1    0    0    0  501 -0.00000000000E+00 -0.00000000000E+00 -0.46229179608E+00  0.46229882892E+00  0.25500000000E-02 0.  1.
         31    1    1    2    0    0  0.40605972363E-01 -0.30698544409E+00  0.59390875643E+02  0.59856753375E+02  0.74470750000E+01 0.  1.
        -31    1    1    2    0    0 -0.40605972363E-01  0.30698544409E+00  0.60325745158E+02  0.60784458078E+02  0.74470750000E+01 0. -1.
<mgrwt>
<rscale>  0 0.14907468E+02</rscale>
<asrwt>0</asrwt>
<pdfrwt beam="1">  1        2 0.99754594E+00 0.14907468E+02</pdfrwt>
<pdfrwt beam="2">  1       -2 0.98192712E+00 0.14907468E+02</pdfrwt>
<totfact> 0.63827449E-13</totfact>
</mgrwt>
</event>
<event>
 4    1 -0.5160210E-019  0.1498810E+02  0.7818608E-02  0.1868432E+00
          2   -1    0    0  501    0  0.00000000000E+00  0.00000000000E+00  0.11984919475E+03  0.11984919477E+03  0.25500000000E-02 0.  1.
         -2   -1    0    0    0  501 -0.00000000000E+00 -0.00000000000E+00 -0.46859176880E+00  0.46859870709E+00  0.25500000000E-02 0. -1.
         31    1    1    2    0    0  0.44142017172E+00 -0.77512466321E-01  0.65372196366E+02  0.65796533675E+02  0.74470750000E+01 0. -1.
        -31    1    1    2    0    0 -0.44142017172E+00  0.77512466321E-01  0.54008406612E+02  0.54521259806E+02  0.74470750000E+01 0. -1.
<mgrwt>
<rscale>  0 0.14988097E+02</rscale>
<asrwt>0</asrwt>
<pdfrwt beam="1">  1        2 0.99487170E+00 0.14988097E+02</pdfrwt>
<pdfrwt beam="2">  1       -2 0.99524571E+00 0.14988097E+02</pdfrwt>
<totfact>-0.11990470E-13</totfact>
</mgrwt>
</event>
<event>
 4    1  0.5160210E-019  0.1490827E+02  0.7818608E-02  0.1870881E+00
         -2   -1    0    0    0  501 -0.00000000000E+00  0.00000000000E+00  0.11882854592E+03  0.11882854594E+03  0.25500000000E-02 0.  1.
          2   -1    0    0  501    0  0.00000000000E+00 -0.00000000000E+00 -0.46759557660E+00  0.46760252967E+00  0.25500000000E-02 0. -1.
         31    1    1    2    0    0 -0.63049940335E-02  0.52104177659E-02  0.61774977018E+02  0.62222237010E+02  0.74470750000E+01 0.  1.
        -31    1    1    2    0    0  0.63049940335E-02 -0.52104177659E-02  0.56585973321E+02  0.57073911463E+02  0.74470750000E+01 0. -1.
<mgrwt>
<rscale>  0 0.14908269E+02</rscale>
<asrwt>0</asrwt>
<pdfrwt beam="2">  1        2 0.99310499E+00 0.14908269E+02</pdfrwt>
<pdfrwt beam="1">  1       -2 0.98642402E+00 0.14908269E+02</pdfrwt>
<totfact> 0.36043041E-13</totfact>
</mgrwt>
</event>
<event>
 4    1 -0.5160210E-019  0.1493048E+02  0.7818608E-02  0.1870197E+00
         -2   -1    0    0    0  501 -0.00000000000E+00  0.00000000000E+00  0.12029459418E+03  0.12029459421E+03  0.25500000000E-02 0. -1.
          2   -1    0    0  501    0  0.00000000000E+00 -0.00000000000E+00 -0.46327421708E+00  0.46328123501E+00  0.25500000000E-02 0.  1.
         31    1    1    2    0    0  0.42351872100E+00 -0.14867457341E+00  0.62046524746E+02  0.62493452708E+02  0.74470750000E+01 0. -1.
        -31    1    1    2    0    0 -0.42351872100E+00  0.14867457341E+00  0.57784795220E+02  0.58264422737E+02  0.74470750000E+01 0.  1.
<mgrwt>
<rscale>  0 0.14930480E+02</rscale>
<asrwt>0</asrwt>
<pdfrwt beam="2">  1        2 0.98400941E+00 0.14930480E+02</pdfrwt>
<pdfrwt beam="1">  1       -2 0.99851060E+00 0.14930480E+02</pdfrwt>
<totfact>-0.18968952E-13</totfact>
</mgrwt>
</event>
<event>
 4    1 -0.5160210E-019  0.1494969E+02  0.7818608E-02  0.1869608E+00
          2   -1    0    0  501    0  0.00000000000E+00  0.00000000000E+00  0.11906133781E+03  0.11906133784E+03  0.25500000000E-02 0.  1.
         -2   -1    0    0    0  501 -0.00000000000E+00 -0.00000000000E+00 -0.46927828986E+00  0.46928521800E+00  0.25500000000E-02 0. -1.
         31    1    1    2    0    0 -0.37106529738E+00  0.46217233840E+00  0.61304449358E+02  0.61757960862E+02  0.74470750000E+01 0.  1.
        -31    1    1    2    0    0  0.37106529738E+00 -0.46217233840E+00  0.57287610165E+02  0.57772662196E+02  0.74470750000E+01 0. -1.
<mgrwt>
<rscale>  0 0.14949691E+02</rscale>
<asrwt>0</asrwt>
<pdfrwt beam="1">  1        2 0.98836282E+00 0.14949691E+02</pdfrwt>
<pdfrwt beam="2">  1       -2 0.99667239E+00 0.14949691E+02</pdfrwt>
<totfact>-0.18216925E-13</totfact>
</mgrwt>
</event>
<event>
 4    1 -0.5160210E-019  0.1501455E+02  0.7818608E-02  0.1867625E+00
         -2   -1    0    0    0  501 -0.00000000000E+00  0.00000000000E+00  0.11990523574E+03  0.11990523577E+03  0.25500000000E-02 0.  1.
          2   -1    0    0  501    0  0.00000000000E+00 -0.00000000000E+00 -0.47002765403E+00  0.47003457113E+00  0.25500000000E-02 0. -1.
         31    1    1    2    0    0 -0.57156371084E+00  0.70875028332E+00  0.57577488576E+02  0.58064232784E+02  0.74470750000E+01 0.  1.
        -31    1    1    2    0    0  0.57156371084E+00 -0.70875028332E+00  0.61857719515E+02  0.62311037559E+02  0.74470750000E+01 0.  1.
<mgrwt>
<rscale>  0 0.15014552E+02</rscale>
<asrwt>0</asrwt>
<pdfrwt beam="2">  1        2 0.99828526E+00 0.15014552E+02</pdfrwt>
<pdfrwt beam="1">  1       -2 0.99534696E+00 0.15014552E+02</pdfrwt>
<totfact>-0.57241105E-14</totfact>
</mgrwt>
</event>
<event>
 4    1  0.5160210E-019  0.1494593E+02  0.7818608E-02  0.1869723E+00
          2   -1    0    0  501    0  0.00000000000E+00  0.00000000000E+00  0.12030528519E+03  0.12030528522E+03  0.25500000000E-02 0. -1.
         -2   -1    0    0    0  501 -0.00000000000E+00 -0.00000000000E+00 -0.46419210730E+00  0.46419911135E+00  0.25500000000E-02 0.  1.
         31    1    1    2    0    0 -0.11100222947E+00 -0.11455295410E+00  0.64774311371E+02  0.65201194648E+02  0.74470750000E+01 0. -1.
        -31    1    1    2    0    0  0.11100222947E+00  0.11455295410E+00  0.55066781716E+02  0.55568289684E+02  0.74470750000E+01 0.  1.
<mgrwt>
<rscale>  0 0.14945928E+02</rscale>
<asrwt>0</asrwt>
<pdfrwt beam="1">  1        2 0.99860659E+00 0.14945928E+02</pdfrwt>
<pdfrwt beam="2">  1       -2 0.98595185E+00 0.14945928E+02</pdfrwt>
<totfact> 0.14832349E-13</totfact>
</mgrwt>
</event>
<event>
 4    1 -0.5160210E-019  0.1499622E+02  0.7818608E-02  0.1868184E+00
         -2   -1    0    0    0  501 -0.00000000000E+00  0.00000000000E+00  0.12034138157E+03  0.12034138159E+03  0.25500000000E-02 0.  1.
          2   -1    0    0  501    0  0.00000000000E+00 -0.00000000000E+00 -0.46718090948E+00  0.46718786872E+00  0.25500000000E-02 0. -1.
         31    1    1    2    0    0 -0.53735273459E+00 -0.32897107702E+00  0.55065275336E+02  0.55570139858E+02  0.74470750000E+01 0. -1.
        -31    1    1    2    0    0  0.53735273459E+00  0.32897107702E+00  0.64808925320E+02  0.65238429604E+02  0.74470750000E+01 0.  1.
<mgrwt>
<rscale>  0 0.14996215E+02</rscale>
<asrwt>0</asrwt>
<pdfrwt beam="2">  1        2 0.99227661E+00 0.14996215E+02</pdfrwt>
<pdfrwt beam="1">  1       -2 0.99892978E+00 0.14996215E+02</pdfrwt>
<totfact>-0.51339439E-14</totfact>
</mgrwt>
</event>
<event>
 4    1 -0.5160210E-019  0.1499386E+02  0.7818608E-02  0.1868256E+00
          2   -1    0    0  501    0  0.00000000000E+00  0.00000000000E+00  0.11982119408E+03  0.11982119411E+03  0.25500000000E-02 0.  1.
         -2   -1    0    0    0  501 -0.00000000000E+00 -0.00000000000E+00 -0.46906151421E+00  0.46906844555E+00  0.25500000000E-02 0. -1.
         31    1    1    2    0    0 -0.78740069401E+00  0.14888411493E+00  0.57103352081E+02  0.57592481378E+02  0.74470750000E+01 0.  1.
        -31    1    1    2    0    0  0.78740069401E+00 -0.14888411493E+00  0.62248780487E+02  0.62697781177E+02  0.74470750000E+01 0.  1.
<mgrwt>
<rscale>  0 0.14993856E+02</rscale>
<asrwt>0</asrwt>
<pdfrwt beam="1">  1        2 0.99464405E+00 0.14993856E+02</pdfrwt>
<pdfrwt beam="2">  1       -2 0.99623860E+00 0.14993856E+02</pdfrwt>
<totfact>-0.11270821E-13</totfact>
</mgrwt>
</event>
<event>
 4    1 -0.5160210E-019  0.1497178E+02  0.7818608E-02  0.1868931E+00
          2   -1    0    0  501    0  0.00000000000E+00  0.00000000000E+00  0.11975139744E+03  0.11975139747E+03  0.25500000000E-02 0. -1.
         -2   -1    0    0    0  501 -0.00000000000E+00 -0.00000000000E+00 -0.46795363292E+00  0.46796058067E+00  0.25500000000E-02 0.  1.
         31    1    1    2    0    0  0.49113817261E+00 -0.44167722974E+00  0.62681367599E+02  0.63125660913E+02  0.74470750000E+01 0.  1.
        -31    1    1    2    0    0 -0.49113817261E+00  0.44167722974E+00  0.56602076208E+02  0.57093697136E+02  0.74470750000E+01 0.  1.
<mgrwt>
<rscale>  0 0.14971776E+02</rscale>
<asrwt>0</asrwt>
<pdfrwt beam="1">  1        2 0.99405777E+00 0.14971776E+02</pdfrwt>
<pdfrwt beam="2">  1       -2 0.99389250E+00 0.14971776E+02</pdfrwt>
<totfact>-0.12622586E-13</totfact>
</mgrwt>
</event>
<event>
 4    1  0.5160210E-019  0.1490899E+02  0.7818608E-02  0.1870858E+00
         -2   -1    0    0    0  501 -0.00000000000E+00  0.00000000000E+00  0.11844945455E+03  0.11844945458E+03  0.25500000000E-02 0.  1.
          2   -1    0    0  501    0  0.00000000000E+00 -0.00000000000E+00 -0.46913761474E+00  0.46914454496E+00  0.25500000000E-02 0. -1.
         31    1    1    2    0    0 -0.15838356520E+00  0.28909843769E+00  0.58640749456E+02  0.59112647430E+02  0.74470750000E+01 0.  1.
        -31    1    1    2    0    0  0.15838356520E+00 -0.28909843769E+00  0.59339567479E+02  0.59805951693E+02  0.74470750000E+01 0.  1.
<mgrwt>
<rscale>  0 0.14908992E+02</rscale>
<asrwt>0</asrwt>
<pdfrwt beam="2">  1        2 0.99635459E+00 0.14908992E+02</pdfrwt>
<pdfrwt beam="1">  1       -2 0.98330218E+00 0.14908992E+02</pdfrwt>
<totfact> 0.62302734E-13</totfact>
</mgrwt>
</event>
<event>
 4    1  0.5160210E-019  0.1489830E+02  0.7818608E-02  0.1871188E+00
          2   -1    0    0  501    0  0.00000000000E+00  0.00000000000E+00  0.12041855441E+03  0.12041855443E+03  0.25500000000E-02 0.  1.
         -2   -1    0    0    0  501 -0.00000000000E+00 -0.00000000000E+00 -0.46080452614E+00  0.46081158168E+00  0.25500000000E-02 0. -1.
         31    1    1    2    0    0 -0.94705169607E-01 -0.12625120366E+00  0.59349951679E+02  0.59815554823E+02  0.74470750000E+01 0.  1.
        -31    1    1    2    0    0  0.94705169607E-01  0.12625120366E+00  0.60607798202E+02  0.61063811192E+02  0.74470750000E+01 0.  1.
<mgrwt>
<rscale>  0 0.14898301E+02</rscale>
<asrwt>0</asrwt>
<pdfrwt beam="1">  1        2 0.99951517E+00 0.14898301E+02</pdfrwt>
<pdfrwt beam="2">  1       -2 0.97878765E+00 0.14898301E+02</pdfrwt>
<totfact> 0.27088995E-13</totfact>
</mgrwt>
</event>
<event>
 4    1 -0.5160210E-019  0.1489729E+02  0.7818608E-02  0.1871219E+00
          2   -1    0    0  501    0  0.00000000000E+00  0.00000000000E+00  0.11831411280E+03  0.11831411283E+03  0.25500000000E-02 0.  1.
         -2   -1    0    0    0  501 -0.00000000000E+00 -0.00000000000E+00 -0.46893735655E+00  0.46894428973E+00  0.25500000000E-02 0. -1.
         31    1    1    2    0    0  0.90610875472E-01  0.65258937792E-01  0.59756018704E+02  0.60218378976E+02  0.74470750000E+01 0.  1.
        -31    1    1    2    0    0 -0.90610875472E-01 -0.65258937792E-01  0.58089156744E+02  0.58564678146E+02  0.74470750000E+01 0.  1.
<mgrwt>
<rscale>  0 0.14897291E+02</rscale>
<asrwt>0</asrwt>
<pdfrwt beam="1">  1        2 0.98218142E+00 0.14897291E+02</pdfrwt>
<pdfrwt beam="2">  1       -2 0.99592647E+00 0.14897291E+02</pdfrwt>
<totfact>-0.52589236E-13</totfact>
</mgrwt>
</event>
<event>
 4    1  0.5160210E-019  0.1494288E+02  0.7818608E-02  0.1869816E+00
         -2   -1    0    0    0  501 -0.00000000000E+00  0.00000000000E+00  0.11891590158E+03  0.11891590160E+03  0.25500000000E-02 0.  1.
          2   -1    0    0  501    0  0.00000000000E+00 -0.00000000000E+00 -0.46942432071E+00  0.46943124670E+00  0.25500000000E-02 0. -1.
         31    1    1    2    0    0 -0.46834345836E-01  0.23513571798E-01  0.54424521157E+02  0.54931686444E+02  0.74470750000E+01 0. -1.
        -31    1    1    2    0    0  0.46834345836E-01 -0.23513571798E-01  0.64021956098E+02  0.64453646406E+02  0.74470750000E+01 0.  1.
<mgrwt>
<rscale>  0 0.14942882E+02</rscale>
<asrwt>0</asrwt>
<pdfrwt beam="2">  1        2 0.99697652E+00 0.14942882E+02</pdfrwt>
<pdfrwt beam="1">  1       -2 0.98716146E+00 0.14942882E+02</pdfrwt>
<totfact> 0.17026294E-13</totfact>
</mgrwt>
</event>
<event>
 4    1 -0.5160210E-019  0.1489499E+02  0.7818608E-02  0.1871290E+00
         -2   -1    0    0    0  501 -0.00000000000E+00  0.00000000000E+00  0.12036938428E+03  0.12036938430E+03  0.25500000000E-02 0. -1.
          2   -1    0    0  501    0  0.00000000000E+00 -0.00000000000E+00 -0.46078776829E+00  0.46079482409E+00  0.25500000000E-02 0.  1.
         31    1    1    2    0    0 -0.71688015276E-01 -0.18058460022E-02  0.59685326070E+02  0.60148168855E+02  0.74470750000E+01 0.  1.
        -31    1    1    2    0    0  0.71688015276E-01  0.18058460022E-02  0.60223270436E+02  0.60682010271E+02  0.74470750000E+01 0. -1.
<mgrwt>
<rscale>  0 0.14894988E+02</rscale>
<asrwt>0</asrwt>
<pdfrwt beam="2">  1        2 0.97875066E+00 0.14894988E+02</pdfrwt>
<pdfrwt beam="1">  1       -2 0.99910846E+00 0.14894988E+02</pdfrwt>
<totfact>-0.28632195E-13</totfact>
</mgrwt>
</event>
<event>
 4    1 -0.5160210E-019  0.1497167E+02  0.7818608E-02  0.1868934E+00
         -2   -1    0    0    0  501 -0.00000000000E+00  0.00000000000E+00  0.12011905174E+03  0.12011905176E+03  0.25500000000E-02 0. -1.
          2   -1    0    0  501    0  0.00000000000E+00 -0.00000000000E+00 -0.46651451930E+00  0.46652148848E+00  0.25500000000E-02 0.  1.
         31    1    1    2    0    0  0.39887181077E+00  0.47990847611E+00  0.63331178530E+02  0.63770577157E+02  0.74470750000E+01 0. -1.
        -31    1    1    2    0    0 -0.39887181077E+00 -0.47990847611E+00  0.56321358688E+02  0.56814996096E+02  0.74470750000E+01 0. -1.
<mgrwt>
<rscale>  0 0.14971667E+02</rscale>
<asrwt>0</asrwt>
<pdfrwt beam="2">  1        2 0.99085963E+00 0.14971667E+02</pdfrwt>
<pdfrwt beam="1">  1       -2 0.99708589E+00 0.14971667E+02</pdfrwt>
<totfact>-0.12998931E-13</totfact>
</mgrwt>
</event>
<event>
 4    1  0.5160210E-019  0.1491453E+02  0.7818608E-02  0.1870688E+00
          2   -1    0    0  501    0  0.00000000000E+00  0.00000000000E+00  0.12030837407E+03  0.12030837410E+03  0.25500000000E-02 0. -1.
         -2   -1    0    0    0  501 -0.00000000000E+00 -0.00000000000E+00 -0.46223173083E+00  0.46223876459E+00  0.25500000000E-02 0.  1.
         31    1    1    2    0    0  0.16875171376E+00  0.11640218911E+00  0.57239606720E+02  0.57722383268E+02  0.74470750000E+01 0.  1.
        -31    1    1    2    0    0 -0.16875171376E+00 -0.11640218911E+00  0.62606535617E+02  0.63048229591E+02  0.74470750000E+01 0. -1.
<mgrwt>
<rscale>  0 0.14914526E+02</rscale>
<asrwt>0</asrwt>
<pdfrwt beam="1">  1        2 0.99861593E+00 0.14914526E+02</pdfrwt>
<pdfrwt beam="2">  1       -2 0.98180407E+00 0.14914526E+02</pdfrwt>
<totfact> 0.41511315E-13</totfact>
</mgrwt>
</event>
<event>
 4    1 -0.5160210E-019  0.1491626E+02  0.7818608E-02  0.1870635E+00
          2   -1    0    0  501    0  0.00000000000E+00  0.00000000000E+00  0.11855829190E+03  0.11855829193E+03  0.25500000000E-02 0. -1.
         -2   -1    0    0    0  501 -0.00000000000E+00 -0.00000000000E+00 -0.46916406501E+00  0.46917099484E+00  0.25500000000E-02 0.  1.
         31    1    1    2    0    0  0.26313436756E+00 -0.69643061317E-01  0.61447614397E+02  0.61897837854E+02  0.74470750000E+01 0. -1.
        -31    1    1    2    0    0 -0.26313436756E+00  0.69643061317E-01  0.56641513441E+02  0.57129625071E+02  0.74470750000E+01 0.  1.
<mgrwt>
<rscale>  0 0.14916260E+02</rscale>
<asrwt>0</asrwt>
<pdfrwt beam="1">  1        2 0.98420234E+00 0.14916260E+02</pdfrwt>
<pdfrwt beam="2">  1       -2 0.99641415E+00 0.14916260E+02</pdfrwt>
<totfact>-0.35232017E-13</totfact>
</mgrwt>
</event>
<event>
 4    1 -0.5160210E-019  0.1493573E+02  0.7818608E-02  0.1870036E+00
          2   -1    0    0  501    0  0.00000000000E+00  0.00000000000E+00  0.11897656556E+03  0.11897656558E+03  0.25500000000E-02 0.  1.
         -2   -1    0    0    0  501 -0.00000000000E+00 -0.00000000000E+00 -0.46873584998E+00  0.46874278614E+00  0.25500000000E-02 0. -1.
         31    1    1    2    0    0 -0.23849803849E+00  0.31000080461E+00  0.62423601923E+02  0.62867463643E+02  0.74470750000E+01 0.  1.
        -31    1    1    2    0    0  0.23849803849E+00 -0.31000080461E+00  0.56084227782E+02  0.56577844725E+02  0.74470750000E+01 0. -1.
<mgrwt>
<rscale>  0 0.14935729E+02</rscale>
<asrwt>0</asrwt>
<pdfrwt beam="1">  1        2 0.98765738E+00 0.14935729E+02</pdfrwt>
<pdfrwt beam="2">  1       -2 0.99552208E+00 0.14935729E+02</pdfrwt>
<totfact>-0.22819736E-13</totfact>
</mgrwt>
</event>
<event>
 4    1  0.5160210E-019  0.1489868E+02  0.7818608E-02  0.1871176E+00
         -2   -1    0    0    0  501 -0.00000000000E+00  0.00000000000E+00  0.11803045385E+03  0.11803045388E+03  0.25500000000E-02 0. -1.
          2   -1    0    0  501    0  0.00000000000E+00 -0.00000000000E+00 -0.47015179372E+00  0.47015870899E+00  0.25500000000E-02 0.  1.
         31    1    1    2    0    0 -0.16012305427E+00 -0.77032702953E-01  0.59148219647E+02  0.59615454262E+02  0.74470750000E+01 0. -1.
        -31    1    1    2    0    0  0.16012305427E+00  0.77032702953E-01  0.58412082407E+02  0.58885158322E+02  0.74470750000E+01 0. -1.
<mgrwt>
<rscale>  0 0.14898677E+02</rscale>
<asrwt>0</asrwt>
<pdfrwt beam="2">  1        2 0.99848594E+00 0.14898677E+02</pdfrwt>
<pdfrwt beam="1">  1       -2 0.97984598E+00 0.14898677E+02</pdfrwt>
<totfact> 0.63688143E-13</totfact>
</mgrwt>
</event>
<event>
 4    1  0.5160210E-019  0.1491907E+02  0.7818608E-02  0.1870548E+00
         -2   -1    0    0    0  501 -0.00000000000E+00  0.00000000000E+00  0.11878064139E+03  0.11878064142E+03  0.25500000000E-02 0. -1.
          2   -1    0    0  501    0  0.00000000000E+00 -0.00000000000E+00 -0.46846240155E+00  0.46846934176E+00  0.25500000000E-02 0.  1.
         31    1    1    2    0    0 -0.21955683787E+00  0.23220789947E+00  0.61467567068E+02  0.61917871838E+02  0.74470750000E+01 0. -1.
        -31    1    1    2    0    0  0.21955683787E+00 -0.23220789947E+00  0.56844611920E+02  0.57331238920E+02  0.74470750000E+01 0.  1.
<mgrwt>
<rscale>  0 0.14919072E+02</rscale>
<asrwt>0</asrwt>
<pdfrwt beam="2">  1        2 0.99493717E+00 0.14919072E+02</pdfrwt>
<pdfrwt beam="1">  1       -2 0.98603508E+00 0.14919072E+02</pdfrwt>
<totfact> 0.35473320E-13</totfact>
</mgrwt>
</event>
<event>
 4    1  0.5160210E-019  0.1489688E+02  0.7818608E-02  0.1871232E+00
          2   -1    0    0  501    0  0.00000000000E+00  0.00000000000E+00  0.11969523878E+03  0.11969523881E+03  0.25500000000E-02 0.  1.
         -2   -1    0    0    0  501 -0.00000000000E+00 -0.00000000000E+00 -0.46350092892E+00  0.46350794342E+00  0.25500000000E-02 0. -1.
         31    1    1    2    0    0  0.13391239073E+00 -0.74959651329E-02  0.60007935111E+02  0.60468414822E+02  0.74470750000E+01 0. -1.
        -31    1    1    2    0    0 -0.13391239073E+00  0.74959651329E-02  0.59223802740E+02  0.59690331928E+02  0.74470750000E+01 0. -1.
<mgrwt>
<rscale>  0 0.14896883E+02</rscale>
<asrwt>0</asrwt>
<pdfrwt beam="1">  1        2 0.99355659E+00 0.14896883E+02</pdfrwt>
<pdfrwt beam="2">  1       -2 0.98447017E+00 0.14896883E+02</pdfrwt>
<totfact> 0.63476499E-13</totfact>
</mgrwt>
</event>
<event>
 4    1  0.5160210E-019  0.1494028E+02  0.7818608E-02  0.1869896E+00
         -2   -1    0    0    0  501 -0.00000000000E+00  0.00000000000E+00  0.11874635019E+03  0.11874635022E+03  0.25500000000E-02 0.  1.
          2   -1    0    0  501    0  0.00000000000E+00 -0.00000000000E+00 -0.46993074825E+00  0.46993766677E+00  0.25500000000E-02 0. -1.
         31    1    1    2    0    0 -0.39825105938E+00 -0.75487024534E-02  0.55702487341E+02  0.56199507853E+02  0.74470750000E+01 0. -1.
        -31    1    1    2    0    0  0.39825105938E+00  0.75487024534E-02  0.62573932101E+02  0.63016780032E+02  0.74470750000E+01 0.  1.
<mgrwt>
<rscale>  0 0.14940278E+02</rscale>
<asrwt>0</asrwt>
<pdfrwt beam="2">  1        2 0.99804223E+00 0.14940278E+02</pdfrwt>
<pdfrwt beam="1">  1       -2 0.98576368E+00 0.14940278E+02</pdfrwt>
<totfact> 0.20815185E-13</totfact>
</mgrwt>
</event>
<event>
 4    1  0.5160210E-019  0.1493065E+02  0.7818608E-02  0.1870192E+00
         -2   -1    0    0    0  501 -0.00000000000E+00  0.00000000000E+00  0.11854279759E+03  0.11854279762E+03  0.25500000000E-02 0. -1.
          2   -1    0    0  501    0  0.00000000000E+00 -0.00000000000E+00 -0.47013096458E+00  0.47013788015E+00  0.25500000000E-02 0.  1.
         31    1    1    2    0    0  0.29507447178E+00  0.31461779038E+00  0.56697762789E+02  0.57186373242E+02  0.74470750000E+01 0. -1.
        -31    1    1    2    0    0 -0.29507447178E+00 -0.31461779038E+00  0.61374903840E+02  0.61826562259E+02  0.74470750000E+01 0. -1.
<mgrwt>
<rscale>  0 0.14930647E+02</rscale>
<asrwt>0</asrwt>
<pdfrwt beam="2">  1        2 0.99845901E+00 0.14930647E+02</pdfrwt>
<pdfrwt beam="1">  1       -2 0.98408222E+00 0.14930647E+02</pdfrwt>
<totfact> 0.27533370E-13</totfact>
</mgrwt>
</event>
<event>
 4    1 -0.5160210E-019  0.1497109E+02  0.7818608E-02  0.1868952E+00
         -2   -1    0    0    0  501 -0.00000000000E+00  0.00000000000E+00  0.11996855523E+03  0.11996855526E+03  0.25500000000E-02 0.  1.
          2   -1    0    0  501    0  0.00000000000E+00 -0.00000000000E+00 -0.46706368270E+00  0.46707064369E+00  0.25500000000E-02 0. -1.
         31    1    1    2    0    0  0.74908027067E-01 -0.68613528699E+00  0.62269821130E+02  0.62717349612E+02  0.74470750000E+01 0.  1.
        -31    1    1    2    0    0 -0.74908027067E-01  0.68613528699E+00  0.57231670422E+02  0.57718276293E+02  0.74470750000E+01 0. -1.
<mgrwt>
<rscale>  0 0.14971089E+02</rscale>
<asrwt>0</asrwt>
<pdfrwt beam="2">  1        2 0.99201668E+00 0.14971089E+02</pdfrwt>
<pdfrwt beam="1">  1       -2 0.99584602E+00 0.14971089E+02</pdfrwt>
<totfact>-0.14407872E-13</totfact>
</mgrwt>
</event>
<event>
 4    1  0.5160210E-019  0.1491848E+02  0.7818608E-02  0.1870566E+00
         -2   -1    0    0    0  501 -0.00000000000E+00  0.00000000000E+00  0.11846082885E+03  0.11846082888E+03  0.25500000000E-02 0. -1.
          2   -1    0    0  501    0  0.00000000000E+00 -0.00000000000E+00 -0.46969005439E+00  0.46969697645E+00  0.25500000000E-02 0.  1.
         31    1    1    2    0    0  0.34517684102E+00  0.22623956085E+00  0.58158356694E+02  0.58634663049E+02  0.74470750000E+01 0.  1.
        -31    1    1    2    0    0 -0.34517684102E+00 -0.22623956085E+00  0.59832782100E+02  0.60295862803E+02  0.74470750000E+01 0. -1.
<mgrwt>
<rscale>  0 0.14918483E+02</rscale>
<asrwt>0</asrwt>
<pdfrwt beam="2">  1        2 0.99752359E+00 0.14918483E+02</pdfrwt>
<pdfrwt beam="1">  1       -2 0.98340080E+00 0.14918483E+02</pdfrwt>
<totfact> 0.46962207E-13</totfact>
</mgrwt>
</event>
<event>
 4    1 -0.5160210E-019  0.1489716E+02  0.7818608E-02  0.1871223E+00
          2   -1    0    0  501    0  0.00000000000E+00  0.00000000000E+00  0.11853409316E+03  0.11853409319E+03  0.25500000000E-02 0. -1.
         -2   -1    0    0    0  501 -0.00000000000E+00 -0.00000000000E+00 -0.46805884216E+00  0.46806578835E+00  0.25500000000E-02 0.  1.
         31    1    1    2    0    0  0.10279548780E+00  0.93333694186E-02  0.58166550053E+02  0.58641428403E+02  0.74470750000E+01 0.  1.
        -31    1    1    2    0    0 -0.10279548780E+00 -0.93333694186E-02  0.59899484264E+02  0.60360730571E+02  0.74470750000E+01 0. -1.
<mgrwt>
<rscale>  0 0.14897160E+02</rscale>
<asrwt>0</asrwt>
<pdfrwt beam="1">  1        2 0.98399311E+00 0.14897160E+02</pdfrwt>
<pdfrwt beam="2">  1       -2 0.99407534E+00 0.14897160E+02</pdfrwt>
<totfact>-0.40299017E-13</totfact>
</mgrwt>
</event>
<event>
 4    1 -0.5160210E-019  0.1498518E+02  0.7818608E-02  0.1868521E+00
         -2   -1    0    0    0  501 -0.00000000000E+00  0.00000000000E+00  0.11988778419E+03  0.11988778422E+03  0.25500000000E-02 0.  1.
          2   -1    0    0  501    0  0.00000000000E+00 -0.00000000000E+00 -0.46825847135E+00  0.46826541458E+00  0.25500000000E-02 0. -1.
         31    1    1    2    0    0  0.60105138485E+00  0.50948334162E+00  0.61662763273E+02  0.62115828390E+02  0.74470750000E+01 0.  1.
        -31    1    1    2    0    0 -0.60105138485E+00 -0.50948334162E+00  0.57756762450E+02  0.58240221246E+02  0.74470750000E+01 0. -1.
<mgrwt>
<rscale>  0 0.14985178E+02</rscale>
<asrwt>0</asrwt>
<pdfrwt beam="2">  1        2 0.99454183E+00 0.14985178E+02</pdfrwt>
<pdfrwt beam="1">  1       -2 0.99518803E+00 0.14985178E+02</pdfrwt>
<totfact>-0.12400293E-13</totfact>
</mgrwt>
</event>
<event>
 4    1 -0.5160210E-019  0.1500619E+02  0.7818608E-02  0.1867880E+00
         -2   -1    0    0    0  501 -0.00000000000E+00  0.00000000000E+00  0.12007730791E+03  0.12007730793E+03  0.25500000000E-02 0.  1.
          2   -1    0    0  501    0  0.00000000000E+00 -0.00000000000E+00 -0.46883151193E+00  0.46883844668E+00  0.25500000000E-02 0. -1.
         31    1    1    2    0    0 -0.57486028922E+00  0.62541977192E+00  0.57069384048E+02  0.57559492145E+02  0.74470750000E+01 0. -1.
        -31    1    1    2    0    0  0.57486028922E+00 -0.62541977192E+00  0.62539092346E+02  0.62986654236E+02  0.74470750000E+01 0.  1.
<mgrwt>
<rscale>  0 0.15006191E+02</rscale>
<asrwt>0</asrwt>
<pdfrwt beam="2">  1        2 0.99576028E+00 0.15006191E+02</pdfrwt>
<pdfrwt beam="1">  1       -2 0.99675988E+00 0.15006191E+02</pdfrwt>
<totfact>-0.91751141E-14</totfact>
</mgrwt>
</event>
<event>
 4    1 -0.5160210E-019  0.1500911E+02  0.7818608E-02  0.1867791E+00
         -2   -1    0    0    0  501 -0.00000000000E+00  0.00000000000E+00  0.12017728366E+03  0.12017728369E+03  0.25500000000E-02 0. -1.
          2   -1    0    0  501    0  0.00000000000E+00 -0.00000000000E+00 -0.46862354894E+00  0.46863048676E+00  0.25500000000E-02 0.  1.
         31    1    1    2    0    0 -0.53347334857E+00  0.75498408185E+00  0.59297168686E+02  0.59770124100E+02  0.74470750000E+01 0.  1.
        -31    1    1    2    0    0  0.53347334857E+00 -0.75498408185E+00  0.60411491428E+02  0.60875790076E+02  0.74470750000E+01 0.  1.
<mgrwt>
<rscale>  0 0.15009107E+02</rscale>
<asrwt>0</asrwt>
<pdfrwt beam="2">  1        2 0.99532353E+00 0.15009107E+02</pdfrwt>
<pdfrwt beam="1">  1       -2 0.99758483E+00 0.15009107E+02</pdfrwt>
<totfact>-0.79276832E-14</totfact>
</mgrwt>
</event>
<event>
 4    1  0.5160210E-019  0.1489628E+02  0.7818608E-02  0.1871250E+00
          2   -1    0    0  501    0  0.00000000000E+00  0.00000000000E+00  0.12006860611E+03  0.12006860614E+03  0.25500000000E-02 0.  1.
         -2   -1    0    0    0  501 -0.00000000000E+00 -0.00000000000E+00 -0.46202214466E+00  0.46202918160E+00  0.25500000000E-02 0. -1.
         31    1    1    2    0    0 -0.10262805636E+00  0.29777084869E-01  0.60342162601E+02  0.60800057012E+02  0.74470750000E+01 0.  1.
        -31    1    1    2    0    0  0.10262805636E+00 -0.29777084869E-01  0.59264421364E+02  0.59730578307E+02  0.74470750000E+01 0. -1.
<mgrwt>
<rscale>  0 0.14896279E+02</rscale>
<asrwt>0</asrwt>
<pdfrwt beam="1">  1        2 0.99663162E+00 0.14896279E+02</pdfrwt>
<pdfrwt beam="2">  1       -2 0.98135311E+00 0.14896279E+02</pdfrwt>
<totfact> 0.88588106E-13</totfact>
</mgrwt>
</event>
<event>
 4    1 -0.5160210E-019  0.1497664E+02  0.7818608E-02  0.1868782E+00
         -2   -1    0    0    0  501 -0.00000000000E+00  0.00000000000E+00  0.12012073374E+03  0.12012073377E+03  0.25500000000E-02 0. -1.
          2   -1    0    0  501    0  0.00000000000E+00 -0.00000000000E+00 -0.46681822093E+00  0.46682518558E+00  0.25500000000E-02 0.  1.
         31    1    1    2    0    0 -0.62451394988E-01  0.69421636240E+00  0.62732343489E+02  0.63176670395E+02  0.74470750000E+01 0. -1.
        -31    1    1    2    0    0  0.62451394988E-01 -0.69421636240E+00  0.56921572030E+02  0.57410888557E+02  0.74470750000E+01 0.  1.
<mgrwt>
<rscale>  0 0.14976644E+02</rscale>
<asrwt>0</asrwt>
<pdfrwt beam="2">  1        2 0.99150223E+00 0.14976644E+02</pdfrwt>
<pdfrwt beam="1">  1       -2 0.99710231E+00 0.14976644E+02</pdfrwt>
<totfact>-0.12302138E-13</totfact>
</mgrwt>
</event>
<event>
 4    1 -0.5160210E-019  0.1497745E+02  0.7818608E-02  0.1868758E+00
          2   -1    0    0  501    0  0.00000000000E+00  0.00000000000E+00  0.11922852882E+03  0.11922852885E+03  0.25500000000E-02 0.  1.
         -2   -1    0    0    0  501 -0.00000000000E+00 -0.00000000000E+00 -0.47036189707E+00  0.47036880925E+00  0.25500000000E-02 0. -1.
         31    1    1    2    0    0 -0.13433490810E+00 -0.75708619420E+00  0.60782139514E+02  0.61241478063E+02  0.74470750000E+01 0. -1.
        -31    1    1    2    0    0  0.13433490810E+00  0.75708619420E+00  0.57976027413E+02  0.58457419598E+02  0.74470750000E+01 0.  1.
<mgrwt>
<rscale>  0 0.14977446E+02</rscale>
<asrwt>0</asrwt>
<pdfrwt beam="1">  1        2 0.98975423E+00 0.14977446E+02</pdfrwt>
<pdfrwt beam="2">  1       -2 0.99897022E+00 0.14977446E+02</pdfrwt>
<totfact>-0.61094567E-14</totfact>
</mgrwt>
</event>
<event>
 4    1 -0.5160210E-019  0.1492063E+02  0.7818608E-02  0.1870500E+00
          2   -1    0    0  501    0  0.00000000000E+00  0.00000000000E+00  0.11871249075E+03  0.11871249078E+03  0.25500000000E-02 0. -1.
         -2   -1    0    0    0  501 -0.00000000000E+00 -0.00000000000E+00 -0.46882953664E+00  0.46883647142E+00  0.25500000000E-02 0.  1.
         31    1    1    2    0    0  0.95161948482E-01 -0.31507769357E+00  0.56737789649E+02  0.57225379248E+02  0.74470750000E+01 0.  1.
        -31    1    1    2    0    0 -0.95161948482E-01  0.31507769357E+00  0.61505871562E+02  0.61955947999E+02  0.74470750000E+01 0. -1.
<mgrwt>
<rscale>  0 0.14920635E+02</rscale>
<asrwt>0</asrwt>
<pdfrwt beam="1">  1        2 0.98547460E+00 0.14920635E+02</pdfrwt>
<pdfrwt beam="2">  1       -2 0.99571158E+00 0.14920635E+02</pdfrwt>
<totfact>-0.31020989E-13</totfact>
</mgrwt>
</event>
<event>
 4    1 -0.5160210E-019  0.1505004E+02  0.7818608E-02  0.1866545E+00
         -2   -1    0    0    0  501 -0.00000000000E+00  0.00000000000E+00  0.12038357954E+03  0.12038357957E+03  0.25500000000E-02 0.  1.
          2   -1    0    0  501    0  0.00000000000E+00 -0.00000000000E+00 -0.47037552840E+00  0.47038244038E+00  0.25500000000E-02 0. -1.
         31    1    1    2    0    0  0.76113506024E+00 -0.51205354360E+00  0.55375493700E+02  0.55881533211E+02  0.74470750000E+01 0. -1.
        -31    1    1    2    0    0 -0.76113506024E+00  0.51205354360E+00  0.64537710311E+02  0.64972428796E+02  0.74470750000E+01 0. -1.
<mgrwt>
<rscale>  0 0.15050038E+02</rscale>
<asrwt>0</asrwt>
<pdfrwt beam="2">  1        2 0.99903672E+00 0.15050038E+02</pdfrwt>
<pdfrwt beam="1">  1       -2 0.99930512E+00 0.15050038E+02</pdfrwt>
<totfact>-0.81971061E-15</totfact>
</mgrwt>
</event>
<event>
 4    1  0.5160210E-019  0.1494781E+02  0.7818608E-02  0.1869665E+00
         -2   -1    0    0    0  501 -0.00000000000E+00  0.00000000000E+00  0.11899716695E+03  0.11899716698E+03  0.25500000000E-02 0.  1.
          2   -1    0    0  501    0  0.00000000000E+00 -0.00000000000E+00 -0.46941329096E+00  0.46942021711E+00  0.25500000000E-02 0. -1.
         31    1    1    2    0    0  0.21996339924E+00  0.55248280384E+00  0.57536369801E+02  0.58019362260E+02  0.74470750000E+01 0. -1.
        -31    1    1    2    0    0 -0.21996339924E+00 -0.55248280384E+00  0.60991383859E+02  0.61447224935E+02  0.74470750000E+01 0.  1.
<mgrwt>
<rscale>  0 0.14947811E+02</rscale>
<asrwt>0</asrwt>
<pdfrwt beam="2">  1        2 0.99695587E+00 0.14947811E+02</pdfrwt>
<pdfrwt beam="1">  1       -2 0.98783333E+00 0.14947811E+02</pdfrwt>
<totfact> 0.12372222E-13</totfact>
</mgrwt>
</event>
<event>
 4    1 -0.5160210E-019  0.1500501E+02  0.7818608E-02  0.1867916E+00
          2   -1    0    0  501    0  0.00000000000E+00  0.00000000000E+00  0.12030571018E+03  0.12030571021E+03  0.25500000000E-02 0.  1.
         -2   -1    0    0    0  501 -0.00000000000E+00 -0.00000000000E+00 -0.46786782462E+00  0.46787477365E+00  0.25500000000E-02 0. -1.
         31    1    1    2    0    0  0.30521066607E+00 -0.64125005080E+00  0.64502623716E+02  0.64934980923E+02  0.74470750000E+01 0.  1.
        -31    1    1    2    0    0 -0.30521066607E+00  0.64125005080E+00  0.55335218642E+02  0.55838604061E+02  0.74470750000E+01 0. -1.
<mgrwt>
<rscale>  0 0.15005011E+02</rscale>
<asrwt>0</asrwt>
<pdfrwt beam="1">  1        2 0.99864050E+00 0.15005011E+02</pdfrwt>
<pdfrwt beam="2">  1       -2 0.99372879E+00 0.15005011E+02</pdfrwt>
<totfact>-0.45763680E-14</totfact>
</mgrwt>
</event>
<event>
 4    1 -0.5160210E-019  0.1495539E+02  0.7818608E-02  0.1869433E+00
         -2   -1    0    0    0  501 -0.00000000000E+00  0.00000000000E+00  0.12008461087E+03  0.12008461089E+03  0.25500000000E-02 0. -1.
          2   -1    0    0  501    0  0.00000000000E+00 -0.00000000000E+00 -0.46563434356E+00  0.46564132592E+00  0.25500000000E-02 0.  1.
         31    1    1    2    0    0 -0.20622285278E+00  0.53560787174E+00  0.62688978506E+02  0.63132371695E+02  0.74470750000E+01 0. -1.
        -31    1    1    2    0    0  0.20622285278E+00 -0.53560787174E+00  0.56929998016E+02  0.57417880524E+02  0.74470750000E+01 0. -1.
<mgrwt>
<rscale>  0 0.14955393E+02</rscale>
<asrwt>0</asrwt>
<pdfrwt beam="2">  1        2 0.98899632E+00 0.14955393E+02</pdfrwt>
<pdfrwt beam="1">  1       -2 0.99679383E+00 0.14955393E+02</pdfrwt>
<totfact>-0.16546515E-13</totfact>
</mgrwt>
</event>
<event>
 4    1 -0.5160210E-019  0.1500318E+02  0.7818608E-02  0.1867971E+00
          2   -1    0    0  501    0  0.00000000000E+00  0.00000000000E+00  0.11967680264E+03  0.11967680267E+03  0.25500000000E-02 0.  1.
         -2   -1    0    0    0  501 -0.00000000000E+00 -0.00000000000E+00 -0.47021177097E+00  0.47021868536E+00  0.25500000000E-02 0. -1.
         31    1    1    2    0    0 -0.79444698613E+00 -0.12267002147E-01  0.63034987464E+02  0.63478341717E+02  0.74470750000E+01 0. -1.
        -31    1    1    2    0    0  0.79444698613E+00  0.12267002147E-01  0.56171603408E+02  0.56668679638E+02  0.74470750000E+01 0. -1.
<mgrwt>
<rscale>  0 0.15003181E+02</rscale>
<asrwt>0</asrwt>
<pdfrwt beam="1">  1        2 0.99345964E+00 0.15003181E+02</pdfrwt>
<pdfrwt beam="2">  1       -2 0.99866733E+00 0.15003181E+02</pdfrwt>
<totfact>-0.57393844E-14</totfact>
</mgrwt>
</event>
<event>
 4    1 -0.5160210E-019  0.1489515E+02  0.7818608E-02  0.1871285E+00
         -2   -1    0    0    0  501 -0.00000000000E+00  0.00000000000E+00  0.12002426684E+03  0.12002426687E+03  0.25500000000E-02 0.  1.
          2   -1    0    0  501    0  0.00000000000E+00 -0.00000000000E+00 -0.46212274594E+00  0.46212978136E+00  0.25500000000E-02 0. -1.
         31    1    1    2    0    0  0.28109452599E-02  0.28626186571E-01  0.59123133848E+02  0.59590307176E+02  0.74470750000E+01 0.  1.
        -31    1    1    2    0    0 -0.28109452599E-02 -0.28626186571E-01  0.60439010245E+02  0.60896089471E+02  0.74470750000E+01 0.  1.
<mgrwt>
<rscale>  0 0.14895149E+02</rscale>
<asrwt>0</asrwt>
<pdfrwt beam="2">  1        2 0.98156458E+00 0.14895149E+02</pdfrwt>
<pdfrwt beam="1">  1       -2 0.99626583E+00 0.14895149E+02</pdfrwt>
<totfact>-0.56094566E-13</totfact>
</mgrwt>
</event>
<event>
 4    1 -0.5160210E-019  0.1493330E+02  0.7818608E-02  0.1870111E+00
         -2   -1    0    0    0  501 -0.00000000000E+00  0.00000000000E+00  0.12013404867E+03  0.12013404869E+03  0.25500000000E-02 0. -1.
          2   -1    0    0  501    0  0.00000000000E+00 -0.00000000000E+00 -0.46406867168E+00  0.46407567759E+00  0.25500000000E-02 0.  1.
         31    1    1    2    0    0 -0.42967937934E-01  0.48665206795E+00  0.61698903727E+02  0.62148630907E+02  0.74470750000E+01 0.  1.
        -31    1    1    2    0    0  0.42967937934E-01 -0.48665206795E+00  0.57971076268E+02  0.58449493464E+02  0.74470750000E+01 0.  1.
<mgrwt>
<rscale>  0 0.14933301E+02</rscale>
<asrwt>0</asrwt>
<pdfrwt beam="2">  1        2 0.98568528E+00 0.14933301E+02</pdfrwt>
<pdfrwt beam="1">  1       -2 0.99718967E+00 0.14933301E+02</pdfrwt>
<totfact>-0.23864629E-13</totfact>
</mgrwt>
</event>
<event>
 4    1 -0.5160210E-019  0.1493271E+02  0.7818608E-02  0.1870129E+00
          2   -1    0    0  501    0  0.00000000000E+00  0.00000000000E+00  0.11860289021E+03  0.11860289024E+03  0.25500000000E-02 0.  1.
         -2   -1    0    0    0  501 -0.00000000000E+00 -0.00000000000E+00 -0.47002292052E+00  0.47002983769E+00  0.25500000000E-02 0. -1.
         31    1    1    2    0    0  0.25862823548E-02  0.44426104361E+00  0.56671725125E+02  0.57160657180E+02  0.74470750000E+01 0.  1.
        -31    1    1    2    0    0 -0.25862823548E-02 -0.44426104361E+00  0.61461142169E+02  0.61912262900E+02  0.74470750000E+01 0.  1.
<mgrwt>
<rscale>  0 0.14932714E+02</rscale>
<asrwt>0</asrwt>
<pdfrwt beam="1">  1        2 0.98457821E+00 0.14932714E+02</pdfrwt>
<pdfrwt beam="2">  1       -2 0.99823245E+00 0.14932714E+02</pdfrwt>
<totfact>-0.19970659E-13</totfact>
</mgrwt>
</event>
<event>
 4    1 -0.5160210E-019  0.1495549E+02  0.7818608E-02  0.1869430E+00
          2   -1    0    0  501    0  0.00000000000E+00  0.00000000000E+00  0.11919981321E+03  0.11919981324E+03  0.25500000000E-02 0.  1.
         -2   -1    0    0    0  501 -0.00000000000E+00 -0.00000000000E+00 -0.46909653763E+00  0.46910346845E+00  0.25500000000E-02 0. -1.
         31    1    1    2    0    0 -0.55389247337E+00  0.38595213539E+00  0.59011649899E+02  0.59483522977E+02  0.74470750000E+01 0.  1.
        -31    1    1    2    0    0  0.55389247337E+00 -0.38595213539E+00  0.59719066778E+02  0.60185393734E+02  0.74470750000E+01 0. -1.
<mgrwt>
<rscale>  0 0.14955485E+02</rscale>
<asrwt>0</asrwt>
<pdfrwt beam="1">  1        2 0.98950633E+00 0.14955485E+02</pdfrwt>
<pdfrwt beam="2">  1       -2 0.99629244E+00 0.14955485E+02</pdfrwt>
<totfact>-0.16988333E-13</totfact>
</mgrwt>
</event>
<event>
 4    1 -0.5160210E-019  0.1493547E+02  0.7818608E-02  0.1870044E+00
          2   -1    0    0  501    0  0.00000000000E+00  0.00000000000E+00  0.11897937107E+03  0.11897937109E+03  0.25500000000E-02 0.  1.
         -2   -1    0    0    0  501 -0.00000000000E+00 -0.00000000000E+00 -0.46870876682E+00  0.46871570338E+00  0.25500000000E-02 0. -1.
         31    1    1    2    0    0  0.35337509062E+00  0.17659935417E+00  0.62374428277E+02  0.62818661959E+02  0.74470750000E+01 0.  1.
        -31    1    1    2    0    0 -0.35337509062E+00 -0.17659935417E+00  0.56136234022E+02  0.56629424839E+02  0.74470750000E+01 0. -1.
<mgrwt>
<rscale>  0 0.14935473E+02</rscale>
<asrwt>0</asrwt>
<pdfrwt beam="1">  1        2 0.98768036E+00 0.14935473E+02</pdfrwt>
<pdfrwt beam="2">  1       -2 0.99546488E+00 0.14935473E+02</pdfrwt>
<totfact>-0.22831745E-13</totfact>
</mgrwt>
</event>
<event>
 4    1  0.5160210E-019  0.1492287E+02  0.7818608E-02  0.1870431E+00
         -2   -1    0    0    0  501 -0.00000000000E+00  0.00000000000E+00  0.11828249431E+03  0.11828249434E+03  0.25500000000E-02 0. -1.
          2   -1    0    0  501    0  0.00000000000E+00 -0.00000000000E+00 -0.47067471039E+00  0.47068161798E+00  0.25500000000E-02 0.  1.
         31    1    1    2    0    0  0.99952266631E-01  0.32873714663E+00  0.61371619547E+02  0.61822752045E+02  0.74470750000E+01 0. -1.
        -31    1    1    2    0    0 -0.99952266631E-01 -0.32873714663E+00  0.56440200053E+02  0.56930423910E+02  0.74470750000E+01 0.  1.
<mgrwt>
<rscale>  0 0.14922867E+02</rscale>
<asrwt>0</asrwt>
<pdfrwt beam="2">  1        2 0.99960052E+00 0.14922867E+02</pdfrwt>
<pdfrwt beam="1">  1       -2 0.98193435E+00 0.14922867E+02</pdfrwt>
<totfact> 0.13023296E-13</totfact>
</mgrwt>
</event>
<event>
 4    1  0.5160210E-019  0.1491162E+02  0.7818608E-02  0.1870777E+00
         -2   -1    0    0    0  501 -0.00000000000E+00  0.00000000000E+00  0.11860399722E+03  0.11860399724E+03  0.25500000000E-02 0. -1.
          2   -1    0    0  501    0  0.00000000000E+00 -0.00000000000E+00 -0.46869168221E+00  0.46869861902E+00  0.25500000000E-02 0.  1.
         31    1    1    2    0    0 -0.30530515149E+00 -0.89473745224E-01  0.60426989787E+02  0.60884983678E+02  0.74470750000E+01 0. -1.
        -31    1    1    2    0    0  0.30530515149E+00  0.89473745224E-01  0.57708315747E+02  0.58187712184E+02  0.74470750000E+01 0.  1.
<mgrwt>
<rscale>  0 0.14911623E+02</rscale>
<asrwt>0</asrwt>
<pdfrwt beam="2">  1        2 0.99541638E+00 0.14911623E+02</pdfrwt>
<pdfrwt beam="1">  1       -2 0.98457636E+00 0.14911623E+02</pdfrwt>
<totfact> 0.52008631E-13</totfact>
</mgrwt>
</event>
<event>
 4    1 -0.5160210E-019  0.1492486E+02  0.7818608E-02  0.1870370E+00
          2   -1    0    0  501    0  0.00000000000E+00  0.00000000000E+00  0.11857004299E+03  0.11857004301E+03  0.25500000000E-02 0.  1.
         -2   -1    0    0    0  501 -0.00000000000E+00 -0.00000000000E+00 -0.46965890502E+00  0.46966582754E+00  0.25500000000E-02 0. -1.
         31    1    1    2    0    0  0.13809928659E-01 -0.15966555020E+00  0.62646270734E+02  0.63087556988E+02  0.74470750000E+01 0.  1.
        -31    1    1    2    0    0 -0.13809928659E-01  0.15966555020E+00  0.55454113346E+02  0.55952151852E+02  0.74470750000E+01 0. -1.
<mgrwt>
<rscale>  0 0.14924864E+02</rscale>
<asrwt>0</asrwt>
<pdfrwt beam="1">  1        2 0.98430360E+00 0.14924864E+02</pdfrwt>
<pdfrwt beam="2">  1       -2 0.99746133E+00 0.14924864E+02</pdfrwt>
<totfact>-0.27775605E-13</totfact>
</mgrwt>
</event>
<event>
 4    1 -0.5160210E-019  0.1492949E+02  0.7818608E-02  0.1870228E+00
          2   -1    0    0  501    0  0.00000000000E+00  0.00000000000E+00  0.11868366767E+03  0.11868366769E+03  0.25500000000E-02 0.  1.
         -2   -1    0    0    0  501 -0.00000000000E+00 -0.00000000000E+00 -0.46950008303E+00  0.46950700790E+00  0.25500000000E-02 0. -1.
         31    1    1    2    0    0  0.37970110367E+00 -0.95568310418E-01  0.56457975459E+02  0.56948355772E+02  0.74470750000E+01 0. -1.
        -31    1    1    2    0    0 -0.37970110367E+00  0.95568310418E-01  0.61756192124E+02  0.62204818929E+02  0.74470750000E+01 0. -1.
<mgrwt>
<rscale>  0 0.14929488E+02</rscale>
<asrwt>0</asrwt>
<pdfrwt beam="1">  1        2 0.98524182E+00 0.14929488E+02</pdfrwt>
<pdfrwt beam="2">  1       -2 0.99712912E+00 0.14929488E+02</pdfrwt>
<totfact>-0.25975374E-13</totfact>
</mgrwt>
</event>
<event>
 4    1  0.5160210E-019  0.1493608E+02  0.7818608E-02  0.1870025E+00
         -2   -1    0    0    0  501 -0.00000000000E+00  0.00000000000E+00  0.11863244408E+03  0.11863244411E+03  0.25500000000E-02 0. -1.
          2   -1    0    0  501    0  0.00000000000E+00 -0.00000000000E+00 -0.47011786349E+00  0.47012477926E+00  0.25500000000E-02 0.  1.
         31    1    1    2    0    0  0.27839177224E+00 -0.62633164766E-01  0.55246154973E+02  0.55746551375E+02  0.74470750000E+01 0.  1.
        -31    1    1    2    0    0 -0.27839177224E+00  0.62633164766E-01  0.62916171244E+02  0.63356017511E+02  0.74470750000E+01 0. -1.
<mgrwt>
<rscale>  0 0.14936083E+02</rscale>
<asrwt>0</asrwt>
<pdfrwt beam="2">  1        2 0.99843427E+00 0.14936083E+02</pdfrwt>
<pdfrwt beam="1">  1       -2 0.98482337E+00 0.14936083E+02</pdfrwt>
<totfact> 0.22978420E-13</totfact>
</mgrwt>
</event>
<event>
 4    1  0.5160210E-019  0.1490602E+02  0.7818608E-02  0.1870950E+00
          2   -1    0    0  501    0  0.00000000000E+00  0.00000000000E+00  0.12029805598E+03  0.12029805601E+03  0.25500000000E-02 0. -1.
         -2   -1    0    0    0  501 -0.00000000000E+00 -0.00000000000E+00 -0.46174441130E+00  0.46175145248E+00  0.25500000000E-02 0.  1.
         31    1    1    2    0    0  0.20141522289E+00 -0.14707703087E+00  0.61230884701E+02  0.61682593712E+02  0.74470750000E+01 0. -1.
        -31    1    1    2    0    0 -0.20141522289E+00  0.14707703087E+00  0.58605426873E+02  0.59077213752E+02  0.74470750000E+01 0.  1.
<mgrwt>
<rscale>  0 0.14906023E+02</rscale>
<asrwt>0</asrwt>
<pdfrwt beam="1">  1        2 0.99852658E+00 0.14906023E+02</pdfrwt>
<pdfrwt beam="2">  1       -2 0.98077263E+00 0.14906023E+02</pdfrwt>
<totfact> 0.53057133E-13</totfact>
</mgrwt>
</event>
<event>
 4    1 -0.5160210E-019  0.1491438E+02  0.7818608E-02  0.1870693E+00
          2   -1    0    0  501    0  0.00000000000E+00  0.00000000000E+00  0.11841366986E+03  0.11841366989E+03  0.25500000000E-02 0. -1.
         -2   -1    0    0    0  501 -0.00000000000E+00 -0.00000000000E+00 -0.46961849627E+00  0.46962541940E+00  0.25500000000E-02 0.  1.
         31    1    1    2    0    0 -0.15742402773E+00 -0.32690675734E+00  0.57870798664E+02  0.58349120939E+02  0.74470750000E+01 0. -1.
        -31    1    1    2    0    0  0.15742402773E+00  0.32690675734E+00  0.60073252702E+02  0.60534174369E+02  0.74470750000E+01 0. -1.
<mgrwt>
<rscale>  0 0.14914377E+02</rscale>
<asrwt>0</asrwt>
<pdfrwt beam="1">  1        2 0.98301026E+00 0.14914377E+02</pdfrwt>
<pdfrwt beam="2">  1       -2 0.99737065E+00 0.14914377E+02</pdfrwt>
<totfact>-0.35386877E-13</totfact>
</mgrwt>
</event>
<event>
 4    1  0.5160210E-019  0.1493061E+02  0.7818608E-02  0.1870193E+00
         -2   -1    0    0    0  501 -0.00000000000E+00  0.00000000000E+00  0.11883650015E+03  0.11883650018E+03  0.25500000000E-02 0.  1.
          2   -1    0    0  501    0  0.00000000000E+00 -0.00000000000E+00 -0.46896698885E+00  0.46897392159E+00  0.25500000000E-02 0. -1.
         31    1    1    2    0    0 -0.23458443202E+00 -0.46218519459E+00  0.59638586521E+02  0.60103981343E+02  0.74470750000E+01 0.  1.
        -31    1    1    2    0    0  0.23458443202E+00  0.46218519459E+00  0.58728946644E+02  0.59201492760E+02  0.74470750000E+01 0.  1.
<mgrwt>
<rscale>  0 0.14930614E+02</rscale>
<asrwt>0</asrwt>
<pdfrwt beam="2">  1        2 0.99600644E+00 0.14930614E+02</pdfrwt>
<pdfrwt beam="1">  1       -2 0.98650113E+00 0.14930614E+02</pdfrwt>
<totfact> 0.26428293E-13</totfact>
</mgrwt>
</event>
<event>
 4    1  0.5160210E-019  0.1494103E+02  0.7818608E-02  0.1869873E+00
         -2   -1    0    0    0  501 -0.00000000000E+00  0.00000000000E+00  0.11898005205E+03  0.11898005208E+03  0.25500000000E-02 0.  1.
          2   -1    0    0  501    0  0.00000000000E+00 -0.00000000000E+00 -0.46905485739E+00  0.46906178883E+00  0.25500000000E-02 0. -1.
         31    1    1    2    0    0  0.14287259949E+00  0.45845522503E+00  0.62014159751E+02  0.62461552410E+02  0.74470750000E+01 0. -1.
        -31    1    1    2    0    0 -0.14287259949E+00 -0.45845522503E+00  0.56496837440E+02  0.56987561455E+02  0.74470750000E+01 0. -1.
<mgrwt>
<rscale>  0 0.14941029E+02</rscale>
<asrwt>0</asrwt>
<pdfrwt beam="2">  1        2 0.99619705E+00 0.14941029E+02</pdfrwt>
<pdfrwt beam="1">  1       -2 0.98768885E+00 0.14941029E+02</pdfrwt>
<totfact> 0.15370896E-13</totfact>
</mgrwt>
</event>
<event>
 4    1 -0.5160210E-019  0.1499376E+02  0.7818608E-02  0.1868259E+00
          2   -1    0    0  501    0  0.00000000000E+00  0.00000000000E+00  0.12036023385E+03  0.12036023387E+03  0.25500000000E-02 0.  1.
         -2   -1    0    0    0  501 -0.00000000000E+00 -0.00000000000E+00 -0.46695492987E+00  0.46696189248E+00  0.25500000000E-02 0. -1.
         31    1    1    2    0    0 -0.38238891261E+00 -0.26099642813E+00  0.65813094747E+02  0.66234709229E+02  0.74470750000E+01 0.  1.
        -31    1    1    2    0    0  0.38238891261E+00  0.26099642813E+00  0.54080184170E+02  0.54592486537E+02  0.74470750000E+01 0. -1.
<mgrwt>
<rscale>  0 0.14993762E+02</rscale>
<asrwt>0</asrwt>
<pdfrwt beam="1">  1        2 0.99908379E+00 0.14993762E+02</pdfrwt>
<pdfrwt beam="2">  1       -2 0.99179910E+00 0.14993762E+02</pdfrwt>
<totfact>-0.20516277E-14</totfact>
</mgrwt>
</event>
<event>
 4    1 -0.5160210E-019  0.1494640E+02  0.7818608E-02  0.1869709E+00
          2   -1    0    0  501    0  0.00000000000E+00  0.00000000000E+00  0.11929938841E+03  0.11929938844E+03  0.25500000000E-02 0. -1.
         -2   -1    0    0    0  501 -0.00000000000E+00 -0.00000000000E+00 -0.46813570264E+00  0.46814264769E+00  0.25500000000E-02 0.  1.
         31    1    1    2    0    0  0.56760567829E+00  0.25420546373E+00  0.59854367678E+02  0.60319077022E+02  0.74470750000E+01 0. -1.
        -31    1    1    2    0    0 -0.56760567829E+00 -0.25420546373E+00  0.58976885028E+02  0.59448454061E+02  0.74470750000E+01 0. -1.
<mgrwt>
<rscale>  0 0.14946400E+02</rscale>
<asrwt>0</asrwt>
<pdfrwt beam="1">  1        2 0.99032174E+00 0.14946400E+02</pdfrwt>
<pdfrwt beam="2">  1       -2 0.99426302E+00 0.14946400E+02</pdfrwt>
<totfact>-0.17202021E-13</totfact>
</mgrwt>
</event>
<event>
 4    1 -0.5160210E-019  0.1490382E+02  0.7818608E-02  0.1871018E+00
         -2   -1    0    0    0  501 -0.00000000000E+00  0.00000000000E+00  0.12020407597E+03  0.12020407600E+03  0.25500000000E-02 0. -1.
          2   -1    0    0  501    0  0.00000000000E+00 -0.00000000000E+00 -0.46196878905E+00  0.46197582681E+00  0.25500000000E-02 0.  1.
         31    1    1    2    0    0  0.13181197012E+00  0.41746548628E-01  0.58008646636E+02  0.58484879480E+02  0.74470750000E+01 0.  1.
        -31    1    1    2    0    0 -0.13181197012E+00 -0.41746548628E-01  0.61733460544E+02  0.62181172343E+02  0.74470750000E+01 0. -1.
<mgrwt>
<rscale>  0 0.14903819E+02</rscale>
<asrwt>0</asrwt>
<pdfrwt beam="2">  1        2 0.98124446E+00 0.14903819E+02</pdfrwt>
<pdfrwt beam="1">  1       -2 0.99775134E+00 0.14903819E+02</pdfrwt>
<totfact>-0.42438695E-13</totfact>
</mgrwt>
</event>
<event>
 4    1 -0.5160210E-019  0.1492181E+02  0.7818608E-02  0.1870464E+00
          2   -1    0    0  501    0  0.00000000000E+00  0.00000000000E+00  0.11868938401E+03  0.11868938404E+03  0.25500000000E-02 0. -1.
         -2   -1    0    0    0  501 -0.00000000000E+00 -0.00000000000E+00 -0.46899444445E+00  0.46900137678E+00  0.25500000000E-02 0.  1.
         31    1    1    2    0    0  0.40985081749E+00 -0.13899001718E+00  0.58013692471E+02  0.58491321887E+02  0.74470750000E+01 0.  1.
        -31    1    1    2    0    0 -0.40985081749E+00  0.13899001718E+00  0.60206697097E+02  0.60667063530E+02  0.74470750000E+01 0.  1.
<mgrwt>
<rscale>  0 0.14921806E+02</rscale>
<asrwt>0</asrwt>
<pdfrwt beam="1">  1        2 0.98528490E+00 0.14921806E+02</pdfrwt>
<pdfrwt beam="2">  1       -2 0.99605967E+00 0.14921806E+02</pdfrwt>
<totfact>-0.30912158E-13</totfact>
</mgrwt>
</event>
<event>
 4    1 -0.5160210E-019  0.1501490E+02  0.7818608E-02  0.1867614E+00
          2   -1    0    0  501    0  0.00000000000E+00  0.00000000000E+00  0.12011977229E+03  0.12011977232E+03  0.25500000000E-02 0. -1.
         -2   -1    0    0    0  501 -0.00000000000E+00 -0.00000000000E+00 -0.46921010206E+00  0.46921703121E+00  0.25500000000E-02 0.  1.
         31    1    1    2    0    0 -0.89098032362E+00  0.32665062916E+00  0.59435336575E+02  0.59907584715E+02  0.74470750000E+01 0.  1.
        -31    1    1    2    0    0  0.89098032362E+00 -0.32665062916E+00  0.60215225615E+02  0.60681404635E+02  0.74470750000E+01 0.  1.
<mgrwt>
<rscale>  0 0.15014903E+02</rscale>
<asrwt>0</asrwt>
<pdfrwt beam="1">  1        2 0.99711414E+00 0.15014903E+02</pdfrwt>
<pdfrwt beam="2">  1       -2 0.99656261E+00 0.15014903E+02</pdfrwt>
<totfact>-0.74627667E-14</totfact>
</mgrwt>
</event>
<event>
 4    1  0.5160210E-019  0.1490879E+02  0.7818608E-02  0.1870865E+00
         -2   -1    0    0    0  501 -0.00000000000E+00  0.00000000000E+00  0.11809112834E+03  0.11809112836E+03  0.25500000000E-02 0. -1.
          2   -1    0    0  501    0  0.00000000000E+00 -0.00000000000E+00 -0.47054818296E+00  0.47055509240E+00  0.25500000000E-02 0.  1.
         31    1    1    2    0    0  0.24867919754E+00  0.21698245085E+00  0.58720209536E+02  0.59191476217E+02  0.74470750000E+01 0. -1.
        -31    1    1    2    0    0 -0.24867919754E+00 -0.21698245085E+00  0.58900370619E+02  0.59370207241E+02  0.74470750000E+01 0. -1.
<mgrwt>
<rscale>  0 0.14908786E+02</rscale>
<asrwt>0</asrwt>
<pdfrwt beam="2">  1        2 0.99932646E+00 0.14908786E+02</pdfrwt>
<pdfrwt beam="1">  1       -2 0.98035095E+00 0.14908786E+02</pdfrwt>
<totfact> 0.28543195E-13</totfact>
</mgrwt>
</event>
<event>
 4    1  0.5160210E-019  0.1491420E+02  0.7818608E-02  0.1870698E+00
         -2   -1    0    0    0  501 -0.00000000000E+00  0.00000000000E+00  0.11854261232E+03  0.11854261235E+03  0.25500000000E-02 0.  1.
          2   -1    0    0  501    0  0.00000000000E+00 -0.00000000000E+00 -0.46909644120E+00  0.46910337202E+00  0.25500000000E-02 0. -1.
         31    1    1    2    0    0  0.91931354516E-01  0.72049401546E-01  0.61976983379E+02  0.62422904749E+02  0.74470750000E+01 0.  1.
        -31    1    1    2    0    0 -0.91931354516E-01 -0.72049401546E-01  0.56096532502E+02  0.56588810972E+02  0.74470750000E+01 0. -1.
<mgrwt>
<rscale>  0 0.14914199E+02</rscale>
<asrwt>0</asrwt>
<pdfrwt beam="2">  1        2 0.99627058E+00 0.14914199E+02</pdfrwt>
<pdfrwt beam="1">  1       -2 0.98407213E+00 0.14914199E+02</pdfrwt>
<totfact> 0.52612870E-13</totfact>
</mgrwt>
</event>
<event>
 4    1 -0.5160210E-019  0.1492788E+02  0.7818608E-02  0.1870277E+00
         -2   -1    0    0    0  501 -0.00000000000E+00  0.00000000000E+00  0.12002179441E+03  0.12002179444E+03  0.25500000000E-02 0. -1.
          2   -1    0    0  501    0  0.00000000000E+00 -0.00000000000E+00 -0.46416571209E+00  0.46417271654E+00  0.25500000000E-02 0.  1.
         31    1    1    2    0    0 -0.24336314493E+00  0.40320153554E+00  0.58387799001E+02  0.58862685934E+02  0.74470750000E+01 0.  1.
        -31    1    1    2    0    0  0.24336314493E+00 -0.40320153554E+00  0.61169829696E+02  0.61623281219E+02  0.74470750000E+01 0. -1.
<mgrwt>
<rscale>  0 0.14927883E+02</rscale>
<asrwt>0</asrwt>
<pdfrwt beam="2">  1        2 0.98588705E+00 0.14927883E+02</pdfrwt>
<pdfrwt beam="1">  1       -2 0.99626228E+00 0.14927883E+02</pdfrwt>
<totfact>-0.27425617E-13</totfact>
</mgrwt>
</event>
<event>
 4    1 -0.5160210E-019  0.1501574E+02  0.7818608E-02  0.1867589E+00
         -2   -1    0    0    0  501 -0.00000000000E+00  0.00000000000E+00  0.12016204327E+03  0.12016204329E+03  0.25500000000E-02 0.  1.
          2   -1    0    0  501    0  0.00000000000E+00 -0.00000000000E+00 -0.46909708681E+00  0.46910401763E+00  0.25500000000E-02 0. -1.
         31    1    1    2    0    0 -0.51592235260E+00  0.79072033294E+00  0.58776352058E+02  0.59253775422E+02  0.74470750000E+01 0.  1.
        -31    1    1    2    0    0  0.51592235260E+00 -0.79072033294E+00  0.60916594122E+02  0.61377371889E+02  0.74470750000E+01 0. -1.
<mgrwt>
<rscale>  0 0.15015736E+02</rscale>
<asrwt>0</asrwt>
<pdfrwt beam="2">  1        2 0.99632487E+00 0.15015736E+02</pdfrwt>
<pdfrwt beam="1">  1       -2 0.99746273E+00 0.15015736E+02</pdfrwt>
<totfact>-0.71619906E-14</totfact>
</mgrwt>
</event>
<event>
 4    1  0.5160210E-019  0.1491145E+02  0.7818608E-02  0.1870783E+00
          2   -1    0    0  501    0  0.00000000000E+00  0.00000000000E+00  0.11998997753E+03  0.11998997756E+03  0.25500000000E-02 0.  1.
         -2   -1    0    0    0  501 -0.00000000000E+00 -0.00000000000E+00 -0.46326711556E+00  0.46327413360E+00  0.25500000000E-02 0. -1.
         31    1    1    2    0    0  0.17586040574E+00 -0.15784555971E+00  0.61946884847E+02  0.62393359506E+02  0.74470750000E+01 0.  1.
        -31    1    1    2    0    0 -0.17586040574E+00  0.15784555971E+00  0.57579825569E+02  0.58059892186E+02  0.74470750000E+01 0.  1.
<mgrwt>
<rscale>  0 0.14911450E+02</rscale>
<asrwt>0</asrwt>
<pdfrwt beam="1">  1        2 0.99599176E+00 0.14911450E+02</pdfrwt>
<pdfrwt beam="2">  1       -2 0.98398480E+00 0.14911450E+02</pdfrwt>
<totfact> 0.56116205E-13</totfact>
</mgrwt>
</event>
<event>
 4    1 -0.5160210E-019  0.1493210E+02  0.7818608E-02  0.1870147E+00
          2   -1    0    0  501    0  0.00000000000E+00  0.00000000000E+00  0.11902584056E+03  0.11902584059E+03  0.25500000000E-02 0. -1.
         -2   -1    0    0    0  501 -0.00000000000E+00 -0.00000000000E+00 -0.46831437097E+00  0.46832131337E+00  0.25500000000E-02 0.  1.
         31    1    1    2    0    0 -0.29215375179E+00 -0.39309283369E+00  0.57616895492E+02  0.58098239629E+02  0.74470750000E+01 0.  1.
        -31    1    1    2    0    0  0.29215375179E+00  0.39309283369E+00  0.60940630696E+02  0.61395922271E+02  0.74470750000E+01 0.  1.
<mgrwt>
<rscale>  0 0.14932103E+02</rscale>
<asrwt>0</asrwt>
<pdfrwt beam="1">  1        2 0.98806134E+00 0.14932103E+02</pdfrwt>
<pdfrwt beam="2">  1       -2 0.99463207E+00 0.14932103E+02</pdfrwt>
<totfact>-0.22192864E-13</totfact>
</mgrwt>
</event>
<event>
 4    1 -0.5160210E-019  0.1492668E+02  0.7818608E-02  0.1870314E+00
          2   -1    0    0  501    0  0.00000000000E+00  0.00000000000E+00  0.11885980410E+03  0.11885980413E+03  0.25500000000E-02 0. -1.
         -2   -1    0    0    0  501 -0.00000000000E+00 -0.00000000000E+00 -0.46862793704E+00  0.46863487479E+00  0.25500000000E-02 0.  1.
         31    1    1    2    0    0  0.30444289557E+00  0.34057199978E+00  0.60666182756E+02  0.61123263419E+02  0.74470750000E+01 0.  1.
        -31    1    1    2    0    0 -0.30444289557E+00 -0.34057199978E+00  0.57724993410E+02  0.58205175586E+02  0.74470750000E+01 0.  1.
<mgrwt>
<rscale>  0 0.14926680E+02</rscale>
<asrwt>0</asrwt>
<pdfrwt beam="1">  1        2 0.98669102E+00 0.14926680E+02</pdfrwt>
<pdfrwt beam="2">  1       -2 0.99528996E+00 0.14926680E+02</pdfrwt>
<totfact>-0.26456964E-13</totfact>
</mgrwt>
</event>
<event>
 4    1  0.5160210E-019  0.1491323E+02  0.7818608E-02  0.1870728E+00
         -2   -1    0    0    0  501 -0.00000000000E+00  0.00000000000E+00  0.11840686255E+03  0.11840686257E+03  0.25500000000E-02 0.  1.
          2   -1    0    0  501    0  0.00000000000E+00 -0.00000000000E+00 -0.46957297840E+00  0.46957990219E+00  0.25500000000E-02 0. -1.
         31    1    1    2    0    0 -0.35472453011E+00 -0.62671089376E-01  0.59856032824E+02  0.60318598696E+02  0.74470750000E+01 0.  1.
        -31    1    1    2    0    0  0.35472453011E+00  0.62671089376E-01  0.58081256744E+02  0.58557843780E+02  0.74470750000E+01 0. -1.
<mgrwt>
<rscale>  0 0.14913226E+02</rscale>
<asrwt>0</asrwt>
<pdfrwt beam="2">  1        2 0.99727414E+00 0.14913226E+02</pdfrwt>
<pdfrwt beam="1">  1       -2 0.98295360E+00 0.14913226E+02</pdfrwt>
<totfact> 0.55599992E-13</totfact>
</mgrwt>
</event>
<event>
 4    1 -0.5160210E-019  0.1496007E+02  0.7818608E-02  0.1869289E+00
         -2   -1    0    0    0  501 -0.00000000000E+00  0.00000000000E+00  0.11983138085E+03  0.11983138088E+03  0.25500000000E-02 0.  1.
          2   -1    0    0  501    0  0.00000000000E+00 -0.00000000000E+00 -0.46691026376E+00  0.46691722704E+00  0.25500000000E-02 0. -1.
         31    1    1    2    0    0 -0.37740698885E+00  0.58816074317E+00  0.60166515974E+02  0.60629670456E+02  0.74470750000E+01 0.  1.
        -31    1    1    2    0    0  0.37740698885E+00 -0.58816074317E+00  0.59197954617E+02  0.59668627653E+02  0.74470750000E+01 0.  1.
<mgrwt>
<rscale>  0 0.14960070E+02</rscale>
<asrwt>0</asrwt>
<pdfrwt beam="2">  1        2 0.99168769E+00 0.14960070E+02</pdfrwt>
<pdfrwt beam="1">  1       -2 0.99471050E+00 0.14960070E+02</pdfrwt>
<totfact>-0.15529204E-13</totfact>
</mgrwt>
</event>
<event>
 4    1 -0.5160210E-019  0.1502685E+02  0.7818608E-02  0.1867250E+00
          2   -1    0    0  501    0  0.00000000000E+00  0.00000000000E+00  0.12030333896E+03  0.12030333899E+03  0.25500000000E-02 0.  1.
         -2   -1    0    0    0  501 -0.00000000000E+00 -0.00000000000E+00 -0.46924005455E+00  0.46924698326E+00  0.25500000000E-02 0. -1.
         31    1    1    2    0    0 -0.31257116590E+00  0.31527227170E+00  0.52748489460E+02  0.53273437694E+02  0.74470750000E+01 0. -1.
        -31    1    1    2    0    0  0.31257116590E+00 -0.31527227170E+00  0.67085609445E+02  0.67499148276E+02  0.74470750000E+01 0.  1.
<mgrwt>
<rscale>  0 0.15026851E+02</rscale>
<asrwt>0</asrwt>
<pdfrwt beam="1">  1        2 0.99863224E+00 0.15026851E+02</pdfrwt>
<pdfrwt beam="2">  1       -2 0.99663189E+00 0.15026851E+02</pdfrwt>
<totfact>-0.41323775E-14</totfact>
</mgrwt>
</event>
<event>
 4    1  0.5160210E-019  0.1490067E+02  0.7818608E-02  0.1871115E+00
          2   -1    0    0  501    0  0.00000000000E+00  0.00000000000E+00  0.12030108094E+03  0.12030108096E+03  0.25500000000E-02 0.  1.
         -2   -1    0    0    0  501 -0.00000000000E+00 -0.00000000000E+00 -0.46140108996E+00  0.46140813637E+00  0.25500000000E-02 0. -1.
         31    1    1    2    0    0 -0.13293330565E+00 -0.13897115096E+00  0.59048213303E+02  0.59516278484E+02  0.74470750000E+01 0. -1.
        -31    1    1    2    0    0  0.13293330565E+00  0.13897115096E+00  0.60791466543E+02  0.61246210615E+02  0.74470750000E+01 0.  1.
<mgrwt>
<rscale>  0 0.14900668E+02</rscale>
<asrwt>0</asrwt>
<pdfrwt beam="1">  1        2 0.99854875E+00 0.14900668E+02</pdfrwt>
<pdfrwt beam="2">  1       -2 0.98004629E+00 0.14900668E+02</pdfrwt>
<totfact> 0.59440392E-13</totfact>
</mgrwt>
</event>
<event>
 4    1  0.5160210E-019  0.1491327E+02  0.7818608E-02  0.1870727E+00
         -2   -1    0    0    0  501 -0.00000000000E+00  0.00000000000E+00  0.11820661901E+03  0.11820661904E+03  0.25500000000E-02 0.  1.
          2   -1    0    0  501    0  0.00000000000E+00 -0.00000000000E+00 -0.47037133047E+00  0.47037824251E+00  0.25500000000E-02 0. -1.
         31    1    1    2    0    0 -0.27120846157E+00 -0.24085989762E+00  0.59699814530E+02  0.60163596539E+02  0.74470750000E+01 0.  1.
        -31    1    1    2    0    0  0.27120846157E+00  0.24085989762E+00  0.58036433152E+02  0.58513400743E+02  0.74470750000E+01 0. -1.
<mgrwt>
<rscale>  0 0.14913271E+02</rscale>
<asrwt>0</asrwt>
<pdfrwt beam="2">  1        2 0.99895624E+00 0.14913271E+02</pdfrwt>
<pdfrwt beam="1">  1       -2 0.98130445E+00 0.14913271E+02</pdfrwt>
<totfact> 0.35766082E-13</totfact>
</mgrwt>
</event>
<event>
 4    1 -0.5160210E-019  0.1491906E+02  0.7818608E-02  0.1870548E+00
          2   -1    0    0  501    0  0.00000000000E+00  0.00000000000E+00  0.11901366236E+03  0.11901366239E+03  0.25500000000E-02 0. -1.
         -2   -1    0    0    0  501 -0.00000000000E+00 -0.00000000000E+00 -0.46754460938E+00  0.46755156321E+00  0.25500000000E-02 0.  1.
         31    1    1    2    0    0  0.60403320319E-01  0.61103360381E-01  0.62654796801E+02  0.63095878395E+02  0.74470750000E+01 0. -1.
        -31    1    1    2    0    0 -0.60403320319E-01 -0.61103360381E-01  0.55891320948E+02  0.56385335554E+02  0.74470750000E+01 0.  1.
<mgrwt>
<rscale>  0 0.14919063E+02</rscale>
<asrwt>0</asrwt>
<pdfrwt beam="1">  1        2 0.98795427E+00 0.14919063E+02</pdfrwt>
<pdfrwt beam="2">  1       -2 0.99300323E+00 0.14919063E+02</pdfrwt>
<totfact>-0.19498465E-13</totfact>
</mgrwt>
</event>
<event>
 4    1 -0.5160210E-019  0.1496510E+02  0.7818608E-02  0.1869135E+00
         -2   -1    0    0    0  501 -0.00000000000E+00  0.00000000000E+00  0.11981948603E+03  0.11981948606E+03  0.25500000000E-02 0.  1.
          2   -1    0    0  501    0  0.00000000000E+00 -0.00000000000E+00 -0.46727058898E+00  0.46727754689E+00  0.25500000000E-02 0. -1.
         31    1    1    2    0    0  0.11283029607E+00  0.27993948623E+00  0.64998814060E+02  0.65424734253E+02  0.74470750000E+01 0.  1.
        -31    1    1    2    0    0 -0.11283029607E+00 -0.27993948623E+00  0.54353401383E+02  0.54862029354E+02  0.74470750000E+01 0. -1.
<mgrwt>
<rscale>  0 0.14965098E+02</rscale>
<asrwt>0</asrwt>
<pdfrwt beam="2">  1        2 0.99244963E+00 0.14965098E+02</pdfrwt>
<pdfrwt beam="1">  1       -2 0.99461512E+00 0.14965098E+02</pdfrwt>
<totfact>-0.14678136E-13</totfact>
</mgrwt>
</event>
<event>
 4    1 -0.5160210E-019  0.1496895E+02  0.7818608E-02  0.1869017E+00
          2   -1    0    0  501    0  0.00000000000E+00  0.00000000000E+00  0.11989726769E+03  0.11989726772E+03  0.25500000000E-02 0.  1.
         -2   -1    0    0    0  501 -0.00000000000E+00 -0.00000000000E+00 -0.46720807690E+00  0.46721503574E+00  0.25500000000E-02 0. -1.
         31    1    1    2    0    0 -0.66818395399E+00  0.19844405045E+00  0.61881856973E+02  0.62332246858E+02  0.74470750000E+01 0.  1.
        -31    1    1    2    0    0  0.66818395399E+00 -0.19844405045E+00  0.57548202640E+02  0.58032235895E+02  0.74470750000E+01 0. -1.
<mgrwt>
<rscale>  0 0.14968954E+02</rscale>
<asrwt>0</asrwt>
<pdfrwt beam="1">  1        2 0.99525776E+00 0.14968954E+02</pdfrwt>
<pdfrwt beam="2">  1       -2 0.99231988E+00 0.14968954E+02</pdfrwt>
<totfact>-0.85574588E-14</totfact>
</mgrwt>
</event>
<event>
 4    1 -0.5160210E-019  0.1499020E+02  0.7818608E-02  0.1868368E+00
         -2   -1    0    0    0  501 -0.00000000000E+00  0.00000000000E+00  0.11992705426E+03  0.11992705429E+03  0.25500000000E-02 0.  1.
          2   -1    0    0  501    0  0.00000000000E+00 -0.00000000000E+00 -0.46841874418E+00  0.46842568503E+00  0.25500000000E-02 0. -1.
         31    1    1    2    0    0 -0.23929938368E+00  0.40573266145E-01  0.66247620670E+02  0.66665321426E+02  0.74470750000E+01 0.  1.
        -31    1    1    2    0    0  0.23929938368E+00 -0.40573266145E-01  0.53211014851E+02  0.53730158551E+02  0.74470750000E+01 0. -1.
<mgrwt>
<rscale>  0 0.14990197E+02</rscale>
<asrwt>0</asrwt>
<pdfrwt beam="2">  1        2 0.99488217E+00 0.14990197E+02</pdfrwt>
<pdfrwt beam="1">  1       -2 0.99551406E+00 0.14990197E+02</pdfrwt>
<totfact>-0.11809495E-13</totfact>
</mgrwt>
</event>
<event>
 4    1 -0.5160210E-019  0.1492818E+02  0.7818608E-02  0.1870268E+00
          2   -1    0    0  501    0  0.00000000000E+00  0.00000000000E+00  0.11938860434E+03  0.11938860437E+03  0.25500000000E-02 0.  1.
         -2   -1    0    0    0  501 -0.00000000000E+00 -0.00000000000E+00 -0.46664600927E+00  0.46665297649E+00  0.25500000000E-02 0. -1.
         31    1    1    2    0    0 -0.26540508336E+00  0.36497035516E+00  0.61257450100E+02  0.61710110695E+02  0.74470750000E+01 0.  1.
        -31    1    1    2    0    0  0.26540508336E+00 -0.36497035516E+00  0.57664508232E+02  0.58145146650E+02  0.74470750000E+01 0.  1.
<mgrwt>
<rscale>  0 0.14928179E+02</rscale>
<asrwt>0</asrwt>
<pdfrwt beam="1">  1        2 0.99104713E+00 0.14928179E+02</pdfrwt>
<pdfrwt beam="2">  1       -2 0.99111436E+00 0.14928179E+02</pdfrwt>
<totfact>-0.63715401E-14</totfact>
</mgrwt>
</event>
<event>
 4    1  0.5160210E-019  0.1490054E+02  0.7818608E-02  0.1871119E+00
         -2   -1    0    0    0  501 -0.00000000000E+00  0.00000000000E+00  0.11866763859E+03  0.11866763861E+03  0.25500000000E-02 0.  1.
          2   -1    0    0  501    0  0.00000000000E+00 -0.00000000000E+00 -0.46774428215E+00  0.46775123301E+00  0.25500000000E-02 0. -1.
         31    1    1    2    0    0  0.14279543877E+00  0.12682301085E+00  0.59943238710E+02  0.60404364642E+02  0.74470750000E+01 0.  1.
        -31    1    1    2    0    0 -0.14279543877E+00 -0.12682301085E+00  0.58256655594E+02  0.58731025205E+02  0.74470750000E+01 0.  1.
<mgrwt>
<rscale>  0 0.14900540E+02</rscale>
<asrwt>0</asrwt>
<pdfrwt beam="2">  1        2 0.99341430E+00 0.14900540E+02</pdfrwt>
<pdfrwt beam="1">  1       -2 0.98509476E+00 0.14900540E+02</pdfrwt>
<totfact> 0.54062855E-13</totfact>
</mgrwt>
</event>
<event>
 4    1  0.5160210E-019  0.1489953E+02  0.7818608E-02  0.1871150E+00
         -2   -1    0    0    0  501 -0.00000000000E+00  0.00000000000E+00  0.11839634699E+03  0.11839634702E+03  0.25500000000E-02 0. -1.
          2   -1    0    0  501    0  0.00000000000E+00 -0.00000000000E+00 -0.46875258933E+00  0.46875952524E+00  0.25500000000E-02 0.  1.
         31    1    1    2    0    0 -0.18433522462E+00  0.16349300987E-01  0.58354385031E+02  0.58827947654E+02  0.74470750000E+01 0.  1.
        -31    1    1    2    0    0  0.18433522462E+00 -0.16349300987E-01  0.59573209371E+02  0.60037158890E+02  0.74470750000E+01 0. -1.
<mgrwt>
<rscale>  0 0.14899531E+02</rscale>
<asrwt>0</asrwt>
<pdfrwt beam="2">  1        2 0.99553835E+00 0.14899531E+02</pdfrwt>
<pdfrwt beam="1">  1       -2 0.98285987E+00 0.14899531E+02</pdfrwt>
<totfact> 0.77279411E-13</totfact>
</mgrwt>
</event>
<event>
 4    1 -0.5160210E-019  0.1498703E+02  0.7818608E-02  0.1868465E+00
          2   -1    0    0  501    0  0.00000000000E+00  0.00000000000E+00  0.11960953170E+03  0.11960953173E+03  0.25500000000E-02 0. -1.
         -2   -1    0    0    0  501 -0.00000000000E+00 -0.00000000000E+00 -0.46946388991E+00  0.46947081531E+00  0.25500000000E-02 0.  1.
         31    1    1    2    0    0  0.49956115022E+00  0.38332882428E+00  0.55201035977E+02  0.55704665884E+02  0.74470750000E+01 0.  1.
        -31    1    1    2    0    0 -0.49956115022E+00 -0.38332882428E+00  0.63939031834E+02  0.64374336659E+02  0.74470750000E+01 0. -1.
<mgrwt>
<rscale>  0 0.14987031E+02</rscale>
<asrwt>0</asrwt>
<pdfrwt beam="1">  1        2 0.99289721E+00 0.14987031E+02</pdfrwt>
<pdfrwt beam="2">  1       -2 0.99708297E+00 0.14987031E+02</pdfrwt>
<totfact>-0.11161499E-13</totfact>
</mgrwt>
</event>
<event>
 4    1 -0.5160210E-019  0.1496916E+02  0.7818608E-02  0.1869011E+00
          2   -1    0    0  501    0  0.00000000000E+00  0.00000000000E+00  0.11918112255E+03  0.11918112258E+03  0.25500000000E-02 0. -1.
         -2   -1    0    0    0  501 -0.00000000000E+00 -0.00000000000E+00 -0.47002854501E+00  0.47003546209E+00  0.25500000000E-02 0.  1.
         31    1    1    2    0    0 -0.14906659715E+00  0.72687970132E+00  0.60132328815E+02  0.60596257886E+02  0.74470750000E+01 0. -1.
        -31    1    1    2    0    0  0.14906659715E+00 -0.72687970132E+00  0.58578765193E+02  0.59054900157E+02  0.74470750000E+01 0.  1.
<mgrwt>
<rscale>  0 0.14969161E+02</rscale>
<asrwt>0</asrwt>
<pdfrwt beam="1">  1        2 0.98935949E+00 0.14969161E+02</pdfrwt>
<pdfrwt beam="2">  1       -2 0.99826347E+00 0.14969161E+02</pdfrwt>
<totfact>-0.10079366E-13</totfact>
</mgrwt>
</event>
<event>
 4    1  0.5160210E-019  0.1492502E+02  0.7818608E-02  0.1870365E+00
         -2   -1    0    0    0  501 -0.00000000000E+00  0.00000000000E+00  0.11867614792E+03  0.11867614795E+03  0.25500000000E-02 0.  1.
          2   -1    0    0  501    0  0.00000000000E+00 -0.00000000000E+00 -0.46924880409E+00  0.46925573267E+00  0.25500000000E-02 0. -1.
         31    1    1    2    0    0  0.17781455531E+00 -0.12971724360E+00  0.55700770407E+02  0.56196825484E+02  0.74470750000E+01 0. -1.
        -31    1    1    2    0    0 -0.17781455531E+00  0.12971724360E+00  0.62506128713E+02  0.62948578199E+02  0.74470750000E+01 0.  1.
<mgrwt>
<rscale>  0 0.14925020E+02</rscale>
<asrwt>0</asrwt>
<pdfrwt beam="2">  1        2 0.99659731E+00 0.14925020E+02</pdfrwt>
<pdfrwt beam="1">  1       -2 0.98517756E+00 0.14925020E+02</pdfrwt>
<totfact> 0.36940992E-13</totfact>
</mgrwt>
</event>
<event>
 4    1 -0.5160210E-019  0.1490826E+02  0.7818608E-02  0.1870881E+00
          2   -1    0    0  501    0  0.00000000000E+00  0.00000000000E+00  0.11847338102E+03  0.11847338105E+03  0.25500000000E-02 0.  1.
         -2   -1    0    0    0  501 -0.00000000000E+00 -0.00000000000E+00 -0.46899690840E+00  0.46900384070E+00  0.25500000000E-02 0. -1.
         31    1    1    2    0    0 -0.36015764400E-01  0.31924679343E+00  0.58652453036E+02  0.59124211529E+02  0.74470750000E+01 0. -1.
        -31    1    1    2    0    0  0.36015764400E-01 -0.31924679343E+00  0.59351931079E+02  0.59818173363E+02  0.74470750000E+01 0.  1.
<mgrwt>
<rscale>  0 0.14908261E+02</rscale>
<asrwt>0</asrwt>
<pdfrwt beam="1">  1        2 0.98349886E+00 0.14908261E+02</pdfrwt>
<pdfrwt beam="2">  1       -2 0.99605774E+00 0.14908261E+02</pdfrwt>
<totfact>-0.41510815E-13</totfact>
</mgrwt>
</event>
<event>
 4    1  0.5160210E-019  0.1491596E+02  0.7818608E-02  0.1870644E+00
          2   -1    0    0  501    0  0.00000000000E+00  0.00000000000E+00  0.12037829548E+03  0.12037829551E+03  0.25500000000E-02 0.  1.
         -2   -1    0    0    0  501 -0.00000000000E+00 -0.00000000000E+00 -0.46205177453E+00  0.46205881103E+00  0.25500000000E-02 0. -1.
         31    1    1    2    0    0 -0.26121414187E+00  0.14508186842E-01  0.57473449899E+02  0.57954506405E+02  0.74470750000E+01 0. -1.
        -31    1    1    2    0    0  0.26121414187E+00 -0.14508186842E-01  0.62442793812E+02  0.62885847918E+02  0.74470750000E+01 0.  1.
<mgrwt>
<rscale>  0 0.14915955E+02</rscale>
<asrwt>0</asrwt>
<pdfrwt beam="1">  1        2 0.99919260E+00 0.14915955E+02</pdfrwt>
<pdfrwt beam="2">  1       -2 0.98142549E+00 0.14915955E+02</pdfrwt>
<totfact> 0.27762027E-13</totfact>
</mgrwt>
</event>
<event>
 4    1  0.5160210E-019  0.1491243E+02  0.7818608E-02  0.1870752E+00
         -2   -1    0    0    0  501 -0.00000000000E+00  0.00000000000E+00  0.11853190327E+03  0.11853190330E+03  0.25500000000E-02 0.  1.
          2   -1    0    0  501    0  0.00000000000E+00 -0.00000000000E+00 -0.46902786307E+00  0.46903479491E+00  0.25500000000E-02 0. -1.
         31    1    1    2    0    0  0.17958870140E+00 -0.16641314304E+00  0.61235818066E+02  0.61687472680E+02  0.74470750000E+01 0.  1.
        -31    1    1    2    0    0 -0.17958870140E+00  0.16641314304E+00  0.56827057345E+02  0.57313465416E+02  0.74470750000E+01 0. -1.
<mgrwt>
<rscale>  0 0.14912435E+02</rscale>
<asrwt>0</asrwt>
<pdfrwt beam="2">  1        2 0.99612516E+00 0.14912435E+02</pdfrwt>
<pdfrwt beam="1">  1       -2 0.98398302E+00 0.14912435E+02</pdfrwt>
<totfact> 0.55034370E-13</totfact>
</mgrwt>
</event>
<event>
 4    1  0.5160210E-019  0.1494773E+02  0.7818608E-02  0.1869668E+00
         -2   -1    0    0    0  501 -0.00000000000E+00  0.00000000000E+00  0.11869459024E+03  0.11869459027E+03  0.25500000000E-02 0. -1.
          2   -1    0    0  501    0  0.00000000000E+00 -0.00000000000E+00 -0.47060482955E+00  0.47061173816E+00  0.25500000000E-02 0.  1.
         31    1    1    2    0    0 -0.99182609330E-03 -0.32099762153E+00  0.54769603981E+02  0.55274510281E+02  0.74470750000E+01 0.  1.
        -31    1    1    2    0    0  0.99182609330E-03  0.32099762153E+00  0.63454381428E+02  0.63890691724E+02  0.74470750000E+01 0. -1.
<mgrwt>
<rscale>  0 0.14947730E+02</rscale>
<asrwt>0</asrwt>
<pdfrwt beam="2">  1        2 0.99946645E+00 0.14947730E+02</pdfrwt>
<pdfrwt beam="1">  1       -2 0.98534127E+00 0.14947730E+02</pdfrwt>
<totfact> 0.75682632E-14</totfact>
</mgrwt>
</event>
<event>
 4    1  0.5160210E-019  0.1493473E+02  0.7818608E-02  0.1870067E+00
         -2   -1    0    0    0  501 -0.00000000000E+00  0.00000000000E+00  0.11887433133E+03  0.11887433135E+03  0.25500000000E-02 0.  1.
          2   -1    0    0  501    0  0.00000000000E+00 -0.00000000000E+00 -0.46907655253E+00  0.46908348365E+00  0.25500000000E-02 0. -1.
         31    1    1    2    0    0 -0.38325387157E+00 -0.31662575709E+00  0.57319814114E+02  0.57803694964E+02  0.74470750000E+01 0. -1.
        -31    1    1    2    0    0  0.38325387157E+00  0.31662575709E+00  0.61085440661E+02  0.61539719874E+02  0.74470750000E+01 0. -1.
<mgrwt>
<rscale>  0 0.14934735E+02</rscale>
<asrwt>0</asrwt>
<pdfrwt beam="2">  1        2 0.99623947E+00 0.14934735E+02</pdfrwt>
<pdfrwt beam="1">  1       -2 0.98681485E+00 0.14934735E+02</pdfrwt>
<totfact> 0.22606416E-13</totfact>
</mgrwt>
</event>
<event>
 4    1  0.5160210E-019  0.1492501E+02  0.7818608E-02  0.1870365E+00
         -2   -1    0    0    0  501 -0.00000000000E+00  0.00000000000E+00  0.11900417957E+03  0.11900417960E+03  0.25500000000E-02 0.  1.
          2   -1    0    0  501    0  0.00000000000E+00 -0.00000000000E+00 -0.46795484054E+00  0.46796178827E+00  0.25500000000E-02 0. -1.
         31    1    1    2    0    0  0.89141599314E-01 -0.27606460466E+00  0.56210367048E+02  0.56702279034E+02  0.74470750000E+01 0. -1.
        -31    1    1    2    0    0 -0.89141599314E-01  0.27606460466E+00  0.62325857685E+02  0.62769862355E+02  0.74470750000E+01 0.  1.
<mgrwt>
<rscale>  0 0.14925012E+02</rscale>
<asrwt>0</asrwt>
<pdfrwt beam="2">  1        2 0.99387077E+00 0.14925012E+02</pdfrwt>
<pdfrwt beam="1">  1       -2 0.98787926E+00 0.14925012E+02</pdfrwt>
<totfact> 0.17906192E-13</totfact>
</mgrwt>
</event>
<event>
 4    1 -0.5160210E-019  0.1490604E+02  0.7818608E-02  0.1870949E+00
         -2   -1    0    0    0  501 -0.00000000000E+00  0.00000000000E+00  0.11992828446E+03  0.11992828448E+03  0.25500000000E-02 0. -1.
          2   -1    0    0  501    0  0.00000000000E+00 -0.00000000000E+00 -0.46316905807E+00  0.46317607759E+00  0.25500000000E-02 0.  1.
         31    1    1    2    0    0 -0.15537678038E+00 -0.24315581687E+00  0.59144456286E+02  0.59612153980E+02  0.74470750000E+01 0.  1.
        -31    1    1    2    0    0  0.15537678038E+00  0.24315581687E+00  0.60320659112E+02  0.60779306581E+02  0.74470750000E+01 0.  1.
<mgrwt>
<rscale>  0 0.14906038E+02</rscale>
<asrwt>0</asrwt>
<pdfrwt beam="2">  1        2 0.98377538E+00 0.14906038E+02</pdfrwt>
<pdfrwt beam="1">  1       -2 0.99548083E+00 0.14906038E+02</pdfrwt>
<totfact>-0.41658485E-13</totfact>
</mgrwt>
</event>
<event>
 4    1  0.5160210E-019  0.1497073E+02  0.7818608E-02  0.1868963E+00
         -2   -1    0    0    0  501 -0.00000000000E+00  0.00000000000E+00  0.11921207452E+03  0.11921207455E+03  0.25500000000E-02 0. -1.
          2   -1    0    0  501    0  0.00000000000E+00 -0.00000000000E+00 -0.47000470967E+00  0.47001162710E+00  0.25500000000E-02 0.  1.
         31    1    1    2    0    0  0.61452403257E-01 -0.47091059481E+00  0.54667272897E+02  0.55174225733E+02  0.74470750000E+01 0.  1.
        -31    1    1    2    0    0 -0.61452403257E-01  0.47091059481E+00  0.64074796917E+02  0.64507860445E+02  0.74470750000E+01 0.  1.
<mgrwt>
<rscale>  0 0.14970725E+02</rscale>
<asrwt>0</asrwt>
<pdfrwt beam="2">  1        2 0.99821406E+00 0.14970725E+02</pdfrwt>
<pdfrwt beam="1">  1       -2 0.98961523E+00 0.14970725E+02</pdfrwt>
<totfact> 0.15749330E-14</totfact>
</mgrwt>
</event>
<event>
 4    1  0.5160210E-019  0.1493259E+02  0.7818608E-02  0.1870133E+00
          2   -1    0    0  501    0  0.00000000000E+00  0.00000000000E+00  0.12007119991E+03  0.12007119993E+03  0.25500000000E-02 0.  1.
         -2   -1    0    0    0  501 -0.00000000000E+00 -0.00000000000E+00 -0.46426727491E+00  0.46427427783E+00  0.25500000000E-02 0. -1.
         31    1    1    2    0    0  0.14710458146E+00  0.48564029687E+00  0.61181391508E+02  0.61635047491E+02  0.74470750000E+01 0.  1.
        -31    1    1    2    0    0 -0.14710458146E+00 -0.48564029687E+00  0.58425541124E+02  0.58900426721E+02  0.74470750000E+01 0. -1.
<mgrwt>
<rscale>  0 0.14932589E+02</rscale>
<asrwt>0</asrwt>
<pdfrwt beam="1">  1        2 0.99667164E+00 0.14932589E+02</pdfrwt>
<pdfrwt beam="2">  1       -2 0.98610350E+00 0.14932589E+02</pdfrwt>
<totfact> 0.27224114E-13</totfact>
</mgrwt>
</event>
<event>
 4    1  0.5160210E-019  0.1490311E+02  0.7818608E-02  0.1871040E+00
          2   -1    0    0  501    0  0.00000000000E+00  0.00000000000E+00  0.12025539142E+03  0.12025539144E+03  0.25500000000E-02 0.  1.
         -2   -1    0    0    0  501 -0.00000000000E+00 -0.00000000000E+00 -0.46172772796E+00  0.46173476940E+00  0.25500000000E-02 0. -1.
         31    1    1    2    0    0  0.24420607144E+00  0.79060264423E-01  0.60134665550E+02  0.60594577431E+02  0.74470750000E+01 0.  1.
        -31    1    1    2    0    0 -0.24420607144E+00 -0.79060264423E-01  0.59658998139E+02  0.60122548782E+02  0.74470750000E+01 0. -1.
<mgrwt>
<rscale>  0 0.14903110E+02</rscale>
<asrwt>0</asrwt>
<pdfrwt beam="1">  1        2 0.99817366E+00 0.14903110E+02</pdfrwt>
<pdfrwt beam="2">  1       -2 0.98073600E+00 0.14903110E+02</pdfrwt>
<totfact> 0.63657943E-13</totfact>
</mgrwt>
</event>
<event>
 4    1 -0.5160210E-019  0.1495830E+02  0.7818608E-02  0.1869344E+00
         -2   -1    0    0    0  501 -0.00000000000E+00  0.00000000000E+00  0.12027941133E+03  0.12027941136E+03  0.25500000000E-02 0.  1.
          2   -1    0    0  501    0  0.00000000000E+00 -0.00000000000E+00 -0.46506073810E+00  0.46506772907E+00  0.25500000000E-02 0. -1.
         31    1    1    2    0    0  0.44591798487E+00 -0.38082230560E+00  0.56942833363E+02  0.57430732765E+02  0.74470750000E+01 0. -1.
        -31    1    1    2    0    0 -0.44591798487E+00  0.38082230560E+00  0.62871517230E+02  0.63313746322E+02  0.74470750000E+01 0.  1.
<mgrwt>
<rscale>  0 0.14958296E+02</rscale>
<asrwt>0</asrwt>
<pdfrwt beam="2">  1        2 0.98778889E+00 0.14958296E+02</pdfrwt>
<pdfrwt beam="1">  1       -2 0.99839983E+00 0.14958296E+02</pdfrwt>
<totfact>-0.11327487E-13</totfact>
</mgrwt>
</event>
<event>
 4    1 -0.5160210E-019  0.1495584E+02  0.7818608E-02  0.1869419E+00
         -2   -1    0    0    0  501 -0.00000000000E+00  0.00000000000E+00  0.11942975990E+03  0.11942975993E+03  0.25500000000E-02 0.  1.
          2   -1    0    0  501    0  0.00000000000E+00 -0.00000000000E+00 -0.46821527482E+00  0.46822221869E+00  0.25500000000E-02 0. -1.
         31    1    1    2    0    0  0.22230951001E+00 -0.37236769615E+00  0.55297794879E+02  0.55798683889E+02  0.74470750000E+01 0. -1.
        -31    1    1    2    0    0 -0.22230951001E+00  0.37236769615E+00  0.63663749749E+02  0.64099298260E+02  0.74470750000E+01 0.  1.
<mgrwt>
<rscale>  0 0.14955836E+02</rscale>
<asrwt>0</asrwt>
<pdfrwt beam="2">  1        2 0.99443561E+00 0.14955836E+02</pdfrwt>
<pdfrwt beam="1">  1       -2 0.99140040E+00 0.14955836E+02</pdfrwt>
<totfact>-0.61328858E-14</totfact>
</mgrwt>
</event>
<event>
 4    1  0.5160210E-019  0.1490881E+02  0.7818608E-02  0.1870864E+00
          2   -1    0    0  501    0  0.00000000000E+00  0.00000000000E+00  0.12002911108E+03  0.12002911111E+03  0.25500000000E-02 0. -1.
         -2   -1    0    0    0  501 -0.00000000000E+00 -0.00000000000E+00 -0.46295183412E+00  0.46295885693E+00  0.25500000000E-02 0.  1.
         31    1    1    2    0    0  0.22850765571E+00  0.23836275197E+00  0.59886340071E+02  0.60348501934E+02  0.74470750000E+01 0. -1.
        -31    1    1    2    0    0 -0.22850765571E+00 -0.23836275197E+00  0.59679819173E+02  0.60143568028E+02  0.74470750000E+01 0.  1.
<mgrwt>
<rscale>  0 0.14908806E+02</rscale>
<asrwt>0</asrwt>
<pdfrwt beam="1">  1        2 0.99631274E+00 0.14908806E+02</pdfrwt>
<pdfrwt beam="2">  1       -2 0.98331895E+00 0.14908806E+02</pdfrwt>
<totfact> 0.62500446E-13</totfact>
</mgrwt>
</event>
<event>
 4    1 -0.5160210E-019  0.1492595E+02  0.7818608E-02  0.1870337E+00
         -2   -1    0    0    0  501 -0.00000000000E+00  0.00000000000E+00  0.12032490898E+03  0.12032490900E+03  0.25500000000E-02 0.  1.
          2   -1    0    0  501    0  0.00000000000E+00 -0.00000000000E+00 -0.46287627714E+00  0.46288330110E+00  0.25500000000E-02 0. -1.
         31    1    1    2    0    0 -0.91293324255E-01  0.19215314833E+00  0.56387027771E+02  0.56877069934E+02  0.74470750000E+01 0. -1.
        -31    1    1    2    0    0  0.91293324255E-01 -0.19215314833E+00  0.63475004928E+02  0.63910722371E+02  0.74470750000E+01 0.  1.
<mgrwt>
<rscale>  0 0.14925947E+02</rscale>
<asrwt>0</asrwt>
<pdfrwt beam="2">  1        2 0.98316837E+00 0.14925947E+02</pdfrwt>
<pdfrwt beam="1">  1       -2 0.99875798E+00 0.14925947E+02</pdfrwt>
<totfact>-0.18618410E-13</totfact>
</mgrwt>
</event>
<event>
 4    1  0.5160210E-019  0.1492286E+02  0.7818608E-02  0.1870432E+00
          2   -1    0    0  501    0  0.00000000000E+00  0.00000000000E+00  0.12016015263E+03  0.12016015265E+03  0.25500000000E-02 0. -1.
         -2   -1    0    0    0  501 -0.00000000000E+00 -0.00000000000E+00 -0.46331912238E+00  0.46332613963E+00  0.25500000000E-02 0.  1.
         31    1    1    2    0    0 -0.51946447882E-01 -0.22445147094E+00  0.63090936652E+02  0.63529349836E+02  0.74470750000E+01 0. -1.
        -31    1    1    2    0    0  0.51946447882E-01  0.22445147094E+00  0.56605896852E+02  0.57094128957E+02  0.74470750000E+01 0.  1.
<mgrwt>
<rscale>  0 0.14922858E+02</rscale>
<asrwt>0</asrwt>
<pdfrwt beam="1">  1        2 0.99739932E+00 0.14922858E+02</pdfrwt>
<pdfrwt beam="2">  1       -2 0.98410020E+00 0.14922858E+02</pdfrwt>
<totfact> 0.41151514E-13</totfact>
</mgrwt>
</event>
<event>
 4    1 -0.5160210E-019  0.1495515E+02  0.7818608E-02  0.1869440E+00
         -2   -1    0    0    0  501 -0.00000000000E+00  0.00000000000E+00  0.11999898624E+03  0.11999898627E+03  0.25500000000E-02 0.  1.
          2   -1    0    0  501    0  0.00000000000E+00 -0.00000000000E+00 -0.46595122010E+00  0.46595819771E+00  0.25500000000E-02 0. -1.
         31    1    1    2    0    0 -0.64496847315E+00 -0.17829560986E+00  0.59073768773E+02  0.59545082557E+02  0.74470750000E+01 0. -1.
        -31    1    1    2    0    0  0.64496847315E+00  0.17829560986E+00  0.60459266245E+02  0.60919861906E+02  0.74470750000E+01 0.  1.
<mgrwt>
<rscale>  0 0.14955146E+02</rscale>
<asrwt>0</asrwt>
<pdfrwt beam="2">  1        2 0.98966402E+00 0.14955146E+02</pdfrwt>
<pdfrwt beam="1">  1       -2 0.99608845E+00 0.14955146E+02</pdfrwt>
<totfact>-0.17149923E-13</totfact>
</mgrwt>
</event>
<event>
 4    1  0.5160210E-019  0.1489665E+02  0.7818608E-02  0.1871239E+00
         -2   -1    0    0    0  501 -0.00000000000E+00  0.00000000000E+00  0.11807682505E+03  0.11807682507E+03  0.25500000000E-02 0.  1.
          2   -1    0    0  501    0  0.00000000000E+00 -0.00000000000E+00 -0.46983912357E+00  0.46984604344E+00  0.25500000000E-02 0. -1.
         31    1    1    2    0    0  0.80059425615E-01  0.10589893945E+00  0.58555180061E+02  0.59026990963E+02  0.74470750000E+01 0.  1.
        -31    1    1    2    0    0 -0.80059425615E-01 -0.10589893945E+00  0.59051805862E+02  0.59519680155E+02  0.74470750000E+01 0. -1.
<mgrwt>
<rscale>  0 0.14896647E+02</rscale>
<asrwt>0</asrwt>
<pdfrwt beam="2">  1        2 0.99782611E+00 0.14896647E+02</pdfrwt>
<pdfrwt beam="1">  1       -2 0.98022682E+00 0.14896647E+02</pdfrwt>
<totfact> 0.79704638E-13</totfact>
</mgrwt>
</event>
<event>
 4    1  0.5160210E-019  0.1491844E+02  0.7818608E-02  0.1870567E+00
         -2   -1    0    0    0  501 -0.00000000000E+00  0.00000000000E+00  0.11866408957E+03  0.11866408959E+03  0.25500000000E-02 0.  1.
          2   -1    0    0  501    0  0.00000000000E+00 -0.00000000000E+00 -0.46888298287E+00  0.46888991685E+00  0.25500000000E-02 0. -1.
         31    1    1    2    0    0  0.22531196464E+00  0.36084932522E+00  0.59024777682E+02  0.59494237403E+02  0.74470750000E+01 0.  1.
        -31    1    1    2    0    0 -0.22531196464E+00 -0.36084932522E+00  0.59170428901E+02  0.59638742107E+02  0.74470750000E+01 0. -1.
<mgrwt>
<rscale>  0 0.14918443E+02</rscale>
<asrwt>0</asrwt>
<pdfrwt beam="2">  1        2 0.99582305E+00 0.14918443E+02</pdfrwt>
<pdfrwt beam="1">  1       -2 0.98507483E+00 0.14918443E+02</pdfrwt>
<totfact> 0.43053825E-13</totfact>
</mgrwt>
</event>
<event>
 4    1 -0.5160210E-019  0.1496982E+02  0.7818608E-02  0.1868991E+00
          2   -1    0    0  501    0  0.00000000000E+00  0.00000000000E+00  0.11988517383E+03  0.11988517385E+03  0.25500000000E-02 0. -1.
         -2   -1    0    0    0  501 -0.00000000000E+00 -0.00000000000E+00 -0.46730914711E+00  0.46731610444E+00  0.25500000000E-02 0.  1.
         31    1    1    2    0    0  0.29563041929E+00  0.56791691773E+00  0.56543651312E+02  0.57035544678E+02  0.74470750000E+01 0.  1.
        -31    1    1    2    0    0 -0.29563041929E+00 -0.56791691773E+00  0.62874213366E+02  0.63316945279E+02  0.74470750000E+01 0.  1.
<mgrwt>
<rscale>  0 0.14969817E+02</rscale>
<asrwt>0</asrwt>
<pdfrwt beam="1">  1        2 0.99515859E+00 0.14969817E+02</pdfrwt>
<pdfrwt beam="2">  1       -2 0.99253332E+00 0.14969817E+02</pdfrwt>
<totfact>-0.91878791E-14</totfact>
</mgrwt>
</event>
<event>
 4    1  0.5160210E-019  0.1491575E+02  0.7818608E-02  0.1870650E+00
          2   -1    0    0  501    0  0.00000000000E+00  0.00000000000E+00  0.12035724830E+03  0.12035724833E+03  0.25500000000E-02 0.  1.
         -2   -1    0    0    0  501 -0.00000000000E+00 -0.00000000000E+00 -0.46211999340E+00  0.46212702885E+00  0.25500000000E-02 0. -1.
         31    1    1    2    0    0 -0.28749516178E+00 -0.12577211055E+00  0.61972906374E+02  0.62419536385E+02  0.74470750000E+01 0.  1.
        -31    1    1    2    0    0  0.28749516178E+00  0.12577211055E+00  0.57922221932E+02  0.58399838970E+02  0.74470750000E+01 0. -1.
<mgrwt>
<rscale>  0 0.14915752E+02</rscale>
<asrwt>0</asrwt>
<pdfrwt beam="1">  1        2 0.99901913E+00 0.14915752E+02</pdfrwt>
<pdfrwt beam="2">  1       -2 0.98156917E+00 0.14915752E+02</pdfrwt>
<totfact> 0.32193044E-13</totfact>
</mgrwt>
</event>
<event>
 4    1 -0.5160210E-019  0.1492363E+02  0.7818608E-02  0.1870408E+00
         -2   -1    0    0    0  501 -0.00000000000E+00  0.00000000000E+00  0.12033282028E+03  0.12033282030E+03  0.25500000000E-02 0.  1.
          2   -1    0    0  501    0  0.00000000000E+00 -0.00000000000E+00 -0.46270238658E+00  0.46270941318E+00  0.25500000000E-02 0. -1.
         31    1    1    2    0    0  0.13477100964E+00 -0.12623296913E-01  0.56302009873E+02  0.56792548494E+02  0.74470750000E+01 0. -1.
        -31    1    1    2    0    0 -0.13477100964E+00  0.12623296913E-01  0.63568108018E+02  0.64002981224E+02  0.74470750000E+01 0.  1.
<mgrwt>
<rscale>  0 0.14923633E+02</rscale>
<asrwt>0</asrwt>
<pdfrwt beam="2">  1        2 0.98280069E+00 0.14923633E+02</pdfrwt>
<pdfrwt beam="1">  1       -2 0.99882196E+00 0.14923633E+02</pdfrwt>
<totfact>-0.18894394E-13</totfact>
</mgrwt>
</event>
<event>
 4    1 -0.5160210E-019  0.1494886E+02  0.7818608E-02  0.1869633E+00
          2   -1    0    0  501    0  0.00000000000E+00  0.00000000000E+00  0.11909461713E+03  0.11909461716E+03  0.25500000000E-02 0.  1.
         -2   -1    0    0    0  501 -0.00000000000E+00 -0.00000000000E+00 -0.46909493864E+00  0.46910186949E+00  0.25500000000E-02 0. -1.
         31    1    1    2    0    0  0.75744108130E-01  0.60693339328E+00  0.57836522648E+02  0.58317204866E+02  0.74470750000E+01 0. -1.
        -31    1    1    2    0    0 -0.75744108130E-01 -0.60693339328E+00  0.60788999548E+02  0.61246514165E+02  0.74470750000E+01 0.  1.
<mgrwt>
<rscale>  0 0.14948859E+02</rscale>
<asrwt>0</asrwt>
<pdfrwt beam="1">  1        2 0.98863648E+00 0.14948859E+02</pdfrwt>
<pdfrwt beam="2">  1       -2 0.99628560E+00 0.14948859E+02</pdfrwt>
<totfact>-0.18716716E-13</totfact>
</mgrwt>
</event>
<event>
 4    1 -0.5160210E-019  0.1498811E+02  0.7818608E-02  0.1868431E+00
          2   -1    0    0  501    0  0.00000000000E+00  0.00000000000E+00  0.12017204082E+03  0.12017204085E+03  0.25500000000E-02 0.  1.
         -2   -1    0    0    0  501 -0.00000000000E+00 -0.00000000000E+00 -0.46733378336E+00  0.46734074033E+00  0.25500000000E-02 0. -1.
         31    1    1    2    0    0  0.15970603477E-01  0.39066631797E+00  0.65816630438E+02  0.66237758443E+02  0.74470750000E+01 0.  1.
        -31    1    1    2    0    0 -0.15970603477E-01 -0.39066631797E+00  0.53888076599E+02  0.54401623145E+02  0.74470750000E+01 0. -1.
<mgrwt>
<rscale>  0 0.14988112E+02</rscale>
<asrwt>0</asrwt>
<pdfrwt beam="1">  1        2 0.99753081E+00 0.14988112E+02</pdfrwt>
<pdfrwt beam="2">  1       -2 0.99259464E+00 0.14988112E+02</pdfrwt>
<totfact>-0.61093181E-14</totfact>
</mgrwt>
</event>
<event>
 4    1 -0.5160210E-019  0.1497133E+02  0.7818608E-02  0.1868945E+00
          2   -1    0    0  501    0  0.00000000000E+00  0.00000000000E+00  0.11979001576E+03  0.11979001579E+03  0.25500000000E-02 0.  1.
         -2   -1    0    0    0  501 -0.00000000000E+00 -0.00000000000E+00 -0.46777489115E+00  0.46778184156E+00  0.25500000000E-02 0. -1.
         31    1    1    2    0    0  0.37110716766E-01  0.75796340781E+00  0.59815493387E+02  0.60282070808E+02  0.74470750000E+01 0.  1.
        -31    1    1    2    0    0 -0.37110716766E-01 -0.75796340781E+00  0.59506747487E+02  0.59975726826E+02  0.74470750000E+01 0.  1.
<mgrwt>
<rscale>  0 0.14971330E+02</rscale>
<asrwt>0</asrwt>
<pdfrwt beam="1">  1        2 0.99437561E+00 0.14971330E+02</pdfrwt>
<pdfrwt beam="2">  1       -2 0.99351560E+00 0.14971330E+02</pdfrwt>
<totfact>-0.11850152E-13</totfact>
</mgrwt>
</event>
<event>
 4    1 -0.5160210E-019  0.1490068E+02  0.7818608E-02  0.1871114E+00
         -2   -1    0    0    0  501 -0.00000000000E+00  0.00000000000E+00  0.12022728332E+03  0.12022728334E+03  0.25500000000E-02 0.  1.
          2   -1    0    0  501    0  0.00000000000E+00 -0.00000000000E+00 -0.46168517041E+00  0.46169221249E+00  0.25500000000E-02 0. -1.
         31    1    1    2    0    0  0.10442959595E+00  0.15397734376E+00  0.58923086589E+02  0.59392117944E+02  0.74470750000E+01 0. -1.
        -31    1    1    2    0    0 -0.10442959595E+00 -0.15397734376E+00  0.60842511557E+02  0.61296857613E+02  0.74470750000E+01 0. -1.
<mgrwt>
<rscale>  0 0.14900682E+02</rscale>
<asrwt>0</asrwt>
<pdfrwt beam="2">  1        2 0.98064508E+00 0.14900682E+02</pdfrwt>
<pdfrwt beam="1">  1       -2 0.99794089E+00 0.14900682E+02</pdfrwt>
<totfact>-0.43771778E-13</totfact>
</mgrwt>
</event>
<event>
 4    1  0.5160210E-019  0.1490759E+02  0.7818608E-02  0.1870902E+00
          2   -1    0    0  501    0  0.00000000000E+00  0.00000000000E+00  0.11989154493E+03  0.11989154496E+03  0.25500000000E-02 0.  1.
         -2   -1    0    0    0  501 -0.00000000000E+00 -0.00000000000E+00 -0.46340733669E+00  0.46341435260E+00  0.25500000000E-02 0. -1.
         31    1    1    2    0    0 -0.98628322154E-01 -0.18357141995E+00  0.57791763134E+02  0.58269977160E+02  0.74470750000E+01 0. -1.
        -31    1    1    2    0    0  0.98628322154E-01  0.18357141995E+00  0.61636374461E+02  0.62084982151E+02  0.74470750000E+01 0. -1.
<mgrwt>
<rscale>  0 0.14907588E+02</rscale>
<asrwt>0</asrwt>
<pdfrwt beam="1">  1        2 0.99517901E+00 0.14907588E+02</pdfrwt>
<pdfrwt beam="2">  1       -2 0.98427837E+00 0.14907588E+02</pdfrwt>
<totfact> 0.57742809E-13</totfact>
</mgrwt>
</event>
<event>
 4    1 -0.5160210E-019  0.1490447E+02  0.7818608E-02  0.1870998E+00
         -2   -1    0    0    0  501 -0.00000000000E+00  0.00000000000E+00  0.11997503806E+03  0.11997503809E+03  0.25500000000E-02 0. -1.
          2   -1    0    0  501    0  0.00000000000E+00 -0.00000000000E+00 -0.46289089581E+00  0.46289791955E+00  0.25500000000E-02 0.  1.
         31    1    1    2    0    0 -0.22043395596E+00 -0.12924491992E+00  0.58887411744E+02  0.59356983442E+02  0.74470750000E+01 0. -1.
        -31    1    1    2    0    0  0.22043395596E+00  0.12924491992E+00  0.60624735424E+02  0.61080952568E+02  0.74470750000E+01 0. -1.
<mgrwt>
<rscale>  0 0.14904466E+02</rscale>
<asrwt>0</asrwt>
<pdfrwt beam="2">  1        2 0.98318832E+00 0.14904466E+02</pdfrwt>
<pdfrwt beam="1">  1       -2 0.99586512E+00 0.14904466E+02</pdfrwt>
<totfact>-0.44624298E-13</totfact>
</mgrwt>
</event>
<event>
 4    1 -0.5160210E-019  0.1495186E+02  0.7818608E-02  0.1869541E+00
         -2   -1    0    0    0  501 -0.00000000000E+00  0.00000000000E+00  0.11972032580E+03  0.11972032583E+03  0.25500000000E-02 0. -1.
          2   -1    0    0  501    0  0.00000000000E+00 -0.00000000000E+00 -0.46683059262E+00  0.46683755709E+00  0.25500000000E-02 0.  1.
         31    1    1    2    0    0  0.33293639482E+00  0.44479208254E+00  0.62433453766E+02  0.62878484094E+02  0.74470750000E+01 0.  1.
        -31    1    1    2    0    0 -0.33293639482E+00 -0.44479208254E+00  0.56820041441E+02  0.57308679291E+02  0.74470750000E+01 0. -1.
<mgrwt>
<rscale>  0 0.14951860E+02</rscale>
<asrwt>0</asrwt>
<pdfrwt beam="2">  1        2 0.99151556E+00 0.14951860E+02</pdfrwt>
<pdfrwt beam="1">  1       -2 0.99379156E+00 0.14951860E+02</pdfrwt>
<totfact>-0.15114166E-13</totfact>
</mgrwt>
</event>
<event>
 4    1  0.5160210E-019  0.1493352E+02  0.7818608E-02  0.1870104E+00
         -2   -1    0    0    0  501 -0.00000000000E+00  0.00000000000E+00  0.11850351668E+03  0.11850351671E+03  0.25500000000E-02 0.  1.
          2   -1    0    0  501    0  0.00000000000E+00 -0.00000000000E+00 -0.47046811925E+00  0.47047502987E+00  0.25500000000E-02 0. -1.
         31    1    1    2    0    0  0.34934773605E+00 -0.40867816330E-01  0.62300390563E+02  0.62744890663E+02  0.74470750000E+01 0.  1.
        -31    1    1    2    0    0 -0.34934773605E+00  0.40867816330E-01  0.55732658000E+02  0.56229101076E+02  0.74470750000E+01 0. -1.
<mgrwt>
<rscale>  0 0.14933525E+02</rscale>
<asrwt>0</asrwt>
<pdfrwt beam="2">  1        2 0.99917090E+00 0.14933525E+02</pdfrwt>
<pdfrwt beam="1">  1       -2 0.98376021E+00 0.14933525E+02</pdfrwt>
<totfact> 0.17341794E-13</totfact>
</mgrwt>
</event>
<event>
 4    1 -0.5160210E-019  0.1498821E+02  0.7818608E-02  0.1868428E+00
         -2   -1    0    0    0  501 -0.00000000000E+00  0.00000000000E+00  0.12002798606E+03  0.12002798609E+03  0.25500000000E-02 0. -1.
          2   -1    0    0  501    0  0.00000000000E+00 -0.00000000000E+00 -0.46790079442E+00  0.46790774296E+00  0.25500000000E-02 0.  1.
         31    1    1    2    0    0  0.60024046081E+00  0.57941389369E+00  0.59123211605E+02  0.59596217041E+02  0.74470750000E+01 0. -1.
        -31    1    1    2    0    0 -0.60024046081E+00 -0.57941389369E+00  0.60436873660E+02  0.60899676788E+02  0.74470750000E+01 0. -1.
<mgrwt>
<rscale>  0 0.14988210E+02</rscale>
<asrwt>0</asrwt>
<pdfrwt beam="2">  1        2 0.99378963E+00 0.14988210E+02</pdfrwt>
<pdfrwt beam="1">  1       -2 0.99634436E+00 0.14988210E+02</pdfrwt>
<totfact>-0.11946167E-13</totfact>
</mgrwt>
</event>
<event>
 4    1  0.5160210E-019  0.1493549E+02  0.7818608E-02  0.1870043E+00
          2   -1    0    0  501    0  0.00000000000E+00  0.00000000000E+00  0.12035205633E+03  0.12035205636E+03  0.25500000000E-02 0.  1.
         -2   -1    0    0    0  501 -0.00000000000E+00 -0.00000000000E+00 -0.46336396198E+00  0.46337097855E+00  0.25500000000E-02 0. -1.
         31    1    1    2    0    0 -0.24272748674E+00 -0.27839746924E+00  0.56590681009E+02  0.57079773343E+02  0.74470750000E+01 0. -1.
        -31    1    1    2    0    0  0.24272748674E+00  0.27839746924E+00  0.63298011361E+02  0.63735653995E+02  0.74470750000E+01 0.  1.
<mgrwt>
<rscale>  0 0.14935492E+02</rscale>
<asrwt>0</asrwt>
<pdfrwt beam="1">  1        2 0.99898648E+00 0.14935492E+02</pdfrwt>
<pdfrwt beam="2">  1       -2 0.98420110E+00 0.14935492E+02</pdfrwt>
<totfact> 0.18634916E-13</totfact>
</mgrwt>
</event>
<event>
 4    1 -0.5160210E-019  0.1490573E+02  0.7818608E-02  0.1870959E+00
         -2   -1    0    0    0  501 -0.00000000000E+00  0.00000000000E+00  0.12024585197E+03  0.12024585200E+03  0.25500000000E-02 0. -1.
          2   -1    0    0  501    0  0.00000000000E+00 -0.00000000000E+00 -0.46192699460E+00  0.46193403300E+00  0.25500000000E-02 0.  1.
         31    1    1    2    0    0  0.25475047637E+00  0.13909854125E+00  0.59524486802E+02  0.59989229878E+02  0.74470750000E+01 0.  1.
        -31    1    1    2    0    0 -0.25475047637E+00 -0.13909854125E+00  0.60259438174E+02  0.60718556153E+02  0.74470750000E+01 0. -1.
<mgrwt>
<rscale>  0 0.14905735E+02</rscale>
<asrwt>0</asrwt>
<pdfrwt beam="2">  1        2 0.98115733E+00 0.14905735E+02</pdfrwt>
<pdfrwt beam="1">  1       -2 0.99809643E+00 0.14905735E+02</pdfrwt>
<totfact>-0.37721346E-13</totfact>
</mgrwt>
</event>
<event>
 4    1 -0.5160210E-019  0.1495711E+02  0.7818608E-02  0.1869380E+00
         -2   -1    0    0    0  501 -0.00000000000E+00  0.00000000000E+00  0.11997100317E+03  0.11997100319E+03  0.25500000000E-02 0.  1.
          2   -1    0    0  501    0  0.00000000000E+00 -0.00000000000E+00 -0.46618217391E+00  0.46618914806E+00  0.25500000000E-02 0. -1.
         31    1    1    2    0    0 -0.60148855305E+00 -0.11733719143E+00  0.57279959604E+02  0.57765285897E+02  0.74470750000E+01 0.  1.
        -31    1    1    2    0    0  0.60148855305E+00  0.11733719143E+00  0.62224861388E+02  0.62671906444E+02  0.74470750000E+01 0.  1.
<mgrwt>
<rscale>  0 0.14957107E+02</rscale>
<asrwt>0</asrwt>
<pdfrwt beam="2">  1        2 0.99015176E+00 0.14957107E+02</pdfrwt>
<pdfrwt beam="1">  1       -2 0.99585897E+00 0.14957107E+02</pdfrwt>
<totfact>-0.16756538E-13</totfact>
</mgrwt>
</event>
<event>
 4    1 -0.5160210E-019  0.1490464E+02  0.7818608E-02  0.1870993E+00
         -2   -1    0    0    0  501 -0.00000000000E+00  0.00000000000E+00  0.12022569971E+03  0.12022569974E+03  0.25500000000E-02 0.  1.
          2   -1    0    0  501    0  0.00000000000E+00 -0.00000000000E+00 -0.46193628557E+00  0.46194332383E+00  0.25500000000E-02 0. -1.
         31    1    1    2    0    0  0.26526946730E+00  0.53869968862E-02  0.59170581961E+02  0.59637966871E+02  0.74470750000E+01 0. -1.
        -31    1    1    2    0    0 -0.26526946730E+00 -0.53869968862E-02  0.60593181466E+02  0.61049676192E+02  0.74470750000E+01 0.  1.
<mgrwt>
<rscale>  0 0.14904635E+02</rscale>
<asrwt>0</asrwt>
<pdfrwt beam="2">  1        2 0.98117636E+00 0.14904635E+02</pdfrwt>
<pdfrwt beam="1">  1       -2 0.99792987E+00 0.14904635E+02</pdfrwt>
<totfact>-0.40232705E-13</totfact>
</mgrwt>
</event>
<event>
 4    1 -0.5160210E-019  0.1493140E+02  0.7818608E-02  0.1870169E+00
         -2   -1    0    0    0  501 -0.00000000000E+00  0.00000000000E+00  0.12032293727E+03  0.12032293729E+03  0.25500000000E-02 0. -1.
          2   -1    0    0  501    0  0.00000000000E+00 -0.00000000000E+00 -0.46322234866E+00  0.46322936738E+00  0.25500000000E-02 0.  1.
         31    1    1    2    0    0 -0.12926330552E+00  0.12508150809E+00  0.55922386538E+02  0.56416350436E+02  0.74470750000E+01 0.  1.
        -31    1    1    2    0    0  0.12926330552E+00 -0.12508150809E+00  0.63937328379E+02  0.64369816224E+02  0.74470750000E+01 0. -1.
<mgrwt>
<rscale>  0 0.14931403E+02</rscale>
<asrwt>0</asrwt>
<pdfrwt beam="2">  1        2 0.98390055E+00 0.14931403E+02</pdfrwt>
<pdfrwt beam="1">  1       -2 0.99874454E+00 0.14931403E+02</pdfrwt>
<totfact>-0.16620903E-13</totfact>
</mgrwt>
</event>
<event>
 4    1 -0.5160210E-019  0.1497053E+02  0.7818608E-02  0.1868969E+00
         -2   -1    0    0    0  501 -0.00000000000E+00  0.00000000000E+00  0.11996533967E+03  0.11996533970E+03  0.25500000000E-02 0.  1.
          2   -1    0    0  501    0  0.00000000000E+00 -0.00000000000E+00 -0.46704132007E+00  0.46704828139E+00  0.25500000000E-02 0. -1.
         31    1    1    2    0    0  0.43881461579E+00  0.23901048433E+00  0.64304009579E+02  0.64735726290E+02  0.74470750000E+01 0.  1.
        -31    1    1    2    0    0 -0.43881461579E+00 -0.23901048433E+00  0.55194288771E+02  0.55696661689E+02  0.74470750000E+01 0. -1.
<mgrwt>
<rscale>  0 0.14970530E+02</rscale>
<asrwt>0</asrwt>
<pdfrwt beam="2">  1        2 0.99196926E+00 0.14970530E+02</pdfrwt>
<pdfrwt beam="1">  1       -2 0.99581925E+00 0.14970530E+02</pdfrwt>
<totfact>-0.14493609E-13</totfact>
</mgrwt>
</event>
<event>
 4    1 -0.5160210E-019  0.1491498E+02  0.7818608E-02  0.1870674E+00
         -2   -1    0    0    0  501 -0.00000000000E+00  0.00000000000E+00  0.12019853085E+03  0.12019853088E+03  0.25500000000E-02 0. -1.
          2   -1    0    0  501    0  0.00000000000E+00 -0.00000000000E+00 -0.46268218462E+00  0.46268921153E+00  0.25500000000E-02 0.  1.
         31    1    1    2    0    0 -0.19983528441E-01  0.27048180695E+00  0.62179702052E+02  0.62624658347E+02  0.74470750000E+01 0. -1.
        -31    1    1    2    0    0  0.19983528441E-01 -0.27048180695E+00  0.57556146617E+02  0.58036561745E+02  0.74470750000E+01 0.  1.
<mgrwt>
<rscale>  0 0.14914978E+02</rscale>
<asrwt>0</asrwt>
<pdfrwt beam="2">  1        2 0.98275374E+00 0.14914978E+02</pdfrwt>
<pdfrwt beam="1">  1       -2 0.99771139E+00 0.14914978E+02</pdfrwt>
<totfact>-0.33349402E-13</totfact>
</mgrwt>
</event>
<event>
 4    1  0.5160210E-019  0.1492572E+02  0.7818608E-02  0.1870344E+00
          2   -1    0    0  501    0  0.00000000000E+00  0.00000000000E+00  0.12027360924E+03  0.12027360927E+03  0.25500000000E-02 0. -1.
         -2   -1    0    0    0  501 -0.00000000000E+00 -0.00000000000E+00 -0.46305970057E+00  0.46306672174E+00  0.25500000000E-02 0.  1.
         31    1    1    2    0    0 -0.45630703819E+00 -0.14303346244E+00  0.59243828541E+02  0.59711965475E+02  0.74470750000E+01 0. -1.
        -31    1    1    2    0    0  0.45630703819E+00  0.14303346244E+00  0.60566721000E+02  0.61024710515E+02  0.74470750000E+01 0. -1.
<mgrwt>
<rscale>  0 0.14925721E+02</rscale>
<asrwt>0</asrwt>
<pdfrwt beam="1">  1        2 0.99833531E+00 0.14925721E+02</pdfrwt>
<pdfrwt beam="2">  1       -2 0.98355486E+00 0.14925721E+02</pdfrwt>
<totfact> 0.33318961E-13</totfact>
</mgrwt>
</event>
<event>
 4    1 -0.5160210E-019  0.1490658E+02  0.7818608E-02  0.1870933E+00
          2   -1    0    0  501    0  0.00000000000E+00  0.00000000000E+00  0.11873604108E+03  0.11873604111E+03  0.25500000000E-02 0.  1.
         -2   -1    0    0    0  501 -0.00000000000E+00 -0.00000000000E+00 -0.46785379315E+00  0.46786074239E+00  0.25500000000E-02 0. -1.
         31    1    1    2    0    0 -0.89679483198E-01  0.19331640542E+00  0.57397065879E+02  0.57878558303E+02  0.74470750000E+01 0.  1.
        -31    1    1    2    0    0  0.89679483198E-01 -0.19331640542E+00  0.60871121407E+02  0.61325343546E+02  0.74470750000E+01 0.  1.
<mgrwt>
<rscale>  0 0.14906579E+02</rscale>
<asrwt>0</asrwt>
<pdfrwt beam="1">  1        2 0.98566126E+00 0.14906579E+02</pdfrwt>
<pdfrwt beam="2">  1       -2 0.99364821E+00 0.14906579E+02</pdfrwt>
<totfact>-0.29688536E-13</totfact>
</mgrwt>
</event>
<event>
 4    1 -0.5160210E-019  0.1499171E+02  0.7818608E-02  0.1868322E+00
          2   -1    0    0  501    0  0.00000000000E+00  0.00000000000E+00  0.11967549020E+03  0.11967549023E+03  0.25500000000E-02 0. -1.
         -2   -1    0    0    0  501 -0.00000000000E+00 -0.00000000000E+00 -0.46949823101E+00  0.46950515591E+00  0.25500000000E-02 0.  1.
         31    1    1    2    0    0 -0.37092907021E+00  0.44877740383E+00  0.54598625271E+02  0.55107239063E+02  0.74470750000E+01 0. -1.
        -31    1    1    2    0    0  0.37092907021E+00 -0.44877740383E+00  0.64607366697E+02  0.65037756320E+02  0.74470750000E+01 0. -1.
<mgrwt>
<rscale>  0 0.14991711E+02</rscale>
<asrwt>0</asrwt>
<pdfrwt beam="1">  1        2 0.99344288E+00 0.14991711E+02</pdfrwt>
<pdfrwt beam="2">  1       -2 0.99715777E+00 0.14991711E+02</pdfrwt>
<totfact>-0.10541444E-13</totfact>
</mgrwt>
</event>
<event>
 4    1 -0.5160210E-019  0.1495396E+02  0.7818608E-02  0.1869477E+00
         -2   -1    0    0    0  501 -0.00000000000E+00  0.00000000000E+00  0.11966879468E+03  0.11966879471E+03  0.25500000000E-02 0.  1.
          2   -1    0    0  501    0  0.00000000000E+00 -0.00000000000E+00 -0.46716273065E+00  0.46716969017E+00  0.25500000000E-02 0. -1.
         31    1    1    2    0    0 -0.61126820732E+00 -0.25826376297E+00  0.58981357855E+02  0.59453341786E+02  0.74470750000E+01 0.  1.
        -31    1    1    2    0    0  0.61126820732E+00  0.25826376297E+00  0.60220274094E+02  0.60682622611E+02  0.74470750000E+01 0.  1.
<mgrwt>
<rscale>  0 0.14953959E+02</rscale>
<asrwt>0</asrwt>
<pdfrwt beam="2">  1        2 0.99221659E+00 0.14953959E+02</pdfrwt>
<pdfrwt beam="1">  1       -2 0.99336821E+00 0.14953959E+02</pdfrwt>
<totfact>-0.13697124E-13</totfact>
</mgrwt>
</event>
<event>
 4    1 -0.5160210E-019  0.1493938E+02  0.7818608E-02  0.1869924E+00
         -2   -1    0    0    0  501 -0.00000000000E+00  0.00000000000E+00  0.11989668328E+03  0.11989668330E+03  0.25500000000E-02 0. -1.
          2   -1    0    0  501    0  0.00000000000E+00 -0.00000000000E+00 -0.46536599711E+00  0.46537298349E+00  0.25500000000E-02 0.  1.
         31    1    1    2    0    0 -0.31507261652E+00 -0.31939709078E+00  0.62687371570E+02  0.63129761331E+02  0.74470750000E+01 0. -1.
        -31    1    1    2    0    0  0.31507261652E+00  0.31939709078E+00  0.56743945709E+02  0.57232294956E+02  0.74470750000E+01 0.  1.
<mgrwt>
<rscale>  0 0.14939379E+02</rscale>
<asrwt>0</asrwt>
<pdfrwt beam="2">  1        2 0.98842259E+00 0.14939379E+02</pdfrwt>
<pdfrwt beam="1">  1       -2 0.99523769E+00 0.14939379E+02</pdfrwt>
<totfact>-0.21019227E-13</totfact>
</mgrwt>
</event>
<event>
 4    1 -0.5160210E-019  0.1490159E+02  0.7818608E-02  0.1871087E+00
         -2   -1    0    0    0  501 -0.00000000000E+00  0.00000000000E+00  0.12019843793E+03  0.12019843796E+03  0.25500000000E-02 0.  1.
          2   -1    0    0  501    0  0.00000000000E+00 -0.00000000000E+00 -0.46185204986E+00  0.46185908940E+00  0.25500000000E-02 0. -1.
         31    1    1    2    0    0  0.28256438409E-01 -0.23365795312E+00  0.59875328354E+02  0.60337130078E+02  0.74470750000E+01 0. -1.
        -31    1    1    2    0    0 -0.28256438409E-01  0.23365795312E+00  0.59861257525E+02  0.60323166968E+02  0.74470750000E+01 0. -1.
<mgrwt>
<rscale>  0 0.14901587E+02</rscale>
<asrwt>0</asrwt>
<pdfrwt beam="2">  1        2 0.98099728E+00 0.14901587E+02</pdfrwt>
<pdfrwt beam="1">  1       -2 0.99770376E+00 0.14901587E+02</pdfrwt>
<totfact>-0.44945872E-13</totfact>
</mgrwt>
</event>
<event>
 4    1 -0.5160210E-019  0.1491687E+02  0.7818608E-02  0.1870616E+00
         -2   -1    0    0    0  501 -0.00000000000E+00  0.00000000000E+00  0.11991127612E+03  0.11991127615E+03  0.25500000000E-02 0. -1.
          2   -1    0    0  501    0  0.00000000000E+00 -0.00000000000E+00 -0.46390835823E+00  0.46391536657E+00  0.25500000000E-02 0.  1.
         31    1    1    2    0    0 -0.22842111986E+00  0.32507240853E+00  0.60588778652E+02  0.61046022580E+02  0.74470750000E+01 0.  1.
        -31    1    1    2    0    0  0.22842111986E+00 -0.32507240853E+00  0.58858589112E+02  0.59329168936E+02  0.74470750000E+01 0.  1.
<mgrwt>
<rscale>  0 0.14916872E+02</rscale>
<asrwt>0</asrwt>
<pdfrwt beam="2">  1        2 0.98533905E+00 0.14916872E+02</pdfrwt>
<pdfrwt beam="1">  1       -2 0.99534631E+00 0.14916872E+02</pdfrwt>
<totfact>-0.32466542E-13</totfact>
</mgrwt>
</event>
<event>
 4    1  0.5160210E-019  0.1491581E+02  0.7818608E-02  0.1870648E+00
         -2   -1    0    0    0  501 -0.00000000000E+00  0.00000000000E+00  0.11857227337E+03  0.11857227340E+03  0.25500000000E-02 0.  1.
          2   -1    0    0  501    0  0.00000000000E+00 -0.00000000000E+00 -0.46908048392E+00  0.46908741499E+00  0.25500000000E-02 0. -1.
         31    1    1    2    0    0 -0.24570093159E+00 -0.31599138911E+00  0.58774212207E+02  0.59245482243E+02  0.74470750000E+01 0.  1.
        -31    1    1    2    0    0  0.24570093159E+00  0.31599138911E+00  0.59328980680E+02  0.59795878571E+02  0.74470750000E+01 0.  1.
<mgrwt>
<rscale>  0 0.14915811E+02</rscale>
<asrwt>0</asrwt>
<pdfrwt beam="2">  1        2 0.99623781E+00 0.14915811E+02</pdfrwt>
<pdfrwt beam="1">  1       -2 0.98431726E+00 0.14915811E+02</pdfrwt>
<totfact> 0.49713983E-13</totfact>
</mgrwt>
</event>
<event>
 4    1 -0.5160210E-019  0.1491366E+02  0.7818608E-02  0.1870715E+00
          2   -1    0    0  501    0  0.00000000000E+00  0.00000000000E+00  0.11819029534E+03  0.11819029537E+03  0.25500000000E-02 0.  1.
         -2   -1    0    0    0  501 -0.00000000000E+00 -0.00000000000E+00 -0.47046088402E+00  0.47046779474E+00  0.25500000000E-02 0. -1.
         31    1    1    2    0    0  0.19050840021E+00 -0.21020476716E+00  0.56832692769E+02  0.57319232138E+02  0.74470750000E+01 0.  1.
        -31    1    1    2    0    0 -0.19050840021E+00  0.21020476716E+00  0.60887141687E+02  0.61341531024E+02  0.74470750000E+01 0. -1.
<mgrwt>
<rscale>  0 0.14913661E+02</rscale>
<asrwt>0</asrwt>
<pdfrwt beam="1">  1        2 0.98117021E+00 0.14913661E+02</pdfrwt>
<pdfrwt beam="2">  1       -2 0.99914512E+00 0.14913661E+02</pdfrwt>
<totfact>-0.18538915E-13</totfact>
</mgrwt>
</event>
<event>
 4    1  0.5160210E-019  0.1493863E+02  0.7818608E-02  0.1869947E+00
         -2   -1    0    0    0  501 -0.00000000000E+00  0.00000000000E+00  0.11908803074E+03  0.11908803077E+03  0.25500000000E-02 0. -1.
          2   -1    0    0  501    0  0.00000000000E+00 -0.00000000000E+00 -0.46847887551E+00  0.46848581547E+00  0.25500000000E-02 0.  1.
         31    1    1    2    0    0  0.49774243027E+00 -0.13783447225E+00  0.57269808039E+02  0.57754277632E+02  0.74470750000E+01 0. -1.
        -31    1    1    2    0    0 -0.49774243027E+00  0.13783447225E+00  0.61349743825E+02  0.61802238951E+02  0.74470750000E+01 0. -1.
<mgrwt>
<rscale>  0 0.14938627E+02</rscale>
<asrwt>0</asrwt>
<pdfrwt beam="2">  1        2 0.99498211E+00 0.14938627E+02</pdfrwt>
<pdfrwt beam="1">  1       -2 0.98857693E+00 0.14938627E+02</pdfrwt>
<totfact> 0.10415420E-13</totfact>
</mgrwt>
</event>
<event>
 4    1 -0.5160210E-019  0.1495042E+02  0.7818608E-02  0.1869585E+00
         -2   -1    0    0    0  501 -0.00000000000E+00  0.00000000000E+00  0.11953663910E+03  0.11953663913E+03  0.25500000000E-02 0.  1.
          2   -1    0    0  501    0  0.00000000000E+00 -0.00000000000E+00 -0.46745818802E+00  0.46746514314E+00  0.25500000000E-02 0. -1.
         31    1    1    2    0    0  0.55282023902E+00  0.13330948097E+00  0.62027968796E+02  0.62476005159E+02  0.74470750000E+01 0.  1.
        -31    1    1    2    0    0 -0.55282023902E+00 -0.13330948097E+00  0.57041212121E+02  0.57528099116E+02  0.74470750000E+01 0. -1.
<mgrwt>
<rscale>  0 0.14950425E+02</rscale>
<asrwt>0</asrwt>
<pdfrwt beam="2">  1        2 0.99283739E+00 0.14950425E+02</pdfrwt>
<pdfrwt beam="1">  1       -2 0.99227790E+00 0.14950425E+02</pdfrwt>
<totfact>-0.10376073E-13</totfact>
</mgrwt>
</event>
<event>
 4    1  0.5160210E-019  0.1493138E+02  0.7818608E-02  0.1870170E+00
          2   -1    0    0  501    0  0.00000000000E+00  0.00000000000E+00  0.12020379958E+03  0.12020379961E+03  0.25500000000E-02 0.  1.
         -2   -1    0    0    0  501 -0.00000000000E+00 -0.00000000000E+00 -0.46367987515E+00  0.46368688694E+00  0.25500000000E-02 0. -1.
         31    1    1    2    0    0 -0.94665381409E-02 -0.42801802424E+00  0.57388477729E+02  0.57871232846E+02  0.74470750000E+01 0.  1.
        -31    1    1    2    0    0  0.94665381409E-02  0.42801802424E+00  0.62351641978E+02  0.62796253650E+02  0.74470750000E+01 0.  1.
<mgrwt>
<rscale>  0 0.14931377E+02</rscale>
<asrwt>0</asrwt>
<pdfrwt beam="1">  1        2 0.99776321E+00 0.14931377E+02</pdfrwt>
<pdfrwt beam="2">  1       -2 0.98486486E+00 0.14931377E+02</pdfrwt>
<totfact> 0.30130683E-13</totfact>
</mgrwt>
</event>
<event>
 4    1  0.5160210E-019  0.1489674E+02  0.7818608E-02  0.1871236E+00
          2   -1    0    0  501    0  0.00000000000E+00  0.00000000000E+00  0.11998665293E+03  0.11998665296E+03  0.25500000000E-02 0.  1.
         -2   -1    0    0    0  501 -0.00000000000E+00 -0.00000000000E+00 -0.46236648656E+00  0.46237351827E+00  0.25500000000E-02 0. -1.
         31    1    1    2    0    0 -0.10813912858E+00  0.85853626280E-01  0.59636545565E+02  0.60099879850E+02  0.74470750000E+01 0.  1.
        -31    1    1    2    0    0  0.10813912858E+00 -0.85853626280E-01  0.59887740877E+02  0.60349146625E+02  0.74470750000E+01 0. -1.
<mgrwt>
<rscale>  0 0.14896742E+02</rscale>
<asrwt>0</asrwt>
<pdfrwt beam="1">  1        2 0.99595682E+00 0.14896742E+02</pdfrwt>
<pdfrwt beam="2">  1       -2 0.98207912E+00 0.14896742E+02</pdfrwt>
<totfact> 0.86010341E-13</totfact>
</mgrwt>
</event>
<event>
 4    1  0.5160210E-019  0.1490327E+02  0.7818608E-02  0.1871035E+00
         -2   -1    0    0    0  501 -0.00000000000E+00  0.00000000000E+00  0.11822963689E+03  0.11822963692E+03  0.25500000000E-02 0. -1.
          2   -1    0    0  501    0  0.00000000000E+00 -0.00000000000E+00 -0.46964945662E+00  0.46965637928E+00  0.25500000000E-02 0.  1.
         31    1    1    2    0    0 -0.16547842432E+00 -0.19093417171E+00  0.58368009632E+02  0.58841714059E+02  0.74470750000E+01 0.  1.
        -31    1    1    2    0    0  0.16547842432E+00  0.19093417171E+00  0.59391977799E+02  0.59857579235E+02  0.74470750000E+01 0. -1.
<mgrwt>
<rscale>  0 0.14903274E+02</rscale>
<asrwt>0</asrwt>
<pdfrwt beam="2">  1        2 0.99743001E+00 0.14903274E+02</pdfrwt>
<pdfrwt beam="1">  1       -2 0.98148881E+00 0.14903274E+02</pdfrwt>
<totfact> 0.71846965E-13</totfact>
</mgrwt>
</event>
<event>
 4    1 -0.5160210E-019  0.1493659E+02  0.7818608E-02  0.1870010E+00
         -2   -1    0    0    0  501 -0.00000000000E+00  0.00000000000E+00  0.11978378981E+03  0.11978378984E+03  0.25500000000E-02 0. -1.
          2   -1    0    0  501    0  0.00000000000E+00 -0.00000000000E+00 -0.46563072603E+00  0.46563770844E+00  0.25500000000E-02 0.  1.
         31    1    1    2    0    0 -0.26859541874E+00  0.36226057291E+00  0.56951229376E+02  0.57437834480E+02  0.74470750000E+01 0.  1.
        -31    1    1    2    0    0  0.26859541874E+00 -0.36226057291E+00  0.62366929707E+02  0.62811593065E+02  0.74470750000E+01 0. -1.
<mgrwt>
<rscale>  0 0.14936591E+02</rscale>
<asrwt>0</asrwt>
<pdfrwt beam="2">  1        2 0.98897907E+00 0.14936591E+02</pdfrwt>
<pdfrwt beam="1">  1       -2 0.99430640E+00 0.14936591E+02</pdfrwt>
<totfact>-0.19736241E-13</totfact>
</mgrwt>
</event>
<event>
 4    1 -0.5160210E-019  0.1495056E+02  0.7818608E-02  0.1869581E+00
         -2   -1    0    0    0  501 -0.00000000000E+00  0.00000000000E+00  0.12027838091E+03  0.12027838094E+03  0.25500000000E-02 0.  1.
          2   -1    0    0  501    0  0.00000000000E+00 -0.00000000000E+00 -0.46458348710E+00  0.46459048525E+00  0.25500000000E-02 0. -1.
         31    1    1    2    0    0 -0.57903354832E+00 -0.29220167814E+00  0.59796748664E+02  0.60262183320E+02  0.74470750000E+01 0. -1.
        -31    1    1    2    0    0  0.57903354832E+00  0.29220167814E+00  0.60017048760E+02  0.60480788103E+02  0.74470750000E+01 0.  1.
<mgrwt>
<rscale>  0 0.14950555E+02</rscale>
<asrwt>0</asrwt>
<pdfrwt beam="2">  1        2 0.98677909E+00 0.14950555E+02</pdfrwt>
<pdfrwt beam="1">  1       -2 0.99838737E+00 0.14950555E+02</pdfrwt>
<totfact>-0.13110351E-13</totfact>
</mgrwt>
</event>
<event>
 4    1 -0.5160210E-019  0.1490637E+02  0.7818608E-02  0.1870939E+00
          2   -1    0    0  501    0  0.00000000000E+00  0.00000000000E+00  0.11867913430E+03  0.11867913432E+03  0.25500000000E-02 0. -1.
         -2   -1    0    0    0  501 -0.00000000000E+00 -0.00000000000E+00 -0.46806478962E+00  0.46807173572E+00  0.25500000000E-02 0.  1.
         31    1    1    2    0    0 -0.22477958958E+00  0.20117089371E+00  0.59071798011E+02  0.59540131356E+02  0.74470750000E+01 0. -1.
        -31    1    1    2    0    0  0.22477958958E+00 -0.20117089371E+00  0.59139271496E+02  0.59607074704E+02  0.74470750000E+01 0.  1.
<mgrwt>
<rscale>  0 0.14906366E+02</rscale>
<asrwt>0</asrwt>
<pdfrwt beam="1">  1        2 0.98519246E+00 0.14906366E+02</pdfrwt>
<pdfrwt beam="2">  1       -2 0.99409270E+00 0.14906366E+02</pdfrwt>
<totfact>-0.33128797E-13</totfact>
</mgrwt>
</event>
<event>
 4    1 -0.5160210E-019  0.1498765E+02  0.7818608E-02  0.1868446E+00
         -2   -1    0    0    0  501 -0.00000000000E+00  0.00000000000E+00  0.11947258400E+03  0.11947258403E+03  0.25500000000E-02 0. -1.
          2   -1    0    0  501    0  0.00000000000E+00 -0.00000000000E+00 -0.47004104036E+00  0.47004795726E+00  0.25500000000E-02 0.  1.
         31    1    1    2    0    0  0.50282381804E+00 -0.66492050881E+00  0.59978560623E+02  0.60444864228E+02  0.74470750000E+01 0.  1.
        -31    1    1    2    0    0 -0.50282381804E+00  0.66492050881E+00  0.59023982336E+02  0.59497767755E+02  0.74470750000E+01 0.  1.
<mgrwt>
<rscale>  0 0.14987653E+02</rscale>
<asrwt>0</asrwt>
<pdfrwt beam="2">  1        2 0.99829947E+00 0.14987653E+02</pdfrwt>
<pdfrwt beam="1">  1       -2 0.99176960E+00 0.14987653E+02</pdfrwt>
<totfact>-0.34437255E-14</totfact>
</mgrwt>
</event>
<event>
 4    1 -0.5160210E-019  0.1495688E+02  0.7818608E-02  0.1869387E+00
          2   -1    0    0  501    0  0.00000000000E+00  0.00000000000E+00  0.11902196346E+03  0.11902196348E+03  0.25500000000E-02 0. -1.
         -2   -1    0    0    0  501 -0.00000000000E+00 -0.00000000000E+00 -0.46988503363E+00  0.46989195283E+00  0.25500000000E-02 0.  1.
         31    1    1    2    0    0 -0.46507707862E-01  0.15958260591E+00  0.64578404578E+02  0.65006591154E+02  0.74470750000E+01 0. -1.
        -31    1    1    2    0    0  0.46507707862E-01 -0.15958260591E+00  0.53973673844E+02  0.54485264282E+02  0.74470750000E+01 0.  1.
<mgrwt>
<rscale>  0 0.14956879E+02</rscale>
<asrwt>0</asrwt>
<pdfrwt beam="1">  1        2 0.98804226E+00 0.14956879E+02</pdfrwt>
<pdfrwt beam="2">  1       -2 0.99795463E+00 0.14956879E+02</pdfrwt>
<totfact>-0.13433960E-13</totfact>
</mgrwt>
</event>
<event>
 4    1 -0.5160210E-019  0.1495783E+02  0.7818608E-02  0.1869358E+00
          2   -1    0    0  501    0  0.00000000000E+00  0.00000000000E+00  0.11957307095E+03  0.11957307097E+03  0.25500000000E-02 0.  1.
         -2   -1    0    0    0  501 -0.00000000000E+00 -0.00000000000E+00 -0.46777859922E+00  0.46778554957E+00  0.25500000000E-02 0. -1.
         31    1    1    2    0    0 -0.59323057503E+00 -0.13361158995E-01  0.56736749764E+02  0.57226478145E+02  0.74470750000E+01 0. -1.
        -31    1    1    2    0    0  0.59323057503E+00  0.13361158995E-01  0.62368542583E+02  0.62814378378E+02  0.74470750000E+01 0.  1.
<mgrwt>
<rscale>  0 0.14957826E+02</rscale>
<asrwt>0</asrwt>
<pdfrwt beam="1">  1        2 0.99258179E+00 0.14957826E+02</pdfrwt>
<pdfrwt beam="2">  1       -2 0.99351643E+00 0.14957826E+02</pdfrwt>
<totfact>-0.13591963E-13</totfact>
</mgrwt>
</event>
<event>
 4    1  0.5160210E-019  0.1491168E+02  0.7818608E-02  0.1870776E+00
         -2   -1    0    0    0  501 -0.00000000000E+00  0.00000000000E+00  0.11840507805E+03  0.11840507808E+03  0.25500000000E-02 0. -1.
          2   -1    0    0  501    0  0.00000000000E+00 -0.00000000000E+00 -0.46948249252E+00  0.46948941765E+00  0.25500000000E-02 0.  1.
         31    1    1    2    0    0  0.26669034802E+00  0.23427704029E+00  0.58427770183E+02  0.58901521747E+02  0.74470750000E+01 0.  1.
        -31    1    1    2    0    0 -0.26669034802E+00 -0.23427704029E+00  0.59507825372E+02  0.59973045746E+02  0.74470750000E+01 0. -1.
<mgrwt>
<rscale>  0 0.14911677E+02</rscale>
<asrwt>0</asrwt>
<pdfrwt beam="2">  1        2 0.99708267E+00 0.14911677E+02</pdfrwt>
<pdfrwt beam="1">  1       -2 0.98293810E+00 0.14911677E+02</pdfrwt>
<totfact> 0.58473407E-13</totfact>
</mgrwt>
</event>
<event>
 4    1 -0.5160210E-019  0.1497506E+02  0.7818608E-02  0.1868830E+00
          2   -1    0    0  501    0  0.00000000000E+00  0.00000000000E+00  0.11945084220E+03  0.11945084223E+03  0.25500000000E-02 0.  1.
         -2   -1    0    0    0  501 -0.00000000000E+00 -0.00000000000E+00 -0.46933712418E+00  0.46934405145E+00  0.25500000000E-02 0. -1.
         31    1    1    2    0    0 -0.42458009960E+00 -0.42276784613E+00  0.63456162465E+02  0.63894463624E+02  0.74470750000E+01 0.  1.
        -31    1    1    2    0    0  0.42458009960E+00  0.42276784613E+00  0.55525342610E+02  0.56025722654E+02  0.74470750000E+01 0. -1.
<mgrwt>
<rscale>  0 0.14975064E+02</rscale>
<asrwt>0</asrwt>
<pdfrwt beam="1">  1        2 0.99158400E+00 0.14975064E+02</pdfrwt>
<pdfrwt beam="2">  1       -2 0.99680961E+00 0.14975064E+02</pdfrwt>
<totfact>-0.13002570E-13</totfact>
</mgrwt>
</event>
<event>
 4    1  0.5160210E-019  0.1491304E+02  0.7818608E-02  0.1870734E+00
          2   -1    0    0  501    0  0.00000000000E+00  0.00000000000E+00  0.12011934759E+03  0.12011934762E+03  0.25500000000E-02 0. -1.
         -2   -1    0    0    0  501 -0.00000000000E+00 -0.00000000000E+00 -0.46286671359E+00  0.46287373770E+00  0.25500000000E-02 0.  1.
         31    1    1    2    0    0  0.36357019885E+00 -0.58305731480E-01  0.60409279354E+02  0.60867688810E+02  0.74470750000E+01 0.  1.
        -31    1    1    2    0    0 -0.36357019885E+00  0.58305731480E-01  0.59247201526E+02  0.59714532549E+02  0.74470750000E+01 0.  1.
<mgrwt>
<rscale>  0 0.14913038E+02</rscale>
<asrwt>0</asrwt>
<pdfrwt beam="1">  1        2 0.99705817E+00 0.14913038E+02</pdfrwt>
<pdfrwt beam="2">  1       -2 0.98314169E+00 0.14913038E+02</pdfrwt>
<totfact> 0.56223215E-13</totfact>
</mgrwt>
</event>
<event>
 4    1 -0.5160210E-019  0.1496802E+02  0.7818608E-02  0.1869046E+00
         -2   -1    0    0    0  501 -0.00000000000E+00  0.00000000000E+00  0.11981939423E+03  0.11981939425E+03  0.25500000000E-02 0.  1.
          2   -1    0    0  501    0  0.00000000000E+00 -0.00000000000E+00 -0.46745326668E+00  0.46746022187E+00  0.25500000000E-02 0. -1.
         31    1    1    2    0    0  0.51073312508E+00  0.38700606082E+00  0.62691860675E+02  0.63135876829E+02  0.74470750000E+01 0.  1.
        -31    1    1    2    0    0 -0.51073312508E+00 -0.38700606082E+00  0.56660080286E+02  0.57150977648E+02  0.74470750000E+01 0. -1.
<mgrwt>
<rscale>  0 0.14968018E+02</rscale>
<asrwt>0</asrwt>
<pdfrwt beam="2">  1        2 0.99283611E+00 0.14968018E+02</pdfrwt>
<pdfrwt beam="1">  1       -2 0.99461587E+00 0.14968018E+02</pdfrwt>
<totfact>-0.14278040E-13</totfact>
</mgrwt>
</event>
<event>
 4    1 -0.5160210E-019  0.1492345E+02  0.7818608E-02  0.1870413E+00
         -2   -1    0    0    0  501 -0.00000000000E+00  0.00000000000E+00  0.11933227721E+03  0.11933227723E+03  0.25500000000E-02 0.  1.
          2   -1    0    0  501    0  0.00000000000E+00 -0.00000000000E+00 -0.46657080254E+00  0.46657777088E+00  0.25500000000E-02 0. -1.
         31    1    1    2    0    0 -0.23577527629E+00  0.38691152031E+00  0.58511997258E+02  0.58985744377E+02  0.74470750000E+01 0. -1.
        -31    1    1    2    0    0  0.23577527629E+00 -0.38691152031E+00  0.60353709145E+02  0.60813110627E+02  0.74470750000E+01 0. -1.
<mgrwt>
<rscale>  0 0.14923455E+02</rscale>
<asrwt>0</asrwt>
<pdfrwt beam="2">  1        2 0.99095343E+00 0.14923455E+02</pdfrwt>
<pdfrwt beam="1">  1       -2 0.99058075E+00 0.14923455E+02</pdfrwt>
<totfact>-0.30837436E-14</totfact>
</mgrwt>
</event>
<event>
 4    1 -0.5160210E-019  0.1489817E+02  0.7818608E-02  0.1871192E+00
          2   -1    0    0  501    0  0.00000000000E+00  0.00000000000E+00  0.11886345660E+03  0.11886345663E+03  0.25500000000E-02 0.  1.
         -2   -1    0    0    0  501 -0.00000000000E+00 -0.00000000000E+00 -0.46682500214E+00  0.46683196669E+00  0.25500000000E-02 0. -1.
         31    1    1    2    0    0 -0.61387802005E-01 -0.42645223169E-02  0.57903366500E+02  0.58380326864E+02  0.74470750000E+01 0. -1.
        -31    1    1    2    0    0  0.61387802005E-01  0.42645223169E-02  0.60493265096E+02  0.60949961729E+02  0.74470750000E+01 0.  1.
<mgrwt>
<rscale>  0 0.14898168E+02</rscale>
<asrwt>0</asrwt>
<pdfrwt beam="1">  1        2 0.98670632E+00 0.14898168E+02</pdfrwt>
<pdfrwt beam="2">  1       -2 0.99147597E+00 0.14898168E+02</pdfrwt>
<totfact>-0.13640372E-13</totfact>
</mgrwt>
</event>
<event>
 4    1 -0.5160210E-019  0.1496408E+02  0.7818608E-02  0.1869166E+00
          2   -1    0    0  501    0  0.00000000000E+00  0.00000000000E+00  0.11953274304E+03  0.11953274307E+03  0.25500000000E-02 0. -1.
         -2   -1    0    0    0  501 -0.00000000000E+00 -0.00000000000E+00 -0.46832801505E+00  0.46833495724E+00  0.25500000000E-02 0.  1.
         31    1    1    2    0    0 -0.51522108387E-01  0.24293328946E-01  0.65308198484E+02  0.65731445747E+02  0.74470750000E+01 0. -1.
        -31    1    1    2    0    0  0.51522108387E-01 -0.24293328946E-01  0.53756216546E+02  0.54269632282E+02  0.74470750000E+01 0.  1.
<mgrwt>
<rscale>  0 0.14964084E+02</rscale>
<asrwt>0</asrwt>
<pdfrwt beam="1">  1        2 0.99225287E+00 0.14964084E+02</pdfrwt>
<pdfrwt beam="2">  1       -2 0.99467746E+00 0.14964084E+02</pdfrwt>
<totfact>-0.14895099E-13</totfact>
</mgrwt>
</event>
<event>
 4    1 -0.5160210E-019  0.1493565E+02  0.7818608E-02  0.1870039E+00
          2   -1    0    0  501    0  0.00000000000E+00  0.00000000000E+00  0.11865979084E+03  0.11865979087E+03  0.25500000000E-02 0. -1.
         -2   -1    0    0    0  501 -0.00000000000E+00 -0.00000000000E+00 -0.46998207612E+00  0.46998899389E+00  0.25500000000E-02 0.  1.
         31    1    1    2    0    0 -0.10717782549E-01  0.15503953430E+00  0.63355350374E+02  0.63791719676E+02  0.74470750000E+01 0.  1.
        -31    1    1    2    0    0  0.10717782549E-01 -0.15503953430E+00  0.54834458392E+02  0.55338060187E+02  0.74470750000E+01 0.  1.
<mgrwt>
<rscale>  0 0.14935647E+02</rscale>
<asrwt>0</asrwt>
<pdfrwt beam="1">  1        2 0.98504837E+00 0.14935647E+02</pdfrwt>
<pdfrwt beam="2">  1       -2 0.99814794E+00 0.14935647E+02</pdfrwt>
<totfact>-0.19226733E-13</totfact>
</mgrwt>
</event>
<event>
 4    1  0.5160210E-019  0.1495963E+02  0.7818608E-02  0.1869303E+00
         -2   -1    0    0    0  501 -0.00000000000E+00  0.00000000000E+00  0.11896382085E+03  0.11896382088E+03  0.25500000000E-02 0.  1.
          2   -1    0    0  501    0  0.00000000000E+00 -0.00000000000E+00 -0.47028737100E+00  0.47029428428E+00  0.25500000000E-02 0. -1.
         31    1    1    2    0    0 -0.15464788063E+00  0.94218970036E-01  0.64637302080E+02  0.65065140739E+02  0.74470750000E+01 0.  1.
        -31    1    1    2    0    0  0.15464788063E+00 -0.94218970036E-01  0.53856231400E+02  0.54368974423E+02  0.74470750000E+01 0. -1.
<mgrwt>
<rscale>  0 0.14959625E+02</rscale>
<asrwt>0</asrwt>
<pdfrwt beam="2">  1        2 0.99880383E+00 0.14959625E+02</pdfrwt>
<pdfrwt beam="1">  1       -2 0.98756483E+00 0.14959625E+02</pdfrwt>
<totfact> 0.68392055E-14</totfact>
</mgrwt>
</event>
<event>
 4    1 -0.5160210E-019  0.1496622E+02  0.7818608E-02  0.1869101E+00
          2   -1    0    0  501    0  0.00000000000E+00  0.00000000000E+00  0.11912413543E+03  0.11912413545E+03  0.25500000000E-02 0. -1.
         -2   -1    0    0    0  501 -0.00000000000E+00 -0.00000000000E+00 -0.47006891509E+00  0.47007583158E+00  0.25500000000E-02 0.  1.
         31    1    1    2    0    0  0.15311210985E+00  0.15675350135E+00  0.64920847459E+02  0.65346946186E+02  0.74470750000E+01 0. -1.
        -31    1    1    2    0    0 -0.15311210985E+00 -0.15675350135E+00  0.53733219052E+02  0.54247265099E+02  0.74470750000E+01 0.  1.
<mgrwt>
<rscale>  0 0.14966224E+02</rscale>
<asrwt>0</asrwt>
<pdfrwt beam="1">  1        2 0.98888861E+00 0.14966224E+02</pdfrwt>
<pdfrwt beam="2">  1       -2 0.99834699E+00 0.14966224E+02</pdfrwt>
<totfact>-0.10180361E-13</totfact>
</mgrwt>
</event>
<event>
 4    1 -0.5160210E-019  0.1492823E+02  0.7818608E-02  0.1870266E+00
          2   -1    0    0  501    0  0.00000000000E+00  0.00000000000E+00  0.11914284308E+03  0.11914284311E+03  0.25500000000E-02 0. -1.
         -2   -1    0    0    0  501 -0.00000000000E+00 -0.00000000000E+00 -0.46761189866E+00  0.46761885149E+00  0.25500000000E-02 0.  1.
         31    1    1    2    0    0  0.34490570033E+00  0.34420984302E+00  0.58303365337E+02  0.58779067499E+02  0.74470750000E+01 0.  1.
        -31    1    1    2    0    0 -0.34490570033E+00 -0.34420984302E+00  0.60371865845E+02  0.60831394460E+02  0.74470750000E+01 0. -1.
<mgrwt>
<rscale>  0 0.14928232E+02</rscale>
<asrwt>0</asrwt>
<pdfrwt beam="1">  1        2 0.98902299E+00 0.14928232E+02</pdfrwt>
<pdfrwt beam="2">  1       -2 0.99314979E+00 0.14928232E+02</pdfrwt>
<totfact>-0.17587407E-13</totfact>
</mgrwt>
</event>
<event>
 4    1 -0.5160210E-019  0.1500395E+02  0.7818608E-02  0.1867948E+00
          2   -1    0    0  501    0  0.00000000000E+00  0.00000000000E+00  0.12010010495E+03  0.12010010498E+03  0.25500000000E-02 0.  1.
         -2   -1    0    0    0  501 -0.00000000000E+00 -0.00000000000E+00 -0.46860228057E+00  0.46860921871E+00  0.25500000000E-02 0. -1.
         31    1    1    2    0    0  0.58716071558E-01  0.37492682121E+00  0.53205558611E+02  0.53725547097E+02  0.74470750000E+01 0. -1.
        -31    1    1    2    0    0 -0.58716071558E-01 -0.37492682121E+00  0.66425944059E+02  0.66843167099E+02  0.74470750000E+01 0.  1.
<mgrwt>
<rscale>  0 0.15003947E+02</rscale>
<asrwt>0</asrwt>
<pdfrwt beam="1">  1        2 0.99694649E+00 0.15003947E+02</pdfrwt>
<pdfrwt beam="2">  1       -2 0.99527605E+00 0.15003947E+02</pdfrwt>
<totfact>-0.88295432E-14</totfact>
</mgrwt>
</event>
<event>
 4    1  0.5160210E-019  0.1492526E+02  0.7818608E-02  0.1870358E+00
         -2   -1    0    0    0  501 -0.00000000000E+00  0.00000000000E+00  0.11857085999E+03  0.11857086002E+03  0.25500000000E-02 0.  1.
          2   -1    0    0  501    0  0.00000000000E+00 -0.00000000000E+00 -0.46968034171E+00  0.46968726392E+00  0.25500000000E-02 0. -1.
         31    1    1    2    0    0 -0.11505750357E+00 -0.40943950864E+00  0.57249216568E+02  0.57733115304E+02  0.74470750000E+01 0. -1.
        -31    1    1    2    0    0  0.11505750357E+00  0.40943950864E+00  0.60851963083E+02  0.61307431980E+02  0.74470750000E+01 0.  1.
<mgrwt>
<rscale>  0 0.14925256E+02</rscale>
<asrwt>0</asrwt>
<pdfrwt beam="2">  1        2 0.99750670E+00 0.14925256E+02</pdfrwt>
<pdfrwt beam="1">  1       -2 0.98431053E+00 0.14925256E+02</pdfrwt>
<totfact> 0.37850141E-13</totfact>
</mgrwt>
</event>
<event>
 4    1 -0.5160210E-019  0.1494942E+02  0.7818608E-02  0.1869616E+00
         -2   -1    0    0    0  501 -0.00000000000E+00  0.00000000000E+00  0.12023416462E+03  0.12023416465E+03  0.25500000000E-02 0. -1.
          2   -1    0    0  501    0  0.00000000000E+00 -0.00000000000E+00 -0.46468367033E+00  0.46469066698E+00  0.25500000000E-02 0.  1.
         31    1    1    2    0    0  0.33039293107E+00 -0.31578946380E+00  0.56242847360E+02  0.56735576914E+02  0.74470750000E+01 0.  1.
        -31    1    1    2    0    0 -0.33039293107E+00  0.31578946380E+00  0.63526633594E+02  0.63963278405E+02  0.74470750000E+01 0.  1.
<mgrwt>
<rscale>  0 0.14949418E+02</rscale>
<asrwt>0</asrwt>
<pdfrwt beam="2">  1        2 0.98698966E+00 0.14949418E+02</pdfrwt>
<pdfrwt beam="1">  1       -2 0.99802258E+00 0.14949418E+02</pdfrwt>
<totfact>-0.15069066E-13</totfact>
</mgrwt>
</event>
<event>
 4    1  0.5160210E-019  0.1494461E+02  0.7818608E-02  0.1869763E+00
         -2   -1    0    0    0  501 -0.00000000000E+00  0.00000000000E+00  0.11891381982E+03  0.11891381985E+03  0.25500000000E-02 0. -1.
          2   -1    0    0  501    0  0.00000000000E+00 -0.00000000000E+00 -0.46954122957E+00  0.46954815383E+00  0.25500000000E-02 0.  1.
         31    1    1    2    0    0 -0.45552245280E+00  0.38603885221E+00  0.58095143002E+02  0.58573552847E+02  0.74470750000E+01 0.  1.
        -31    1    1    2    0    0  0.45552245280E+00 -0.38603885221E+00  0.60349135593E+02  0.60809815158E+02  0.74470750000E+01 0.  1.
<mgrwt>
<rscale>  0 0.14944612E+02</rscale>
<asrwt>0</asrwt>
<pdfrwt beam="2">  1        2 0.99722377E+00 0.14944612E+02</pdfrwt>
<pdfrwt beam="1">  1       -2 0.98714521E+00 0.14944612E+02</pdfrwt>
<totfact> 0.16174224E-13</totfact>
</mgrwt>
</event>
<event>
 4    1  0.5160210E-019  0.1492373E+02  0.7818608E-02  0.1870405E+00
          2   -1    0    0  501    0  0.00000000000E+00  0.00000000000E+00  0.12017158651E+03  0.12017158654E+03  0.25500000000E-02 0.  1.
         -2   -1    0    0    0  501 -0.00000000000E+00 -0.00000000000E+00 -0.46332899894E+00  0.46333601603E+00  0.25500000000E-02 0. -1.
         31    1    1    2    0    0 -0.35836050493E+00 -0.18209431654E+00  0.57892349432E+02  0.58370751490E+02  0.74470750000E+01 0. -1.
        -31    1    1    2    0    0  0.35836050493E+00  0.18209431654E+00  0.61815908082E+02  0.62264171066E+02  0.74470750000E+01 0.  1.
<mgrwt>
<rscale>  0 0.14923727E+02</rscale>
<asrwt>0</asrwt>
<pdfrwt beam="1">  1        2 0.99749394E+00 0.14923727E+02</pdfrwt>
<pdfrwt beam="2">  1       -2 0.98412145E+00 0.14923727E+02</pdfrwt>
<totfact> 0.39855626E-13</totfact>
</mgrwt>
</event>
<event>
 4    1  0.5160210E-019  0.1489861E+02  0.7818608E-02  0.1871178E+00
         -2   -1    0    0    0  501 -0.00000000000E+00  0.00000000000E+00  0.11911599903E+03  0.11911599906E+03  0.25500000000E-02 0.  1.
          2   -1    0    0  501    0  0.00000000000E+00 -0.00000000000E+00 -0.46586285624E+00  0.46586983517E+00  0.25500000000E-02 0. -1.
         31    1    1    2    0    0 -0.61295855880E-01 -0.16870210519E+00  0.59578224012E+02  0.60042117884E+02  0.74470750000E+01 0. -1.
        -31    1    1    2    0    0  0.61295855880E-01  0.16870210519E+00  0.59071912161E+02  0.59539751007E+02  0.74470750000E+01 0. -1.
<mgrwt>
<rscale>  0 0.14898609E+02</rscale>
<asrwt>0</asrwt>
<pdfrwt beam="2">  1        2 0.98944870E+00 0.14898609E+02</pdfrwt>
<pdfrwt beam="1">  1       -2 0.98878656E+00 0.14898609E+02</pdfrwt>
<totfact> 0.13919967E-13</totfact>
</mgrwt>
</event>
<event>
 4    1 -0.5160210E-019  0.1490057E+02  0.7818608E-02  0.1871118E+00
          2   -1    0    0  501    0  0.00000000000E+00  0.00000000000E+00  0.11832982212E+03  0.11832982215E+03  0.25500000000E-02 0. -1.
         -2   -1    0    0    0  501 -0.00000000000E+00 -0.00000000000E+00 -0.46908120935E+00  0.46908814040E+00  0.25500000000E-02 0.  1.
         31    1    1    2    0    0  0.23810956303E-01 -0.16873818969E+00  0.57838833176E+02  0.58316537867E+02  0.74470750000E+01 0.  1.
        -31    1    1    2    0    0 -0.23810956303E-01  0.16873818969E+00  0.60021907739E+02  0.60482372426E+02  0.74470750000E+01 0. -1.
<mgrwt>
<rscale>  0 0.14900565E+02</rscale>
<asrwt>0</asrwt>
<pdfrwt beam="1">  1        2 0.98231251E+00 0.14900565E+02</pdfrwt>
<pdfrwt beam="2">  1       -2 0.99623130E+00 0.14900565E+02</pdfrwt>
<totfact>-0.49669251E-13</totfact>
</mgrwt>
</event>
<event>
 4    1 -0.5160210E-019  0.1501650E+02  0.7818608E-02  0.1867566E+00
          2   -1    0    0  501    0  0.00000000000E+00  0.00000000000E+00  0.11999628858E+03  0.11999628860E+03  0.25500000000E-02 0. -1.
         -2   -1    0    0    0  501 -0.00000000000E+00 -0.00000000000E+00 -0.46979255695E+00  0.46979947751E+00  0.25500000000E-02 0.  1.
         31    1    1    2    0    0 -0.60065130688E+00 -0.28935368665E+00  0.54261433700E+02  0.54774141900E+02  0.74470750000E+01 0.  1.
        -31    1    1    2    0    0  0.60065130688E+00  0.28935368665E+00  0.65265062319E+02  0.65691946182E+02  0.74470750000E+01 0. -1.
<mgrwt>
<rscale>  0 0.15016495E+02</rscale>
<asrwt>0</asrwt>
<pdfrwt beam="1">  1        2 0.99609790E+00 0.15016495E+02</pdfrwt>
<pdfrwt beam="2">  1       -2 0.99779085E+00 0.15016495E+02</pdfrwt>
<totfact>-0.66903288E-14</totfact>
</mgrwt>
</event>
<event>
 4    1  0.5160210E-019  0.1495027E+02  0.7818608E-02  0.1869590E+00
          2   -1    0    0  501    0  0.00000000000E+00  0.00000000000E+00  0.12016840922E+03  0.12016840925E+03  0.25500000000E-02 0.  1.
         -2   -1    0    0    0  501 -0.00000000000E+00 -0.00000000000E+00 -0.46499071087E+00  0.46499770289E+00  0.25500000000E-02 0. -1.
         31    1    1    2    0    0  0.20258022480E+00 -0.61012244286E+00  0.59258587284E+02  0.59728154007E+02  0.74470750000E+01 0. -1.
        -31    1    1    2    0    0 -0.20258022480E+00  0.61012244286E+00  0.60444831224E+02  0.60905252942E+02  0.74470750000E+01 0. -1.
<mgrwt>
<rscale>  0 0.14950267E+02</rscale>
<asrwt>0</asrwt>
<pdfrwt beam="1">  1        2 0.99748141E+00 0.14950267E+02</pdfrwt>
<pdfrwt beam="2">  1       -2 0.98763721E+00 0.14950267E+02</pdfrwt>
<totfact> 0.12002325E-13</totfact>
</mgrwt>
</event>
<event>
 4    1  0.5160210E-019  0.1490124E+02  0.7818608E-02  0.1871097E+00
         -2   -1    0    0    0  501 -0.00000000000E+00  0.00000000000E+00  0.11816879609E+03  0.11816879612E+03  0.25500000000E-02 0. -1.
          2   -1    0    0  501    0  0.00000000000E+00 -0.00000000000E+00 -0.46976299679E+00  0.46976991778E+00  0.25500000000E-02 0.  1.
         31    1    1    2    0    0 -0.22713956368E+00 -0.33446152383E-01  0.58768762231E+02  0.59239168219E+02  0.74470750000E+01 0. -1.
        -31    1    1    2    0    0  0.22713956368E+00  0.33446152383E-01  0.58930270866E+02  0.59399397820E+02  0.74470750000E+01 0.  1.
<mgrwt>
<rscale>  0 0.14901240E+02</rscale>
<asrwt>0</asrwt>
<pdfrwt beam="2">  1        2 0.99766815E+00 0.14901240E+02</pdfrwt>
<pdfrwt beam="1">  1       -2 0.98098667E+00 0.14901240E+02</pdfrwt>
<totfact> 0.73468217E-13</totfact>
</mgrwt>
</event>
<event>
 4    1 -0.5160210E-019  0.1501387E+02  0.7818608E-02  0.1867645E+00
         -2   -1    0    0    0  501 -0.00000000000E+00  0.00000000000E+00  0.12027188765E+03  0.12027188768E+03  0.25500000000E-02 0. -1.
          2   -1    0    0  501    0  0.00000000000E+00 -0.00000000000E+00 -0.46855229256E+00  0.46855923144E+00  0.25500000000E-02 0.  1.
         31    1    1    2    0    0  0.20801286678E+00  0.87563041230E+00  0.57554786291E+02  0.58041557087E+02  0.74470750000E+01 0.  1.
        -31    1    1    2    0    0 -0.20801286678E+00 -0.87563041230E+00  0.62248549068E+02  0.62698889824E+02  0.74470750000E+01 0.  1.
<mgrwt>
<rscale>  0 0.15013872E+02</rscale>
<asrwt>0</asrwt>
<pdfrwt beam="2">  1        2 0.99517582E+00 0.15013872E+02</pdfrwt>
<pdfrwt beam="1">  1       -2 0.99836649E+00 0.15013872E+02</pdfrwt>
<totfact>-0.58870668E-14</totfact>
</mgrwt>
</event>
<event>
 4    1 -0.5160210E-019  0.1493291E+02  0.7818608E-02  0.1870123E+00
          2   -1    0    0  501    0  0.00000000000E+00  0.00000000000E+00  0.11886800804E+03  0.11886800806E+03  0.25500000000E-02 0. -1.
         -2   -1    0    0    0  501 -0.00000000000E+00 -0.00000000000E+00 -0.46898660538E+00  0.46899353783E+00  0.25500000000E-02 0.  1.
         31    1    1    2    0    0 -0.58113967483E-01  0.49616886779E+00  0.57612589628E+02  0.58094052798E+02  0.74470750000E+01 0.  1.
        -31    1    1    2    0    0  0.58113967483E-01 -0.49616886779E+00  0.60786431803E+02  0.61242948803E+02  0.74470750000E+01 0. -1.
<mgrwt>
<rscale>  0 0.14932906E+02</rscale>
<asrwt>0</asrwt>
<pdfrwt beam="1">  1        2 0.98676183E+00 0.14932906E+02</pdfrwt>
<pdfrwt beam="2">  1       -2 0.99604898E+00 0.14932906E+02</pdfrwt>
<totfact>-0.24680602E-13</totfact>
</mgrwt>
</event>
<event>
 4    1 -0.5160210E-019  0.1498108E+02  0.7818608E-02  0.1868646E+00
         -2   -1    0    0    0  501 -0.00000000000E+00  0.00000000000E+00  0.12013231253E+03  0.12013231255E+03  0.25500000000E-02 0.  1.
          2   -1    0    0  501    0  0.00000000000E+00 -0.00000000000E+00 -0.46705004643E+00  0.46705700762E+00  0.25500000000E-02 0. -1.
         31    1    1    2    0    0  0.54529285151E+00  0.23062851293E+00  0.64232762954E+02  0.64665735104E+02  0.74470750000E+01 0.  1.
        -31    1    1    2    0    0 -0.54529285151E+00 -0.23062851293E+00  0.55432499526E+02  0.55933634457E+02  0.74470750000E+01 0. -1.
<mgrwt>
<rscale>  0 0.14981085E+02</rscale>
<asrwt>0</asrwt>
<pdfrwt beam="2">  1        2 0.99199307E+00 0.14981085E+02</pdfrwt>
<pdfrwt beam="1">  1       -2 0.99719997E+00 0.14981085E+02</pdfrwt>
<totfact>-0.11587152E-13</totfact>
</mgrwt>
</event>
<event>
 4    1  0.5160210E-019  0.1493292E+02  0.7818608E-02  0.1870122E+00
         -2   -1    0    0    0  501 -0.00000000000E+00  0.00000000000E+00  0.11893873737E+03  0.11893873739E+03  0.25500000000E-02 0.  1.
          2   -1    0    0  501    0  0.00000000000E+00 -0.00000000000E+00 -0.46870860453E+00  0.46871554110E+00  0.25500000000E-02 0. -1.
         31    1    1    2    0    0  0.52818780672E+00  0.16894178765E-01  0.60027876866E+02  0.60490364479E+02  0.74470750000E+01 0. -1.
        -31    1    1    2    0    0 -0.52818780672E+00 -0.16894178765E-01  0.58442151895E+02  0.58917088455E+02  0.74470750000E+01 0. -1.
<mgrwt>
<rscale>  0 0.14932920E+02</rscale>
<asrwt>0</asrwt>
<pdfrwt beam="2">  1        2 0.99546320E+00 0.14932920E+02</pdfrwt>
<pdfrwt beam="1">  1       -2 0.98734437E+00 0.14932920E+02</pdfrwt>
<totfact> 0.20081236E-13</totfact>
</mgrwt>
</event>
<event>
 4    1 -0.5160210E-019  0.1499421E+02  0.7818608E-02  0.1868245E+00
          2   -1    0    0  501    0  0.00000000000E+00  0.00000000000E+00  0.12013570999E+03  0.12013571001E+03  0.25500000000E-02 0. -1.
         -2   -1    0    0    0  501 -0.00000000000E+00 -0.00000000000E+00 -0.46785583169E+00  0.46786278090E+00  0.25500000000E-02 0.  1.
         31    1    1    2    0    0  0.74311088394E+00 -0.43273247547E+00  0.60562990849E+02  0.61025193632E+02  0.74470750000E+01 0. -1.
        -31    1    1    2    0    0 -0.74311088394E+00  0.43273247547E+00  0.59104863305E+02  0.59578379162E+02  0.74470750000E+01 0.  1.
<mgrwt>
<rscale>  0 0.14994214E+02</rscale>
<asrwt>0</asrwt>
<pdfrwt beam="1">  1        2 0.99723472E+00 0.14994214E+02</pdfrwt>
<pdfrwt beam="2">  1       -2 0.99369797E+00 0.14994214E+02</pdfrwt>
<totfact>-0.79490055E-14</totfact>
</mgrwt>
</event>
<event>
 4    1 -0.5160210E-019  0.1493339E+02  0.7818608E-02  0.1870108E+00
         -2   -1    0    0    0  501 -0.00000000000E+00  0.00000000000E+00  0.12028800288E+03  0.12028800291E+03  0.25500000000E-02 0.  1.
          2   -1    0    0  501    0  0.00000000000E+00 -0.00000000000E+00 -0.46348024130E+00  0.46348725611E+00  0.25500000000E-02 0. -1.
         31    1    1    2    0    0 -0.47658673894E+00 -0.67771844739E-01  0.57917068778E+02  0.58395868945E+02  0.74470750000E+01 0. -1.
        -31    1    1    2    0    0  0.47658673894E+00  0.67771844739E-01  0.61907453865E+02  0.62355621223E+02  0.74470750000E+01 0.  1.
<mgrwt>
<rscale>  0 0.14933390E+02</rscale>
<asrwt>0</asrwt>
<pdfrwt beam="2">  1        2 0.98444512E+00 0.14933390E+02</pdfrwt>
<pdfrwt beam="1">  1       -2 0.99845781E+00 0.14933390E+02</pdfrwt>
<totfact>-0.18184286E-13</totfact>
</mgrwt>
</event>
<event>
 4    1  0.5160210E-019  0.1489623E+02  0.7818608E-02  0.1871252E+00
         -2   -1    0    0    0  501 -0.00000000000E+00  0.00000000000E+00  0.11812956644E+03  0.11812956647E+03  0.25500000000E-02 0.  1.
          2   -1    0    0  501    0  0.00000000000E+00 -0.00000000000E+00 -0.46960305934E+00  0.46960998269E+00  0.25500000000E-02 0. -1.
         31    1    1    2    0    0  0.16407713071E-01 -0.12003099445E+00  0.59057311953E+02  0.59525118209E+02  0.74470750000E+01 0.  1.
        -31    1    1    2    0    0 -0.16407713071E-01  0.12003099445E+00  0.58602651428E+02  0.59074058242E+02  0.74470750000E+01 0.  1.
<mgrwt>
<rscale>  0 0.14896230E+02</rscale>
<asrwt>0</asrwt>
<pdfrwt beam="2">  1        2 0.99732852E+00 0.14896230E+02</pdfrwt>
<pdfrwt beam="1">  1       -2 0.98066097E+00 0.14896230E+02</pdfrwt>
<totfact> 0.85973916E-13</totfact>
</mgrwt>
</event>
<event>
 4    1  0.5160210E-019  0.1491345E+02  0.7818608E-02  0.1870721E+00
         -2   -1    0    0    0  501 -0.00000000000E+00  0.00000000000E+00  0.11861566829E+03  0.11861566832E+03  0.25500000000E-02 0. -1.
          2   -1    0    0  501    0  0.00000000000E+00 -0.00000000000E+00 -0.46876053531E+00  0.46876747110E+00  0.25500000000E-02 0.  1.
         31    1    1    2    0    0  0.13360930802E+00 -0.29574720579E+00  0.60640533193E+02  0.61096959906E+02  0.74470750000E+01 0. -1.
        -31    1    1    2    0    0 -0.13360930802E+00  0.29574720579E+00  0.57506374564E+02  0.57987475884E+02  0.74470750000E+01 0.  1.
<mgrwt>
<rscale>  0 0.14913451E+02</rscale>
<asrwt>0</asrwt>
<pdfrwt beam="2">  1        2 0.99556242E+00 0.14913451E+02</pdfrwt>
<pdfrwt beam="1">  1       -2 0.98467343E+00 0.14913451E+02</pdfrwt>
<totfact> 0.49787230E-13</totfact>
</mgrwt>
</event>
<event>
 4    1 -0.5160210E-019  0.1493008E+02  0.7818608E-02  0.1870210E+00
         -2   -1    0    0    0  501 -0.00000000000E+00  0.00000000000E+00  0.11990926753E+03  0.11990926756E+03  0.25500000000E-02 0. -1.
          2   -1    0    0  501    0  0.00000000000E+00 -0.00000000000E+00 -0.46473785014E+00  0.46474484597E+00  0.25500000000E-02 0.  1.
         31    1    1    2    0    0  0.17428959116E+00 -0.48401130024E+00  0.60180343463E+02  0.60641547714E+02  0.74470750000E+01 0.  1.
        -31    1    1    2    0    0 -0.17428959116E+00  0.48401130024E+00  0.59264186217E+02  0.59732464689E+02  0.74470750000E+01 0. -1.
<mgrwt>
<rscale>  0 0.14930077E+02</rscale>
<asrwt>0</asrwt>
<pdfrwt beam="2">  1        2 0.98709399E+00 0.14930077E+02</pdfrwt>
<pdfrwt beam="1">  1       -2 0.99533656E+00 0.14930077E+02</pdfrwt>
<totfact>-0.24914241E-13</totfact>
</mgrwt>
</event>
<event>
 4    1 -0.5160210E-019  0.1491252E+02  0.7818608E-02  0.1870750E+00
          2   -1    0    0  501    0  0.00000000000E+00  0.00000000000E+00  0.11827337477E+03  0.11827337479E+03  0.25500000000E-02 0. -1.
         -2   -1    0    0    0  501 -0.00000000000E+00 -0.00000000000E+00 -0.47005873346E+00  0.47006565010E+00  0.25500000000E-02 0.  1.
         31    1    1    2    0    0  0.23108803003E+00 -0.15395086662E+00  0.56954197339E+02  0.57439678125E+02  0.74470750000E+01 0.  1.
        -31    1    1    2    0    0 -0.23108803003E+00  0.15395086662E+00  0.60849118693E+02  0.61303762317E+02  0.74470750000E+01 0. -1.
<mgrwt>
<rscale>  0 0.14912524E+02</rscale>
<asrwt>0</asrwt>
<pdfrwt beam="1">  1        2 0.98185385E+00 0.14912524E+02</pdfrwt>
<pdfrwt beam="2">  1       -2 0.99829723E+00 0.14912524E+02</pdfrwt>
<totfact>-0.30590255E-13</totfact>
</mgrwt>
</event>
<event>
 4    1 -0.5160210E-019  0.1497231E+02  0.7818608E-02  0.1868915E+00
          2   -1    0    0  501    0  0.00000000000E+00  0.00000000000E+00  0.11988988601E+03  0.11988988603E+03  0.25500000000E-02 0. -1.
         -2   -1    0    0    0  501 -0.00000000000E+00 -0.00000000000E+00 -0.46744629345E+00  0.46745324874E+00  0.25500000000E-02 0.  1.
         31    1    1    2    0    0  0.57368797803E+00 -0.35995798822E+00  0.62552057897E+02  0.62997440907E+02  0.74470750000E+01 0.  1.
        -31    1    1    2    0    0 -0.57368797803E+00  0.35995798822E+00  0.56870381815E+02  0.57359898374E+02  0.74470750000E+01 0.  1.
<mgrwt>
<rscale>  0 0.14972308E+02</rscale>
<asrwt>0</asrwt>
<pdfrwt beam="1">  1        2 0.99519869E+00 0.14972308E+02</pdfrwt>
<pdfrwt beam="2">  1       -2 0.99282362E+00 0.14972308E+02</pdfrwt>
<totfact>-0.97894011E-14</totfact>
</mgrwt>
</event>
<event>
 4    1  0.5160210E-019  0.1492425E+02  0.7818608E-02  0.1870389E+00
          2   -1    0    0  501    0  0.00000000000E+00  0.00000000000E+00  0.12034465598E+03  0.12034465601E+03  0.25500000000E-02 0.  1.
         -2   -1    0    0    0  501 -0.00000000000E+00 -0.00000000000E+00 -0.46269484196E+00  0.46270186868E+00  0.25500000000E-02 0. -1.
         31    1    1    2    0    0  0.11038338152E+00 -0.56711145802E-01  0.63641163303E+02  0.64075517894E+02  0.74470750000E+01 0.  1.
        -31    1    1    2    0    0 -0.11038338152E+00  0.56711145802E-01  0.56240797837E+02  0.56731839985E+02  0.74470750000E+01 0. -1.
<mgrwt>
<rscale>  0 0.14924246E+02</rscale>
<asrwt>0</asrwt>
<pdfrwt beam="1">  1        2 0.99891976E+00 0.14924246E+02</pdfrwt>
<pdfrwt beam="2">  1       -2 0.98278510E+00 0.14924246E+02</pdfrwt>
<totfact> 0.27410004E-13</totfact>
</mgrwt>
</event>
<event>
 4    1 -0.5160210E-019  0.1496707E+02  0.7818608E-02  0.1869075E+00
         -2   -1    0    0    0  501 -0.00000000000E+00  0.00000000000E+00  0.11977693547E+03  0.11977693550E+03  0.25500000000E-02 0. -1.
          2   -1    0    0  501    0  0.00000000000E+00 -0.00000000000E+00 -0.46755975513E+00  0.46756670873E+00  0.25500000000E-02 0.  1.
         31    1    1    2    0    0  0.68093532478E+00 -0.16072094804E+00  0.57772891327E+02  0.58255089069E+02  0.74470750000E+01 0.  1.
        -31    1    1    2    0    0 -0.68093532478E+00  0.16072094804E+00  0.61536484390E+02  0.61989413139E+02  0.74470750000E+01 0. -1.
<mgrwt>
<rscale>  0 0.14967070E+02</rscale>
<asrwt>0</asrwt>
<pdfrwt beam="2">  1        2 0.99306003E+00 0.14967070E+02</pdfrwt>
<pdfrwt beam="1">  1       -2 0.99426568E+00 0.14967070E+02</pdfrwt>
<totfact>-0.13921074E-13</totfact>
</mgrwt>
</event>
<event>
 4    1 -0.5160210E-019  0.1491043E+02  0.7818608E-02  0.1870814E+00
          2   -1    0    0  501    0  0.00000000000E+00  0.00000000000E+00  0.11834597875E+03  0.11834597877E+03  0.25500000000E-02 0.  1.
         -2   -1    0    0    0  501 -0.00000000000E+00 -0.00000000000E+00 -0.46963858875E+00  0.46964551158E+00  0.25500000000E-02 0. -1.
         31    1    1    2    0    0  0.18722866657E+00 -0.13697453495E+00  0.61008612495E+02  0.61461886900E+02  0.74470750000E+01 0.  1.
        -31    1    1    2    0    0 -0.18722866657E+00  0.13697453495E+00  0.56867727663E+02  0.57353737387E+02  0.74470750000E+01 0. -1.
<mgrwt>
<rscale>  0 0.14910433E+02</rscale>
<asrwt>0</asrwt>
<pdfrwt beam="1">  1        2 0.98245071E+00 0.14910433E+02</pdfrwt>
<pdfrwt beam="2">  1       -2 0.99741090E+00 0.14910433E+02</pdfrwt>
<totfact>-0.38471789E-13</totfact>
</mgrwt>
</event>
<event>
 4    1  0.5160210E-019  0.1490069E+02  0.7818608E-02  0.1871114E+00
         -2   -1    0    0    0  501 -0.00000000000E+00  0.00000000000E+00  0.11805518944E+03  0.11805518947E+03  0.25500000000E-02 0. -1.
          2   -1    0    0  501    0  0.00000000000E+00 -0.00000000000E+00 -0.47018038297E+00  0.47018729781E+00  0.25500000000E-02 0.  1.
         31    1    1    2    0    0  0.13779900035E+00  0.17004094398E+00  0.59019874689E+02  0.59488254612E+02  0.74470750000E+01 0.  1.
        -31    1    1    2    0    0 -0.13779900035E+00 -0.17004094398E+00  0.58565134373E+02  0.59037122157E+02  0.74470750000E+01 0.  1.
<mgrwt>
<rscale>  0 0.14900691E+02</rscale>
<asrwt>0</asrwt>
<pdfrwt beam="2">  1        2 0.99854725E+00 0.14900691E+02</pdfrwt>
<pdfrwt beam="1">  1       -2 0.98005074E+00 0.14900691E+02</pdfrwt>
<totfact> 0.59447272E-13</totfact>
</mgrwt>
</event>
<event>
 4    1 -0.5160210E-019  0.1491213E+02  0.7818608E-02  0.1870762E+00
         -2   -1    0    0    0  501 -0.00000000000E+00  0.00000000000E+00  0.11959188724E+03  0.11959188727E+03  0.25500000000E-02 0. -1.
          2   -1    0    0  501    0  0.00000000000E+00 -0.00000000000E+00 -0.46485161989E+00  0.46485861401E+00  0.25500000000E-02 0.  1.
         31    1    1    2    0    0 -0.31888614183E+00 -0.17881348475E+00  0.59706475165E+02  0.60170223245E+02  0.74470750000E+01 0. -1.
        -31    1    1    2    0    0  0.31888614183E+00  0.17881348475E+00  0.59420560453E+02  0.59886522635E+02  0.74470750000E+01 0.  1.
<mgrwt>
<rscale>  0 0.14912130E+02</rscale>
<asrwt>0</asrwt>
<pdfrwt beam="2">  1        2 0.98732458E+00 0.14912130E+02</pdfrwt>
<pdfrwt beam="1">  1       -2 0.99271317E+00 0.14912130E+02</pdfrwt>
<totfact>-0.19991200E-13</totfact>
</mgrwt>
</event>
<event>
 4    1  0.5160210E-019  0.1492505E+02  0.7818608E-02  0.1870364E+00
          2   -1    0    0  501    0  0.00000000000E+00  0.00000000000E+00  0.12038986934E+03  0.12038986936E+03  0.25500000000E-02 0.  1.
         -2   -1    0    0    0  501 -0.00000000000E+00 -0.00000000000E+00 -0.46257079894E+00  0.46257782754E+00  0.25500000000E-02 0. -1.
         31    1    1    2    0    0  0.38908455808E+00 -0.11059193029E+00  0.62055211853E+02  0.62501774867E+02  0.74470750000E+01 0.  1.
        -31    1    1    2    0    0 -0.38908455808E+00  0.11059193029E+00  0.57872086684E+02  0.58350672323E+02  0.74470750000E+01 0. -1.
<mgrwt>
<rscale>  0 0.14925048E+02</rscale>
<asrwt>0</asrwt>
<pdfrwt beam="1">  1        2 0.99929259E+00 0.14925048E+02</pdfrwt>
<pdfrwt beam="2">  1       -2 0.98252405E+00 0.14925048E+02</pdfrwt>
<totfact> 0.19771245E-13</totfact>
</mgrwt>
</event>
<event>
 4    1 -0.5160210E-019  0.1492111E+02  0.7818608E-02  0.1870485E+00
         -2   -1    0    0    0  501 -0.00000000000E+00  0.00000000000E+00  0.11984270106E+03  0.11984270109E+03  0.25500000000E-02 0.  1.
          2   -1    0    0  501    0  0.00000000000E+00 -0.00000000000E+00 -0.46443752825E+00  0.46444452860E+00  0.25500000000E-02 0. -1.
         31    1    1    2    0    0  0.45615932573E-01  0.29039683983E+00  0.62417835577E+02  0.62861208509E+02  0.74470750000E+01 0.  1.
        -31    1    1    2    0    0 -0.45615932573E-01 -0.29039683983E+00  0.56960427957E+02  0.57445937108E+02  0.74470750000E+01 0. -1.
<mgrwt>
<rscale>  0 0.14921109E+02</rscale>
<asrwt>0</asrwt>
<pdfrwt beam="2">  1        2 0.98645647E+00 0.14921109E+02</pdfrwt>
<pdfrwt beam="1">  1       -2 0.99478365E+00 0.14921109E+02</pdfrwt>
<totfact>-0.27728493E-13</totfact>
</mgrwt>
</event>
<event>
 4    1 -0.5160210E-019  0.1498387E+02  0.7818608E-02  0.1868561E+00
         -2   -1    0    0    0  501 -0.00000000000E+00  0.00000000000E+00  0.11957835904E+03  0.11957835907E+03  0.25500000000E-02 0. -1.
          2   -1    0    0  501    0  0.00000000000E+00 -0.00000000000E+00 -0.46938810444E+00  0.46939503096E+00  0.25500000000E-02 0.  1.
         31    1    1    2    0    0  0.18760313376E+00  0.58348823790E+00  0.63902296355E+02  0.64337687703E+02  0.74470750000E+01 0. -1.
        -31    1    1    2    0    0 -0.18760313376E+00 -0.58348823790E+00  0.55206674579E+02  0.55710066394E+02  0.74470750000E+01 0.  1.
<mgrwt>
<rscale>  0 0.14983868E+02</rscale>
<asrwt>0</asrwt>
<pdfrwt beam="2">  1        2 0.99692162E+00 0.14983868E+02</pdfrwt>
<pdfrwt beam="1">  1       -2 0.99263882E+00 0.14983868E+02</pdfrwt>
<totfact>-0.72044047E-14</totfact>
</mgrwt>
</event>
<event>
 4    1  0.5160210E-019  0.1490704E+02  0.7818608E-02  0.1870918E+00
         -2   -1    0    0    0  501 -0.00000000000E+00  0.00000000000E+00  0.11837186569E+03  0.11837186572E+03  0.25500000000E-02 0. -1.
          2   -1    0    0  501    0  0.00000000000E+00 -0.00000000000E+00 -0.46932239380E+00  0.46932932129E+00  0.25500000000E-02 0.  1.
         31    1    1    2    0    0  0.10263460333E-01  0.21840839282E+00  0.57200172525E+02  0.57683329226E+02  0.74470750000E+01 0.  1.
        -31    1    1    2    0    0 -0.10263460333E-01 -0.21840839282E+00  0.60702370774E+02  0.61157865816E+02  0.74470750000E+01 0. -1.
<mgrwt>
<rscale>  0 0.14907043E+02</rscale>
<asrwt>0</asrwt>
<pdfrwt beam="2">  1        2 0.99674289E+00 0.14907043E+02</pdfrwt>
<pdfrwt beam="1">  1       -2 0.98266215E+00 0.14907043E+02</pdfrwt>
<totfact> 0.66776180E-13</totfact>
</mgrwt>
</event>
<event>
 4    1  0.5160210E-019  0.1493105E+02  0.7818608E-02  0.1870180E+00
         -2   -1    0    0    0  501 -0.00000000000E+00  0.00000000000E+00  0.11850130205E+03  0.11850130208E+03  0.25500000000E-02 0. -1.
          2   -1    0    0  501    0  0.00000000000E+00 -0.00000000000E+00 -0.47032073904E+00  0.47032765183E+00  0.25500000000E-02 0.  1.
         31    1    1    2    0    0 -0.22988760665E+00 -0.45529352920E+00  0.58040704165E+02  0.58518735517E+02  0.74470750000E+01 0. -1.
        -31    1    1    2    0    0  0.22988760665E+00  0.45529352920E+00  0.59990277146E+02  0.60452894212E+02  0.74470750000E+01 0. -1.
<mgrwt>
<rscale>  0 0.14931046E+02</rscale>
<asrwt>0</asrwt>
<pdfrwt beam="2">  1        2 0.99885907E+00 0.14931046E+02</pdfrwt>
<pdfrwt beam="1">  1       -2 0.98374067E+00 0.14931046E+02</pdfrwt>
<totfact> 0.23161731E-13</totfact>
</mgrwt>
</event>
<event>
 4    1  0.5160210E-019  0.1491542E+02  0.7818608E-02  0.1870661E+00
         -2   -1    0    0    0  501 -0.00000000000E+00  0.00000000000E+00  0.11830054553E+03  0.11830054556E+03  0.25500000000E-02 0.  1.
          2   -1    0    0  501    0  0.00000000000E+00 -0.00000000000E+00 -0.47013316494E+00  0.47014008048E+00  0.25500000000E-02 0. -1.
         31    1    1    2    0    0 -0.25103999423E-01  0.28073433076E-01  0.62071164550E+02  0.62516316374E+02  0.74470750000E+01 0.  1.
        -31    1    1    2    0    0  0.25103999423E-01 -0.28073433076E-01  0.55759247817E+02  0.56254369266E+02  0.74470750000E+01 0. -1.
<mgrwt>
<rscale>  0 0.14915418E+02</rscale>
<asrwt>0</asrwt>
<pdfrwt beam="2">  1        2 0.99845558E+00 0.14915418E+02</pdfrwt>
<pdfrwt beam="1">  1       -2 0.98207913E+00 0.14915418E+02</pdfrwt>
<totfact> 0.43093169E-13</totfact>
</mgrwt>
</event>
<event>
 4    1 -0.5160210E-019  0.1496848E+02  0.7818608E-02  0.1869032E+00
          2   -1    0    0  501    0  0.00000000000E+00  0.00000000000E+00  0.11950598604E+03  0.11950598606E+03  0.25500000000E-02 0. -1.
         -2   -1    0    0    0  501 -0.00000000000E+00 -0.00000000000E+00 -0.46870835230E+00  0.46871528887E+00  0.25500000000E-02 0.  1.
         31    1    1    2    0    0 -0.58642968084E+00 -0.14103761876E-01  0.63199042006E+02  0.63638996969E+02  0.74470750000E+01 0. -1.
        -31    1    1    2    0    0  0.58642968084E+00  0.14103761876E-01  0.55838235679E+02  0.56335704384E+02  0.74470750000E+01 0.  1.
<mgrwt>
<rscale>  0 0.14968483E+02</rscale>
<asrwt>0</asrwt>
<pdfrwt beam="1">  1        2 0.99203477E+00 0.14968483E+02</pdfrwt>
<pdfrwt beam="2">  1       -2 0.99548122E+00 0.14968483E+02</pdfrwt>
<totfact>-0.14799149E-13</totfact>
</mgrwt>
</event>
<event>
 4    1  0.5160210E-019  0.1493209E+02  0.7818608E-02  0.1870148E+00
          2   -1    0    0  501    0  0.00000000000E+00  0.00000000000E+00  0.12036947235E+03  0.12036947238E+03  0.25500000000E-02 0.  1.
         -2   -1    0    0    0  501 -0.00000000000E+00 -0.00000000000E+00 -0.46308617062E+00  0.46309319140E+00  0.25500000000E-02 0. -1.
         31    1    1    2    0    0  0.30968191698E-01  0.11930919399E+00  0.55765998286E+02  0.56261182752E+02  0.74470750000E+01 0. -1.
        -31    1    1    2    0    0 -0.30968191698E-01 -0.11930919399E+00  0.64140387891E+02  0.64571382815E+02  0.74470750000E+01 0.  1.
<mgrwt>
<rscale>  0 0.14932095E+02</rscale>
<asrwt>0</asrwt>
<pdfrwt beam="1">  1        2 0.99912819E+00 0.14932095E+02</pdfrwt>
<pdfrwt beam="2">  1       -2 0.98361388E+00 0.14932095E+02</pdfrwt>
<totfact> 0.18790594E-13</totfact>
</mgrwt>
</event>
<event>
 4    1 -0.5160210E-019  0.1499466E+02  0.7818608E-02  0.1868232E+00
         -2   -1    0    0    0  501 -0.00000000000E+00  0.00000000000E+00  0.12025288684E+03  0.12025288687E+03  0.25500000000E-02 0.  1.
          2   -1    0    0  501    0  0.00000000000E+00 -0.00000000000E+00 -0.46742754433E+00  0.46743449990E+00  0.25500000000E-02 0. -1.
         31    1    1    2    0    0 -0.56087601022E+00 -0.65007253267E+00  0.58945909005E+02  0.59420672251E+02  0.74470750000E+01 0.  1.
        -31    1    1    2    0    0  0.56087601022E+00  0.65007253267E+00  0.60839550291E+02  0.61299649117E+02  0.74470750000E+01 0. -1.
<mgrwt>
<rscale>  0 0.14994657E+02</rscale>
<asrwt>0</asrwt>
<pdfrwt beam="2">  1        2 0.99279560E+00 0.14994657E+02</pdfrwt>
<pdfrwt beam="1">  1       -2 0.99820008E+00 0.14994657E+02</pdfrwt>
<totfact>-0.77966438E-14</totfact>
</mgrwt>
</event>
<event>
 4    1 -0.5160210E-019  0.1492797E+02  0.7818608E-02  0.1870274E+00
          2   -1    0    0  501    0  0.00000000000E+00  0.00000000000E+00  0.11887743283E+03  0.11887743286E+03  0.25500000000E-02 0.  1.
         -2   -1    0    0    0  501 -0.00000000000E+00 -0.00000000000E+00 -0.46863973158E+00  0.46864666916E+00  0.25500000000E-02 0. -1.
         31    1    1    2    0    0 -0.28303741337E+00 -0.36594074049E+00  0.60766043468E+02  0.61222422261E+02  0.74470750000E+01 0.  1.
        -31    1    1    2    0    0  0.28303741337E+00  0.36594074049E+00  0.57642749630E+02  0.58123657264E+02  0.74470750000E+01 0. -1.
<mgrwt>
<rscale>  0 0.14927974E+02</rscale>
<asrwt>0</asrwt>
<pdfrwt beam="1">  1        2 0.98683689E+00 0.14927974E+02</pdfrwt>
<pdfrwt beam="2">  1       -2 0.99531549E+00 0.14927974E+02</pdfrwt>
<totfact>-0.25871567E-13</totfact>
</mgrwt>
</event>
<event>
 4    1 -0.5160210E-019  0.1489903E+02  0.7818608E-02  0.1871165E+00
         -2   -1    0    0    0  501 -0.00000000000E+00  0.00000000000E+00  0.12029817685E+03  0.12029817688E+03  0.25500000000E-02 0. -1.
          2   -1    0    0  501    0  0.00000000000E+00 -0.00000000000E+00 -0.46131105871E+00  0.46131810651E+00  0.25500000000E-02 0.  1.
         31    1    1    2    0    0 -0.55649795194E-01 -0.18110850971E+00  0.60096609316E+02  0.60556562605E+02  0.74470750000E+01 0. -1.
        -31    1    1    2    0    0  0.55649795194E-01  0.18110850971E+00  0.59740256477E+02  0.60202932380E+02  0.74470750000E+01 0. -1.
<mgrwt>
<rscale>  0 0.14899034E+02</rscale>
<asrwt>0</asrwt>
<pdfrwt beam="2">  1        2 0.97985570E+00 0.14899034E+02</pdfrwt>
<pdfrwt beam="1">  1       -2 0.99852400E+00 0.14899034E+02</pdfrwt>
<totfact>-0.37744002E-13</totfact>
</mgrwt>
</event>
<event>
 4    1 -0.5160210E-019  0.1491588E+02  0.7818608E-02  0.1870646E+00
          2   -1    0    0  501    0  0.00000000000E+00  0.00000000000E+00  0.11837771586E+03  0.11837771588E+03  0.25500000000E-02 0.  1.
         -2   -1    0    0    0  501 -0.00000000000E+00 -0.00000000000E+00 -0.46985550482E+00  0.46986242445E+00  0.25500000000E-02 0. -1.
         31    1    1    2    0    0 -0.32079619653E+00 -0.31458399767E-01  0.57034877229E+02  0.57519910001E+02  0.74470750000E+01 0.  1.
        -31    1    1    2    0    0  0.32079619653E+00  0.31458399767E-01  0.60872983122E+02  0.61327668307E+02  0.74470750000E+01 0. -1.
<mgrwt>
<rscale>  0 0.14915875E+02</rscale>
<asrwt>0</asrwt>
<pdfrwt beam="1">  1        2 0.98271493E+00 0.14915875E+02</pdfrwt>
<pdfrwt beam="2">  1       -2 0.99787081E+00 0.14915875E+02</pdfrwt>
<totfact>-0.31739463E-13</totfact>
</mgrwt>
</event>
<event>
 4    1 -0.5160210E-019  0.1494223E+02  0.7818608E-02  0.1869837E+00
          2   -1    0    0  501    0  0.00000000000E+00  0.00000000000E+00  0.11883852851E+03  0.11883852854E+03  0.25500000000E-02 0. -1.
         -2   -1    0    0    0  501 -0.00000000000E+00 -0.00000000000E+00 -0.46968880694E+00  0.46969572903E+00  0.25500000000E-02 0.  1.
         31    1    1    2    0    0  0.56186624935E+00  0.18366334238E+00  0.59949832700E+02  0.60413498431E+02  0.74470750000E+01 0.  1.
        -31    1    1    2    0    0 -0.56186624935E+00 -0.18366334238E+00  0.58419007008E+02  0.58894725840E+02  0.74470750000E+01 0.  1.
<mgrwt>
<rscale>  0 0.14942228E+02</rscale>
<asrwt>0</asrwt>
<pdfrwt beam="1">  1        2 0.98652387E+00 0.14942228E+02</pdfrwt>
<pdfrwt beam="2">  1       -2 0.99753347E+00 0.14942228E+02</pdfrwt>
<totfact>-0.19136384E-13</totfact>
</mgrwt>
</event>
<event>
 4    1  0.5160210E-019  0.1489593E+02  0.7818608E-02  0.1871261E+00
          2   -1    0    0  501    0  0.00000000000E+00  0.00000000000E+00  0.12023326091E+03  0.12023326094E+03  0.25500000000E-02 0.  1.
         -2   -1    0    0    0  501 -0.00000000000E+00 -0.00000000000E+00 -0.46136786682E+00  0.46137491375E+00  0.25500000000E-02 0. -1.
         31    1    1    2    0    0  0.67051958467E-02 -0.70901604624E-01  0.60619300998E+02  0.61075065711E+02  0.74470750000E+01 0.  1.
        -31    1    1    2    0    0 -0.67051958467E-02  0.70901604624E-01  0.59152592045E+02  0.59619570140E+02  0.74470750000E+01 0. -1.
<mgrwt>
<rscale>  0 0.14895931E+02</rscale>
<asrwt>0</asrwt>
<pdfrwt beam="1">  1        2 0.99798769E+00 0.14895931E+02</pdfrwt>
<pdfrwt beam="2">  1       -2 0.97997388E+00 0.14895931E+02</pdfrwt>
<totfact> 0.78404928E-13</totfact>
</mgrwt>
</event>
<event>
 4    1  0.5160210E-019  0.1491920E+02  0.7818608E-02  0.1870544E+00
          2   -1    0    0  501    0  0.00000000000E+00  0.00000000000E+00  0.11967225609E+03  0.11967225612E+03  0.25500000000E-02 0.  1.
         -2   -1    0    0    0  501 -0.00000000000E+00 -0.00000000000E+00 -0.46498012977E+00  0.46498712195E+00  0.25500000000E-02 0. -1.
         31    1    1    2    0    0 -0.35540444661E-01  0.43063796563E+00  0.59620859854E+02  0.60085710181E+02  0.74470750000E+01 0.  1.
        -31    1    1    2    0    0  0.35540444661E-01 -0.43063796563E+00  0.59586416108E+02  0.60051533060E+02  0.74470750000E+01 0. -1.
<mgrwt>
<rscale>  0 0.14919201E+02</rscale>
<asrwt>0</asrwt>
<pdfrwt beam="1">  1        2 0.99337878E+00 0.14919201E+02</pdfrwt>
<pdfrwt beam="2">  1       -2 0.98759904E+00 0.14919201E+02</pdfrwt>
<totfact> 0.21507708E-13</totfact>
</mgrwt>
</event>
<event>
 4    1 -0.5160210E-019  0.1494458E+02  0.7818608E-02  0.1869764E+00
         -2   -1    0    0    0  501 -0.00000000000E+00  0.00000000000E+00  0.11937729157E+03  0.11937729160E+03  0.25500000000E-02 0.  1.
          2   -1    0    0  501    0  0.00000000000E+00 -0.00000000000E+00 -0.46771651130E+00  0.46772346258E+00  0.25500000000E-02 0. -1.
         31    1    1    2    0    0 -0.46289731481E+00 -0.23790103712E+00  0.62057683267E+02  0.62505086588E+02  0.74470750000E+01 0. -1.
        -31    1    1    2    0    0  0.46289731481E+00  0.23790103712E+00  0.56851891797E+02  0.57339928477E+02  0.74470750000E+01 0. -1.
<mgrwt>
<rscale>  0 0.14944584E+02</rscale>
<asrwt>0</asrwt>
<pdfrwt beam="2">  1        2 0.99337873E+00 0.14944584E+02</pdfrwt>
<pdfrwt beam="1">  1       -2 0.99096244E+00 0.14944584E+02</pdfrwt>
<totfact>-0.46093151E-14</totfact>
</mgrwt>
</event>
<event>
 4    1 -0.5160210E-019  0.1494196E+02  0.7818608E-02  0.1869845E+00
         -2   -1    0    0    0  501 -0.00000000000E+00  0.00000000000E+00  0.11963679707E+03  0.11963679710E+03  0.25500000000E-02 0. -1.
          2   -1    0    0  501    0  0.00000000000E+00 -0.00000000000E+00 -0.46653804273E+00  0.46654501156E+00  0.25500000000E-02 0.  1.
         31    1    1    2    0    0 -0.48557767211E+00 -0.34728466239E+00  0.59704053210E+02  0.60169670832E+02  0.74470750000E+01 0. -1.
        -31    1    1    2    0    0  0.48557767211E+00  0.34728466239E+00  0.59466205819E+02  0.59933671278E+02  0.74470750000E+01 0.  1.
<mgrwt>
<rscale>  0 0.14941959E+02</rscale>
<asrwt>0</asrwt>
<pdfrwt beam="2">  1        2 0.99089394E+00 0.14941959E+02</pdfrwt>
<pdfrwt beam="1">  1       -2 0.99309846E+00 0.14941959E+02</pdfrwt>
<totfact>-0.14558654E-13</totfact>
</mgrwt>
</event>
<event>
 4    1  0.5160210E-019  0.1493794E+02  0.7818608E-02  0.1869968E+00
          2   -1    0    0  501    0  0.00000000000E+00  0.00000000000E+00  0.12001749687E+03  0.12001749689E+03  0.25500000000E-02 0.  1.
         -2   -1    0    0    0  501 -0.00000000000E+00 -0.00000000000E+00 -0.46480779002E+00  0.46481478480E+00  0.25500000000E-02 0. -1.
         31    1    1    2    0    0  0.11552288523E+00 -0.46976203200E+00  0.62229942203E+02  0.62675821929E+02  0.74470750000E+01 0. -1.
        -31    1    1    2    0    0 -0.11552288523E+00  0.46976203200E+00  0.57322746875E+02  0.57806489750E+02  0.74470750000E+01 0.  1.
<mgrwt>
<rscale>  0 0.14937937E+02</rscale>
<asrwt>0</asrwt>
<pdfrwt beam="1">  1        2 0.99623205E+00 0.14937937E+02</pdfrwt>
<pdfrwt beam="2">  1       -2 0.98724541E+00 0.14937937E+02</pdfrwt>
<totfact> 0.18881386E-13</totfact>
</mgrwt>
</event>
<event>
 4    1  0.5160210E-019  0.1494380E+02  0.7818608E-02  0.1869788E+00
         -2   -1    0    0    0  501 -0.00000000000E+00  0.00000000000E+00  0.11906922346E+03  0.11906922348E+03  0.25500000000E-02 0.  1.
          2   -1    0    0  501    0  0.00000000000E+00 -0.00000000000E+00 -0.46887732991E+00  0.46888426398E+00  0.25500000000E-02 0. -1.
         31    1    1    2    0    0  0.27561511042E+00  0.11689538591E+00  0.55061956742E+02  0.55564085834E+02  0.74470750000E+01 0. -1.
        -31    1    1    2    0    0 -0.27561511042E+00 -0.11689538591E+00  0.63538389383E+02  0.63974021913E+02  0.74470750000E+01 0. -1.
<mgrwt>
<rscale>  0 0.14943798E+02</rscale>
<asrwt>0</asrwt>
<pdfrwt beam="2">  1        2 0.99582442E+00 0.14943798E+02</pdfrwt>
<pdfrwt beam="1">  1       -2 0.98842471E+00 0.14943798E+02</pdfrwt>
<totfact> 0.10517841E-13</totfact>
</mgrwt>
</event>
<event>
 4    1 -0.5160210E-019  0.1492680E+02  0.7818608E-02  0.1870310E+00
          2   -1    0    0  501    0  0.00000000000E+00  0.00000000000E+00  0.11873539047E+03  0.11873539050E+03  0.25500000000E-02 0.  1.
         -2   -1    0    0    0  501 -0.00000000000E+00 -0.00000000000E+00 -0.46912660421E+00  0.46913353459E+00  0.25500000000E-02 0. -1.
         31    1    1    2    0    0 -0.32827603100E+00 -0.32335519415E+00  0.60541364415E+02  0.60999410284E+02  0.74470750000E+01 0. -1.
        -31    1    1    2    0    0  0.32827603100E+00  0.32335519415E+00  0.57724899454E+02  0.58205113751E+02  0.74470750000E+01 0. -1.
<mgrwt>
<rscale>  0 0.14926801E+02</rscale>
<asrwt>0</asrwt>
<pdfrwt beam="1">  1        2 0.98566641E+00 0.14926801E+02</pdfrwt>
<pdfrwt beam="2">  1       -2 0.99634077E+00 0.14926801E+02</pdfrwt>
<totfact>-0.28083584E-13</totfact>
</mgrwt>
</event>
<event>
 4    1 -0.5160210E-019  0.1498811E+02  0.7818608E-02  0.1868432E+00
         -2   -1    0    0    0  501 -0.00000000000E+00  0.00000000000E+00  0.12021213049E+03  0.12021213052E+03  0.25500000000E-02 0. -1.
          2   -1    0    0  501    0  0.00000000000E+00 -0.00000000000E+00 -0.46717761377E+00  0.46718457307E+00  0.25500000000E-02 0.  1.
         31    1    1    2    0    0 -0.20644778698E+00  0.81116792958E+00  0.60162523145E+02  0.60627458559E+02  0.74470750000E+01 0.  1.
        -31    1    1    2    0    0  0.20644778698E+00 -0.81116792958E+00  0.59582429732E+02  0.60051856532E+02  0.74470750000E+01 0.  1.
<mgrwt>
<rscale>  0 0.14988107E+02</rscale>
<asrwt>0</asrwt>
<pdfrwt beam="2">  1        2 0.99226552E+00 0.14988107E+02</pdfrwt>
<pdfrwt beam="1">  1       -2 0.99786101E+00 0.14988107E+02</pdfrwt>
<totfact>-0.93109927E-14</totfact>
</mgrwt>
</event>
<event>
 4    1 -0.5160210E-019  0.1495735E+02  0.7818608E-02  0.1869373E+00
         -2   -1    0    0    0  501 -0.00000000000E+00  0.00000000000E+00  0.11935705238E+03  0.11935705241E+03  0.25500000000E-02 0. -1.
          2   -1    0    0  501    0  0.00000000000E+00 -0.00000000000E+00 -0.46859548434E+00  0.46860242258E+00  0.25500000000E-02 0.  1.
         31    1    1    2    0    0  0.54336070139E+00  0.11921903791E+00  0.56217681876E+02  0.56711516781E+02  0.74470750000E+01 0. -1.
        -31    1    1    2    0    0 -0.54336070139E+00 -0.11921903791E+00  0.62670775021E+02  0.63114138050E+02  0.74470750000E+01 0.  1.
<mgrwt>
<rscale>  0 0.14957352E+02</rscale>
<asrwt>0</asrwt>
<pdfrwt beam="2">  1        2 0.99523759E+00 0.14957352E+02</pdfrwt>
<pdfrwt beam="1">  1       -2 0.99080235E+00 0.14957352E+02</pdfrwt>
<totfact>-0.32087106E-14</totfact>
</mgrwt>
</event>
<event>
 4    1 -0.5160210E-019  0.1499802E+02  0.7818608E-02  0.1868129E+00
          2   -1    0    0  501    0  0.00000000000E+00  0.00000000000E+00  0.11958070156E+03  0.11958070159E+03  0.25500000000E-02 0. -1.
         -2   -1    0    0    0  501 -0.00000000000E+00 -0.00000000000E+00 -0.47026613436E+00  0.47027304795E+00  0.25500000000E-02 0.  1.
         31    1    1    2    0    0  0.48591768881E+00  0.16903978813E+00  0.53830190033E+02  0.54345312359E+02  0.74470750000E+01 0. -1.
        -31    1    1    2    0    0 -0.48591768881E+00 -0.16903978813E+00  0.65280245394E+02  0.65705662277E+02  0.74470750000E+01 0. -1.
<mgrwt>
<rscale>  0 0.14998023E+02</rscale>
<asrwt>0</asrwt>
<pdfrwt beam="1">  1        2 0.99266545E+00 0.14998023E+02</pdfrwt>
<pdfrwt beam="2">  1       -2 0.99877919E+00 0.14998023E+02</pdfrwt>
<totfact>-0.56233612E-14</totfact>
</mgrwt>
</event>
<event>
 4    1 -0.5160210E-019  0.1494944E+02  0.7818608E-02  0.1869615E+00
          2   -1    0    0  501    0  0.00000000000E+00  0.00000000000E+00  0.11968571014E+03  0.11968571017E+03  0.25500000000E-02 0.  1.
         -2   -1    0    0    0  501 -0.00000000000E+00 -0.00000000000E+00 -0.46681458494E+00  0.46682154965E+00  0.25500000000E-02 0. -1.
         31    1    1    2    0    0 -0.67179851578E-01 -0.85212728360E-01  0.54521445715E+02  0.55027799731E+02  0.74470750000E+01 0. -1.
        -31    1    1    2    0    0  0.67179851578E-01  0.85212728360E-01  0.64697449839E+02  0.65124731985E+02  0.74470750000E+01 0.  1.
<mgrwt>
<rscale>  0 0.14949442E+02</rscale>
<asrwt>0</asrwt>
<pdfrwt beam="1">  1        2 0.99350520E+00 0.14949442E+02</pdfrwt>
<pdfrwt beam="2">  1       -2 0.99148058E+00 0.14949442E+02</pdfrwt>
<totfact>-0.69572881E-14</totfact>
</mgrwt>
</event>
<event>
 4    1  0.5160210E-019  0.1491795E+02  0.7818608E-02  0.1870583E+00
         -2   -1    0    0    0  501 -0.00000000000E+00  0.00000000000E+00  0.11915476582E+03  0.11915476585E+03  0.25500000000E-02 0. -1.
          2   -1    0    0  501    0  0.00000000000E+00 -0.00000000000E+00 -0.46692103643E+00  0.46692799955E+00  0.25500000000E-02 0.  1.
         31    1    1    2    0    0 -0.98965520428E-01 -0.36530202638E+00  0.60825073588E+02  0.61280435237E+02  0.74470750000E+01 0.  1.
        -31    1    1    2    0    0  0.98965520428E-01  0.36530202638E+00  0.57862771200E+02  0.58341258615E+02  0.74470750000E+01 0.  1.
<mgrwt>
<rscale>  0 0.14917947E+02</rscale>
<asrwt>0</asrwt>
<pdfrwt beam="2">  1        2 0.99168862E+00 0.14917947E+02</pdfrwt>
<pdfrwt beam="1">  1       -2 0.98911586E+00 0.14917947E+02</pdfrwt>
<totfact> 0.83456892E-14</totfact>
</mgrwt>
</event>
<event>
 4    1  0.5160210E-019  0.1492318E+02  0.7818608E-02  0.1870422E+00
         -2   -1    0    0    0  501 -0.00000000000E+00  0.00000000000E+00  0.11840757803E+03  0.11840757806E+03  0.25500000000E-02 0. -1.
          2   -1    0    0  501    0  0.00000000000E+00 -0.00000000000E+00 -0.47019721461E+00  0.47020412921E+00  0.25500000000E-02 0.  1.
         31    1    1    2    0    0 -0.96500024918E-01  0.33369005981E-01  0.55353378833E+02  0.55852179009E+02  0.74470750000E+01 0.  1.
        -31    1    1    2    0    0  0.96500024918E-01 -0.33369005981E-01  0.62584001980E+02  0.63025603176E+02  0.74470750000E+01 0. -1.
<mgrwt>
<rscale>  0 0.14923180E+02</rscale>
<asrwt>0</asrwt>
<pdfrwt beam="2">  1        2 0.99859464E+00 0.14923180E+02</pdfrwt>
<pdfrwt beam="1">  1       -2 0.98296468E+00 0.14923180E+02</pdfrwt>
<totfact> 0.33082746E-13</totfact>
</mgrwt>
</event>
<event>
 4    1 -0.5160210E-019  0.1500835E+02  0.7818608E-02  0.1867814E+00
          2   -1    0    0  501    0  0.00000000000E+00  0.00000000000E+00  0.12033078598E+03  0.12033078601E+03  0.25500000000E-02 0.  1.
         -2   -1    0    0    0  501 -0.00000000000E+00 -0.00000000000E+00 -0.46797874719E+00  0.46798569457E+00  0.25500000000E-02 0. -1.
         31    1    1    2    0    0  0.46041148988E+00  0.27759633761E+00  0.65979812164E+02  0.66400930549E+02  0.74470750000E+01 0.  1.
        -31    1    1    2    0    0 -0.46041148988E+00 -0.27759633761E+00  0.53882995070E+02  0.54397841155E+02  0.74470750000E+01 0. -1.
<mgrwt>
<rscale>  0 0.15008354E+02</rscale>
<asrwt>0</asrwt>
<pdfrwt beam="1">  1        2 0.99884876E+00 0.15008354E+02</pdfrwt>
<pdfrwt beam="2">  1       -2 0.99396427E+00 0.15008354E+02</pdfrwt>
<totfact>-0.40426510E-14</totfact>
</mgrwt>
</event>
<event>
 4    1 -0.5160210E-019  0.1499242E+02  0.7818608E-02  0.1868300E+00
         -2   -1    0    0    0  501 -0.00000000000E+00  0.00000000000E+00  0.11972348843E+03  0.11972348846E+03  0.25500000000E-02 0. -1.
          2   -1    0    0  501    0  0.00000000000E+00 -0.00000000000E+00 -0.46935437172E+00  0.46936129874E+00  0.25500000000E-02 0.  1.
         31    1    1    2    0    0  0.37045757874E+00  0.77028031389E+00  0.60112336945E+02  0.60577904797E+02  0.74470750000E+01 0. -1.
        -31    1    1    2    0    0 -0.37045757874E+00 -0.77028031389E+00  0.59141797114E+02  0.59614944960E+02  0.74470750000E+01 0.  1.
<mgrwt>
<rscale>  0 0.14992419E+02</rscale>
<asrwt>0</asrwt>
<pdfrwt beam="2">  1        2 0.99685498E+00 0.14992419E+02</pdfrwt>
<pdfrwt beam="1">  1       -2 0.99383858E+00 0.14992419E+02</pdfrwt>
<totfact>-0.87852694E-14</totfact>
</mgrwt>
</event>
<event>
 4    1 -0.5160210E-019  0.1496904E+02  0.7818608E-02  0.1869015E+00
          2   -1    0    0  501    0  0.00000000000E+00  0.00000000000E+00  0.11954504376E+03  0.11954504378E+03  0.25500000000E-02 0.  1.
         -2   -1    0    0    0  501 -0.00000000000E+00 -0.00000000000E+00 -0.46859035212E+00  0.46859729043E+00  0.25500000000E-02 0. -1.
         31    1    1    2    0    0 -0.57406941069E+00 -0.24731057343E+00  0.62828587368E+02  0.63271486745E+02  0.74470750000E+01 0.  1.
        -31    1    1    2    0    0  0.57406941069E+00  0.24731057343E+00  0.56247866035E+02  0.56742154328E+02  0.74470750000E+01 0. -1.
<mgrwt>
<rscale>  0 0.14969044E+02</rscale>
<asrwt>0</asrwt>
<pdfrwt beam="1">  1        2 0.99235675E+00 0.14969044E+02</pdfrwt>
<pdfrwt beam="2">  1       -2 0.99523285E+00 0.14969044E+02</pdfrwt>
<totfact>-0.14642245E-13</totfact>
</mgrwt>
</event>
<event>
 4    1 -0.5160210E-019  0.1493411E+02  0.7818608E-02  0.1870086E+00
          2   -1    0    0  501    0  0.00000000000E+00  0.00000000000E+00  0.11870059270E+03  0.11870059273E+03  0.25500000000E-02 0. -1.
         -2   -1    0    0    0  501 -0.00000000000E+00 -0.00000000000E+00 -0.46972351104E+00  0.46973043262E+00  0.25500000000E-02 0.  1.
         31    1    1    2    0    0 -0.13544821376E+00  0.72597421265E-01  0.54935918400E+02  0.55438593715E+02  0.74470750000E+01 0.  1.
        -31    1    1    2    0    0  0.13544821376E+00 -0.72597421265E-01  0.63294950791E+02  0.63731729447E+02  0.74470750000E+01 0. -1.
<mgrwt>
<rscale>  0 0.14934105E+02</rscale>
<asrwt>0</asrwt>
<pdfrwt beam="1">  1        2 0.98538361E+00 0.14934105E+02</pdfrwt>
<pdfrwt beam="2">  1       -2 0.99760232E+00 0.14934105E+02</pdfrwt>
<totfact>-0.22335536E-13</totfact>
</mgrwt>
</event>
<event>
 4    1  0.5160210E-019  0.1493995E+02  0.7818608E-02  0.1869907E+00
          2   -1    0    0  501    0  0.00000000000E+00  0.00000000000E+00  0.11999919246E+03  0.11999919249E+03  0.25500000000E-02 0.  1.
         -2   -1    0    0    0  501 -0.00000000000E+00 -0.00000000000E+00 -0.46500386084E+00  0.46501085266E+00  0.25500000000E-02 0. -1.
         31    1    1    2    0    0 -0.29600142078E-01 -0.58190349191E+00  0.60136303567E+02  0.60598460546E+02  0.74470750000E+01 0.  1.
        -31    1    1    2    0    0  0.29600142078E-01  0.58190349191E+00  0.59397885031E+02  0.59865742792E+02  0.74470750000E+01 0.  1.
<mgrwt>
<rscale>  0 0.14939948E+02</rscale>
<asrwt>0</asrwt>
<pdfrwt beam="1">  1        2 0.99608232E+00 0.14939948E+02</pdfrwt>
<pdfrwt beam="2">  1       -2 0.98765966E+00 0.14939948E+02</pdfrwt>
<totfact> 0.15878798E-13</totfact>
</mgrwt>
</event>
<event>
 4    1 -0.5160210E-019  0.1489946E+02  0.7818608E-02  0.1871152E+00
          2   -1    0    0  501    0  0.00000000000E+00  0.00000000000E+00  0.11798110538E+03  0.11798110541E+03  0.25500000000E-02 0.  1.
         -2   -1    0    0    0  501 -0.00000000000E+00 -0.00000000000E+00 -0.47039807486E+00  0.47040498651E+00  0.25500000000E-02 0. -1.
         31    1    1    2    0    0  0.31966424336E-02 -0.29400245873E-01  0.60319215510E+02  0.60777196055E+02  0.74470750000E+01 0.  1.
        -31    1    1    2    0    0 -0.31966424336E-02  0.29400245873E-01  0.57191491794E+02  0.57674314337E+02  0.74470750000E+01 0. -1.
<mgrwt>
<rscale>  0 0.14899463E+02</rscale>
<asrwt>0</asrwt>
<pdfrwt beam="1">  1        2 0.97943996E+00 0.14899463E+02</pdfrwt>
<pdfrwt beam="2">  1       -2 0.99900524E+00 0.14899463E+02</pdfrwt>
<totfact>-0.28364016E-13</totfact>
</mgrwt>
</event>
<event>
 4    1 -0.5160210E-019  0.1500226E+02  0.7818608E-02  0.1868000E+00
         -2   -1    0    0    0  501 -0.00000000000E+00  0.00000000000E+00  0.11989317822E+03  0.11989317825E+03  0.25500000000E-02 0.  1.
          2   -1    0    0  501    0  0.00000000000E+00 -0.00000000000E+00 -0.46930545825E+00  0.46931238599E+00  0.25500000000E-02 0. -1.
         31    1    1    2    0    0  0.54236336663E+00  0.12650448045E+00  0.54051035742E+02  0.54564489847E+02  0.74470750000E+01 0. -1.
        -31    1    1    2    0    0 -0.54236336663E+00 -0.12650448045E+00  0.65372837018E+02  0.65798000785E+02  0.74470750000E+01 0.  1.
<mgrwt>
<rscale>  0 0.15002259E+02</rscale>
<asrwt>0</asrwt>
<pdfrwt beam="2">  1        2 0.99675701E+00 0.15002259E+02</pdfrwt>
<pdfrwt beam="1">  1       -2 0.99524129E+00 0.15002259E+02</pdfrwt>
<totfact>-0.92011525E-14</totfact>
</mgrwt>
</event>
<event>
 4    1 -0.5160210E-019  0.1498272E+02  0.7818608E-02  0.1868596E+00
         -2   -1    0    0    0  501 -0.00000000000E+00  0.00000000000E+00  0.12016450003E+03  0.12016450006E+03  0.25500000000E-02 0. -1.
          2   -1    0    0  501    0  0.00000000000E+00 -0.00000000000E+00 -0.46702708891E+00  0.46703405044E+00  0.25500000000E-02 0.  1.
         31    1    1    2    0    0 -0.15742659994E+00 -0.47620330246E+00  0.65004254289E+02  0.65431365219E+02  0.74470750000E+01 0. -1.
        -31    1    1    2    0    0  0.15742659994E+00  0.47620330246E+00  0.54693218653E+02  0.55200168890E+02  0.74470750000E+01 0.  1.
<mgrwt>
<rscale>  0 0.14982723E+02</rscale>
<asrwt>0</asrwt>
<pdfrwt beam="2">  1        2 0.99194553E+00 0.14982723E+02</pdfrwt>
<pdfrwt beam="1">  1       -2 0.99746593E+00 0.14982723E+02</pdfrwt>
<totfact>-0.10836333E-13</totfact>
</mgrwt>
</event>
<event>
 4    1 -0.5160210E-019  0.1491464E+02  0.7818608E-02  0.1870684E+00
         -2   -1    0    0    0  501 -0.00000000000E+00  0.00000000000E+00  0.11938900065E+03  0.11938900067E+03  0.25500000000E-02 0.  1.
          2   -1    0    0  501    0  0.00000000000E+00 -0.00000000000E+00 -0.46579841683E+00  0.46580539673E+00  0.25500000000E-02 0. -1.
         31    1    1    2    0    0 -0.73416355423E-01 -0.35819634717E+00  0.58353710732E+02  0.58828124030E+02  0.74470750000E+01 0.  1.
        -31    1    1    2    0    0  0.73416355423E-01  0.35819634717E+00  0.60569491498E+02  0.61026682042E+02  0.74470750000E+01 0. -1.
<mgrwt>
<rscale>  0 0.14914641E+02</rscale>
<asrwt>0</asrwt>
<pdfrwt beam="2">  1        2 0.98932118E+00 0.14914641E+02</pdfrwt>
<pdfrwt beam="1">  1       -2 0.99104339E+00 0.14914641E+02</pdfrwt>
<totfact>-0.70019813E-14</totfact>
</mgrwt>
</event>
<event>
 4    1 -0.5160210E-019  0.1498276E+02  0.7818608E-02  0.1868595E+00
          2   -1    0    0  501    0  0.00000000000E+00  0.00000000000E+00  0.12004868352E+03  0.12004868355E+03  0.25500000000E-02 0.  1.
         -2   -1    0    0    0  501 -0.00000000000E+00 -0.00000000000E+00 -0.46747983790E+00  0.46748679269E+00  0.25500000000E-02 0. -1.
         31    1    1    2    0    0  0.18699608642E+00 -0.25246049902E+00  0.53754481887E+02  0.54268793545E+02  0.74470750000E+01 0. -1.
        -31    1    1    2    0    0 -0.18699608642E+00  0.25246049902E+00  0.65826721799E+02  0.66247376799E+02  0.74470750000E+01 0.  1.
<mgrwt>
<rscale>  0 0.14982758E+02</rscale>
<asrwt>0</asrwt>
<pdfrwt beam="1">  1        2 0.99651202E+00 0.14982758E+02</pdfrwt>
<pdfrwt beam="2">  1       -2 0.99289969E+00 0.14982758E+02</pdfrwt>
<totfact>-0.82684986E-14</totfact>
</mgrwt>
</event>
<event>
 4    1  0.5160210E-019  0.1490673E+02  0.7818608E-02  0.1870928E+00
          2   -1    0    0  501    0  0.00000000000E+00  0.00000000000E+00  0.11959014523E+03  0.11959014526E+03  0.25500000000E-02 0. -1.
         -2   -1    0    0    0  501 -0.00000000000E+00 -0.00000000000E+00 -0.46452164296E+00  0.46452864204E+00  0.25500000000E-02 0.  1.
         31    1    1    2    0    0  0.17983654221E+00 -0.11764112832E+00  0.57807065937E+02  0.58285178038E+02  0.74470750000E+01 0.  1.
        -31    1    1    2    0    0 -0.17983654221E+00  0.11764112832E+00  0.61318557649E+02  0.61769495860E+02  0.74470750000E+01 0. -1.
<mgrwt>
<rscale>  0 0.14906728E+02</rscale>
<asrwt>0</asrwt>
<pdfrwt beam="1">  1        2 0.99269604E+00 0.14906728E+02</pdfrwt>
<pdfrwt beam="2">  1       -2 0.98662639E+00 0.14906728E+02</pdfrwt>
<totfact> 0.34421119E-13</totfact>
</mgrwt>
</event>
<event>
 4    1  0.5160210E-019  0.1489826E+02  0.7818608E-02  0.1871189E+00
          2   -1    0    0  501    0  0.00000000000E+00  0.00000000000E+00  0.12004561882E+03  0.12004561885E+03  0.25500000000E-02 0. -1.
         -2   -1    0    0    0  501 -0.00000000000E+00 -0.00000000000E+00 -0.46223356993E+00  0.46224060366E+00  0.25500000000E-02 0.  1.
         31    1    1    2    0    0  0.49581465874E-01 -0.13437996522E+00  0.60604519688E+02  0.61060521198E+02  0.74470750000E+01 0. -1.
        -31    1    1    2    0    0 -0.49581465874E-01  0.13437996522E+00  0.58978865562E+02  0.59447338253E+02  0.74470750000E+01 0.  1.
<mgrwt>
<rscale>  0 0.14898260E+02</rscale>
<asrwt>0</asrwt>
<pdfrwt beam="1">  1        2 0.99644330E+00 0.14898260E+02</pdfrwt>
<pdfrwt beam="2">  1       -2 0.98179974E+00 0.14898260E+02</pdfrwt>
<totfact> 0.84162446E-13</totfact>
</mgrwt>
</event>
<event>
 4    1  0.5160210E-019  0.1493035E+02  0.7818608E-02  0.1870201E+00
          2   -1    0    0  501    0  0.00000000000E+00  0.00000000000E+00  0.11998160562E+03  0.11998160565E+03  0.25500000000E-02 0. -1.
         -2   -1    0    0    0  501 -0.00000000000E+00 -0.00000000000E+00 -0.46447446837E+00  0.46448146816E+00  0.25500000000E-02 0.  1.
         31    1    1    2    0    0  0.76137515469E-02  0.56270933952E-01  0.63924438160E+02  0.64356786313E+02  0.74470750000E+01 0. -1.
        -31    1    1    2    0    0 -0.76137515469E-02 -0.56270933952E-01  0.55592692989E+02  0.56089300800E+02  0.74470750000E+01 0.  1.
<mgrwt>
<rscale>  0 0.14930347E+02</rscale>
<asrwt>0</asrwt>
<pdfrwt beam="1">  1        2 0.99593252E+00 0.14930347E+02</pdfrwt>
<pdfrwt beam="2">  1       -2 0.98653904E+00 0.14930347E+02</pdfrwt>
<totfact> 0.26337062E-13</totfact>
</mgrwt>
</event>
<event>
 4    1  0.5160210E-019  0.1493246E+02  0.7818608E-02  0.1870136E+00
          2   -1    0    0  501    0  0.00000000000E+00  0.00000000000E+00  0.11978712129E+03  0.11978712132E+03  0.25500000000E-02 0.  1.
         -2   -1    0    0    0  501 -0.00000000000E+00 -0.00000000000E+00 -0.46536052653E+00  0.46536751300E+00  0.25500000000E-02 0. -1.
         31    1    1    2    0    0  0.10651850967E+00 -0.52106294965E+00  0.59231665609E+02  0.59700351671E+02  0.74470750000E+01 0.  1.
        -31    1    1    2    0    0 -0.10651850967E+00  0.52106294965E+00  0.60090095156E+02  0.60552137161E+02  0.74470750000E+01 0.  1.
<mgrwt>
<rscale>  0 0.14932464E+02</rscale>
<asrwt>0</asrwt>
<pdfrwt beam="1">  1        2 0.99433171E+00 0.14932464E+02</pdfrwt>
<pdfrwt beam="2">  1       -2 0.98840752E+00 0.14932464E+02</pdfrwt>
<totfact> 0.12495652E-13</totfact>
</mgrwt>
</event>
<event>
 4    1  0.5160210E-019  0.1492644E+02  0.7818608E-02  0.1870321E+00
          2   -1    0    0  501    0  0.00000000000E+00  0.00000000000E+00  0.11992382392E+03  0.11992382395E+03  0.25500000000E-02 0.  1.
         -2   -1    0    0    0  501 -0.00000000000E+00 -0.00000000000E+00 -0.46445534191E+00  0.46446234199E+00  0.25500000000E-02 0. -1.
         31    1    1    2    0    0  0.26774926945E+00 -0.40470701085E+00  0.59143612486E+02  0.59612593479E+02  0.74470750000E+01 0. -1.
        -31    1    1    2    0    0 -0.26774926945E+00  0.40470701085E+00  0.60315756091E+02  0.60775692809E+02  0.74470750000E+01 0.  1.
<mgrwt>
<rscale>  0 0.14926444E+02</rscale>
<asrwt>0</asrwt>
<pdfrwt beam="1">  1        2 0.99545458E+00 0.14926444E+02</pdfrwt>
<pdfrwt beam="2">  1       -2 0.98649674E+00 0.14926444E+02</pdfrwt>
<totfact> 0.28472574E-13</totfact>
</mgrwt>
</event>
<event>
 4    1  0.5160210E-019  0.1490026E+02  0.7818608E-02  0.1871128E+00
          2   -1    0    0  501    0  0.00000000000E+00  0.00000000000E+00  0.12029520491E+03  0.12029520494E+03  0.25500000000E-02 0. -1.
         -2   -1    0    0    0  501 -0.00000000000E+00 -0.00000000000E+00 -0.46139809944E+00  0.46140514590E+00  0.25500000000E-02 0.  1.
         31    1    1    2    0    0 -0.13164973997E+00 -0.48743853845E-01  0.58615853285E+02  0.59087197344E+02  0.74470750000E+01 0.  1.
        -31    1    1    2    0    0  0.13164973997E+00  0.48743853845E-01  0.61217953527E+02  0.61669412740E+02  0.74470750000E+01 0. -1.
<mgrwt>
<rscale>  0 0.14900256E+02</rscale>
<asrwt>0</asrwt>
<pdfrwt beam="1">  1        2 0.99850014E+00 0.14900256E+02</pdfrwt>
<pdfrwt beam="2">  1       -2 0.98003978E+00 0.14900256E+02</pdfrwt>
<totfact> 0.61168428E-13</totfact>
</mgrwt>
</event>
<event>
 4    1 -0.5160210E-019  0.1499665E+02  0.7818608E-02  0.1868171E+00
          2   -1    0    0  501    0  0.00000000000E+00  0.00000000000E+00  0.12001289951E+03  0.12001289954E+03  0.25500000000E-02 0.  1.
         -2   -1    0    0    0  501 -0.00000000000E+00 -0.00000000000E+00 -0.46848652156E+00  0.46849346141E+00  0.25500000000E-02 0. -1.
         31    1    1    2    0    0 -0.57574110023E+00 -0.23825039343E+00  0.64709477060E+02  0.65139570067E+02  0.74470750000E+01 0.  1.
        -31    1    1    2    0    0  0.57574110023E+00  0.23825039343E+00  0.54834935931E+02  0.55341822934E+02  0.74470750000E+01 0. -1.
<mgrwt>
<rscale>  0 0.14996646E+02</rscale>
<asrwt>0</asrwt>
<pdfrwt beam="1">  1        2 0.99622445E+00 0.14996646E+02</pdfrwt>
<pdfrwt beam="2">  1       -2 0.99502833E+00 0.14996646E+02</pdfrwt>
<totfact>-0.10191085E-13</totfact>
</mgrwt>
</event>
<event>
 4    1 -0.5160210E-019  0.1491146E+02  0.7818608E-02  0.1870783E+00
          2   -1    0    0  501    0  0.00000000000E+00  0.00000000000E+00  0.11866409753E+03  0.11866409756E+03  0.25500000000E-02 0.  1.
         -2   -1    0    0    0  501 -0.00000000000E+00 -0.00000000000E+00 -0.46844388847E+00  0.46845082895E+00  0.25500000000E-02 0. -1.
         31    1    1    2    0    0  0.24584222344E+00  0.19454203236E+00  0.60497106455E+02  0.60954549465E+02  0.74470750000E+01 0.  1.
        -31    1    1    2    0    0 -0.24584222344E+00 -0.19454203236E+00  0.57698547191E+02  0.58177998926E+02  0.74470750000E+01 0.  1.
<mgrwt>
<rscale>  0 0.14911457E+02</rscale>
<asrwt>0</asrwt>
<pdfrwt beam="1">  1        2 0.98507126E+00 0.14911457E+02</pdfrwt>
<pdfrwt beam="2">  1       -2 0.99489417E+00 0.14911457E+02</pdfrwt>
<totfact>-0.34376631E-13</totfact>
</mgrwt>
</event>
<event>
 4    1 -0.5160210E-019  0.1494494E+02  0.7818608E-02  0.1869753E+00
          2   -1    0    0  501    0  0.00000000000E+00  0.00000000000E+00  0.11939480125E+03  0.11939480128E+03  0.25500000000E-02 0. -1.
         -2   -1    0    0    0  501 -0.00000000000E+00 -0.00000000000E+00 -0.46767011735E+00  0.46767706931E+00  0.25500000000E-02 0.  1.
         31    1    1    2    0    0 -0.60077870973E+00  0.85085848038E-01  0.60293121809E+02  0.60754321972E+02  0.74470750000E+01 0.  1.
        -31    1    1    2    0    0  0.60077870973E+00 -0.85085848038E-01  0.58634009322E+02  0.59108156374E+02  0.74470750000E+01 0. -1.
<mgrwt>
<rscale>  0 0.14944939E+02</rscale>
<asrwt>0</asrwt>
<pdfrwt beam="1">  1        2 0.99110683E+00 0.14944939E+02</pdfrwt>
<pdfrwt beam="2">  1       -2 0.99328115E+00 0.14944939E+02</pdfrwt>
<totfact>-0.14720530E-13</totfact>
</mgrwt>
</event>
<event>
 4    1  0.5160210E-019  0.1493662E+02  0.7818608E-02  0.1870009E+00
         -2   -1    0    0    0  501 -0.00000000000E+00  0.00000000000E+00  0.11883553277E+03  0.11883553280E+03  0.25500000000E-02 0.  1.
          2   -1    0    0  501    0  0.00000000000E+00 -0.00000000000E+00 -0.46934818044E+00  0.46935510755E+00  0.25500000000E-02 0. -1.
         31    1    1    2    0    0 -0.48889909473E+00  0.26757869150E+00  0.59807398757E+02  0.60271838306E+02  0.74470750000E+01 0.  1.
        -31    1    1    2    0    0  0.48889909473E+00 -0.26757869150E+00  0.58558785835E+02  0.59033049601E+02  0.74470750000E+01 0.  1.
<mgrwt>
<rscale>  0 0.14936620E+02</rscale>
<asrwt>0</asrwt>
<pdfrwt beam="2">  1        2 0.99681280E+00 0.14936620E+02</pdfrwt>
<pdfrwt beam="1">  1       -2 0.98649629E+00 0.14936620E+02</pdfrwt>
<totfact> 0.23019852E-13</totfact>
</mgrwt>
</event>
<event>
 4    1 -0.5160210E-019  0.1490650E+02  0.7818608E-02  0.1870935E+00
         -2   -1    0    0    0  501 -0.00000000000E+00  0.00000000000E+00  0.12024364971E+03  0.12024364974E+03  0.25500000000E-02 0. -1.
          2   -1    0    0  501    0  0.00000000000E+00 -0.00000000000E+00 -0.46198276734E+00  0.46198980488E+00  0.25500000000E-02 0.  1.
         31    1    1    2    0    0  0.13833729629E+00 -0.20875107168E+00  0.61276435551E+02  0.61727815400E+02  0.74470750000E+01 0. -1.
        -31    1    1    2    0    0 -0.13833729629E+00  0.20875107168E+00  0.58505231392E+02  0.58977824142E+02  0.74470750000E+01 0. -1.
<mgrwt>
<rscale>  0 0.14906498E+02</rscale>
<asrwt>0</asrwt>
<pdfrwt beam="2">  1        2 0.98127527E+00 0.14906498E+02</pdfrwt>
<pdfrwt beam="1">  1       -2 0.99807868E+00 0.14906498E+02</pdfrwt>
<totfact>-0.37264781E-13</totfact>
</mgrwt>
</event>
<event>
 4    1 -0.5160210E-019  0.1493830E+02  0.7818608E-02  0.1869957E+00
          2   -1    0    0  501    0  0.00000000000E+00  0.00000000000E+00  0.11904007440E+03  0.11904007443E+03  0.25500000000E-02 0. -1.
         -2   -1    0    0    0  501 -0.00000000000E+00 -0.00000000000E+00 -0.46864682370E+00  0.46865376117E+00  0.25500000000E-02 0.  1.
         31    1    1    2    0    0  0.30462925392E+00  0.47886728118E+00  0.58610184511E+02  0.59084132957E+02  0.74470750000E+01 0.  1.
        -31    1    1    2    0    0 -0.30462925392E+00 -0.47886728118E+00  0.59961243069E+02  0.60424595235E+02  0.74470750000E+01 0. -1.
<mgrwt>
<rscale>  0 0.14938296E+02</rscale>
<asrwt>0</asrwt>
<pdfrwt beam="1">  1        2 0.98818178E+00 0.14938296E+02</pdfrwt>
<pdfrwt beam="2">  1       -2 0.99533583E+00 0.14938296E+02</pdfrwt>
<totfact>-0.21555247E-13</totfact>
</mgrwt>
</event>
<event>
 4    1 -0.5160210E-019  0.1494612E+02  0.7818608E-02  0.1869717E+00
          2   -1    0    0  501    0  0.00000000000E+00  0.00000000000E+00  0.11947212321E+03  0.11947212323E+03  0.25500000000E-02 0.  1.
         -2   -1    0    0    0  501 -0.00000000000E+00 -0.00000000000E+00 -0.46744101311E+00  0.46744796848E+00  0.25500000000E-02 0. -1.
         31    1    1    2    0    0  0.50469510418E+00  0.36091595556E+00  0.59086479671E+02  0.59557165677E+02  0.74470750000E+01 0. -1.
        -31    1    1    2    0    0 -0.50469510418E+00 -0.36091595556E+00  0.59918202521E+02  0.60382405524E+02  0.74470750000E+01 0.  1.
<mgrwt>
<rscale>  0 0.14946115E+02</rscale>
<asrwt>0</asrwt>
<pdfrwt beam="1">  1        2 0.99174429E+00 0.14946115E+02</pdfrwt>
<pdfrwt beam="2">  1       -2 0.99279897E+00 0.14946115E+02</pdfrwt>
<totfact>-0.12864328E-13</totfact>
</mgrwt>
</event>
<event>
 4    1 -0.5160210E-019  0.1502197E+02  0.7818608E-02  0.1867399E+00
         -2   -1    0    0    0  501 -0.00000000000E+00  0.00000000000E+00  0.12016881985E+03  0.12016881987E+03  0.25500000000E-02 0.  1.
          2   -1    0    0  501    0  0.00000000000E+00 -0.00000000000E+00 -0.46945996126E+00  0.46946688672E+00  0.25500000000E-02 0. -1.
         31    1    1    2    0    0 -0.84419980497E+00 -0.44041328827E+00  0.61632907265E+02  0.62088491857E+02  0.74470750000E+01 0.  1.
        -31    1    1    2    0    0  0.84419980497E+00  0.44041328827E+00  0.58066452620E+02  0.58549794903E+02  0.74470750000E+01 0.  1.
<mgrwt>
<rscale>  0 0.15021966E+02</rscale>
<asrwt>0</asrwt>
<pdfrwt beam="2">  1        2 0.99709280E+00 0.15021966E+02</pdfrwt>
<pdfrwt beam="1">  1       -2 0.99752176E+00 0.15021966E+02</pdfrwt>
<totfact>-0.60474941E-14</totfact>
</mgrwt>
</event>
<event>
 4    1 -0.5160210E-019  0.1492212E+02  0.7818608E-02  0.1870454E+00
         -2   -1    0    0    0  501 -0.00000000000E+00  0.00000000000E+00  0.12034379000E+03  0.12034379003E+03  0.25500000000E-02 0. -1.
          2   -1    0    0  501    0  0.00000000000E+00 -0.00000000000E+00 -0.46256662583E+00  0.46257365449E+00  0.25500000000E-02 0.  1.
         31    1    1    2    0    0  0.37128452793E-01  0.28422260475E+00  0.62818433955E+02  0.63258965622E+02  0.74470750000E+01 0. -1.
        -31    1    1    2    0    0 -0.37128452793E-01 -0.28422260475E+00  0.57062789418E+02  0.57547398058E+02  0.74470750000E+01 0.  1.
<mgrwt>
<rscale>  0 0.14922124E+02</rscale>
<asrwt>0</asrwt>
<pdfrwt beam="2">  1        2 0.98251378E+00 0.14922124E+02</pdfrwt>
<pdfrwt beam="1">  1       -2 0.99891154E+00 0.14922124E+02</pdfrwt>
<totfact>-0.18464721E-13</totfact>
</mgrwt>
</event>
<event>
 4    1  0.5160210E-019  0.1490707E+02  0.7818608E-02  0.1870918E+00
         -2   -1    0    0    0  501 -0.00000000000E+00  0.00000000000E+00  0.11826857510E+03  0.11826857513E+03  0.25500000000E-02 0. -1.
          2   -1    0    0  501    0  0.00000000000E+00 -0.00000000000E+00 -0.46973390989E+00  0.46974083131E+00  0.25500000000E-02 0.  1.
         31    1    1    2    0    0 -0.10298398167E+00 -0.21635854615E+00  0.60468996001E+02  0.60926314677E+02  0.74470750000E+01 0. -1.
        -31    1    1    2    0    0  0.10298398167E+00  0.21635854615E+00  0.57329845190E+02  0.57812001282E+02  0.74470750000E+01 0.  1.
<mgrwt>
<rscale>  0 0.14907068E+02</rscale>
<asrwt>0</asrwt>
<pdfrwt beam="2">  1        2 0.99760996E+00 0.14907068E+02</pdfrwt>
<pdfrwt beam="1">  1       -2 0.98181147E+00 0.14907068E+02</pdfrwt>
<totfact> 0.64041169E-13</totfact>
</mgrwt>
</event>
<event>
 4    1  0.5160210E-019  0.1490200E+02  0.7818608E-02  0.1871074E+00
          2   -1    0    0  501    0  0.00000000000E+00  0.00000000000E+00  0.12006227979E+03  0.12006227981E+03  0.25500000000E-02 0.  1.
         -2   -1    0    0    0  501 -0.00000000000E+00 -0.00000000000E+00 -0.46240162865E+00  0.46240865982E+00  0.25500000000E-02 0. -1.
         31    1    1    2    0    0  0.20261160894E+00  0.66286973833E-01  0.58876100008E+02  0.59345593970E+02  0.74470750000E+01 0. -1.
        -31    1    1    2    0    0 -0.20261160894E+00 -0.66286973833E-01  0.60723778150E+02  0.61179094503E+02  0.74470750000E+01 0.  1.
<mgrwt>
<rscale>  0 0.14902002E+02</rscale>
<asrwt>0</asrwt>
<pdfrwt beam="1">  1        2 0.99658245E+00 0.14902002E+02</pdfrwt>
<pdfrwt beam="2">  1       -2 0.98215585E+00 0.14902002E+02</pdfrwt>
<totfact> 0.76476172E-13</totfact>
</mgrwt>
</event>
<event>
 4    1  0.5160210E-019  0.1492776E+02  0.7818608E-02  0.1870281E+00
          2   -1    0    0  501    0  0.00000000000E+00  0.00000000000E+00  0.11955966555E+03  0.11955966558E+03  0.25500000000E-02 0. -1.
         -2   -1    0    0    0  501 -0.00000000000E+00 -0.00000000000E+00 -0.46595218598E+00  0.46595916357E+00  0.25500000000E-02 0.  1.
         31    1    1    2    0    0  0.80025640444E-01 -0.30237601797E+00  0.56404431668E+02  0.56894785993E+02  0.74470750000E+01 0. -1.
        -31    1    1    2    0    0 -0.80025640444E-01  0.30237601797E+00  0.62689281695E+02  0.63130838746E+02  0.74470750000E+01 0. -1.
<mgrwt>
<rscale>  0 0.14927760E+02</rscale>
<asrwt>0</asrwt>
<pdfrwt beam="1">  1        2 0.99245584E+00 0.14927760E+02</pdfrwt>
<pdfrwt beam="2">  1       -2 0.98965199E+00 0.14927760E+02</pdfrwt>
<totfact> 0.35645868E-14</totfact>
</mgrwt>
</event>
<event>
 4    1 -0.5160210E-019  0.1502195E+02  0.7818608E-02  0.1867399E+00
         -2   -1    0    0    0  501 -0.00000000000E+00  0.00000000000E+00  0.11996062739E+03  0.11996062741E+03  0.25500000000E-02 0.  1.
          2   -1    0    0  501    0  0.00000000000E+00 -0.00000000000E+00 -0.47027384021E+00  0.47028075368E+00  0.25500000000E-02 0. -1.
         31    1    1    2    0    0 -0.24551517851E+00  0.94317248682E+00  0.60365380621E+02  0.60830814195E+02  0.74470750000E+01 0. -1.
        -31    1    1    2    0    0  0.24551517851E+00 -0.94317248682E+00  0.59124972926E+02  0.59600093973E+02  0.74470750000E+01 0.  1.
<mgrwt>
<rscale>  0 0.15021952E+02</rscale>
<asrwt>0</asrwt>
<pdfrwt beam="2">  1        2 0.99880789E+00 0.15021952E+02</pdfrwt>
<pdfrwt beam="1">  1       -2 0.99580701E+00 0.15021952E+02</pdfrwt>
<totfact>-0.40837161E-14</totfact>
</mgrwt>
</event>
<event>
 4    1  0.5160210E-019  0.1492544E+02  0.7818608E-02  0.1870352E+00
         -2   -1    0    0    0  501 -0.00000000000E+00  0.00000000000E+00  0.11873091841E+03  0.11873091844E+03  0.25500000000E-02 0.  1.
          2   -1    0    0  501    0  0.00000000000E+00 -0.00000000000E+00 -0.46905897825E+00  0.46906590963E+00  0.25500000000E-02 0. -1.
         31    1    1    2    0    0  0.65125572048E-01 -0.40889457423E+00  0.57144654914E+02  0.57629349705E+02  0.74470750000E+01 0.  1.
        -31    1    1    2    0    0 -0.65125572048E-01  0.40889457423E+00  0.61117204516E+02  0.61570634640E+02  0.74470750000E+01 0. -1.
<mgrwt>
<rscale>  0 0.14925444E+02</rscale>
<asrwt>0</asrwt>
<pdfrwt beam="2">  1        2 0.99619756E+00 0.14925444E+02</pdfrwt>
<pdfrwt beam="1">  1       -2 0.98562887E+00 0.14925444E+02</pdfrwt>
<totfact> 0.34532348E-13</totfact>
</mgrwt>
</event>
<event>
 4    1  0.5160210E-019  0.1494076E+02  0.7818608E-02  0.1869882E+00
          2   -1    0    0  501    0  0.00000000000E+00  0.00000000000E+00  0.12004016318E+03  0.12004016320E+03  0.25500000000E-02 0.  1.
         -2   -1    0    0    0  501 -0.00000000000E+00 -0.00000000000E+00 -0.46489584063E+00  0.46490283408E+00  0.25500000000E-02 0. -1.
         31    1    1    2    0    0 -0.48515910399E+00 -0.33393925526E+00  0.59563137178E+02  0.60029768709E+02  0.74470750000E+01 0. -1.
        -31    1    1    2    0    0  0.48515910399E+00  0.33393925526E+00  0.60012130159E+02  0.60475297329E+02  0.74470750000E+01 0.  1.
<mgrwt>
<rscale>  0 0.14940762E+02</rscale>
<asrwt>0</asrwt>
<pdfrwt beam="1">  1        2 0.99642020E+00 0.14940762E+02</pdfrwt>
<pdfrwt beam="2">  1       -2 0.98743242E+00 0.14940762E+02</pdfrwt>
<totfact> 0.16798110E-13</totfact>
</mgrwt>
</event>
<event>
 4    1 -0.5160210E-019  0.1489931E+02  0.7818608E-02  0.1871157E+00
          2   -1    0    0  501    0  0.00000000000E+00  0.00000000000E+00  0.11796688454E+03  0.11796688456E+03  0.25500000000E-02 0.  1.
         -2   -1    0    0    0  501 -0.00000000000E+00 -0.00000000000E+00 -0.47044488414E+00  0.47045179510E+00  0.25500000000E-02 0. -1.
         31    1    1    2    0    0  0.12628300626E+00 -0.12084224902E+00  0.59452605331E+02  0.59917457864E+02  0.74470750000E+01 0. -1.
        -31    1    1    2    0    0 -0.12628300626E+00  0.12084224902E+00  0.58043834323E+02  0.58519878496E+02  0.74470750000E+01 0. -1.
<mgrwt>
<rscale>  0 0.14899306E+02</rscale>
<asrwt>0</asrwt>
<pdfrwt beam="1">  1        2 0.97932276E+00 0.14899306E+02</pdfrwt>
<pdfrwt beam="2">  1       -2 0.99910378E+00 0.14899306E+02</pdfrwt>
<totfact>-0.26253506E-13</totfact>
</mgrwt>
</event>
<event>
 4    1  0.5160210E-019  0.1490538E+02  0.7818608E-02  0.1870970E+00
          2   -1    0    0  501    0  0.00000000000E+00  0.00000000000E+00  0.11985819687E+03  0.11985819690E+03  0.25500000000E-02 0. -1.
         -2   -1    0    0    0  501 -0.00000000000E+00 -0.00000000000E+00 -0.46339924336E+00  0.46340625939E+00  0.25500000000E-02 0.  1.
         31    1    1    2    0    0  0.82275364177E-01  0.17376812933E+00  0.61442425525E+02  0.61892386810E+02  0.74470750000E+01 0. -1.
        -31    1    1    2    0    0 -0.82275364177E-01 -0.17376812933E+00  0.57952372104E+02  0.58429216349E+02  0.74470750000E+01 0.  1.
<mgrwt>
<rscale>  0 0.14905384E+02</rscale>
<asrwt>0</asrwt>
<pdfrwt beam="1">  1        2 0.99490320E+00 0.14905384E+02</pdfrwt>
<pdfrwt beam="2">  1       -2 0.98426019E+00 0.14905384E+02</pdfrwt>
<totfact> 0.59708680E-13</totfact>
</mgrwt>
</event>
<event>
 4    1  0.5160210E-019  0.1493106E+02  0.7818608E-02  0.1870180E+00
         -2   -1    0    0    0  501 -0.00000000000E+00  0.00000000000E+00  0.11867651075E+03  0.11867651078E+03  0.25500000000E-02 0.  1.
          2   -1    0    0  501    0  0.00000000000E+00 -0.00000000000E+00 -0.46962707418E+00  0.46963399718E+00  0.25500000000E-02 0. -1.
         31    1    1    2    0    0 -0.17958575187E-01  0.51785400404E+00  0.59756380597E+02  0.60220863855E+02  0.74470750000E+01 0.  1.
        -31    1    1    2    0    0  0.17958575187E-01 -0.51785400404E+00  0.58450503078E+02  0.58925280919E+02  0.74470750000E+01 0.  1.
<mgrwt>
<rscale>  0 0.14931057E+02</rscale>
<asrwt>0</asrwt>
<pdfrwt beam="2">  1        2 0.99739752E+00 0.14931057E+02</pdfrwt>
<pdfrwt beam="1">  1       -2 0.98518369E+00 0.14931057E+02</pdfrwt>
<totfact> 0.30761159E-13</totfact>
</mgrwt>
</event>
<event>
 4    1  0.5160210E-019  0.1491493E+02  0.7818608E-02  0.1870676E+00
         -2   -1    0    0    0  501 -0.00000000000E+00  0.00000000000E+00  0.11875110380E+03  0.11875110382E+03  0.25500000000E-02 0.  1.
          2   -1    0    0  501    0  0.00000000000E+00 -0.00000000000E+00 -0.46831847771E+00  0.46832542005E+00  0.25500000000E-02 0. -1.
         31    1    1    2    0    0  0.43789093071E-01  0.38666419653E+00  0.59607401085E+02  0.60072061866E+02  0.74470750000E+01 0. -1.
        -31    1    1    2    0    0 -0.43789093071E-01 -0.38666419653E+00  0.58675384234E+02  0.59147367378E+02  0.74470750000E+01 0. -1.
<mgrwt>
<rscale>  0 0.14914926E+02</rscale>
<asrwt>0</asrwt>
<pdfrwt beam="2">  1        2 0.99463174E+00 0.14914926E+02</pdfrwt>
<pdfrwt beam="1">  1       -2 0.98578965E+00 0.14914926E+02</pdfrwt>
<totfact> 0.39616869E-13</totfact>
</mgrwt>
</event>
<event>
 4    1 -0.5160210E-019  0.1497013E+02  0.7818608E-02  0.1868981E+00
          2   -1    0    0  501    0  0.00000000000E+00  0.00000000000E+00  0.11942834598E+03  0.11942834600E+03  0.25500000000E-02 0.  1.
         -2   -1    0    0    0  501 -0.00000000000E+00 -0.00000000000E+00 -0.46911632145E+00  0.46912325198E+00  0.25500000000E-02 0. -1.
         31    1    1    2    0    0 -0.16370523046E+00 -0.41617319455E+00  0.64333413965E+02  0.64764551091E+02  0.74470750000E+01 0.  1.
        -31    1    1    2    0    0  0.16370523046E+00  0.41617319455E+00  0.54625815688E+02  0.55132918163E+02  0.74470750000E+01 0. -1.
<mgrwt>
<rscale>  0 0.14970131E+02</rscale>
<asrwt>0</asrwt>
<pdfrwt beam="1">  1        2 0.99139616E+00 0.14970131E+02</pdfrwt>
<pdfrwt beam="2">  1       -2 0.99634176E+00 0.14970131E+02</pdfrwt>
<totfact>-0.14251668E-13</totfact>
</mgrwt>
</event>
<event>
 4    1 -0.5160210E-019  0.1499988E+02  0.7818608E-02  0.1868072E+00
         -2   -1    0    0    0  501 -0.00000000000E+00  0.00000000000E+00  0.12037235776E+03  0.12037235779E+03  0.25500000000E-02 0. -1.
          2   -1    0    0  501    0  0.00000000000E+00 -0.00000000000E+00 -0.46728921181E+00  0.46729616945E+00  0.25500000000E-02 0.  1.
         31    1    1    2    0    0  0.28729799104E-01  0.63731830522E+00  0.64939477240E+02  0.65368200452E+02  0.74470750000E+01 0.  1.
        -31    1    1    2    0    0 -0.28729799104E-01 -0.63731830522E+00  0.54965591307E+02  0.55471453503E+02  0.74470750000E+01 0.  1.
<mgrwt>
<rscale>  0 0.14999883E+02</rscale>
<asrwt>0</asrwt>
<pdfrwt beam="2">  1        2 0.99250674E+00 0.14999883E+02</pdfrwt>
<pdfrwt beam="1">  1       -2 0.99918681E+00 0.14999883E+02</pdfrwt>
<totfact>-0.39187694E-14</totfact>
</mgrwt>
</event>
<event>
 4    1 -0.5160210E-019  0.1502619E+02  0.7818608E-02  0.1867270E+00
         -2   -1    0    0    0  501 -0.00000000000E+00  0.00000000000E+00  0.12015259427E+03  0.12015259430E+03  0.25500000000E-02 0. -1.
          2   -1    0    0  501    0  0.00000000000E+00 -0.00000000000E+00 -0.46978746767E+00  0.46979438830E+00  0.25500000000E-02 0.  1.
         31    1    1    2    0    0 -0.18064793256E+00 -0.67715089442E+00  0.54184971405E+02  0.54698822832E+02  0.74470750000E+01 0.  1.
        -31    1    1    2    0    0  0.18064793256E+00  0.67715089442E+00  0.65497835399E+02  0.65923565855E+02  0.74470750000E+01 0. -1.
<mgrwt>
<rscale>  0 0.15026191E+02</rscale>
<asrwt>0</asrwt>
<pdfrwt beam="2">  1        2 0.99778515E+00 0.15026191E+02</pdfrwt>
<pdfrwt beam="1">  1       -2 0.99739030E+00 0.15026191E+02</pdfrwt>
<totfact>-0.51602080E-14</totfact>
</mgrwt>
</event>
<event>
 4    1  0.5160210E-019  0.1495952E+02  0.7818608E-02  0.1869306E+00
          2   -1    0    0  501    0  0.00000000000E+00  0.00000000000E+00  0.12021984565E+03  0.12021984568E+03  0.25500000000E-02 0.  1.
         -2   -1    0    0    0  501 -0.00000000000E+00 -0.00000000000E+00 -0.46536740712E+00  0.46537439349E+00  0.25500000000E-02 0. -1.
         31    1    1    2    0    0 -0.68853605399E+00  0.79807321003E-01  0.59181195165E+02  0.59651934070E+02  0.74470750000E+01 0. -1.
        -31    1    1    2    0    0  0.68853605399E+00 -0.79807321003E-01  0.60573283078E+02  0.61033286001E+02  0.74470750000E+01 0.  1.
<mgrwt>
<rscale>  0 0.14959522E+02</rscale>
<asrwt>0</asrwt>
<pdfrwt beam="1">  1        2 0.99790984E+00 0.14959522E+02</pdfrwt>
<pdfrwt beam="2">  1       -2 0.98843584E+00 0.14959522E+02</pdfrwt>
<totfact> 0.65405345E-14</totfact>
</mgrwt>
</event>
<event>
 4    1 -0.5160210E-019  0.1494616E+02  0.7818608E-02  0.1869716E+00
          2   -1    0    0  501    0  0.00000000000E+00  0.00000000000E+00  0.11958417781E+03  0.11958417784E+03  0.25500000000E-02 0.  1.
         -2   -1    0    0    0  501 -0.00000000000E+00 -0.00000000000E+00 -0.46700602796E+00  0.46701298981E+00  0.25500000000E-02 0. -1.
         31    1    1    2    0    0 -0.39132700443E+00  0.56003839164E-01  0.55691813774E+02  0.56188907453E+02  0.74470750000E+01 0. -1.
        -31    1    1    2    0    0  0.39132700443E+00 -0.56003839164E-01  0.63425358010E+02  0.63862283376E+02  0.74470750000E+01 0.  1.
<mgrwt>
<rscale>  0 0.14946164E+02</rscale>
<asrwt>0</asrwt>
<pdfrwt beam="1">  1        2 0.99266724E+00 0.14946164E+02</pdfrwt>
<pdfrwt beam="2">  1       -2 0.99188233E+00 0.14946164E+02</pdfrwt>
<totfact>-0.90802775E-14</totfact>
</mgrwt>
</event>
<event>
 4    1 -0.5160210E-019  0.1495918E+02  0.7818608E-02  0.1869317E+00
         -2   -1    0    0    0  501 -0.00000000000E+00  0.00000000000E+00  0.12023537564E+03  0.12023537566E+03  0.25500000000E-02 0.  1.
          2   -1    0    0  501    0  0.00000000000E+00 -0.00000000000E+00 -0.46528598294E+00  0.46529297053E+00  0.25500000000E-02 0. -1.
         31    1    1    2    0    0 -0.22679097804E+00  0.41555771739E+00  0.55761253345E+02  0.56258336476E+02  0.74470750000E+01 0. -1.
        -31    1    1    2    0    0  0.22679097804E+00 -0.41555771739E+00  0.64008836308E+02  0.64442332157E+02  0.74470750000E+01 0.  1.
<mgrwt>
<rscale>  0 0.14959179E+02</rscale>
<asrwt>0</asrwt>
<pdfrwt beam="2">  1        2 0.98826406E+00 0.14959179E+02</pdfrwt>
<pdfrwt beam="1">  1       -2 0.99803758E+00 0.14959179E+02</pdfrwt>
<totfact>-0.12638165E-13</totfact>
</mgrwt>
</event>
<event>
 4    1 -0.5160210E-019  0.1496273E+02  0.7818608E-02  0.1869208E+00
         -2   -1    0    0    0  501 -0.00000000000E+00  0.00000000000E+00  0.11966547254E+03  0.11966547256E+03  0.25500000000E-02 0. -1.
          2   -1    0    0  501    0  0.00000000000E+00 -0.00000000000E+00 -0.46772385647E+00  0.46773080764E+00  0.25500000000E-02 0.  1.
         31    1    1    2    0    0  0.35534128580E+00 -0.45031419426E+00  0.56165771668E+02  0.56660231940E+02  0.74470750000E+01 0.  1.
        -31    1    1    2    0    0 -0.35534128580E+00  0.45031419426E+00  0.63031977013E+02  0.63472971433E+02  0.74470750000E+01 0. -1.
<mgrwt>
<rscale>  0 0.14962729E+02</rscale>
<asrwt>0</asrwt>
<pdfrwt beam="2">  1        2 0.99340361E+00 0.14962729E+02</pdfrwt>
<pdfrwt beam="1">  1       -2 0.99334538E+00 0.14962729E+02</pdfrwt>
<totfact>-0.12533736E-13</totfact>
</mgrwt>
</event>
<event>
 4    1  0.5160210E-019  0.1489914E+02  0.7818608E-02  0.1871162E+00
          2   -1    0    0  501    0  0.00000000000E+00  0.00000000000E+00  0.12020903261E+03  0.12020903264E+03  0.25500000000E-02 0.  1.
         -2   -1    0    0    0  501 -0.00000000000E+00 -0.00000000000E+00 -0.46165992212E+00  0.46166696459E+00  0.25500000000E-02 0. -1.
         31    1    1    2    0    0 -0.16365958618E+00  0.10199360467E+00  0.59893464947E+02  0.60354977066E+02  0.74470750000E+01 0. -1.
        -31    1    1    2    0    0  0.16365958618E+00 -0.10199360467E+00  0.59853907740E+02  0.60315722536E+02  0.74470750000E+01 0.  1.
<mgrwt>
<rscale>  0 0.14899143E+02</rscale>
<asrwt>0</asrwt>
<pdfrwt beam="1">  1        2 0.99778977E+00 0.14899143E+02</pdfrwt>
<pdfrwt beam="2">  1       -2 0.98059109E+00 0.14899143E+02</pdfrwt>
<totfact> 0.75759765E-13</totfact>
</mgrwt>
</event>
<event>
 4    1  0.5160210E-019  0.1491814E+02  0.7818608E-02  0.1870577E+00
         -2   -1    0    0    0  501 -0.00000000000E+00  0.00000000000E+00  0.11849531936E+03  0.11849531939E+03  0.25500000000E-02 0.  1.
          2   -1    0    0  501    0  0.00000000000E+00 -0.00000000000E+00 -0.46953186772E+00  0.46953879212E+00  0.25500000000E-02 0. -1.
         31    1    1    2    0    0  0.13806283512E+00  0.28165715197E+00  0.61274394370E+02  0.61726078148E+02  0.74470750000E+01 0.  1.
        -31    1    1    2    0    0 -0.13806283512E+00 -0.28165715197E+00  0.56751393122E+02  0.57238780031E+02  0.74470750000E+01 0. -1.
<mgrwt>
<rscale>  0 0.14918142E+02</rscale>
<asrwt>0</asrwt>
<pdfrwt beam="2">  1        2 0.99719011E+00 0.14918142E+02</pdfrwt>
<pdfrwt beam="1">  1       -2 0.98368468E+00 0.14918142E+02</pdfrwt>
<totfact> 0.48081066E-13</totfact>
</mgrwt>
</event>
<event>
 4    1 -0.5160210E-019  0.1489755E+02  0.7818608E-02  0.1871211E+00
         -2   -1    0    0    0  501 -0.00000000000E+00  0.00000000000E+00  0.11982086500E+03  0.11982086503E+03  0.25500000000E-02 0.  1.
          2   -1    0    0  501    0  0.00000000000E+00 -0.00000000000E+00 -0.46305668823E+00  0.46306370946E+00  0.25500000000E-02 0. -1.
         31    1    1    2    0    0  0.93666746662E-01 -0.62083072074E-01  0.60589629705E+02  0.61045677829E+02  0.74470750000E+01 0.  1.
        -31    1    1    2    0    0 -0.93666746662E-01  0.62083072074E-01  0.58768178605E+02  0.59238250906E+02  0.74470750000E+01 0. -1.
<mgrwt>
<rscale>  0 0.14897554E+02</rscale>
<asrwt>0</asrwt>
<pdfrwt beam="2">  1        2 0.98353424E+00 0.14897554E+02</pdfrwt>
<pdfrwt beam="1">  1       -2 0.99459168E+00 0.14897554E+02</pdfrwt>
<totfact>-0.44328958E-13</totfact>
</mgrwt>
</event>
<event>
 4    1 -0.5160210E-019  0.1496897E+02  0.7818608E-02  0.1869017E+00
         -2   -1    0    0    0  501 -0.00000000000E+00  0.00000000000E+00  0.12022857707E+03  0.12022857709E+03  0.25500000000E-02 0. -1.
          2   -1    0    0  501    0  0.00000000000E+00 -0.00000000000E+00 -0.46592169002E+00  0.46592866807E+00  0.25500000000E-02 0.  1.
         31    1    1    2    0    0  0.58786546451E+00 -0.41660189826E+00  0.61482911276E+02  0.61936471065E+02  0.74470750000E+01 0. -1.
        -31    1    1    2    0    0 -0.58786546451E+00  0.41660189826E+00  0.58279744100E+02  0.58758034696E+02  0.74470750000E+01 0.  1.
<mgrwt>
<rscale>  0 0.14968971E+02</rscale>
<asrwt>0</asrwt>
<pdfrwt beam="2">  1        2 0.98960885E+00 0.14968971E+02</pdfrwt>
<pdfrwt beam="1">  1       -2 0.99798662E+00 0.14968971E+02</pdfrwt>
<totfact>-0.11090599E-13</totfact>
</mgrwt>
</event>
<event>
 4    1 -0.5160210E-019  0.1494217E+02  0.7818608E-02  0.1869838E+00
         -2   -1    0    0    0  501 -0.00000000000E+00  0.00000000000E+00  0.12017419900E+03  0.12017419903E+03  0.25500000000E-02 0.  1.
          2   -1    0    0  501    0  0.00000000000E+00 -0.00000000000E+00 -0.46446464058E+00  0.46447164052E+00  0.25500000000E-02 0. -1.
         31    1    1    2    0    0  0.24091823506E+00  0.12631944586E-01  0.64276744057E+02  0.64707163079E+02  0.74470750000E+01 0.  1.
        -31    1    1    2    0    0 -0.24091823506E+00 -0.12631944586E-01  0.55432990305E+02  0.55931507590E+02  0.74470750000E+01 0. -1.
<mgrwt>
<rscale>  0 0.14942167E+02</rscale>
<asrwt>0</asrwt>
<pdfrwt beam="2">  1        2 0.98652434E+00 0.14942167E+02</pdfrwt>
<pdfrwt beam="1">  1       -2 0.99752494E+00 0.14942167E+02</pdfrwt>
<totfact>-0.19183878E-13</totfact>
</mgrwt>
</event>
<event>
 4    1 -0.5160210E-019  0.1498613E+02  0.7818608E-02  0.1868492E+00
         -2   -1    0    0    0  501 -0.00000000000E+00  0.00000000000E+00  0.11993754566E+03  0.11993754569E+03  0.25500000000E-02 0.  1.
          2   -1    0    0  501    0  0.00000000000E+00 -0.00000000000E+00 -0.46812354601E+00  0.46813049124E+00  0.25500000000E-02 0. -1.
         31    1    1    2    0    0  0.63474789662E+00 -0.53184049151E+00  0.60027023736E+02  0.60492877795E+02  0.74470750000E+01 0.  1.
        -31    1    1    2    0    0 -0.63474789662E+00  0.53184049151E+00  0.59442398376E+02  0.59912798382E+02  0.74470750000E+01 0.  1.
<mgrwt>
<rscale>  0 0.14986128E+02</rscale>
<asrwt>0</asrwt>
<pdfrwt beam="2">  1        2 0.99425798E+00 0.14986128E+02</pdfrwt>
<pdfrwt beam="1">  1       -2 0.99559837E+00 0.14986128E+02</pdfrwt>
<totfact>-0.12435466E-13</totfact>
</mgrwt>
</event>
<event>
 4    1 -0.5160210E-019  0.1492340E+02  0.7818608E-02  0.1870415E+00
         -2   -1    0    0    0  501 -0.00000000000E+00  0.00000000000E+00  0.12039399368E+03  0.12039399370E+03  0.25500000000E-02 0.  1.
          2   -1    0    0  501    0  0.00000000000E+00 -0.00000000000E+00 -0.46245251906E+00  0.46245954946E+00  0.25500000000E-02 0. -1.
         31    1    1    2    0    0 -0.18031913401E+00 -0.39231219378E+00  0.61404978424E+02  0.61856420242E+02  0.74470750000E+01 0.  1.
        -31    1    1    2    0    0  0.18031913401E+00  0.39231219378E+00  0.58526562733E+02  0.59000033011E+02  0.74470750000E+01 0. -1.
<mgrwt>
<rscale>  0 0.14923395E+02</rscale>
<asrwt>0</asrwt>
<pdfrwt beam="2">  1        2 0.98227391E+00 0.14923395E+02</pdfrwt>
<pdfrwt beam="1">  1       -2 0.99932571E+00 0.14923395E+02</pdfrwt>
<totfact>-0.12318316E-13</totfact>
</mgrwt>
</event>
<event>
 4    1  0.5160210E-019  0.1491385E+02  0.7818608E-02  0.1870709E+00
         -2   -1    0    0    0  501 -0.00000000000E+00  0.00000000000E+00  0.11847571223E+03  0.11847571226E+03  0.25500000000E-02 0. -1.
          2   -1    0    0  501    0  0.00000000000E+00 -0.00000000000E+00 -0.46933951279E+00  0.46934644002E+00  0.25500000000E-02 0.  1.
         31    1    1    2    0    0 -0.29367748024E+00 -0.19029940090E+00  0.57758391532E+02  0.58237558145E+02  0.74470750000E+01 0.  1.
        -31    1    1    2    0    0  0.29367748024E+00  0.19029940090E+00  0.60247981185E+02  0.60707500552E+02  0.74470750000E+01 0. -1.
<mgrwt>
<rscale>  0 0.14913852E+02</rscale>
<asrwt>0</asrwt>
<pdfrwt beam="2">  1        2 0.99678256E+00 0.14913852E+02</pdfrwt>
<pdfrwt beam="1">  1       -2 0.98352097E+00 0.14913852E+02</pdfrwt>
<totfact> 0.54740026E-13</totfact>
</mgrwt>
</event>
<event>
 4    1 -0.5160210E-019  0.1504277E+02  0.7818608E-02  0.1866766E+00
          2   -1    0    0  501    0  0.00000000000E+00  0.00000000000E+00  0.12031925339E+03  0.12031925342E+03  0.25500000000E-02 0. -1.
         -2   -1    0    0    0  501 -0.00000000000E+00 -0.00000000000E+00 -0.47017259428E+00  0.47017950924E+00  0.25500000000E-02 0.  1.
         31    1    1    2    0    0 -0.39238423257E+00  0.95149802793E+00  0.61773033661E+02  0.62228819109E+02  0.74470750000E+01 0.  1.
        -31    1    1    2    0    0  0.39238423257E+00 -0.95149802793E+00  0.58076047138E+02  0.58560613822E+02  0.74470750000E+01 0. -1.
<mgrwt>
<rscale>  0 0.15042770E+02</rscale>
<asrwt>0</asrwt>
<pdfrwt beam="1">  1        2 0.99877154E+00 0.15042770E+02</pdfrwt>
<pdfrwt beam="2">  1       -2 0.99860531E+00 0.15042770E+02</pdfrwt>
<totfact>-0.19219961E-14</totfact>
</mgrwt>
</event>
<event>
 4    1 -0.5160210E-019  0.1492739E+02  0.7818608E-02  0.1870292E+00
          2   -1    0    0  501    0  0.00000000000E+00  0.00000000000E+00  0.11838677560E+03  0.11838677562E+03  0.25500000000E-02 0. -1.
         -2   -1    0    0    0  501 -0.00000000000E+00 -0.00000000000E+00 -0.47054530974E+00  0.47055221922E+00  0.25500000000E-02 0.  1.
         31    1    1    2    0    0  0.17788994840E+00  0.46073794108E+00  0.58460616745E+02  0.58935104654E+02  0.74470750000E+01 0.  1.
        -31    1    1    2    0    0 -0.17788994840E+00 -0.46073794108E+00  0.59455613542E+02  0.59922223190E+02  0.74470750000E+01 0.  1.
<mgrwt>
<rscale>  0 0.14927391E+02</rscale>
<asrwt>0</asrwt>
<pdfrwt beam="1">  1        2 0.98279555E+00 0.14927391E+02</pdfrwt>
<pdfrwt beam="2">  1       -2 0.99933029E+00 0.14927391E+02</pdfrwt>
<totfact>-0.11205613E-13</totfact>
</mgrwt>
</event>
<event>
 4    1  0.5160210E-019  0.1490297E+02  0.7818608E-02  0.1871044E+00
          2   -1    0    0  501    0  0.00000000000E+00  0.00000000000E+00  0.12022947557E+03  0.12022947560E+03  0.25500000000E-02 0. -1.
         -2   -1    0    0    0  501 -0.00000000000E+00 -0.00000000000E+00 -0.46181862116E+00  0.46182566121E+00  0.25500000000E-02 0.  1.
         31    1    1    2    0    0  0.62060710349E-01  0.54956213006E-01  0.57919396660E+02  0.58396252510E+02  0.74470750000E+01 0.  1.
        -31    1    1    2    0    0 -0.62060710349E-01 -0.54956213006E-01  0.61848260291E+02  0.62295048751E+02  0.74470750000E+01 0. -1.
<mgrwt>
<rscale>  0 0.14902971E+02</rscale>
<asrwt>0</asrwt>
<pdfrwt beam="1">  1        2 0.99796012E+00 0.14902971E+02</pdfrwt>
<pdfrwt beam="2">  1       -2 0.98092751E+00 0.14902971E+02</pdfrwt>
<totfact> 0.67090657E-13</totfact>
</mgrwt>
</event>
<event>
 4    1 -0.5160210E-019  0.1500070E+02  0.7818608E-02  0.1868047E+00
         -2   -1    0    0    0  501 -0.00000000000E+00  0.00000000000E+00  0.12028698701E+03  0.12028698703E+03  0.25500000000E-02 0.  1.
          2   -1    0    0  501    0  0.00000000000E+00 -0.00000000000E+00 -0.46767181298E+00  0.46767876492E+00  0.25500000000E-02 0. -1.
         31    1    1    2    0    0  0.29033502848E+00  0.27590415536E+00  0.53490314744E+02  0.54007713477E+02  0.74470750000E+01 0. -1.
        -31    1    1    2    0    0 -0.29033502848E+00 -0.27590415536E+00  0.66329000450E+02  0.66746952322E+02  0.74470750000E+01 0.  1.
<mgrwt>
<rscale>  0 0.15000701E+02</rscale>
<asrwt>0</asrwt>
<pdfrwt beam="2">  1        2 0.99331349E+00 0.15000701E+02</pdfrwt>
<pdfrwt beam="1">  1       -2 0.99848406E+00 0.15000701E+02</pdfrwt>
<totfact>-0.64932203E-14</totfact>
</mgrwt>
</event>
<event>
 4    1  0.5160210E-019  0.1491325E+02  0.7818608E-02  0.1870727E+00
          2   -1    0    0  501    0  0.00000000000E+00  0.00000000000E+00  0.11957363764E+03  0.11957363766E+03  0.25500000000E-02 0. -1.
         -2   -1    0    0    0  501 -0.00000000000E+00 -0.00000000000E+00 -0.46499263807E+00  0.46499963006E+00  0.25500000000E-02 0.  1.
         31    1    1    2    0    0 -0.37672675159E+00 -0.18337255556E-01  0.59474991067E+02  0.59940601830E+02  0.74470750000E+01 0. -1.
        -31    1    1    2    0    0  0.37672675159E+00  0.18337255556E-01  0.59633653932E+02  0.60098035464E+02  0.74470750000E+01 0.  1.
<mgrwt>
<rscale>  0 0.14913254E+02</rscale>
<asrwt>0</asrwt>
<pdfrwt beam="1">  1        2 0.99256344E+00 0.14913254E+02</pdfrwt>
<pdfrwt beam="2">  1       -2 0.98762235E+00 0.14913254E+02</pdfrwt>
<totfact> 0.22549657E-13</totfact>
</mgrwt>
</event>
<event>
 4    1 -0.5160210E-019  0.1499572E+02  0.7818608E-02  0.1868199E+00
         -2   -1    0    0    0  501 -0.00000000000E+00  0.00000000000E+00  0.11956250785E+03  0.11956250788E+03  0.25500000000E-02 0. -1.
          2   -1    0    0  501    0  0.00000000000E+00 -0.00000000000E+00 -0.47019303589E+00  0.47019995055E+00  0.25500000000E-02 0.  1.
         31    1    1    2    0    0 -0.21200995917E+00  0.63071458961E+00  0.55045112711E+02  0.55550572531E+02  0.74470750000E+01 0.  1.
        -31    1    1    2    0    0  0.21200995917E+00 -0.63071458961E+00  0.64047202103E+02  0.64482135297E+02  0.74470750000E+01 0. -1.
<mgrwt>
<rscale>  0 0.14995716E+02</rscale>
<asrwt>0</asrwt>
<pdfrwt beam="2">  1        2 0.99862396E+00 0.14995716E+02</pdfrwt>
<pdfrwt beam="1">  1       -2 0.99251441E+00 0.14995716E+02</pdfrwt>
<totfact>-0.37633492E-14</totfact>
</mgrwt>
</event>
<event>
 4    1  0.5160210E-019  0.1490407E+02  0.7818608E-02  0.1871010E+00
         -2   -1    0    0    0  501 -0.00000000000E+00  0.00000000000E+00  0.11821942713E+03  0.11821942716E+03  0.25500000000E-02 0. -1.
          2   -1    0    0  501    0  0.00000000000E+00 -0.00000000000E+00 -0.46974004720E+00  0.46974696853E+00  0.25500000000E-02 0.  1.
         31    1    1    2    0    0  0.13001990460E+00 -0.18179294276E+00  0.57642892351E+02  0.58122387412E+02  0.74470750000E+01 0.  1.
        -31    1    1    2    0    0 -0.13001990460E+00  0.18179294276E+00  0.60106794730E+02  0.60566786712E+02  0.74470750000E+01 0. -1.
<mgrwt>
<rscale>  0 0.14904068E+02</rscale>
<asrwt>0</asrwt>
<pdfrwt beam="2">  1        2 0.99762130E+00 0.14904068E+02</pdfrwt>
<pdfrwt beam="1">  1       -2 0.98140513E+00 0.14904068E+02</pdfrwt>
<totfact> 0.68996007E-13</totfact>
</mgrwt>
</event>
<event>
 4    1 -0.5160210E-019  0.1491544E+02  0.7818608E-02  0.1870660E+00
          2   -1    0    0  501    0  0.00000000000E+00  0.00000000000E+00  0.11863208974E+03  0.11863208976E+03  0.25500000000E-02 0.  1.
         -2   -1    0    0    0  501 -0.00000000000E+00 -0.00000000000E+00 -0.46882037625E+00  0.46882731115E+00  0.25500000000E-02 0. -1.
         31    1    1    2    0    0  0.15184611589E+00 -0.16011806650E+00  0.61729196354E+02  0.62177176710E+02  0.74470750000E+01 0.  1.
        -31    1    1    2    0    0 -0.15184611589E+00  0.16011806650E+00  0.56434073006E+02  0.56923740365E+02  0.74470750000E+01 0. -1.
<mgrwt>
<rscale>  0 0.14915436E+02</rscale>
<asrwt>0</asrwt>
<pdfrwt beam="1">  1        2 0.98480971E+00 0.14915436E+02</pdfrwt>
<pdfrwt beam="2">  1       -2 0.99568955E+00 0.14915436E+02</pdfrwt>
<totfact>-0.34586390E-13</totfact>
</mgrwt>
</event>
<event>
 4    1 -0.5160210E-019  0.1493156E+02  0.7818608E-02  0.1870164E+00
         -2   -1    0    0    0  501 -0.00000000000E+00  0.00000000000E+00  0.11994346992E+03  0.11994346995E+03  0.25500000000E-02 0. -1.
          2   -1    0    0  501    0  0.00000000000E+00 -0.00000000000E+00 -0.46469735812E+00  0.46470435456E+00  0.25500000000E-02 0.  1.
         31    1    1    2    0    0 -0.29996478047E+00 -0.77108361955E-01  0.63188914006E+02  0.63626988801E+02  0.74470750000E+01 0. -1.
        -31    1    1    2    0    0  0.29996478047E+00  0.77108361955E-01  0.56289858560E+02  0.56781185505E+02  0.74470750000E+01 0.  1.
<mgrwt>
<rscale>  0 0.14931555E+02</rscale>
<asrwt>0</asrwt>
<pdfrwt beam="2">  1        2 0.98700941E+00 0.14931555E+02</pdfrwt>
<pdfrwt beam="1">  1       -2 0.99561903E+00 0.14931555E+02</pdfrwt>
<totfact>-0.24781821E-13</totfact>
</mgrwt>
</event>
<event>
 4    1 -0.5160210E-019  0.1492441E+02  0.7818608E-02  0.1870384E+00
          2   -1    0    0  501    0  0.00000000000E+00  0.00000000000E+00  0.11867711870E+03  0.11867711873E+03  0.25500000000E-02 0. -1.
         -2   -1    0    0    0  501 -0.00000000000E+00 -0.00000000000E+00 -0.46920690185E+00  0.46921383104E+00  0.25500000000E-02 0.  1.
         31    1    1    2    0    0  0.31852842593E+00  0.19732863366E+00  0.61434381844E+02  0.61885237315E+02  0.74470750000E+01 0. -1.
        -31    1    1    2    0    0 -0.31852842593E+00 -0.19732863366E+00  0.56773529957E+02  0.57261095246E+02  0.74470750000E+01 0.  1.
<mgrwt>
<rscale>  0 0.14924415E+02</rscale>
<asrwt>0</asrwt>
<pdfrwt beam="1">  1        2 0.98518524E+00 0.14924415E+02</pdfrwt>
<pdfrwt beam="2">  1       -2 0.99650870E+00 0.14924415E+02</pdfrwt>
<totfact>-0.29566171E-13</totfact>
</mgrwt>
</event>
<event>
 4    1 -0.5160210E-019  0.1501388E+02  0.7818608E-02  0.1867645E+00
         -2   -1    0    0    0  501 -0.00000000000E+00  0.00000000000E+00  0.11978455619E+03  0.11978455621E+03  0.25500000000E-02 0. -1.
          2   -1    0    0  501    0  0.00000000000E+00 -0.00000000000E+00 -0.47045917709E+00  0.47046608784E+00  0.25500000000E-02 0.  1.
         31    1    1    2    0    0  0.14662769989E+00 -0.65560671954E+00  0.64993592997E+02  0.65422300300E+02  0.74470750000E+01 0. -1.
        -31    1    1    2    0    0 -0.14662769989E+00  0.65560671954E+00  0.54320504013E+02  0.54832722001E+02  0.74470750000E+01 0.  1.
<mgrwt>
<rscale>  0 0.15013882E+02</rscale>
<asrwt>0</asrwt>
<pdfrwt beam="2">  1        2 0.99919424E+00 0.15013882E+02</pdfrwt>
<pdfrwt beam="1">  1       -2 0.99435266E+00 0.15013882E+02</pdfrwt>
<totfact>-0.29993721E-14</totfact>
</mgrwt>
</event>
<event>
 4    1 -0.5160210E-019  0.1500866E+02  0.7818608E-02  0.1867804E+00
          2   -1    0    0  501    0  0.00000000000E+00  0.00000000000E+00  0.12018081528E+03  0.12018081531E+03  0.25500000000E-02 0. -1.
         -2   -1    0    0    0  501 -0.00000000000E+00 -0.00000000000E+00 -0.46858214543E+00  0.46858908386E+00  0.25500000000E-02 0.  1.
         31    1    1    2    0    0 -0.27926537685E+00  0.13451980942E-01  0.66946134366E+02  0.67359646694E+02  0.74470750000E+01 0. -1.
        -31    1    1    2    0    0  0.27926537685E+00 -0.13451980942E-01  0.52766098768E+02  0.53289757697E+02  0.74470750000E+01 0. -1.
<mgrwt>
<rscale>  0 0.15008665E+02</rscale>
<asrwt>0</asrwt>
<pdfrwt beam="1">  1        2 0.99761369E+00 0.15008665E+02</pdfrwt>
<pdfrwt beam="2">  1       -2 0.99523605E+00 0.15008665E+02</pdfrwt>
<totfact>-0.74342584E-14</totfact>
</mgrwt>
</event>
<event>
 4    1  0.5160210E-019  0.1490769E+02  0.7818608E-02  0.1870898E+00
         -2   -1    0    0    0  501 -0.00000000000E+00  0.00000000000E+00  0.11808554445E+03  0.11808554448E+03  0.25500000000E-02 0.  1.
          2   -1    0    0  501    0  0.00000000000E+00 -0.00000000000E+00 -0.47050140833E+00  0.47050831846E+00  0.25500000000E-02 0. -1.
         31    1    1    2    0    0 -0.20700889115E+00  0.23942815503E-01  0.56900964284E+02  0.57386601994E+02  0.74470750000E+01 0.  1.
        -31    1    1    2    0    0  0.20700889115E+00 -0.23942815503E-01  0.60714078757E+02  0.61169450801E+02  0.74470750000E+01 0. -1.
<mgrwt>
<rscale>  0 0.14907693E+02</rscale>
<asrwt>0</asrwt>
<pdfrwt beam="2">  1        2 0.99922733E+00 0.14907693E+02</pdfrwt>
<pdfrwt beam="1">  1       -2 0.98030439E+00 0.14907693E+02</pdfrwt>
<totfact> 0.32648407E-13</totfact>
</mgrwt>
</event>
<event>
 4    1  0.5160210E-019  0.1490569E+02  0.7818608E-02  0.1870960E+00
          2   -1    0    0  501    0  0.00000000000E+00  0.00000000000E+00  0.12006144422E+03  0.12006144425E+03  0.25500000000E-02 0.  1.
         -2   -1    0    0    0  501 -0.00000000000E+00 -0.00000000000E+00 -0.46263387863E+00  0.46264090628E+00  0.25500000000E-02 0. -1.
         31    1    1    2    0    0 -0.24180332577E+00 -0.17086924214E-01  0.61133677688E+02  0.61586071757E+02  0.74470750000E+01 0.  1.
        -31    1    1    2    0    0  0.24180332577E+00  0.17086924214E-01  0.58465132653E+02  0.58938013395E+02  0.74470750000E+01 0. -1.
<mgrwt>
<rscale>  0 0.14905692E+02</rscale>
<asrwt>0</asrwt>
<pdfrwt beam="1">  1        2 0.99657746E+00 0.14905692E+02</pdfrwt>
<pdfrwt beam="2">  1       -2 0.98264723E+00 0.14905692E+02</pdfrwt>
<totfact> 0.69150922E-13</totfact>
</mgrwt>
</event>
<event>
 4    1  0.5160210E-019  0.1490654E+02  0.7818608E-02  0.1870934E+00
          2   -1    0    0  501    0  0.00000000000E+00  0.00000000000E+00  0.12008618024E+03  0.12008618027E+03  0.25500000000E-02 0.  1.
         -2   -1    0    0    0  501 -0.00000000000E+00 -0.00000000000E+00 -0.46259089175E+00  0.46259792005E+00  0.25500000000E-02 0. -1.
         31    1    1    2    0    0  0.15937331965E+00 -0.51380779583E-01  0.57762219995E+02  0.58240544509E+02  0.74470750000E+01 0. -1.
        -31    1    1    2    0    0 -0.15937331965E+00  0.51380779583E-01  0.61861369357E+02  0.62308233683E+02  0.74470750000E+01 0.  1.
<mgrwt>
<rscale>  0 0.14906535E+02</rscale>
<asrwt>0</asrwt>
<pdfrwt beam="1">  1        2 0.99678164E+00 0.14906535E+02</pdfrwt>
<pdfrwt beam="2">  1       -2 0.98255705E+00 0.14906535E+02</pdfrwt>
<totfact> 0.67744020E-13</totfact>
</mgrwt>
</event>
<event>
 4    1 -0.5160210E-019  0.1494376E+02  0.7818608E-02  0.1869790E+00
         -2   -1    0    0    0  501 -0.00000000000E+00  0.00000000000E+00  0.11962441869E+03  0.11962441872E+03  0.25500000000E-02 0. -1.
          2   -1    0    0  501    0  0.00000000000E+00 -0.00000000000E+00 -0.46669862434E+00  0.46670559077E+00  0.25500000000E-02 0.  1.
         31    1    1    2    0    0  0.37752141019E+00 -0.10192223010E+00  0.63323550978E+02  0.63761147614E+02  0.74470750000E+01 0. -1.
        -31    1    1    2    0    0 -0.37752141019E+00  0.10192223010E+00  0.55834169087E+02  0.56329976693E+02  0.74470750000E+01 0. -1.
<mgrwt>
<rscale>  0 0.14943757E+02</rscale>
<asrwt>0</asrwt>
<pdfrwt beam="2">  1        2 0.99123328E+00 0.14943757E+02</pdfrwt>
<pdfrwt beam="1">  1       -2 0.99299744E+00 0.14943757E+02</pdfrwt>
<totfact>-0.13914553E-13</totfact>
</mgrwt>
</event>
<event>
 4    1 -0.5160210E-019  0.1498861E+02  0.7818608E-02  0.1868416E+00
         -2   -1    0    0    0  501 -0.00000000000E+00  0.00000000000E+00  0.11984559600E+03  0.11984559603E+03  0.25500000000E-02 0. -1.
          2   -1    0    0  501    0  0.00000000000E+00 -0.00000000000E+00 -0.46863778100E+00  0.46864471861E+00  0.25500000000E-02 0.  1.
         31    1    1    2    0    0 -0.41093891344E+00  0.31375984765E+00  0.65003032362E+02  0.65430271727E+02  0.74470750000E+01 0. -1.
        -31    1    1    2    0    0  0.41093891344E+00 -0.31375984765E+00  0.54373925861E+02  0.54883969022E+02  0.74470750000E+01 0.  1.
<mgrwt>
<rscale>  0 0.14988608E+02</rscale>
<asrwt>0</asrwt>
<pdfrwt beam="2">  1        2 0.99534294E+00 0.14988608E+02</pdfrwt>
<pdfrwt beam="1">  1       -2 0.99484232E+00 0.14988608E+02</pdfrwt>
<totfact>-0.11516020E-13</totfact>
</mgrwt>
</event>
<event>
 4    1 -0.5160210E-019  0.1496061E+02  0.7818608E-02  0.1869273E+00
         -2   -1    0    0    0  501 -0.00000000000E+00  0.00000000000E+00  0.12016956110E+03  0.12016956113E+03  0.25500000000E-02 0. -1.
          2   -1    0    0  501    0  0.00000000000E+00 -0.00000000000E+00 -0.46562971165E+00  0.46563669407E+00  0.25500000000E-02 0.  1.
         31    1    1    2    0    0  0.45703567745E+00 -0.53011423110E+00  0.59221559335E+02  0.59692059094E+02  0.74470750000E+01 0. -1.
        -31    1    1    2    0    0 -0.45703567745E+00  0.53011423110E+00  0.60482372054E+02  0.60943138728E+02  0.74470750000E+01 0. -1.
<mgrwt>
<rscale>  0 0.14960607E+02</rscale>
<asrwt>0</asrwt>
<pdfrwt beam="2">  1        2 0.98898922E+00 0.14960607E+02</pdfrwt>
<pdfrwt beam="1">  1       -2 0.99749622E+00 0.14960607E+02</pdfrwt>
<totfact>-0.14011500E-13</totfact>
</mgrwt>
</event>
<event>
 4    1 -0.5160210E-019  0.1497316E+02  0.7818608E-02  0.1868889E+00
         -2   -1    0    0    0  501 -0.00000000000E+00  0.00000000000E+00  0.11986378868E+03  0.11986378871E+03  0.25500000000E-02 0. -1.
          2   -1    0    0  501    0  0.00000000000E+00 -0.00000000000E+00 -0.46760096885E+00  0.46760792184E+00  0.25500000000E-02 0.  1.
         31    1    1    2    0    0 -0.60748785843E+00  0.32065767253E+00  0.62459354651E+02  0.62905498744E+02  0.74470750000E+01 0.  1.
        -31    1    1    2    0    0  0.60748785843E+00 -0.32065767253E+00  0.56936833059E+02  0.57425897883E+02  0.74470750000E+01 0.  1.
<mgrwt>
<rscale>  0 0.14973155E+02</rscale>
<asrwt>0</asrwt>
<pdfrwt beam="2">  1        2 0.99315002E+00 0.14973155E+02</pdfrwt>
<pdfrwt beam="1">  1       -2 0.99498418E+00 0.14973155E+02</pdfrwt>
<totfact>-0.13936097E-13</totfact>
</mgrwt>
</event>
<event>
 4    1  0.5160210E-019  0.1490766E+02  0.7818608E-02  0.1870899E+00
         -2   -1    0    0    0  501 -0.00000000000E+00  0.00000000000E+00  0.11836002596E+03  0.11836002598E+03  0.25500000000E-02 0.  1.
          2   -1    0    0  501    0  0.00000000000E+00 -0.00000000000E+00 -0.46940842514E+00  0.46941535136E+00  0.25500000000E-02 0. -1.
         31    1    1    2    0    0  0.21915882817E+00  0.27478975998E-01  0.60761143722E+02  0.61216209439E+02  0.74470750000E+01 0.  1.
        -31    1    1    2    0    0 -0.21915882817E+00 -0.27478975998E-01  0.57129473810E+02  0.57613231896E+02  0.74470750000E+01 0. -1.
<mgrwt>
<rscale>  0 0.14907663E+02</rscale>
<asrwt>0</asrwt>
<pdfrwt beam="2">  1        2 0.99692449E+00 0.14907663E+02</pdfrwt>
<pdfrwt beam="1">  1       -2 0.98256496E+00 0.14907663E+02</pdfrwt>
<totfact> 0.65635297E-13</totfact>
</mgrwt>
</event>
<event>
 4    1  0.5160210E-019  0.1491314E+02  0.7818608E-02  0.1870731E+00
         -2   -1    0    0    0  501 -0.00000000000E+00  0.00000000000E+00  0.11857333765E+03  0.11857333767E+03  0.25500000000E-02 0. -1.
          2   -1    0    0  501    0  0.00000000000E+00 -0.00000000000E+00 -0.46890841165E+00  0.46891534525E+00  0.25500000000E-02 0.  1.
         31    1    1    2    0    0  0.18149960343E+00 -0.14048074667E+00  0.61431534053E+02  0.61881701489E+02  0.74470750000E+01 0. -1.
        -31    1    1    2    0    0 -0.18149960343E+00  0.14048074667E+00  0.56672895181E+02  0.57160551530E+02  0.74470750000E+01 0.  1.
<mgrwt>
<rscale>  0 0.14913142E+02</rscale>
<asrwt>0</asrwt>
<pdfrwt beam="2">  1        2 0.99587384E+00 0.14913142E+02</pdfrwt>
<pdfrwt beam="1">  1       -2 0.98432464E+00 0.14913142E+02</pdfrwt>
<totfact> 0.52389564E-13</totfact>
</mgrwt>
</event>
<event>
 4    1 -0.5160210E-019  0.1494707E+02  0.7818608E-02  0.1869688E+00
         -2   -1    0    0    0  501 -0.00000000000E+00  0.00000000000E+00  0.11992054133E+03  0.11992054136E+03  0.25500000000E-02 0.  1.
          2   -1    0    0  501    0  0.00000000000E+00 -0.00000000000E+00 -0.46575257422E+00  0.46575955481E+00  0.25500000000E-02 0. -1.
         31    1    1    2    0    0 -0.30527985718E+00  0.25396980189E-01  0.55308919772E+02  0.55808864647E+02  0.74470750000E+01 0. -1.
        -31    1    1    2    0    0  0.30527985718E+00 -0.25396980189E-01  0.64145868985E+02  0.64577436266E+02  0.74470750000E+01 0.  1.
<mgrwt>
<rscale>  0 0.14947070E+02</rscale>
<asrwt>0</asrwt>
<pdfrwt beam="2">  1        2 0.98924124E+00 0.14947070E+02</pdfrwt>
<pdfrwt beam="1">  1       -2 0.99543817E+00 0.14947070E+02</pdfrwt>
<totfact>-0.18953056E-13</totfact>
</mgrwt>
</event>
<event>
 4    1 -0.5160210E-019  0.1494568E+02  0.7818608E-02  0.1869731E+00
         -2   -1    0    0    0  501 -0.00000000000E+00  0.00000000000E+00  0.12031076884E+03  0.12031076886E+03  0.25500000000E-02 0.  1.
          2   -1    0    0  501    0  0.00000000000E+00 -0.00000000000E+00 -0.46415561181E+00  0.46416261641E+00  0.25500000000E-02 0. -1.
         31    1    1    2    0    0  0.41389989430E-01 -0.12819089527E+00  0.55032703801E+02  0.55534453808E+02  0.74470750000E+01 0. -1.
        -31    1    1    2    0    0 -0.41389989430E-01  0.12819089527E+00  0.64813909423E+02  0.65240477671E+02  0.74470750000E+01 0.  1.
<mgrwt>
<rscale>  0 0.14945681E+02</rscale>
<asrwt>0</asrwt>
<pdfrwt beam="2">  1        2 0.98587480E+00 0.14945681E+02</pdfrwt>
<pdfrwt beam="1">  1       -2 0.99865164E+00 0.14945681E+02</pdfrwt>
<totfact>-0.12857050E-13</totfact>
</mgrwt>
</event>
<event>
 4    1 -0.5160210E-019  0.1497493E+02  0.7818608E-02  0.1868835E+00
          2   -1    0    0  501    0  0.00000000000E+00  0.00000000000E+00  0.11933867085E+03  0.11933867088E+03  0.25500000000E-02 0.  1.
         -2   -1    0    0    0  501 -0.00000000000E+00 -0.00000000000E+00 -0.46976972463E+00  0.46977664552E+00  0.25500000000E-02 0. -1.
         31    1    1    2    0    0 -0.66288031631E+00  0.38401324157E+00  0.58412744198E+02  0.58890529690E+02  0.74470750000E+01 0. -1.
        -31    1    1    2    0    0  0.66288031631E+00 -0.38401324157E+00  0.60456156929E+02  0.60917917833E+02  0.74470750000E+01 0.  1.
<mgrwt>
<rscale>  0 0.14974927E+02</rscale>
<asrwt>0</asrwt>
<pdfrwt beam="1">  1        2 0.99066007E+00 0.14974927E+02</pdfrwt>
<pdfrwt beam="2">  1       -2 0.99772111E+00 0.14974927E+02</pdfrwt>
<totfact>-0.11079111E-13</totfact>
</mgrwt>
</event>
<event>
 4    1 -0.5160210E-019  0.1498497E+02  0.7818608E-02  0.1868528E+00
         -2   -1    0    0    0  501 -0.00000000000E+00  0.00000000000E+00  0.11975135930E+03  0.11975135933E+03  0.25500000000E-02 0.  1.
          2   -1    0    0  501    0  0.00000000000E+00 -0.00000000000E+00 -0.46877874156E+00  0.46878567709E+00  0.25500000000E-02 0. -1.
         31    1    1    2    0    0 -0.64990015338E+00 -0.35711507571E+00  0.62516990478E+02  0.62963345892E+02  0.74470750000E+01 0. -1.
        -31    1    1    2    0    0  0.64990015338E+00  0.35711507571E+00  0.56765590081E+02  0.57256799113E+02  0.74470750000E+01 0. -1.
<mgrwt>
<rscale>  0 0.14984967E+02</rscale>
<asrwt>0</asrwt>
<pdfrwt beam="2">  1        2 0.99563810E+00 0.14984967E+02</pdfrwt>
<pdfrwt beam="1">  1       -2 0.99406427E+00 0.14984967E+02</pdfrwt>
<totfact>-0.10893303E-13</totfact>
</mgrwt>
</event>
<event>
 4    1 -0.5160210E-019  0.1497439E+02  0.7818608E-02  0.1868851E+00
         -2   -1    0    0    0  501 -0.00000000000E+00  0.00000000000E+00  0.11991999002E+03  0.11991999005E+03  0.25500000000E-02 0.  1.
          2   -1    0    0  501    0  0.00000000000E+00 -0.00000000000E+00 -0.46745861990E+00  0.46746557501E+00  0.25500000000E-02 0. -1.
         31    1    1    2    0    0  0.34293098028E-01 -0.41363471175E+00  0.54473672963E+02  0.54981926501E+02  0.74470750000E+01 0. -1.
        -31    1    1    2    0    0 -0.34293098028E-01  0.41363471175E+00  0.64978858436E+02  0.65405529120E+02  0.74470750000E+01 0.  1.
<mgrwt>
<rscale>  0 0.14974385E+02</rscale>
<asrwt>0</asrwt>
<pdfrwt beam="2">  1        2 0.99285067E+00 0.14974385E+02</pdfrwt>
<pdfrwt beam="1">  1       -2 0.99544771E+00 0.14974385E+02</pdfrwt>
<totfact>-0.13984303E-13</totfact>
</mgrwt>
</event>
<event>
 4    1  0.5160210E-019  0.1490425E+02  0.7818608E-02  0.1871004E+00
          2   -1    0    0  501    0  0.00000000000E+00  0.00000000000E+00  0.12004168004E+03  0.12004168007E+03  0.25500000000E-02 0.  1.
         -2   -1    0    0    0  501 -0.00000000000E+00 -0.00000000000E+00 -0.46262061919E+00  0.46262764704E+00  0.25500000000E-02 0. -1.
         31    1    1    2    0    0  0.10738861527E+00 -0.24056497778E+00  0.59171046796E+02  0.59638419738E+02  0.74470750000E+01 0.  1.
        -31    1    1    2    0    0 -0.10738861527E+00  0.24056497778E+00  0.60408012628E+02  0.60865887979E+02  0.74470750000E+01 0. -1.
<mgrwt>
<rscale>  0 0.14904252E+02</rscale>
<asrwt>0</asrwt>
<pdfrwt beam="1">  1        2 0.99641393E+00 0.14904252E+02</pdfrwt>
<pdfrwt beam="2">  1       -2 0.98261855E+00 0.14904252E+02</pdfrwt>
<totfact> 0.71635227E-13</totfact>
</mgrwt>
</event>
<event>
 4    1 -0.5160210E-019  0.1489579E+02  0.7818608E-02  0.1871265E+00
          2   -1    0    0  501    0  0.00000000000E+00  0.00000000000E+00  0.11818300464E+03  0.11818300467E+03  0.25500000000E-02 0. -1.
         -2   -1    0    0    0  501 -0.00000000000E+00 -0.00000000000E+00 -0.46936314669E+00  0.46937007358E+00  0.25500000000E-02 0.  1.
         31    1    1    2    0    0 -0.53183870170E-01  0.34110883377E-01  0.59579945259E+02  0.60043590792E+02  0.74470750000E+01 0. -1.
        -31    1    1    2    0    0  0.53183870170E-01 -0.34110883377E-01  0.58133696238E+02  0.58608783953E+02  0.74470750000E+01 0.  1.
<mgrwt>
<rscale>  0 0.14895793E+02</rscale>
<asrwt>0</asrwt>
<pdfrwt beam="1">  1        2 0.98110085E+00 0.14895793E+02</pdfrwt>
<pdfrwt beam="2">  1       -2 0.99682281E+00 0.14895793E+02</pdfrwt>
<totfact>-0.55396534E-13</totfact>
</mgrwt>
</event>
<event>
 4    1 -0.5160210E-019  0.1497406E+02  0.7818608E-02  0.1868861E+00
         -2   -1    0    0    0  501 -0.00000000000E+00  0.00000000000E+00  0.12005166674E+03  0.12005166677E+03  0.25500000000E-02 0. -1.
          2   -1    0    0  501    0  0.00000000000E+00 -0.00000000000E+00 -0.46692529742E+00  0.46693226047E+00  0.25500000000E-02 0.  1.
         31    1    1    2    0    0 -0.32167506777E+00  0.19047904604E+00  0.54352051362E+02  0.54861135337E+02  0.74470750000E+01 0.  1.
        -31    1    1    2    0    0  0.32167506777E+00 -0.19047904604E+00  0.65232690083E+02  0.65657463694E+02  0.74470750000E+01 0. -1.
<mgrwt>
<rscale>  0 0.14974055E+02</rscale>
<asrwt>0</asrwt>
<pdfrwt beam="2">  1        2 0.99172656E+00 0.14974055E+02</pdfrwt>
<pdfrwt beam="1">  1       -2 0.99653210E+00 0.14974055E+02</pdfrwt>
<totfact>-0.13506089E-13</totfact>
</mgrwt>
</event>
<event>
 4    1 -0.5160210E-019  0.1491396E+02  0.7818608E-02  0.1870705E+00
         -2   -1    0    0    0  501 -0.00000000000E+00  0.00000000000E+00  0.11948797023E+03  0.11948797026E+03  0.25500000000E-02 0.  1.
          2   -1    0    0  501    0  0.00000000000E+00 -0.00000000000E+00 -0.46537016999E+00  0.46537715632E+00  0.25500000000E-02 0. -1.
         31    1    1    2    0    0 -0.29427755519E+00  0.75240513483E-01  0.61403910919E+02  0.61854599365E+02  0.74470750000E+01 0.  1.
        -31    1    1    2    0    0  0.29427755519E+00 -0.75240513483E-01  0.57618689146E+02  0.58098748054E+02  0.74470750000E+01 0. -1.
<mgrwt>
<rscale>  0 0.14913961E+02</rscale>
<asrwt>0</asrwt>
<pdfrwt beam="2">  1        2 0.98841834E+00 0.14913961E+02</pdfrwt>
<pdfrwt beam="1">  1       -2 0.99185820E+00 0.14913961E+02</pdfrwt>
<totfact>-0.13206397E-13</totfact>
</mgrwt>
</event>
<event>
 4    1  0.5160210E-019  0.1493329E+02  0.7818608E-02  0.1870111E+00
         -2   -1    0    0    0  501 -0.00000000000E+00  0.00000000000E+00  0.11845334859E+03  0.11845334862E+03  0.25500000000E-02 0. -1.
          2   -1    0    0  501    0  0.00000000000E+00 -0.00000000000E+00 -0.47065238794E+00  0.47065929585E+00  0.25500000000E-02 0.  1.
         31    1    1    2    0    0 -0.39747834589E+00  0.26859288425E+00  0.60969591465E+02  0.61424589055E+02  0.74470750000E+01 0. -1.
        -31    1    1    2    0    0  0.39747834589E+00 -0.26859288425E+00  0.57013104741E+02  0.57499418861E+02  0.74470750000E+01 0.  1.
<mgrwt>
<rscale>  0 0.14933287E+02</rscale>
<asrwt>0</asrwt>
<pdfrwt beam="2">  1        2 0.99955902E+00 0.14933287E+02</pdfrwt>
<pdfrwt beam="1">  1       -2 0.98334690E+00 0.14933287E+02</pdfrwt>
<totfact> 0.10604858E-13</totfact>
</mgrwt>
</event>
<event>
 4    1 -0.5160210E-019  0.1493498E+02  0.7818608E-02  0.1870059E+00
          2   -1    0    0  501    0  0.00000000000E+00  0.00000000000E+00  0.11879292759E+03  0.11879292761E+03  0.25500000000E-02 0. -1.
         -2   -1    0    0    0  501 -0.00000000000E+00 -0.00000000000E+00 -0.46941347316E+00  0.46942039930E+00  0.25500000000E-02 0.  1.
         31    1    1    2    0    0 -0.53402321187E+00 -0.72865073148E-01  0.60106579871E+02  0.60568559170E+02  0.74470750000E+01 0. -1.
        -31    1    1    2    0    0  0.53402321187E+00  0.72865073148E-01  0.58216934242E+02  0.58693788842E+02  0.74470750000E+01 0. -1.
<mgrwt>
<rscale>  0 0.14934981E+02</rscale>
<asrwt>0</asrwt>
<pdfrwt beam="1">  1        2 0.98614454E+00 0.14934981E+02</pdfrwt>
<pdfrwt beam="2">  1       -2 0.99694952E+00 0.14934981E+02</pdfrwt>
<totfact>-0.23468244E-13</totfact>
</mgrwt>
</event>
<event>
 4    1 -0.5160210E-019  0.1498621E+02  0.7818608E-02  0.1868490E+00
         -2   -1    0    0    0  501 -0.00000000000E+00  0.00000000000E+00  0.12006494512E+03  0.12006494515E+03  0.25500000000E-02 0.  1.
          2   -1    0    0  501    0  0.00000000000E+00 -0.00000000000E+00 -0.46763195673E+00  0.46763890926E+00  0.25500000000E-02 0. -1.
         31    1    1    2    0    0  0.48297213320E+00 -0.28245848463E-01  0.54381539038E+02  0.54891208532E+02  0.74470750000E+01 0. -1.
        -31    1    1    2    0    0 -0.48297213320E+00  0.28245848463E-01  0.65215774125E+02  0.65641375524E+02  0.74470750000E+01 0.  1.
<mgrwt>
<rscale>  0 0.14986210E+02</rscale>
<asrwt>0</asrwt>
<pdfrwt beam="2">  1        2 0.99322205E+00 0.14986210E+02</pdfrwt>
<pdfrwt beam="1">  1       -2 0.99664774E+00 0.14986210E+02</pdfrwt>
<totfact>-0.11889760E-13</totfact>
</mgrwt>
</event>
<event>
 4    1 -0.5160210E-019  0.1491166E+02  0.7818608E-02  0.1870776E+00
          2   -1    0    0  501    0  0.00000000000E+00  0.00000000000E+00  0.11847347441E+03  0.11847347444E+03  0.25500000000E-02 0.  1.
         -2   -1    0    0    0  501 -0.00000000000E+00 -0.00000000000E+00 -0.46921062810E+00  0.46921755724E+00  0.25500000000E-02 0. -1.
         31    1    1    2    0    0 -0.15893494945E+00  0.19278710361E+00  0.61083273943E+02  0.61536068357E+02  0.74470750000E+01 0.  1.
        -31    1    1    2    0    0  0.15893494945E+00 -0.19278710361E+00  0.56920989840E+02  0.57406623639E+02  0.74470750000E+01 0. -1.
<mgrwt>
<rscale>  0 0.14911663E+02</rscale>
<asrwt>0</asrwt>
<pdfrwt beam="1">  1        2 0.98350140E+00 0.14911663E+02</pdfrwt>
<pdfrwt beam="2">  1       -2 0.99650984E+00 0.14911663E+02</pdfrwt>
<totfact>-0.39041348E-13</totfact>
</mgrwt>
</event>
<event>
 4    1  0.5160210E-019  0.1492363E+02  0.7818608E-02  0.1870408E+00
         -2   -1    0    0    0  501 -0.00000000000E+00  0.00000000000E+00  0.11860234096E+03  0.11860234099E+03  0.25500000000E-02 0.  1.
          2   -1    0    0  501    0  0.00000000000E+00 -0.00000000000E+00 -0.46945359574E+00  0.46946052129E+00  0.25500000000E-02 0. -1.
         31    1    1    2    0    0  0.86165326041E-01 -0.42843595637E+00  0.60420515924E+02  0.60879295761E+02  0.74470750000E+01 0. -1.
        -31    1    1    2    0    0 -0.86165326041E-01  0.42843595637E+00  0.57712371443E+02  0.58192505750E+02  0.74470750000E+01 0.  1.
<mgrwt>
<rscale>  0 0.14923634E+02</rscale>
<asrwt>0</asrwt>
<pdfrwt beam="2">  1        2 0.99702809E+00 0.14923634E+02</pdfrwt>
<pdfrwt beam="1">  1       -2 0.98456897E+00 0.14923634E+02</pdfrwt>
<totfact> 0.40023012E-13</totfact>
</mgrwt>
</event>
<event>
 4    1 -0.5160210E-019  0.1497460E+02  0.7818608E-02  0.1868845E+00
         -2   -1    0    0    0  501 -0.00000000000E+00  0.00000000000E+00  0.11968699604E+03  0.11968699606E+03  0.25500000000E-02 0. -1.
          2   -1    0    0  501    0  0.00000000000E+00 -0.00000000000E+00 -0.46838220766E+00  0.46838914905E+00  0.25500000000E-02 0.  1.
         31    1    1    2    0    0 -0.15804691358E+00  0.32509090288E+00  0.54107845906E+02  0.54619122819E+02  0.74470750000E+01 0.  1.
        -31    1    1    2    0    0  0.15804691358E+00 -0.32509090288E+00  0.65110767922E+02  0.65536262392E+02  0.74470750000E+01 0. -1.
<mgrwt>
<rscale>  0 0.14974602E+02</rscale>
<asrwt>0</asrwt>
<pdfrwt beam="2">  1        2 0.99479711E+00 0.14974602E+02</pdfrwt>
<pdfrwt beam="1">  1       -2 0.99352879E+00 0.14974602E+02</pdfrwt>
<totfact>-0.11416122E-13</totfact>
</mgrwt>
</event>
<event>
 4    1  0.5160210E-019  0.1490626E+02  0.7818608E-02  0.1870943E+00
          2   -1    0    0  501    0  0.00000000000E+00  0.00000000000E+00  0.11986108574E+03  0.11986108577E+03  0.25500000000E-02 0.  1.
         -2   -1    0    0    0  501 -0.00000000000E+00 -0.00000000000E+00 -0.46344259252E+00  0.46344960790E+00  0.25500000000E-02 0. -1.
         31    1    1    2    0    0 -0.21661343750E+00 -0.20659981090E+00  0.59497004593E+02  0.59962005357E+02  0.74470750000E+01 0.  1.
        -31    1    1    2    0    0  0.21661343750E+00  0.20659981090E+00  0.59900638556E+02  0.60362530019E+02  0.74470750000E+01 0.  1.
<mgrwt>
<rscale>  0 0.14906261E+02</rscale>
<asrwt>0</asrwt>
<pdfrwt beam="1">  1        2 0.99492745E+00 0.14906261E+02</pdfrwt>
<pdfrwt beam="2">  1       -2 0.98435200E+00 0.14906261E+02</pdfrwt>
<totfact> 0.58177027E-13</totfact>
</mgrwt>
</event>
<event>
 4    1  0.5160210E-019  0.1489853E+02  0.7818608E-02  0.1871181E+00
         -2   -1    0    0    0  501 -0.00000000000E+00  0.00000000000E+00  0.11815633370E+03  0.11815633373E+03  0.25500000000E-02 0. -1.
          2   -1    0    0  501    0  0.00000000000E+00 -0.00000000000E+00 -0.46964181179E+00  0.46964873457E+00  0.25500000000E-02 0.  1.
         31    1    1    2    0    0  0.83210397998E-01 -0.61010089460E-01  0.57662496372E+02  0.58141491726E+02  0.74470750000E+01 0.  1.
        -31    1    1    2    0    0 -0.83210397998E-01  0.61010089460E-01  0.60024195520E+02  0.60484490740E+02  0.74470750000E+01 0. -1.
<mgrwt>
<rscale>  0 0.14898532E+02</rscale>
<asrwt>0</asrwt>
<pdfrwt beam="2">  1        2 0.99741139E+00 0.14898532E+02</pdfrwt>
<pdfrwt beam="1">  1       -2 0.98088262E+00 0.14898532E+02</pdfrwt>
<totfact> 0.80798421E-13</totfact>
</mgrwt>
</event>
<event>
 4    1  0.5160210E-019  0.1490591E+02  0.7818608E-02  0.1870953E+00
         -2   -1    0    0    0  501 -0.00000000000E+00  0.00000000000E+00  0.11834805092E+03  0.11834805094E+03  0.25500000000E-02 0. -1.
          2   -1    0    0  501    0  0.00000000000E+00 -0.00000000000E+00 -0.46934564841E+00  0.46935257555E+00  0.25500000000E-02 0.  1.
         31    1    1    2    0    0  0.20866893153E+00  0.20434057540E+00  0.58554418243E+02  0.59026808482E+02  0.74470750000E+01 0.  1.
        -31    1    1    2    0    0 -0.20866893153E+00 -0.20434057540E+00  0.59324287025E+02  0.59790595037E+02  0.74470750000E+01 0.  1.
<mgrwt>
<rscale>  0 0.14905912E+02</rscale>
<asrwt>0</asrwt>
<pdfrwt beam="2">  1        2 0.99679129E+00 0.14905912E+02</pdfrwt>
<pdfrwt beam="1">  1       -2 0.98246542E+00 0.14905912E+02</pdfrwt>
<totfact> 0.68918437E-13</totfact>
</mgrwt>
</event>
<event>
 4    1 -0.5160210E-019  0.1490415E+02  0.7818608E-02  0.1871008E+00
         -2   -1    0    0    0  501 -0.00000000000E+00  0.00000000000E+00  0.11960581095E+03  0.11960581098E+03  0.25500000000E-02 0.  1.
          2   -1    0    0  501    0  0.00000000000E+00 -0.00000000000E+00 -0.46430013463E+00  0.46430713705E+00  0.25500000000E-02 0. -1.
         31    1    1    2    0    0 -0.23394030040E+00 -0.52937358974E-01  0.58521608267E+02  0.58994025889E+02  0.74470750000E+01 0.  1.
        -31    1    1    2    0    0  0.23394030040E+00  0.52937358974E-01  0.60619902552E+02  0.61076092229E+02  0.74470750000E+01 0. -1.
<mgrwt>
<rscale>  0 0.14904149E+02</rscale>
<asrwt>0</asrwt>
<pdfrwt beam="2">  1        2 0.98615824E+00 0.14904149E+02</pdfrwt>
<pdfrwt beam="1">  1       -2 0.99282375E+00 0.14904149E+02</pdfrwt>
<totfact>-0.24263362E-13</totfact>
</mgrwt>
</event>
<event>
 4    1  0.5160210E-019  0.1490192E+02  0.7818608E-02  0.1871076E+00
          2   -1    0    0  501    0  0.00000000000E+00  0.00000000000E+00  0.11988589087E+03  0.11988589090E+03  0.25500000000E-02 0. -1.
         -2   -1    0    0    0  501 -0.00000000000E+00 -0.00000000000E+00 -0.46307657835E+00  0.46308359927E+00  0.25500000000E-02 0.  1.
         31    1    1    2    0    0  0.14661339481E+00 -0.58663511842E-01  0.58246332980E+02  0.58720687739E+02  0.74470750000E+01 0.  1.
        -31    1    1    2    0    0 -0.14661339481E+00  0.58663511842E-01  0.61176481313E+02  0.61628286759E+02  0.74470750000E+01 0. -1.
<mgrwt>
<rscale>  0 0.14901916E+02</rscale>
<asrwt>0</asrwt>
<pdfrwt beam="1">  1        2 0.99512953E+00 0.14901916E+02</pdfrwt>
<pdfrwt beam="2">  1       -2 0.98357837E+00 0.14901916E+02</pdfrwt>
<totfact> 0.68894374E-13</totfact>
</mgrwt>
</event>
<event>
 4    1 -0.5160210E-019  0.1491589E+02  0.7818608E-02  0.1870646E+00
         -2   -1    0    0    0  501 -0.00000000000E+00  0.00000000000E+00  0.12001476615E+03  0.12001476618E+03  0.25500000000E-02 0.  1.
          2   -1    0    0  501    0  0.00000000000E+00 -0.00000000000E+00 -0.46344753595E+00  0.46345455125E+00  0.25500000000E-02 0. -1.
         31    1    1    2    0    0  0.34137576465E+00  0.14436673806E+00  0.58507089474E+02  0.58980300304E+02  0.74470750000E+01 0. -1.
        -31    1    1    2    0    0 -0.34137576465E+00 -0.14436673806E+00  0.61044229140E+02  0.61497920424E+02  0.74470750000E+01 0.  1.
<mgrwt>
<rscale>  0 0.14915894E+02</rscale>
<asrwt>0</asrwt>
<pdfrwt beam="2">  1        2 0.98436732E+00 0.14915894E+02</pdfrwt>
<pdfrwt beam="1">  1       -2 0.99619822E+00 0.14915894E+02</pdfrwt>
<totfact>-0.35308723E-13</totfact>
</mgrwt>
</event>
<event>
 4    1 -0.5160210E-019  0.1498080E+02  0.7818608E-02  0.1868655E+00
          2   -1    0    0  501    0  0.00000000000E+00  0.00000000000E+00  0.11952777105E+03  0.11952777108E+03  0.25500000000E-02 0. -1.
         -2   -1    0    0    0  501 -0.00000000000E+00 -0.00000000000E+00 -0.46939417971E+00  0.46940110614E+00  0.25500000000E-02 0.  1.
         31    1    1    2    0    0  0.74408561480E+00  0.21009148172E+00  0.57750135370E+02  0.58233451411E+02  0.74470750000E+01 0.  1.
        -31    1    1    2    0    0 -0.74408561480E+00 -0.21009148172E+00  0.61308241501E+02  0.61763720773E+02  0.74470750000E+01 0. -1.
<mgrwt>
<rscale>  0 0.14980795E+02</rscale>
<asrwt>0</asrwt>
<pdfrwt beam="1">  1        2 0.99222058E+00 0.14980795E+02</pdfrwt>
<pdfrwt beam="2">  1       -2 0.99693283E+00 0.14980795E+02</pdfrwt>
<totfact>-0.12104101E-13</totfact>
</mgrwt>
</event>
<event>
 4    1 -0.5160210E-019  0.1491899E+02  0.7818608E-02  0.1870551E+00
         -2   -1    0    0    0  501 -0.00000000000E+00  0.00000000000E+00  0.11979235447E+03  0.11979235449E+03  0.25500000000E-02 0.  1.
          2   -1    0    0  501    0  0.00000000000E+00 -0.00000000000E+00 -0.46450105288E+00  0.46450805228E+00  0.25500000000E-02 0. -1.
         31    1    1    2    0    0  0.17544217975E+00 -0.22634794124E+00  0.57074989600E+02  0.57559494241E+02  0.74470750000E+01 0. -1.
        -31    1    1    2    0    0 -0.17544217975E+00  0.22634794124E+00  0.62252863815E+02  0.62697368306E+02  0.74470750000E+01 0.  1.
<mgrwt>
<rscale>  0 0.14918994E+02</rscale>
<asrwt>0</asrwt>
<pdfrwt beam="2">  1        2 0.98658927E+00 0.14918994E+02</pdfrwt>
<pdfrwt beam="1">  1       -2 0.99436788E+00 0.14918994E+02</pdfrwt>
<totfact>-0.27025309E-13</totfact>
</mgrwt>
</event>
<event>
 4    1 -0.5160210E-019  0.1495091E+02  0.7818608E-02  0.1869570E+00
         -2   -1    0    0    0  501 -0.00000000000E+00  0.00000000000E+00  0.12025402641E+03  0.12025402644E+03  0.25500000000E-02 0. -1.
          2   -1    0    0  501    0  0.00000000000E+00 -0.00000000000E+00 -0.46469952559E+00  0.46470652199E+00  0.25500000000E-02 0.  1.
         31    1    1    2    0    0 -0.16163160829E+00  0.59670633851E+00  0.58253690539E+02  0.58731027326E+02  0.74470750000E+01 0.  1.
        -31    1    1    2    0    0  0.16163160829E+00 -0.59670633851E+00  0.61535636350E+02  0.61987705638E+02  0.74470750000E+01 0. -1.
<mgrwt>
<rscale>  0 0.14950908E+02</rscale>
<asrwt>0</asrwt>
<pdfrwt beam="2">  1        2 0.98702383E+00 0.14950908E+02</pdfrwt>
<pdfrwt beam="1">  1       -2 0.99818695E+00 0.14950908E+02</pdfrwt>
<totfact>-0.13968299E-13</totfact>
</mgrwt>
</event>
<event>
 4    1 -0.5160210E-019  0.1492107E+02  0.7818608E-02  0.1870487E+00
         -2   -1    0    0    0  501 -0.00000000000E+00  0.00000000000E+00  0.12031276261E+03  0.12031276263E+03  0.25500000000E-02 0. -1.
          2   -1    0    0  501    0  0.00000000000E+00 -0.00000000000E+00 -0.46262038399E+00  0.46262741184E+00  0.25500000000E-02 0.  1.
         31    1    1    2    0    0  0.30405566148E+00  0.32889119339E+00  0.59891554793E+02  0.60354435469E+02  0.74470750000E+01 0. -1.
        -31    1    1    2    0    0 -0.30405566148E+00 -0.32889119339E+00  0.59958587431E+02  0.60420954577E+02  0.74470750000E+01 0.  1.
<mgrwt>
<rscale>  0 0.14921067E+02</rscale>
<asrwt>0</asrwt>
<pdfrwt beam="2">  1        2 0.98262656E+00 0.14921067E+02</pdfrwt>
<pdfrwt beam="1">  1       -2 0.99865543E+00 0.14921067E+02</pdfrwt>
<totfact>-0.21893468E-13</totfact>
</mgrwt>
</event>
<event>
 4    1 -0.5160210E-019  0.1496043E+02  0.7818608E-02  0.1869278E+00
         -2   -1    0    0    0  501 -0.00000000000E+00  0.00000000000E+00  0.12044089489E+03  0.12044089492E+03  0.25500000000E-02 0. -1.
          2   -1    0    0  501    0  0.00000000000E+00 -0.00000000000E+00 -0.46456962296E+00  0.46457662132E+00  0.25500000000E-02 0.  1.
         31    1    1    2    0    0 -0.17659089648E+00 -0.54158952214E+00  0.56654271957E+02  0.57144465704E+02  0.74470750000E+01 0.  1.
        -31    1    1    2    0    0  0.17659089648E+00  0.54158952214E+00  0.63322053310E+02  0.63761005834E+02  0.74470750000E+01 0. -1.
<mgrwt>
<rscale>  0 0.14960429E+02</rscale>
<asrwt>0</asrwt>
<pdfrwt beam="2">  1        2 0.98675488E+00 0.14960429E+02</pdfrwt>
<pdfrwt beam="1">  1       -2 0.99973103E+00 0.14960429E+02</pdfrwt>
<totfact>-0.24498413E-14</totfact>
</mgrwt>
</event>
<event>
 4    1  0.5160210E-019  0.1490897E+02  0.7818608E-02  0.1870859E+00
          2   -1    0    0  501    0  0.00000000000E+00  0.00000000000E+00  0.12008835806E+03  0.12008835808E+03  0.25500000000E-02 0. -1.
         -2   -1    0    0    0  501 -0.00000000000E+00 -0.00000000000E+00 -0.46273360669E+00  0.46274063282E+00  0.25500000000E-02 0.  1.
         31    1    1    2    0    0  0.16169729749E+00  0.18185410650E+00  0.61642443525E+02  0.62091134526E+02  0.74470750000E+01 0. -1.
        -31    1    1    2    0    0 -0.16169729749E+00 -0.18185410650E+00  0.57983180925E+02  0.58459964190E+02  0.74470750000E+01 0.  1.
<mgrwt>
<rscale>  0 0.14908970E+02</rscale>
<asrwt>0</asrwt>
<pdfrwt beam="1">  1        2 0.99680083E+00 0.14908970E+02</pdfrwt>
<pdfrwt beam="2">  1       -2 0.98285908E+00 0.14908970E+02</pdfrwt>
<totfact> 0.63271290E-13</totfact>
</mgrwt>
</event>
<event>
 4    1 -0.5160210E-019  0.1501354E+02  0.7818608E-02  0.1867656E+00
          2   -1    0    0  501    0  0.00000000000E+00  0.00000000000E+00  0.12009818304E+03  0.12009818307E+03  0.25500000000E-02 0. -1.
         -2   -1    0    0    0  501 -0.00000000000E+00 -0.00000000000E+00 -0.46920924821E+00  0.46921617737E+00  0.25500000000E-02 0.  1.
         31    1    1    2    0    0  0.27899459565E+00 -0.64963653550E+00  0.54781384596E+02  0.55289772019E+02  0.74470750000E+01 0.  1.
        -31    1    1    2    0    0 -0.27899459565E+00  0.64963653550E+00  0.64847589198E+02  0.65277627228E+02  0.74470750000E+01 0. -1.
<mgrwt>
<rscale>  0 0.15013540E+02</rscale>
<asrwt>0</asrwt>
<pdfrwt beam="1">  1        2 0.99693561E+00 0.15013540E+02</pdfrwt>
<pdfrwt beam="2">  1       -2 0.99656010E+00 0.15013540E+02</pdfrwt>
<totfact>-0.77755504E-14</totfact>
</mgrwt>
</event>
<event>
 4    1  0.5160210E-019  0.1489556E+02  0.7818608E-02  0.1871272E+00
         -2   -1    0    0    0  501 -0.00000000000E+00  0.00000000000E+00  0.11784286459E+03  0.11784286462E+03  0.25500000000E-02 0. -1.
          2   -1    0    0  501    0  0.00000000000E+00 -0.00000000000E+00 -0.47070340519E+00  0.47071031235E+00  0.25500000000E-02 0.  1.
         31    1    1    2    0    0  0.38638353144E-01  0.63786993660E-01  0.59245482190E+02  0.59711737939E+02  0.74470750000E+01 0.  1.
        -31    1    1    2    0    0 -0.38638353144E-01 -0.63786993660E-01  0.58126678995E+02  0.58601836991E+02  0.74470750000E+01 0.  1.
<mgrwt>
<rscale>  0 0.14895563E+02</rscale>
<asrwt>0</asrwt>
<pdfrwt beam="2">  1        2 0.99964644E+00 0.14895563E+02</pdfrwt>
<pdfrwt beam="1">  1       -2 0.97829942E+00 0.14895563E+02</pdfrwt>
<totfact> 0.21589978E-13</totfact>
</mgrwt>
</event>
<event>
 4    1 -0.5160210E-019  0.1496132E+02  0.7818608E-02  0.1869251E+00
         -2   -1    0    0    0  501 -0.00000000000E+00  0.00000000000E+00  0.11936717404E+03  0.11936717407E+03  0.25500000000E-02 0. -1.
          2   -1    0    0  501    0  0.00000000000E+00 -0.00000000000E+00 -0.46880428334E+00  0.46881121849E+00  0.25500000000E-02 0.  1.
         31    1    1    2    0    0  0.45755689298E+00  0.19731561609E+00  0.55420033729E+02  0.55920366204E+02  0.74470750000E+01 0.  1.
        -31    1    1    2    0    0 -0.45755689298E+00 -0.19731561609E+00  0.63478336031E+02  0.63915619086E+02  0.74470750000E+01 0. -1.
<mgrwt>
<rscale>  0 0.14961318E+02</rscale>
<asrwt>0</asrwt>
<pdfrwt beam="2">  1        2 0.99567964E+00 0.14961318E+02</pdfrwt>
<pdfrwt beam="1">  1       -2 0.99088777E+00 0.14961318E+02</pdfrwt>
<totfact>-0.34021094E-14</totfact>
</mgrwt>
</event>
<event>
 4    1 -0.5160210E-019  0.1499796E+02  0.7818608E-02  0.1868131E+00
         -2   -1    0    0    0  501 -0.00000000000E+00  0.00000000000E+00  0.11997061128E+03  0.11997061131E+03  0.25500000000E-02 0. -1.
          2   -1    0    0  501    0  0.00000000000E+00 -0.00000000000E+00 -0.46873387195E+00  0.46874080813E+00  0.25500000000E-02 0.  1.
         31    1    1    2    0    0  0.64000654835E+00  0.52191666563E+00  0.57291792060E+02  0.57779670896E+02  0.74470750000E+01 0. -1.
        -31    1    1    2    0    0 -0.64000654835E+00 -0.52191666563E+00  0.62210085351E+02  0.62659681222E+02  0.74470750000E+01 0.  1.
<mgrwt>
<rscale>  0 0.14997961E+02</rscale>
<asrwt>0</asrwt>
<pdfrwt beam="2">  1        2 0.99555027E+00 0.14997961E+02</pdfrwt>
<pdfrwt beam="1">  1       -2 0.99587683E+00 0.14997961E+02</pdfrwt>
<totfact>-0.10653959E-13</totfact>
</mgrwt>
</event>
<event>
 4    1 -0.5160210E-019  0.1495839E+02  0.7818608E-02  0.1869341E+00
          2   -1    0    0  501    0  0.00000000000E+00  0.00000000000E+00  0.11961215742E+03  0.11961215744E+03  0.25500000000E-02 0.  1.
         -2   -1    0    0    0  501 -0.00000000000E+00 -0.00000000000E+00 -0.46766129274E+00  0.46766824484E+00  0.25500000000E-02 0. -1.
         31    1    1    2    0    0 -0.13941348077E+00 -0.12319666470E+00  0.64926448018E+02  0.65352407697E+02  0.74470750000E+01 0.  1.
        -31    1    1    2    0    0  0.13941348077E+00  0.12319666470E+00  0.54218048104E+02  0.54727417990E+02  0.74470750000E+01 0. -1.
<mgrwt>
<rscale>  0 0.14958395E+02</rscale>
<asrwt>0</asrwt>
<pdfrwt beam="1">  1        2 0.99290401E+00 0.14958395E+02</pdfrwt>
<pdfrwt beam="2">  1       -2 0.99326953E+00 0.14958395E+02</pdfrwt>
<totfact>-0.12859793E-13</totfact>
</mgrwt>
</event>
<event>
 4    1  0.5160210E-019  0.1489907E+02  0.7818608E-02  0.1871164E+00
         -2   -1    0    0    0  501 -0.00000000000E+00  0.00000000000E+00  0.11833605608E+03  0.11833605611E+03  0.25500000000E-02 0.  1.
          2   -1    0    0  501    0  0.00000000000E+00 -0.00000000000E+00 -0.46896264744E+00  0.46896958024E+00  0.25500000000E-02 0. -1.
         31    1    1    2    0    0 -0.15409801604E+00 -0.89164898755E-01  0.58370774664E+02  0.58844183719E+02  0.74470750000E+01 0. -1.
        -31    1    1    2    0    0  0.15409801604E+00  0.89164898755E-01  0.59496318767E+02  0.59960841967E+02  0.74470750000E+01 0. -1.
<mgrwt>
<rscale>  0 0.14899074E+02</rscale>
<asrwt>0</asrwt>
<pdfrwt beam="2">  1        2 0.99598070E+00 0.14899074E+02</pdfrwt>
<pdfrwt beam="1">  1       -2 0.98236308E+00 0.14899074E+02</pdfrwt>
<totfact> 0.80909738E-13</totfact>
</mgrwt>
</event>
<event>
 4    1  0.5160210E-019  0.1493479E+02  0.7818608E-02  0.1870065E+00
          2   -1    0    0  501    0  0.00000000000E+00  0.00000000000E+00  0.12032809992E+03  0.12032809995E+03  0.25500000000E-02 0.  1.
         -2   -1    0    0    0  501 -0.00000000000E+00 -0.00000000000E+00 -0.46341276060E+00  0.46341977643E+00  0.25500000000E-02 0. -1.
         31    1    1    2    0    0 -0.50498586529E+00 -0.65948731812E-01  0.58241283658E+02  0.58717675432E+02  0.74470750000E+01 0. -1.
        -31    1    1    2    0    0  0.50498586529E+00  0.65948731812E-01  0.61623403503E+02  0.62073844293E+02  0.74470750000E+01 0. -1.
<mgrwt>
<rscale>  0 0.14934792E+02</rscale>
<asrwt>0</asrwt>
<pdfrwt beam="1">  1        2 0.99878880E+00 0.14934792E+02</pdfrwt>
<pdfrwt beam="2">  1       -2 0.98430360E+00 0.14934792E+02</pdfrwt>
<totfact> 0.21225563E-13</totfact>
</mgrwt>
</event>
<event>
 4    1  0.5160210E-019  0.1492317E+02  0.7818608E-02  0.1870422E+00
          2   -1    0    0  501    0  0.00000000000E+00  0.00000000000E+00  0.11995292142E+03  0.11995292145E+03  0.25500000000E-02 0. -1.
         -2   -1    0    0    0  501 -0.00000000000E+00 -0.00000000000E+00 -0.46413924502E+00  0.46414624987E+00  0.25500000000E-02 0.  1.
         31    1    1    2    0    0 -0.12958377525E+00 -0.43200046394E+00  0.60662265376E+02  0.61119332318E+02  0.74470750000E+01 0. -1.
        -31    1    1    2    0    0  0.12958377525E+00  0.43200046394E+00  0.58826516799E+02  0.59297735379E+02  0.74470750000E+01 0.  1.
<mgrwt>
<rscale>  0 0.14923174E+02</rscale>
<asrwt>0</asrwt>
<pdfrwt beam="1">  1        2 0.99569257E+00 0.14923174E+02</pdfrwt>
<pdfrwt beam="2">  1       -2 0.98582887E+00 0.14923174E+02</pdfrwt>
<totfact> 0.34829106E-13</totfact>
</mgrwt>
</event>
<event>
 4    1  0.5160210E-019  0.1490739E+02  0.7818608E-02  0.1870908E+00
          2   -1    0    0  501    0  0.00000000000E+00  0.00000000000E+00  0.11993104572E+03  0.11993104575E+03  0.25500000000E-02 0. -1.
         -2   -1    0    0    0  501 -0.00000000000E+00 -0.00000000000E+00 -0.46324248758E+00  0.46324950599E+00  0.25500000000E-02 0.  1.
         31    1    1    2    0    0 -0.13394055839E+00 -0.23209294412E+00  0.58410625050E+02  0.58884054310E+02  0.74470750000E+01 0.  1.
        -31    1    1    2    0    0  0.13394055839E+00  0.23209294412E+00  0.61057178180E+02  0.61510240941E+02  0.74470750000E+01 0. -1.
<mgrwt>
<rscale>  0 0.14907391E+02</rscale>
<asrwt>0</asrwt>
<pdfrwt beam="1">  1        2 0.99550427E+00 0.14907391E+02</pdfrwt>
<pdfrwt beam="2">  1       -2 0.98393083E+00 0.14907391E+02</pdfrwt>
<totfact> 0.60668523E-13</totfact>
</mgrwt>
</event>
<event>
 4    1 -0.5160210E-019  0.1498038E+02  0.7818608E-02  0.1868668E+00
         -2   -1    0    0    0  501 -0.00000000000E+00  0.00000000000E+00  0.11963423375E+03  0.11963423378E+03  0.25500000000E-02 0.  1.
          2   -1    0    0  501    0  0.00000000000E+00 -0.00000000000E+00 -0.46895051430E+00  0.46895744729E+00  0.25500000000E-02 0. -1.
         31    1    1    2    0    0  0.27784343390E+00 -0.75216807856E+00  0.59845333347E+02  0.60312235933E+02  0.74470750000E+01 0.  1.
        -31    1    1    2    0    0 -0.27784343390E+00  0.75216807856E+00  0.59319949891E+02  0.59790955294E+02  0.74470750000E+01 0. -1.
<mgrwt>
<rscale>  0 0.14980381E+02</rscale>
<asrwt>0</asrwt>
<pdfrwt beam="2">  1        2 0.99599770E+00 0.14980381E+02</pdfrwt>
<pdfrwt beam="1">  1       -2 0.99309722E+00 0.14980381E+02</pdfrwt>
<totfact>-0.93165882E-14</totfact>
</mgrwt>
</event>
<event>
 4    1  0.5160210E-019  0.1493481E+02  0.7818608E-02  0.1870064E+00
         -2   -1    0    0    0  501 -0.00000000000E+00  0.00000000000E+00  0.11905159740E+03  0.11905159743E+03  0.25500000000E-02 0. -1.
          2   -1    0    0  501    0  0.00000000000E+00 -0.00000000000E+00 -0.46838310932E+00  0.46839005070E+00  0.25500000000E-02 0.  1.
         31    1    1    2    0    0 -0.43068782620E+00 -0.10812016259E+00  0.56685283523E+02  0.57174097948E+02  0.74470750000E+01 0.  1.
        -31    1    1    2    0    0  0.43068782620E+00  0.10812016259E+00  0.61897930768E+02  0.62345889531E+02  0.74470750000E+01 0. -1.
<mgrwt>
<rscale>  0 0.14934815E+02</rscale>
<asrwt>0</asrwt>
<pdfrwt beam="2">  1        2 0.99477833E+00 0.14934815E+02</pdfrwt>
<pdfrwt beam="1">  1       -2 0.98827488E+00 0.14934815E+02</pdfrwt>
<totfact> 0.13097768E-13</totfact>
</mgrwt>
</event>
<event>
 4    1  0.5160210E-019  0.1492978E+02  0.7818608E-02  0.1870219E+00
          2   -1    0    0  501    0  0.00000000000E+00  0.00000000000E+00  0.11984305389E+03  0.11984305392E+03  0.25500000000E-02 0.  1.
         -2   -1    0    0    0  501 -0.00000000000E+00 -0.00000000000E+00 -0.46497641923E+00  0.46498341147E+00  0.25500000000E-02 0. -1.
         31    1    1    2    0    0  0.87093828224E-01 -0.41449090973E+00  0.57321745517E+02  0.57805024204E+02  0.74470750000E+01 0. -1.
        -31    1    1    2    0    0 -0.87093828224E-01  0.41449090973E+00  0.62056331956E+02  0.62503013127E+02  0.74470750000E+01 0.  1.
<mgrwt>
<rscale>  0 0.14929785E+02</rscale>
<asrwt>0</asrwt>
<pdfrwt beam="1">  1        2 0.99479103E+00 0.14929785E+02</pdfrwt>
<pdfrwt beam="2">  1       -2 0.98759664E+00 0.14929785E+02</pdfrwt>
<totfact> 0.19143838E-13</totfact>
</mgrwt>
</event>
<event>
 4    1 -0.5160210E-019  0.1500018E+02  0.7818608E-02  0.1868063E+00
          2   -1    0    0  501    0  0.00000000000E+00  0.00000000000E+00  0.11999481260E+03  0.11999481263E+03  0.25500000000E-02 0. -1.
         -2   -1    0    0    0  501 -0.00000000000E+00 -0.00000000000E+00 -0.46877794003E+00  0.46878487556E+00  0.25500000000E-02 0.  1.
         31    1    1    2    0    0 -0.26589780232E+00  0.84342548262E+00  0.58946153343E+02  0.59421292380E+02  0.74470750000E+01 0.  1.
        -31    1    1    2    0    0  0.26589780232E+00 -0.84342548262E+00  0.60579881320E+02  0.61042305125E+02  0.74470750000E+01 0.  1.
<mgrwt>
<rscale>  0 0.15000179E+02</rscale>
<asrwt>0</asrwt>
<pdfrwt beam="1">  1        2 0.99607731E+00 0.15000179E+02</pdfrwt>
<pdfrwt beam="2">  1       -2 0.99564428E+00 0.15000179E+02</pdfrwt>
<totfact>-0.10114866E-13</totfact>
</mgrwt>
</event>
<event>
 4    1 -0.5160210E-019  0.1492501E+02  0.7818608E-02  0.1870365E+00
         -2   -1    0    0    0  501 -0.00000000000E+00  0.00000000000E+00  0.11972747626E+03  0.11972747629E+03  0.25500000000E-02 0.  1.
          2   -1    0    0  501    0  0.00000000000E+00 -0.00000000000E+00 -0.46512765193E+00  0.46513464189E+00  0.25500000000E-02 0. -1.
         31    1    1    2    0    0 -0.20478762231E+00  0.19605037583E+00  0.62746817249E+02  0.63187834071E+02  0.74470750000E+01 0.  1.
        -31    1    1    2    0    0  0.20478762231E+00 -0.19605037583E+00  0.56515531362E+02  0.57004776860E+02  0.74470750000E+01 0. -1.
<mgrwt>
<rscale>  0 0.14925010E+02</rscale>
<asrwt>0</asrwt>
<pdfrwt beam="2">  1        2 0.98791292E+00 0.14925010E+02</pdfrwt>
<pdfrwt beam="1">  1       -2 0.99383660E+00 0.14925010E+02</pdfrwt>
<totfact>-0.21824245E-13</totfact>
</mgrwt>
</event>
<event>
 4    1 -0.5160210E-019  0.1497925E+02  0.7818608E-02  0.1868702E+00
          2   -1    0    0  501    0  0.00000000000E+00  0.00000000000E+00  0.11941208427E+03  0.11941208430E+03  0.25500000000E-02 0.  1.
         -2   -1    0    0    0  501 -0.00000000000E+00 -0.00000000000E+00 -0.46975210228E+00  0.46975902343E+00  0.25500000000E-02 0. -1.
         31    1    1    2    0    0  0.56857957331E+00  0.39278629817E+00  0.62652415264E+02  0.63097239466E+02  0.74470750000E+01 0.  1.
        -31    1    1    2    0    0 -0.56857957331E+00 -0.39278629817E+00  0.56289916906E+02  0.56784603857E+02  0.74470750000E+01 0.  1.
<mgrwt>
<rscale>  0 0.14979252E+02</rscale>
<asrwt>0</asrwt>
<pdfrwt beam="1">  1        2 0.99126696E+00 0.14979252E+02</pdfrwt>
<pdfrwt beam="2">  1       -2 0.99768624E+00 0.14979252E+02</pdfrwt>
<totfact>-0.10662384E-13</totfact>
</mgrwt>
</event>
<event>
 4    1 -0.5160210E-019  0.1503653E+02  0.7818608E-02  0.1866956E+00
          2   -1    0    0  501    0  0.00000000000E+00  0.00000000000E+00  0.12021404808E+03  0.12021404811E+03  0.25500000000E-02 0.  1.
         -2   -1    0    0    0  501 -0.00000000000E+00 -0.00000000000E+00 -0.47019348096E+00  0.47020039562E+00  0.25500000000E-02 0. -1.
         31    1    1    2    0    0 -0.80202879747E+00 -0.43694242807E+00  0.63731005053E+02  0.64171131360E+02  0.74470750000E+01 0. -1.
        -31    1    1    2    0    0  0.80202879747E+00  0.43694242807E+00  0.56012849545E+02  0.56513117141E+02  0.74470750000E+01 0. -1.
<mgrwt>
<rscale>  0 0.15036526E+02</rscale>
<asrwt>0</asrwt>
<pdfrwt beam="1">  1        2 0.99790181E+00 0.15036526E+02</pdfrwt>
<pdfrwt beam="2">  1       -2 0.99864610E+00 0.15036526E+02</pdfrwt>
<totfact>-0.29048878E-14</totfact>
</mgrwt>
</event>
<event>
 4    1  0.5160210E-019  0.1493640E+02  0.7818608E-02  0.1870015E+00
         -2   -1    0    0    0  501 -0.00000000000E+00  0.00000000000E+00  0.11878720071E+03  0.11878720074E+03  0.25500000000E-02 0.  1.
          2   -1    0    0  501    0  0.00000000000E+00 -0.00000000000E+00 -0.46952540858E+00  0.46953233308E+00  0.25500000000E-02 0. -1.
         31    1    1    2    0    0  0.27741397839E-01 -0.26838172126E-01  0.54687575030E+02  0.55192311771E+02  0.74470750000E+01 0. -1.
        -31    1    1    2    0    0 -0.27741397839E-01  0.26838172126E-01  0.63630100275E+02  0.64064421303E+02  0.74470750000E+01 0.  1.
<mgrwt>
<rscale>  0 0.14936402E+02</rscale>
<asrwt>0</asrwt>
<pdfrwt beam="2">  1        2 0.99718612E+00 0.14936402E+02</pdfrwt>
<pdfrwt beam="1">  1       -2 0.98609811E+00 0.14936402E+02</pdfrwt>
<totfact> 0.24379698E-13</totfact>
</mgrwt>
</event>
<event>
 4    1 -0.5160210E-019  0.1489806E+02  0.7818608E-02  0.1871195E+00
         -2   -1    0    0    0  501 -0.00000000000E+00  0.00000000000E+00  0.11981701704E+03  0.11981701707E+03  0.25500000000E-02 0.  1.
          2   -1    0    0  501    0  0.00000000000E+00 -0.00000000000E+00 -0.46310298533E+00  0.46311000585E+00  0.25500000000E-02 0. -1.
         31    1    1    2    0    0 -0.11944267202E-01 -0.16915253395E+00  0.59830318031E+02  0.60292243589E+02  0.74470750000E+01 0.  1.
        -31    1    1    2    0    0  0.11944267202E-01  0.16915253395E+00  0.59523596022E+02  0.59987883483E+02  0.74470750000E+01 0.  1.
<mgrwt>
<rscale>  0 0.14898059E+02</rscale>
<asrwt>0</asrwt>
<pdfrwt beam="2">  1        2 0.98363207E+00 0.14898059E+02</pdfrwt>
<pdfrwt beam="1">  1       -2 0.99456025E+00 0.14898059E+02</pdfrwt>
<totfact>-0.43586290E-13</totfact>
</mgrwt>
</event>
<event>
 4    1 -0.5160210E-019  0.1495119E+02  0.7818608E-02  0.1869562E+00
          2   -1    0    0  501    0  0.00000000000E+00  0.00000000000E+00  0.11926290631E+03  0.11926290634E+03  0.25500000000E-02 0.  1.
         -2   -1    0    0    0  501 -0.00000000000E+00 -0.00000000000E+00 -0.46857877848E+00  0.46858571696E+00  0.25500000000E-02 0. -1.
         31    1    1    2    0    0 -0.54550356894E+00  0.27411533181E+00  0.61238075154E+02  0.61692248200E+02  0.74470750000E+01 0.  1.
        -31    1    1    2    0    0  0.54550356894E+00 -0.27411533181E+00  0.57556252378E+02  0.58039243854E+02  0.74470750000E+01 0. -1.
<mgrwt>
<rscale>  0 0.14951185E+02</rscale>
<asrwt>0</asrwt>
<pdfrwt beam="1">  1        2 0.99002375E+00 0.14951185E+02</pdfrwt>
<pdfrwt beam="2">  1       -2 0.99519918E+00 0.14951185E+02</pdfrwt>
<totfact>-0.17710558E-13</totfact>
</mgrwt>
</event>
<event>
 4    1 -0.5160210E-019  0.1494195E+02  0.7818608E-02  0.1869845E+00
         -2   -1    0    0    0  501 -0.00000000000E+00  0.00000000000E+00  0.12031901885E+03  0.12031901888E+03  0.25500000000E-02 0.  1.
          2   -1    0    0  501    0  0.00000000000E+00 -0.00000000000E+00 -0.46389214963E+00  0.46389915821E+00  0.25500000000E-02 0. -1.
         31    1    1    2    0    0 -0.25786820072E+00 -0.20504643739E+00  0.55901966723E+02  0.56396784922E+02  0.74470750000E+01 0. -1.
        -31    1    1    2    0    0  0.25786820072E+00  0.20504643739E+00  0.63953159978E+02  0.64386133113E+02  0.74470750000E+01 0.  1.
<mgrwt>
<rscale>  0 0.14941951E+02</rscale>
<asrwt>0</asrwt>
<pdfrwt beam="2">  1        2 0.98531762E+00 0.14941951E+02</pdfrwt>
<pdfrwt beam="1">  1       -2 0.99871767E+00 0.14941951E+02</pdfrwt>
<totfact>-0.13425179E-13</totfact>
</mgrwt>
</event>
<event>
 4    1  0.5160210E-019  0.1491755E+02  0.7818608E-02  0.1870595E+00
          2   -1    0    0  501    0  0.00000000000E+00  0.00000000000E+00  0.11968231719E+03  0.11968231722E+03  0.25500000000E-02 0.  1.
         -2   -1    0    0    0  501 -0.00000000000E+00 -0.00000000000E+00 -0.46483790200E+00  0.46484489632E+00  0.25500000000E-02 0. -1.
         31    1    1    2    0    0  0.35426338672E+00 -0.13583607886E+00  0.58204023665E+02  0.58679734584E+02  0.74470750000E+01 0. -1.
        -31    1    1    2    0    0 -0.35426338672E+00  0.13583607886E+00  0.61013455624E+02  0.61467427530E+02  0.74470750000E+01 0. -1.
<mgrwt>
<rscale>  0 0.14917547E+02</rscale>
<asrwt>0</asrwt>
<pdfrwt beam="1">  1        2 0.99346080E+00 0.14917547E+02</pdfrwt>
<pdfrwt beam="2">  1       -2 0.98729845E+00 0.14917547E+02</pdfrwt>
<totfact> 0.24645463E-13</totfact>
</mgrwt>
</event>
<event>
 4    1 -0.5160210E-019  0.1500471E+02  0.7818608E-02  0.1867925E+00
          2   -1    0    0  501    0  0.00000000000E+00  0.00000000000E+00  0.11986722849E+03  0.11986722852E+03  0.25500000000E-02 0.  1.
         -2   -1    0    0    0  501 -0.00000000000E+00 -0.00000000000E+00 -0.46956062278E+00  0.46956754675E+00  0.25500000000E-02 0. -1.
         31    1    1    2    0    0 -0.70845273540E+00  0.19851449245E+00  0.55416539693E+02  0.55919523522E+02  0.74470750000E+01 0. -1.
        -31    1    1    2    0    0  0.70845273540E+00 -0.19851449245E+00  0.63981128173E+02  0.64417272541E+02  0.74470750000E+01 0.  1.
<mgrwt>
<rscale>  0 0.15004712E+02</rscale>
<asrwt>0</asrwt>
<pdfrwt beam="1">  1        2 0.99502883E+00 0.15004712E+02</pdfrwt>
<pdfrwt beam="2">  1       -2 0.99729599E+00 0.15004712E+02</pdfrwt>
<totfact>-0.88837714E-14</totfact>
</mgrwt>
</event>
<event>
 4    1  0.5160210E-019  0.1489498E+02  0.7818608E-02  0.1871290E+00
          2   -1    0    0  501    0  0.00000000000E+00  0.00000000000E+00  0.12009348107E+03  0.12009348110E+03  0.25500000000E-02 0. -1.
         -2   -1    0    0    0  501 -0.00000000000E+00 -0.00000000000E+00 -0.46184582750E+00  0.46185286714E+00  0.25500000000E-02 0.  1.
         31    1    1    2    0    0 -0.75481931165E-01  0.13429244566E-02  0.59639656362E+02  0.60102855476E+02  0.74470750000E+01 0. -1.
        -31    1    1    2    0    0  0.75481931165E-01 -0.13429244566E-02  0.59991978882E+02  0.60452478490E+02  0.74470750000E+01 0. -1.
<mgrwt>
<rscale>  0 0.14894979E+02</rscale>
<asrwt>0</asrwt>
<pdfrwt beam="1">  1        2 0.99683585E+00 0.14894979E+02</pdfrwt>
<pdfrwt beam="2">  1       -2 0.98098083E+00 0.14894979E+02</pdfrwt>
<totfact> 0.91126441E-13</totfact>
</mgrwt>
</event>
<event>
 4    1  0.5160210E-019  0.1489533E+02  0.7818608E-02  0.1871280E+00
         -2   -1    0    0    0  501 -0.00000000000E+00  0.00000000000E+00  0.11827214619E+03  0.11827214621E+03  0.25500000000E-02 0. -1.
          2   -1    0    0  501    0  0.00000000000E+00 -0.00000000000E+00 -0.46897997676E+00  0.46898690931E+00  0.25500000000E-02 0.  1.
         31    1    1    2    0    0 -0.52528280818E-01 -0.77415200869E-01  0.58887319030E+02  0.59356415163E+02  0.74470750000E+01 0. -1.
        -31    1    1    2    0    0  0.52528280818E-01  0.77415200869E-01  0.58915847179E+02  0.59384717960E+02  0.74470750000E+01 0. -1.
<mgrwt>
<rscale>  0 0.14895326E+02</rscale>
<asrwt>0</asrwt>
<pdfrwt beam="2">  1        2 0.99601524E+00 0.14895326E+02</pdfrwt>
<pdfrwt beam="1">  1       -2 0.98183477E+00 0.14895326E+02</pdfrwt>
<totfact> 0.89516380E-13</totfact>
</mgrwt>
</event>
<event>
 4    1  0.5160210E-019  0.1493011E+02  0.7818608E-02  0.1870209E+00
         -2   -1    0    0    0  501 -0.00000000000E+00  0.00000000000E+00  0.11890075650E+03  0.11890075652E+03  0.25500000000E-02 0.  1.
          2   -1    0    0  501    0  0.00000000000E+00 -0.00000000000E+00 -0.46868212745E+00  0.46868906441E+00  0.25500000000E-02 0. -1.
         31    1    1    2    0    0  0.38594217351E+00 -0.34434261484E+00  0.59416064529E+02  0.59883179386E+02  0.74470750000E+01 0. -1.
        -31    1    1    2    0    0 -0.38594217351E+00  0.34434261484E+00  0.59016009841E+02  0.59486266203E+02  0.74470750000E+01 0.  1.
<mgrwt>
<rscale>  0 0.14930114E+02</rscale>
<asrwt>0</asrwt>
<pdfrwt beam="2">  1        2 0.99540595E+00 0.14930114E+02</pdfrwt>
<pdfrwt beam="1">  1       -2 0.98703009E+00 0.14930114E+02</pdfrwt>
<totfact> 0.23207513E-13</totfact>
</mgrwt>
</event>
<event>
 4    1  0.5160210E-019  0.1489815E+02  0.7818608E-02  0.1871192E+00
         -2   -1    0    0    0  501 -0.00000000000E+00  0.00000000000E+00  0.11856695629E+03  0.11856695631E+03  0.25500000000E-02 0. -1.
          2   -1    0    0  501    0  0.00000000000E+00 -0.00000000000E+00 -0.46799144988E+00  0.46799839707E+00  0.25500000000E-02 0.  1.
         31    1    1    2    0    0  0.41344209079E-01 -0.24566694688E-01  0.57724554010E+02  0.58202967060E+02  0.74470750000E+01 0.  1.
        -31    1    1    2    0    0 -0.41344209079E-01  0.24566694688E-01  0.60374410826E+02  0.60831987650E+02  0.74470750000E+01 0. -1.
<mgrwt>
<rscale>  0 0.14898152E+02</rscale>
<asrwt>0</asrwt>
<pdfrwt beam="2">  1        2 0.99393386E+00 0.14898152E+02</pdfrwt>
<pdfrwt beam="1">  1       -2 0.98426429E+00 0.14898152E+02</pdfrwt>
<totfact> 0.65015230E-13</totfact>
</mgrwt>
</event>
<event>
 4    1 -0.5160210E-019  0.1493830E+02  0.7818608E-02  0.1869957E+00
          2   -1    0    0  501    0  0.00000000000E+00  0.00000000000E+00  0.11874513927E+03  0.11874513930E+03  0.25500000000E-02 0. -1.
         -2   -1    0    0    0  501 -0.00000000000E+00 -0.00000000000E+00 -0.46981138846E+00  0.46981830874E+00  0.25500000000E-02 0.  1.
         31    1    1    2    0    0 -0.31793891324E+00 -0.35512002167E+00  0.61687819457E+02  0.62137534476E+02  0.74470750000E+01 0. -1.
        -31    1    1    2    0    0  0.31793891324E+00  0.35512002167E+00  0.56587508423E+02  0.57077423129E+02  0.74470750000E+01 0.  1.
<mgrwt>
<rscale>  0 0.14938304E+02</rscale>
<asrwt>0</asrwt>
<pdfrwt beam="1">  1        2 0.98575268E+00 0.14938304E+02</pdfrwt>
<pdfrwt beam="2">  1       -2 0.99778969E+00 0.14938304E+02</pdfrwt>
<totfact>-0.19804874E-13</totfact>
</mgrwt>
</event>
<event>
 4    1  0.5160210E-019  0.1493015E+02  0.7818608E-02  0.1870208E+00
          2   -1    0    0  501    0  0.00000000000E+00  0.00000000000E+00  0.12028526838E+03  0.12028526841E+03  0.25500000000E-02 0. -1.
         -2   -1    0    0    0  501 -0.00000000000E+00 -0.00000000000E+00 -0.46328939069E+00  0.46329640838E+00  0.25500000000E-02 0.  1.
         31    1    1    2    0    0  0.31939811866E+00  0.12198917215E+00  0.56763154357E+02  0.57250602749E+02  0.74470750000E+01 0. -1.
        -31    1    1    2    0    0 -0.31939811866E+00 -0.12198917215E+00  0.63058824631E+02  0.63497962065E+02  0.74470750000E+01 0. -1.
<mgrwt>
<rscale>  0 0.14930146E+02</rscale>
<asrwt>0</asrwt>
<pdfrwt beam="1">  1        2 0.99843362E+00 0.14930146E+02</pdfrwt>
<pdfrwt beam="2">  1       -2 0.98404122E+00 0.14930146E+02</pdfrwt>
<totfact> 0.28194126E-13</totfact>
</mgrwt>
</event>
<event>
 4    1 -0.5160210E-019  0.1498708E+02  0.7818608E-02  0.1868463E+00
          2   -1    0    0  501    0  0.00000000000E+00  0.00000000000E+00  0.11992530409E+03  0.11992530412E+03  0.25500000000E-02 0.  1.
         -2   -1    0    0    0  501 -0.00000000000E+00 -0.00000000000E+00 -0.46823055713E+00  0.46823750077E+00  0.25500000000E-02 0. -1.
         31    1    1    2    0    0  0.75673573554E+00  0.25721531302E+00  0.57838151671E+02  0.58321089869E+02  0.74470750000E+01 0. -1.
        -31    1    1    2    0    0 -0.75673573554E+00 -0.25721531302E+00  0.61618921862E+02  0.62072451750E+02  0.74470750000E+01 0. -1.
<mgrwt>
<rscale>  0 0.14987076E+02</rscale>
<asrwt>0</asrwt>
<pdfrwt beam="1">  1        2 0.99549804E+00 0.14987076E+02</pdfrwt>
<pdfrwt beam="2">  1       -2 0.99448398E+00 0.14987076E+02</pdfrwt>
<totfact>-0.11277834E-13</totfact>
</mgrwt>
</event>
<event>
 4    1 -0.5160210E-019  0.1497583E+02  0.7818608E-02  0.1868807E+00
          2   -1    0    0  501    0  0.00000000000E+00  0.00000000000E+00  0.12000558550E+03  0.12000558552E+03  0.25500000000E-02 0. -1.
         -2   -1    0    0    0  501 -0.00000000000E+00 -0.00000000000E+00 -0.46721524668E+00  0.46722220541E+00  0.25500000000E-02 0.  1.
         31    1    1    2    0    0 -0.17598288562E+00  0.10072328546E+00  0.53702029268E+02  0.54216307405E+02  0.74470750000E+01 0.  1.
        -31    1    1    2    0    0  0.17598288562E+00 -0.10072328546E+00  0.65836340982E+02  0.66256500323E+02  0.74470750000E+01 0. -1.
<mgrwt>
<rscale>  0 0.14975829E+02</rscale>
<asrwt>0</asrwt>
<pdfrwt beam="1">  1        2 0.99615346E+00 0.14975829E+02</pdfrwt>
<pdfrwt beam="2">  1       -2 0.99233852E+00 0.14975829E+02</pdfrwt>
<totfact>-0.76493217E-14</totfact>
</mgrwt>
</event>
<event>
 4    1  0.5160210E-019  0.1491341E+02  0.7818608E-02  0.1870722E+00
         -2   -1    0    0    0  501 -0.00000000000E+00  0.00000000000E+00  0.11835526477E+03  0.11835526480E+03  0.25500000000E-02 0.  1.
          2   -1    0    0  501    0  0.00000000000E+00 -0.00000000000E+00 -0.46978951994E+00  0.46979644054E+00  0.25500000000E-02 0. -1.
         31    1    1    2    0    0  0.29718058272E+00  0.80166730621E-01  0.60702973962E+02  0.61158848231E+02  0.74470750000E+01 0.  1.
        -31    1    1    2    0    0 -0.29718058272E+00 -0.80166730621E-01  0.57182501287E+02  0.57666213006E+02  0.74470750000E+01 0. -1.
<mgrwt>
<rscale>  0 0.14913414E+02</rscale>
<asrwt>0</asrwt>
<pdfrwt beam="2">  1        2 0.99773048E+00 0.14913414E+02</pdfrwt>
<pdfrwt beam="1">  1       -2 0.98252874E+00 0.14913414E+02</pdfrwt>
<totfact> 0.53302043E-13</totfact>
</mgrwt>
</event>
<event>
 4    1  0.5160210E-019  0.1493031E+02  0.7818608E-02  0.1870203E+00
         -2   -1    0    0    0  501 -0.00000000000E+00  0.00000000000E+00  0.11860095897E+03  0.11860095900E+03  0.25500000000E-02 0.  1.
          2   -1    0    0  501    0  0.00000000000E+00 -0.00000000000E+00 -0.46987905982E+00  0.46988597910E+00  0.25500000000E-02 0. -1.
         31    1    1    2    0    0 -0.18301290970E+00  0.40543584461E+00  0.56929718779E+02  0.57416458253E+02  0.74470750000E+01 0.  1.
        -31    1    1    2    0    0  0.18301290970E+00 -0.40543584461E+00  0.61201361130E+02  0.61654386723E+02  0.74470750000E+01 0.  1.
<mgrwt>
<rscale>  0 0.14930308E+02</rscale>
<asrwt>0</asrwt>
<pdfrwt beam="2">  1        2 0.99792806E+00 0.14930308E+02</pdfrwt>
<pdfrwt beam="1">  1       -2 0.98456106E+00 0.14930308E+02</pdfrwt>
<totfact> 0.30863255E-13</totfact>
</mgrwt>
</event>
<event>
 4    1  0.5160210E-019  0.1492130E+02  0.7818608E-02  0.1870480E+00
         -2   -1    0    0    0  501 -0.00000000000E+00  0.00000000000E+00  0.11901337870E+03  0.11901337873E+03  0.25500000000E-02 0. -1.
          2   -1    0    0  501    0  0.00000000000E+00 -0.00000000000E+00 -0.46768562460E+00  0.46769257634E+00  0.25500000000E-02 0.  1.
         31    1    1    2    0    0 -0.25532241533E+00 -0.30045760939E+00  0.57539227838E+02  0.58020488886E+02  0.74470750000E+01 0.  1.
        -31    1    1    2    0    0  0.25532241533E+00  0.30045760939E+00  0.61006465236E+02  0.61460582416E+02  0.74470750000E+01 0. -1.
<mgrwt>
<rscale>  0 0.14921295E+02</rscale>
<asrwt>0</asrwt>
<pdfrwt beam="2">  1        2 0.99330154E+00 0.14921295E+02</pdfrwt>
<pdfrwt beam="1">  1       -2 0.98795309E+00 0.14921295E+02</pdfrwt>
<totfact> 0.17948217E-13</totfact>
</mgrwt>
</event>
<event>
 4    1 -0.5160210E-019  0.1500654E+02  0.7818608E-02  0.1867869E+00
         -2   -1    0    0    0  501 -0.00000000000E+00  0.00000000000E+00  0.12014867564E+03  0.12014867567E+03  0.25500000000E-02 0. -1.
          2   -1    0    0  501    0  0.00000000000E+00 -0.00000000000E+00 -0.46857473526E+00  0.46858167380E+00  0.25500000000E-02 0.  1.
         31    1    1    2    0    0 -0.64357380411E+00  0.33398778557E+00  0.64346818643E+02  0.64780380754E+02  0.74470750000E+01 0. -1.
        -31    1    1    2    0    0  0.64357380411E+00 -0.33398778557E+00  0.55333282263E+02  0.55836876588E+02  0.74470750000E+01 0.  1.
<mgrwt>
<rscale>  0 0.15006539E+02</rscale>
<asrwt>0</asrwt>
<pdfrwt beam="2">  1        2 0.99521934E+00 0.15006539E+02</pdfrwt>
<pdfrwt beam="1">  1       -2 0.99734788E+00 0.15006539E+02</pdfrwt>
<totfact>-0.85861837E-14</totfact>
</mgrwt>
</event>
<event>
 4    1 -0.5160210E-019  0.1500604E+02  0.7818608E-02  0.1867884E+00
          2   -1    0    0  501    0  0.00000000000E+00  0.00000000000E+00  0.11991855796E+03  0.11991855799E+03  0.25500000000E-02 0. -1.
         -2   -1    0    0    0  501 -0.00000000000E+00 -0.00000000000E+00 -0.46944263921E+00  0.46944956493E+00  0.25500000000E-02 0.  1.
         31    1    1    2    0    0  0.50703856641E+00  0.32412938089E+00  0.65249288599E+02  0.65675647973E+02  0.74470750000E+01 0. -1.
        -31    1    1    2    0    0 -0.50703856641E+00 -0.32412938089E+00  0.54199826724E+02  0.54712359581E+02  0.74470750000E+01 0.  1.
<mgrwt>
<rscale>  0 0.15006039E+02</rscale>
<asrwt>0</asrwt>
<pdfrwt beam="1">  1        2 0.99545228E+00 0.15006039E+02</pdfrwt>
<pdfrwt beam="2">  1       -2 0.99704805E+00 0.15006039E+02</pdfrwt>
<totfact>-0.89944633E-14</totfact>
</mgrwt>
</event>
<event>
 4    1  0.5160210E-019  0.1490588E+02  0.7818608E-02  0.1870954E+00
         -2   -1    0    0    0  501 -0.00000000000E+00  0.00000000000E+00  0.11839780821E+03  0.11839780824E+03  0.25500000000E-02 0. -1.
          2   -1    0    0  501    0  0.00000000000E+00 -0.00000000000E+00 -0.46914636544E+00  0.46915329553E+00  0.25500000000E-02 0.  1.
         31    1    1    2    0    0 -0.14444185776E+00 -0.21806822555E+00  0.57865942030E+02  0.58343762222E+02  0.74470750000E+01 0.  1.
        -31    1    1    2    0    0  0.14444185776E+00  0.21806822555E+00  0.60062719817E+02  0.60523199313E+02  0.74470750000E+01 0. -1.
<mgrwt>
<rscale>  0 0.14905880E+02</rscale>
<asrwt>0</asrwt>
<pdfrwt beam="2">  1        2 0.99637139E+00 0.14905880E+02</pdfrwt>
<pdfrwt beam="1">  1       -2 0.98287520E+00 0.14905880E+02</pdfrwt>
<totfact> 0.68301053E-13</totfact>
</mgrwt>
</event>
<event>
 4    1 -0.5160210E-019  0.1493631E+02  0.7818608E-02  0.1870018E+00
         -2   -1    0    0    0  501 -0.00000000000E+00  0.00000000000E+00  0.11992694368E+03  0.11992694370E+03  0.25500000000E-02 0.  1.
          2   -1    0    0  501    0  0.00000000000E+00 -0.00000000000E+00 -0.46505734693E+00  0.46506433796E+00  0.25500000000E-02 0. -1.
         31    1    1    2    0    0 -0.15178729031E+00  0.46666207631E+00  0.61917511956E+02  0.62365679871E+02  0.74470750000E+01 0.  1.
        -31    1    1    2    0    0  0.15178729031E+00 -0.46666207631E+00  0.57544374372E+02  0.58026328169E+02  0.74470750000E+01 0.  1.
<mgrwt>
<rscale>  0 0.14936309E+02</rscale>
<asrwt>0</asrwt>
<pdfrwt beam="2">  1        2 0.98777053E+00 0.14936309E+02</pdfrwt>
<pdfrwt beam="1">  1       -2 0.99548536E+00 0.14936309E+02</pdfrwt>
<totfact>-0.22533514E-13</totfact>
</mgrwt>
</event>
<event>
 4    1  0.5160210E-019  0.1491881E+02  0.7818608E-02  0.1870556E+00
          2   -1    0    0  501    0  0.00000000000E+00  0.00000000000E+00  0.11965110895E+03  0.11965110898E+03  0.25500000000E-02 0.  1.
         -2   -1    0    0    0  501 -0.00000000000E+00 -0.00000000000E+00 -0.46503796985E+00  0.46504496116E+00  0.25500000000E-02 0. -1.
         31    1    1    2    0    0 -0.56271029446E-01  0.23035212869E-01  0.56176131681E+02  0.56667630917E+02  0.74470750000E+01 0. -1.
        -31    1    1    2    0    0  0.56271029446E-01 -0.23035212869E-01  0.63009939301E+02  0.63448523023E+02  0.74470750000E+01 0.  1.
<mgrwt>
<rscale>  0 0.14918811E+02</rscale>
<asrwt>0</asrwt>
<pdfrwt beam="1">  1        2 0.99320440E+00 0.14918811E+02</pdfrwt>
<pdfrwt beam="2">  1       -2 0.98772074E+00 0.14918811E+02</pdfrwt>
<totfact> 0.20484286E-13</totfact>
</mgrwt>
</event>
<event>
 4    1 -0.5160210E-019  0.1495130E+02  0.7818608E-02  0.1869558E+00
         -2   -1    0    0    0  501 -0.00000000000E+00  0.00000000000E+00  0.11984624083E+03  0.11984624086E+03  0.25500000000E-02 0.  1.
          2   -1    0    0  501    0  0.00000000000E+00 -0.00000000000E+00 -0.46630521289E+00  0.46631218520E+00  0.25500000000E-02 0. -1.
         31    1    1    2    0    0  0.81295444203E-01 -0.56247031034E+00  0.57101895942E+02  0.57588266409E+02  0.74470750000E+01 0.  1.
        -31    1    1    2    0    0 -0.81295444203E-01  0.56247031034E+00  0.62278039680E+02  0.62724286638E+02  0.74470750000E+01 0.  1.
<mgrwt>
<rscale>  0 0.14951301E+02</rscale>
<asrwt>0</asrwt>
<pdfrwt beam="2">  1        2 0.99040808E+00 0.14951301E+02</pdfrwt>
<pdfrwt beam="1">  1       -2 0.99482837E+00 0.14951301E+02</pdfrwt>
<totfact>-0.17235834E-13</totfact>
</mgrwt>
</event>
<event>
 4    1  0.5160210E-019  0.1490679E+02  0.7818608E-02  0.1870926E+00
         -2   -1    0    0    0  501 -0.00000000000E+00  0.00000000000E+00  0.11839399570E+03  0.11839399572E+03  0.25500000000E-02 0. -1.
          2   -1    0    0  501    0  0.00000000000E+00 -0.00000000000E+00 -0.46921877140E+00  0.46922570042E+00  0.25500000000E-02 0.  1.
         31    1    1    2    0    0 -0.25736554600E+00 -0.15572274332E+00  0.58478282938E+02  0.58951327279E+02  0.74470750000E+01 0.  1.
        -31    1    1    2    0    0  0.25736554600E+00  0.15572274332E+00  0.59446493987E+02  0.59911894145E+02  0.74470750000E+01 0. -1.
<mgrwt>
<rscale>  0 0.14906790E+02</rscale>
<asrwt>0</asrwt>
<pdfrwt beam="2">  1        2 0.99652443E+00 0.14906790E+02</pdfrwt>
<pdfrwt beam="1">  1       -2 0.98284428E+00 0.14906790E+02</pdfrwt>
<totfact> 0.66941927E-13</totfact>
</mgrwt>
</event>
<event>
 4    1 -0.5160210E-019  0.1503249E+02  0.7818608E-02  0.1867079E+00
         -2   -1    0    0    0  501 -0.00000000000E+00  0.00000000000E+00  0.12038255105E+03  0.12038255108E+03  0.25500000000E-02 0.  1.
          2   -1    0    0  501    0  0.00000000000E+00 -0.00000000000E+00 -0.46928337095E+00  0.46929029902E+00  0.25500000000E-02 0. -1.
         31    1    1    2    0    0 -0.77796506854E+00  0.40381313748E+00  0.55804634049E+02  0.56306166644E+02  0.74470750000E+01 0. -1.
        -31    1    1    2    0    0  0.77796506854E+00 -0.40381313748E+00  0.64108633630E+02  0.64545674733E+02  0.74470750000E+01 0.  1.
<mgrwt>
<rscale>  0 0.15032491E+02</rscale>
<asrwt>0</asrwt>
<pdfrwt beam="2">  1        2 0.99672608E+00 0.15032491E+02</pdfrwt>
<pdfrwt beam="1">  1       -2 0.99928758E+00 0.15032491E+02</pdfrwt>
<totfact>-0.22128209E-14</totfact>
</mgrwt>
</event>
<event>
 4    1  0.5160210E-019  0.1489814E+02  0.7818608E-02  0.1871193E+00
          2   -1    0    0  501    0  0.00000000000E+00  0.00000000000E+00  0.12016976645E+03  0.12016976648E+03  0.25500000000E-02 0.  1.
         -2   -1    0    0    0  501 -0.00000000000E+00 -0.00000000000E+00 -0.46174845805E+00  0.46175549917E+00  0.25500000000E-02 0. -1.
         31    1    1    2    0    0 -0.53421238565E-01  0.11266078033E+00  0.58890545834E+02  0.59359673694E+02  0.74470750000E+01 0. -1.
        -31    1    1    2    0    0  0.53421238565E-01 -0.11266078033E+00  0.60817472157E+02  0.61271848282E+02  0.74470750000E+01 0.  1.
<mgrwt>
<rscale>  0 0.14898138E+02</rscale>
<asrwt>0</asrwt>
<pdfrwt beam="1">  1        2 0.99746583E+00 0.14898138E+02</pdfrwt>
<pdfrwt beam="2">  1       -2 0.98077719E+00 0.14898138E+02</pdfrwt>
<totfact> 0.81095361E-13</totfact>
</mgrwt>
</event>
<event>
 4    1  0.5160210E-019  0.1491258E+02  0.7818608E-02  0.1870748E+00
          2   -1    0    0  501    0  0.00000000000E+00  0.00000000000E+00  0.12012483661E+03  0.12012483664E+03  0.25500000000E-02 0.  1.
         -2   -1    0    0    0  501 -0.00000000000E+00 -0.00000000000E+00 -0.46281696882E+00  0.46282399368E+00  0.25500000000E-02 0. -1.
         31    1    1    2    0    0  0.35388714138E+00  0.34935842366E-01  0.60673510991E+02  0.61129864376E+02  0.74470750000E+01 0.  1.
        -31    1    1    2    0    0 -0.35388714138E+00 -0.34935842366E-01  0.58988508653E+02  0.59457796257E+02  0.74470750000E+01 0. -1.
<mgrwt>
<rscale>  0 0.14912577E+02</rscale>
<asrwt>0</asrwt>
<pdfrwt beam="1">  1        2 0.99710315E+00 0.14912577E+02</pdfrwt>
<pdfrwt beam="2">  1       -2 0.98303661E+00 0.14912577E+02</pdfrwt>
<totfact> 0.56947681E-13</totfact>
</mgrwt>
</event>
<event>
 4    1  0.5160210E-019  0.1492178E+02  0.7818608E-02  0.1870465E+00
          2   -1    0    0  501    0  0.00000000000E+00  0.00000000000E+00  0.12041764923E+03  0.12041764925E+03  0.25500000000E-02 0. -1.
         -2   -1    0    0    0  501 -0.00000000000E+00 -0.00000000000E+00 -0.46226156546E+00  0.46226859876E+00  0.25500000000E-02 0.  1.
         31    1    1    2    0    0  0.26329860992E+00  0.44782023343E-01  0.57005422034E+02  0.57490420062E+02  0.74470750000E+01 0.  1.
        -31    1    1    2    0    0 -0.26329860992E+00 -0.44782023343E-01  0.62949965628E+02  0.63389497791E+02  0.74470750000E+01 0. -1.
<mgrwt>
<rscale>  0 0.14921780E+02</rscale>
<asrwt>0</asrwt>
<pdfrwt beam="1">  1        2 0.99951974E+00 0.14921780E+02</pdfrwt>
<pdfrwt beam="2">  1       -2 0.98187061E+00 0.14921780E+02</pdfrwt>
<totfact> 0.15714268E-13</totfact>
</mgrwt>
</event>
<event>
 4    1 -0.5160210E-019  0.1494861E+02  0.7818608E-02  0.1869641E+00
         -2   -1    0    0    0  501 -0.00000000000E+00  0.00000000000E+00  0.12014016321E+03  0.12014016324E+03  0.25500000000E-02 0.  1.
          2   -1    0    0  501    0  0.00000000000E+00 -0.00000000000E+00 -0.46499670089E+00  0.46500369282E+00  0.25500000000E-02 0. -1.
         31    1    1    2    0    0  0.13141927735E+00 -0.38522710940E+00  0.63795059050E+02  0.64229542706E+02  0.74470750000E+01 0.  1.
        -31    1    1    2    0    0 -0.13141927735E+00  0.38522710940E+00  0.55880107458E+02  0.56375624223E+02  0.74470750000E+01 0. -1.
<mgrwt>
<rscale>  0 0.14948606E+02</rscale>
<asrwt>0</asrwt>
<pdfrwt beam="2">  1        2 0.98764899E+00 0.14948606E+02</pdfrwt>
<pdfrwt beam="1">  1       -2 0.99724790E+00 0.14948606E+02</pdfrwt>
<totfact>-0.17663658E-13</totfact>
</mgrwt>
</event>
<event>
 4    1  0.5160210E-019  0.1492484E+02  0.7818608E-02  0.1870371E+00
         -2   -1    0    0    0  501 -0.00000000000E+00  0.00000000000E+00  0.11865754783E+03  0.11865754786E+03  0.25500000000E-02 0. -1.
          2   -1    0    0  501    0  0.00000000000E+00 -0.00000000000E+00 -0.46931102400E+00  0.46931795166E+00  0.25500000000E-02 0.  1.
         31    1    1    2    0    0 -0.95033453129E-01 -0.30420164583E+00  0.56247255018E+02  0.56739000635E+02  0.74470750000E+01 0.  1.
        -31    1    1    2    0    0  0.95033453129E-01  0.30420164583E+00  0.61940981787E+02  0.62387865173E+02  0.74470750000E+01 0. -1.
<mgrwt>
<rscale>  0 0.14924840E+02</rscale>
<asrwt>0</asrwt>
<pdfrwt beam="2">  1        2 0.99672832E+00 0.14924840E+02</pdfrwt>
<pdfrwt beam="1">  1       -2 0.98502428E+00 0.14924840E+02</pdfrwt>
<totfact> 0.37642814E-13</totfact>
</mgrwt>
</event>
<event>
 4    1 -0.5160210E-019  0.1498539E+02  0.7818608E-02  0.1868515E+00
          2   -1    0    0  501    0  0.00000000000E+00  0.00000000000E+00  0.12023714335E+03  0.12023714337E+03  0.25500000000E-02 0.  1.
         -2   -1    0    0    0  501 -0.00000000000E+00 -0.00000000000E+00 -0.46691123735E+00  0.46691820062E+00  0.25500000000E-02 0. -1.
         31    1    1    2    0    0  0.58566455436E+00 -0.53214867239E+00  0.61780713005E+02  0.62232962413E+02  0.74470750000E+01 0.  1.
        -31    1    1    2    0    0 -0.58566455436E+00  0.53214867239E+00  0.57989519103E+02  0.58471099160E+02  0.74470750000E+01 0.  1.
<mgrwt>
<rscale>  0 0.14985392E+02</rscale>
<asrwt>0</asrwt>
<pdfrwt beam="1">  1        2 0.99806563E+00 0.14985392E+02</pdfrwt>
<pdfrwt beam="2">  1       -2 0.99170274E+00 0.14985392E+02</pdfrwt>
<totfact>-0.36956371E-14</totfact>
</mgrwt>
</event>
<event>
 4    1 -0.5160210E-019  0.1492743E+02  0.7818608E-02  0.1870291E+00
         -2   -1    0    0    0  501 -0.00000000000E+00  0.00000000000E+00  0.11979927875E+03  0.11979927878E+03  0.25500000000E-02 0. -1.
          2   -1    0    0  501    0  0.00000000000E+00 -0.00000000000E+00 -0.46499979985E+00  0.46500679174E+00  0.25500000000E-02 0.  1.
         31    1    1    2    0    0  0.26198070736E+00  0.13456434064E+00  0.62903797832E+02  0.63343771984E+02  0.74470750000E+01 0. -1.
        -31    1    1    2    0    0 -0.26198070736E+00 -0.13456434064E+00  0.56430481119E+02  0.56920513585E+02  0.74470750000E+01 0.  1.
<mgrwt>
<rscale>  0 0.14927433E+02</rscale>
<asrwt>0</asrwt>
<pdfrwt beam="2">  1        2 0.98764471E+00 0.14927433E+02</pdfrwt>
<pdfrwt beam="1">  1       -2 0.99442926E+00 0.14927433E+02</pdfrwt>
<totfact>-0.23341574E-13</totfact>
</mgrwt>
</event>
<event>
 4    1 -0.5160210E-019  0.1492452E+02  0.7818608E-02  0.1870381E+00
          2   -1    0    0  501    0  0.00000000000E+00  0.00000000000E+00  0.11903150172E+03  0.11903150174E+03  0.25500000000E-02 0. -1.
         -2   -1    0    0    0  501 -0.00000000000E+00 -0.00000000000E+00 -0.46781630599E+00  0.46782325578E+00  0.25500000000E-02 0.  1.
         31    1    1    2    0    0 -0.38474726046E+00  0.51093662328E-01  0.57078453322E+02  0.57563524915E+02  0.74470750000E+01 0.  1.
        -31    1    1    2    0    0  0.38474726046E+00 -0.51093662328E-01  0.61485232089E+02  0.61935800085E+02  0.74470750000E+01 0. -1.
<mgrwt>
<rscale>  0 0.14924516E+02</rscale>
<asrwt>0</asrwt>
<pdfrwt beam="1">  1        2 0.98810403E+00 0.14924516E+02</pdfrwt>
<pdfrwt beam="2">  1       -2 0.99357859E+00 0.14924516E+02</pdfrwt>
<totfact>-0.20779156E-13</totfact>
</mgrwt>
</event>
<event>
 4    1 -0.5160210E-019  0.1497112E+02  0.7818608E-02  0.1868951E+00
          2   -1    0    0  501    0  0.00000000000E+00  0.00000000000E+00  0.11914721667E+03  0.11914721670E+03  0.25500000000E-02 0.  1.
         -2   -1    0    0    0  501 -0.00000000000E+00 -0.00000000000E+00 -0.47028537151E+00  0.47029228482E+00  0.25500000000E-02 0. -1.
         31    1    1    2    0    0  0.17447356721E+00  0.37857447388E+00  0.64397535241E+02  0.64828043552E+02  0.74470750000E+01 0.  1.
        -31    1    1    2    0    0 -0.17447356721E+00 -0.37857447388E+00  0.54279396062E+02  0.54789465434E+02  0.74470750000E+01 0. -1.
<mgrwt>
<rscale>  0 0.14971120E+02</rscale>
<asrwt>0</asrwt>
<pdfrwt beam="1">  1        2 0.98908126E+00 0.14971120E+02</pdfrwt>
<pdfrwt beam="2">  1       -2 0.99880565E+00 0.14971120E+02</pdfrwt>
<totfact>-0.74978586E-14</totfact>
</mgrwt>
</event>
<event>
 4    1 -0.5160210E-019  0.1495273E+02  0.7818608E-02  0.1869514E+00
          2   -1    0    0  501    0  0.00000000000E+00  0.00000000000E+00  0.11929712701E+03  0.11929712703E+03  0.25500000000E-02 0.  1.
         -2   -1    0    0    0  501 -0.00000000000E+00 -0.00000000000E+00 -0.46854138794E+00  0.46854832698E+00  0.25500000000E-02 0. -1.
         31    1    1    2    0    0 -0.11206532033E+00  0.45187684355E+00  0.63174390280E+02  0.63613514795E+02  0.74470750000E+01 0.  1.
        -31    1    1    2    0    0  0.11206532033E+00 -0.45187684355E+00  0.55654195339E+02  0.56152160566E+02  0.74470750000E+01 0. -1.
<mgrwt>
<rscale>  0 0.14952733E+02</rscale>
<asrwt>0</asrwt>
<pdfrwt beam="1">  1        2 0.99030640E+00 0.14952733E+02</pdfrwt>
<pdfrwt beam="2">  1       -2 0.99512119E+00 0.14952733E+02</pdfrwt>
<totfact>-0.17297699E-13</totfact>
</mgrwt>
</event>
<event>
 4    1  0.5160210E-019  0.1491586E+02  0.7818608E-02  0.1870647E+00
          2   -1    0    0  501    0  0.00000000000E+00  0.00000000000E+00  0.12030093440E+03  0.12030093443E+03  0.25500000000E-02 0. -1.
         -2   -1    0    0    0  501 -0.00000000000E+00 -0.00000000000E+00 -0.46234323058E+00  0.46235026264E+00  0.25500000000E-02 0.  1.
         31    1    1    2    0    0  0.62644241926E-01 -0.90670692576E-01  0.63051604350E+02  0.63489966787E+02  0.74470750000E+01 0. -1.
        -31    1    1    2    0    0 -0.62644241926E-01  0.90670692576E-01  0.56786986823E+02  0.57273317906E+02  0.74470750000E+01 0.  1.
<mgrwt>
<rscale>  0 0.14915864E+02</rscale>
<asrwt>0</asrwt>
<pdfrwt beam="1">  1        2 0.99855533E+00 0.14915864E+02</pdfrwt>
<pdfrwt beam="2">  1       -2 0.98203976E+00 0.14915864E+02</pdfrwt>
<totfact> 0.41080569E-13</totfact>
</mgrwt>
</event>
<event>
 4    1 -0.5160210E-019  0.1496033E+02  0.7818608E-02  0.1869282E+00
          2   -1    0    0  501    0  0.00000000000E+00  0.00000000000E+00  0.11905108060E+03  0.11905108062E+03  0.25500000000E-02 0. -1.
         -2   -1    0    0    0  501 -0.00000000000E+00 -0.00000000000E+00 -0.46998673269E+00  0.46999365039E+00  0.25500000000E-02 0.  1.
         31    1    1    2    0    0 -0.49701682752E+00  0.20112492759E+00  0.55660595875E+02  0.56159134041E+02  0.74470750000E+01 0. -1.
        -31    1    1    2    0    0  0.49701682752E+00 -0.20112492759E+00  0.62920497990E+02  0.63361940235E+02  0.74470750000E+01 0. -1.
<mgrwt>
<rscale>  0 0.14960327E+02</rscale>
<asrwt>0</asrwt>
<pdfrwt beam="1">  1        2 0.98828387E+00 0.14960327E+02</pdfrwt>
<pdfrwt beam="2">  1       -2 0.99817073E+00 0.14960327E+02</pdfrwt>
<totfact>-0.11903172E-13</totfact>
</mgrwt>
</event>
<event>
 4    1 -0.5160210E-019  0.1492874E+02  0.7818608E-02  0.1870251E+00
          2   -1    0    0  501    0  0.00000000000E+00  0.00000000000E+00  0.11871791985E+03  0.11871791988E+03  0.25500000000E-02 0. -1.
         -2   -1    0    0    0  501 -0.00000000000E+00 -0.00000000000E+00 -0.46931744850E+00  0.46932437607E+00  0.25500000000E-02 0.  1.
         31    1    1    2    0    0  0.42870848252E+00 -0.10595156987E+00  0.57122577805E+02  0.57607663013E+02  0.74470750000E+01 0. -1.
        -31    1    1    2    0    0 -0.42870848252E+00  0.10595156987E+00  0.61126024596E+02  0.61579581240E+02  0.74470750000E+01 0.  1.
<mgrwt>
<rscale>  0 0.14928738E+02</rscale>
<asrwt>0</asrwt>
<pdfrwt beam="1">  1        2 0.98552353E+00 0.14928738E+02</pdfrwt>
<pdfrwt beam="2">  1       -2 0.99674391E+00 0.14928738E+02</pdfrwt>
<totfact>-0.26911103E-13</totfact>
</mgrwt>
</event>
<event>
 4    1 -0.5160210E-019  0.1497130E+02  0.7818608E-02  0.1868946E+00
          2   -1    0    0  501    0  0.00000000000E+00  0.00000000000E+00  0.11994555753E+03  0.11994555756E+03  0.25500000000E-02 0.  1.
         -2   -1    0    0    0  501 -0.00000000000E+00 -0.00000000000E+00 -0.46716610238E+00  0.46717306185E+00  0.25500000000E-02 0. -1.
         31    1    1    2    0    0  0.21049288644E+00 -0.63570658427E+00  0.56866593307E+02  0.57356052780E+02  0.74470750000E+01 0. -1.
        -31    1    1    2    0    0 -0.21049288644E+00  0.63570658427E+00  0.62611798119E+02  0.63056677837E+02  0.74470750000E+01 0.  1.
<mgrwt>
<rscale>  0 0.14971295E+02</rscale>
<asrwt>0</asrwt>
<pdfrwt beam="1">  1        2 0.99565671E+00 0.14971295E+02</pdfrwt>
<pdfrwt beam="2">  1       -2 0.99223262E+00 0.14971295E+02</pdfrwt>
<totfact>-0.79367371E-14</totfact>
</mgrwt>
</event>
<event>
 4    1  0.5160210E-019  0.1494327E+02  0.7818608E-02  0.1869805E+00
          2   -1    0    0  501    0  0.00000000000E+00  0.00000000000E+00  0.12018075885E+03  0.12018075888E+03  0.25500000000E-02 0. -1.
         -2   -1    0    0    0  501 -0.00000000000E+00 -0.00000000000E+00 -0.46450775202E+00  0.46451475131E+00  0.25500000000E-02 0.  1.
         31    1    1    2    0    0  0.51407114339E+00  0.31857068190E+00  0.59654598167E+02  0.60120676684E+02  0.74470750000E+01 0. -1.
        -31    1    1    2    0    0 -0.51407114339E+00 -0.31857068190E+00  0.60061652929E+02  0.60524596942E+02  0.74470750000E+01 0.  1.
<mgrwt>
<rscale>  0 0.14943268E+02</rscale>
<asrwt>0</asrwt>
<pdfrwt beam="1">  1        2 0.99757953E+00 0.14943268E+02</pdfrwt>
<pdfrwt beam="2">  1       -2 0.98661576E+00 0.14943268E+02</pdfrwt>
<totfact> 0.18173594E-13</totfact>
</mgrwt>
</event>
<event>
 4    1 -0.5160210E-019  0.1500707E+02  0.7818608E-02  0.1867853E+00
         -2   -1    0    0    0  501 -0.00000000000E+00  0.00000000000E+00  0.12034291638E+03  0.12034291640E+03  0.25500000000E-02 0. -1.
          2   -1    0    0  501    0  0.00000000000E+00 -0.00000000000E+00 -0.46785136325E+00  0.46785831252E+00  0.25500000000E-02 0.  1.
         31    1    1    2    0    0 -0.69247607909E+00  0.60375168545E+00  0.59878585754E+02  0.60346897163E+02  0.74470750000E+01 0. -1.
        -31    1    1    2    0    0  0.69247607909E+00 -0.60375168545E+00  0.59996479260E+02  0.60463877554E+02  0.74470750000E+01 0. -1.
<mgrwt>
<rscale>  0 0.15007068E+02</rscale>
<asrwt>0</asrwt>
<pdfrwt beam="2">  1        2 0.99369515E+00 0.15007068E+02</pdfrwt>
<pdfrwt beam="1">  1       -2 0.99894801E+00 0.15007068E+02</pdfrwt>
<totfact>-0.45584587E-14</totfact>
</mgrwt>
</event>
<event>
 4    1 -0.5160210E-019  0.1491816E+02  0.7818608E-02  0.1870576E+00
         -2   -1    0    0    0  501 -0.00000000000E+00  0.00000000000E+00  0.11965037607E+03  0.11965037610E+03  0.25500000000E-02 0.  1.
          2   -1    0    0  501    0  0.00000000000E+00 -0.00000000000E+00 -0.46500027934E+00  0.46500727122E+00  0.25500000000E-02 0. -1.
         31    1    1    2    0    0 -0.20859564600E+00 -0.15786398397E+00  0.62269420447E+02  0.62713699317E+02  0.74470750000E+01 0.  1.
        -31    1    1    2    0    0  0.20859564600E+00  0.15786398397E+00  0.56915955343E+02  0.57401684051E+02  0.74470750000E+01 0. -1.
<mgrwt>
<rscale>  0 0.14918161E+02</rscale>
<asrwt>0</asrwt>
<pdfrwt beam="2">  1        2 0.98764097E+00 0.14918161E+02</pdfrwt>
<pdfrwt beam="1">  1       -2 0.99319803E+00 0.14918161E+02</pdfrwt>
<totfact>-0.20989893E-13</totfact>
</mgrwt>
</event>
<event>
 4    1  0.5160210E-019  0.1492507E+02  0.7818608E-02  0.1870364E+00
         -2   -1    0    0    0  501 -0.00000000000E+00  0.00000000000E+00  0.11878618098E+03  0.11878618101E+03  0.25500000000E-02 0. -1.
          2   -1    0    0  501    0  0.00000000000E+00 -0.00000000000E+00 -0.46881718363E+00  0.46882411858E+00  0.25500000000E-02 0.  1.
         31    1    1    2    0    0  0.39430702654E+00  0.25349387296E+00  0.59987311043E+02  0.60449616620E+02  0.74470750000E+01 0. -1.
        -31    1    1    2    0    0 -0.39430702654E+00 -0.25349387296E+00  0.58330052756E+02  0.58805388510E+02  0.74470750000E+01 0.  1.
<mgrwt>
<rscale>  0 0.14925069E+02</rscale>
<asrwt>0</asrwt>
<pdfrwt beam="2">  1        2 0.99568788E+00 0.14925069E+02</pdfrwt>
<pdfrwt beam="1">  1       -2 0.98608382E+00 0.14925069E+02</pdfrwt>
<totfact> 0.32021306E-13</totfact>
</mgrwt>
</event>
<event>
 4    1  0.5160210E-019  0.1491507E+02  0.7818608E-02  0.1870671E+00
          2   -1    0    0  501    0  0.00000000000E+00  0.00000000000E+00  0.12019354582E+03  0.12019354585E+03  0.25500000000E-02 0. -1.
         -2   -1    0    0    0  501 -0.00000000000E+00 -0.00000000000E+00 -0.46270730871E+00  0.46271433523E+00  0.25500000000E-02 0.  1.
         31    1    1    2    0    0 -0.38974166122E+00 -0.42806255505E-01  0.59485929843E+02  0.59951551325E+02  0.74470750000E+01 0. -1.
        -31    1    1    2    0    0  0.38974166122E+00  0.42806255505E-01  0.60244908671E+02  0.60704708860E+02  0.74470750000E+01 0. -1.
<mgrwt>
<rscale>  0 0.14915074E+02</rscale>
<asrwt>0</asrwt>
<pdfrwt beam="1">  1        2 0.99767038E+00 0.14915074E+02</pdfrwt>
<pdfrwt beam="2">  1       -2 0.98280674E+00 0.14915074E+02</pdfrwt>
<totfact> 0.51237091E-13</totfact>
</mgrwt>
</event>
<event>
 4    1  0.5160210E-019  0.1494642E+02  0.7818608E-02  0.1869708E+00
         -2   -1    0    0    0  501 -0.00000000000E+00  0.00000000000E+00  0.11888813232E+03  0.11888813234E+03  0.25500000000E-02 0.  1.
          2   -1    0    0  501    0  0.00000000000E+00 -0.00000000000E+00 -0.46975640481E+00  0.46976332590E+00  0.25500000000E-02 0. -1.
         31    1    1    2    0    0 -0.37134297544E-01 -0.55732306439E+00  0.56979437837E+02  0.57466749083E+02  0.74470750000E+01 0.  1.
        -31    1    1    2    0    0  0.37134297544E-01  0.55732306439E+00  0.61438938075E+02  0.61891146587E+02  0.74470750000E+01 0.  1.
<mgrwt>
<rscale>  0 0.14946421E+02</rscale>
<asrwt>0</asrwt>
<pdfrwt beam="2">  1        2 0.99767811E+00 0.14946421E+02</pdfrwt>
<pdfrwt beam="1">  1       -2 0.98693459E+00 0.14946421E+02</pdfrwt>
<totfact> 0.15539040E-13</totfact>
</mgrwt>
</event>
<event>
 4    1 -0.5160210E-019  0.1494373E+02  0.7818608E-02  0.1869790E+00
          2   -1    0    0  501    0  0.00000000000E+00  0.00000000000E+00  0.11972466800E+03  0.11972466803E+03  0.25500000000E-02 0. -1.
         -2   -1    0    0    0  501 -0.00000000000E+00 -0.00000000000E+00 -0.46630618119E+00  0.46631315349E+00  0.25500000000E-02 0.  1.
         31    1    1    2    0    0 -0.50812701857E+00  0.26984785195E+00  0.58044170185E+02  0.58522778723E+02  0.74470750000E+01 0. -1.
        -31    1    1    2    0    0  0.50812701857E+00 -0.26984785195E+00  0.61214191633E+02  0.61668202457E+02  0.74470750000E+01 0. -1.
<mgrwt>
<rscale>  0 0.14943731E+02</rscale>
<asrwt>0</asrwt>
<pdfrwt beam="1">  1        2 0.99382313E+00 0.14943731E+02</pdfrwt>
<pdfrwt beam="2">  1       -2 0.99040623E+00 0.14943731E+02</pdfrwt>
<totfact>-0.15139004E-14</totfact>
</mgrwt>
</event>
<event>
 4    1  0.5160210E-019  0.1490388E+02  0.7818608E-02  0.1871016E+00
         -2   -1    0    0    0  501 -0.00000000000E+00  0.00000000000E+00  0.11812836762E+03  0.11812836765E+03  0.25500000000E-02 0.  1.
          2   -1    0    0  501    0  0.00000000000E+00 -0.00000000000E+00 -0.47009042691E+00  0.47009734308E+00  0.25500000000E-02 0. -1.
         31    1    1    2    0    0 -0.95971506675E-01 -0.68851344603E-01  0.60754627349E+02  0.61209456961E+02  0.74470750000E+01 0.  1.
        -31    1    1    2    0    0  0.95971506675E-01  0.68851344603E-01  0.56903649847E+02  0.57389008033E+02  0.74470750000E+01 0. -1.
<mgrwt>
<rscale>  0 0.14903882E+02</rscale>
<asrwt>0</asrwt>
<pdfrwt beam="2">  1        2 0.99835942E+00 0.14903882E+02</pdfrwt>
<pdfrwt beam="1">  1       -2 0.98065509E+00 0.14903882E+02</pdfrwt>
<totfact> 0.59218289E-13</totfact>
</mgrwt>
</event>
<event>
 4    1 -0.5160210E-019  0.1494684E+02  0.7818608E-02  0.1869695E+00
          2   -1    0    0  501    0  0.00000000000E+00  0.00000000000E+00  0.11919908462E+03  0.11919908464E+03  0.25500000000E-02 0.  1.
         -2   -1    0    0    0  501 -0.00000000000E+00 -0.00000000000E+00 -0.46855732789E+00  0.46856426669E+00  0.25500000000E-02 0. -1.
         31    1    1    2    0    0  0.54074733891E+00 -0.30369840171E+00  0.58629086849E+02  0.59103412687E+02  0.74470750000E+01 0. -1.
        -31    1    1    2    0    0 -0.54074733891E+00  0.30369840171E+00  0.60101440439E+02  0.60564236223E+02  0.74470750000E+01 0. -1.
<mgrwt>
<rscale>  0 0.14946842E+02</rscale>
<asrwt>0</asrwt>
<pdfrwt beam="1">  1        2 0.98949585E+00 0.14946842E+02</pdfrwt>
<pdfrwt beam="2">  1       -2 0.99515171E+00 0.14946842E+02</pdfrwt>
<totfact>-0.18694435E-13</totfact>
</mgrwt>
</event>
<event>
 4    1 -0.5160210E-019  0.1496230E+02  0.7818608E-02  0.1869221E+00
          2   -1    0    0  501    0  0.00000000000E+00  0.00000000000E+00  0.11918289633E+03  0.11918289635E+03  0.25500000000E-02 0.  1.
         -2   -1    0    0    0  501 -0.00000000000E+00 -0.00000000000E+00 -0.46959104845E+00  0.46959797198E+00  0.25500000000E-02 0. -1.
         31    1    1    2    0    0 -0.49342860608E+00  0.45604056917E+00  0.61270347115E+02  0.61724920465E+02  0.74470750000E+01 0.  1.
        -31    1    1    2    0    0  0.49342860608E+00 -0.45604056917E+00  0.57442958163E+02  0.57927573860E+02  0.74470750000E+01 0.  1.
<mgrwt>
<rscale>  0 0.14962304E+02</rscale>
<asrwt>0</asrwt>
<pdfrwt beam="1">  1        2 0.98937054E+00 0.14962304E+02</pdfrwt>
<pdfrwt beam="2">  1       -2 0.99733801E+00 0.14962304E+02</pdfrwt>
<totfact>-0.14049845E-13</totfact>
</mgrwt>
</event>
<event>
 4    1  0.5160210E-019  0.1494580E+02  0.7818608E-02  0.1869727E+00
          2   -1    0    0  501    0  0.00000000000E+00  0.00000000000E+00  0.12026059597E+03  0.12026059600E+03  0.25500000000E-02 0. -1.
         -2   -1    0    0    0  501 -0.00000000000E+00 -0.00000000000E+00 -0.46435639115E+00  0.46436339272E+00  0.25500000000E-02 0.  1.
         31    1    1    2    0    0 -0.32256501910E+00 -0.58211484067E-01  0.55640433241E+02  0.56137546919E+02  0.74470750000E+01 0. -1.
        -31    1    1    2    0    0  0.32256501910E+00  0.58211484067E-01  0.64155806338E+02  0.64587412471E+02  0.74470750000E+01 0. -1.
<mgrwt>
<rscale>  0 0.14945795E+02</rscale>
<asrwt>0</asrwt>
<pdfrwt beam="1">  1        2 0.99823843E+00 0.14945795E+02</pdfrwt>
<pdfrwt beam="2">  1       -2 0.98629803E+00 0.14945795E+02</pdfrwt>
<totfact> 0.15985634E-13</totfact>
</mgrwt>
</event>
<event>
 4    1 -0.5160210E-019  0.1495103E+02  0.7818608E-02  0.1869567E+00
          2   -1    0    0  501    0  0.00000000000E+00  0.00000000000E+00  0.11900839552E+03  0.11900839555E+03  0.25500000000E-02 0.  1.
         -2   -1    0    0    0  501 -0.00000000000E+00 -0.00000000000E+00 -0.46957102743E+00  0.46957795125E+00  0.25500000000E-02 0. -1.
         31    1    1    2    0    0  0.28525656301E+00 -0.24969032083E+00  0.55035785000E+02  0.55538637661E+02  0.74470750000E+01 0. -1.
        -31    1    1    2    0    0 -0.28525656301E+00  0.24969032083E+00  0.63503039492E+02  0.63939335838E+02  0.74470750000E+01 0.  1.
<mgrwt>
<rscale>  0 0.14951028E+02</rscale>
<asrwt>0</asrwt>
<pdfrwt beam="1">  1        2 0.98792748E+00 0.14951028E+02</pdfrwt>
<pdfrwt beam="2">  1       -2 0.99728992E+00 0.14951028E+02</pdfrwt>
<totfact>-0.16849737E-13</totfact>
</mgrwt>
</event>
<event>
 4    1  0.5160210E-019  0.1493699E+02  0.7818608E-02  0.1869997E+00
         -2   -1    0    0    0  501 -0.00000000000E+00  0.00000000000E+00  0.11872232493E+03  0.11872232496E+03  0.25500000000E-02 0. -1.
          2   -1    0    0  501    0  0.00000000000E+00 -0.00000000000E+00 -0.46981917591E+00  0.46982609608E+00  0.25500000000E-02 0.  1.
         31    1    1    2    0    0  0.39382599610E+00  0.40533952518E+00  0.59041125086E+02  0.59511618836E+02  0.74470750000E+01 0. -1.
        -31    1    1    2    0    0 -0.39382599610E+00 -0.40533952518E+00  0.59211380673E+02  0.59680532222E+02  0.74470750000E+01 0.  1.
<mgrwt>
<rscale>  0 0.14936993E+02</rscale>
<asrwt>0</asrwt>
<pdfrwt beam="2">  1        2 0.99780541E+00 0.14936993E+02</pdfrwt>
<pdfrwt beam="1">  1       -2 0.98556410E+00 0.14936993E+02</pdfrwt>
<totfact> 0.24204856E-13</totfact>
</mgrwt>
</event>
<event>
 4    1 -0.5160210E-019  0.1501568E+02  0.7818608E-02  0.1867590E+00
          2   -1    0    0  501    0  0.00000000000E+00  0.00000000000E+00  0.12026753113E+03  0.12026753116E+03  0.25500000000E-02 0. -1.
         -2   -1    0    0    0  501 -0.00000000000E+00 -0.00000000000E+00 -0.46868216542E+00  0.46868910238E+00  0.25500000000E-02 0.  1.
         31    1    1    2    0    0 -0.19115785876E+00 -0.68642733157E+00  0.64991257939E+02  0.65420411634E+02  0.74470750000E+01 0.  1.
        -31    1    1    2    0    0  0.19115785876E+00  0.68642733157E+00  0.54807591030E+02  0.55315808630E+02  0.74470750000E+01 0.  1.
<mgrwt>
<rscale>  0 0.15015681E+02</rscale>
<asrwt>0</asrwt>
<pdfrwt beam="1">  1        2 0.99833154E+00 0.15015681E+02</pdfrwt>
<pdfrwt beam="2">  1       -2 0.99545044E+00 0.15015681E+02</pdfrwt>
<totfact>-0.55668159E-14</totfact>
</mgrwt>
</event>
<event>
 4    1  0.5160210E-019  0.1491454E+02  0.7818608E-02  0.1870688E+00
          2   -1    0    0  501    0  0.00000000000E+00  0.00000000000E+00  0.12023396437E+03  0.12023396440E+03  0.25500000000E-02 0. -1.
         -2   -1    0    0    0  501 -0.00000000000E+00 -0.00000000000E+00 -0.46251836859E+00  0.46252539798E+00  0.25500000000E-02 0.  1.
         31    1    1    2    0    0  0.33457347590E+00  0.17479600761E+00  0.60671315821E+02  0.61127816766E+02  0.74470750000E+01 0. -1.
        -31    1    1    2    0    0 -0.33457347590E+00 -0.17479600761E+00  0.59100130179E+02  0.59568673028E+02  0.74470750000E+01 0. -1.
<mgrwt>
<rscale>  0 0.14914536E+02</rscale>
<asrwt>0</asrwt>
<pdfrwt beam="1">  1        2 0.99800302E+00 0.14914536E+02</pdfrwt>
<pdfrwt beam="2">  1       -2 0.98240824E+00 0.14914536E+02</pdfrwt>
<totfact> 0.49561444E-13</totfact>
</mgrwt>
</event>
<event>
 4    1  0.5160210E-019  0.1491398E+02  0.7818608E-02  0.1870705E+00
         -2   -1    0    0    0  501 -0.00000000000E+00  0.00000000000E+00  0.11860096429E+03  0.11860096432E+03  0.25500000000E-02 0.  1.
          2   -1    0    0  501    0  0.00000000000E+00 -0.00000000000E+00 -0.46885179663E+00  0.46885873107E+00  0.25500000000E-02 0. -1.
         31    1    1    2    0    0  0.91032552031E-02  0.27091901295E+00  0.61242035468E+02  0.61693754257E+02  0.74470750000E+01 0. -1.
        -31    1    1    2    0    0 -0.91032552031E-02 -0.27091901295E+00  0.56890077027E+02  0.57376068794E+02  0.74470750000E+01 0. -1.
<mgrwt>
<rscale>  0 0.14913979E+02</rscale>
<asrwt>0</asrwt>
<pdfrwt beam="2">  1        2 0.99575499E+00 0.14913979E+02</pdfrwt>
<pdfrwt beam="1">  1       -2 0.98455261E+00 0.14913979E+02</pdfrwt>
<totfact> 0.50166358E-13</totfact>
</mgrwt>
</event>
<event>
 4    1 -0.5160210E-019  0.1499300E+02  0.7818608E-02  0.1868282E+00
          2   -1    0    0  501    0  0.00000000000E+00  0.00000000000E+00  0.11964091954E+03  0.11964091957E+03  0.25500000000E-02 0. -1.
         -2   -1    0    0    0  501 -0.00000000000E+00 -0.00000000000E+00 -0.46971479065E+00  0.46972171236E+00  0.25500000000E-02 0.  1.
         31    1    1    2    0    0 -0.33919332880E+00 -0.77782147973E+00  0.58494726124E+02  0.58972976598E+02  0.74470750000E+01 0. -1.
        -31    1    1    2    0    0  0.33919332880E+00  0.77782147973E+00  0.60676478625E+02  0.61137664682E+02  0.74470750000E+01 0. -1.
<mgrwt>
<rscale>  0 0.14993002E+02</rscale>
<asrwt>0</asrwt>
<pdfrwt beam="1">  1        2 0.99315882E+00 0.14993002E+02</pdfrwt>
<pdfrwt beam="2">  1       -2 0.99761478E+00 0.14993002E+02</pdfrwt>
<totfact>-0.94955510E-14</totfact>
</mgrwt>
</event>
<event>
 4    1 -0.5160210E-019  0.1500846E+02  0.7818608E-02  0.1867810E+00
         -2   -1    0    0    0  501 -0.00000000000E+00  0.00000000000E+00  0.12019390199E+03  0.12019390202E+03  0.25500000000E-02 0. -1.
          2   -1    0    0  501    0  0.00000000000E+00 -0.00000000000E+00 -0.46851827665E+00  0.46852521603E+00  0.25500000000E-02 0.  1.
         31    1    1    2    0    0 -0.13034217530E+00  0.60398558206E+00  0.54334920531E+02  0.54846370006E+02  0.74470750000E+01 0.  1.
        -31    1    1    2    0    0  0.13034217530E+00 -0.60398558206E+00  0.65390463185E+02  0.65816057229E+02  0.74470750000E+01 0. -1.
<mgrwt>
<rscale>  0 0.15008459E+02</rscale>
<asrwt>0</asrwt>
<pdfrwt beam="2">  1        2 0.99510134E+00 0.15008459E+02</pdfrwt>
<pdfrwt beam="1">  1       -2 0.99772137E+00 0.15008459E+02</pdfrwt>
<totfact>-0.77747672E-14</totfact>
</mgrwt>
</event>
<event>
 4    1 -0.5160210E-019  0.1492508E+02  0.7818608E-02  0.1870363E+00
          2   -1    0    0  501    0  0.00000000000E+00  0.00000000000E+00  0.11866383836E+03  0.11866383839E+03  0.25500000000E-02 0. -1.
         -2   -1    0    0    0  501 -0.00000000000E+00 -0.00000000000E+00 -0.46930120482E+00  0.46930813262E+00  0.25500000000E-02 0.  1.
         31    1    1    2    0    0  0.37281244876E+00  0.20670564690E+00  0.60861546322E+02  0.61316950862E+02  0.74470750000E+01 0. -1.
        -31    1    1    2    0    0 -0.37281244876E+00 -0.20670564690E+00  0.57332990836E+02  0.57816195660E+02  0.74470750000E+01 0.  1.
<mgrwt>
<rscale>  0 0.14925079E+02</rscale>
<asrwt>0</asrwt>
<pdfrwt beam="1">  1        2 0.98507621E+00 0.14925079E+02</pdfrwt>
<pdfrwt beam="2">  1       -2 0.99670775E+00 0.14925079E+02</pdfrwt>
<totfact>-0.29096575E-13</totfact>
</mgrwt>
</event>
<event>
 4    1 -0.5160210E-019  0.1493081E+02  0.7818608E-02  0.1870187E+00
         -2   -1    0    0    0  501 -0.00000000000E+00  0.00000000000E+00  0.12045609111E+03  0.12045609114E+03  0.25500000000E-02 0. -1.
          2   -1    0    0  501    0  0.00000000000E+00 -0.00000000000E+00 -0.46267345119E+00  0.46268047823E+00  0.25500000000E-02 0.  1.
         31    1    1    2    0    0  0.29490122112E+00 -0.11288595855E+00  0.56622145471E+02  0.57110646939E+02  0.74470750000E+01 0.  1.
        -31    1    1    2    0    0 -0.29490122112E+00  0.11288595855E+00  0.63371272190E+02  0.63808124678E+02  0.74470750000E+01 0. -1.
<mgrwt>
<rscale>  0 0.14930809E+02</rscale>
<asrwt>0</asrwt>
<pdfrwt beam="2">  1        2 0.98274332E+00 0.14930809E+02</pdfrwt>
<pdfrwt beam="1">  1       -2 0.99984101E+00 0.14930809E+02</pdfrwt>
<totfact>-0.27887376E-14</totfact>
</mgrwt>
</event>
<event>
 4    1 -0.5160210E-019  0.1494577E+02  0.7818608E-02  0.1869728E+00
         -2   -1    0    0    0  501 -0.00000000000E+00  0.00000000000E+00  0.11940663048E+03  0.11940663051E+03  0.25500000000E-02 0.  1.
          2   -1    0    0  501    0  0.00000000000E+00 -0.00000000000E+00 -0.46767567838E+00  0.46768263027E+00  0.25500000000E-02 0. -1.
         31    1    1    2    0    0 -0.42591050959E+00  0.55383549552E-01  0.55877152598E+02  0.56372862050E+02  0.74470750000E+01 0. -1.
        -31    1    1    2    0    0  0.42591050959E+00 -0.55383549552E-01  0.63061802205E+02  0.63501451089E+02  0.74470750000E+01 0.  1.
<mgrwt>
<rscale>  0 0.14945768E+02</rscale>
<asrwt>0</asrwt>
<pdfrwt beam="2">  1        2 0.99329330E+00 0.14945768E+02</pdfrwt>
<pdfrwt beam="1">  1       -2 0.99120469E+00 0.14945768E+02</pdfrwt>
<totfact>-0.58242905E-14</totfact>
</mgrwt>
</event>
<event>
 4    1 -0.5160210E-019  0.1493385E+02  0.7818608E-02  0.1870094E+00
         -2   -1    0    0    0  501 -0.00000000000E+00  0.00000000000E+00  0.11990898899E+03  0.11990898902E+03  0.25500000000E-02 0.  1.
          2   -1    0    0  501    0  0.00000000000E+00 -0.00000000000E+00 -0.46497412236E+00  0.46498111463E+00  0.25500000000E-02 0. -1.
         31    1    1    2    0    0  0.26910080646E+00  0.33925645871E+00  0.57066167459E+02  0.57551662919E+02  0.74470750000E+01 0. -1.
        -31    1    1    2    0    0 -0.26910080646E+00 -0.33925645871E+00  0.62377847413E+02  0.62822307218E+02  0.74470750000E+01 0.  1.
<mgrwt>
<rscale>  0 0.14933854E+02</rscale>
<asrwt>0</asrwt>
<pdfrwt beam="2">  1        2 0.98759388E+00 0.14933854E+02</pdfrwt>
<pdfrwt beam="1">  1       -2 0.99533621E+00 0.14933854E+02</pdfrwt>
<totfact>-0.23259538E-13</totfact>
</mgrwt>
</event>
<event>
 4    1 -0.5160210E-019  0.1490092E+02  0.7818608E-02  0.1871107E+00
         -2   -1    0    0    0  501 -0.00000000000E+00  0.00000000000E+00  0.11980043723E+03  0.11980043726E+03  0.25500000000E-02 0. -1.
          2   -1    0    0  501    0  0.00000000000E+00 -0.00000000000E+00 -0.46334524277E+00  0.46335225962E+00  0.25500000000E-02 0.  1.
         31    1    1    2    0    0  0.11045788642E+00 -0.41040809215E-01  0.58125022655E+02  0.58600265102E+02  0.74470750000E+01 0.  1.
        -31    1    1    2    0    0 -0.11045788642E+00  0.41040809215E-01  0.61212069331E+02  0.61663524414E+02  0.74470750000E+01 0. -1.
<mgrwt>
<rscale>  0 0.14900924E+02</rscale>
<asrwt>0</asrwt>
<pdfrwt beam="2">  1        2 0.98414411E+00 0.14900924E+02</pdfrwt>
<pdfrwt beam="1">  1       -2 0.99442516E+00 0.14900924E+02</pdfrwt>
<totfact>-0.39892911E-13</totfact>
</mgrwt>
</event>
<event>
 4    1 -0.5160210E-019  0.1495234E+02  0.7818608E-02  0.1869526E+00
          2   -1    0    0  501    0  0.00000000000E+00  0.00000000000E+00  0.11878125556E+03  0.11878125559E+03  0.25500000000E-02 0.  1.
         -2   -1    0    0    0  501 -0.00000000000E+00 -0.00000000000E+00 -0.47055156012E+00  0.47055846951E+00  0.25500000000E-02 0. -1.
         31    1    1    2    0    0 -0.39781149467E+00  0.97625334108E-01  0.55038839459E+02  0.55541881133E+02  0.74470750000E+01 0. -1.
        -31    1    1    2    0    0  0.39781149467E+00 -0.97625334108E-01  0.63271864542E+02  0.63709932926E+02  0.74470750000E+01 0.  1.
<mgrwt>
<rscale>  0 0.14952340E+02</rscale>
<asrwt>0</asrwt>
<pdfrwt beam="1">  1        2 0.98605743E+00 0.14952340E+02</pdfrwt>
<pdfrwt beam="2">  1       -2 0.99935665E+00 0.14952340E+02</pdfrwt>
<totfact>-0.63217448E-14</totfact>
</mgrwt>
</event>
<event>
 4    1  0.5160210E-019  0.1491744E+02  0.7818608E-02  0.1870598E+00
         -2   -1    0    0    0  501 -0.00000000000E+00  0.00000000000E+00  0.11899239591E+03  0.11899239594E+03  0.25500000000E-02 0. -1.
          2   -1    0    0  501    0  0.00000000000E+00 -0.00000000000E+00 -0.46752638100E+00  0.46753333510E+00  0.25500000000E-02 0.  1.
         31    1    1    2    0    0  0.56028265580E-01 -0.20174400152E+00  0.62146845806E+02  0.62591798261E+02  0.74470750000E+01 0.  1.
        -31    1    1    2    0    0 -0.56028265580E-01  0.20174400152E+00  0.56378023723E+02  0.56868131012E+02  0.74470750000E+01 0.  1.
<mgrwt>
<rscale>  0 0.14917440E+02</rscale>
<asrwt>0</asrwt>
<pdfrwt beam="2">  1        2 0.99296397E+00 0.14917440E+02</pdfrwt>
<pdfrwt beam="1">  1       -2 0.98777828E+00 0.14917440E+02</pdfrwt>
<totfact> 0.20227836E-13</totfact>
</mgrwt>
</event>
<event>
 4    1  0.5160210E-019  0.1489742E+02  0.7818608E-02  0.1871215E+00
          2   -1    0    0  501    0  0.00000000000E+00  0.00000000000E+00  0.12003166659E+03  0.12003166662E+03  0.25500000000E-02 0. -1.
         -2   -1    0    0    0  501 -0.00000000000E+00 -0.00000000000E+00 -0.46223529347E+00  0.46224232717E+00  0.25500000000E-02 0.  1.
         31    1    1    2    0    0 -0.54768873968E-01  0.84887160241E-01  0.60747403204E+02  0.61202255902E+02  0.74470750000E+01 0. -1.
        -31    1    1    2    0    0  0.54768873968E-01 -0.84887160241E-01  0.58822028092E+02  0.59291653041E+02  0.74470750000E+01 0.  1.
<mgrwt>
<rscale>  0 0.14897422E+02</rscale>
<asrwt>0</asrwt>
<pdfrwt beam="1">  1        2 0.99632794E+00 0.14897422E+02</pdfrwt>
<pdfrwt beam="2">  1       -2 0.98180295E+00 0.14897422E+02</pdfrwt>
<totfact> 0.85780413E-13</totfact>
</mgrwt>
</event>
<event>
 4    1 -0.5160210E-019  0.1496472E+02  0.7818608E-02  0.1869147E+00
          2   -1    0    0  501    0  0.00000000000E+00  0.00000000000E+00  0.11951694532E+03  0.11951694535E+03  0.25500000000E-02 0. -1.
         -2   -1    0    0    0  501 -0.00000000000E+00 -0.00000000000E+00 -0.46842957484E+00  0.46843651554E+00  0.25500000000E-02 0.  1.
         31    1    1    2    0    0 -0.80266429274E-02  0.32456327512E+00  0.54319680129E+02  0.54828751409E+02  0.74470750000E+01 0.  1.
        -31    1    1    2    0    0  0.80266429274E-02 -0.32456327512E+00  0.64728835615E+02  0.65156630452E+02  0.74470750000E+01 0. -1.
<mgrwt>
<rscale>  0 0.14964717E+02</rscale>
<asrwt>0</asrwt>
<pdfrwt beam="1">  1        2 0.99212309E+00 0.14964717E+02</pdfrwt>
<pdfrwt beam="2">  1       -2 0.99489181E+00 0.14964717E+02</pdfrwt>
<totfact>-0.15025582E-13</totfact>
</mgrwt>
</event>
<event>
 4    1 -0.5160210E-019  0.1497657E+02  0.7818608E-02  0.1868784E+00
         -2   -1    0    0    0  501 -0.00000000000E+00  0.00000000000E+00  0.11983460232E+03  0.11983460235E+03  0.25500000000E-02 0. -1.
          2   -1    0    0  501    0  0.00000000000E+00 -0.00000000000E+00 -0.46792813888E+00  0.46793508701E+00  0.25500000000E-02 0.  1.
         31    1    1    2    0    0  0.43573352260E+00 -0.50078631279E+00  0.56324688011E+02  0.56818747401E+02  0.74470750000E+01 0.  1.
        -31    1    1    2    0    0 -0.43573352260E+00  0.50078631279E+00  0.63041986169E+02  0.63483790032E+02  0.74470750000E+01 0. -1.
<mgrwt>
<rscale>  0 0.14976569E+02</rscale>
<asrwt>0</asrwt>
<pdfrwt beam="2">  1        2 0.99384125E+00 0.14976569E+02</pdfrwt>
<pdfrwt beam="1">  1       -2 0.99474555E+00 0.14976569E+02</pdfrwt>
<totfact>-0.13261175E-13</totfact>
</mgrwt>
</event>
<event>
 4    1 -0.5160210E-019  0.1495202E+02  0.7818608E-02  0.1869536E+00
          2   -1    0    0  501    0  0.00000000000E+00  0.00000000000E+00  0.11909687400E+03  0.11909687402E+03  0.25500000000E-02 0.  1.
         -2   -1    0    0    0  501 -0.00000000000E+00 -0.00000000000E+00 -0.46928430187E+00  0.46929122992E+00  0.25500000000E-02 0. -1.
         31    1    1    2    0    0 -0.57274167177E+00 -0.25189375270E+00  0.60919105447E+02  0.61375791791E+02  0.74470750000E+01 0.  1.
        -31    1    1    2    0    0  0.57274167177E+00  0.25189375270E+00  0.57708484247E+02  0.58190373462E+02  0.74470750000E+01 0. -1.
<mgrwt>
<rscale>  0 0.14952018E+02</rscale>
<asrwt>0</asrwt>
<pdfrwt beam="1">  1        2 0.98865671E+00 0.14952018E+02</pdfrwt>
<pdfrwt beam="2">  1       -2 0.99668627E+00 0.14952018E+02</pdfrwt>
<totfact>-0.17544904E-13</totfact>
</mgrwt>
</event>
<event>
 4    1 -0.5160210E-019  0.1493456E+02  0.7818608E-02  0.1870072E+00
          2   -1    0    0  501    0  0.00000000000E+00  0.00000000000E+00  0.11876661730E+03  0.11876661733E+03  0.25500000000E-02 0. -1.
         -2   -1    0    0    0  501 -0.00000000000E+00 -0.00000000000E+00 -0.46949103644E+00  0.46949796144E+00  0.25500000000E-02 0.  1.
         31    1    1    2    0    0  0.31647289691E+00 -0.44703600283E+00  0.59442388308E+02  0.59909568936E+02  0.74470750000E+01 0. -1.
        -31    1    1    2    0    0 -0.31647289691E+00  0.44703600283E+00  0.58854737958E+02  0.59326546355E+02  0.74470750000E+01 0.  1.
<mgrwt>
<rscale>  0 0.14934561E+02</rscale>
<asrwt>0</asrwt>
<pdfrwt beam="1">  1        2 0.98592763E+00 0.14934561E+02</pdfrwt>
<pdfrwt beam="2">  1       -2 0.99711273E+00 0.14934561E+02</pdfrwt>
<totfact>-0.23404715E-13</totfact>
</mgrwt>
</event>
<event>
 4    1 -0.5160210E-019  0.1499980E+02  0.7818608E-02  0.1868075E+00
          2   -1    0    0  501    0  0.00000000000E+00  0.00000000000E+00  0.11969702303E+03  0.11969702306E+03  0.25500000000E-02 0.  1.
         -2   -1    0    0    0  501 -0.00000000000E+00 -0.00000000000E+00 -0.46992056677E+00  0.46992748544E+00  0.25500000000E-02 0. -1.
         31    1    1    2    0    0  0.53414284235E+00  0.68749835608E+00  0.58188955832E+02  0.58670021898E+02  0.74470750000E+01 0. -1.
        -31    1    1    2    0    0 -0.53414284235E+00 -0.68749835608E+00  0.61038146634E+02  0.61496928648E+02  0.74470750000E+01 0.  1.
<mgrwt>
<rscale>  0 0.14999801E+02</rscale>
<asrwt>0</asrwt>
<pdfrwt beam="1">  1        2 0.99362442E+00 0.14999801E+02</pdfrwt>
<pdfrwt beam="2">  1       -2 0.99805194E+00 0.14999801E+02</pdfrwt>
<totfact>-0.78295223E-14</totfact>
</mgrwt>
</event>
<event>
 4    1  0.5160210E-019  0.1492626E+02  0.7818608E-02  0.1870327E+00
         -2   -1    0    0    0  501 -0.00000000000E+00  0.00000000000E+00  0.11886201958E+03  0.11886201961E+03  0.25500000000E-02 0.  1.
          2   -1    0    0  501    0  0.00000000000E+00 -0.00000000000E+00 -0.46859291382E+00  0.46859985209E+00  0.25500000000E-02 0. -1.
         31    1    1    2    0    0 -0.42256509581E+00  0.21491762246E+00  0.60163996512E+02  0.60624996109E+02  0.74470750000E+01 0. -1.
        -31    1    1    2    0    0  0.42256509581E+00 -0.21491762246E+00  0.58229430152E+02  0.58705623348E+02  0.74470750000E+01 0.  1.
<mgrwt>
<rscale>  0 0.14926261E+02</rscale>
<asrwt>0</asrwt>
<pdfrwt beam="2">  1        2 0.99521594E+00 0.14926261E+02</pdfrwt>
<pdfrwt beam="1">  1       -2 0.98670905E+00 0.14926261E+02</pdfrwt>
<totfact> 0.26999063E-13</totfact>
</mgrwt>
</event>
<event>
 4    1 -0.5160210E-019  0.1496003E+02  0.7818608E-02  0.1869291E+00
          2   -1    0    0  501    0  0.00000000000E+00  0.00000000000E+00  0.11950953298E+03  0.11950953301E+03  0.25500000000E-02 0.  1.
         -2   -1    0    0    0  501 -0.00000000000E+00 -0.00000000000E+00 -0.46816515236E+00  0.46817209698E+00  0.25500000000E-02 0. -1.
         31    1    1    2    0    0  0.58272831301E+00  0.22447008460E+00  0.62078659818E+02  0.62526865345E+02  0.74470750000E+01 0.  1.
        -31    1    1    2    0    0 -0.58272831301E+00 -0.22447008460E+00  0.56962708008E+02  0.57450839757E+02  0.74470750000E+01 0. -1.
<mgrwt>
<rscale>  0 0.14960029E+02</rscale>
<asrwt>0</asrwt>
<pdfrwt beam="1">  1        2 0.99205961E+00 0.14960029E+02</pdfrwt>
<pdfrwt beam="2">  1       -2 0.99433216E+00 0.14960029E+02</pdfrwt>
<totfact>-0.14997649E-13</totfact>
</mgrwt>
</event>
<event>
 4    1 -0.5160210E-019  0.1503182E+02  0.7818608E-02  0.1867099E+00
         -2   -1    0    0    0  501 -0.00000000000E+00  0.00000000000E+00  0.12041427193E+03  0.12041427196E+03  0.25500000000E-02 0.  1.
          2   -1    0    0  501    0  0.00000000000E+00 -0.00000000000E+00 -0.46911804414E+00  0.46912497465E+00  0.25500000000E-02 0. -1.
         31    1    1    2    0    0 -0.84818890717E+00 -0.15239435045E+00  0.55661721876E+02  0.56164302335E+02  0.74470750000E+01 0. -1.
        -31    1    1    2    0    0  0.84818890717E+00  0.15239435045E+00  0.64283432012E+02  0.64719094599E+02  0.74470750000E+01 0. -1.
<mgrwt>
<rscale>  0 0.15031823E+02</rscale>
<asrwt>0</asrwt>
<pdfrwt beam="2">  1        2 0.99637733E+00 0.15031823E+02</pdfrwt>
<pdfrwt beam="1">  1       -2 0.99954850E+00 0.15031823E+02</pdfrwt>
<totfact>-0.15254706E-14</totfact>
</mgrwt>
</event>
<event>
 4    1  0.5160210E-019  0.1490380E+02  0.7818608E-02  0.1871018E+00
          2   -1    0    0  501    0  0.00000000000E+00  0.00000000000E+00  0.11955475910E+03  0.11955475913E+03  0.25500000000E-02 0. -1.
         -2   -1    0    0    0  501 -0.00000000000E+00 -0.00000000000E+00 -0.46447652334E+00  0.46448352311E+00  0.25500000000E-02 0.  1.
         31    1    1    2    0    0  0.11656518473E+00  0.22466148899E+00  0.60257006602E+02  0.60715976735E+02  0.74470750000E+01 0. -1.
        -31    1    1    2    0    0 -0.11656518473E+00 -0.22466148899E+00  0.58833275977E+02  0.59303265917E+02  0.74470750000E+01 0. -1.
<mgrwt>
<rscale>  0 0.14903798E+02</rscale>
<asrwt>0</asrwt>
<pdfrwt beam="1">  1        2 0.99240307E+00 0.14903798E+02</pdfrwt>
<pdfrwt beam="2">  1       -2 0.98652980E+00 0.14903798E+02</pdfrwt>
<totfact> 0.36455128E-13</totfact>
</mgrwt>
</event>
<event>
 4    1 -0.5160210E-019  0.1497339E+02  0.7818608E-02  0.1868882E+00
          2   -1    0    0  501    0  0.00000000000E+00  0.00000000000E+00  0.11983680382E+03  0.11983680384E+03  0.25500000000E-02 0.  1.
         -2   -1    0    0    0  501 -0.00000000000E+00 -0.00000000000E+00 -0.46772078173E+00  0.46772773294E+00  0.25500000000E-02 0. -1.
         31    1    1    2    0    0  0.64782102111E+00  0.38085739207E+00  0.61003110955E+02  0.61460582463E+02  0.74470750000E+01 0.  1.
        -31    1    1    2    0    0 -0.64782102111E+00 -0.38085739207E+00  0.58365972080E+02  0.58843949114E+02  0.74470750000E+01 0.  1.
<mgrwt>
<rscale>  0 0.14973388E+02</rscale>
<asrwt>0</asrwt>
<pdfrwt beam="1">  1        2 0.99476204E+00 0.14973388E+02</pdfrwt>
<pdfrwt beam="2">  1       -2 0.99340263E+00 0.14973388E+02</pdfrwt>
<totfact>-0.11279605E-13</totfact>
</mgrwt>
</event>
<event>
 4    1  0.5160210E-019  0.1491028E+02  0.7818608E-02  0.1870819E+00
          2   -1    0    0  501    0  0.00000000000E+00  0.00000000000E+00  0.11956129351E+03  0.11956129354E+03  0.25500000000E-02 0.  1.
         -2   -1    0    0    0  501 -0.00000000000E+00 -0.00000000000E+00 -0.46485498508E+00  0.46486197914E+00  0.25500000000E-02 0. -1.
         31    1    1    2    0    0 -0.34536473177E+00  0.22056397885E-01  0.59708276729E+02  0.60171895427E+02  0.74470750000E+01 0.  1.
        -31    1    1    2    0    0  0.34536473177E+00 -0.22056397885E-01  0.59388161798E+02  0.59854260092E+02  0.74470750000E+01 0. -1.
<mgrwt>
<rscale>  0 0.14910276E+02</rscale>
<asrwt>0</asrwt>
<pdfrwt beam="1">  1        2 0.99246023E+00 0.14910276E+02</pdfrwt>
<pdfrwt beam="2">  1       -2 0.98733072E+00 0.14910276E+02</pdfrwt>
<totfact> 0.26110343E-13</totfact>
</mgrwt>
</event>
<event>
 4    1 -0.5160210E-019  0.1491985E+02  0.7818608E-02  0.1870524E+00
         -2   -1    0    0    0  501 -0.00000000000E+00  0.00000000000E+00  0.12018847925E+03  0.12018847927E+03  0.25500000000E-02 0.  1.
          2   -1    0    0  501    0  0.00000000000E+00 -0.00000000000E+00 -0.46302326338E+00  0.46303028511E+00  0.25500000000E-02 0. -1.
         31    1    1    2    0    0 -0.12250710998E+00  0.40921141810E+00  0.60634105240E+02  0.61091211367E+02  0.74470750000E+01 0.  1.
        -31    1    1    2    0    0  0.12250710998E+00 -0.40921141810E+00  0.59091350742E+02  0.59560298191E+02  0.74470750000E+01 0.  1.
<mgrwt>
<rscale>  0 0.14919851E+02</rscale>
<asrwt>0</asrwt>
<pdfrwt beam="2">  1        2 0.98347510E+00 0.14919851E+02</pdfrwt>
<pdfrwt beam="1">  1       -2 0.99763110E+00 0.14919851E+02</pdfrwt>
<totfact>-0.30308453E-13</totfact>
</mgrwt>
</event>
<event>
 4    1  0.5160210E-019  0.1491128E+02  0.7818608E-02  0.1870788E+00
         -2   -1    0    0    0  501 -0.00000000000E+00  0.00000000000E+00  0.11835440518E+03  0.11835440521E+03  0.25500000000E-02 0.  1.
          2   -1    0    0  501    0  0.00000000000E+00 -0.00000000000E+00 -0.46965835294E+00  0.46966527547E+00  0.25500000000E-02 0. -1.
         31    1    1    2    0    0  0.10745744071E+00  0.33935330520E+00  0.58701446878E+02  0.59173013269E+02  0.74470750000E+01 0.  1.
        -31    1    1    2    0    0 -0.10745744071E+00 -0.33935330520E+00  0.59183299954E+02  0.59651057218E+02  0.74470750000E+01 0.  1.
<mgrwt>
<rscale>  0 0.14911277E+02</rscale>
<asrwt>0</asrwt>
<pdfrwt beam="2">  1        2 0.99745299E+00 0.14911277E+02</pdfrwt>
<pdfrwt beam="1">  1       -2 0.98252055E+00 0.14911277E+02</pdfrwt>
<totfact> 0.58120604E-13</totfact>
</mgrwt>
</event>
<event>
 4    1 -0.5160210E-019  0.1495921E+02  0.7818608E-02  0.1869316E+00
         -2   -1    0    0    0  501 -0.00000000000E+00  0.00000000000E+00  0.11970771616E+03  0.11970771619E+03  0.25500000000E-02 0. -1.
          2   -1    0    0  501    0  0.00000000000E+00 -0.00000000000E+00 -0.46733870393E+00  0.46734566083E+00  0.25500000000E-02 0.  1.
         31    1    1    2    0    0 -0.58344719610E+00 -0.16831273924E+00  0.62365756999E+02  0.62811745015E+02  0.74470750000E+01 0. -1.
        -31    1    1    2    0    0  0.58344719610E+00  0.16831273924E+00  0.56874620461E+02  0.57363316836E+02  0.74470750000E+01 0.  1.
<mgrwt>
<rscale>  0 0.14959207E+02</rscale>
<asrwt>0</asrwt>
<pdfrwt beam="2">  1        2 0.99259014E+00 0.14959207E+02</pdfrwt>
<pdfrwt beam="1">  1       -2 0.99369149E+00 0.14959207E+02</pdfrwt>
<totfact>-0.13840221E-13</totfact>
</mgrwt>
</event>
<event>
 4    1 -0.5160210E-019  0.1493450E+02  0.7818608E-02  0.1870074E+00
         -2   -1    0    0    0  501 -0.00000000000E+00  0.00000000000E+00  0.12005764092E+03  0.12005764094E+03  0.25500000000E-02 0.  1.
          2   -1    0    0  501    0  0.00000000000E+00 -0.00000000000E+00 -0.46443849829E+00  0.46444549863E+00  0.25500000000E-02 0. -1.
         31    1    1    2    0    0  0.23215284167E+00  0.33313350443E+00  0.56820351260E+02  0.57307731732E+02  0.74470750000E+01 0. -1.
        -31    1    1    2    0    0 -0.23215284167E+00 -0.33313350443E+00  0.62772851159E+02  0.63214354712E+02  0.74470750000E+01 0.  1.
<mgrwt>
<rscale>  0 0.14934499E+02</rscale>
<asrwt>0</asrwt>
<pdfrwt beam="2">  1        2 0.98646534E+00 0.14934499E+02</pdfrwt>
<pdfrwt beam="1">  1       -2 0.99656094E+00 0.14934499E+02</pdfrwt>
<totfact>-0.24035829E-13</totfact>
</mgrwt>
</event>
<event>
 4    1 -0.5160210E-019  0.1496087E+02  0.7818608E-02  0.1869265E+00
         -2   -1    0    0    0  501 -0.00000000000E+00  0.00000000000E+00  0.11972215936E+03  0.11972215938E+03  0.25500000000E-02 0. -1.
          2   -1    0    0  501    0  0.00000000000E+00 -0.00000000000E+00 -0.46738622534E+00  0.46739318153E+00  0.25500000000E-02 0.  1.
         31    1    1    2    0    0  0.53965308641E+00 -0.10532141982E+00  0.63180957623E+02  0.63620709288E+02  0.74470750000E+01 0. -1.
        -31    1    1    2    0    0 -0.53965308641E+00  0.10532141982E+00  0.56073815509E+02  0.56568843278E+02  0.74470750000E+01 0.  1.
<mgrwt>
<rscale>  0 0.14960870E+02</rscale>
<asrwt>0</asrwt>
<pdfrwt beam="2">  1        2 0.99269114E+00 0.14960870E+02</pdfrwt>
<pdfrwt beam="1">  1       -2 0.99381131E+00 0.14960870E+02</pdfrwt>
<totfact>-0.13891515E-13</totfact>
</mgrwt>
</event>
<event>
 4    1 -0.5160210E-019  0.1501238E+02  0.7818608E-02  0.1867691E+00
          2   -1    0    0  501    0  0.00000000000E+00  0.00000000000E+00  0.11991441133E+03  0.11991441136E+03  0.25500000000E-02 0.  1.
         -2   -1    0    0    0  501 -0.00000000000E+00 -0.00000000000E+00 -0.46985595431E+00  0.46986287394E+00  0.25500000000E-02 0. -1.
         31    1    1    2    0    0  0.30661634373E+00 -0.67641307569E+00  0.64345868166E+02  0.64779635877E+02  0.74470750000E+01 0.  1.
        -31    1    1    2    0    0 -0.30661634373E+00  0.67641307569E+00  0.55098687213E+02  0.55604638358E+02  0.74470750000E+01 0. -1.
<mgrwt>
<rscale>  0 0.15012384E+02</rscale>
<asrwt>0</asrwt>
<pdfrwt beam="1">  1        2 0.99542141E+00 0.15012384E+02</pdfrwt>
<pdfrwt beam="2">  1       -2 0.99792232E+00 0.15012384E+02</pdfrwt>
<totfact>-0.69795537E-14</totfact>
</mgrwt>
</event>
<event>
 4    1 -0.5160210E-019  0.1501664E+02  0.7818608E-02  0.1867561E+00
         -2   -1    0    0    0  501 -0.00000000000E+00  0.00000000000E+00  0.12017018106E+03  0.12017018108E+03  0.25500000000E-02 0.  1.
          2   -1    0    0  501    0  0.00000000000E+00 -0.00000000000E+00 -0.46912149280E+00  0.46912842326E+00  0.25500000000E-02 0. -1.
         31    1    1    2    0    0 -0.54384515988E+00 -0.28070844260E-01  0.53528081787E+02  0.54046378430E+02  0.74470750000E+01 0. -1.
        -31    1    1    2    0    0  0.54384515988E+00  0.28070844260E-01  0.66172977776E+02  0.66592931076E+02  0.74470750000E+01 0.  1.
<mgrwt>
<rscale>  0 0.15016635E+02</rscale>
<asrwt>0</asrwt>
<pdfrwt beam="2">  1        2 0.99637677E+00 0.15016635E+02</pdfrwt>
<pdfrwt beam="1">  1       -2 0.99753022E+00 0.15016635E+02</pdfrwt>
<totfact>-0.69610436E-14</totfact>
</mgrwt>
</event>
<event>
 4    1 -0.5160210E-019  0.1493155E+02  0.7818608E-02  0.1870164E+00
          2   -1    0    0  501    0  0.00000000000E+00  0.00000000000E+00  0.11848708211E+03  0.11848708214E+03  0.25500000000E-02 0. -1.
         -2   -1    0    0    0  501 -0.00000000000E+00 -0.00000000000E+00 -0.47040912091E+00  0.47041603239E+00  0.25500000000E-02 0.  1.
         31    1    1    2    0    0  0.35879505115E-01  0.17974516344E+00  0.62954102395E+02  0.63393308244E+02  0.74470750000E+01 0. -1.
        -31    1    1    2    0    0 -0.35879505115E-01 -0.17974516344E+00  0.55062570592E+02  0.55564189924E+02  0.74470750000E+01 0.  1.
<mgrwt>
<rscale>  0 0.14931553E+02</rscale>
<asrwt>0</asrwt>
<pdfrwt beam="1">  1        2 0.98362383E+00 0.14931553E+02</pdfrwt>
<pdfrwt beam="2">  1       -2 0.99904555E+00 0.14931553E+02</pdfrwt>
<totfact>-0.13574559E-13</totfact>
</mgrwt>
</event>
<event>
 4    1 -0.5160210E-019  0.1497986E+02  0.7818608E-02  0.1868684E+00
          2   -1    0    0  501    0  0.00000000000E+00  0.00000000000E+00  0.11986714337E+03  0.11986714340E+03  0.25500000000E-02 0. -1.
         -2   -1    0    0    0  501 -0.00000000000E+00 -0.00000000000E+00 -0.46800653169E+00  0.46801347865E+00  0.25500000000E-02 0.  1.
         31    1    1    2    0    0 -0.76290865102E+00 -0.10656882125E+00  0.61435785695E+02  0.61890290648E+02  0.74470750000E+01 0. -1.
        -31    1    1    2    0    0  0.76290865102E+00  0.10656882125E+00  0.57963351147E+02  0.58444866232E+02  0.74470750000E+01 0.  1.
<mgrwt>
<rscale>  0 0.14979857E+02</rscale>
<asrwt>0</asrwt>
<pdfrwt beam="1">  1        2 0.99501527E+00 0.14979857E+02</pdfrwt>
<pdfrwt beam="2">  1       -2 0.99400815E+00 0.14979857E+02</pdfrwt>
<totfact>-0.11659552E-13</totfact>
</mgrwt>
</event>
<event>
 4    1  0.5160210E-019  0.1490214E+02  0.7818608E-02  0.1871070E+00
          2   -1    0    0  501    0  0.00000000000E+00  0.00000000000E+00  0.12012278808E+03  0.12012278811E+03  0.25500000000E-02 0.  1.
         -2   -1    0    0    0  501 -0.00000000000E+00 -0.00000000000E+00 -0.46217697824E+00  0.46218401283E+00  0.25500000000E-02 0. -1.
         31    1    1    2    0    0 -0.15849619039E+00 -0.15985217243E+00  0.60589950405E+02  0.61046307750E+02  0.74470750000E+01 0.  1.
        -31    1    1    2    0    0  0.15849619039E+00  0.15985217243E+00  0.59070660701E+02  0.59538664375E+02  0.74470750000E+01 0. -1.
<mgrwt>
<rscale>  0 0.14902136E+02</rscale>
<asrwt>0</asrwt>
<pdfrwt beam="1">  1        2 0.99708092E+00 0.14902136E+02</pdfrwt>
<pdfrwt beam="2">  1       -2 0.98168242E+00 0.14902136E+02</pdfrwt>
<totfact> 0.75691038E-13</totfact>
</mgrwt>
</event>
<event>
 4    1  0.5160210E-019  0.1490222E+02  0.7818608E-02  0.1871067E+00
          2   -1    0    0  501    0  0.00000000000E+00  0.00000000000E+00  0.12006327426E+03  0.12006327429E+03  0.25500000000E-02 0. -1.
         -2   -1    0    0    0  501 -0.00000000000E+00 -0.00000000000E+00 -0.46241116752E+00  0.46241819855E+00  0.25500000000E-02 0.  1.
         31    1    1    2    0    0 -0.21155328018E-01  0.24403715605E+00  0.59879853868E+02  0.60341659134E+02  0.74470750000E+01 0. -1.
        -31    1    1    2    0    0  0.21155328018E-01 -0.24403715605E+00  0.59721009229E+02  0.60184033357E+02  0.74470750000E+01 0. -1.
<mgrwt>
<rscale>  0 0.14902218E+02</rscale>
<asrwt>0</asrwt>
<pdfrwt beam="1">  1        2 0.99659075E+00 0.14902218E+02</pdfrwt>
<pdfrwt beam="2">  1       -2 0.98217606E+00 0.14902218E+02</pdfrwt>
<totfact> 0.76046942E-13</totfact>
</mgrwt>
</event>
<event>
 4    1 -0.5160210E-019  0.1495184E+02  0.7818608E-02  0.1869542E+00
         -2   -1    0    0    0  501 -0.00000000000E+00  0.00000000000E+00  0.12028653569E+03  0.12028653572E+03  0.25500000000E-02 0. -1.
          2   -1    0    0  501    0  0.00000000000E+00 -0.00000000000E+00 -0.46463192084E+00  0.46463891826E+00  0.25500000000E-02 0.  1.
         31    1    1    2    0    0  0.62928344487E+00  0.16367390142E+00  0.60618484796E+02  0.61077675233E+02  0.74470750000E+01 0. -1.
        -31    1    1    2    0    0 -0.62928344487E+00 -0.16367390142E+00  0.59203418977E+02  0.59673499406E+02  0.74470750000E+01 0.  1.
<mgrwt>
<rscale>  0 0.14951841E+02</rscale>
<asrwt>0</asrwt>
<pdfrwt beam="2">  1        2 0.98688182E+00 0.14951841E+02</pdfrwt>
<pdfrwt beam="1">  1       -2 0.99845520E+00 0.14951841E+02</pdfrwt>
<totfact>-0.12450597E-13</totfact>
</mgrwt>
</event>
<event>
 4    1 -0.5160210E-019  0.1492746E+02  0.7818608E-02  0.1870290E+00
          2   -1    0    0  501    0  0.00000000000E+00  0.00000000000E+00  0.11836811390E+03  0.11836811393E+03  0.25500000000E-02 0. -1.
         -2   -1    0    0    0  501 -0.00000000000E+00 -0.00000000000E+00 -0.47062357346E+00  0.47063048180E+00  0.25500000000E-02 0.  1.
         31    1    1    2    0    0 -0.31597763674E+00  0.20285035621E+00  0.61556783396E+02  0.62006753651E+02  0.74470750000E+01 0. -1.
        -31    1    1    2    0    0  0.31597763674E+00 -0.20285035621E+00  0.56340706928E+02  0.56831990756E+02  0.74470750000E+01 0.  1.
<mgrwt>
<rscale>  0 0.14927456E+02</rscale>
<asrwt>0</asrwt>
<pdfrwt beam="1">  1        2 0.98264189E+00 0.14927456E+02</pdfrwt>
<pdfrwt beam="2">  1       -2 0.99949522E+00 0.14927456E+02</pdfrwt>
<totfact>-0.87794013E-14</totfact>
</mgrwt>
</event>
<event>
 4    1  0.5160210E-019  0.1492916E+02  0.7818608E-02  0.1870238E+00
          2   -1    0    0  501    0  0.00000000000E+00  0.00000000000E+00  0.11997702514E+03  0.11997702517E+03  0.25500000000E-02 0. -1.
         -2   -1    0    0    0  501 -0.00000000000E+00 -0.00000000000E+00 -0.46441806987E+00  0.46442507051E+00  0.25500000000E-02 0.  1.
         31    1    1    2    0    0 -0.28674814408E+00 -0.38618776042E+00  0.61145000349E+02  0.61598712318E+02  0.74470750000E+01 0.  1.
        -31    1    1    2    0    0  0.28674814408E+00  0.38618776042E+00  0.58367606722E+02  0.58842737921E+02  0.74470750000E+01 0.  1.
<mgrwt>
<rscale>  0 0.14929156E+02</rscale>
<asrwt>0</asrwt>
<pdfrwt beam="1">  1        2 0.99589418E+00 0.14929156E+02</pdfrwt>
<pdfrwt beam="2">  1       -2 0.98641957E+00 0.14929156E+02</pdfrwt>
<totfact> 0.27673245E-13</totfact>
</mgrwt>
</event>
<event>
 4    1  0.5160210E-019  0.1492548E+02  0.7818608E-02  0.1870351E+00
         -2   -1    0    0    0  501 -0.00000000000E+00  0.00000000000E+00  0.11898107540E+03  0.11898107543E+03  0.25500000000E-02 0.  1.
          2   -1    0    0  501    0  0.00000000000E+00 -0.00000000000E+00 -0.46807478380E+00  0.46808172975E+00  0.25500000000E-02 0. -1.
         31    1    1    2    0    0  0.98339807201E-01 -0.30505336043E+00  0.56362062362E+02  0.56852825154E+02  0.74470750000E+01 0. -1.
        -31    1    1    2    0    0 -0.98339807201E-01  0.30505336043E+00  0.62150938255E+02  0.62596332003E+02  0.74470750000E+01 0.  1.
<mgrwt>
<rscale>  0 0.14925476E+02</rscale>
<asrwt>0</asrwt>
<pdfrwt beam="2">  1        2 0.99412375E+00 0.14925476E+02</pdfrwt>
<pdfrwt beam="1">  1       -2 0.98768921E+00 0.14925476E+02</pdfrwt>
<totfact> 0.19395663E-13</totfact>
</mgrwt>
</event>
<event>
 4    1  0.5160210E-019  0.1491432E+02  0.7818608E-02  0.1870694E+00
         -2   -1    0    0    0  501 -0.00000000000E+00  0.00000000000E+00  0.11884272598E+03  0.11884272600E+03  0.25500000000E-02 0.  1.
          2   -1    0    0  501    0  0.00000000000E+00 -0.00000000000E+00 -0.46791944624E+00  0.46792639450E+00  0.25500000000E-02 0. -1.
         31    1    1    2    0    0 -0.34239355772E-01  0.33354314698E+00  0.57630241589E+02  0.58110378548E+02  0.74470750000E+01 0. -1.
        -31    1    1    2    0    0  0.34239355772E-01 -0.33354314698E+00  0.60744564942E+02  0.61200273851E+02  0.74470750000E+01 0.  1.
<mgrwt>
<rscale>  0 0.14914320E+02</rscale>
<asrwt>0</asrwt>
<pdfrwt beam="2">  1        2 0.99379060E+00 0.14914320E+02</pdfrwt>
<pdfrwt beam="1">  1       -2 0.98654395E+00 0.14914320E+02</pdfrwt>
<totfact> 0.32756586E-13</totfact>
</mgrwt>
</event>
<event>
 4    1 -0.5160210E-019  0.1494195E+02  0.7818608E-02  0.1869845E+00
          2   -1    0    0  501    0  0.00000000000E+00  0.00000000000E+00  0.11888715455E+03  0.11888715457E+03  0.25500000000E-02 0. -1.
         -2   -1    0    0    0  501 -0.00000000000E+00 -0.00000000000E+00 -0.46947942458E+00  0.46948634975E+00  0.25500000000E-02 0.  1.
         31    1    1    2    0    0  0.24102422948E+00  0.49572389383E+00  0.57374600857E+02  0.57858513500E+02  0.74470750000E+01 0. -1.
        -31    1    1    2    0    0 -0.24102422948E+00 -0.49572389383E+00  0.61043074264E+02  0.61498127423E+02  0.74470750000E+01 0.  1.
<mgrwt>
<rscale>  0 0.14941953E+02</rscale>
<asrwt>0</asrwt>
<pdfrwt beam="1">  1        2 0.98692422E+00 0.14941953E+02</pdfrwt>
<pdfrwt beam="2">  1       -2 0.99709214E+00 0.14941953E+02</pdfrwt>
<totfact>-0.20268779E-13</totfact>
</mgrwt>
</event>
<event>
 4    1 -0.5160210E-019  0.1493963E+02  0.7818608E-02  0.1869916E+00
         -2   -1    0    0    0  501 -0.00000000000E+00  0.00000000000E+00  0.12010414607E+03  0.12010414609E+03  0.25500000000E-02 0. -1.
          2   -1    0    0  501    0  0.00000000000E+00 -0.00000000000E+00 -0.46457780424E+00  0.46458480248E+00  0.25500000000E-02 0.  1.
         31    1    1    2    0    0 -0.26981775732E+00 -0.12350204299E-01  0.55655399289E+02  0.56152073428E+02  0.74470750000E+01 0.  1.
        -31    1    1    2    0    0  0.26981775732E+00  0.12350204299E-01  0.63984168974E+02  0.64416657469E+02  0.74470750000E+01 0.  1.
<mgrwt>
<rscale>  0 0.14939631E+02</rscale>
<asrwt>0</asrwt>
<pdfrwt beam="2">  1        2 0.98676156E+00 0.14939631E+02</pdfrwt>
<pdfrwt beam="1">  1       -2 0.99694662E+00 0.14939631E+02</pdfrwt>
<totfact>-0.21421412E-13</totfact>
</mgrwt>
</event>
<event>
 4    1  0.5160210E-019  0.1490912E+02  0.7818608E-02  0.1870855E+00
          2   -1    0    0  501    0  0.00000000000E+00  0.00000000000E+00  0.12040166157E+03  0.12040166160E+03  0.25500000000E-02 0.  1.
         -2   -1    0    0    0  501 -0.00000000000E+00 -0.00000000000E+00 -0.46153855447E+00  0.46154559879E+00  0.25500000000E-02 0. -1.
         31    1    1    2    0    0 -0.28059721320E+00  0.68878588134E-01  0.61327318076E+02  0.61778494215E+02  0.74470750000E+01 0.  1.
        -31    1    1    2    0    0  0.28059721320E+00 -0.68878588134E-01  0.58612804940E+02  0.59084712981E+02  0.74470750000E+01 0. -1.
<mgrwt>
<rscale>  0 0.14909116E+02</rscale>
<asrwt>0</asrwt>
<pdfrwt beam="1">  1        2 0.99938156E+00 0.14909116E+02</pdfrwt>
<pdfrwt beam="2">  1       -2 0.98034028E+00 0.14909116E+02</pdfrwt>
<totfact> 0.26417072E-13</totfact>
</mgrwt>
</event>
<event>
 4    1  0.5160210E-019  0.1490493E+02  0.7818608E-02  0.1870984E+00
          2   -1    0    0  501    0  0.00000000000E+00  0.00000000000E+00  0.12012163304E+03  0.12012163307E+03  0.25500000000E-02 0. -1.
         -2   -1    0    0    0  501 -0.00000000000E+00 -0.00000000000E+00 -0.46235476770E+00  0.46236179958E+00  0.25500000000E-02 0.  1.
         31    1    1    2    0    0 -0.18271125587E+00  0.13766413813E+00  0.58476505699E+02  0.58949240705E+02  0.74470750000E+01 0. -1.
        -31    1    1    2    0    0  0.18271125587E+00 -0.13766413813E+00  0.61182772576E+02  0.61634754165E+02  0.74470750000E+01 0. -1.
<mgrwt>
<rscale>  0 0.14904930E+02</rscale>
<asrwt>0</asrwt>
<pdfrwt beam="1">  1        2 0.99707284E+00 0.14904930E+02</pdfrwt>
<pdfrwt beam="2">  1       -2 0.98205856E+00 0.14904930E+02</pdfrwt>
<totfact> 0.70427714E-13</totfact>
</mgrwt>
</event>
<event>
 4    1 -0.5160210E-019  0.1491487E+02  0.7818608E-02  0.1870678E+00
         -2   -1    0    0    0  501 -0.00000000000E+00  0.00000000000E+00  0.11990935757E+03  0.11990935760E+03  0.25500000000E-02 0. -1.
          2   -1    0    0  501    0  0.00000000000E+00 -0.00000000000E+00 -0.46379099525E+00  0.46379800536E+00  0.25500000000E-02 0.  1.
         31    1    1    2    0    0  0.21583947792E-01 -0.41850933427E-01  0.56574591818E+02  0.57062646125E+02  0.74470750000E+01 0.  1.
        -31    1    1    2    0    0 -0.21583947792E-01  0.41850933427E-01  0.62870974757E+02  0.63310509478E+02  0.74470750000E+01 0. -1.
<mgrwt>
<rscale>  0 0.14914866E+02</rscale>
<asrwt>0</asrwt>
<pdfrwt beam="2">  1        2 0.98509067E+00 0.14914866E+02</pdfrwt>
<pdfrwt beam="1">  1       -2 0.99532947E+00 0.14914866E+02</pdfrwt>
<totfact>-0.33815165E-13</totfact>
</mgrwt>
</event>
<event>
 4    1  0.5160210E-019  0.1490244E+02  0.7818608E-02  0.1871060E+00
         -2   -1    0    0    0  501 -0.00000000000E+00  0.00000000000E+00  0.11852160126E+03  0.11852160128E+03  0.25500000000E-02 0. -1.
          2   -1    0    0  501    0  0.00000000000E+00 -0.00000000000E+00 -0.46843989294E+00  0.46844683348E+00  0.25500000000E-02 0.  1.
         31    1    1    2    0    0  0.13805335568E+00  0.15404875145E-01  0.60671460614E+02  0.61126952772E+02  0.74470750000E+01 0. -1.
        -31    1    1    2    0    0 -0.13805335568E+00 -0.15404875145E-01  0.57381700749E+02  0.57863095345E+02  0.74470750000E+01 0.  1.
<mgrwt>
<rscale>  0 0.14902437E+02</rscale>
<asrwt>0</asrwt>
<pdfrwt beam="2">  1        2 0.99488101E+00 0.14902437E+02</pdfrwt>
<pdfrwt beam="1">  1       -2 0.98389297E+00 0.14902437E+02</pdfrwt>
<totfact> 0.65571967E-13</totfact>
</mgrwt>
</event>
<event>
 4    1 -0.5160210E-019  0.1495544E+02  0.7818608E-02  0.1869431E+00
         -2   -1    0    0    0  501 -0.00000000000E+00  0.00000000000E+00  0.12016039289E+03  0.12016039292E+03  0.25500000000E-02 0.  1.
          2   -1    0    0  501    0  0.00000000000E+00 -0.00000000000E+00 -0.46534375612E+00  0.46535074284E+00  0.25500000000E-02 0. -1.
         31    1    1    2    0    0 -0.33267599926E+00  0.54775002172E+00  0.58104850985E+02  0.58583643941E+02  0.74470750000E+01 0. -1.
        -31    1    1    2    0    0  0.33267599926E+00 -0.54775002172E+00  0.61590198148E+02  0.62042099718E+02  0.74470750000E+01 0. -1.
<mgrwt>
<rscale>  0 0.14955442E+02</rscale>
<asrwt>0</asrwt>
<pdfrwt beam="2">  1        2 0.98838392E+00 0.14955442E+02</pdfrwt>
<pdfrwt beam="1">  1       -2 0.99741805E+00 0.14955442E+02</pdfrwt>
<totfact>-0.15375888E-13</totfact>
</mgrwt>
</event>
<event>
 4    1 -0.5160210E-019  0.1493290E+02  0.7818608E-02  0.1870123E+00
          2   -1    0    0  501    0  0.00000000000E+00  0.00000000000E+00  0.11893450323E+03  0.11893450326E+03  0.25500000000E-02 0.  1.
         -2   -1    0    0    0  501 -0.00000000000E+00 -0.00000000000E+00 -0.46872402088E+00  0.46873095721E+00  0.25500000000E-02 0. -1.
         31    1    1    2    0    0 -0.16861064377E+00 -0.28289444306E+00  0.55835871629E+02  0.56331269695E+02  0.74470750000E+01 0. -1.
        -31    1    1    2    0    0  0.16861064377E+00  0.28289444306E+00  0.62629907579E+02  0.63071964518E+02  0.74470750000E+01 0.  1.
<mgrwt>
<rscale>  0 0.14932900E+02</rscale>
<asrwt>0</asrwt>
<pdfrwt beam="1">  1        2 0.98730948E+00 0.14932900E+02</pdfrwt>
<pdfrwt beam="2">  1       -2 0.99549568E+00 0.14932900E+02</pdfrwt>
<totfact>-0.23961833E-13</totfact>
</mgrwt>
</event>
<event>
 4    1 -0.5160210E-019  0.1490701E+02  0.7818608E-02  0.1870920E+00
          2   -1    0    0  501    0  0.00000000000E+00  0.00000000000E+00  0.11799919022E+03  0.11799919025E+03  0.25500000000E-02 0.  1.
         -2   -1    0    0    0  501 -0.00000000000E+00 -0.00000000000E+00 -0.47080245106E+00  0.47080935677E+00  0.25500000000E-02 0. -1.
         31    1    1    2    0    0  0.57596841966E-01  0.28681832287E+00  0.59567240572E+02  0.60031663791E+02  0.74470750000E+01 0. -1.
        -31    1    1    2    0    0 -0.57596841966E-01 -0.28681832287E+00  0.57961147202E+02  0.58438335818E+02  0.74470750000E+01 0.  1.
<mgrwt>
<rscale>  0 0.14907008E+02</rscale>
<asrwt>0</asrwt>
<pdfrwt beam="1">  1        2 0.97959285E+00 0.14907008E+02</pdfrwt>
<pdfrwt beam="2">  1       -2 0.99986122E+00 0.14907008E+02</pdfrwt>
<totfact>-0.41233007E-14</totfact>
</mgrwt>
</event>
<event>
 4    1 -0.5160210E-019  0.1496111E+02  0.7818608E-02  0.1869257E+00
         -2   -1    0    0    0  501 -0.00000000000E+00  0.00000000000E+00  0.12016290732E+03  0.12016290734E+03  0.25500000000E-02 0. -1.
          2   -1    0    0  501    0  0.00000000000E+00 -0.00000000000E+00 -0.46568709559E+00  0.46569407716E+00  0.25500000000E-02 0.  1.
         31    1    1    2    0    0  0.46001538541E+00 -0.52292573008E+00  0.58869501749E+02  0.59342752108E+02  0.74470750000E+01 0.  1.
        -31    1    1    2    0    0 -0.46001538541E+00  0.52292573008E+00  0.60827718471E+02  0.61285849312E+02  0.74470750000E+01 0. -1.
<mgrwt>
<rscale>  0 0.14961115E+02</rscale>
<asrwt>0</asrwt>
<pdfrwt beam="2">  1        2 0.98911042E+00 0.14961115E+02</pdfrwt>
<pdfrwt beam="1">  1       -2 0.99744168E+00 0.14961115E+02</pdfrwt>
<totfact>-0.14043469E-13</totfact>
</mgrwt>
</event>
<event>
 4    1 -0.5160210E-019  0.1497403E+02  0.7818608E-02  0.1868862E+00
          2   -1    0    0  501    0  0.00000000000E+00  0.00000000000E+00  0.11945256369E+03  0.11945256371E+03  0.25500000000E-02 0. -1.
         -2   -1    0    0    0  501 -0.00000000000E+00 -0.00000000000E+00 -0.46926561139E+00  0.46927253972E+00  0.25500000000E-02 0.  1.
         31    1    1    2    0    0 -0.41533743480E+00 -0.52500049281E+00  0.62576183456E+02  0.63021312210E+02  0.74470750000E+01 0.  1.
        -31    1    1    2    0    0  0.41533743480E+00  0.52500049281E+00  0.56407114618E+02  0.56900524042E+02  0.74470750000E+01 0.  1.
<mgrwt>
<rscale>  0 0.14974031E+02</rscale>
<asrwt>0</asrwt>
<pdfrwt beam="1">  1        2 0.99159765E+00 0.14974031E+02</pdfrwt>
<pdfrwt beam="2">  1       -2 0.99665838E+00 0.14974031E+02</pdfrwt>
<totfact>-0.13353376E-13</totfact>
</mgrwt>
</event>
<event>
 4    1 -0.5160210E-019  0.1492699E+02  0.7818608E-02  0.1870305E+00
         -2   -1    0    0    0  501 -0.00000000000E+00  0.00000000000E+00  0.11981436726E+03  0.11981436729E+03  0.25500000000E-02 0. -1.
          2   -1    0    0  501    0  0.00000000000E+00 -0.00000000000E+00 -0.46491373881E+00  0.46492073199E+00  0.25500000000E-02 0.  1.
         31    1    1    2    0    0  0.41897420778E+00  0.25632056169E-01  0.61785898972E+02  0.62234495532E+02  0.74470750000E+01 0.  1.
        -31    1    1    2    0    0 -0.41897420778E+00 -0.25632056169E-01  0.57563554552E+02  0.58044792489E+02  0.74470750000E+01 0.  1.
<mgrwt>
<rscale>  0 0.14926991E+02</rscale>
<asrwt>0</asrwt>
<pdfrwt beam="2">  1        2 0.98746311E+00 0.14926991E+02</pdfrwt>
<pdfrwt beam="1">  1       -2 0.99455331E+00 0.14926991E+02</pdfrwt>
<totfact>-0.23983341E-13</totfact>
</mgrwt>
</event>
<event>
 4    1 -0.5160210E-019  0.1495735E+02  0.7818608E-02  0.1869373E+00
          2   -1    0    0  501    0  0.00000000000E+00  0.00000000000E+00  0.11946687047E+03  0.11946687050E+03  0.25500000000E-02 0. -1.
         -2   -1    0    0    0  501 -0.00000000000E+00 -0.00000000000E+00 -0.46816441772E+00  0.46817136234E+00  0.25500000000E-02 0.  1.
         31    1    1    2    0    0  0.39613662485E+00 -0.95997746287E-01  0.55067451646E+02  0.55570219512E+02  0.74470750000E+01 0.  1.
        -31    1    1    2    0    0 -0.39613662485E+00  0.95997746287E-01  0.63931254408E+02  0.64364822349E+02  0.74470750000E+01 0. -1.
<mgrwt>
<rscale>  0 0.14957347E+02</rscale>
<asrwt>0</asrwt>
<pdfrwt beam="1">  1        2 0.99170684E+00 0.14957347E+02</pdfrwt>
<pdfrwt beam="2">  1       -2 0.99432922E+00 0.14957347E+02</pdfrwt>
<totfact>-0.15392471E-13</totfact>
</mgrwt>
</event>
<event>
 4    1  0.5160210E-019  0.1491445E+02  0.7818608E-02  0.1870690E+00
          2   -1    0    0  501    0  0.00000000000E+00  0.00000000000E+00  0.12036337151E+03  0.12036337153E+03  0.25500000000E-02 0. -1.
         -2   -1    0    0    0  501 -0.00000000000E+00 -0.00000000000E+00 -0.46201563327E+00  0.46202267031E+00  0.25500000000E-02 0.  1.
         31    1    1    2    0    0 -0.19537644873E+00 -0.77698547334E-01  0.57300064493E+02  0.57782354797E+02  0.74470750000E+01 0. -1.
        -31    1    1    2    0    0  0.19537644873E+00  0.77698547334E-01  0.62601291380E+02  0.63043039406E+02  0.74470750000E+01 0. -1.
<mgrwt>
<rscale>  0 0.14914448E+02</rscale>
<asrwt>0</asrwt>
<pdfrwt beam="1">  1        2 0.99906890E+00 0.14914448E+02</pdfrwt>
<pdfrwt beam="2">  1       -2 0.98134855E+00 0.14914448E+02</pdfrwt>
<totfact> 0.32040672E-13</totfact>
</mgrwt>
</event>
<event>
 4    1 -0.5160210E-019  0.1498356E+02  0.7818608E-02  0.1868571E+00
         -2   -1    0    0    0  501 -0.00000000000E+00  0.00000000000E+00  0.12021620288E+03  0.12021620291E+03  0.25500000000E-02 0. -1.
          2   -1    0    0  501    0  0.00000000000E+00 -0.00000000000E+00 -0.46687843399E+00  0.46688539774E+00  0.25500000000E-02 0.  1.
         31    1    1    2    0    0 -0.54390403363E+00 -0.53278527281E+00  0.62266098073E+02  0.62714476694E+02  0.74470750000E+01 0. -1.
        -31    1    1    2    0    0  0.54390403363E+00  0.53278527281E+00  0.57483226374E+02  0.57968611612E+02  0.74470750000E+01 0.  1.
<mgrwt>
<rscale>  0 0.14983561E+02</rscale>
<asrwt>0</asrwt>
<pdfrwt beam="2">  1        2 0.99163267E+00 0.14983561E+02</pdfrwt>
<pdfrwt beam="1">  1       -2 0.99789221E+00 0.14983561E+02</pdfrwt>
<totfact>-0.96425254E-14</totfact>
</mgrwt>
</event>
<event>
 4    1 -0.5160210E-019  0.1492404E+02  0.7818608E-02  0.1870395E+00
         -2   -1    0    0    0  501 -0.00000000000E+00  0.00000000000E+00  0.11993301110E+03  0.11993301112E+03  0.25500000000E-02 0. -1.
          2   -1    0    0  501    0  0.00000000000E+00 -0.00000000000E+00 -0.46427013938E+00  0.46427714225E+00  0.25500000000E-02 0.  1.
         31    1    1    2    0    0  0.30990194515E+00  0.32577978995E+00  0.58575331343E+02  0.59048543925E+02  0.74470750000E+01 0.  1.
        -31    1    1    2    0    0 -0.30990194515E+00 -0.32577978995E+00  0.60893409614E+02  0.61348744340E+02  0.74470750000E+01 0. -1.
<mgrwt>
<rscale>  0 0.14924040E+02</rscale>
<asrwt>0</asrwt>
<pdfrwt beam="2">  1        2 0.98610518E+00 0.14924040E+02</pdfrwt>
<pdfrwt beam="1">  1       -2 0.99552902E+00 0.14924040E+02</pdfrwt>
<totfact>-0.28498855E-13</totfact>
</mgrwt>
</event>
<event>
 4    1 -0.5160210E-019  0.1497985E+02  0.7818608E-02  0.1868684E+00
         -2   -1    0    0    0  501 -0.00000000000E+00  0.00000000000E+00  0.11949022754E+03  0.11949022757E+03  0.25500000000E-02 0.  1.
          2   -1    0    0  501    0  0.00000000000E+00 -0.00000000000E+00 -0.46948245966E+00  0.46948938478E+00  0.25500000000E-02 0. -1.
         31    1    1    2    0    0  0.62838868084E+00  0.25590425040E+00  0.62905053993E+02  0.63347968422E+02  0.74470750000E+01 0.  1.
        -31    1    1    2    0    0 -0.62838868084E+00 -0.25590425040E+00  0.56115691088E+02  0.56611748530E+02  0.74470750000E+01 0. -1.
<mgrwt>
<rscale>  0 0.14979851E+02</rscale>
<asrwt>0</asrwt>
<pdfrwt beam="2">  1        2 0.99711836E+00 0.14979851E+02</pdfrwt>
<pdfrwt beam="1">  1       -2 0.99191087E+00 0.14979851E+02</pdfrwt>
<totfact>-0.54569186E-14</totfact>
</mgrwt>
</event>
<event>
 4    1 -0.5160210E-019  0.1497222E+02  0.7818608E-02  0.1868917E+00
          2   -1    0    0  501    0  0.00000000000E+00  0.00000000000E+00  0.11962943101E+03  0.11962943103E+03  0.25500000000E-02 0.  1.
         -2   -1    0    0    0  501 -0.00000000000E+00 -0.00000000000E+00 -0.46845873396E+00  0.46846567422E+00  0.25500000000E-02 0. -1.
         31    1    1    2    0    0 -0.29643117276E-01 -0.56733632839E+00  0.55488836048E+02  0.55989218616E+02  0.74470750000E+01 0. -1.
        -31    1    1    2    0    0  0.29643117276E-01  0.56733632839E+00  0.63672136223E+02  0.64108678090E+02  0.74470750000E+01 0. -1.
<mgrwt>
<rscale>  0 0.14972224E+02</rscale>
<asrwt>0</asrwt>
<pdfrwt beam="1">  1        2 0.99305344E+00 0.14972224E+02</pdfrwt>
<pdfrwt beam="2">  1       -2 0.99495715E+00 0.14972224E+02</pdfrwt>
<totfact>-0.14041033E-13</totfact>
</mgrwt>
</event>
<event>
 4    1 -0.5160210E-019  0.1499652E+02  0.7818608E-02  0.1868175E+00
          2   -1    0    0  501    0  0.00000000000E+00  0.00000000000E+00  0.11998188499E+03  0.11998188502E+03  0.25500000000E-02 0. -1.
         -2   -1    0    0    0  501 -0.00000000000E+00 -0.00000000000E+00 -0.46859984365E+00  0.46860678183E+00  0.25500000000E-02 0.  1.
         31    1    1    2    0    0  0.41257548410E+00  0.45956578007E+00  0.54782267554E+02  0.55289575723E+02  0.74470750000E+01 0.  1.
        -31    1    1    2    0    0 -0.41257548410E+00 -0.45956578007E+00  0.64731017597E+02  0.65160916080E+02  0.74470750000E+01 0. -1.
<mgrwt>
<rscale>  0 0.14996521E+02</rscale>
<asrwt>0</asrwt>
<pdfrwt beam="1">  1        2 0.99596894E+00 0.14996521E+02</pdfrwt>
<pdfrwt beam="2">  1       -2 0.99526708E+00 0.14996521E+02</pdfrwt>
<totfact>-0.10509631E-13</totfact>
</mgrwt>
</event>
<event>
 4    1 -0.5160210E-019  0.1497061E+02  0.7818608E-02  0.1868967E+00
          2   -1    0    0  501    0  0.00000000000E+00  0.00000000000E+00  0.11945913273E+03  0.11945913276E+03  0.25500000000E-02 0.  1.
         -2   -1    0    0    0  501 -0.00000000000E+00 -0.00000000000E+00 -0.46902574945E+00  0.46903268132E+00  0.25500000000E-02 0. -1.
         31    1    1    2    0    0  0.41119789824E+00 -0.38554242270E+00  0.63525850789E+02  0.63963351782E+02  0.74470750000E+01 0.  1.
        -31    1    1    2    0    0 -0.41119789824E+00  0.38554242270E+00  0.55464256195E+02  0.55964813659E+02  0.74470750000E+01 0. -1.
<mgrwt>
<rscale>  0 0.14970615E+02</rscale>
<asrwt>0</asrwt>
<pdfrwt beam="1">  1        2 0.99164998E+00 0.14970615E+02</pdfrwt>
<pdfrwt beam="2">  1       -2 0.99615116E+00 0.14970615E+02</pdfrwt>
<totfact>-0.14329790E-13</totfact>
</mgrwt>
</event>
<event>
 4    1 -0.5160210E-019  0.1495189E+02  0.7818608E-02  0.1869540E+00
         -2   -1    0    0    0  501 -0.00000000000E+00  0.00000000000E+00  0.12002025597E+03  0.12002025600E+03  0.25500000000E-02 0. -1.
          2   -1    0    0  501    0  0.00000000000E+00 -0.00000000000E+00 -0.46566583889E+00  0.46567282078E+00  0.25500000000E-02 0.  1.
         31    1    1    2    0    0  0.15107492086E-02  0.18422621303E+00  0.64853908536E+02  0.65280336396E+02  0.74470750000E+01 0. -1.
        -31    1    1    2    0    0 -0.15107492086E-02 -0.18422621303E+00  0.54700681598E+02  0.55205592425E+02  0.74470750000E+01 0.  1.
<mgrwt>
<rscale>  0 0.14951890E+02</rscale>
<asrwt>0</asrwt>
<pdfrwt beam="2">  1        2 0.98906091E+00 0.14951890E+02</pdfrwt>
<pdfrwt beam="1">  1       -2 0.99626196E+00 0.14951890E+02</pdfrwt>
<totfact>-0.17889016E-13</totfact>
</mgrwt>
</event>
<event>
 4    1 -0.5160210E-019  0.1495303E+02  0.7818608E-02  0.1869505E+00
         -2   -1    0    0    0  501 -0.00000000000E+00  0.00000000000E+00  0.11943565072E+03  0.11943565075E+03  0.25500000000E-02 0. -1.
          2   -1    0    0  501    0  0.00000000000E+00 -0.00000000000E+00 -0.46801648006E+00  0.46802342688E+00  0.25500000000E-02 0.  1.
         31    1    1    2    0    0 -0.65095305225E+00 -0.88853484661E-01  0.60187914460E+02  0.60650437821E+02  0.74470750000E+01 0. -1.
        -31    1    1    2    0    0  0.65095305225E+00  0.88853484661E-01  0.58779719784E+02  0.59253236356E+02  0.74470750000E+01 0. -1.
<mgrwt>
<rscale>  0 0.14953029E+02</rscale>
<asrwt>0</asrwt>
<pdfrwt beam="2">  1        2 0.99401523E+00 0.14953029E+02</pdfrwt>
<pdfrwt beam="1">  1       -2 0.99144747E+00 0.14953029E+02</pdfrwt>
<totfact>-0.65506695E-14</totfact>
</mgrwt>
</event>
<event>
 4    1  0.5160210E-019  0.1492821E+02  0.7818608E-02  0.1870267E+00
         -2   -1    0    0    0  501 -0.00000000000E+00  0.00000000000E+00  0.11873138347E+03  0.11873138350E+03  0.25500000000E-02 0.  1.
          2   -1    0    0  501    0  0.00000000000E+00 -0.00000000000E+00 -0.46923118729E+00  0.46923811612E+00  0.25500000000E-02 0. -1.
         31    1    1    2    0    0  0.32190149772E+00  0.38096433015E+00  0.58555154620E+02  0.59028923530E+02  0.74470750000E+01 0. -1.
        -31    1    1    2    0    0 -0.32190149772E+00 -0.38096433015E+00  0.59706997667E+02  0.60171698088E+02  0.74470750000E+01 0.  1.
<mgrwt>
<rscale>  0 0.14928213E+02</rscale>
<asrwt>0</asrwt>
<pdfrwt beam="2">  1        2 0.99656187E+00 0.14928213E+02</pdfrwt>
<pdfrwt beam="1">  1       -2 0.98563414E+00 0.14928213E+02</pdfrwt>
<totfact> 0.32401468E-13</totfact>
</mgrwt>
</event>
<event>
 4    1 -0.5160210E-019  0.1493812E+02  0.7818608E-02  0.1869963E+00
         -2   -1    0    0    0  501 -0.00000000000E+00  0.00000000000E+00  0.12004820945E+03  0.12004820948E+03  0.25500000000E-02 0. -1.
          2   -1    0    0  501    0  0.00000000000E+00 -0.00000000000E+00 -0.46470029415E+00  0.46470729054E+00  0.25500000000E-02 0.  1.
         31    1    1    2    0    0 -0.39991615669E+00  0.97956937674E-01  0.63002639116E+02  0.63442580260E+02  0.74470750000E+01 0. -1.
        -31    1    1    2    0    0  0.39991615669E+00 -0.97956937674E-01  0.56580870039E+02  0.57070336506E+02  0.74470750000E+01 0. -1.
<mgrwt>
<rscale>  0 0.14938121E+02</rscale>
<asrwt>0</asrwt>
<pdfrwt beam="2">  1        2 0.98701894E+00 0.14938121E+02</pdfrwt>
<pdfrwt beam="1">  1       -2 0.99648511E+00 0.14938121E+02</pdfrwt>
<totfact>-0.22445513E-13</totfact>
</mgrwt>
</event>
<event>
 4    1 -0.5160210E-019  0.1497205E+02  0.7818608E-02  0.1868923E+00
          2   -1    0    0  501    0  0.00000000000E+00  0.00000000000E+00  0.11985535892E+03  0.11985535895E+03  0.25500000000E-02 0. -1.
         -2   -1    0    0    0  501 -0.00000000000E+00 -0.00000000000E+00 -0.46756484983E+00  0.46757180336E+00  0.25500000000E-02 0.  1.
         31    1    1    2    0    0 -0.13209237750E+00  0.44347937028E+00  0.64565930307E+02  0.64995633737E+02  0.74470750000E+01 0. -1.
        -31    1    1    2    0    0  0.13209237750E+00 -0.44347937028E+00  0.54821863763E+02  0.55327297014E+02  0.74470750000E+01 0.  1.
<mgrwt>
<rscale>  0 0.14972050E+02</rscale>
<asrwt>0</asrwt>
<pdfrwt beam="1">  1        2 0.99491418E+00 0.14972050E+02</pdfrwt>
<pdfrwt beam="2">  1       -2 0.99307334E+00 0.14972050E+02</pdfrwt>
<totfact>-0.10576025E-13</totfact>
</mgrwt>
</event>
<event>
 4    1 -0.5160210E-019  0.1492953E+02  0.7818608E-02  0.1870226E+00
          2   -1    0    0  501    0  0.00000000000E+00  0.00000000000E+00  0.11867362214E+03  0.11867362217E+03  0.25500000000E-02 0.  1.
         -2   -1    0    0    0  501 -0.00000000000E+00 -0.00000000000E+00 -0.46954271097E+00  0.46954963520E+00  0.25500000000E-02 0. -1.
         31    1    1    2    0    0  0.19655668021E+00 -0.17822379259E+00  0.62611805709E+02  0.63053687747E+02  0.74470750000E+01 0.  1.
        -31    1    1    2    0    0 -0.19655668021E+00  0.17822379259E+00  0.55592273720E+02  0.56089484056E+02  0.74470750000E+01 0. -1.
<mgrwt>
<rscale>  0 0.14929534E+02</rscale>
<asrwt>0</asrwt>
<pdfrwt beam="1">  1        2 0.98515910E+00 0.14929534E+02</pdfrwt>
<pdfrwt beam="2">  1       -2 0.99721896E+00 0.14929534E+02</pdfrwt>
<totfact>-0.25759938E-13</totfact>
</mgrwt>
</event>
<event>
 4    1 -0.5160210E-019  0.1494970E+02  0.7818608E-02  0.1869607E+00
         -2   -1    0    0    0  501 -0.00000000000E+00  0.00000000000E+00  0.12016597924E+03  0.12016597927E+03  0.25500000000E-02 0.  1.
          2   -1    0    0  501    0  0.00000000000E+00 -0.00000000000E+00 -0.46496499471E+00  0.46497198712E+00  0.25500000000E-02 0. -1.
         31    1    1    2    0    0 -0.38496867935E+00  0.38661483316E+00  0.57092811273E+02  0.57579038695E+02  0.74470750000E+01 0. -1.
        -31    1    1    2    0    0  0.38496867935E+00 -0.38661483316E+00  0.62608202971E+02  0.63051912558E+02  0.74470750000E+01 0.  1.
<mgrwt>
<rscale>  0 0.14949702E+02</rscale>
<asrwt>0</asrwt>
<pdfrwt beam="2">  1        2 0.98758272E+00 0.14949702E+02</pdfrwt>
<pdfrwt beam="1">  1       -2 0.99746111E+00 0.14949702E+02</pdfrwt>
<totfact>-0.16829158E-13</totfact>
</mgrwt>
</event>
<event>
 4    1 -0.5160210E-019  0.1500408E+02  0.7818608E-02  0.1867944E+00
          2   -1    0    0  501    0  0.00000000000E+00  0.00000000000E+00  0.11985539704E+03  0.11985539707E+03  0.25500000000E-02 0. -1.
         -2   -1    0    0    0  501 -0.00000000000E+00 -0.00000000000E+00 -0.46956764742E+00  0.46957457129E+00  0.25500000000E-02 0.  1.
         31    1    1    2    0    0  0.33149402939E+00  0.23953134685E-01  0.66456180779E+02  0.66872964281E+02  0.74470750000E+01 0. -1.
        -31    1    1    2    0    0 -0.33149402939E+00 -0.23953134685E-01  0.52929648616E+02  0.53452007359E+02  0.74470750000E+01 0.  1.
<mgrwt>
<rscale>  0 0.15004084E+02</rscale>
<asrwt>0</asrwt>
<pdfrwt beam="1">  1        2 0.99493105E+00 0.15004084E+02</pdfrwt>
<pdfrwt beam="2">  1       -2 0.99731047E+00 0.15004084E+02</pdfrwt>
<totfact>-0.89396395E-14</totfact>
</mgrwt>
</event>
<event>
 4    1 -0.5160210E-019  0.1500692E+02  0.7818608E-02  0.1867857E+00
         -2   -1    0    0    0  501 -0.00000000000E+00  0.00000000000E+00  0.11979502376E+03  0.11979502378E+03  0.25500000000E-02 0.  1.
          2   -1    0    0  501    0  0.00000000000E+00 -0.00000000000E+00 -0.46998201334E+00  0.46998893110E+00  0.25500000000E-02 0. -1.
         31    1    1    2    0    0 -0.18425080375E+00  0.89646971168E+00  0.59074069072E+02  0.59548653798E+02  0.74470750000E+01 0. -1.
        -31    1    1    2    0    0  0.18425080375E+00 -0.89646971168E+00  0.60250972670E+02  0.60716358916E+02  0.74470750000E+01 0.  1.
<mgrwt>
<rscale>  0 0.15006922E+02</rscale>
<asrwt>0</asrwt>
<pdfrwt beam="2">  1        2 0.99818512E+00 0.15006922E+02</pdfrwt>
<pdfrwt beam="1">  1       -2 0.99443527E+00 0.15006922E+02</pdfrwt>
<totfact>-0.60569144E-14</totfact>
</mgrwt>
</event>
<event>
 4    1 -0.5160210E-019  0.1498909E+02  0.7818608E-02  0.1868401E+00
          2   -1    0    0  501    0  0.00000000000E+00  0.00000000000E+00  0.11992934717E+03  0.11992934720E+03  0.25500000000E-02 0.  1.
         -2   -1    0    0    0  501 -0.00000000000E+00 -0.00000000000E+00 -0.46834085031E+00  0.46834779232E+00  0.25500000000E-02 0. -1.
         31    1    1    2    0    0 -0.83399258683E+00 -0.73144238486E-01  0.58993791720E+02  0.59467867636E+02  0.74470750000E+01 0.  1.
        -31    1    1    2    0    0  0.83399258683E+00  0.73144238486E-01  0.60467214599E+02  0.60929827352E+02  0.74470750000E+01 0. -1.
<mgrwt>
<rscale>  0 0.14989094E+02</rscale>
<asrwt>0</asrwt>
<pdfrwt beam="1">  1        2 0.99553238E+00 0.14989094E+02</pdfrwt>
<pdfrwt beam="2">  1       -2 0.99471745E+00 0.14989094E+02</pdfrwt>
<totfact>-0.11263478E-13</totfact>
</mgrwt>
</event>
<event>
 4    1 -0.5160210E-019  0.1496758E+02  0.7818608E-02  0.1869059E+00
          2   -1    0    0  501    0  0.00000000000E+00  0.00000000000E+00  0.11960015957E+03  0.11960015960E+03  0.25500000000E-02 0. -1.
         -2   -1    0    0    0  501 -0.00000000000E+00 -0.00000000000E+00 -0.46828268088E+00  0.46828962375E+00  0.25500000000E-02 0.  1.
         31    1    1    2    0    0 -0.12811695487E+00 -0.25099457821E-01  0.53719673261E+02  0.54233562167E+02  0.74470750000E+01 0.  1.
        -31    1    1    2    0    0  0.12811695487E+00  0.25099457821E-01  0.65412203629E+02  0.65834887055E+02  0.74470750000E+01 0. -1.
<mgrwt>
<rscale>  0 0.14967579E+02</rscale>
<asrwt>0</asrwt>
<pdfrwt beam="1">  1        2 0.99280995E+00 0.14967579E+02</pdfrwt>
<pdfrwt beam="2">  1       -2 0.99458374E+00 0.14967579E+02</pdfrwt>
<totfact>-0.14299068E-13</totfact>
</mgrwt>
</event>
<event>
 4    1 -0.5160210E-019  0.1491419E+02  0.7818608E-02  0.1870698E+00
         -2   -1    0    0    0  501 -0.00000000000E+00  0.00000000000E+00  0.11959047628E+03  0.11959047631E+03  0.25500000000E-02 0. -1.
          2   -1    0    0  501    0  0.00000000000E+00 -0.00000000000E+00 -0.46498555280E+00  0.46499254490E+00  0.25500000000E-02 0.  1.
         31    1    1    2    0    0 -0.25955397402E+00 -0.14215543145E+00  0.61563275159E+02  0.62012767643E+02  0.74470750000E+01 0. -1.
        -31    1    1    2    0    0  0.25955397402E+00  0.14215543145E+00  0.57562215573E+02  0.58042701213E+02  0.74470750000E+01 0.  1.
<mgrwt>
<rscale>  0 0.14914190E+02</rscale>
<asrwt>0</asrwt>
<pdfrwt beam="2">  1        2 0.98760790E+00 0.14914190E+02</pdfrwt>
<pdfrwt beam="1">  1       -2 0.99270262E+00 0.14914190E+02</pdfrwt>
<totfact>-0.19190057E-13</totfact>
</mgrwt>
</event>
<event>
 4    1 -0.5160210E-019  0.1495298E+02  0.7818608E-02  0.1869507E+00
          2   -1    0    0  501    0  0.00000000000E+00  0.00000000000E+00  0.11900558563E+03  0.11900558566E+03  0.25500000000E-02 0.  1.
         -2   -1    0    0    0  501 -0.00000000000E+00 -0.00000000000E+00 -0.46970470344E+00  0.46971162529E+00  0.25500000000E-02 0. -1.
         31    1    1    2    0    0  0.18034268904E+00  0.73145443823E-01  0.54207643808E+02  0.54717140340E+02  0.74470750000E+01 0. -1.
        -31    1    1    2    0    0 -0.18034268904E+00 -0.73145443823E-01  0.64328237123E+02  0.64758156947E+02  0.74470750000E+01 0.  1.
<mgrwt>
<rscale>  0 0.14952979E+02</rscale>
<asrwt>0</asrwt>
<pdfrwt beam="1">  1        2 0.98790535E+00 0.14952979E+02</pdfrwt>
<pdfrwt beam="2">  1       -2 0.99757261E+00 0.14952979E+02</pdfrwt>
<totfact>-0.15605330E-13</totfact>
</mgrwt>
</event>
<event>
 4    1  0.5160210E-019  0.1492352E+02  0.7818608E-02  0.1870411E+00
          2   -1    0    0  501    0  0.00000000000E+00  0.00000000000E+00  0.12025404783E+03  0.12025404786E+03  0.25500000000E-02 0.  1.
         -2   -1    0    0    0  501 -0.00000000000E+00 -0.00000000000E+00 -0.46299854409E+00  0.46300556620E+00  0.25500000000E-02 0. -1.
         31    1    1    2    0    0 -0.33576479714E+00  0.20319511702E-01  0.57264437540E+02  0.57747622321E+02  0.74470750000E+01 0. -1.
        -31    1    1    2    0    0  0.33576479714E+00 -0.20319511702E-01  0.62526611747E+02  0.62969431103E+02  0.74470750000E+01 0.  1.
<mgrwt>
<rscale>  0 0.14923522E+02</rscale>
<asrwt>0</asrwt>
<pdfrwt beam="1">  1        2 0.99817306E+00 0.14923522E+02</pdfrwt>
<pdfrwt beam="2">  1       -2 0.98342485E+00 0.14923522E+02</pdfrwt>
<totfact> 0.37014948E-13</totfact>
</mgrwt>
</event>
<event>
 4    1  0.5160210E-019  0.1490778E+02  0.7818608E-02  0.1870896E+00
         -2   -1    0    0    0  501 -0.00000000000E+00  0.00000000000E+00  0.11845410033E+03  0.11845410035E+03  0.25500000000E-02 0.  1.
          2   -1    0    0  501    0  0.00000000000E+00 -0.00000000000E+00 -0.46904326689E+00  0.46905019850E+00  0.25500000000E-02 0. -1.
         31    1    1    2    0    0  0.23914269858E-01 -0.28827755027E+00  0.60060113004E+02  0.60520738396E+02  0.74470750000E+01 0.  1.
        -31    1    1    2    0    0 -0.23914269858E-01  0.28827755027E+00  0.57924944055E+02  0.58402412156E+02  0.74470750000E+01 0. -1.
<mgrwt>
<rscale>  0 0.14907785E+02</rscale>
<asrwt>0</asrwt>
<pdfrwt beam="2">  1        2 0.99615516E+00 0.14907785E+02</pdfrwt>
<pdfrwt beam="1">  1       -2 0.98333982E+00 0.14907785E+02</pdfrwt>
<totfact> 0.63793562E-13</totfact>
</mgrwt>
</event>
<event>
 4    1 -0.5160210E-019  0.1499031E+02  0.7818608E-02  0.1868364E+00
         -2   -1    0    0    0  501 -0.00000000000E+00  0.00000000000E+00  0.11986995321E+03  0.11986995324E+03  0.25500000000E-02 0. -1.
          2   -1    0    0  501    0  0.00000000000E+00 -0.00000000000E+00 -0.46864915462E+00  0.46865609206E+00  0.25500000000E-02 0.  1.
         31    1    1    2    0    0  0.31043626150E+00 -0.77841943854E+00  0.58680850587E+02  0.59157446354E+02  0.74470750000E+01 0. -1.
        -31    1    1    2    0    0 -0.31043626150E+00  0.77841943854E+00  0.60720453467E+02  0.61181162973E+02  0.74470750000E+01 0. -1.
<mgrwt>
<rscale>  0 0.14990313E+02</rscale>
<asrwt>0</asrwt>
<pdfrwt beam="2">  1        2 0.99536779E+00 0.14990313E+02</pdfrwt>
<pdfrwt beam="1">  1       -2 0.99504382E+00 0.14990313E+02</pdfrwt>
<totfact>-0.11445255E-13</totfact>
</mgrwt>
</event>
<event>
 4    1  0.5160210E-019  0.1489733E+02  0.7818608E-02  0.1871218E+00
          2   -1    0    0  501    0  0.00000000000E+00  0.00000000000E+00  0.12001827302E+03  0.12001827304E+03  0.25500000000E-02 0. -1.
         -2   -1    0    0    0  501 -0.00000000000E+00 -0.00000000000E+00 -0.46228095882E+00  0.46228799183E+00  0.25500000000E-02 0.  1.
         31    1    1    2    0    0 -0.58275761290E-01  0.39892111219E-01  0.58672826784E+02  0.59143592353E+02  0.74470750000E+01 0.  1.
        -31    1    1    2    0    0  0.58275761290E-01 -0.39892111219E-01  0.60883165273E+02  0.61336968683E+02  0.74470750000E+01 0. -1.
<mgrwt>
<rscale>  0 0.14897327E+02</rscale>
<asrwt>0</asrwt>
<pdfrwt beam="1">  1        2 0.99621757E+00 0.14897327E+02</pdfrwt>
<pdfrwt beam="2">  1       -2 0.98189915E+00 0.14897327E+02</pdfrwt>
<totfact> 0.85701072E-13</totfact>
</mgrwt>
</event>
<event>
 4    1 -0.5160210E-019  0.1496530E+02  0.7818608E-02  0.1869129E+00
         -2   -1    0    0    0  501 -0.00000000000E+00  0.00000000000E+00  0.11984049923E+03  0.11984049926E+03  0.25500000000E-02 0.  1.
          2   -1    0    0  501    0  0.00000000000E+00 -0.00000000000E+00 -0.46720120377E+00  0.46720816271E+00  0.25500000000E-02 0. -1.
         31    1    1    2    0    0 -0.68468122423E-01 -0.39293734719E+00  0.54783238921E+02  0.55288527566E+02  0.74470750000E+01 0.  1.
        -31    1    1    2    0    0  0.68468122423E-01  0.39293734719E+00  0.64590059105E+02  0.65019179854E+02  0.74470750000E+01 0.  1.
<mgrwt>
<rscale>  0 0.14965299E+02</rscale>
<asrwt>0</asrwt>
<pdfrwt beam="2">  1        2 0.99230351E+00 0.14965299E+02</pdfrwt>
<pdfrwt beam="1">  1       -2 0.99478830E+00 0.14965299E+02</pdfrwt>
<totfact>-0.14842837E-13</totfact>
</mgrwt>
</event>
<event>
 4    1 -0.5160210E-019  0.1495691E+02  0.7818608E-02  0.1869386E+00
          2   -1    0    0  501    0  0.00000000000E+00  0.00000000000E+00  0.11909315026E+03  0.11909315029E+03  0.25500000000E-02 0. -1.
         -2   -1    0    0    0  501 -0.00000000000E+00 -0.00000000000E+00 -0.46960627845E+00  0.46961320175E+00  0.25500000000E-02 0.  1.
         31    1    1    2    0    0 -0.14513949387E+00 -0.43566576929E+00  0.63368271159E+02  0.63806015280E+02  0.74470750000E+01 0. -1.
        -31    1    1    2    0    0  0.14513949387E+00  0.43566576929E+00  0.55255272826E+02  0.55756748213E+02  0.74470750000E+01 0.  1.
<mgrwt>
<rscale>  0 0.14956912E+02</rscale>
<asrwt>0</asrwt>
<pdfrwt beam="1">  1        2 0.98862858E+00 0.14956912E+02</pdfrwt>
<pdfrwt beam="2">  1       -2 0.99736728E+00 0.14956912E+02</pdfrwt>
<totfact>-0.15142110E-13</totfact>
</mgrwt>
</event>
<event>
 4    1  0.5160210E-019  0.1492675E+02  0.7818608E-02  0.1870312E+00
          2   -1    0    0  501    0  0.00000000000E+00  0.00000000000E+00  0.12009216809E+03  0.12009216812E+03  0.25500000000E-02 0.  1.
         -2   -1    0    0    0  501 -0.00000000000E+00 -0.00000000000E+00 -0.46382319647E+00  0.46383020609E+00  0.25500000000E-02 0. -1.
         31    1    1    2    0    0  0.27354983083E+00 -0.26105032771E-03  0.56501801863E+02  0.56991116584E+02  0.74470750000E+01 0. -1.
        -31    1    1    2    0    0 -0.27354983083E+00  0.26105032771E-03  0.63126543034E+02  0.63564881744E+02  0.74470750000E+01 0. -1.
<mgrwt>
<rscale>  0 0.14926749E+02</rscale>
<asrwt>0</asrwt>
<pdfrwt beam="1">  1        2 0.99684134E+00 0.14926749E+02</pdfrwt>
<pdfrwt beam="2">  1       -2 0.98516458E+00 0.14926749E+02</pdfrwt>
<totfact> 0.35336817E-13</totfact>
</mgrwt>
</event>
<event>
 4    1 -0.5160210E-019  0.1496934E+02  0.7818608E-02  0.1869006E+00
          2   -1    0    0  501    0  0.00000000000E+00  0.00000000000E+00  0.11970438844E+03  0.11970438847E+03  0.25500000000E-02 0.  1.
         -2   -1    0    0    0  501 -0.00000000000E+00 -0.00000000000E+00 -0.46798483857E+00  0.46799178586E+00  0.25500000000E-02 0. -1.
         31    1    1    2    0    0  0.33745113736E+00  0.26743537425E+00  0.64540406035E+02  0.64970057197E+02  0.74470750000E+01 0. -1.
        -31    1    1    2    0    0 -0.33745113736E+00 -0.26743537425E+00  0.54695997566E+02  0.55202323055E+02  0.74470750000E+01 0. -1.
<mgrwt>
<rscale>  0 0.14969336E+02</rscale>
<asrwt>0</asrwt>
<pdfrwt beam="1">  1        2 0.99366932E+00 0.14969336E+02</pdfrwt>
<pdfrwt beam="2">  1       -2 0.99395700E+00 0.14969336E+02</pdfrwt>
<totfact>-0.13078248E-13</totfact>
</mgrwt>
</event>
<event>
 4    1 -0.5160210E-019  0.1499199E+02  0.7818608E-02  0.1868313E+00
         -2   -1    0    0    0  501 -0.00000000000E+00  0.00000000000E+00  0.11988653531E+03  0.11988653533E+03  0.25500000000E-02 0.  1.
          2   -1    0    0  501    0  0.00000000000E+00 -0.00000000000E+00 -0.46868910344E+00  0.46869604029E+00  0.25500000000E-02 0. -1.
         31    1    1    2    0    0  0.30912155623E+00  0.11284068293E+00  0.66043986261E+02  0.66463338288E+02  0.74470750000E+01 0.  1.
        -31    1    1    2    0    0 -0.30912155623E+00 -0.11284068293E+00  0.53373859942E+02  0.53891893086E+02  0.74470750000E+01 0. -1.
<mgrwt>
<rscale>  0 0.14991989E+02</rscale>
<asrwt>0</asrwt>
<pdfrwt beam="2">  1        2 0.99545284E+00 0.14991989E+02</pdfrwt>
<pdfrwt beam="1">  1       -2 0.99518126E+00 0.14991989E+02</pdfrwt>
<totfact>-0.11283945E-13</totfact>
</mgrwt>
</event>
<event>
 4    1  0.5160210E-019  0.1491324E+02  0.7818608E-02  0.1870728E+00
          2   -1    0    0  501    0  0.00000000000E+00  0.00000000000E+00  0.12030172853E+03  0.12030172855E+03  0.25500000000E-02 0. -1.
         -2   -1    0    0    0  501 -0.00000000000E+00 -0.00000000000E+00 -0.46217758792E+00  0.46218462250E+00  0.25500000000E-02 0.  1.
         31    1    1    2    0    0  0.10282890792E+00  0.32520365771E+00  0.58615762611E+02  0.59087925024E+02  0.74470750000E+01 0.  1.
        -31    1    1    2    0    0 -0.10282890792E+00 -0.32520365771E+00  0.61223788329E+02  0.61675988152E+02  0.74470750000E+01 0. -1.
<mgrwt>
<rscale>  0 0.14913241E+02</rscale>
<asrwt>0</asrwt>
<pdfrwt beam="1">  1        2 0.99856053E+00 0.14913241E+02</pdfrwt>
<pdfrwt beam="2">  1       -2 0.98168931E+00 0.14913241E+02</pdfrwt>
<totfact> 0.43876497E-13</totfact>
</mgrwt>
</event>
<event>
 4    1 -0.5160210E-019  0.1492841E+02  0.7818608E-02  0.1870261E+00
          2   -1    0    0  501    0  0.00000000000E+00  0.00000000000E+00  0.11862895217E+03  0.11862895220E+03  0.25500000000E-02 0. -1.
         -2   -1    0    0    0  501 -0.00000000000E+00 -0.00000000000E+00 -0.46964860803E+00  0.46965553070E+00  0.25500000000E-02 0.  1.
         31    1    1    2    0    0  0.38683770106E+00 -0.25170922554E+00  0.60722596344E+02  0.61179290889E+02  0.74470750000E+01 0.  1.
        -31    1    1    2    0    0 -0.38683770106E+00  0.25170922554E+00  0.57436707217E+02  0.57919316838E+02  0.74470750000E+01 0. -1.
<mgrwt>
<rscale>  0 0.14928407E+02</rscale>
<asrwt>0</asrwt>
<pdfrwt beam="1">  1        2 0.98479062E+00 0.14928407E+02</pdfrwt>
<pdfrwt beam="2">  1       -2 0.99744150E+00 0.14928407E+02</pdfrwt>
<totfact>-0.25781664E-13</totfact>
</mgrwt>
</event>
<event>
 4    1  0.5160210E-019  0.1490623E+02  0.7818608E-02  0.1870943E+00
          2   -1    0    0  501    0  0.00000000000E+00  0.00000000000E+00  0.11979526194E+03  0.11979526196E+03  0.25500000000E-02 0. -1.
         -2   -1    0    0    0  501 -0.00000000000E+00 -0.00000000000E+00 -0.46369551579E+00  0.46370252734E+00  0.25500000000E-02 0.  1.
         31    1    1    2    0    0  0.19377197179E+00  0.13913038202E+00  0.61133973392E+02  0.61586350222E+02  0.74470750000E+01 0. -1.
        -31    1    1    2    0    0 -0.19377197179E+00 -0.13913038202E+00  0.58197593030E+02  0.58672614270E+02  0.74470750000E+01 0.  1.
<mgrwt>
<rscale>  0 0.14906233E+02</rscale>
<asrwt>0</asrwt>
<pdfrwt beam="1">  1        2 0.99438526E+00 0.14906233E+02</pdfrwt>
<pdfrwt beam="2">  1       -2 0.98488505E+00 0.14906233E+02</pdfrwt>
<totfact> 0.53074952E-13</totfact>
</mgrwt>
</event>
<event>
 4    1 -0.5160210E-019  0.1494875E+02  0.7818608E-02  0.1869636E+00
          2   -1    0    0  501    0  0.00000000000E+00  0.00000000000E+00  0.11956448223E+03  0.11956448226E+03  0.25500000000E-02 0.  1.
         -2   -1    0    0    0  501 -0.00000000000E+00 -0.00000000000E+00 -0.46724456303E+00  0.46725152133E+00  0.25500000000E-02 0. -1.
         31    1    1    2    0    0 -0.30218342865E+00 -0.54894711347E+00  0.60521808334E+02  0.60981479711E+02  0.74470750000E+01 0. -1.
        -31    1    1    2    0    0  0.30218342865E+00  0.54894711347E+00  0.58575429335E+02  0.59050254069E+02  0.74470750000E+01 0. -1.
<mgrwt>
<rscale>  0 0.14948749E+02</rscale>
<asrwt>0</asrwt>
<pdfrwt beam="1">  1        2 0.99250636E+00 0.14948749E+02</pdfrwt>
<pdfrwt beam="2">  1       -2 0.99238635E+00 0.14948749E+02</pdfrwt>
<totfact>-0.10978927E-13</totfact>
</mgrwt>
</event>
<event>
 4    1 -0.5160210E-019  0.1492552E+02  0.7818608E-02  0.1870350E+00
          2   -1    0    0  501    0  0.00000000000E+00  0.00000000000E+00  0.11847694210E+03  0.11847694213E+03  0.25500000000E-02 0.  1.
         -2   -1    0    0    0  501 -0.00000000000E+00 -0.00000000000E+00 -0.47006908271E+00  0.47007599919E+00  0.25500000000E-02 0. -1.
         31    1    1    2    0    0  0.46937111323E+00 -0.10263398405E+00  0.59439314077E+02  0.59905941499E+02  0.74470750000E+01 0.  1.
        -31    1    1    2    0    0 -0.46937111323E+00  0.10263398405E+00  0.58567558940E+02  0.59041076627E+02  0.74470750000E+01 0.  1.
<mgrwt>
<rscale>  0 0.14925516E+02</rscale>
<asrwt>0</asrwt>
<pdfrwt beam="1">  1        2 0.98353717E+00 0.14925516E+02</pdfrwt>
<pdfrwt beam="2">  1       -2 0.99832591E+00 0.14925516E+02</pdfrwt>
<totfact>-0.22692541E-13</totfact>
</mgrwt>
</event>
<event>
 4    1 -0.5160210E-019  0.1498401E+02  0.7818608E-02  0.1868557E+00
         -2   -1    0    0    0  501 -0.00000000000E+00  0.00000000000E+00  0.11981433409E+03  0.11981433412E+03  0.25500000000E-02 0. -1.
          2   -1    0    0  501    0  0.00000000000E+00 -0.00000000000E+00 -0.46847264011E+00  0.46847958016E+00  0.25500000000E-02 0.  1.
         31    1    1    2    0    0 -0.70728357196E+00  0.30414676317E+00  0.61921681438E+02  0.62372640745E+02  0.74470750000E+01 0.  1.
        -31    1    1    2    0    0  0.70728357196E+00 -0.30414676317E+00  0.57424180013E+02  0.57910172953E+02  0.74470750000E+01 0. -1.
<mgrwt>
<rscale>  0 0.14984012E+02</rscale>
<asrwt>0</asrwt>
<pdfrwt beam="2">  1        2 0.99499255E+00 0.14984012E+02</pdfrwt>
<pdfrwt beam="1">  1       -2 0.99458246E+00 0.14984012E+02</pdfrwt>
<totfact>-0.11954226E-13</totfact>
</mgrwt>
</event>
<event>
 4    1  0.5160210E-019  0.1495036E+02  0.7818608E-02  0.1869587E+00
          2   -1    0    0  501    0  0.00000000000E+00  0.00000000000E+00  0.12024889974E+03  0.12024889977E+03  0.25500000000E-02 0.  1.
         -2   -1    0    0    0  501 -0.00000000000E+00 -0.00000000000E+00 -0.46468496157E+00  0.46469195820E+00  0.25500000000E-02 0. -1.
         31    1    1    2    0    0 -0.59974002026E-01  0.36964133056E+00  0.64157916454E+02  0.64589762357E+02  0.74470750000E+01 0.  1.
        -31    1    1    2    0    0  0.59974002026E-01 -0.36964133056E+00  0.55626298328E+02  0.56123829371E+02  0.74470750000E+01 0.  1.
<mgrwt>
<rscale>  0 0.14950355E+02</rscale>
<asrwt>0</asrwt>
<pdfrwt beam="1">  1        2 0.99814444E+00 0.14950355E+02</pdfrwt>
<pdfrwt beam="2">  1       -2 0.98699286E+00 0.14950355E+02</pdfrwt>
<totfact> 0.12763506E-13</totfact>
</mgrwt>
</event>
<event>
 4    1 -0.5160210E-019  0.1500548E+02  0.7818608E-02  0.1867901E+00
          2   -1    0    0  501    0  0.00000000000E+00  0.00000000000E+00  0.12025827635E+03  0.12025827637E+03  0.25500000000E-02 0.  1.
         -2   -1    0    0    0  501 -0.00000000000E+00 -0.00000000000E+00 -0.46808173602E+00  0.46808868187E+00  0.25500000000E-02 0. -1.
         31    1    1    2    0    0 -0.25839074134E+00 -0.20009767240E+00  0.53042759290E+02  0.53563980845E+02  0.74470750000E+01 0. -1.
        -31    1    1    2    0    0  0.25839074134E+00  0.20009767240E+00  0.66747435320E+02  0.67162384210E+02  0.74470750000E+01 0.  1.
<mgrwt>
<rscale>  0 0.15005482E+02</rscale>
<asrwt>0</asrwt>
<pdfrwt beam="1">  1        2 0.99825005E+00 0.15005482E+02</pdfrwt>
<pdfrwt beam="2">  1       -2 0.99417984E+00 0.15005482E+02</pdfrwt>
<totfact>-0.58253520E-14</totfact>
</mgrwt>
</event>
<event>
 4    1 -0.5160210E-019  0.1495533E+02  0.7818608E-02  0.1869435E+00
         -2   -1    0    0    0  501 -0.00000000000E+00  0.00000000000E+00  0.11947342429E+03  0.11947342432E+03  0.25500000000E-02 0.  1.
          2   -1    0    0  501    0  0.00000000000E+00 -0.00000000000E+00 -0.46801227827E+00  0.46801922515E+00  0.25500000000E-02 0. -1.
         31    1    1    2    0    0 -0.39386244851E+00 -0.54724397140E+00  0.59853949162E+02  0.60319223801E+02  0.74470750000E+01 0.  1.
        -31    1    1    2    0    0  0.39386244851E+00  0.54724397140E+00  0.59151462854E+02  0.59622219746E+02  0.74470750000E+01 0.  1.
<mgrwt>
<rscale>  0 0.14955327E+02</rscale>
<asrwt>0</asrwt>
<pdfrwt beam="2">  1        2 0.99400757E+00 0.14955327E+02</pdfrwt>
<pdfrwt beam="1">  1       -2 0.99175977E+00 0.14955327E+02</pdfrwt>
<totfact>-0.77737676E-14</totfact>
</mgrwt>
</event>
<event>
 4    1 -0.5160210E-019  0.1492937E+02  0.7818608E-02  0.1870231E+00
          2   -1    0    0  501    0  0.00000000000E+00  0.00000000000E+00  0.11864467469E+03  0.11864467472E+03  0.25500000000E-02 0.  1.
         -2   -1    0    0    0  501 -0.00000000000E+00 -0.00000000000E+00 -0.46964709317E+00  0.46965401588E+00  0.25500000000E-02 0. -1.
         31    1    1    2    0    0  0.82659227324E-01  0.31528951757E+00  0.62242557140E+02  0.62687327949E+02  0.74470750000E+01 0.  1.
        -31    1    1    2    0    0 -0.82659227324E-01 -0.31528951757E+00  0.55932470456E+02  0.56427000784E+02  0.74470750000E+01 0. -1.
<mgrwt>
<rscale>  0 0.14929372E+02</rscale>
<asrwt>0</asrwt>
<pdfrwt beam="1">  1        2 0.98492061E+00 0.14929372E+02</pdfrwt>
<pdfrwt beam="2">  1       -2 0.99743881E+00 0.14929372E+02</pdfrwt>
<totfact>-0.25260718E-13</totfact>
</mgrwt>
</event>
<event>
 4    1  0.5160210E-019  0.1493673E+02  0.7818608E-02  0.1870005E+00
          2   -1    0    0  501    0  0.00000000000E+00  0.00000000000E+00  0.12022092773E+03  0.12022092776E+03  0.25500000000E-02 0. -1.
         -2   -1    0    0    0  501 -0.00000000000E+00 -0.00000000000E+00 -0.46394614246E+00  0.46395315023E+00  0.25500000000E-02 0.  1.
         31    1    1    2    0    0 -0.11247931885E+00 -0.51147643595E+00  0.61559278050E+02  0.62010304788E+02  0.74470750000E+01 0. -1.
        -31    1    1    2    0    0  0.11247931885E+00  0.51147643595E+00  0.58197703539E+02  0.58674576121E+02  0.74470750000E+01 0.  1.
<mgrwt>
<rscale>  0 0.14936728E+02</rscale>
<asrwt>0</asrwt>
<pdfrwt beam="1">  1        2 0.99790703E+00 0.14936728E+02</pdfrwt>
<pdfrwt beam="2">  1       -2 0.98542877E+00 0.14936728E+02</pdfrwt>
<totfact> 0.24331362E-13</totfact>
</mgrwt>
</event>
<event>
 4    1 -0.5160210E-019  0.1499291E+02  0.7818608E-02  0.1868285E+00
          2   -1    0    0  501    0  0.00000000000E+00  0.00000000000E+00  0.11979486512E+03  0.11979486514E+03  0.25500000000E-02 0.  1.
         -2   -1    0    0    0  501 -0.00000000000E+00 -0.00000000000E+00 -0.46910540000E+00  0.46911233069E+00  0.25500000000E-02 0. -1.
         31    1    1    2    0    0 -0.46632788318E+00 -0.69241337330E+00  0.58038425056E+02  0.58520206826E+02  0.74470750000E+01 0. -1.
        -31    1    1    2    0    0  0.46632788318E+00  0.69241337330E+00  0.61287334662E+02  0.61743770649E+02  0.74470750000E+01 0.  1.
<mgrwt>
<rscale>  0 0.14992910E+02</rscale>
<asrwt>0</asrwt>
<pdfrwt beam="1">  1        2 0.99442671E+00 0.14992910E+02</pdfrwt>
<pdfrwt beam="2">  1       -2 0.99633059E+00 0.14992910E+02</pdfrwt>
<totfact>-0.11354431E-13</totfact>
</mgrwt>
</event>
<event>
 4    1 -0.5160210E-019  0.1499687E+02  0.7818608E-02  0.1868164E+00
         -2   -1    0    0    0  501 -0.00000000000E+00  0.00000000000E+00  0.11980831118E+03  0.11980831121E+03  0.25500000000E-02 0. -1.
          2   -1    0    0  501    0  0.00000000000E+00 -0.00000000000E+00 -0.46930061975E+00  0.46930754756E+00  0.25500000000E-02 0.  1.
         31    1    1    2    0    0 -0.49051928653E+00  0.39624974335E+00  0.54791125960E+02  0.55298499374E+02  0.74470750000E+01 0.  1.
        -31    1    1    2    0    0  0.49051928653E+00 -0.39624974335E+00  0.64547884600E+02  0.64979119381E+02  0.74470750000E+01 0. -1.
<mgrwt>
<rscale>  0 0.14996871E+02</rscale>
<asrwt>0</asrwt>
<pdfrwt beam="2">  1        2 0.99674402E+00 0.14996871E+02</pdfrwt>
<pdfrwt beam="1">  1       -2 0.99453951E+00 0.14996871E+02</pdfrwt>
<totfact>-0.93022871E-14</totfact>
</mgrwt>
</event>
<event>
 4    1  0.5160210E-019  0.1496474E+02  0.7818608E-02  0.1869146E+00
          2   -1    0    0  501    0  0.00000000000E+00  0.00000000000E+00  0.12027515265E+03  0.12027515268E+03  0.25500000000E-02 0.  1.
         -2   -1    0    0    0  501 -0.00000000000E+00 -0.00000000000E+00 -0.46547814650E+00  0.46548513120E+00  0.25500000000E-02 0. -1.
         31    1    1    2    0    0  0.34560746441E+00  0.63719623170E+00  0.59593519207E+02  0.60061401258E+02  0.74470750000E+01 0. -1.
        -31    1    1    2    0    0 -0.34560746441E+00 -0.63719623170E+00  0.60216155297E+02  0.60679236550E+02  0.74470750000E+01 0.  1.
<mgrwt>
<rscale>  0 0.14964742E+02</rscale>
<asrwt>0</asrwt>
<pdfrwt beam="1">  1        2 0.99836807E+00 0.14964742E+02</pdfrwt>
<pdfrwt beam="2">  1       -2 0.98867189E+00 0.14964742E+02</pdfrwt>
<totfact> 0.45129488E-14</totfact>
</mgrwt>
</event>
<event>
 4    1  0.5160210E-019  0.1490879E+02  0.7818608E-02  0.1870865E+00
         -2   -1    0    0    0  501 -0.00000000000E+00  0.00000000000E+00  0.11817694449E+03  0.11817694451E+03  0.25500000000E-02 0.  1.
          2   -1    0    0  501    0  0.00000000000E+00 -0.00000000000E+00 -0.47020692888E+00  0.47021384334E+00  0.25500000000E-02 0. -1.
         31    1    1    2    0    0  0.11637571262E+00 -0.28420745445E+00  0.57885646609E+02  0.58363527366E+02  0.74470750000E+01 0.  1.
        -31    1    1    2    0    0 -0.11637571262E+00  0.28420745445E+00  0.59821090948E+02  0.60283630991E+02  0.74470750000E+01 0.  1.
<mgrwt>
<rscale>  0 0.14908793E+02</rscale>
<asrwt>0</asrwt>
<pdfrwt beam="2">  1        2 0.99860748E+00 0.14908793E+02</pdfrwt>
<pdfrwt beam="1">  1       -2 0.98105772E+00 0.14908793E+02</pdfrwt>
<totfact> 0.48051112E-13</totfact>
</mgrwt>
</event>
<event>
 4    1  0.5160210E-019  0.1489936E+02  0.7818608E-02  0.1871155E+00
         -2   -1    0    0    0  501 -0.00000000000E+00  0.00000000000E+00  0.11884301922E+03  0.11884301924E+03  0.25500000000E-02 0.  1.
          2   -1    0    0  501    0  0.00000000000E+00 -0.00000000000E+00 -0.46697988844E+00  0.46698685068E+00  0.25500000000E-02 0. -1.
         31    1    1    2    0    0  0.13271715668E+00 -0.78470312540E-01  0.58206645541E+02  0.58681311187E+02  0.74470750000E+01 0. -1.
        -31    1    1    2    0    0 -0.13271715668E+00  0.78470312540E-01  0.60169393787E+02  0.60628694908E+02  0.74470750000E+01 0.  1.
<mgrwt>
<rscale>  0 0.14899358E+02</rscale>
<asrwt>0</asrwt>
<pdfrwt beam="2">  1        2 0.99180297E+00 0.14899358E+02</pdfrwt>
<pdfrwt beam="1">  1       -2 0.98653861E+00 0.14899358E+02</pdfrwt>
<totfact> 0.37961364E-13</totfact>
</mgrwt>
</event>
<event>
 4    1 -0.5160210E-019  0.1499060E+02  0.7818608E-02  0.1868356E+00
          2   -1    0    0  501    0  0.00000000000E+00  0.00000000000E+00  0.11956000352E+03  0.11956000355E+03  0.25500000000E-02 0. -1.
         -2   -1    0    0    0  501 -0.00000000000E+00 -0.00000000000E+00 -0.46988179290E+00  0.46988871214E+00  0.25500000000E-02 0.  1.
         31    1    1    2    0    0 -0.20238471283E+00  0.65260326451E+00  0.63578156552E+02  0.64016464813E+02  0.74470750000E+01 0.  1.
        -31    1    1    2    0    0  0.20238471283E+00 -0.65260326451E+00  0.55511965179E+02  0.56013427449E+02  0.74470750000E+01 0.  1.
<mgrwt>
<rscale>  0 0.14990595E+02</rscale>
<asrwt>0</asrwt>
<pdfrwt beam="1">  1        2 0.99249113E+00 0.14990595E+02</pdfrwt>
<pdfrwt beam="2">  1       -2 0.99796544E+00 0.14990595E+02</pdfrwt>
<totfact>-0.88051584E-14</totfact>
</mgrwt>
</event>
<event>
 4    1 -0.5160210E-019  0.1497979E+02  0.7818608E-02  0.1868686E+00
          2   -1    0    0  501    0  0.00000000000E+00  0.00000000000E+00  0.11941687230E+03  0.11941687233E+03  0.25500000000E-02 0. -1.
         -2   -1    0    0    0  501 -0.00000000000E+00 -0.00000000000E+00 -0.46976729644E+00  0.46977421737E+00  0.25500000000E-02 0.  1.
         31    1    1    2    0    0 -0.39970513824E+00 -0.25874026252E+00  0.54330766680E+02  0.54840841029E+02  0.74470750000E+01 0.  1.
        -31    1    1    2    0    0  0.39970513824E+00  0.25874026252E+00  0.64616338325E+02  0.65045805517E+02  0.74470750000E+01 0. -1.
<mgrwt>
<rscale>  0 0.14979794E+02</rscale>
<asrwt>0</asrwt>
<pdfrwt beam="1">  1        2 0.99130667E+00 0.14979794E+02</pdfrwt>
<pdfrwt beam="2">  1       -2 0.99771854E+00 0.14979794E+02</pdfrwt>
<totfact>-0.10515701E-13</totfact>
</mgrwt>
</event>
<event>
 4    1 -0.5160210E-019  0.1500506E+02  0.7818608E-02  0.1867914E+00
         -2   -1    0    0    0  501 -0.00000000000E+00  0.00000000000E+00  0.11969580187E+03  0.11969580190E+03  0.25500000000E-02 0.  1.
          2   -1    0    0  501    0  0.00000000000E+00 -0.00000000000E+00 -0.47025473877E+00  0.47026165253E+00  0.25500000000E-02 0. -1.
         31    1    1    2    0    0  0.16968114138E+00  0.77489091989E+00  0.56033458280E+02  0.56531731094E+02  0.74470750000E+01 0. -1.
        -31    1    1    2    0    0 -0.16968114138E+00 -0.77489091989E+00  0.63192088852E+02  0.63634332456E+02  0.74470750000E+01 0.  1.
<mgrwt>
<rscale>  0 0.15005057E+02</rscale>
<asrwt>0</asrwt>
<pdfrwt beam="2">  1        2 0.99875885E+00 0.15005057E+02</pdfrwt>
<pdfrwt beam="1">  1       -2 0.99361709E+00 0.15005057E+02</pdfrwt>
<totfact>-0.41863582E-14</totfact>
</mgrwt>
</event>
<event>
 4    1  0.5160210E-019  0.1490326E+02  0.7818608E-02  0.1871035E+00
         -2   -1    0    0    0  501 -0.00000000000E+00  0.00000000000E+00  0.11890430625E+03  0.11890430627E+03  0.25500000000E-02 0. -1.
          2   -1    0    0  501    0  0.00000000000E+00 -0.00000000000E+00 -0.46698396221E+00  0.46699092439E+00  0.25500000000E-02 0.  1.
         31    1    1    2    0    0 -0.47674876258E-01  0.24596080865E+00  0.59792102728E+02  0.60254603511E+02  0.74470750000E+01 0.  1.
        -31    1    1    2    0    0  0.47674876258E-01 -0.24596080865E+00  0.58645219558E+02  0.59116693688E+02  0.74470750000E+01 0.  1.
<mgrwt>
<rscale>  0 0.14903264E+02</rscale>
<asrwt>0</asrwt>
<pdfrwt beam="2">  1        2 0.99181359E+00 0.14903264E+02</pdfrwt>
<pdfrwt beam="1">  1       -2 0.98704541E+00 0.14903264E+02</pdfrwt>
<totfact> 0.31020122E-13</totfact>
</mgrwt>
</event>
<event>
 4    1 -0.5160210E-019  0.1494550E+02  0.7818608E-02  0.1869736E+00
         -2   -1    0    0    0  501 -0.00000000000E+00  0.00000000000E+00  0.12021265758E+03  0.12021265761E+03  0.25500000000E-02 0. -1.
          2   -1    0    0  501    0  0.00000000000E+00 -0.00000000000E+00 -0.46452329059E+00  0.46453028964E+00  0.25500000000E-02 0.  1.
         31    1    1    2    0    0  0.30624375602E+00 -0.36229217439E+00  0.56664155200E+02  0.57153394050E+02  0.74470750000E+01 0.  1.
        -31    1    1    2    0    0 -0.30624375602E+00  0.36229217439E+00  0.63083979089E+02  0.63523793846E+02  0.74470750000E+01 0. -1.
<mgrwt>
<rscale>  0 0.14945501E+02</rscale>
<asrwt>0</asrwt>
<pdfrwt beam="2">  1        2 0.98664965E+00 0.14945501E+02</pdfrwt>
<pdfrwt beam="1">  1       -2 0.99784342E+00 0.14945501E+02</pdfrwt>
<totfact>-0.16958696E-13</totfact>
</mgrwt>
</event>
<event>
 4    1  0.5160210E-019  0.1493914E+02  0.7818608E-02  0.1869931E+00
          2   -1    0    0  501    0  0.00000000000E+00  0.00000000000E+00  0.12007844698E+03  0.12007844701E+03  0.25500000000E-02 0.  1.
         -2   -1    0    0    0  501 -0.00000000000E+00 -0.00000000000E+00 -0.46464662926E+00  0.46465362646E+00  0.25500000000E-02 0. -1.
         31    1    1    2    0    0 -0.27259204701E+00  0.18886794624E-01  0.55685573678E+02  0.56181996271E+02  0.74470750000E+01 0. -1.
        -31    1    1    2    0    0  0.27259204701E+00 -0.18886794624E-01  0.63928226671E+02  0.64361104361E+02  0.74470750000E+01 0.  1.
<mgrwt>
<rscale>  0 0.14939139E+02</rscale>
<asrwt>0</asrwt>
<pdfrwt beam="1">  1        2 0.99673470E+00 0.14939139E+02</pdfrwt>
<pdfrwt beam="2">  1       -2 0.98690636E+00 0.14939139E+02</pdfrwt>
<totfact> 0.19944829E-13</totfact>
</mgrwt>
</event>
<event>
 4    1 -0.5160210E-019  0.1490518E+02  0.7818608E-02  0.1870976E+00
         -2   -1    0    0    0  501 -0.00000000000E+00  0.00000000000E+00  0.11949066595E+03  0.11949066597E+03  0.25500000000E-02 0.  1.
          2   -1    0    0  501    0  0.00000000000E+00 -0.00000000000E+00 -0.46481198324E+00  0.46481897795E+00  0.25500000000E-02 0. -1.
         31    1    1    2    0    0 -0.20567351824E+00  0.19963815385E+00  0.59467735334E+02  0.59932901054E+02  0.74470750000E+01 0.  1.
        -31    1    1    2    0    0  0.20567351824E+00 -0.19963815385E+00  0.59558118629E+02  0.60022583897E+02  0.74470750000E+01 0. -1.
<mgrwt>
<rscale>  0 0.14905182E+02</rscale>
<asrwt>0</asrwt>
<pdfrwt beam="2">  1        2 0.98723749E+00 0.14905182E+02</pdfrwt>
<pdfrwt beam="1">  1       -2 0.99187588E+00 0.14905182E+02</pdfrwt>
<totfact>-0.15524060E-13</totfact>
</mgrwt>
</event>
<event>
 4    1  0.5160210E-019  0.1492235E+02  0.7818608E-02  0.1870447E+00
         -2   -1    0    0    0  501 -0.00000000000E+00  0.00000000000E+00  0.11836427765E+03  0.11836427767E+03  0.25500000000E-02 0. -1.
          2   -1    0    0  501    0  0.00000000000E+00 -0.00000000000E+00 -0.47031703447E+00  0.47032394731E+00  0.25500000000E-02 0.  1.
         31    1    1    2    0    0 -0.22414600108E+00  0.27559008470E+00  0.56638503538E+02  0.57127096901E+02  0.74470750000E+01 0.  1.
        -31    1    1    2    0    0  0.22414600108E+00 -0.27559008470E+00  0.61255457074E+02  0.61707504720E+02  0.74470750000E+01 0. -1.
<mgrwt>
<rscale>  0 0.14922352E+02</rscale>
<asrwt>0</asrwt>
<pdfrwt beam="2">  1        2 0.99884666E+00 0.14922352E+02</pdfrwt>
<pdfrwt beam="1">  1       -2 0.98260763E+00 0.14922352E+02</pdfrwt>
<totfact> 0.30146665E-13</totfact>
</mgrwt>
</event>
<event>
 4    1  0.5160210E-019  0.1489594E+02  0.7818608E-02  0.1871261E+00
          2   -1    0    0  501    0  0.00000000000E+00  0.00000000000E+00  0.11916841000E+03  0.11916841002E+03  0.25500000000E-02 0.  1.
         -2   -1    0    0    0  501 -0.00000000000E+00 -0.00000000000E+00 -0.46549088774E+00  0.46549787225E+00  0.25500000000E-02 0. -1.
         31    1    1    2    0    0 -0.73444052704E-01  0.88151548343E-01  0.59257248408E+02  0.59723475951E+02  0.74470750000E+01 0.  1.
        -31    1    1    2    0    0  0.73444052704E-01 -0.88151548343E-01  0.59445670701E+02  0.59910431945E+02  0.74470750000E+01 0.  1.
<mgrwt>
<rscale>  0 0.14895936E+02</rscale>
<asrwt>0</asrwt>
<pdfrwt beam="1">  1        2 0.98921685E+00 0.14895936E+02</pdfrwt>
<pdfrwt beam="2">  1       -2 0.98866345E+00 0.14895936E+02</pdfrwt>
<totfact> 0.15772579E-13</totfact>
</mgrwt>
</event>
<event>
 4    1 -0.5160210E-019  0.1489840E+02  0.7818608E-02  0.1871185E+00
         -2   -1    0    0    0  501 -0.00000000000E+00  0.00000000000E+00  0.11964462556E+03  0.11964462559E+03  0.25500000000E-02 0.  1.
          2   -1    0    0  501    0  0.00000000000E+00 -0.00000000000E+00 -0.46379133742E+00  0.46379834753E+00  0.25500000000E-02 0. -1.
         31    1    1    2    0    0 -0.11772097626E+00  0.10976144889E+00  0.60200760503E+02  0.60659841716E+02  0.74470750000E+01 0.  1.
        -31    1    1    2    0    0  0.11772097626E+00 -0.10976144889E+00  0.58980073721E+02  0.59448582221E+02  0.74470750000E+01 0. -1.
<mgrwt>
<rscale>  0 0.14898398E+02</rscale>
<asrwt>0</asrwt>
<pdfrwt beam="2">  1        2 0.98508300E+00 0.14898398E+02</pdfrwt>
<pdfrwt beam="1">  1       -2 0.99314048E+00 0.14898398E+02</pdfrwt>
<totfact>-0.30461593E-13</totfact>
</mgrwt>
</event>
<event>
 4    1  0.5160210E-019  0.1493923E+02  0.7818608E-02  0.1869929E+00
         -2   -1    0    0    0  501 -0.00000000000E+00  0.00000000000E+00  0.11903237782E+03  0.11903237785E+03  0.25500000000E-02 0.  1.
          2   -1    0    0  501    0  0.00000000000E+00 -0.00000000000E+00 -0.46873552165E+00  0.46874245781E+00  0.25500000000E-02 0. -1.
         31    1    1    2    0    0 -0.11886228747E+00  0.56658177286E+00  0.59541094542E+02  0.60007799563E+02  0.74470750000E+01 0.  1.
        -31    1    1    2    0    0  0.11886228747E+00 -0.56658177286E+00  0.59022547756E+02  0.59493320741E+02  0.74470750000E+01 0. -1.
<mgrwt>
<rscale>  0 0.14939226E+02</rscale>
<asrwt>0</asrwt>
<pdfrwt beam="2">  1        2 0.99552322E+00 0.14939226E+02</pdfrwt>
<pdfrwt beam="1">  1       -2 0.98811887E+00 0.14939226E+02</pdfrwt>
<totfact> 0.13308346E-13</totfact>
</mgrwt>
</event>
<event>
 4    1  0.5160210E-019  0.1492471E+02  0.7818608E-02  0.1870375E+00
         -2   -1    0    0    0  501 -0.00000000000E+00  0.00000000000E+00  0.11920182185E+03  0.11920182188E+03  0.25500000000E-02 0.  1.
          2   -1    0    0  501    0  0.00000000000E+00 -0.00000000000E+00 -0.46716024090E+00  0.46716720045E+00  0.25500000000E-02 0. -1.
         31    1    1    2    0    0 -0.35331358483E+00  0.21924459756E+00  0.61246821571E+02  0.61699310995E+02  0.74470750000E+01 0.  1.
        -31    1    1    2    0    0  0.35331358483E+00 -0.21924459756E+00  0.57487840037E+02  0.57969678082E+02  0.74470750000E+01 0. -1.
<mgrwt>
<rscale>  0 0.14924714E+02</rscale>
<asrwt>0</asrwt>
<pdfrwt beam="2">  1        2 0.99219621E+00 0.14924714E+02</pdfrwt>
<pdfrwt beam="1">  1       -2 0.98950693E+00 0.14924714E+02</pdfrwt>
<totfact> 0.47731439E-14</totfact>
</mgrwt>
</event>
<event>
 4    1  0.5160210E-019  0.1490913E+02  0.7818608E-02  0.1870854E+00
         -2   -1    0    0    0  501 -0.00000000000E+00  0.00000000000E+00  0.11882940119E+03  0.11882940122E+03  0.25500000000E-02 0. -1.
          2   -1    0    0  501    0  0.00000000000E+00 -0.00000000000E+00 -0.46764621634E+00  0.46765316866E+00  0.25500000000E-02 0.  1.
         31    1    1    2    0    0 -0.71822631056E-01  0.48677833276E-01  0.61762337900E+02  0.62209748729E+02  0.74470750000E+01 0.  1.
        -31    1    1    2    0    0  0.71822631056E-01 -0.48677833276E-01  0.56599417076E+02  0.57087305659E+02  0.74470750000E+01 0.  1.
<mgrwt>
<rscale>  0 0.14909130E+02</rscale>
<asrwt>0</asrwt>
<pdfrwt beam="2">  1        2 0.99321215E+00 0.14909130E+02</pdfrwt>
<pdfrwt beam="1">  1       -2 0.98643151E+00 0.14909130E+02</pdfrwt>
<totfact> 0.35665492E-13</totfact>
</mgrwt>
</event>
<event>
 4    1  0.5160210E-019  0.1491801E+02  0.7818608E-02  0.1870581E+00
         -2   -1    0    0    0  501 -0.00000000000E+00  0.00000000000E+00  0.11828288068E+03  0.11828288071E+03  0.25500000000E-02 0.  1.
          2   -1    0    0  501    0  0.00000000000E+00 -0.00000000000E+00 -0.47036676138E+00  0.47037367349E+00  0.25500000000E-02 0. -1.
         31    1    1    2    0    0  0.41158857320E+00 -0.70514304474E-01  0.59373423423E+02  0.59840092851E+02  0.74470750000E+01 0. -1.
        -31    1    1    2    0    0 -0.41158857320E+00  0.70514304474E-01  0.58439090497E+02  0.58913161531E+02  0.74470750000E+01 0. -1.
<mgrwt>
<rscale>  0 0.14918009E+02</rscale>
<asrwt>0</asrwt>
<pdfrwt beam="2">  1        2 0.99894913E+00 0.14918009E+02</pdfrwt>
<pdfrwt beam="1">  1       -2 0.98193499E+00 0.14918009E+02</pdfrwt>
<totfact> 0.31873266E-13</totfact>
</mgrwt>
</event>
<event>
 4    1 -0.5160210E-019  0.1494050E+02  0.7818608E-02  0.1869890E+00
         -2   -1    0    0    0  501 -0.00000000000E+00  0.00000000000E+00  0.11937754129E+03  0.11937754132E+03  0.25500000000E-02 0. -1.
          2   -1    0    0  501    0  0.00000000000E+00 -0.00000000000E+00 -0.46745990315E+00  0.46746685824E+00  0.25500000000E-02 0.  1.
         31    1    1    2    0    0  0.17469358147E+00 -0.49389630948E+00  0.57313817413E+02  0.57797984774E+02  0.74470750000E+01 0.  1.
        -31    1    1    2    0    0 -0.17469358147E+00  0.49389630948E+00  0.61596263977E+02  0.62047023405E+02  0.74470750000E+01 0. -1.
<mgrwt>
<rscale>  0 0.14940500E+02</rscale>
<asrwt>0</asrwt>
<pdfrwt beam="2">  1        2 0.99283587E+00 0.14940500E+02</pdfrwt>
<pdfrwt beam="1">  1       -2 0.99096238E+00 0.14940500E+02</pdfrwt>
<totfact>-0.47947802E-14</totfact>
</mgrwt>
</event>
<event>
 4    1 -0.5160210E-019  0.1497343E+02  0.7818608E-02  0.1868880E+00
         -2   -1    0    0    0  501 -0.00000000000E+00  0.00000000000E+00  0.11982374441E+03  0.11982374444E+03  0.25500000000E-02 0. -1.
          2   -1    0    0  501    0  0.00000000000E+00 -0.00000000000E+00 -0.46777439183E+00  0.46778134225E+00  0.25500000000E-02 0.  1.
         31    1    1    2    0    0  0.58571377660E+00 -0.48429741378E+00  0.58715011139E+02  0.59190278456E+02  0.74470750000E+01 0. -1.
        -31    1    1    2    0    0 -0.58571377660E+00  0.48429741378E+00  0.60640958883E+02  0.61101247327E+02  0.74470750000E+01 0. -1.
<mgrwt>
<rscale>  0 0.14973430E+02</rscale>
<asrwt>0</asrwt>
<pdfrwt beam="2">  1        2 0.99351563E+00 0.14973430E+02</pdfrwt>
<pdfrwt beam="1">  1       -2 0.99465450E+00 0.14973430E+02</pdfrwt>
<totfact>-0.13592061E-13</totfact>
</mgrwt>
</event>
<event>
 4    1 -0.5160210E-019  0.1501469E+02  0.7818608E-02  0.1867621E+00
         -2   -1    0    0    0  501 -0.00000000000E+00  0.00000000000E+00  0.12002690601E+03  0.12002690604E+03  0.25500000000E-02 0. -1.
          2   -1    0    0  501    0  0.00000000000E+00 -0.00000000000E+00 -0.46955958532E+00  0.46956650931E+00  0.25500000000E-02 0.  1.
         31    1    1    2    0    0  0.52506189348E+00  0.68438376252E+00  0.62960616090E+02  0.63405379706E+02  0.74470750000E+01 0. -1.
        -31    1    1    2    0    0 -0.52506189348E+00 -0.68438376252E+00  0.56596730339E+02  0.57091092845E+02  0.74470750000E+01 0. -1.
<mgrwt>
<rscale>  0 0.15014687E+02</rscale>
<asrwt>0</asrwt>
<pdfrwt beam="2">  1        2 0.99729897E+00 0.15014687E+02</pdfrwt>
<pdfrwt beam="1">  1       -2 0.99634914E+00 0.15014687E+02</pdfrwt>
<totfact>-0.73619065E-14</totfact>
</mgrwt>
</event>
<event>
 4    1 -0.5160210E-019  0.1493082E+02  0.7818608E-02  0.1870187E+00
         -2   -1    0    0    0  501 -0.00000000000E+00  0.00000000000E+00  0.12013501817E+03  0.12013501820E+03  0.25500000000E-02 0.  1.
          2   -1    0    0  501    0  0.00000000000E+00 -0.00000000000E+00 -0.46391087725E+00  0.46391788555E+00  0.25500000000E-02 0. -1.
         31    1    1    2    0    0 -0.45705161025E+00  0.20376073349E+00  0.61061190260E+02  0.61515675211E+02  0.74470750000E+01 0. -1.
        -31    1    1    2    0    0  0.45705161025E+00 -0.20376073349E+00  0.58609917033E+02  0.59083260872E+02  0.74470750000E+01 0.  1.
<mgrwt>
<rscale>  0 0.14930823E+02</rscale>
<asrwt>0</asrwt>
<pdfrwt beam="2">  1        2 0.98535145E+00 0.14930823E+02</pdfrwt>
<pdfrwt beam="1">  1       -2 0.99719638E+00 0.14930823E+02</pdfrwt>
<totfact>-0.25117169E-13</totfact>
</mgrwt>
</event>
<event>
 4    1 -0.5160210E-019  0.1491045E+02  0.7818608E-02  0.1870814E+00
          2   -1    0    0  501    0  0.00000000000E+00  0.00000000000E+00  0.11846447964E+03  0.11846447967E+03  0.25500000000E-02 0.  1.
         -2   -1    0    0    0  501 -0.00000000000E+00 -0.00000000000E+00 -0.46916985680E+00  0.46917678654E+00  0.25500000000E-02 0. -1.
         31    1    1    2    0    0 -0.34318001422E+00 -0.14860154019E-01  0.59466663412E+02  0.59932136428E+02  0.74470750000E+01 0.  1.
        -31    1    1    2    0    0  0.34318001422E+00  0.14860154019E-01  0.58528646376E+02  0.59001520031E+02  0.74470750000E+01 0. -1.
<mgrwt>
<rscale>  0 0.14910450E+02</rscale>
<asrwt>0</asrwt>
<pdfrwt beam="1">  1        2 0.98342669E+00 0.14910450E+02</pdfrwt>
<pdfrwt beam="2">  1       -2 0.99642329E+00 0.14910450E+02</pdfrwt>
<totfact>-0.40063271E-13</totfact>
</mgrwt>
</event>
<event>
 4    1 -0.5160210E-019  0.1491774E+02  0.7818608E-02  0.1870589E+00
         -2   -1    0    0    0  501 -0.00000000000E+00  0.00000000000E+00  0.11941078111E+03  0.11941078114E+03  0.25500000000E-02 0.  1.
          2   -1    0    0  501    0  0.00000000000E+00 -0.00000000000E+00 -0.46590696431E+00  0.46591394258E+00  0.25500000000E-02 0. -1.
         31    1    1    2    0    0 -0.17377534464E+00 -0.90372019527E-01  0.56493277918E+02  0.56982345871E+02  0.74470750000E+01 0. -1.
        -31    1    1    2    0    0  0.17377534464E+00  0.90372019527E-01  0.62451596227E+02  0.62894349209E+02  0.74470750000E+01 0.  1.
<mgrwt>
<rscale>  0 0.14917739E+02</rscale>
<asrwt>0</asrwt>
<pdfrwt beam="2">  1        2 0.98955153E+00 0.14917739E+02</pdfrwt>
<pdfrwt beam="1">  1       -2 0.99122439E+00 0.14917739E+02</pdfrwt>
<totfact>-0.80161169E-14</totfact>
</mgrwt>
</event>
<event>
 4    1  0.5160210E-019  0.1491540E+02  0.7818608E-02  0.1870661E+00
         -2   -1    0    0    0  501 -0.00000000000E+00  0.00000000000E+00  0.11844987796E+03  0.11844987798E+03  0.25500000000E-02 0. -1.
          2   -1    0    0  501    0  0.00000000000E+00 -0.00000000000E+00 -0.46953958583E+00  0.46954651011E+00  0.25500000000E-02 0.  1.
         31    1    1    2    0    0 -0.23409318246E+00 -0.29098751046E+00  0.57893476384E+02  0.58371679839E+02  0.74470750000E+01 0. -1.
        -31    1    1    2    0    0  0.23409318246E+00  0.29098751046E+00  0.60086861986E+02  0.60547744654E+02  0.74470750000E+01 0. -1.
<mgrwt>
<rscale>  0 0.14915404E+02</rscale>
<asrwt>0</asrwt>
<pdfrwt beam="2">  1        2 0.99720493E+00 0.14915404E+02</pdfrwt>
<pdfrwt beam="1">  1       -2 0.98330901E+00 0.14915404E+02</pdfrwt>
<totfact> 0.52272097E-13</totfact>
</mgrwt>
</event>
<event>
 4    1 -0.5160210E-019  0.1498537E+02  0.7818608E-02  0.1868515E+00
         -2   -1    0    0    0  501 -0.00000000000E+00  0.00000000000E+00  0.12001863707E+03  0.12001863709E+03  0.25500000000E-02 0.  1.
          2   -1    0    0  501    0  0.00000000000E+00 -0.00000000000E+00 -0.46775987840E+00  0.46776682903E+00  0.25500000000E-02 0. -1.
         31    1    1    2    0    0  0.12097573627E+00 -0.17092884444E+00  0.66195308284E+02  0.66613224037E+02  0.74470750000E+01 0.  1.
        -31    1    1    2    0    0 -0.12097573627E+00  0.17092884444E+00  0.53355568903E+02  0.53873179884E+02  0.74470750000E+01 0. -1.
<mgrwt>
<rscale>  0 0.14985369E+02</rscale>
<asrwt>0</asrwt>
<pdfrwt beam="2">  1        2 0.99349120E+00 0.14985369E+02</pdfrwt>
<pdfrwt beam="1">  1       -2 0.99626589E+00 0.14985369E+02</pdfrwt>
<totfact>-0.12353078E-13</totfact>
</mgrwt>
</event>
<event>
 4    1  0.5160210E-019  0.1494671E+02  0.7818608E-02  0.1869699E+00
          2   -1    0    0  501    0  0.00000000000E+00  0.00000000000E+00  0.11986694032E+03  0.11986694034E+03  0.25500000000E-02 0. -1.
         -2   -1    0    0    0  501 -0.00000000000E+00 -0.00000000000E+00 -0.46593854651E+00  0.46594552431E+00  0.25500000000E-02 0.  1.
         31    1    1    2    0    0 -0.16881605345E+00 -0.97921974052E-01  0.64490795729E+02  0.64919640690E+02  0.74470750000E+01 0. -1.
        -31    1    1    2    0    0  0.16881605345E+00  0.97921974052E-01  0.54910206042E+02  0.55413245179E+02  0.74470750000E+01 0.  1.
<mgrwt>
<rscale>  0 0.14946712E+02</rscale>
<asrwt>0</asrwt>
<pdfrwt beam="1">  1        2 0.99499649E+00 0.14946712E+02</pdfrwt>
<pdfrwt beam="2">  1       -2 0.98963299E+00 0.14946712E+02</pdfrwt>
<totfact> 0.30242053E-14</totfact>
</mgrwt>
</event>
<event>
 4    1 -0.5160210E-019  0.1490774E+02  0.7818608E-02  0.1870897E+00
         -2   -1    0    0    0  501 -0.00000000000E+00  0.00000000000E+00  0.12035258489E+03  0.12035258492E+03  0.25500000000E-02 0. -1.
          2   -1    0    0  501    0  0.00000000000E+00 -0.00000000000E+00 -0.46164142583E+00  0.46164846858E+00  0.25500000000E-02 0.  1.
         31    1    1    2    0    0 -0.29976908314E+00 -0.88223926614E-01  0.59459566167E+02  0.59924924529E+02  0.74470750000E+01 0.  1.
        -31    1    1    2    0    0  0.29976908314E+00  0.88223926614E-01  0.60431377298E+02  0.60889308857E+02  0.74470750000E+01 0. -1.
<mgrwt>
<rscale>  0 0.14907738E+02</rscale>
<asrwt>0</asrwt>
<pdfrwt beam="2">  1        2 0.98055642E+00 0.14907738E+02</pdfrwt>
<pdfrwt beam="1">  1       -2 0.99897661E+00 0.14907738E+02</pdfrwt>
<totfact>-0.24246050E-13</totfact>
</mgrwt>
</event>
<event>
 4    1 -0.5160210E-019  0.1496986E+02  0.7818608E-02  0.1868990E+00
          2   -1    0    0  501    0  0.00000000000E+00  0.00000000000E+00  0.11919118709E+03  0.11919118712E+03  0.25500000000E-02 0.  1.
         -2   -1    0    0    0  501 -0.00000000000E+00 -0.00000000000E+00 -0.47003263595E+00  0.47003955297E+00  0.25500000000E-02 0. -1.
         31    1    1    2    0    0  0.54246150526E+00 -0.31344441339E+00  0.62682686065E+02  0.63126623308E+02  0.74470750000E+01 0.  1.
        -31    1    1    2    0    0 -0.54246150526E+00  0.31344441339E+00  0.56038468388E+02  0.56534603361E+02  0.74470750000E+01 0.  1.
<mgrwt>
<rscale>  0 0.14969858E+02</rscale>
<asrwt>0</asrwt>
<pdfrwt beam="1">  1        2 0.98944274E+00 0.14969858E+02</pdfrwt>
<pdfrwt beam="2">  1       -2 0.99827245E+00 0.14969858E+02</pdfrwt>
<totfact>-0.99484132E-14</totfact>
</mgrwt>
</event>
<event>
 4    1 -0.5160210E-019  0.1502677E+02  0.7818608E-02  0.1867253E+00
          2   -1    0    0  501    0  0.00000000000E+00  0.00000000000E+00  0.12011890460E+03  0.12011890463E+03  0.25500000000E-02 0. -1.
         -2   -1    0    0    0  501 -0.00000000000E+00 -0.00000000000E+00 -0.46995571752E+00  0.46996263567E+00  0.25500000000E-02 0.  1.
         31    1    1    2    0    0 -0.21598981712E+00  0.93350588202E+00  0.57641841888E+02  0.58128813399E+02  0.74470750000E+01 0. -1.
        -31    1    1    2    0    0  0.21598981712E+00 -0.93350588202E+00  0.62007106997E+02  0.62460053866E+02  0.74470750000E+01 0.  1.
<mgrwt>
<rscale>  0 0.15026774E+02</rscale>
<asrwt>0</asrwt>
<pdfrwt beam="1">  1        2 0.99711313E+00 0.15026774E+02</pdfrwt>
<pdfrwt beam="2">  1       -2 0.99814001E+00 0.15026774E+02</pdfrwt>
<totfact>-0.48079002E-14</totfact>
</mgrwt>
</event>
<event>
 4    1 -0.5160210E-019  0.1498201E+02  0.7818608E-02  0.1868618E+00
          2   -1    0    0  501    0  0.00000000000E+00  0.00000000000E+00  0.11969746370E+03  0.11969746373E+03  0.25500000000E-02 0. -1.
         -2   -1    0    0    0  501 -0.00000000000E+00 -0.00000000000E+00 -0.46880492724E+00  0.46881186237E+00  0.25500000000E-02 0.  1.
         31    1    1    2    0    0 -0.60934579494E+00  0.35634598204E-01  0.63886292340E+02  0.64321768066E+02  0.74470750000E+01 0. -1.
        -31    1    1    2    0    0  0.60934579494E+00 -0.35634598204E-01  0.55342366437E+02  0.55844507528E+02  0.74470750000E+01 0.  1.
<mgrwt>
<rscale>  0 0.14982013E+02</rscale>
<asrwt>0</asrwt>
<pdfrwt beam="1">  1        2 0.99361884E+00 0.14982013E+02</pdfrwt>
<pdfrwt beam="2">  1       -2 0.99569175E+00 0.14982013E+02</pdfrwt>
<totfact>-0.12997575E-13</totfact>
</mgrwt>
</event>
<event>
 4    1 -0.5160210E-019  0.1495640E+02  0.7818608E-02  0.1869402E+00
          2   -1    0    0  501    0  0.00000000000E+00  0.00000000000E+00  0.11922302281E+03  0.11922302284E+03  0.25500000000E-02 0.  1.
         -2   -1    0    0    0  501 -0.00000000000E+00 -0.00000000000E+00 -0.46906274657E+00  0.46906967789E+00  0.25500000000E-02 0. -1.
         31    1    1    2    0    0  0.46170212667E+00  0.20345268970E+00  0.63044354616E+02  0.63484676394E+02  0.74470750000E+01 0.  1.
        -31    1    1    2    0    0 -0.46170212667E+00 -0.20345268970E+00  0.55709605448E+02  0.56207416122E+02  0.74470750000E+01 0. -1.
<mgrwt>
<rscale>  0 0.14956403E+02</rscale>
<asrwt>0</asrwt>
<pdfrwt beam="1">  1        2 0.98969797E+00 0.14956403E+02</pdfrwt>
<pdfrwt beam="2">  1       -2 0.99622171E+00 0.14956403E+02</pdfrwt>
<totfact>-0.16816488E-13</totfact>
</mgrwt>
</event>
<event>
 4    1  0.5160210E-019  0.1493136E+02  0.7818608E-02  0.1870170E+00
         -2   -1    0    0    0  501 -0.00000000000E+00  0.00000000000E+00  0.11898420917E+03  0.11898420920E+03  0.25500000000E-02 0. -1.
          2   -1    0    0  501    0  0.00000000000E+00 -0.00000000000E+00 -0.46843158353E+00  0.46843852419E+00  0.25500000000E-02 0.  1.
         31    1    1    2    0    0 -0.23025925216E+00  0.36300773942E+00  0.56822674688E+02  0.57310209201E+02  0.74470750000E+01 0.  1.
        -31    1    1    2    0    0  0.23025925216E+00 -0.36300773942E+00  0.61693102897E+02  0.62142438519E+02  0.74470750000E+01 0. -1.
<mgrwt>
<rscale>  0 0.14931360E+02</rscale>
<asrwt>0</asrwt>
<pdfrwt beam="2">  1        2 0.99487866E+00 0.14931360E+02</pdfrwt>
<pdfrwt beam="1">  1       -2 0.98771807E+00 0.14931360E+02</pdfrwt>
<totfact> 0.17849748E-13</totfact>
</mgrwt>
</event>
<event>
 4    1  0.5160210E-019  0.1491080E+02  0.7818608E-02  0.1870803E+00
         -2   -1    0    0    0  501 -0.00000000000E+00  0.00000000000E+00  0.11841776505E+03  0.11841776508E+03  0.25500000000E-02 0. -1.
          2   -1    0    0  501    0  0.00000000000E+00 -0.00000000000E+00 -0.46937697408E+00  0.46938390076E+00  0.25500000000E-02 0.  1.
         31    1    1    2    0    0 -0.12591477620E+00 -0.23177403561E-01  0.56357957679E+02  0.56847996548E+02  0.74470750000E+01 0.  1.
        -31    1    1    2    0    0  0.12591477620E+00  0.23177403561E-01  0.61590430399E+02  0.62039152432E+02  0.74470750000E+01 0. -1.
<mgrwt>
<rscale>  0 0.14910800E+02</rscale>
<asrwt>0</asrwt>
<pdfrwt beam="2">  1        2 0.99685988E+00 0.14910800E+02</pdfrwt>
<pdfrwt beam="1">  1       -2 0.98304213E+00 0.14910800E+02</pdfrwt>
<totfact> 0.60048886E-13</totfact>
</mgrwt>
</event>
<event>
 4    1 -0.5160210E-019  0.1498649E+02  0.7818608E-02  0.1868481E+00
         -2   -1    0    0    0  501 -0.00000000000E+00  0.00000000000E+00  0.12030850819E+03  0.12030850822E+03  0.25500000000E-02 0. -1.
          2   -1    0    0  501    0  0.00000000000E+00 -0.00000000000E+00 -0.46670246759E+00  0.46670943396E+00  0.25500000000E-02 0.  1.
         31    1    1    2    0    0 -0.17008386763E+00 -0.27216595720E+00  0.53747674702E+02  0.54262090494E+02  0.74470750000E+01 0.  1.
        -31    1    1    2    0    0  0.17008386763E+00  0.27216595720E+00  0.66094131023E+02  0.66513127159E+02  0.74470750000E+01 0. -1.
<mgrwt>
<rscale>  0 0.14986487E+02</rscale>
<asrwt>0</asrwt>
<pdfrwt beam="2">  1        2 0.99126331E+00 0.14986487E+02</pdfrwt>
<pdfrwt beam="1">  1       -2 0.99865400E+00 0.14986487E+02</pdfrwt>
<totfact>-0.68031933E-14</totfact>
</mgrwt>
</event>
<event>
 4    1 -0.5160210E-019  0.1498096E+02  0.7818608E-02  0.1868650E+00
          2   -1    0    0  501    0  0.00000000000E+00  0.00000000000E+00  0.11995253669E+03  0.11995253672E+03  0.25500000000E-02 0. -1.
         -2   -1    0    0    0  501 -0.00000000000E+00 -0.00000000000E+00 -0.46774243400E+00  0.46774938488E+00  0.25500000000E-02 0.  1.
         31    1    1    2    0    0  0.55125906837E+00  0.40276414501E+00  0.63174256626E+02  0.63615341953E+02  0.74470750000E+01 0. -1.
        -31    1    1    2    0    0 -0.55125906837E+00 -0.40276414501E+00  0.56310537634E+02  0.56804944153E+02  0.74470750000E+01 0.  1.
<mgrwt>
<rscale>  0 0.14980963E+02</rscale>
<asrwt>0</asrwt>
<pdfrwt beam="1">  1        2 0.99571918E+00 0.14980963E+02</pdfrwt>
<pdfrwt beam="2">  1       -2 0.99345217E+00 0.14980963E+02</pdfrwt>
<totfact>-0.10195596E-13</totfact>
</mgrwt>
</event>
<event>
 4    1  0.5160210E-019  0.1492201E+02  0.7818608E-02  0.1870458E+00
         -2   -1    0    0    0  501 -0.00000000000E+00  0.00000000000E+00  0.11857471210E+03  0.11857471213E+03  0.25500000000E-02 0. -1.
          2   -1    0    0  501    0  0.00000000000E+00 -0.00000000000E+00 -0.46946106911E+00  0.46946799456E+00  0.25500000000E-02 0.  1.
         31    1    1    2    0    0  0.18043509334E-01  0.45446371761E+00  0.58821950204E+02  0.59293234139E+02  0.74470750000E+01 0.  1.
        -31    1    1    2    0    0 -0.18043509334E-01 -0.45446371761E+00  0.59283300827E+02  0.59750945982E+02  0.74470750000E+01 0. -1.
<mgrwt>
<rscale>  0 0.14922014E+02</rscale>
<asrwt>0</asrwt>
<pdfrwt beam="2">  1        2 0.99704298E+00 0.14922014E+02</pdfrwt>
<pdfrwt beam="1">  1       -2 0.98434057E+00 0.14922014E+02</pdfrwt>
<totfact> 0.42342910E-13</totfact>
</mgrwt>
</event>
<event>
 4    1 -0.5160210E-019  0.1492558E+02  0.7818608E-02  0.1870348E+00
         -2   -1    0    0    0  501 -0.00000000000E+00  0.00000000000E+00  0.12028210014E+03  0.12028210017E+03  0.25500000000E-02 0.  1.
          2   -1    0    0  501    0  0.00000000000E+00 -0.00000000000E+00 -0.46301810070E+00  0.46302512251E+00  0.25500000000E-02 0. -1.
         31    1    1    2    0    0  0.12490783291E+00  0.18882403366E+00  0.63370549470E+02  0.63807027220E+02  0.74470750000E+01 0.  1.
        -31    1    1    2    0    0 -0.12490783291E+00 -0.18882403366E+00  0.56448532571E+02  0.56938098071E+02  0.74470750000E+01 0. -1.
<mgrwt>
<rscale>  0 0.14925577E+02</rscale>
<asrwt>0</asrwt>
<pdfrwt beam="2">  1        2 0.98346711E+00 0.14925577E+02</pdfrwt>
<pdfrwt beam="1">  1       -2 0.99840518E+00 0.14925577E+02</pdfrwt>
<totfact>-0.22034093E-13</totfact>
</mgrwt>
</event>
<event>
 4    1  0.5160210E-019  0.1489841E+02  0.7818608E-02  0.1871184E+00
          2   -1    0    0  501    0  0.00000000000E+00  0.00000000000E+00  0.12012395978E+03  0.12012395981E+03  0.25500000000E-02 0. -1.
         -2   -1    0    0    0  501 -0.00000000000E+00 -0.00000000000E+00 -0.46194164463E+00  0.46194868280E+00  0.25500000000E-02 0.  1.
         31    1    1    2    0    0 -0.84899872780E-01 -0.76661588435E-01  0.60937074488E+02  0.61390545349E+02  0.74470750000E+01 0. -1.
        -31    1    1    2    0    0  0.84899872780E-01  0.76661588435E-01  0.58724943652E+02  0.59195363146E+02  0.74470750000E+01 0.  1.
<mgrwt>
<rscale>  0 0.14898414E+02</rscale>
<asrwt>0</asrwt>
<pdfrwt beam="1">  1        2 0.99708866E+00 0.14898414E+02</pdfrwt>
<pdfrwt beam="2">  1       -2 0.98118452E+00 0.14898414E+02</pdfrwt>
<totfact> 0.83013921E-13</totfact>
</mgrwt>
</event>
<event>
 4    1  0.5160210E-019  0.1493001E+02  0.7818608E-02  0.1870212E+00
         -2   -1    0    0    0  501 -0.00000000000E+00  0.00000000000E+00  0.11842357933E+03  0.11842357935E+03  0.25500000000E-02 0.  1.
          2   -1    0    0  501    0  0.00000000000E+00 -0.00000000000E+00 -0.47056386087E+00  0.47057077008E+00  0.25500000000E-02 0. -1.
         31    1    1    2    0    0  0.18632947572E+00  0.28859720832E+00  0.55899116201E+02  0.56394043348E+02  0.74470750000E+01 0. -1.
        -31    1    1    2    0    0 -0.18632947572E+00 -0.28859720832E+00  0.62053899266E+02  0.62500106777E+02  0.74470750000E+01 0.  1.
<mgrwt>
<rscale>  0 0.14930006E+02</rscale>
<asrwt>0</asrwt>
<pdfrwt beam="2">  1        2 0.99937076E+00 0.14930006E+02</pdfrwt>
<pdfrwt beam="1">  1       -2 0.98310002E+00 0.14930006E+02</pdfrwt>
<totfact> 0.15667993E-13</totfact>
</mgrwt>
</event>
<event>
 4    1 -0.5160210E-019  0.1492033E+02  0.7818608E-02  0.1870510E+00
         -2   -1    0    0    0  501 -0.00000000000E+00  0.00000000000E+00  0.12018828736E+03  0.12018828739E+03  0.25500000000E-02 0. -1.
          2   -1    0    0  501    0  0.00000000000E+00 -0.00000000000E+00 -0.46305355298E+00  0.46306057425E+00  0.25500000000E-02 0.  1.
         31    1    1    2    0    0  0.17631401060E+00  0.36200168013E+00  0.61331151927E+02  0.61782936597E+02  0.74470750000E+01 0.  1.
        -31    1    1    2    0    0 -0.17631401060E+00 -0.36200168013E+00  0.58394081880E+02  0.58868411364E+02  0.74470750000E+01 0.  1.
<mgrwt>
<rscale>  0 0.14920327E+02</rscale>
<asrwt>0</asrwt>
<pdfrwt beam="2">  1        2 0.98353918E+00 0.14920327E+02</pdfrwt>
<pdfrwt beam="1">  1       -2 0.99762976E+00 0.14920327E+02</pdfrwt>
<totfact>-0.29996168E-13</totfact>
</mgrwt>
</event>
<event>
 4    1 -0.5160210E-019  0.1493451E+02  0.7818608E-02  0.1870073E+00
         -2   -1    0    0    0  501 -0.00000000000E+00  0.00000000000E+00  0.12028704117E+03  0.12028704120E+03  0.25500000000E-02 0. -1.
          2   -1    0    0  501    0  0.00000000000E+00 -0.00000000000E+00 -0.46355367400E+00  0.46356068770E+00  0.25500000000E-02 0.  1.
         31    1    1    2    0    0  0.54680272248E+00 -0.29906087062E-01  0.59642208508E+02  0.60107835174E+02  0.74470750000E+01 0.  1.
        -31    1    1    2    0    0 -0.54680272248E+00  0.29906087062E-01  0.60181278989E+02  0.60642766711E+02  0.74470750000E+01 0.  1.
<mgrwt>
<rscale>  0 0.14934514E+02</rscale>
<asrwt>0</asrwt>
<pdfrwt beam="2">  1        2 0.98460046E+00 0.14934514E+02</pdfrwt>
<pdfrwt beam="1">  1       -2 0.99845046E+00 0.14934514E+02</pdfrwt>
<totfact>-0.17797566E-13</totfact>
</mgrwt>
</event>
<event>
 4    1  0.5160210E-019  0.1491378E+02  0.7818608E-02  0.1870711E+00
          2   -1    0    0  501    0  0.00000000000E+00  0.00000000000E+00  0.12014376808E+03  0.12014376810E+03  0.25500000000E-02 0.  1.
         -2   -1    0    0    0  501 -0.00000000000E+00 -0.00000000000E+00 -0.46281881381E+00  0.46282583865E+00  0.25500000000E-02 0. -1.
         31    1    1    2    0    0 -0.23432012531E+00 -0.27148241412E+00  0.60915968488E+02  0.61370536510E+02  0.74470750000E+01 0.  1.
        -31    1    1    2    0    0  0.23432012531E+00  0.27148241412E+00  0.58764980775E+02  0.59236057432E+02  0.74470750000E+01 0.  1.
<mgrwt>
<rscale>  0 0.14913782E+02</rscale>
<asrwt>0</asrwt>
<pdfrwt beam="1">  1        2 0.99725970E+00 0.14913782E+02</pdfrwt>
<pdfrwt beam="2">  1       -2 0.98304111E+00 0.14913782E+02</pdfrwt>
<totfact> 0.54743528E-13</totfact>
</mgrwt>
</event>
<event>
 4    1 -0.5160210E-019  0.1497810E+02  0.7818608E-02  0.1868738E+00
         -2   -1    0    0    0  501 -0.00000000000E+00  0.00000000000E+00  0.12002458633E+03  0.12002458635E+03  0.25500000000E-02 0.  1.
          2   -1    0    0  501    0  0.00000000000E+00 -0.00000000000E+00 -0.46728283529E+00  0.46728979302E+00  0.25500000000E-02 0. -1.
         31    1    1    2    0    0  0.59733776079E+00 -0.51949531992E+00  0.59655077855E+02  0.60123322660E+02  0.74470750000E+01 0. -1.
        -31    1    1    2    0    0 -0.59733776079E+00  0.51949531992E+00  0.59902225637E+02  0.60368553487E+02  0.74470750000E+01 0.  1.
<mgrwt>
<rscale>  0 0.14978097E+02</rscale>
<asrwt>0</asrwt>
<pdfrwt beam="2">  1        2 0.99248213E+00 0.14978097E+02</pdfrwt>
<pdfrwt beam="1">  1       -2 0.99631114E+00 0.14978097E+02</pdfrwt>
<totfact>-0.13208584E-13</totfact>
</mgrwt>
</event>
<event>
 4    1 -0.5160210E-019  0.1498342E+02  0.7818608E-02  0.1868575E+00
          2   -1    0    0  501    0  0.00000000000E+00  0.00000000000E+00  0.11996920686E+03  0.11996920689E+03  0.25500000000E-02 0. -1.
         -2   -1    0    0    0  501 -0.00000000000E+00 -0.00000000000E+00 -0.46783065750E+00  0.46783760708E+00  0.25500000000E-02 0.  1.
         31    1    1    2    0    0  0.58304618538E+00  0.52547046258E-01  0.55174920855E+02  0.55678303867E+02  0.74470750000E+01 0.  1.
        -31    1    1    2    0    0 -0.58304618538E+00 -0.52547046258E-01  0.64326455349E+02  0.64758740629E+02  0.74470750000E+01 0.  1.
<mgrwt>
<rscale>  0 0.14983417E+02</rscale>
<asrwt>0</asrwt>
<pdfrwt beam="1">  1        2 0.99585775E+00 0.14983417E+02</pdfrwt>
<pdfrwt beam="2">  1       -2 0.99363936E+00 0.14983417E+02</pdfrwt>
<totfact>-0.10221606E-13</totfact>
</mgrwt>
</event>
<event>
 4    1  0.5160210E-019  0.1496654E+02  0.7818608E-02  0.1869091E+00
         -2   -1    0    0    0  501 -0.00000000000E+00  0.00000000000E+00  0.11908335551E+03  0.11908335553E+03  0.25500000000E-02 0. -1.
          2   -1    0    0  501    0  0.00000000000E+00 -0.00000000000E+00 -0.47025003284E+00  0.47025694666E+00  0.25500000000E-02 0.  1.
         31    1    1    2    0    0  0.51648855011E+00  0.50124907313E+00  0.58110219024E+02  0.58589883872E+02  0.74470750000E+01 0.  1.
        -31    1    1    2    0    0 -0.51648855011E+00 -0.50124907313E+00  0.60502886449E+02  0.60963728608E+02  0.74470750000E+01 0. -1.
<mgrwt>
<rscale>  0 0.14966545E+02</rscale>
<asrwt>0</asrwt>
<pdfrwt beam="2">  1        2 0.99872879E+00 0.14966545E+02</pdfrwt>
<pdfrwt beam="1">  1       -2 0.98855292E+00 0.14966545E+02</pdfrwt>
<totfact> 0.40061228E-14</totfact>
</mgrwt>
</event>
<event>
 4    1 -0.5160210E-019  0.1494467E+02  0.7818608E-02  0.1869762E+00
         -2   -1    0    0    0  501 -0.00000000000E+00  0.00000000000E+00  0.11988000889E+03  0.11988000892E+03  0.25500000000E-02 0. -1.
          2   -1    0    0  501    0  0.00000000000E+00 -0.00000000000E+00 -0.46576053255E+00  0.46576751302E+00  0.25500000000E-02 0.  1.
         31    1    1    2    0    0 -0.27541772681E+00 -0.54770495298E+00  0.59447835946E+02  0.59915606984E+02  0.74470750000E+01 0.  1.
        -31    1    1    2    0    0  0.27541772681E+00  0.54770495298E+00  0.59966412416E+02  0.60430169450E+02  0.74470750000E+01 0.  1.
<mgrwt>
<rscale>  0 0.14944671E+02</rscale>
<asrwt>0</asrwt>
<pdfrwt beam="2">  1        2 0.98925678E+00 0.14944671E+02</pdfrwt>
<pdfrwt beam="1">  1       -2 0.99510308E+00 0.14944671E+02</pdfrwt>
<totfact>-0.19200915E-13</totfact>
</mgrwt>
</event>
<event>
 4    1  0.5160210E-019  0.1491165E+02  0.7818608E-02  0.1870777E+00
         -2   -1    0    0    0  501 -0.00000000000E+00  0.00000000000E+00  0.11867807539E+03  0.11867807541E+03  0.25500000000E-02 0.  1.
          2   -1    0    0  501    0  0.00000000000E+00 -0.00000000000E+00 -0.46840058229E+00  0.46840752341E+00  0.25500000000E-02 0. -1.
         31    1    1    2    0    0  0.32808365507E+00  0.15021528574E+00  0.59002145806E+02  0.59471357302E+02  0.74470750000E+01 0.  1.
        -31    1    1    2    0    0 -0.32808365507E+00 -0.15021528574E+00  0.59207528998E+02  0.59675125635E+02  0.74470750000E+01 0.  1.
<mgrwt>
<rscale>  0 0.14911646E+02</rscale>
<asrwt>0</asrwt>
<pdfrwt beam="2">  1        2 0.99480302E+00 0.14911646E+02</pdfrwt>
<pdfrwt beam="1">  1       -2 0.98518648E+00 0.14911646E+02</pdfrwt>
<totfact> 0.46872221E-13</totfact>
</mgrwt>
</event>
<event>
 4    1 -0.5160210E-019  0.1495039E+02  0.7818608E-02  0.1869586E+00
         -2   -1    0    0    0  501 -0.00000000000E+00  0.00000000000E+00  0.11989283854E+03  0.11989283856E+03  0.25500000000E-02 0.  1.
          2   -1    0    0  501    0  0.00000000000E+00 -0.00000000000E+00 -0.46606692675E+00  0.46607390262E+00  0.25500000000E-02 0. -1.
         31    1    1    2    0    0  0.37959433726E+00 -0.40230336256E+00  0.56999472918E+02  0.57486561724E+02  0.74470750000E+01 0. -1.
        -31    1    1    2    0    0 -0.37959433726E+00  0.40230336256E+00  0.62427298691E+02  0.62872350742E+02  0.74470750000E+01 0.  1.
<mgrwt>
<rscale>  0 0.14950386E+02</rscale>
<asrwt>0</asrwt>
<pdfrwt beam="2">  1        2 0.98990543E+00 0.14950386E+02</pdfrwt>
<pdfrwt beam="1">  1       -2 0.99521170E+00 0.14950386E+02</pdfrwt>
<totfact>-0.17904260E-13</totfact>
</mgrwt>
</event>
<event>
 4    1 -0.5160210E-019  0.1494189E+02  0.7818608E-02  0.1869847E+00
         -2   -1    0    0    0  501 -0.00000000000E+00  0.00000000000E+00  0.12013632443E+03  0.12013632446E+03  0.25500000000E-02 0.  1.
          2   -1    0    0  501    0  0.00000000000E+00 -0.00000000000E+00 -0.46459388643E+00  0.46460088442E+00  0.25500000000E-02 0. -1.
         31    1    1    2    0    0 -0.31582983409E+00  0.49103572232E+00  0.58839624399E+02  0.59311897542E+02  0.74470750000E+01 0. -1.
        -31    1    1    2    0    0  0.31582983409E+00 -0.49103572232E+00  0.60832106147E+02  0.61289027802E+02  0.74470750000E+01 0.  1.
<mgrwt>
<rscale>  0 0.14941891E+02</rscale>
<asrwt>0</asrwt>
<pdfrwt beam="2">  1        2 0.98679660E+00 0.14941891E+02</pdfrwt>
<pdfrwt beam="1">  1       -2 0.99721283E+00 0.14941891E+02</pdfrwt>
<totfact>-0.20061584E-13</totfact>
</mgrwt>
</event>
<event>
 4    1 -0.5160210E-019  0.1489759E+02  0.7818608E-02  0.1871210E+00
          2   -1    0    0  501    0  0.00000000000E+00  0.00000000000E+00  0.11844285916E+03  0.11844285919E+03  0.25500000000E-02 0. -1.
         -2   -1    0    0    0  501 -0.00000000000E+00 -0.00000000000E+00 -0.46844615352E+00  0.46845309397E+00  0.25500000000E-02 0.  1.
         31    1    1    2    0    0  0.11364384281E+00  0.41959917150E-01  0.58153317488E+02  0.58628337316E+02  0.74470750000E+01 0.  1.
        -31    1    1    2    0    0 -0.11364384281E+00 -0.41959917150E-01  0.59821095518E+02  0.60282974965E+02  0.74470750000E+01 0. -1.
<mgrwt>
<rscale>  0 0.14897586E+02</rscale>
<asrwt>0</asrwt>
<pdfrwt beam="1">  1        2 0.98324193E+00 0.14897586E+02</pdfrwt>
<pdfrwt beam="2">  1       -2 0.99489165E+00 0.14897586E+02</pdfrwt>
<totfact>-0.46570478E-13</totfact>
</mgrwt>
</event>
<event>
 4    1 -0.5160210E-019  0.1501087E+02  0.7818608E-02  0.1867737E+00
          2   -1    0    0  501    0  0.00000000000E+00  0.00000000000E+00  0.12022752808E+03  0.12022752810E+03  0.25500000000E-02 0. -1.
         -2   -1    0    0    0  501 -0.00000000000E+00 -0.00000000000E+00 -0.46853764434E+00  0.46854458343E+00  0.25500000000E-02 0.  1.
         31    1    1    2    0    0 -0.60125524129E+00  0.38762949829E+00  0.55049438185E+02  0.55555479793E+02  0.74470750000E+01 0.  1.
        -31    1    1    2    0    0  0.60125524129E+00 -0.38762949829E+00  0.64709552247E+02  0.65140592894E+02  0.74470750000E+01 0. -1.
<mgrwt>
<rscale>  0 0.15010868E+02</rscale>
<asrwt>0</asrwt>
<pdfrwt beam="1">  1        2 0.99799958E+00 0.15010868E+02</pdfrwt>
<pdfrwt beam="2">  1       -2 0.99514340E+00 0.15010868E+02</pdfrwt>
<totfact>-0.65250474E-14</totfact>
</mgrwt>
</event>
<event>
 4    1  0.5160210E-019  0.1489845E+02  0.7818608E-02  0.1871183E+00
         -2   -1    0    0    0  501 -0.00000000000E+00  0.00000000000E+00  0.11917249360E+03  0.11917249363E+03  0.25500000000E-02 0. -1.
          2   -1    0    0  501    0  0.00000000000E+00 -0.00000000000E+00 -0.46563175764E+00  0.46563874004E+00  0.25500000000E-02 0.  1.
         31    1    1    2    0    0  0.26735256325E-01 -0.28763187713E-01  0.60754675386E+02  0.61209403276E+02  0.74470750000E+01 0. -1.
        -31    1    1    2    0    0 -0.26735256325E-01  0.28763187713E-01  0.57952186458E+02  0.58428729093E+02  0.74470750000E+01 0.  1.
<mgrwt>
<rscale>  0 0.14898445E+02</rscale>
<asrwt>0</asrwt>
<pdfrwt beam="2">  1        2 0.98896161E+00 0.14898445E+02</pdfrwt>
<pdfrwt beam="1">  1       -2 0.98925178E+00 0.14898445E+02</pdfrwt>
<totfact> 0.91594702E-14</totfact>
</mgrwt>
</event>
<event>
 4    1  0.5160210E-019  0.1491333E+02  0.7818608E-02  0.1870725E+00
         -2   -1    0    0    0  501 -0.00000000000E+00  0.00000000000E+00  0.11824614984E+03  0.11824614987E+03  0.25500000000E-02 0.  1.
          2   -1    0    0  501    0  0.00000000000E+00 -0.00000000000E+00 -0.47021798017E+00  0.47022489447E+00  0.25500000000E-02 0. -1.
         31    1    1    2    0    0  0.25257784351E+00 -0.28129231885E+00  0.58843786508E+02  0.59314357938E+02  0.74470750000E+01 0. -1.
        -31    1    1    2    0    0 -0.25257784351E+00  0.28129231885E+00  0.58932145350E+02  0.59402016822E+02  0.74470750000E+01 0. -1.
<mgrwt>
<rscale>  0 0.14913333E+02</rscale>
<asrwt>0</asrwt>
<pdfrwt beam="2">  1        2 0.99863318E+00 0.14913333E+02</pdfrwt>
<pdfrwt beam="1">  1       -2 0.98163005E+00 0.14913333E+02</pdfrwt>
<totfact> 0.42481960E-13</totfact>
</mgrwt>
</event>
<event>
 4    1 -0.5160210E-019  0.1496909E+02  0.7818608E-02  0.1869013E+00
          2   -1    0    0  501    0  0.00000000000E+00  0.00000000000E+00  0.11982248301E+03  0.11982248303E+03  0.25500000000E-02 0.  1.
         -2   -1    0    0    0  501 -0.00000000000E+00 -0.00000000000E+00 -0.46750850734E+00  0.46751546171E+00  0.25500000000E-02 0. -1.
         31    1    1    2    0    0  0.58921227711E+00  0.45297979424E+00  0.58997410594E+02  0.59470208884E+02  0.74470750000E+01 0.  1.
        -31    1    1    2    0    0 -0.58921227711E+00 -0.45297979424E+00  0.60357563905E+02  0.60819789612E+02  0.74470750000E+01 0.  1.
<mgrwt>
<rscale>  0 0.14969095E+02</rscale>
<asrwt>0</asrwt>
<pdfrwt beam="1">  1        2 0.99464187E+00 0.14969095E+02</pdfrwt>
<pdfrwt beam="2">  1       -2 0.99295308E+00 0.14969095E+02</pdfrwt>
<totfact>-0.10626094E-13</totfact>
</mgrwt>
</event>
<event>
 4    1 -0.5160210E-019  0.1500471E+02  0.7818608E-02  0.1867925E+00
          2   -1    0    0  501    0  0.00000000000E+00  0.00000000000E+00  0.11979151295E+03  0.11979151297E+03  0.25500000000E-02 0.  1.
         -2   -1    0    0    0  501 -0.00000000000E+00 -0.00000000000E+00 -0.46985695864E+00  0.46986387825E+00  0.25500000000E-02 0. -1.
         31    1    1    2    0    0  0.70039469239E+00  0.45805706805E+00  0.62505823374E+02  0.62953453048E+02  0.74470750000E+01 0.  1.
        -31    1    1    2    0    0 -0.70039469239E+00 -0.45805706805E+00  0.56815832615E+02  0.57307923805E+02  0.74470750000E+01 0. -1.
<mgrwt>
<rscale>  0 0.15004705E+02</rscale>
<asrwt>0</asrwt>
<pdfrwt beam="1">  1        2 0.99440521E+00 0.15004705E+02</pdfrwt>
<pdfrwt beam="2">  1       -2 0.99792045E+00 0.15004705E+02</pdfrwt>
<totfact>-0.77427980E-14</totfact>
</mgrwt>
</event>
<event>
 4    1  0.5160210E-019  0.1491508E+02  0.7818608E-02  0.1870671E+00
          2   -1    0    0  501    0  0.00000000000E+00  0.00000000000E+00  0.12031408473E+03  0.12031408476E+03  0.25500000000E-02 0.  1.
         -2   -1    0    0    0  501 -0.00000000000E+00 -0.00000000000E+00 -0.46224405856E+00  0.46225109213E+00  0.25500000000E-02 0. -1.
         31    1    1    2    0    0 -0.13056676419E+00  0.33977976351E+00  0.61166550275E+02  0.61619301332E+02  0.74470750000E+01 0. -1.
        -31    1    1    2    0    0  0.13056676419E+00 -0.33977976351E+00  0.58685290397E+02  0.59157034518E+02  0.74470750000E+01 0. -1.
<mgrwt>
<rscale>  0 0.14915079E+02</rscale>
<asrwt>0</asrwt>
<pdfrwt beam="1">  1        2 0.99866325E+00 0.14915079E+02</pdfrwt>
<pdfrwt beam="2">  1       -2 0.98183034E+00 0.14915079E+02</pdfrwt>
<totfact> 0.40096449E-13</totfact>
</mgrwt>
</event>
<event>
 4    1 -0.5160210E-019  0.1495938E+02  0.7818608E-02  0.1869311E+00
         -2   -1    0    0    0  501 -0.00000000000E+00  0.00000000000E+00  0.12021365820E+03  0.12021365823E+03  0.25500000000E-02 0.  1.
          2   -1    0    0  501    0  0.00000000000E+00 -0.00000000000E+00 -0.46538250372E+00  0.46538948986E+00  0.25500000000E-02 0. -1.
         31    1    1    2    0    0 -0.19571501922E+00  0.24917489678E+00  0.54859285693E+02  0.55363350199E+02  0.74470750000E+01 0.  1.
        -31    1    1    2    0    0  0.19571501922E+00 -0.24917489678E+00  0.64888990002E+02  0.65315697516E+02  0.74470750000E+01 0.  1.
<mgrwt>
<rscale>  0 0.14959379E+02</rscale>
<asrwt>0</asrwt>
<pdfrwt beam="2">  1        2 0.98846759E+00 0.14959379E+02</pdfrwt>
<pdfrwt beam="1">  1       -2 0.99785880E+00 0.14959379E+02</pdfrwt>
<totfact>-0.13216450E-13</totfact>
</mgrwt>
</event>
<event>
 4    1  0.5160210E-019  0.1492827E+02  0.7818608E-02  0.1870265E+00
          2   -1    0    0  501    0  0.00000000000E+00  0.00000000000E+00  0.12030029682E+03  0.12030029685E+03  0.25500000000E-02 0. -1.
         -2   -1    0    0    0  501 -0.00000000000E+00 -0.00000000000E+00 -0.46311536989E+00  0.46312239022E+00  0.25500000000E-02 0.  1.
         31    1    1    2    0    0  0.45335539154E+00  0.20286341018E+00  0.60629887691E+02  0.61087551041E+02  0.74470750000E+01 0. -1.
        -31    1    1    2    0    0 -0.45335539154E+00 -0.20286341018E+00  0.59207293757E+02  0.59675868195E+02  0.74470750000E+01 0.  1.
<mgrwt>
<rscale>  0 0.14928274E+02</rscale>
<asrwt>0</asrwt>
<pdfrwt beam="1">  1        2 0.99855644E+00 0.14928274E+02</pdfrwt>
<pdfrwt beam="2">  1       -2 0.98367349E+00 0.14928274E+02</pdfrwt>
<totfact> 0.28794738E-13</totfact>
</mgrwt>
</event>
<event>
 4    1  0.5160210E-019  0.1490092E+02  0.7818608E-02  0.1871107E+00
          2   -1    0    0  501    0  0.00000000000E+00  0.00000000000E+00  0.12018541280E+03  0.12018541283E+03  0.25500000000E-02 0. -1.
         -2   -1    0    0    0  501 -0.00000000000E+00 -0.00000000000E+00 -0.46186073197E+00  0.46186777137E+00  0.25500000000E-02 0.  1.
         31    1    1    2    0    0  0.66517483522E-01 -0.21326748372E+00  0.60045580888E+02  0.60506037863E+02  0.74470750000E+01 0.  1.
        -31    1    1    2    0    0 -0.66517483522E-01  0.21326748372E+00  0.59677971184E+02  0.60141242739E+02  0.74470750000E+01 0. -1.
<mgrwt>
<rscale>  0 0.14900919E+02</rscale>
<asrwt>0</asrwt>
<pdfrwt beam="1">  1        2 0.99759613E+00 0.14900919E+02</pdfrwt>
<pdfrwt beam="2">  1       -2 0.98101524E+00 0.14900919E+02</pdfrwt>
<totfact> 0.74749079E-13</totfact>
</mgrwt>
</event>
<event>
 4    1  0.5160210E-019  0.1492755E+02  0.7818608E-02  0.1870288E+00
         -2   -1    0    0    0  501 -0.00000000000E+00  0.00000000000E+00  0.11867569656E+03  0.11867569659E+03  0.25500000000E-02 0. -1.
          2   -1    0    0  501    0  0.00000000000E+00 -0.00000000000E+00 -0.46940943043E+00  0.46941635663E+00  0.25500000000E-02 0.  1.
         31    1    1    2    0    0 -0.40800978751E+00 -0.11466518812E+00  0.61205178537E+02  0.61658028074E+02  0.74470750000E+01 0. -1.
        -31    1    1    2    0    0  0.40800978751E+00  0.11466518812E+00  0.57001108593E+02  0.57487084871E+02  0.74470750000E+01 0. -1.
<mgrwt>
<rscale>  0 0.14927546E+02</rscale>
<asrwt>0</asrwt>
<pdfrwt beam="2">  1        2 0.99693709E+00 0.14927546E+02</pdfrwt>
<pdfrwt beam="1">  1       -2 0.98517516E+00 0.14927546E+02</pdfrwt>
<totfact> 0.34516452E-13</totfact>
</mgrwt>
</event>
<event>
 4    1  0.5160210E-019  0.1494279E+02  0.7818608E-02  0.1869819E+00
         -2   -1    0    0    0  501 -0.00000000000E+00  0.00000000000E+00  0.11893032220E+03  0.11893032223E+03  0.25500000000E-02 0. -1.
          2   -1    0    0  501    0  0.00000000000E+00 -0.00000000000E+00 -0.46936136278E+00  0.46936828970E+00  0.25500000000E-02 0.  1.
         31    1    1    2    0    0 -0.49051411307E+00  0.14672839569E+00  0.56695428108E+02  0.57184723727E+02  0.74470750000E+01 0. -1.
        -31    1    1    2    0    0  0.49051411307E+00 -0.14672839569E+00  0.61765532729E+02  0.62214966790E+02  0.74470750000E+01 0. -1.
<mgrwt>
<rscale>  0 0.14942786E+02</rscale>
<asrwt>0</asrwt>
<pdfrwt beam="2">  1        2 0.99684381E+00 0.14942786E+02</pdfrwt>
<pdfrwt beam="1">  1       -2 0.98728018E+00 0.14942786E+02</pdfrwt>
<totfact> 0.16623245E-13</totfact>
</mgrwt>
</event>
<event>
 4    1  0.5160210E-019  0.1493358E+02  0.7818608E-02  0.1870102E+00
          2   -1    0    0  501    0  0.00000000000E+00  0.00000000000E+00  0.12021817166E+03  0.12021817169E+03  0.25500000000E-02 0. -1.
         -2   -1    0    0    0  501 -0.00000000000E+00 -0.00000000000E+00 -0.46376099512E+00  0.46376800568E+00  0.25500000000E-02 0.  1.
         31    1    1    2    0    0  0.28917536720E+00 -0.34938632671E+00  0.62278632646E+02  0.62723940433E+02  0.74470750000E+01 0. -1.
        -31    1    1    2    0    0 -0.28917536720E+00  0.34938632671E+00  0.57475778020E+02  0.57957999260E+02  0.74470750000E+01 0.  1.
<mgrwt>
<rscale>  0 0.14933576E+02</rscale>
<asrwt>0</asrwt>
<pdfrwt beam="1">  1        2 0.99788271E+00 0.14933576E+02</pdfrwt>
<pdfrwt beam="2">  1       -2 0.98503695E+00 0.14933576E+02</pdfrwt>
<totfact> 0.27536685E-13</totfact>
</mgrwt>
</event>
<event>
 4    1  0.5160210E-019  0.1492164E+02  0.7818608E-02  0.1870469E+00
         -2   -1    0    0    0  501 -0.00000000000E+00  0.00000000000E+00  0.11877226745E+03  0.11877226748E+03  0.25500000000E-02 0. -1.
          2   -1    0    0  501    0  0.00000000000E+00 -0.00000000000E+00 -0.46865665960E+00  0.46866359693E+00  0.25500000000E-02 0.  1.
         31    1    1    2    0    0 -0.92046192662E-02  0.44463594556E+00  0.59825977947E+02  0.60289338603E+02  0.74470750000E+01 0. -1.
        -31    1    1    2    0    0  0.92046192662E-02 -0.44463594556E+00  0.58477632846E+02  0.58951592473E+02  0.74470750000E+01 0. -1.
<mgrwt>
<rscale>  0 0.14921639E+02</rscale>
<asrwt>0</asrwt>
<pdfrwt beam="2">  1        2 0.99534784E+00 0.14921639E+02</pdfrwt>
<pdfrwt beam="1">  1       -2 0.98596745E+00 0.14921639E+02</pdfrwt>
<totfact> 0.34712396E-13</totfact>
</mgrwt>
</event>
<event>
 4    1 -0.5160210E-019  0.1494332E+02  0.7818608E-02  0.1869803E+00
          2   -1    0    0  501    0  0.00000000000E+00  0.00000000000E+00  0.11872670214E+03  0.11872670216E+03  0.25500000000E-02 0.  1.
         -2   -1    0    0    0  501 -0.00000000000E+00 -0.00000000000E+00 -0.47020017510E+00  0.47020708966E+00  0.25500000000E-02 0. -1.
         31    1    1    2    0    0  0.15732445913E-01  0.27672336162E+00  0.54832865201E+02  0.55336957411E+02  0.74470750000E+01 0. -1.
        -31    1    1    2    0    0 -0.15732445913E-01 -0.27672336162E+00  0.63423636761E+02  0.63859951843E+02  0.74470750000E+01 0.  1.
<mgrwt>
<rscale>  0 0.14943324E+02</rscale>
<asrwt>0</asrwt>
<pdfrwt beam="1">  1        2 0.98560344E+00 0.14943324E+02</pdfrwt>
<pdfrwt beam="2">  1       -2 0.99861152E+00 0.14943324E+02</pdfrwt>
<totfact>-0.13764258E-13</totfact>
</mgrwt>
</event>
<event>
 4    1 -0.5160210E-019  0.1494954E+02  0.7818608E-02  0.1869612E+00
         -2   -1    0    0    0  501 -0.00000000000E+00  0.00000000000E+00  0.11986306729E+03  0.11986306731E+03  0.25500000000E-02 0. -1.
          2   -1    0    0  501    0  0.00000000000E+00 -0.00000000000E+00 -0.46613012095E+00  0.46613709588E+00  0.25500000000E-02 0.  1.
         31    1    1    2    0    0  0.35521775372E+00 -0.52846026723E+00  0.60410766822E+02  0.60871381815E+02  0.74470750000E+01 0.  1.
        -31    1    1    2    0    0 -0.35521775372E+00  0.52846026723E+00  0.58986170344E+02  0.59457822595E+02  0.74470750000E+01 0.  1.
<mgrwt>
<rscale>  0 0.14949543E+02</rscale>
<asrwt>0</asrwt>
<pdfrwt beam="2">  1        2 0.99003818E+00 0.14949543E+02</pdfrwt>
<pdfrwt beam="1">  1       -2 0.99496605E+00 0.14949543E+02</pdfrwt>
<totfact>-0.17802383E-13</totfact>
</mgrwt>
</event>
<event>
 4    1 -0.5160210E-019  0.1493159E+02  0.7818608E-02  0.1870163E+00
         -2   -1    0    0    0  501 -0.00000000000E+00  0.00000000000E+00  0.12018449099E+03  0.12018449102E+03  0.25500000000E-02 0. -1.
          2   -1    0    0  501    0  0.00000000000E+00 -0.00000000000E+00 -0.46376783835E+00  0.46377484881E+00  0.25500000000E-02 0.  1.
         31    1    1    2    0    0 -0.37590185906E+00 -0.36401835564E+00  0.59267233183E+02  0.59735564506E+02  0.74470750000E+01 0. -1.
        -31    1    1    2    0    0  0.37590185906E+00  0.36401835564E+00  0.60453489973E+02  0.60912701365E+02  0.74470750000E+01 0.  1.
<mgrwt>
<rscale>  0 0.14931594E+02</rscale>
<asrwt>0</asrwt>
<pdfrwt beam="2">  1        2 0.98505037E+00 0.14931594E+02</pdfrwt>
<pdfrwt beam="1">  1       -2 0.99760428E+00 0.14931594E+02</pdfrwt>
<totfact>-0.23547958E-13</totfact>
</mgrwt>
</event>
<event>
 4    1  0.5160210E-019  0.1492666E+02  0.7818608E-02  0.1870315E+00
         -2   -1    0    0    0  501 -0.00000000000E+00  0.00000000000E+00  0.11873465828E+03  0.11873465830E+03  0.25500000000E-02 0. -1.
          2   -1    0    0  501    0  0.00000000000E+00 -0.00000000000E+00 -0.46912047564E+00  0.46912740612E+00  0.25500000000E-02 0.  1.
         31    1    1    2    0    0  0.42495381232E+00 -0.21636034916E+00  0.58156307952E+02  0.58633117589E+02  0.74470750000E+01 0.  1.
        -31    1    1    2    0    0 -0.42495381232E+00  0.21636034916E+00  0.60109229848E+02  0.60570668120E+02  0.74470750000E+01 0. -1.
<mgrwt>
<rscale>  0 0.14926657E+02</rscale>
<asrwt>0</asrwt>
<pdfrwt beam="2">  1        2 0.99632778E+00 0.14926657E+02</pdfrwt>
<pdfrwt beam="1">  1       -2 0.98566030E+00 0.14926657E+02</pdfrwt>
<totfact> 0.33479659E-13</totfact>
</mgrwt>
</event>
<event>
 4    1 -0.5160210E-019  0.1489566E+02  0.7818608E-02  0.1871269E+00
         -2   -1    0    0    0  501 -0.00000000000E+00  0.00000000000E+00  0.11943313374E+03  0.11943313376E+03  0.25500000000E-02 0. -1.
          2   -1    0    0  501    0  0.00000000000E+00 -0.00000000000E+00 -0.46444209978E+00  0.46444910006E+00  0.25500000000E-02 0.  1.
         31    1    1    2    0    0  0.30348340765E-01 -0.38000461997E-01  0.58724750977E+02  0.59195081455E+02  0.74470750000E+01 0.  1.
        -31    1    1    2    0    0 -0.30348340765E-01  0.38000461997E-01  0.60243940659E+02  0.60702501408E+02  0.74470750000E+01 0. -1.
<mgrwt>
<rscale>  0 0.14895663E+02</rscale>
<asrwt>0</asrwt>
<pdfrwt beam="2">  1        2 0.98645309E+00 0.14895663E+02</pdfrwt>
<pdfrwt beam="1">  1       -2 0.99139710E+00 0.14895663E+02</pdfrwt>
<totfact>-0.13468638E-13</totfact>
</mgrwt>
</event>
<event>
 4    1 -0.5160210E-019  0.1494554E+02  0.7818608E-02  0.1869735E+00
          2   -1    0    0  501    0  0.00000000000E+00  0.00000000000E+00  0.11945412862E+03  0.11945412865E+03  0.25500000000E-02 0. -1.
         -2   -1    0    0    0  501 -0.00000000000E+00 -0.00000000000E+00 -0.46747575644E+00  0.46748271129E+00  0.25500000000E-02 0.  1.
         31    1    1    2    0    0 -0.44363413598E+00  0.40788992364E+00  0.58352455522E+02  0.58828829472E+02  0.74470750000E+01 0.  1.
        -31    1    1    2    0    0  0.44363413598E+00 -0.40788992364E+00  0.60634197346E+02  0.61092781892E+02  0.74470750000E+01 0. -1.
<mgrwt>
<rscale>  0 0.14945545E+02</rscale>
<asrwt>0</asrwt>
<pdfrwt beam="1">  1        2 0.99159579E+00 0.14945545E+02</pdfrwt>
<pdfrwt beam="2">  1       -2 0.99287189E+00 0.14945545E+02</pdfrwt>
<totfact>-0.13206954E-13</totfact>
</mgrwt>
</event>
<event>
 4    1 -0.5160210E-019  0.1491525E+02  0.7818608E-02  0.1870666E+00
         -2   -1    0    0    0  501 -0.00000000000E+00  0.00000000000E+00  0.11983318733E+03  0.11983318736E+03  0.25500000000E-02 0. -1.
          2   -1    0    0  501    0  0.00000000000E+00 -0.00000000000E+00 -0.46410970906E+00  0.46411671435E+00  0.25500000000E-02 0.  1.
         31    1    1    2    0    0  0.17508715503E+00 -0.35550023374E-01  0.56829307313E+02  0.57315451800E+02  0.74470750000E+01 0.  1.
        -31    1    1    2    0    0 -0.17508715503E+00  0.35550023374E-01  0.62539770313E+02  0.62981852276E+02  0.74470750000E+01 0. -1.
<mgrwt>
<rscale>  0 0.14915250E+02</rscale>
<asrwt>0</asrwt>
<pdfrwt beam="2">  1        2 0.98576259E+00 0.14915250E+02</pdfrwt>
<pdfrwt beam="1">  1       -2 0.99470228E+00 0.14915250E+02</pdfrwt>
<totfact>-0.30826129E-13</totfact>
</mgrwt>
</event>
<event>
 4    1 -0.5160210E-019  0.1492876E+02  0.7818608E-02  0.1870250E+00
         -2   -1    0    0    0  501 -0.00000000000E+00  0.00000000000E+00  0.11981923836E+03  0.11981923839E+03  0.25500000000E-02 0. -1.
          2   -1    0    0  501    0  0.00000000000E+00 -0.00000000000E+00 -0.46500524719E+00  0.46501223900E+00  0.25500000000E-02 0.  1.
         31    1    1    2    0    0  0.47991563971E+00  0.98035605496E-01  0.58591913294E+02  0.59065312659E+02  0.74470750000E+01 0.  1.
        -31    1    1    2    0    0 -0.47991563971E+00 -0.98035605496E-01  0.60762319819E+02  0.61218937967E+02  0.74470750000E+01 0. -1.
<mgrwt>
<rscale>  0 0.14928764E+02</rscale>
<asrwt>0</asrwt>
<pdfrwt beam="2">  1        2 0.98765687E+00 0.14928764E+02</pdfrwt>
<pdfrwt beam="1">  1       -2 0.99459434E+00 0.14928764E+02</pdfrwt>
<totfact>-0.23380593E-13</totfact>
</mgrwt>
</event>
<event>
 4    1 -0.5160210E-019  0.1496598E+02  0.7818608E-02  0.1869108E+00
          2   -1    0    0  501    0  0.00000000000E+00  0.00000000000E+00  0.12002870342E+03  0.12002870344E+03  0.25500000000E-02 0. -1.
         -2   -1    0    0    0  501 -0.00000000000E+00 -0.00000000000E+00 -0.46651095765E+00  0.46651792689E+00  0.25500000000E-02 0.  1.
         31    1    1    2    0    0 -0.70429686919E+00 -0.15010161913E+00  0.58711874136E+02  0.59186667884E+02  0.74470750000E+01 0.  1.
        -31    1    1    2    0    0  0.70429686919E+00  0.15010161913E+00  0.60850318323E+02  0.61308553487E+02  0.74470750000E+01 0.  1.
<mgrwt>
<rscale>  0 0.14965978E+02</rscale>
<asrwt>0</asrwt>
<pdfrwt beam="1">  1        2 0.99633880E+00 0.14965978E+02</pdfrwt>
<pdfrwt beam="2">  1       -2 0.99084921E+00 0.14965978E+02</pdfrwt>
<totfact>-0.29413639E-14</totfact>
</mgrwt>
</event>
<event>
 4    1 -0.5160210E-019  0.1494650E+02  0.7818608E-02  0.1869705E+00
         -2   -1    0    0    0  501 -0.00000000000E+00  0.00000000000E+00  0.11998117199E+03  0.11998117201E+03  0.25500000000E-02 0. -1.
          2   -1    0    0  501    0  0.00000000000E+00 -0.00000000000E+00 -0.46548181989E+00  0.46548880453E+00  0.25500000000E-02 0.  1.
         31    1    1    2    0    0 -0.59175589088E+00 -0.80011817886E-01  0.61243185013E+02  0.61697189673E+02  0.74470750000E+01 0. -1.
        -31    1    1    2    0    0  0.59175589088E+00  0.80011817886E-01  0.58272505153E+02  0.58749471145E+02  0.74470750000E+01 0.  1.
<mgrwt>
<rscale>  0 0.14946501E+02</rscale>
<asrwt>0</asrwt>
<pdfrwt beam="2">  1        2 0.98867033E+00 0.14946501E+02</pdfrwt>
<pdfrwt beam="1">  1       -2 0.99593726E+00 0.14946501E+02</pdfrwt>
<totfact>-0.19422980E-13</totfact>
</mgrwt>
</event>
<event>
 4    1 -0.5160210E-019  0.1503736E+02  0.7818608E-02  0.1866931E+00
         -2   -1    0    0    0  501 -0.00000000000E+00  0.00000000000E+00  0.12012029993E+03  0.12012029996E+03  0.25500000000E-02 0.  1.
          2   -1    0    0  501    0  0.00000000000E+00 -0.00000000000E+00 -0.47061254747E+00  0.47061945597E+00  0.25500000000E-02 0. -1.
         31    1    1    2    0    0  0.87894632724E+00 -0.47612898960E+00  0.57667529522E+02  0.58154983731E+02  0.74470750000E+01 0. -1.
        -31    1    1    2    0    0 -0.87894632724E+00  0.47612898960E+00  0.61982157863E+02  0.62435935686E+02  0.74470750000E+01 0. -1.
<mgrwt>
<rscale>  0 0.15037359E+02</rscale>
<asrwt>0</asrwt>
<pdfrwt beam="2">  1        2 0.99952963E+00 0.15037359E+02</pdfrwt>
<pdfrwt beam="1">  1       -2 0.99713009E+00 0.15037359E+02</pdfrwt>
<totfact>-0.14196012E-14</totfact>
</mgrwt>
</event>
<event>
 4    1  0.5160210E-019  0.1490781E+02  0.7818608E-02  0.1870895E+00
         -2   -1    0    0    0  501 -0.00000000000E+00  0.00000000000E+00  0.11848172252E+03  0.11848172255E+03  0.25500000000E-02 0.  1.
          2   -1    0    0  501    0  0.00000000000E+00 -0.00000000000E+00 -0.46893575249E+00  0.46894268569E+00  0.25500000000E-02 0. -1.
         31    1    1    2    0    0 -0.32978698916E-01  0.16289697861E+00  0.61179585535E+02  0.61631390016E+02  0.74470750000E+01 0.  1.
        -31    1    1    2    0    0  0.32978698916E-01 -0.16289697861E+00  0.56833201231E+02  0.57319275216E+02  0.74470750000E+01 0. -1.
<mgrwt>
<rscale>  0 0.14907814E+02</rscale>
<asrwt>0</asrwt>
<pdfrwt beam="2">  1        2 0.99592864E+00 0.14907814E+02</pdfrwt>
<pdfrwt beam="1">  1       -2 0.98356733E+00 0.14907814E+02</pdfrwt>
<totfact> 0.62594510E-13</totfact>
</mgrwt>
</event>
<event>
 4    1  0.5160210E-019  0.1492288E+02  0.7818608E-02  0.1870431E+00
         -2   -1    0    0    0  501 -0.00000000000E+00  0.00000000000E+00  0.11826420838E+03  0.11826420841E+03  0.25500000000E-02 0. -1.
          2   -1    0    0  501    0  0.00000000000E+00 -0.00000000000E+00 -0.47074858268E+00  0.47075548918E+00  0.25500000000E-02 0.  1.
         31    1    1    2    0    0  0.13267464480E+00  0.31847443324E+00  0.61351245118E+02  0.61802534188E+02  0.74470750000E+01 0. -1.
        -31    1    1    2    0    0 -0.13267464480E+00 -0.31847443324E+00  0.56442214683E+02  0.56932429712E+02  0.74470750000E+01 0.  1.
<mgrwt>
<rscale>  0 0.14922884E+02</rscale>
<asrwt>0</asrwt>
<pdfrwt beam="2">  1        2 0.99975617E+00 0.14922884E+02</pdfrwt>
<pdfrwt beam="1">  1       -2 0.98178376E+00 0.14922884E+02</pdfrwt>
<totfact> 0.83292974E-14</totfact>
</mgrwt>
</event>
<event>
 4    1 -0.5160210E-019  0.1501196E+02  0.7818608E-02  0.1867704E+00
         -2   -1    0    0    0  501 -0.00000000000E+00  0.00000000000E+00  0.12020637644E+03  0.12020637647E+03  0.25500000000E-02 0.  1.
          2   -1    0    0  501    0  0.00000000000E+00 -0.00000000000E+00 -0.46868843091E+00  0.46869536777E+00  0.25500000000E-02 0. -1.
         31    1    1    2    0    0 -0.47766632759E+00  0.96634339399E-02  0.53375105035E+02  0.53894239228E+02  0.74470750000E+01 0. -1.
        -31    1    1    2    0    0  0.47766632759E+00 -0.96634339399E-02  0.66362582978E+02  0.66780832610E+02  0.74470750000E+01 0.  1.
<mgrwt>
<rscale>  0 0.15011963E+02</rscale>
<asrwt>0</asrwt>
<pdfrwt beam="2">  1        2 0.99546173E+00 0.15011963E+02</pdfrwt>
<pdfrwt beam="1">  1       -2 0.99782593E+00 0.15011963E+02</pdfrwt>
<totfact>-0.71986251E-14</totfact>
</mgrwt>
</event>
<event>
 4    1 -0.5160210E-019  0.1491143E+02  0.7818608E-02  0.1870783E+00
         -2   -1    0    0    0  501 -0.00000000000E+00  0.00000000000E+00  0.12019277588E+03  0.12019277591E+03  0.25500000000E-02 0.  1.
          2   -1    0    0  501    0  0.00000000000E+00 -0.00000000000E+00 -0.46248410360E+00  0.46249113352E+00  0.25500000000E-02 0. -1.
         31    1    1    2    0    0  0.21310604376E+00 -0.46818513526E-01  0.62170030387E+02  0.62614848163E+02  0.74470750000E+01 0.  1.
        -31    1    1    2    0    0 -0.21310604376E+00  0.46818513526E-01  0.57560261391E+02  0.58040418879E+02  0.74470750000E+01 0. -1.
<mgrwt>
<rscale>  0 0.14911428E+02</rscale>
<asrwt>0</asrwt>
<pdfrwt beam="2">  1        2 0.98233445E+00 0.14911428E+02</pdfrwt>
<pdfrwt beam="1">  1       -2 0.99766217E+00 0.14911428E+02</pdfrwt>
<totfact>-0.36384984E-13</totfact>
</mgrwt>
</event>
<event>
 4    1  0.5160210E-019  0.1489924E+02  0.7818608E-02  0.1871159E+00
         -2   -1    0    0    0  501 -0.00000000000E+00  0.00000000000E+00  0.11832692797E+03  0.11832692799E+03  0.25500000000E-02 0.  1.
          2   -1    0    0  501    0  0.00000000000E+00 -0.00000000000E+00 -0.46900940622E+00  0.46901633833E+00  0.25500000000E-02 0. -1.
         31    1    1    2    0    0  0.90865006896E-01  0.10827695049E-01  0.60299712505E+02  0.60757901774E+02  0.74470750000E+01 0.  1.
        -31    1    1    2    0    0 -0.90865006896E-01 -0.10827695049E-01  0.57558206053E+02  0.58038042557E+02  0.74470750000E+01 0. -1.
<mgrwt>
<rscale>  0 0.14899242E+02</rscale>
<asrwt>0</asrwt>
<pdfrwt beam="2">  1        2 0.99607931E+00 0.14899242E+02</pdfrwt>
<pdfrwt beam="1">  1       -2 0.98228799E+00 0.14899242E+02</pdfrwt>
<totfact> 0.80979323E-13</totfact>
</mgrwt>
</event>
<event>
 4    1 -0.5160210E-019  0.1500907E+02  0.7818608E-02  0.1867792E+00
          2   -1    0    0  501    0  0.00000000000E+00  0.00000000000E+00  0.11994054755E+03  0.11994054758E+03  0.25500000000E-02 0. -1.
         -2   -1    0    0    0  501 -0.00000000000E+00 -0.00000000000E+00 -0.46954637025E+00  0.46955329444E+00  0.25500000000E-02 0.  1.
         31    1    1    2    0    0  0.42853060337E+00  0.35337041322E+00  0.53782446835E+02  0.54298425601E+02  0.74470750000E+01 0.  1.
        -31    1    1    2    0    0 -0.42853060337E+00 -0.35337041322E+00  0.65688554347E+02  0.66111675273E+02  0.74470750000E+01 0. -1.
<mgrwt>
<rscale>  0 0.15009073E+02</rscale>
<asrwt>0</asrwt>
<pdfrwt beam="1">  1        2 0.99563496E+00 0.15009073E+02</pdfrwt>
<pdfrwt beam="2">  1       -2 0.99726822E+00 0.15009073E+02</pdfrwt>
<totfact>-0.83449591E-14</totfact>
</mgrwt>
</event>
<event>
 4    1 -0.5160210E-019  0.1496118E+02  0.7818608E-02  0.1869255E+00
         -2   -1    0    0    0  501 -0.00000000000E+00  0.00000000000E+00  0.12020970426E+03  0.12020970429E+03  0.25500000000E-02 0. -1.
          2   -1    0    0  501    0  0.00000000000E+00 -0.00000000000E+00 -0.46551000087E+00  0.46551698509E+00  0.25500000000E-02 0.  1.
         31    1    1    2    0    0 -0.54139051224E+00 -0.15839088281E+00  0.56429888619E+02  0.56921959269E+02  0.74470750000E+01 0. -1.
        -31    1    1    2    0    0  0.54139051224E+00  0.15839088281E+00  0.63314305645E+02  0.63753262008E+02  0.74470750000E+01 0. -1.
<mgrwt>
<rscale>  0 0.14961182E+02</rscale>
<asrwt>0</asrwt>
<pdfrwt beam="2">  1        2 0.98873722E+00 0.14961182E+02</pdfrwt>
<pdfrwt beam="1">  1       -2 0.99782716E+00 0.14961182E+02</pdfrwt>
<totfact>-0.12950468E-13</totfact>
</mgrwt>
</event>
<event>
 4    1 -0.5160210E-019  0.1492734E+02  0.7818608E-02  0.1870294E+00
          2   -1    0    0  501    0  0.00000000000E+00  0.00000000000E+00  0.11895888886E+03  0.11895888888E+03  0.25500000000E-02 0.  1.
         -2   -1    0    0    0  501 -0.00000000000E+00 -0.00000000000E+00 -0.46827921775E+00  0.46828616067E+00  0.25500000000E-02 0. -1.
         31    1    1    2    0    0  0.14270549696E+00 -0.17711870596E+00  0.62784862546E+02  0.63225387518E+02  0.74470750000E+01 0.  1.
        -31    1    1    2    0    0 -0.14270549696E+00  0.17711870596E+00  0.55705747093E+02  0.56201787527E+02  0.74470750000E+01 0. -1.
<mgrwt>
<rscale>  0 0.14927343E+02</rscale>
<asrwt>0</asrwt>
<pdfrwt beam="1">  1        2 0.98750744E+00 0.14927343E+02</pdfrwt>
<pdfrwt beam="2">  1       -2 0.99455551E+00 0.14927343E+02</pdfrwt>
<totfact>-0.23840504E-13</totfact>
</mgrwt>
</event>
<event>
 4    1 -0.5160210E-019  0.1492894E+02  0.7818608E-02  0.1870245E+00
          2   -1    0    0  501    0  0.00000000000E+00  0.00000000000E+00  0.11891118529E+03  0.11891118532E+03  0.25500000000E-02 0.  1.
         -2   -1    0    0    0  501 -0.00000000000E+00 -0.00000000000E+00 -0.46856740639E+00  0.46857434504E+00  0.25500000000E-02 0. -1.
         31    1    1    2    0    0 -0.20547874890E+00 -0.31009196687E+00  0.56439516817E+02  0.56929925023E+02  0.74470750000E+01 0. -1.
        -31    1    1    2    0    0  0.20547874890E+00  0.31009196687E+00  0.62003101069E+02  0.62449834642E+02  0.74470750000E+01 0.  1.
<mgrwt>
<rscale>  0 0.14928941E+02</rscale>
<asrwt>0</asrwt>
<pdfrwt beam="1">  1        2 0.98711538E+00 0.14928941E+02</pdfrwt>
<pdfrwt beam="2">  1       -2 0.99516360E+00 0.14928941E+02</pdfrwt>
<totfact>-0.25020810E-13</totfact>
</mgrwt>
</event>
<event>
 4    1  0.5160210E-019  0.1490269E+02  0.7818608E-02  0.1871053E+00
         -2   -1    0    0    0  501 -0.00000000000E+00  0.00000000000E+00  0.11875256721E+03  0.11875256724E+03  0.25500000000E-02 0. -1.
          2   -1    0    0  501    0  0.00000000000E+00 -0.00000000000E+00 -0.46754456368E+00  0.46755151751E+00  0.25500000000E-02 0.  1.
         31    1    1    2    0    0  0.18267496221E+00 -0.15296538051E+00  0.58480944312E+02  0.58953681329E+02  0.74470750000E+01 0.  1.
        -31    1    1    2    0    0 -0.18267496221E+00  0.15296538051E+00  0.59804078336E+02  0.60266437428E+02  0.74470750000E+01 0.  1.
<mgrwt>
<rscale>  0 0.14902689E+02</rscale>
<asrwt>0</asrwt>
<pdfrwt beam="2">  1        2 0.99299459E+00 0.14902689E+02</pdfrwt>
<pdfrwt beam="1">  1       -2 0.98579536E+00 0.14902689E+02</pdfrwt>
<totfact> 0.45059576E-13</totfact>
</mgrwt>
</event>
<event>
 4    1  0.5160210E-019  0.1491945E+02  0.7818608E-02  0.1870536E+00
         -2   -1    0    0    0  501 -0.00000000000E+00  0.00000000000E+00  0.11841191031E+03  0.11841191034E+03  0.25500000000E-02 0.  1.
          2   -1    0    0  501    0  0.00000000000E+00 -0.00000000000E+00 -0.46994514512E+00  0.46995206343E+00  0.25500000000E-02 0. -1.
         31    1    1    2    0    0 -0.41250858073E+00 -0.13512675357E+00  0.58868129968E+02  0.59338891754E+02  0.74470750000E+01 0. -1.
        -31    1    1    2    0    0  0.41250858073E+00  0.13512675357E+00  0.59073835194E+02  0.59542970645E+02  0.74470750000E+01 0. -1.
<mgrwt>
<rscale>  0 0.14919452E+02</rscale>
<asrwt>0</asrwt>
<pdfrwt beam="2">  1        2 0.99806157E+00 0.14919452E+02</pdfrwt>
<pdfrwt beam="1">  1       -2 0.98299842E+00 0.14919452E+02</pdfrwt>
<totfact> 0.42697080E-13</totfact>
</mgrwt>
</event>
<event>
 4    1  0.5160210E-019  0.1495372E+02  0.7818608E-02  0.1869484E+00
         -2   -1    0    0    0  501 -0.00000000000E+00  0.00000000000E+00  0.11897685054E+03  0.11897685057E+03  0.25500000000E-02 0.  1.
          2   -1    0    0  501    0  0.00000000000E+00 -0.00000000000E+00 -0.46986455707E+00  0.46987147657E+00  0.25500000000E-02 0. -1.
         31    1    1    2    0    0 -0.24751184766E+00  0.60593809586E+00  0.60266110569E+02  0.60728011924E+02  0.74470750000E+01 0. -1.
        -31    1    1    2    0    0  0.24751184766E+00 -0.60593809586E+00  0.58240875417E+02  0.58718710122E+02  0.74470750000E+01 0. -1.
<mgrwt>
<rscale>  0 0.14953718E+02</rscale>
<asrwt>0</asrwt>
<pdfrwt beam="2">  1        2 0.99790983E+00 0.14953718E+02</pdfrwt>
<pdfrwt beam="1">  1       -2 0.98766907E+00 0.14953718E+02</pdfrwt>
<totfact> 0.10275574E-13</totfact>
</mgrwt>
</event>
<event>
 4    1  0.5160210E-019  0.1495073E+02  0.7818608E-02  0.1869576E+00
          2   -1    0    0  501    0  0.00000000000E+00  0.00000000000E+00  0.12041246196E+03  0.12041246199E+03  0.25500000000E-02 0.  1.
         -2   -1    0    0    0  501 -0.00000000000E+00 -0.00000000000E+00 -0.46407702149E+00  0.46408402728E+00  0.25500000000E-02 0. -1.
         31    1    1    2    0    0  0.61189165497E+00 -0.46792782695E-01  0.61699817303E+02  0.62150647480E+02  0.74470750000E+01 0. -1.
        -31    1    1    2    0    0 -0.61189165497E+00  0.46792782695E-01  0.58248567638E+02  0.58725898536E+02  0.74470750000E+01 0. -1.
<mgrwt>
<rscale>  0 0.14950730E+02</rscale>
<asrwt>0</asrwt>
<pdfrwt beam="1">  1        2 0.99949186E+00 0.14950730E+02</pdfrwt>
<pdfrwt beam="2">  1       -2 0.98571172E+00 0.14950730E+02</pdfrwt>
<totfact> 0.64496516E-14</totfact>
</mgrwt>
</event>
<event>
 4    1  0.5160210E-019  0.1494218E+02  0.7818608E-02  0.1869838E+00
         -2   -1    0    0    0  501 -0.00000000000E+00  0.00000000000E+00  0.11876646129E+03  0.11876646132E+03  0.25500000000E-02 0. -1.
          2   -1    0    0  501    0  0.00000000000E+00 -0.00000000000E+00 -0.46997088726E+00  0.46997780519E+00  0.25500000000E-02 0.  1.
         31    1    1    2    0    0  0.58716787769E+00 -0.11619416727E+00  0.59148129370E+02  0.59618104643E+02  0.74470750000E+01 0. -1.
        -31    1    1    2    0    0 -0.58716787769E+00  0.11619416727E+00  0.59148361035E+02  0.59618334482E+02  0.74470750000E+01 0. -1.
<mgrwt>
<rscale>  0 0.14942181E+02</rscale>
<asrwt>0</asrwt>
<pdfrwt beam="2">  1        2 0.99812780E+00 0.14942181E+02</pdfrwt>
<pdfrwt beam="1">  1       -2 0.98593030E+00 0.14942181E+02</pdfrwt>
<totfact> 0.19034337E-13</totfact>
</mgrwt>
</event>
<event>
 4    1 -0.5160210E-019  0.1495394E+02  0.7818608E-02  0.1869477E+00
         -2   -1    0    0    0  501 -0.00000000000E+00  0.00000000000E+00  0.12013510181E+03  0.12013510184E+03  0.25500000000E-02 0. -1.
          2   -1    0    0  501    0  0.00000000000E+00 -0.00000000000E+00 -0.46534831481E+00  0.46535530146E+00  0.25500000000E-02 0.  1.
         31    1    1    2    0    0  0.59636686509E+00 -0.19943630926E-02  0.62261115277E+02  0.62707743214E+02  0.74470750000E+01 0. -1.
        -31    1    1    2    0    0 -0.59636686509E+00  0.19943630926E-02  0.57408638222E+02  0.57892713928E+02  0.74470750000E+01 0.  1.
<mgrwt>
<rscale>  0 0.14953941E+02</rscale>
<asrwt>0</asrwt>
<pdfrwt beam="2">  1        2 0.98839276E+00 0.14953941E+02</pdfrwt>
<pdfrwt beam="1">  1       -2 0.99720896E+00 0.14953941E+02</pdfrwt>
<totfact>-0.16223818E-13</totfact>
</mgrwt>
</event>
<event>
 4    1 -0.5160210E-019  0.1498277E+02  0.7818608E-02  0.1868595E+00
         -2   -1    0    0    0  501 -0.00000000000E+00  0.00000000000E+00  0.11973976554E+03  0.11973976557E+03  0.25500000000E-02 0.  1.
          2   -1    0    0  501    0  0.00000000000E+00 -0.00000000000E+00 -0.46868679895E+00  0.46869373584E+00  0.25500000000E-02 0. -1.
         31    1    1    2    0    0 -0.45736197926E+00  0.36974899511E-01  0.54245149586E+02  0.54755873902E+02  0.74470750000E+01 0.  1.
        -31    1    1    2    0    0  0.45736197926E+00 -0.36974899511E-01  0.65025929155E+02  0.65452585400E+02  0.74470750000E+01 0.  1.
<mgrwt>
<rscale>  0 0.14982772E+02</rscale>
<asrwt>0</asrwt>
<pdfrwt beam="2">  1        2 0.99544321E+00 0.14982772E+02</pdfrwt>
<pdfrwt beam="1">  1       -2 0.99396765E+00 0.14982772E+02</pdfrwt>
<totfact>-0.11088093E-13</totfact>
</mgrwt>
</event>
<event>
 4    1 -0.5160210E-019  0.1492886E+02  0.7818608E-02  0.1870247E+00
         -2   -1    0    0    0  501 -0.00000000000E+00  0.00000000000E+00  0.11988284769E+03  0.11988284772E+03  0.25500000000E-02 0. -1.
          2   -1    0    0  501    0  0.00000000000E+00 -0.00000000000E+00 -0.46476479299E+00  0.46477178841E+00  0.25500000000E-02 0.  1.
         31    1    1    2    0    0 -0.30762905517E+00  0.16072263840E+00  0.62707580689E+02  0.63149188983E+02  0.74470750000E+01 0. -1.
        -31    1    1    2    0    0  0.30762905517E+00 -0.16072263840E+00  0.56710502213E+02  0.57198430527E+02  0.74470750000E+01 0.  1.
<mgrwt>
<rscale>  0 0.14928865E+02</rscale>
<asrwt>0</asrwt>
<pdfrwt beam="2">  1        2 0.98715016E+00 0.14928865E+02</pdfrwt>
<pdfrwt beam="1">  1       -2 0.99511832E+00 0.14928865E+02</pdfrwt>
<totfact>-0.24936104E-13</totfact>
</mgrwt>
</event>
<event>
 4    1 -0.5160210E-019  0.1495808E+02  0.7818608E-02  0.1869351E+00
         -2   -1    0    0    0  501 -0.00000000000E+00  0.00000000000E+00  0.12005256151E+03  0.12005256154E+03  0.25500000000E-02 0.  1.
          2   -1    0    0  501    0  0.00000000000E+00 -0.00000000000E+00 -0.46592584250E+00  0.46593282049E+00  0.25500000000E-02 0. -1.
         31    1    1    2    0    0  0.54891233747E+00  0.13419476326E+00  0.62993653914E+02  0.63434838003E+02  0.74470750000E+01 0.  1.
        -31    1    1    2    0    0 -0.54891233747E+00 -0.13419476326E+00  0.56592981757E+02  0.57083656358E+02  0.74470750000E+01 0. -1.
<mgrwt>
<rscale>  0 0.14958076E+02</rscale>
<asrwt>0</asrwt>
<pdfrwt beam="2">  1        2 0.98961203E+00 0.14958076E+02</pdfrwt>
<pdfrwt beam="1">  1       -2 0.99653123E+00 0.14958076E+02</pdfrwt>
<totfact>-0.16224146E-13</totfact>
</mgrwt>
</event>
<event>
 4    1 -0.5160210E-019  0.1496282E+02  0.7818608E-02  0.1869205E+00
         -2   -1    0    0    0  501 -0.00000000000E+00  0.00000000000E+00  0.11935081462E+03  0.11935081465E+03  0.25500000000E-02 0.  1.
          2   -1    0    0  501    0  0.00000000000E+00 -0.00000000000E+00 -0.46896276327E+00  0.46896969607E+00  0.25500000000E-02 0. -1.
         31    1    1    2    0    0  0.45477554040E+00 -0.46812794987E+00  0.61797654317E+02  0.62248172420E+02  0.74470750000E+01 0.  1.
        -31    1    1    2    0    0 -0.45477554040E+00  0.46812794987E+00  0.57084197544E+02  0.57571611927E+02  0.74470750000E+01 0. -1.
<mgrwt>
<rscale>  0 0.14962821E+02</rscale>
<asrwt>0</asrwt>
<pdfrwt beam="2">  1        2 0.99601438E+00 0.14962821E+02</pdfrwt>
<pdfrwt beam="1">  1       -2 0.99075381E+00 0.14962821E+02</pdfrwt>
<totfact>-0.27068848E-14</totfact>
</mgrwt>
</event>
<event>
 4    1 -0.5160210E-019  0.1499357E+02  0.7818608E-02  0.1868265E+00
          2   -1    0    0  501    0  0.00000000000E+00  0.00000000000E+00  0.11944909812E+03  0.11944909815E+03  0.25500000000E-02 0. -1.
         -2   -1    0    0    0  501 -0.00000000000E+00 -0.00000000000E+00 -0.47050445731E+00  0.47051136740E+00  0.25500000000E-02 0.  1.
         31    1    1    2    0    0 -0.42747806805E+00  0.43710257008E+00  0.64347931769E+02  0.64780313716E+02  0.74470750000E+01 0. -1.
        -31    1    1    2    0    0  0.42747806805E+00 -0.43710257008E+00  0.54630661893E+02  0.55139295798E+02  0.74470750000E+01 0.  1.
<mgrwt>
<rscale>  0 0.14993565E+02</rscale>
<asrwt>0</asrwt>
<pdfrwt beam="1">  1        2 0.99157923E+00 0.14993565E+02</pdfrwt>
<pdfrwt beam="2">  1       -2 0.99927905E+00 0.14993565E+02</pdfrwt>
<totfact>-0.37456969E-14</totfact>
</mgrwt>
</event>
<event>
 4    1 -0.5160210E-019  0.1490373E+02  0.7818608E-02  0.1871020E+00
          2   -1    0    0  501    0  0.00000000000E+00  0.00000000000E+00  0.11884064228E+03  0.11884064231E+03  0.25500000000E-02 0.  1.
         -2   -1    0    0    0  501 -0.00000000000E+00 -0.00000000000E+00 -0.46726343280E+00  0.46727039082E+00  0.25500000000E-02 0. -1.
         31    1    1    2    0    0  0.14164837188E+00 -0.22474136360E+00  0.58959676690E+02  0.59428721796E+02  0.74470750000E+01 0. -1.
        -31    1    1    2    0    0 -0.14164837188E+00  0.22474136360E+00  0.59413702161E+02  0.59879190905E+02  0.74470750000E+01 0. -1.
<mgrwt>
<rscale>  0 0.14903732E+02</rscale>
<asrwt>0</asrwt>
<pdfrwt beam="1">  1        2 0.98652130E+00 0.14903732E+02</pdfrwt>
<pdfrwt beam="2">  1       -2 0.99240274E+00 0.14903732E+02</pdfrwt>
<totfact>-0.20719770E-13</totfact>
</mgrwt>
</event>
<event>
 4    1 -0.5160210E-019  0.1501298E+02  0.7818608E-02  0.1867673E+00
         -2   -1    0    0    0  501 -0.00000000000E+00  0.00000000000E+00  0.11985320171E+03  0.11985320174E+03  0.25500000000E-02 0.  1.
          2   -1    0    0  501    0  0.00000000000E+00 -0.00000000000E+00 -0.47013307317E+00  0.47013998872E+00  0.25500000000E-02 0. -1.
         31    1    1    2    0    0  0.37546785202E+00 -0.65213467798E+00  0.55142292315E+02  0.55647979151E+02  0.74470750000E+01 0. -1.
        -31    1    1    2    0    0 -0.37546785202E+00  0.65213467798E+00  0.64240776326E+02  0.64675362579E+02  0.74470750000E+01 0.  1.
<mgrwt>
<rscale>  0 0.15012977E+02</rscale>
<asrwt>0</asrwt>
<pdfrwt beam="2">  1        2 0.99850659E+00 0.15012977E+02</pdfrwt>
<pdfrwt beam="1">  1       -2 0.99491758E+00 0.15012977E+02</pdfrwt>
<totfact>-0.51798231E-14</totfact>
</mgrwt>
</event>
<event>
 4    1 -0.5160210E-019  0.1492057E+02  0.7818608E-02  0.1870502E+00
         -2   -1    0    0    0  501 -0.00000000000E+00  0.00000000000E+00  0.12015108613E+03  0.12015108615E+03  0.25500000000E-02 0. -1.
          2   -1    0    0  501    0  0.00000000000E+00 -0.00000000000E+00 -0.46321199856E+00  0.46321901743E+00  0.25500000000E-02 0.  1.
         31    1    1    2    0    0  0.22792093110E+00 -0.95024176955E-01  0.56863384971E+02  0.57349493930E+02  0.74470750000E+01 0.  1.
        -31    1    1    2    0    0 -0.22792093110E+00  0.95024176955E-01  0.62824489156E+02  0.63264811241E+02  0.74470750000E+01 0. -1.
<mgrwt>
<rscale>  0 0.14920570E+02</rscale>
<asrwt>0</asrwt>
<pdfrwt beam="2">  1        2 0.98387325E+00 0.14920570E+02</pdfrwt>
<pdfrwt beam="1">  1       -2 0.99732346E+00 0.14920570E+02</pdfrwt>
<totfact>-0.30991296E-13</totfact>
</mgrwt>
</event>
<event>
 4    1  0.5160210E-019  0.1492394E+02  0.7818608E-02  0.1870398E+00
         -2   -1    0    0    0  501 -0.00000000000E+00  0.00000000000E+00  0.11886178015E+03  0.11886178018E+03  0.25500000000E-02 0. -1.
          2   -1    0    0  501    0  0.00000000000E+00 -0.00000000000E+00 -0.46844839790E+00  0.46845533831E+00  0.25500000000E-02 0.  1.
         31    1    1    2    0    0 -0.44584080649E+00 -0.95689329423E-01  0.60148468766E+02  0.60609447708E+02  0.74470750000E+01 0.  1.
        -31    1    1    2    0    0  0.44584080649E+00  0.95689329423E-01  0.58244862987E+02  0.58720787809E+02  0.74470750000E+01 0. -1.
<mgrwt>
<rscale>  0 0.14923944E+02</rscale>
<asrwt>0</asrwt>
<pdfrwt beam="2">  1        2 0.99491022E+00 0.14923944E+02</pdfrwt>
<pdfrwt beam="1">  1       -2 0.98670588E+00 0.14923944E+02</pdfrwt>
<totfact> 0.27916367E-13</totfact>
</mgrwt>
</event>
<event>
 4    1 -0.5160210E-019  0.1495972E+02  0.7818608E-02  0.1869300E+00
         -2   -1    0    0    0  501 -0.00000000000E+00  0.00000000000E+00  0.12002686468E+03  0.12002686471E+03  0.25500000000E-02 0.  1.
          2   -1    0    0  501    0  0.00000000000E+00 -0.00000000000E+00 -0.46612777780E+00  0.46613475276E+00  0.25500000000E-02 0. -1.
         31    1    1    2    0    0 -0.44666416723E+00 -0.10445787165E+00  0.64034265658E+02  0.64467484244E+02  0.74470750000E+01 0.  1.
        -31    1    1    2    0    0  0.44666416723E+00  0.10445787165E+00  0.55526471248E+02  0.56025515220E+02  0.74470750000E+01 0. -1.
<mgrwt>
<rscale>  0 0.14959716E+02</rscale>
<asrwt>0</asrwt>
<pdfrwt beam="2">  1        2 0.99003845E+00 0.14959716E+02</pdfrwt>
<pdfrwt beam="1">  1       -2 0.99632042E+00 0.14959716E+02</pdfrwt>
<totfact>-0.16055369E-13</totfact>
</mgrwt>
</event>
<event>
 4    1 -0.5160210E-019  0.1494450E+02  0.7818608E-02  0.1869767E+00
         -2   -1    0    0    0  501 -0.00000000000E+00  0.00000000000E+00  0.11975362633E+03  0.11975362636E+03  0.25500000000E-02 0. -1.
          2   -1    0    0  501    0  0.00000000000E+00 -0.00000000000E+00 -0.46624128258E+00  0.46624825585E+00  0.25500000000E-02 0.  1.
         31    1    1    2    0    0 -0.58139081863E+00  0.13221248192E-01  0.58088204055E+02  0.58566514037E+02  0.74470750000E+01 0.  1.
        -31    1    1    2    0    0  0.58139081863E+00 -0.13221248192E-01  0.61199180995E+02  0.61653360578E+02  0.74470750000E+01 0. -1.
<mgrwt>
<rscale>  0 0.14944498E+02</rscale>
<asrwt>0</asrwt>
<pdfrwt beam="2">  1        2 0.99026985E+00 0.14944498E+02</pdfrwt>
<pdfrwt beam="1">  1       -2 0.99406204E+00 0.14944498E+02</pdfrwt>
<totfact>-0.17106876E-13</totfact>
</mgrwt>
</event>
<event>
 4    1  0.5160210E-019  0.1493956E+02  0.7818608E-02  0.1869918E+00
          2   -1    0    0  501    0  0.00000000000E+00  0.00000000000E+00  0.11997966285E+03  0.11997966287E+03  0.25500000000E-02 0. -1.
         -2   -1    0    0    0  501 -0.00000000000E+00 -0.00000000000E+00 -0.46505542642E+00  0.46506241747E+00  0.25500000000E-02 0.  1.
         31    1    1    2    0    0  0.14185264956E+00  0.32651098834E+00  0.63469023146E+02  0.63905418837E+02  0.74470750000E+01 0. -1.
        -31    1    1    2    0    0 -0.14185264956E+00 -0.32651098834E+00  0.56045584273E+02  0.56539306453E+02  0.74470750000E+01 0.  1.
<mgrwt>
<rscale>  0 0.14939560E+02</rscale>
<asrwt>0</asrwt>
<pdfrwt beam="1">  1        2 0.99592126E+00 0.14939560E+02</pdfrwt>
<pdfrwt beam="2">  1       -2 0.98776814E+00 0.14939560E+02</pdfrwt>
<totfact> 0.15372955E-13</totfact>
</mgrwt>
</event>
<event>
 4    1 -0.5160210E-019  0.1494657E+02  0.7818608E-02  0.1869703E+00
         -2   -1    0    0    0  501 -0.00000000000E+00  0.00000000000E+00  0.12022678583E+03  0.12022678586E+03  0.25500000000E-02 0.  1.
          2   -1    0    0  501    0  0.00000000000E+00 -0.00000000000E+00 -0.46453494220E+00  0.46454194109E+00  0.25500000000E-02 0. -1.
         31    1    1    2    0    0 -0.43484162048E+00  0.41614991319E+00  0.58511421149E+02  0.58986503532E+02  0.74470750000E+01 0. -1.
        -31    1    1    2    0    0  0.43484162048E+00 -0.41614991319E+00  0.61250829742E+02  0.61704824269E+02  0.74470750000E+01 0. -1.
<mgrwt>
<rscale>  0 0.14946567E+02</rscale>
<asrwt>0</asrwt>
<pdfrwt beam="2">  1        2 0.98667475E+00 0.14946567E+02</pdfrwt>
<pdfrwt beam="1">  1       -2 0.99796034E+00 0.14946567E+02</pdfrwt>
<totfact>-0.16167331E-13</totfact>
</mgrwt>
</event>
<event>
 4    1  0.5160210E-019  0.1489832E+02  0.7818608E-02  0.1871187E+00
          2   -1    0    0  501    0  0.00000000000E+00  0.00000000000E+00  0.11961280963E+03  0.11961280966E+03  0.25500000000E-02 0. -1.
         -2   -1    0    0    0  501 -0.00000000000E+00 -0.00000000000E+00 -0.46390975296E+00  0.46391676127E+00  0.25500000000E-02 0.  1.
         31    1    1    2    0    0 -0.27452305232E-01 -0.10330871302E+00  0.58445538328E+02  0.58918174639E+02  0.74470750000E+01 0.  1.
        -31    1    1    2    0    0  0.27452305232E-01  0.10330871302E+00  0.60703361553E+02  0.61158551783E+02  0.74470750000E+01 0. -1.
<mgrwt>
<rscale>  0 0.14898318E+02</rscale>
<asrwt>0</asrwt>
<pdfrwt beam="1">  1        2 0.99287839E+00 0.14898318E+02</pdfrwt>
<pdfrwt beam="2">  1       -2 0.98533252E+00 0.14898318E+02</pdfrwt>
<totfact> 0.52441078E-13</totfact>
</mgrwt>
</event>
<event>
 4    1  0.5160210E-019  0.1490713E+02  0.7818608E-02  0.1870916E+00
         -2   -1    0    0    0  501 -0.00000000000E+00  0.00000000000E+00  0.11902880910E+03  0.11902880913E+03  0.25500000000E-02 0.  1.
          2   -1    0    0  501    0  0.00000000000E+00 -0.00000000000E+00 -0.46673756678E+00  0.46674453263E+00  0.25500000000E-02 0. -1.
         31    1    1    2    0    0  0.29925468074E+00  0.15686941695E-01  0.59947331784E+02  0.60408867838E+02  0.74470750000E+01 0. -1.
        -31    1    1    2    0    0 -0.29925468074E+00 -0.15686941695E-01  0.58614739747E+02  0.59086685820E+02  0.74470750000E+01 0.  1.
<mgrwt>
<rscale>  0 0.14907130E+02</rscale>
<asrwt>0</asrwt>
<pdfrwt beam="2">  1        2 0.99129639E+00 0.14907130E+02</pdfrwt>
<pdfrwt beam="1">  1       -2 0.98807284E+00 0.14907130E+02</pdfrwt>
<totfact> 0.19410410E-13</totfact>
</mgrwt>
</event>
<event>
 4    1 -0.5160210E-019  0.1498184E+02  0.7818608E-02  0.1868623E+00
         -2   -1    0    0    0  501 -0.00000000000E+00  0.00000000000E+00  0.12006262599E+03  0.12006262602E+03  0.25500000000E-02 0. -1.
          2   -1    0    0  501    0  0.00000000000E+00 -0.00000000000E+00 -0.46736817384E+00  0.46737513029E+00  0.25500000000E-02 0.  1.
         31    1    1    2    0    0 -0.38276766827E-01  0.20430715130E+00  0.53505277461E+02  0.54021448044E+02  0.74470750000E+01 0.  1.
        -31    1    1    2    0    0  0.38276766827E-01 -0.20430715130E+00  0.66089980359E+02  0.66508553108E+02  0.74470750000E+01 0. -1.
<mgrwt>
<rscale>  0 0.14981838E+02</rscale>
<asrwt>0</asrwt>
<pdfrwt beam="2">  1        2 0.99266390E+00 0.14981838E+02</pdfrwt>
<pdfrwt beam="1">  1       -2 0.99662638E+00 0.14981838E+02</pdfrwt>
<totfact>-0.12422558E-13</totfact>
</mgrwt>
</event>
<event>
 4    1 -0.5160210E-019  0.1490404E+02  0.7818608E-02  0.1871011E+00
         -2   -1    0    0    0  501 -0.00000000000E+00  0.00000000000E+00  0.11997823604E+03  0.11997823607E+03  0.25500000000E-02 0. -1.
          2   -1    0    0  501    0  0.00000000000E+00 -0.00000000000E+00 -0.46285209874E+00  0.46285912307E+00  0.25500000000E-02 0.  1.
         31    1    1    2    0    0 -0.25804072921E+00 -0.83721744707E-01  0.59684250699E+02  0.60147670793E+02  0.74470750000E+01 0.  1.
        -31    1    1    2    0    0  0.25804072921E+00  0.83721744707E-01  0.59831133245E+02  0.60293424399E+02  0.74470750000E+01 0.  1.
<mgrwt>
<rscale>  0 0.14904040E+02</rscale>
<asrwt>0</asrwt>
<pdfrwt beam="2">  1        2 0.98310633E+00 0.14904040E+02</pdfrwt>
<pdfrwt beam="1">  1       -2 0.99589124E+00 0.14904040E+02</pdfrwt>
<totfact>-0.45132814E-13</totfact>
</mgrwt>
</event>
<event>
 4    1  0.5160210E-019  0.1492160E+02  0.7818608E-02  0.1870470E+00
         -2   -1    0    0    0  501 -0.00000000000E+00  0.00000000000E+00  0.11831703949E+03  0.11831703951E+03  0.25500000000E-02 0.  1.
          2   -1    0    0  501    0  0.00000000000E+00 -0.00000000000E+00 -0.47045722615E+00  0.47046413693E+00  0.25500000000E-02 0. -1.
         31    1    1    2    0    0  0.29680278550E+00 -0.19638981479E+00  0.61145636886E+02  0.61598494277E+02  0.74470750000E+01 0.  1.
        -31    1    1    2    0    0 -0.29680278550E+00  0.19638981479E+00  0.56700945375E+02  0.57189009375E+02  0.74470750000E+01 0.  1.
<mgrwt>
<rscale>  0 0.14921598E+02</rscale>
<asrwt>0</asrwt>
<pdfrwt beam="2">  1        2 0.99914163E+00 0.14921598E+02</pdfrwt>
<pdfrwt beam="1">  1       -2 0.98221819E+00 0.14921598E+02</pdfrwt>
<totfact> 0.25128348E-13</totfact>
</mgrwt>
</event>
<event>
 4    1 -0.5160210E-019  0.1494170E+02  0.7818608E-02  0.1869853E+00
         -2   -1    0    0    0  501 -0.00000000000E+00  0.00000000000E+00  0.12034490261E+03  0.12034490263E+03  0.25500000000E-02 0. -1.
          2   -1    0    0  501    0  0.00000000000E+00 -0.00000000000E+00 -0.46377675220E+00  0.46378376252E+00  0.25500000000E-02 0.  1.
         31    1    1    2    0    0  0.47173427121E+00  0.21706120875E-01  0.62874356810E+02  0.63315611619E+02  0.74470750000E+01 0. -1.
        -31    1    1    2    0    0 -0.47173427121E+00 -0.21706120875E-01  0.57006769046E+02  0.57493074778E+02  0.74470750000E+01 0.  1.
<mgrwt>
<rscale>  0 0.14941699E+02</rscale>
<asrwt>0</asrwt>
<pdfrwt beam="2">  1        2 0.98507427E+00 0.14941699E+02</pdfrwt>
<pdfrwt beam="1">  1       -2 0.99893074E+00 0.14941699E+02</pdfrwt>
<totfact>-0.11853295E-13</totfact>
</mgrwt>
</event>
<event>
 4    1  0.5160210E-019  0.1494475E+02  0.7818608E-02  0.1869759E+00
          2   -1    0    0  501    0  0.00000000000E+00  0.00000000000E+00  0.11987399955E+03  0.11987399958E+03  0.25500000000E-02 0.  1.
         -2   -1    0    0    0  501 -0.00000000000E+00 -0.00000000000E+00 -0.46578868571E+00  0.46579566576E+00  0.25500000000E-02 0. -1.
         31    1    1    2    0    0  0.23813914607E+00 -0.54512317067E+00  0.60940568029E+02  0.61396788411E+02  0.74470750000E+01 0. -1.
        -31    1    1    2    0    0 -0.23813914607E+00  0.54512317067E+00  0.58467642835E+02  0.58943006831E+02  0.74470750000E+01 0. -1.
<mgrwt>
<rscale>  0 0.14944748E+02</rscale>
<asrwt>0</asrwt>
<pdfrwt beam="1">  1        2 0.99505362E+00 0.14944748E+02</pdfrwt>
<pdfrwt beam="2">  1       -2 0.98931615E+00 0.14944748E+02</pdfrwt>
<totfact> 0.50357949E-14</totfact>
</mgrwt>
</event>
<event>
 4    1  0.5160210E-019  0.1490324E+02  0.7818608E-02  0.1871036E+00
         -2   -1    0    0    0  501 -0.00000000000E+00  0.00000000000E+00  0.11875268440E+03  0.11875268443E+03  0.25500000000E-02 0.  1.
          2   -1    0    0  501    0  0.00000000000E+00 -0.00000000000E+00 -0.46757839417E+00  0.46758534750E+00  0.25500000000E-02 0. -1.
         31    1    1    2    0    0  0.14334619712E+00 -0.30992582725E-01  0.57423641341E+02  0.57904706368E+02  0.74470750000E+01 0. -1.
        -31    1    1    2    0    0 -0.14334619712E+00  0.30992582725E-01  0.60861464663E+02  0.61315563405E+02  0.74470750000E+01 0.  1.
<mgrwt>
<rscale>  0 0.14903235E+02</rscale>
<asrwt>0</asrwt>
<pdfrwt beam="2">  1        2 0.99306616E+00 0.14903235E+02</pdfrwt>
<pdfrwt beam="1">  1       -2 0.98579660E+00 0.14903235E+02</pdfrwt>
<totfact> 0.44809199E-13</totfact>
</mgrwt>
</event>
<event>
 4    1 -0.5160210E-019  0.1489963E+02  0.7818608E-02  0.1871147E+00
         -2   -1    0    0    0  501 -0.00000000000E+00  0.00000000000E+00  0.12042045778E+03  0.12042045781E+03  0.25500000000E-02 0.  1.
          2   -1    0    0  501    0  0.00000000000E+00 -0.00000000000E+00 -0.46087959593E+00  0.46088665032E+00  0.25500000000E-02 0. -1.
         31    1    1    2    0    0  0.21546383030E-01  0.19866489098E+00  0.60223435206E+02  0.60682460449E+02  0.74470750000E+01 0.  1.
        -31    1    1    2    0    0 -0.21546383030E-01 -0.19866489098E+00  0.59736142976E+02  0.60198884007E+02  0.74470750000E+01 0. -1.
<mgrwt>
<rscale>  0 0.14899632E+02</rscale>
<asrwt>0</asrwt>
<pdfrwt beam="2">  1        2 0.97894655E+00 0.14899632E+02</pdfrwt>
<pdfrwt beam="1">  1       -2 0.99953153E+00 0.14899632E+02</pdfrwt>
<totfact>-0.15074324E-13</totfact>
</mgrwt>
</event>
<event>
 4    1 -0.5160210E-019  0.1498350E+02  0.7818608E-02  0.1868572E+00
         -2   -1    0    0    0  501 -0.00000000000E+00  0.00000000000E+00  0.12008327237E+03  0.12008327240E+03  0.25500000000E-02 0.  1.
          2   -1    0    0  501    0  0.00000000000E+00 -0.00000000000E+00 -0.46739171557E+00  0.46739867168E+00  0.25500000000E-02 0. -1.
         31    1    1    2    0    0 -0.20198533542E+00  0.20013430484E+00  0.65969860522E+02  0.66389474129E+02  0.74470750000E+01 0.  1.
        -31    1    1    2    0    0  0.20198533542E+00 -0.20013430484E+00  0.53646020137E+02  0.54161196944E+02  0.74470750000E+01 0. -1.
<mgrwt>
<rscale>  0 0.14983504E+02</rscale>
<asrwt>0</asrwt>
<pdfrwt beam="2">  1        2 0.99271437E+00 0.14983504E+02</pdfrwt>
<pdfrwt beam="1">  1       -2 0.99679729E+00 0.14983504E+02</pdfrwt>
<totfact>-0.12002262E-13</totfact>
</mgrwt>
</event>
<event>
 4    1  0.5160210E-019  0.1492069E+02  0.7818608E-02  0.1870498E+00
         -2   -1    0    0    0  501 -0.00000000000E+00  0.00000000000E+00  0.11838246814E+03  0.11838246817E+03  0.25500000000E-02 0.  1.
          2   -1    0    0  501    0  0.00000000000E+00 -0.00000000000E+00 -0.47014027533E+00  0.47014719077E+00  0.25500000000E-02 0. -1.
         31    1    1    2    0    0  0.20234114609E+00  0.22097804888E+00  0.56337430440E+02  0.56828291967E+02  0.74470750000E+01 0. -1.
        -31    1    1    2    0    0 -0.20234114609E+00 -0.22097804888E+00  0.61574897423E+02  0.62024323390E+02  0.74470750000E+01 0.  1.
<mgrwt>
<rscale>  0 0.14920694E+02</rscale>
<asrwt>0</asrwt>
<pdfrwt beam="2">  1        2 0.99847336E+00 0.14920694E+02</pdfrwt>
<pdfrwt beam="1">  1       -2 0.98275658E+00 0.14920694E+02</pdfrwt>
<totfact> 0.37092387E-13</totfact>
</mgrwt>
</event>
<event>
 4    1  0.5160210E-019  0.1491057E+02  0.7818608E-02  0.1870810E+00
         -2   -1    0    0    0  501 -0.00000000000E+00  0.00000000000E+00  0.11867226049E+03  0.11867226052E+03  0.25500000000E-02 0. -1.
          2   -1    0    0  501    0  0.00000000000E+00 -0.00000000000E+00 -0.46835573787E+00  0.46836267966E+00  0.25500000000E-02 0.  1.
         31    1    1    2    0    0  0.67792268926E-01 -0.33784630211E+00  0.58623377027E+02  0.59095498949E+02  0.74470750000E+01 0.  1.
        -31    1    1    2    0    0 -0.67792268926E-01  0.33784630211E+00  0.59580527725E+02  0.60045124248E+02  0.74470750000E+01 0.  1.
<mgrwt>
<rscale>  0 0.14910567E+02</rscale>
<asrwt>0</asrwt>
<pdfrwt beam="2">  1        2 0.99470796E+00 0.14910567E+02</pdfrwt>
<pdfrwt beam="1">  1       -2 0.98513803E+00 0.14910567E+02</pdfrwt>
<totfact> 0.47971990E-13</totfact>
</mgrwt>
</event>
<event>
 4    1  0.5160210E-019  0.1490948E+02  0.7818608E-02  0.1870843E+00
         -2   -1    0    0    0  501 -0.00000000000E+00  0.00000000000E+00  0.11842711706E+03  0.11842711708E+03  0.25500000000E-02 0. -1.
          2   -1    0    0  501    0  0.00000000000E+00 -0.00000000000E+00 -0.46925714103E+00  0.46926406948E+00  0.25500000000E-02 0.  1.
         31    1    1    2    0    0 -0.11253422778E+00  0.31414200702E+00  0.59409014458E+02  0.59874880159E+02  0.74470750000E+01 0.  1.
        -31    1    1    2    0    0  0.11253422778E+00 -0.31414200702E+00  0.58548845458E+02  0.59021500995E+02  0.74470750000E+01 0.  1.
<mgrwt>
<rscale>  0 0.14909485E+02</rscale>
<asrwt>0</asrwt>
<pdfrwt beam="2">  1        2 0.99660669E+00 0.14909485E+02</pdfrwt>
<pdfrwt beam="1">  1       -2 0.98311847E+00 0.14909485E+02</pdfrwt>
<totfact> 0.62086337E-13</totfact>
</mgrwt>
</event>
<event>
 4    1 -0.5160210E-019  0.1492287E+02  0.7818608E-02  0.1870431E+00
         -2   -1    0    0    0  501 -0.00000000000E+00  0.00000000000E+00  0.12021081923E+03  0.12021081926E+03  0.25500000000E-02 0.  1.
          2   -1    0    0  501    0  0.00000000000E+00 -0.00000000000E+00 -0.46312436859E+00  0.46313138879E+00  0.25500000000E-02 0. -1.
         31    1    1    2    0    0  0.70976084913E-01  0.19245082050E+00  0.63227401284E+02  0.63664788338E+02  0.74470750000E+01 0.  1.
        -31    1    1    2    0    0 -0.70976084913E-01 -0.19245082050E+00  0.56520293577E+02  0.57009162307E+02  0.74470750000E+01 0. -1.
<mgrwt>
<rscale>  0 0.14922866E+02</rscale>
<asrwt>0</asrwt>
<pdfrwt beam="2">  1        2 0.98368972E+00 0.14922866E+02</pdfrwt>
<pdfrwt beam="1">  1       -2 0.99781666E+00 0.14922866E+02</pdfrwt>
<totfact>-0.27462462E-13</totfact>
</mgrwt>
</event>
<event>
 4    1  0.5160210E-019  0.1492804E+02  0.7818608E-02  0.1870272E+00
         -2   -1    0    0    0  501 -0.00000000000E+00  0.00000000000E+00  0.11859332933E+03  0.11859332936E+03  0.25500000000E-02 0.  1.
          2   -1    0    0  501    0  0.00000000000E+00 -0.00000000000E+00 -0.46976643523E+00  0.46977335617E+00  0.25500000000E-02 0. -1.
         31    1    1    2    0    0 -0.20393106727E+00  0.12668560653E+00  0.62583945820E+02  0.63025921950E+02  0.74470750000E+01 0.  1.
        -31    1    1    2    0    0  0.20393106727E+00 -0.12668560653E+00  0.55539617074E+02  0.56037180763E+02  0.74470750000E+01 0. -1.
<mgrwt>
<rscale>  0 0.14928038E+02</rscale>
<asrwt>0</asrwt>
<pdfrwt beam="2">  1        2 0.99768957E+00 0.14928038E+02</pdfrwt>
<pdfrwt beam="1">  1       -2 0.98449704E+00 0.14928038E+02</pdfrwt>
<totfact> 0.34093980E-13</totfact>
</mgrwt>
</event>
<event>
 4    1  0.5160210E-019  0.1489993E+02  0.7818608E-02  0.1871138E+00
         -2   -1    0    0    0  501 -0.00000000000E+00  0.00000000000E+00  0.11853096824E+03  0.11853096826E+03  0.25500000000E-02 0. -1.
          2   -1    0    0  501    0  0.00000000000E+00 -0.00000000000E+00 -0.46824521346E+00  0.46825215689E+00  0.25500000000E-02 0.  1.
         31    1    1    2    0    0  0.15792897697E+00 -0.11421588649E+00  0.58463225417E+02  0.58935945220E+02  0.74470750000E+01 0.  1.
        -31    1    1    2    0    0 -0.15792897697E+00  0.11421588649E+00  0.59599497607E+02  0.60063275201E+02  0.74470750000E+01 0. -1.
<mgrwt>
<rscale>  0 0.14899929E+02</rscale>
<asrwt>0</asrwt>
<pdfrwt beam="2">  1        2 0.99446949E+00 0.14899929E+02</pdfrwt>
<pdfrwt beam="1">  1       -2 0.98396881E+00 0.14899929E+02</pdfrwt>
<totfact> 0.66913963E-13</totfact>
</mgrwt>
</event>
<event>
 4    1  0.5160210E-019  0.1493803E+02  0.7818608E-02  0.1869965E+00
         -2   -1    0    0    0  501 -0.00000000000E+00  0.00000000000E+00  0.11866661803E+03  0.11866661805E+03  0.25500000000E-02 0. -1.
          2   -1    0    0  501    0  0.00000000000E+00 -0.00000000000E+00 -0.47010498541E+00  0.47011190136E+00  0.25500000000E-02 0.  1.
         31    1    1    2    0    0 -0.43092257384E+00  0.23581466477E+00  0.56760043639E+02  0.57248605073E+02  0.74470750000E+01 0.  1.
        -31    1    1    2    0    0  0.43092257384E+00 -0.23581466477E+00  0.61436469401E+02  0.61888124882E+02  0.74470750000E+01 0. -1.
<mgrwt>
<rscale>  0 0.14938030E+02</rscale>
<asrwt>0</asrwt>
<pdfrwt beam="2">  1        2 0.99840816E+00 0.14938030E+02</pdfrwt>
<pdfrwt beam="1">  1       -2 0.98510584E+00 0.14938030E+02</pdfrwt>
<totfact> 0.21514754E-13</totfact>
</mgrwt>
</event>
<event>
 4    1 -0.5160210E-019  0.1494341E+02  0.7818608E-02  0.1869800E+00
          2   -1    0    0  501    0  0.00000000000E+00  0.00000000000E+00  0.11909413248E+03  0.11909413251E+03  0.25500000000E-02 0. -1.
         -2   -1    0    0    0  501 -0.00000000000E+00 -0.00000000000E+00 -0.46875485350E+00  0.46876178937E+00  0.25500000000E-02 0.  1.
         31    1    1    2    0    0 -0.53859814197E+00 -0.97289011917E-01  0.61397413776E+02  0.61849825364E+02  0.74470750000E+01 0. -1.
        -31    1    1    2    0    0  0.53859814197E+00  0.97289011917E-01  0.57227963854E+02  0.57713068936E+02  0.74470750000E+01 0.  1.
<mgrwt>
<rscale>  0 0.14943409E+02</rscale>
<asrwt>0</asrwt>
<pdfrwt beam="1">  1        2 0.98862966E+00 0.14943409E+02</pdfrwt>
<pdfrwt beam="2">  1       -2 0.99556614E+00 0.14943409E+02</pdfrwt>
<totfact>-0.20140413E-13</totfact>
</mgrwt>
</event>
<event>
 4    1 -0.5160210E-019  0.1490911E+02  0.7818608E-02  0.1870855E+00
         -2   -1    0    0    0  501 -0.00000000000E+00  0.00000000000E+00  0.12000396475E+03  0.12000396478E+03  0.25500000000E-02 0. -1.
          2   -1    0    0  501    0  0.00000000000E+00 -0.00000000000E+00 -0.46306798506E+00  0.46307500612E+00  0.25500000000E-02 0.  1.
         31    1    1    2    0    0 -0.94667708078E-01 -0.20624134416E+00  0.61749579416E+02  0.62197435490E+02  0.74470750000E+01 0. -1.
        -31    1    1    2    0    0  0.94667708078E-01  0.20624134416E+00  0.57791317350E+02  0.58269604294E+02  0.74470750000E+01 0.  1.
<mgrwt>
<rscale>  0 0.14909114E+02</rscale>
<asrwt>0</asrwt>
<pdfrwt beam="2">  1        2 0.98356392E+00 0.14909114E+02</pdfrwt>
<pdfrwt beam="1">  1       -2 0.99610577E+00 0.14909114E+02</pdfrwt>
<totfact>-0.40833067E-13</totfact>
</mgrwt>
</event>
<event>
 4    1  0.5160210E-019  0.1492416E+02  0.7818608E-02  0.1870392E+00
         -2   -1    0    0    0  501 -0.00000000000E+00  0.00000000000E+00  0.11835965319E+03  0.11835965321E+03  0.25500000000E-02 0. -1.
          2   -1    0    0  501    0  0.00000000000E+00 -0.00000000000E+00 -0.47044935705E+00  0.47045626795E+00  0.25500000000E-02 0.  1.
         31    1    1    2    0    0  0.33558303670E+00 -0.98432216444E-01  0.56409098084E+02  0.56899627219E+02  0.74470750000E+01 0.  1.
        -31    1    1    2    0    0 -0.33558303670E+00  0.98432216444E-01  0.61480105744E+02  0.61930482262E+02  0.74470750000E+01 0. -1.
<mgrwt>
<rscale>  0 0.14924160E+02</rscale>
<asrwt>0</asrwt>
<pdfrwt beam="2">  1        2 0.99912641E+00 0.14924160E+02</pdfrwt>
<pdfrwt beam="1">  1       -2 0.98257049E+00 0.14924160E+02</pdfrwt>
<totfact> 0.23738390E-13</totfact>
</mgrwt>
</event>
<event>
 4    1 -0.5160210E-019  0.1502646E+02  0.7818608E-02  0.1867262E+00
          2   -1    0    0  501    0  0.00000000000E+00  0.00000000000E+00  0.12032814856E+03  0.12032814858E+03  0.25500000000E-02 0. -1.
         -2   -1    0    0    0  501 -0.00000000000E+00 -0.00000000000E+00 -0.46911859782E+00  0.46912552832E+00  0.25500000000E-02 0.  1.
         31    1    1    2    0    0 -0.77397834147E+00 -0.59014680149E+00  0.61583879734E+02  0.62040152199E+02  0.74470750000E+01 0.  1.
        -31    1    1    2    0    0  0.77397834147E+00  0.59014680149E+00  0.58275150224E+02  0.58757121912E+02  0.74470750000E+01 0.  1.
<mgrwt>
<rscale>  0 0.15026456E+02</rscale>
<asrwt>0</asrwt>
<pdfrwt beam="1">  1        2 0.99883638E+00 0.15026456E+02</pdfrwt>
<pdfrwt beam="2">  1       -2 0.99637573E+00 0.15026456E+02</pdfrwt>
<totfact>-0.37436397E-14</totfact>
</mgrwt>
</event>
<event>
 4    1 -0.5160210E-019  0.1500604E+02  0.7818608E-02  0.1867884E+00
         -2   -1    0    0    0  501 -0.00000000000E+00  0.00000000000E+00  0.11978119929E+03  0.11978119931E+03  0.25500000000E-02 0. -1.
          2   -1    0    0  501    0  0.00000000000E+00 -0.00000000000E+00 -0.46998075568E+00  0.46998767347E+00  0.25500000000E-02 0.  1.
         31    1    1    2    0    0 -0.18513472432E+00 -0.64415651873E+00  0.64641652806E+02  0.65072662586E+02  0.74470750000E+01 0. -1.
        -31    1    1    2    0    0  0.18513472432E+00  0.64415651873E+00  0.54669565725E+02  0.55178524401E+02  0.74470750000E+01 0.  1.
<mgrwt>
<rscale>  0 0.15006036E+02</rscale>
<asrwt>0</asrwt>
<pdfrwt beam="2">  1        2 0.99818201E+00 0.15006036E+02</pdfrwt>
<pdfrwt beam="1">  1       -2 0.99432095E+00 0.15006036E+02</pdfrwt>
<totfact>-0.60432061E-14</totfact>
</mgrwt>
</event>
<event>
 4    1 -0.5160210E-019  0.1495506E+02  0.7818608E-02  0.1869443E+00
          2   -1    0    0  501    0  0.00000000000E+00  0.00000000000E+00  0.11935020890E+03  0.11935020893E+03  0.25500000000E-02 0. -1.
         -2   -1    0    0    0  501 -0.00000000000E+00 -0.00000000000E+00 -0.46847898136E+00  0.46848592132E+00  0.25500000000E-02 0.  1.
         31    1    1    2    0    0  0.30173298984E+00 -0.20608119196E+00  0.54901258761E+02  0.55405240292E+02  0.74470750000E+01 0.  1.
        -31    1    1    2    0    0 -0.30173298984E+00  0.20608119196E+00  0.63980471157E+02  0.64413454556E+02  0.74470750000E+01 0. -1.
<mgrwt>
<rscale>  0 0.14955064E+02</rscale>
<asrwt>0</asrwt>
<pdfrwt beam="1">  1        2 0.99074480E+00 0.14955064E+02</pdfrwt>
<pdfrwt beam="2">  1       -2 0.99499090E+00 0.14955064E+02</pdfrwt>
<totfact>-0.16700209E-13</totfact>
</mgrwt>
</event>
<event>
 4    1 -0.5160210E-019  0.1498618E+02  0.7818608E-02  0.1868491E+00
          2   -1    0    0  501    0  0.00000000000E+00  0.00000000000E+00  0.12001001714E+03  0.12001001717E+03  0.25500000000E-02 0. -1.
         -2   -1    0    0    0  501 -0.00000000000E+00 -0.00000000000E+00 -0.46784378418E+00  0.46785073357E+00  0.25500000000E-02 0.  1.
         31    1    1    2    0    0  0.82829523864E+00 -0.14403231744E-01  0.60044220995E+02  0.60509946962E+02  0.74470750000E+01 0. -1.
        -31    1    1    2    0    0 -0.82829523864E+00  0.14403231744E-01  0.59497952359E+02  0.59967920937E+02  0.74470750000E+01 0.  1.
<mgrwt>
<rscale>  0 0.14986175E+02</rscale>
<asrwt>0</asrwt>
<pdfrwt beam="1">  1        2 0.99619531E+00 0.14986175E+02</pdfrwt>
<pdfrwt beam="2">  1       -2 0.99366844E+00 0.14986175E+02</pdfrwt>
<totfact>-0.97536219E-14</totfact>
</mgrwt>
</event>
<event>
 4    1  0.5160210E-019  0.1489799E+02  0.7818608E-02  0.1871197E+00
         -2   -1    0    0    0  501 -0.00000000000E+00  0.00000000000E+00  0.11837772547E+03  0.11837772549E+03  0.25500000000E-02 0.  1.
          2   -1    0    0  501    0  0.00000000000E+00 -0.00000000000E+00 -0.46872964784E+00  0.46873658409E+00  0.25500000000E-02 0. -1.
         31    1    1    2    0    0  0.85005850286E-01  0.83811500790E-01  0.57997649981E+02  0.58473930770E+02  0.74470750000E+01 0. -1.
        -31    1    1    2    0    0 -0.85005850286E-01 -0.83811500790E-01  0.59911345837E+02  0.60372531307E+02  0.74470750000E+01 0.  1.
<mgrwt>
<rscale>  0 0.14897995E+02</rscale>
<asrwt>0</asrwt>
<pdfrwt beam="2">  1        2 0.99548920E+00 0.14897995E+02</pdfrwt>
<pdfrwt beam="1">  1       -2 0.98270570E+00 0.14897995E+02</pdfrwt>
<totfact> 0.80361837E-13</totfact>
</mgrwt>
</event>
<event>
 4    1 -0.5160210E-019  0.1493607E+02  0.7818608E-02  0.1870026E+00
          2   -1    0    0  501    0  0.00000000000E+00  0.00000000000E+00  0.11898095883E+03  0.11898095886E+03  0.25500000000E-02 0. -1.
         -2   -1    0    0    0  501 -0.00000000000E+00 -0.00000000000E+00 -0.46873978543E+00  0.46874672153E+00  0.25500000000E-02 0.  1.
         31    1    1    2    0    0  0.25522632769E+00 -0.46209306798E+00  0.60729205111E+02  0.61186386966E+02  0.74470750000E+01 0.  1.
        -31    1    1    2    0    0 -0.25522632769E+00  0.46209306798E+00  0.57783013935E+02  0.58263318614E+02  0.74470750000E+01 0.  1.
<mgrwt>
<rscale>  0 0.14936067E+02</rscale>
<asrwt>0</asrwt>
<pdfrwt beam="1">  1        2 0.98769374E+00 0.14936067E+02</pdfrwt>
<pdfrwt beam="2">  1       -2 0.99553055E+00 0.14936067E+02</pdfrwt>
<totfact>-0.22697326E-13</totfact>
</mgrwt>
</event>
<event>
 4    1 -0.5160210E-019  0.1499665E+02  0.7818608E-02  0.1868171E+00
         -2   -1    0    0    0  501 -0.00000000000E+00  0.00000000000E+00  0.11981862651E+03  0.11981862654E+03  0.25500000000E-02 0. -1.
          2   -1    0    0  501    0  0.00000000000E+00 -0.00000000000E+00 -0.46924644707E+00  0.46925337568E+00  0.25500000000E-02 0.  1.
         31    1    1    2    0    0 -0.47280580200E+00 -0.20289619885E+00  0.65353437659E+02  0.65778381343E+02  0.74470750000E+01 0. -1.
        -31    1    1    2    0    0  0.47280580200E+00  0.20289619885E+00  0.53995942405E+02  0.54509498571E+02  0.74470750000E+01 0.  1.
<mgrwt>
<rscale>  0 0.14996651E+02</rscale>
<asrwt>0</asrwt>
<pdfrwt beam="2">  1        2 0.99662975E+00 0.14996651E+02</pdfrwt>
<pdfrwt beam="1">  1       -2 0.99462435E+00 0.14996651E+02</pdfrwt>
<totfact>-0.95227079E-14</totfact>
</mgrwt>
</event>
<event>
 4    1  0.5160210E-019  0.1492220E+02  0.7818608E-02  0.1870452E+00
          2   -1    0    0  501    0  0.00000000000E+00  0.00000000000E+00  0.12017319700E+03  0.12017319703E+03  0.25500000000E-02 0. -1.
         -2   -1    0    0    0  501 -0.00000000000E+00 -0.00000000000E+00 -0.46322783109E+00  0.46323484972E+00  0.25500000000E-02 0.  1.
         31    1    1    2    0    0  0.10499208212E+00  0.43928153614E+00  0.59278964643E+02  0.59746619711E+02  0.74470750000E+01 0.  1.
        -31    1    1    2    0    0 -0.10499208212E+00 -0.43928153614E+00  0.60431004529E+02  0.60889812170E+02  0.74470750000E+01 0. -1.
<mgrwt>
<rscale>  0 0.14922197E+02</rscale>
<asrwt>0</asrwt>
<pdfrwt beam="1">  1        2 0.99750642E+00 0.14922197E+02</pdfrwt>
<pdfrwt beam="2">  1       -2 0.98390745E+00 0.14922197E+02</pdfrwt>
<totfact> 0.41867635E-13</totfact>
</mgrwt>
</event>
<event>
 4    1 -0.5160210E-019  0.1501468E+02  0.7818608E-02  0.1867621E+00
         -2   -1    0    0    0  501 -0.00000000000E+00  0.00000000000E+00  0.11995547698E+03  0.11995547700E+03  0.25500000000E-02 0.  1.
          2   -1    0    0  501    0  0.00000000000E+00 -0.00000000000E+00 -0.46983870068E+00  0.46984562056E+00  0.25500000000E-02 0. -1.
         31    1    1    2    0    0  0.29201042090E+00 -0.36807086681E+00  0.66358990209E+02  0.66777206095E+02  0.74470750000E+01 0.  1.
        -31    1    1    2    0    0 -0.29201042090E+00  0.36807086681E+00  0.53126648067E+02  0.53648116529E+02  0.74470750000E+01 0. -1.
<mgrwt>
<rscale>  0 0.15014679E+02</rscale>
<asrwt>0</asrwt>
<pdfrwt beam="2">  1        2 0.99788715E+00 0.15014679E+02</pdfrwt>
<pdfrwt beam="1">  1       -2 0.99576082E+00 0.15014679E+02</pdfrwt>
<totfact>-0.65633375E-14</totfact>
</mgrwt>
</event>
<event>
 4    1  0.5160210E-019  0.1492829E+02  0.7818608E-02  0.1870265E+00
          2   -1    0    0  501    0  0.00000000000E+00  0.00000000000E+00  0.11996687948E+03  0.11996687950E+03  0.25500000000E-02 0.  1.
         -2   -1    0    0    0  501 -0.00000000000E+00 -0.00000000000E+00 -0.46440327342E+00  0.46441027429E+00  0.25500000000E-02 0. -1.
         31    1    1    2    0    0 -0.27781817197E-01 -0.14865219887E+00  0.55868522714E+02  0.56362874533E+02  0.74470750000E+01 0. -1.
        -31    1    1    2    0    0  0.27781817197E-01  0.14865219887E+00  0.63633953490E+02  0.64068415246E+02  0.74470750000E+01 0.  1.
<mgrwt>
<rscale>  0 0.14928287E+02</rscale>
<asrwt>0</asrwt>
<pdfrwt beam="1">  1        2 0.99581017E+00 0.14928287E+02</pdfrwt>
<pdfrwt beam="2">  1       -2 0.98638794E+00 0.14928287E+02</pdfrwt>
<totfact> 0.28318735E-13</totfact>
</mgrwt>
</event>
<event>
 4    1  0.5160210E-019  0.1495023E+02  0.7818608E-02  0.1869591E+00
          2   -1    0    0  501    0  0.00000000000E+00  0.00000000000E+00  0.12026480310E+03  0.12026480313E+03  0.25500000000E-02 0.  1.
         -2   -1    0    0    0  501 -0.00000000000E+00 -0.00000000000E+00 -0.46461564543E+00  0.46462264309E+00  0.25500000000E-02 0. -1.
         31    1    1    2    0    0 -0.21536768156E+00 -0.44708124515E-01  0.64812348297E+02  0.65239158486E+02  0.74470750000E+01 0.  1.
        -31    1    1    2    0    0  0.21536768156E+00  0.44708124515E-01  0.54987839155E+02  0.55490267282E+02  0.74470750000E+01 0. -1.
<mgrwt>
<rscale>  0 0.14950229E+02</rscale>
<asrwt>0</asrwt>
<pdfrwt beam="1">  1        2 0.99827536E+00 0.14950229E+02</pdfrwt>
<pdfrwt beam="2">  1       -2 0.98684670E+00 0.14950229E+02</pdfrwt>
<totfact> 0.12777310E-13</totfact>
</mgrwt>
</event>
<event>
 4    1 -0.5160210E-019  0.1490463E+02  0.7818608E-02  0.1870993E+00
          2   -1    0    0  501    0  0.00000000000E+00  0.00000000000E+00  0.11819586128E+03  0.11819586131E+03  0.25500000000E-02 0.  1.
         -2   -1    0    0    0  501 -0.00000000000E+00 -0.00000000000E+00 -0.46986904832E+00  0.46987596775E+00  0.25500000000E-02 0. -1.
         31    1    1    2    0    0  0.49407845500E-01 -0.26942905259E+00  0.58424754647E+02  0.58898097718E+02  0.74470750000E+01 0.  1.
        -31    1    1    2    0    0 -0.49407845500E-01  0.26942905259E+00  0.59301237586E+02  0.59767639558E+02  0.74470750000E+01 0. -1.
<mgrwt>
<rscale>  0 0.14904629E+02</rscale>
<asrwt>0</asrwt>
<pdfrwt beam="1">  1        2 0.98121134E+00 0.14904629E+02</pdfrwt>
<pdfrwt beam="2">  1       -2 0.99789339E+00 0.14904629E+02</pdfrwt>
<totfact>-0.40555600E-13</totfact>
</mgrwt>
</event>
<event>
 4    1 -0.5160210E-019  0.1496134E+02  0.7818608E-02  0.1869250E+00
          2   -1    0    0  501    0  0.00000000000E+00  0.00000000000E+00  0.11936541269E+03  0.11936541272E+03  0.25500000000E-02 0. -1.
         -2   -1    0    0    0  501 -0.00000000000E+00 -0.00000000000E+00 -0.46881266319E+00  0.46881959821E+00  0.25500000000E-02 0.  1.
         31    1    1    2    0    0 -0.33910917333E+00  0.10287720754E+00  0.64359227157E+02  0.64789618189E+02  0.74470750000E+01 0. -1.
        -31    1    1    2    0    0  0.33910917333E+00 -0.10287720754E+00  0.54537372869E+02  0.55044614126E+02  0.74470750000E+01 0.  1.
<mgrwt>
<rscale>  0 0.14961341E+02</rscale>
<asrwt>0</asrwt>
<pdfrwt beam="1">  1        2 0.99087328E+00 0.14961341E+02</pdfrwt>
<pdfrwt beam="2">  1       -2 0.99569731E+00 0.14961341E+02</pdfrwt>
<totfact>-0.15947846E-13</totfact>
</mgrwt>
</event>
<event>
 4    1  0.5160210E-019  0.1490706E+02  0.7818608E-02  0.1870918E+00
         -2   -1    0    0    0  501 -0.00000000000E+00  0.00000000000E+00  0.11880161974E+03  0.11880161977E+03  0.25500000000E-02 0.  1.
          2   -1    0    0  501    0  0.00000000000E+00 -0.00000000000E+00 -0.46762570876E+00  0.46763266139E+00  0.25500000000E-02 0. -1.
         31    1    1    2    0    0  0.13224223514E+00 -0.21110325605E+00  0.57688910811E+02  0.58168130528E+02  0.74470750000E+01 0.  1.
        -31    1    1    2    0    0 -0.13224223514E+00  0.21110325605E+00  0.60645083219E+02  0.61101121898E+02  0.74470750000E+01 0.  1.
<mgrwt>
<rscale>  0 0.14907060E+02</rscale>
<asrwt>0</asrwt>
<pdfrwt beam="2">  1        2 0.99316786E+00 0.14907060E+02</pdfrwt>
<pdfrwt beam="1">  1       -2 0.98620163E+00 0.14907060E+02</pdfrwt>
<totfact> 0.38837304E-13</totfact>
</mgrwt>
</event>
<event>
 4    1  0.5160210E-019  0.1489866E+02  0.7818608E-02  0.1871177E+00
         -2   -1    0    0    0  501 -0.00000000000E+00  0.00000000000E+00  0.11835249494E+03  0.11835249497E+03  0.25500000000E-02 0.  1.
          2   -1    0    0  501    0  0.00000000000E+00 -0.00000000000E+00 -0.46887138031E+00  0.46887831446E+00  0.25500000000E-02 0. -1.
         31    1    1    2    0    0  0.86869513331E-01  0.32735287143E-01  0.57681630261E+02  0.58160450596E+02  0.74470750000E+01 0. -1.
        -31    1    1    2    0    0 -0.86869513331E-01 -0.32735287143E-01  0.60201993297E+02  0.60660922684E+02  0.74470750000E+01 0.  1.
<mgrwt>
<rscale>  0 0.14898659E+02</rscale>
<asrwt>0</asrwt>
<pdfrwt beam="2">  1        2 0.99578818E+00 0.14898659E+02</pdfrwt>
<pdfrwt beam="1">  1       -2 0.98249825E+00 0.14898659E+02</pdfrwt>
<totfact> 0.80815742E-13</totfact>
</mgrwt>
</event>
<event>
 4    1 -0.5160210E-019  0.1502141E+02  0.7818608E-02  0.1867416E+00
         -2   -1    0    0    0  501 -0.00000000000E+00  0.00000000000E+00  0.11994376155E+03  0.11994376158E+03  0.25500000000E-02 0.  1.
          2   -1    0    0  501    0  0.00000000000E+00 -0.00000000000E+00 -0.47030620932E+00  0.47031312232E+00  0.25500000000E-02 0. -1.
         31    1    1    2    0    0  0.50228177825E+00  0.79955284619E+00  0.57769647948E+02  0.58255323549E+02  0.74470750000E+01 0.  1.
        -31    1    1    2    0    0 -0.50228177825E+00 -0.79955284619E+00  0.61703807393E+02  0.62158751150E+02  0.74470750000E+01 0. -1.
<mgrwt>
<rscale>  0 0.15021413E+02</rscale>
<asrwt>0</asrwt>
<pdfrwt beam="2">  1        2 0.99887582E+00 0.15021413E+02</pdfrwt>
<pdfrwt beam="1">  1       -2 0.99566782E+00 0.15021413E+02</pdfrwt>
<totfact>-0.39254026E-14</totfact>
</mgrwt>
</event>
<event>
 4    1 -0.5160210E-019  0.1499222E+02  0.7818608E-02  0.1868306E+00
         -2   -1    0    0    0  501 -0.00000000000E+00  0.00000000000E+00  0.11968790992E+03  0.11968790995E+03  0.25500000000E-02 0. -1.
          2   -1    0    0  501    0  0.00000000000E+00 -0.00000000000E+00 -0.46948132380E+00  0.46948824894E+00  0.25500000000E-02 0.  1.
         31    1    1    2    0    0  0.45098865436E+00 -0.13828997127E+00  0.53884401697E+02  0.54398623027E+02  0.74470750000E+01 0.  1.
        -31    1    1    2    0    0 -0.45098865436E+00  0.13828997127E+00  0.65334026898E+02  0.65758775169E+02  0.74470750000E+01 0.  1.
<mgrwt>
<rscale>  0 0.14992219E+02</rscale>
<asrwt>0</asrwt>
<pdfrwt beam="2">  1        2 0.99712240E+00 0.14992219E+02</pdfrwt>
<pdfrwt beam="1">  1       -2 0.99354544E+00 0.14992219E+02</pdfrwt>
<totfact>-0.80415179E-14</totfact>
</mgrwt>
</event>
<event>
 4    1 -0.5160210E-019  0.1493503E+02  0.7818608E-02  0.1870058E+00
         -2   -1    0    0    0  501 -0.00000000000E+00  0.00000000000E+00  0.11964393391E+03  0.11964393394E+03  0.25500000000E-02 0. -1.
          2   -1    0    0  501    0  0.00000000000E+00 -0.00000000000E+00 -0.46607764484E+00  0.46608462055E+00  0.25500000000E-02 0.  1.
         31    1    1    2    0    0 -0.48553516912E+00  0.16596796034E+00  0.61228577533E+02  0.61681933519E+02  0.74470750000E+01 0.  1.
        -31    1    1    2    0    0  0.48553516912E+00 -0.16596796034E+00  0.57949278735E+02  0.58428085042E+02  0.74470750000E+01 0. -1.
<mgrwt>
<rscale>  0 0.14935030E+02</rscale>
<asrwt>0</asrwt>
<pdfrwt beam="2">  1        2 0.98992013E+00 0.14935030E+02</pdfrwt>
<pdfrwt beam="1">  1       -2 0.99315367E+00 0.14935030E+02</pdfrwt>
<totfact>-0.16031996E-13</totfact>
</mgrwt>
</event>
<event>
 4    1  0.5160210E-019  0.1492939E+02  0.7818608E-02  0.1870231E+00
          2   -1    0    0  501    0  0.00000000000E+00  0.00000000000E+00  0.11971228889E+03  0.11971228892E+03  0.25500000000E-02 0. -1.
         -2   -1    0    0    0  501 -0.00000000000E+00 -0.00000000000E+00 -0.46545957809E+00  0.46546656307E+00  0.25500000000E-02 0.  1.
         31    1    1    2    0    0 -0.45808296698E+00  0.29760930745E-01  0.57787771818E+02  0.58267454239E+02  0.74470750000E+01 0.  1.
        -31    1    1    2    0    0  0.45808296698E+00 -0.29760930745E-01  0.61459057493E+02  0.61910301241E+02  0.74470750000E+01 0. -1.
<mgrwt>
<rscale>  0 0.14929388E+02</rscale>
<asrwt>0</asrwt>
<pdfrwt beam="1">  1        2 0.99371377E+00 0.14929388E+02</pdfrwt>
<pdfrwt beam="2">  1       -2 0.98861469E+00 0.14929388E+02</pdfrwt>
<totfact> 0.11315115E-13</totfact>
</mgrwt>
</event>
<event>
 4    1 -0.5160210E-019  0.1495148E+02  0.7818608E-02  0.1869553E+00
         -2   -1    0    0    0  501 -0.00000000000E+00  0.00000000000E+00  0.12015324140E+03  0.12015324142E+03  0.25500000000E-02 0.  1.
          2   -1    0    0  501    0  0.00000000000E+00 -0.00000000000E+00 -0.46512521645E+00  0.46513220645E+00  0.25500000000E-02 0. -1.
         31    1    1    2    0    0  0.62265801809E+00 -0.34322569802E-01  0.61435560145E+02  0.61888414565E+02  0.74470750000E+01 0.  1.
        -31    1    1    2    0    0 -0.62265801809E+00  0.34322569802E-01  0.58252556035E+02  0.58729959064E+02  0.74470750000E+01 0. -1.
<mgrwt>
<rscale>  0 0.14951485E+02</rscale>
<asrwt>0</asrwt>
<pdfrwt beam="2">  1        2 0.98792131E+00 0.14951485E+02</pdfrwt>
<pdfrwt beam="1">  1       -2 0.99735711E+00 0.14951485E+02</pdfrwt>
<totfact>-0.16567430E-13</totfact>
</mgrwt>
</event>
<event>
 4    1 -0.5160210E-019  0.1489887E+02  0.7818608E-02  0.1871170E+00
         -2   -1    0    0    0  501 -0.00000000000E+00  0.00000000000E+00  0.11988158123E+03  0.11988158126E+03  0.25500000000E-02 0.  1.
          2   -1    0    0  501    0  0.00000000000E+00 -0.00000000000E+00 -0.46290382644E+00  0.46291084998E+00  0.25500000000E-02 0. -1.
         31    1    1    2    0    0  0.13329905781E-01 -0.11560818222E+00  0.60896416056E+02  0.61350191177E+02  0.74470750000E+01 0. -1.
        -31    1    1    2    0    0 -0.13329905781E-01  0.11560818222E+00  0.58522261346E+02  0.58994300928E+02  0.74470750000E+01 0. -1.
<mgrwt>
<rscale>  0 0.14898868E+02</rscale>
<asrwt>0</asrwt>
<pdfrwt beam="2">  1        2 0.98321273E+00 0.14898868E+02</pdfrwt>
<pdfrwt beam="1">  1       -2 0.99509246E+00 0.14898868E+02</pdfrwt>
<totfact>-0.46606475E-13</totfact>
</mgrwt>
</event>
<event>
 4    1 -0.5160210E-019  0.1497456E+02  0.7818608E-02  0.1868846E+00
          2   -1    0    0  501    0  0.00000000000E+00  0.00000000000E+00  0.11942898307E+03  0.11942898310E+03  0.25500000000E-02 0.  1.
         -2   -1    0    0    0  501 -0.00000000000E+00 -0.00000000000E+00 -0.46939161916E+00  0.46939854563E+00  0.25500000000E-02 0. -1.
         31    1    1    2    0    0 -0.67401005910E+00 -0.28155904210E+00  0.57408995802E+02  0.57894605017E+02  0.74470750000E+01 0. -1.
        -31    1    1    2    0    0  0.67401005910E+00  0.28155904210E+00  0.61550595647E+02  0.62003776624E+02  0.74470750000E+01 0. -1.
<mgrwt>
<rscale>  0 0.14974563E+02</rscale>
<asrwt>0</asrwt>
<pdfrwt beam="1">  1        2 0.99140371E+00 0.14974563E+02</pdfrwt>
<pdfrwt beam="2">  1       -2 0.99692418E+00 0.14974563E+02</pdfrwt>
<totfact>-0.12886680E-13</totfact>
</mgrwt>
</event>
<event>
 4    1  0.5160210E-019  0.1489745E+02  0.7818608E-02  0.1871214E+00
          2   -1    0    0  501    0  0.00000000000E+00  0.00000000000E+00  0.12036457784E+03  0.12036457787E+03  0.25500000000E-02 0.  1.
         -2   -1    0    0    0  501 -0.00000000000E+00 -0.00000000000E+00 -0.46095837914E+00  0.46096543232E+00  0.25500000000E-02 0. -1.
         31    1    1    2    0    0  0.88778406102E-01  0.12339036895E+00  0.59642375953E+02  0.60105698916E+02  0.74470750000E+01 0. -1.
        -31    1    1    2    0    0 -0.88778406102E-01 -0.12339036895E+00  0.60261243512E+02  0.60719844388E+02  0.74470750000E+01 0.  1.
<mgrwt>
<rscale>  0 0.14897448E+02</rscale>
<asrwt>0</asrwt>
<pdfrwt beam="1">  1        2 0.99907013E+00 0.14897448E+02</pdfrwt>
<pdfrwt beam="2">  1       -2 0.97911152E+00 0.14897448E+02</pdfrwt>
<totfact> 0.47015412E-13</totfact>
</mgrwt>
</event>
<event>
 4    1 -0.5160210E-019  0.1490425E+02  0.7818608E-02  0.1871004E+00
         -2   -1    0    0    0  501 -0.00000000000E+00  0.00000000000E+00  0.11983193449E+03  0.11983193452E+03  0.25500000000E-02 0.  1.
          2   -1    0    0  501    0  0.00000000000E+00 -0.00000000000E+00 -0.46343034878E+00  0.46343736435E+00  0.25500000000E-02 0. -1.
         31    1    1    2    0    0 -0.21155196016E+00  0.16759363637E+00  0.60080554633E+02  0.60540935018E+02  0.74470750000E+01 0.  1.
        -31    1    1    2    0    0  0.21155196016E+00 -0.16759363637E+00  0.59287949509E+02  0.59754436863E+02  0.74470750000E+01 0. -1.
<mgrwt>
<rscale>  0 0.14904252E+02</rscale>
<asrwt>0</asrwt>
<pdfrwt beam="2">  1        2 0.98432517E+00 0.14904252E+02</pdfrwt>
<pdfrwt beam="1">  1       -2 0.99468630E+00 0.14904252E+02</pdfrwt>
<totfact>-0.38874357E-13</totfact>
</mgrwt>
</event>
<event>
 4    1 -0.5160210E-019  0.1495544E+02  0.7818608E-02  0.1869431E+00
         -2   -1    0    0    0  501 -0.00000000000E+00  0.00000000000E+00  0.11944442426E+03  0.11944442429E+03  0.25500000000E-02 0. -1.
          2   -1    0    0  501    0  0.00000000000E+00 -0.00000000000E+00 -0.46813320739E+00  0.46814015248E+00  0.25500000000E-02 0.  1.
         31    1    1    2    0    0 -0.59860070836E-01 -0.63501752694E+00  0.61291086441E+02  0.61745145831E+02  0.74470750000E+01 0.  1.
        -31    1    1    2    0    0  0.59860070836E-01  0.63501752694E+00  0.57685204611E+02  0.58167418608E+02  0.74470750000E+01 0.  1.
<mgrwt>
<rscale>  0 0.14955443E+02</rscale>
<asrwt>0</asrwt>
<pdfrwt beam="2">  1        2 0.99426246E+00 0.14955443E+02</pdfrwt>
<pdfrwt beam="1">  1       -2 0.99152098E+00 0.14955443E+02</pdfrwt>
<totfact>-0.67101505E-14</totfact>
</mgrwt>
</event>
<event>
 4    1 -0.5160210E-019  0.1497168E+02  0.7818608E-02  0.1868934E+00
          2   -1    0    0  501    0  0.00000000000E+00  0.00000000000E+00  0.11926240332E+03  0.11926240335E+03  0.25500000000E-02 0. -1.
         -2   -1    0    0    0  501 -0.00000000000E+00 -0.00000000000E+00 -0.46986603338E+00  0.46987295285E+00  0.25500000000E-02 0.  1.
         31    1    1    2    0    0 -0.36837824882E+00  0.46968426628E+00  0.63168873447E+02  0.63609133027E+02  0.74470750000E+01 0. -1.
        -31    1    1    2    0    0  0.36837824882E+00 -0.46968426628E+00  0.55623663843E+02  0.56123143276E+02  0.74470750000E+01 0. -1.
<mgrwt>
<rscale>  0 0.14971676E+02</rscale>
<asrwt>0</asrwt>
<pdfrwt beam="1">  1        2 0.99003023E+00 0.14971676E+02</pdfrwt>
<pdfrwt beam="2">  1       -2 0.99792235E+00 0.14971676E+02</pdfrwt>
<totfact>-0.10911486E-13</totfact>
</mgrwt>
</event>
<event>
 4    1 -0.5160210E-019  0.1494525E+02  0.7818608E-02  0.1869744E+00
         -2   -1    0    0    0  501 -0.00000000000E+00  0.00000000000E+00  0.11976868112E+03  0.11976868114E+03  0.25500000000E-02 0.  1.
          2   -1    0    0  501    0  0.00000000000E+00 -0.00000000000E+00 -0.46622980493E+00  0.46623677837E+00  0.25500000000E-02 0. -1.
         31    1    1    2    0    0  0.39792685173E-01 -0.55124410356E+00  0.61865728806E+02  0.62314787813E+02  0.74470750000E+01 0.  1.
        -31    1    1    2    0    0 -0.39792685173E-01  0.55124410356E+00  0.57436722505E+02  0.57920130108E+02  0.74470750000E+01 0. -1.
<mgrwt>
<rscale>  0 0.14945253E+02</rscale>
<asrwt>0</asrwt>
<pdfrwt beam="2">  1        2 0.99024605E+00 0.14945253E+02</pdfrwt>
<pdfrwt beam="1">  1       -2 0.99418643E+00 0.14945253E+02</pdfrwt>
<totfact>-0.17261126E-13</totfact>
</mgrwt>
</event>
<event>
 4    1 -0.5160210E-019  0.1494323E+02  0.7818608E-02  0.1869806E+00
          2   -1    0    0  501    0  0.00000000000E+00  0.00000000000E+00  0.11865213833E+03  0.11865213835E+03  0.25500000000E-02 0. -1.
         -2   -1    0    0    0  501 -0.00000000000E+00 -0.00000000000E+00 -0.47048995494E+00  0.47049686523E+00  0.25500000000E-02 0.  1.
         31    1    1    2    0    0 -0.58727966566E+00 -0.14293520957E-01  0.57934940094E+02  0.58414564206E+02  0.74470750000E+01 0.  1.
        -31    1    1    2    0    0  0.58727966566E+00  0.14293520957E-01  0.60246708278E+02  0.60708071013E+02  0.74470750000E+01 0. -1.
<mgrwt>
<rscale>  0 0.14943233E+02</rscale>
<asrwt>0</asrwt>
<pdfrwt beam="1">  1        2 0.98498929E+00 0.14943233E+02</pdfrwt>
<pdfrwt beam="2">  1       -2 0.99922204E+00 0.14943233E+02</pdfrwt>
<totfact>-0.89535680E-14</totfact>
</mgrwt>
</event>
<event>
 4    1  0.5160210E-019  0.1493426E+02  0.7818608E-02  0.1870081E+00
          2   -1    0    0  501    0  0.00000000000E+00  0.00000000000E+00  0.12023975416E+03  0.12023975419E+03  0.25500000000E-02 0.  1.
         -2   -1    0    0    0  501 -0.00000000000E+00 -0.00000000000E+00 -0.46372047455E+00  0.46372748573E+00  0.25500000000E-02 0. -1.
         31    1    1    2    0    0 -0.64148674757E-01 -0.15388290672E+00  0.55677915613E+02  0.56173988714E+02  0.74470750000E+01 0. -1.
        -31    1    1    2    0    0  0.64148674757E-01  0.15388290672E+00  0.64098118072E+02  0.64529492958E+02  0.74470750000E+01 0.  1.
<mgrwt>
<rscale>  0 0.14934264E+02</rscale>
<asrwt>0</asrwt>
<pdfrwt beam="1">  1        2 0.99806084E+00 0.14934264E+02</pdfrwt>
<pdfrwt beam="2">  1       -2 0.98495189E+00 0.14934264E+02</pdfrwt>
<totfact> 0.26347116E-13</totfact>
</mgrwt>
</event>
<event>
 4    1 -0.5160210E-019  0.1491906E+02  0.7818608E-02  0.1870549E+00
          2   -1    0    0  501    0  0.00000000000E+00  0.00000000000E+00  0.11822806727E+03  0.11822806730E+03  0.25500000000E-02 0.  1.
         -2   -1    0    0    0  501 -0.00000000000E+00 -0.00000000000E+00 -0.47065095661E+00  0.47065786454E+00  0.25500000000E-02 0. -1.
         31    1    1    2    0    0  0.36785247498E+00 -0.71576860786E-02  0.57094822213E+02  0.57579623273E+02  0.74470750000E+01 0. -1.
        -31    1    1    2    0    0 -0.36785247498E+00  0.71576860786E-02  0.60662594103E+02  0.61119101892E+02  0.74470750000E+01 0. -1.
<mgrwt>
<rscale>  0 0.14919057E+02</rscale>
<asrwt>0</asrwt>
<pdfrwt beam="1">  1        2 0.98148411E+00 0.14919057E+02</pdfrwt>
<pdfrwt beam="2">  1       -2 0.99954845E+00 0.14919057E+02</pdfrwt>
<totfact>-0.95870445E-14</totfact>
</mgrwt>
</event>
<event>
 4    1 -0.5160210E-019  0.1489595E+02  0.7818608E-02  0.1871260E+00
          2   -1    0    0  501    0  0.00000000000E+00  0.00000000000E+00  0.11823281763E+03  0.11823281766E+03  0.25500000000E-02 0. -1.
         -2   -1    0    0    0  501 -0.00000000000E+00 -0.00000000000E+00 -0.46917508048E+00  0.46918201015E+00  0.25500000000E-02 0.  1.
         31    1    1    2    0    0 -0.54802974910E-01 -0.90903711907E-01  0.58515628399E+02  0.58987701768E+02  0.74470750000E+01 0.  1.
        -31    1    1    2    0    0  0.54802974910E-01  0.90903711907E-01  0.59248014155E+02  0.59714297904E+02  0.74470750000E+01 0.  1.
<mgrwt>
<rscale>  0 0.14895946E+02</rscale>
<asrwt>0</asrwt>
<pdfrwt beam="1">  1        2 0.98151118E+00 0.14895946E+02</pdfrwt>
<pdfrwt beam="2">  1       -2 0.99642664E+00 0.14895946E+02</pdfrwt>
<totfact>-0.55333376E-13</totfact>
</mgrwt>
</event>
<event>
 4    1 -0.5160210E-019  0.1496836E+02  0.7818608E-02  0.1869036E+00
          2   -1    0    0  501    0  0.00000000000E+00  0.00000000000E+00  0.11946350406E+03  0.11946350408E+03  0.25500000000E-02 0. -1.
         -2   -1    0    0    0  501 -0.00000000000E+00 -0.00000000000E+00 -0.46886724827E+00  0.46887418248E+00  0.25500000000E-02 0.  1.
         31    1    1    2    0    0  0.51827963841E+00  0.51140284428E+00  0.58259431979E+02  0.58737981641E+02  0.74470750000E+01 0.  1.
        -31    1    1    2    0    0 -0.51827963841E+00 -0.51140284428E+00  0.60735204828E+02  0.61194396624E+02  0.74470750000E+01 0. -1.
<mgrwt>
<rscale>  0 0.14968359E+02</rscale>
<asrwt>0</asrwt>
<pdfrwt beam="1">  1        2 0.99168482E+00 0.14968359E+02</pdfrwt>
<pdfrwt beam="2">  1       -2 0.99581599E+00 0.14968359E+02</pdfrwt>
<totfact>-0.14807401E-13</totfact>
</mgrwt>
</event>
<event>
 4    1  0.5160210E-019  0.1492741E+02  0.7818608E-02  0.1870292E+00
          2   -1    0    0  501    0  0.00000000000E+00  0.00000000000E+00  0.12034966139E+03  0.12034966142E+03  0.25500000000E-02 0. -1.
         -2   -1    0    0    0  501 -0.00000000000E+00 -0.00000000000E+00 -0.46287175692E+00  0.46287878095E+00  0.25500000000E-02 0.  1.
         31    1    1    2    0    0 -0.25747795730E+00  0.25897850958E+00  0.57203656237E+02  0.57687525322E+02  0.74470750000E+01 0.  1.
        -31    1    1    2    0    0  0.25747795730E+00 -0.25897850958E+00  0.62683133398E+02  0.63125014879E+02  0.74470750000E+01 0. -1.
<mgrwt>
<rscale>  0 0.14927409E+02</rscale>
<asrwt>0</asrwt>
<pdfrwt beam="1">  1        2 0.99896261E+00 0.14927409E+02</pdfrwt>
<pdfrwt beam="2">  1       -2 0.98315958E+00 0.14927409E+02</pdfrwt>
<totfact> 0.24363946E-13</totfact>
</mgrwt>
</event>
<event>
 4    1 -0.5160210E-019  0.1494967E+02  0.7818608E-02  0.1869608E+00
          2   -1    0    0  501    0  0.00000000000E+00  0.00000000000E+00  0.11926561459E+03  0.11926561462E+03  0.25500000000E-02 0. -1.
         -2   -1    0    0    0  501 -0.00000000000E+00 -0.00000000000E+00 -0.46847348415E+00  0.46848042420E+00  0.25500000000E-02 0.  1.
         31    1    1    2    0    0 -0.46709576784E+00  0.21007569812E+00  0.62520686501E+02  0.62964732008E+02  0.74470750000E+01 0. -1.
        -31    1    1    2    0    0  0.46709576784E+00 -0.21007569812E+00  0.56276454608E+02  0.56769363036E+02  0.74470750000E+01 0. -1.
<mgrwt>
<rscale>  0 0.14949675E+02</rscale>
<asrwt>0</asrwt>
<pdfrwt beam="1">  1        2 0.99004527E+00 0.14949675E+02</pdfrwt>
<pdfrwt beam="2">  1       -2 0.99497651E+00 0.14949675E+02</pdfrwt>
<totfact>-0.17786911E-13</totfact>
</mgrwt>
</event>
<event>
 4    1 -0.5160210E-019  0.1494876E+02  0.7818608E-02  0.1869636E+00
          2   -1    0    0  501    0  0.00000000000E+00  0.00000000000E+00  0.11892880427E+03  0.11892880429E+03  0.25500000000E-02 0.  1.
         -2   -1    0    0    0  501 -0.00000000000E+00 -0.00000000000E+00 -0.46974288608E+00  0.46974980736E+00  0.25500000000E-02 0. -1.
         31    1    1    2    0    0 -0.14798591843E+00  0.31842135690E+00  0.54971854288E+02  0.55475102360E+02  0.74470750000E+01 0. -1.
        -31    1    1    2    0    0  0.14798591843E+00 -0.31842135690E+00  0.63487207093E+02  0.63923451741E+02  0.74470750000E+01 0.  1.
<mgrwt>
<rscale>  0 0.14948762E+02</rscale>
<asrwt>0</asrwt>
<pdfrwt beam="1">  1        2 0.98727078E+00 0.14948762E+02</pdfrwt>
<pdfrwt beam="2">  1       -2 0.99765085E+00 0.14948762E+02</pdfrwt>
<totfact>-0.16577074E-13</totfact>
</mgrwt>
</event>
<event>
 4    1 -0.5160210E-019  0.1496092E+02  0.7818608E-02  0.1869263E+00
         -2   -1    0    0    0  501 -0.00000000000E+00  0.00000000000E+00  0.12014291576E+03  0.12014291579E+03  0.25500000000E-02 0. -1.
          2   -1    0    0  501    0  0.00000000000E+00 -0.00000000000E+00 -0.46575269925E+00  0.46575967984E+00  0.25500000000E-02 0.  1.
         31    1    1    2    0    0 -0.21311409143E+00 -0.26087307027E+00  0.54837078149E+02  0.55341463103E+02  0.74470750000E+01 0.  1.
        -31    1    1    2    0    0  0.21311409143E+00  0.26087307027E+00  0.64840084915E+02  0.65267212367E+02  0.74470750000E+01 0. -1.
<mgrwt>
<rscale>  0 0.14960924E+02</rscale>
<asrwt>0</asrwt>
<pdfrwt beam="2">  1        2 0.98924858E+00 0.14960924E+02</pdfrwt>
<pdfrwt beam="1">  1       -2 0.99727691E+00 0.14960924E+02</pdfrwt>
<totfact>-0.14461848E-13</totfact>
</mgrwt>
</event>
<event>
 4    1 -0.5160210E-019  0.1496979E+02  0.7818608E-02  0.1868992E+00
         -2   -1    0    0    0  501 -0.00000000000E+00  0.00000000000E+00  0.11960615631E+03  0.11960615634E+03  0.25500000000E-02 0.  1.
          2   -1    0    0  501    0  0.00000000000E+00 -0.00000000000E+00 -0.46839756433E+00  0.46840450550E+00  0.25500000000E-02 0. -1.
         31    1    1    2    0    0  0.15235757890E+00  0.72805321112E+00  0.60427188132E+02  0.60888892796E+02  0.74470750000E+01 0.  1.
        -31    1    1    2    0    0 -0.15235757890E+00 -0.72805321112E+00  0.58710570612E+02  0.59185668045E+02  0.74470750000E+01 0. -1.
<mgrwt>
<rscale>  0 0.14969790E+02</rscale>
<asrwt>0</asrwt>
<pdfrwt beam="2">  1        2 0.99482698E+00 0.14969790E+02</pdfrwt>
<pdfrwt beam="1">  1       -2 0.99286048E+00 0.14969790E+02</pdfrwt>
<totfact>-0.10251850E-13</totfact>
</mgrwt>
</event>
<event>
 4    1  0.5160210E-019  0.1490321E+02  0.7818608E-02  0.1871036E+00
         -2   -1    0    0    0  501 -0.00000000000E+00  0.00000000000E+00  0.11838621674E+03  0.11838621677E+03  0.25500000000E-02 0. -1.
          2   -1    0    0  501    0  0.00000000000E+00 -0.00000000000E+00 -0.46902432227E+00  0.46903125416E+00  0.25500000000E-02 0.  1.
         31    1    1    2    0    0  0.16225486319E+00  0.19920870901E+00  0.58650560868E+02  0.59122019814E+02  0.74470750000E+01 0.  1.
        -31    1    1    2    0    0 -0.16225486319E+00 -0.19920870901E+00  0.59266631554E+02  0.59733228211E+02  0.74470750000E+01 0. -1.
<mgrwt>
<rscale>  0 0.14903212E+02</rscale>
<asrwt>0</asrwt>
<pdfrwt beam="2">  1        2 0.99611283E+00 0.14903212E+02</pdfrwt>
<pdfrwt beam="1">  1       -2 0.98277835E+00 0.14903212E+02</pdfrwt>
<totfact> 0.72703162E-13</totfact>
</mgrwt>
</event>
<event>
 4    1 -0.5160210E-019  0.1492117E+02  0.7818608E-02  0.1870484E+00
          2   -1    0    0  501    0  0.00000000000E+00  0.00000000000E+00  0.11855399718E+03  0.11855399720E+03  0.25500000000E-02 0.  1.
         -2   -1    0    0    0  501 -0.00000000000E+00 -0.00000000000E+00 -0.46948970252E+00  0.46949662754E+00  0.25500000000E-02 0. -1.
         31    1    1    2    0    0 -0.39199977144E+00  0.16852128049E+00  0.57933925340E+02  0.58412162215E+02  0.74470750000E+01 0. -1.
        -31    1    1    2    0    0  0.39199977144E+00 -0.16852128049E+00  0.60150582134E+02  0.60611331617E+02  0.74470750000E+01 0.  1.
<mgrwt>
<rscale>  0 0.14921165E+02</rscale>
<asrwt>0</asrwt>
<pdfrwt beam="1">  1        2 0.98416952E+00 0.14921165E+02</pdfrwt>
<pdfrwt beam="2">  1       -2 0.99710286E+00 0.14921165E+02</pdfrwt>
<totfact>-0.31145242E-13</totfact>
</mgrwt>
</event>
<event>
 4    1  0.5160210E-019  0.1490506E+02  0.7818608E-02  0.1870979E+00
          2   -1    0    0  501    0  0.00000000000E+00  0.00000000000E+00  0.12031657190E+03  0.12031657193E+03  0.25500000000E-02 0. -1.
         -2   -1    0    0    0  501 -0.00000000000E+00 -0.00000000000E+00 -0.46161398318E+00  0.46162102634E+00  0.25500000000E-02 0.  1.
         31    1    1    2    0    0 -0.20858259829E+00 -0.52104813090E-01  0.58409539850E+02  0.58882760577E+02  0.74470750000E+01 0.  1.
        -31    1    1    2    0    0  0.20858259829E+00  0.52104813090E-01  0.61445418072E+02  0.61895432381E+02  0.74470750000E+01 0. -1.
<mgrwt>
<rscale>  0 0.14905065E+02</rscale>
<asrwt>0</asrwt>
<pdfrwt beam="1">  1        2 0.99867860E+00 0.14905065E+02</pdfrwt>
<pdfrwt beam="2">  1       -2 0.98049724E+00 0.14905065E+02</pdfrwt>
<totfact> 0.50808663E-13</totfact>
</mgrwt>
</event>
<event>
 4    1  0.5160210E-019  0.1493227E+02  0.7818608E-02  0.1870142E+00
         -2   -1    0    0    0  501 -0.00000000000E+00  0.00000000000E+00  0.11886207079E+03  0.11886207081E+03  0.25500000000E-02 0.  1.
          2   -1    0    0  501    0  0.00000000000E+00 -0.00000000000E+00 -0.46897010546E+00  0.46897703816E+00  0.25500000000E-02 0. -1.
         31    1    1    2    0    0 -0.19951810483E+00 -0.64165784699E-01  0.63114192032E+02  0.63552372786E+02  0.74470750000E+01 0.  1.
        -31    1    1    2    0    0  0.19951810483E+00  0.64165784699E-01  0.55278908647E+02  0.55778675065E+02  0.74470750000E+01 0. -1.
<mgrwt>
<rscale>  0 0.14932270E+02</rscale>
<asrwt>0</asrwt>
<pdfrwt beam="2">  1        2 0.99601388E+00 0.14932270E+02</pdfrwt>
<pdfrwt beam="1">  1       -2 0.98671260E+00 0.14932270E+02</pdfrwt>
<totfact> 0.24363210E-13</totfact>
</mgrwt>
</event>
<event>
 4    1 -0.5160210E-019  0.1489743E+02  0.7818608E-02  0.1871215E+00
         -2   -1    0    0    0  501 -0.00000000000E+00  0.00000000000E+00  0.11983934191E+03  0.11983934194E+03  0.25500000000E-02 0. -1.
          2   -1    0    0  501    0  0.00000000000E+00 -0.00000000000E+00 -0.46297738765E+00  0.46298441008E+00  0.25500000000E-02 0.  1.
         31    1    1    2    0    0  0.20970393398E-01  0.22999735967E-01  0.58451971796E+02  0.58924467767E+02  0.74470750000E+01 0.  1.
        -31    1    1    2    0    0 -0.20970393398E-01 -0.22999735967E-01  0.60924392728E+02  0.61377858581E+02  0.74470750000E+01 0. -1.
<mgrwt>
<rscale>  0 0.14897427E+02</rscale>
<asrwt>0</asrwt>
<pdfrwt beam="2">  1        2 0.98336704E+00 0.14897427E+02</pdfrwt>
<pdfrwt beam="1">  1       -2 0.99474381E+00 0.14897427E+02</pdfrwt>
<totfact>-0.45639712E-13</totfact>
</mgrwt>
</event>
<event>
 4    1 -0.5160210E-019  0.1494742E+02  0.7818608E-02  0.1869677E+00
          2   -1    0    0  501    0  0.00000000000E+00  0.00000000000E+00  0.11894751008E+03  0.11894751011E+03  0.25500000000E-02 0. -1.
         -2   -1    0    0    0  501 -0.00000000000E+00 -0.00000000000E+00 -0.46958453576E+00  0.46959145938E+00  0.25500000000E-02 0.  1.
         31    1    1    2    0    0 -0.19841093409E+00 -0.48496026416E-01  0.64003612649E+02  0.64435728264E+02  0.74470750000E+01 0. -1.
        -31    1    1    2    0    0  0.19841093409E+00  0.48496026416E-01  0.54474312897E+02  0.54981373304E+02  0.74470750000E+01 0.  1.
<mgrwt>
<rscale>  0 0.14947418E+02</rscale>
<asrwt>0</asrwt>
<pdfrwt beam="1">  1        2 0.98742415E+00 0.14947418E+02</pdfrwt>
<pdfrwt beam="2">  1       -2 0.99731649E+00 0.14947418E+02</pdfrwt>
<totfact>-0.17888979E-13</totfact>
</mgrwt>
</event>
<event>
 4    1  0.5160210E-019  0.1489892E+02  0.7818608E-02  0.1871169E+00
          2   -1    0    0  501    0  0.00000000000E+00  0.00000000000E+00  0.12031749713E+03  0.12031749716E+03  0.25500000000E-02 0. -1.
         -2   -1    0    0    0  501 -0.00000000000E+00 -0.00000000000E+00 -0.46122984961E+00  0.46123689864E+00  0.25500000000E-02 0.  1.
         31    1    1    2    0    0  0.93436308272E-01 -0.59954585197E-01  0.61162818292E+02  0.61614621579E+02  0.74470750000E+01 0. -1.
        -31    1    1    2    0    0 -0.93436308272E-01  0.59954585197E-01  0.58693448988E+02  0.59164112476E+02  0.74470750000E+01 0.  1.
<mgrwt>
<rscale>  0 0.14898919E+02</rscale>
<asrwt>0</asrwt>
<pdfrwt beam="1">  1        2 0.99868308E+00 0.14898919E+02</pdfrwt>
<pdfrwt beam="2">  1       -2 0.97968447E+00 0.14898919E+02</pdfrwt>
<totfact> 0.58155366E-13</totfact>
</mgrwt>
</event>
<event>
 4    1 -0.5160210E-019  0.1491438E+02  0.7818608E-02  0.1870693E+00
          2   -1    0    0  501    0  0.00000000000E+00  0.00000000000E+00  0.11845642667E+03  0.11845642670E+03  0.25500000000E-02 0. -1.
         -2   -1    0    0    0  501 -0.00000000000E+00 -0.00000000000E+00 -0.46944906860E+00  0.46945599422E+00  0.25500000000E-02 0.  1.
         31    1    1    2    0    0 -0.21099086925E-01 -0.37903237062E+00  0.59643049452E+02  0.60107373796E+02  0.74470750000E+01 0.  1.
        -31    1    1    2    0    0  0.21099086925E-01  0.37903237062E+00  0.58343928153E+02  0.58818508899E+02  0.74470750000E+01 0.  1.
<mgrwt>
<rscale>  0 0.14914379E+02</rscale>
<asrwt>0</asrwt>
<pdfrwt beam="1">  1        2 0.98336241E+00 0.14914379E+02</pdfrwt>
<pdfrwt beam="2">  1       -2 0.99701367E+00 0.14914379E+02</pdfrwt>
<totfact>-0.36375136E-13</totfact>
</mgrwt>
</event>
<event>
 4    1  0.5160210E-019  0.1494195E+02  0.7818608E-02  0.1869845E+00
          2   -1    0    0  501    0  0.00000000000E+00  0.00000000000E+00  0.11990940158E+03  0.11990940161E+03  0.25500000000E-02 0.  1.
         -2   -1    0    0    0  501 -0.00000000000E+00 -0.00000000000E+00 -0.46547660727E+00  0.46548359199E+00  0.25500000000E-02 0. -1.
         31    1    1    2    0    0  0.33657875558E+00 -0.28468836560E+00  0.56477568372E+02  0.56968140113E+02  0.74470750000E+01 0. -1.
        -31    1    1    2    0    0 -0.33657875558E+00  0.28468836560E+00  0.62966356604E+02  0.63406745089E+02  0.74470750000E+01 0.  1.
<mgrwt>
<rscale>  0 0.14941947E+02</rscale>
<asrwt>0</asrwt>
<pdfrwt beam="1">  1        2 0.99534377E+00 0.14941947E+02</pdfrwt>
<pdfrwt beam="2">  1       -2 0.98865701E+00 0.14941947E+02</pdfrwt>
<totfact> 0.94201446E-14</totfact>
</mgrwt>
</event>
<event>
 4    1  0.5160210E-019  0.1491507E+02  0.7818608E-02  0.1870671E+00
          2   -1    0    0  501    0  0.00000000000E+00  0.00000000000E+00  0.11985244017E+03  0.11985244019E+03  0.25500000000E-02 0.  1.
         -2   -1    0    0    0  501 -0.00000000000E+00 -0.00000000000E+00 -0.46402416774E+00  0.46403117433E+00  0.25500000000E-02 0. -1.
         31    1    1    2    0    0 -0.13464539760E+00  0.35381848752E+00  0.58788392800E+02  0.59259407447E+02  0.74470750000E+01 0. -1.
        -31    1    1    2    0    0  0.13464539760E+00 -0.35381848752E+00  0.60600023200E+02  0.61057063922E+02  0.74470750000E+01 0.  1.
<mgrwt>
<rscale>  0 0.14915073E+02</rscale>
<asrwt>0</asrwt>
<pdfrwt beam="1">  1        2 0.99486077E+00 0.14915073E+02</pdfrwt>
<pdfrwt beam="2">  1       -2 0.98558221E+00 0.14915073E+02</pdfrwt>
<totfact> 0.41382035E-13</totfact>
</mgrwt>
</event>
<event>
 4    1  0.5160210E-019  0.1492135E+02  0.7818608E-02  0.1870478E+00
         -2   -1    0    0    0  501 -0.00000000000E+00  0.00000000000E+00  0.11842846634E+03  0.11842846637E+03  0.25500000000E-02 0.  1.
          2   -1    0    0  501    0  0.00000000000E+00 -0.00000000000E+00 -0.46999884878E+00  0.47000576630E+00  0.25500000000E-02 0. -1.
         31    1    1    2    0    0  0.25752089112E-01 -0.16125442056E+00  0.62322745745E+02  0.62766314448E+02  0.74470750000E+01 0.  1.
        -31    1    1    2    0    0 -0.25752089112E-01  0.16125442056E+00  0.55635721747E+02  0.56132157686E+02  0.74470750000E+01 0. -1.
<mgrwt>
<rscale>  0 0.14921348E+02</rscale>
<asrwt>0</asrwt>
<pdfrwt beam="2">  1        2 0.99817573E+00 0.14921348E+02</pdfrwt>
<pdfrwt beam="1">  1       -2 0.98313576E+00 0.14921348E+02</pdfrwt>
<totfact> 0.39474993E-13</totfact>
</mgrwt>
</event>
<event>
 4    1 -0.5160210E-019  0.1492221E+02  0.7818608E-02  0.1870452E+00
         -2   -1    0    0    0  501 -0.00000000000E+00  0.00000000000E+00  0.12036652795E+03  0.12036652798E+03  0.25500000000E-02 0. -1.
          2   -1    0    0  501    0  0.00000000000E+00 -0.00000000000E+00 -0.46248441369E+00  0.46249144361E+00  0.25500000000E-02 0.  1.
         31    1    1    2    0    0 -0.41275654803E+00 -0.15127871044E+00  0.58931311348E+02  0.59401613080E+02  0.74470750000E+01 0.  1.
        -31    1    1    2    0    0  0.41275654803E+00  0.15127871044E+00  0.60972732191E+02  0.61427406344E+02  0.74470750000E+01 0. -1.
<mgrwt>
<rscale>  0 0.14922208E+02</rscale>
<asrwt>0</asrwt>
<pdfrwt beam="2">  1        2 0.98234054E+00 0.14922208E+02</pdfrwt>
<pdfrwt beam="1">  1       -2 0.99909887E+00 0.14922208E+02</pdfrwt>
<totfact>-0.15986346E-13</totfact>
</mgrwt>
</event>
<event>
 4    1  0.5160210E-019  0.1492784E+02  0.7818608E-02  0.1870278E+00
         -2   -1    0    0    0  501 -0.00000000000E+00  0.00000000000E+00  0.11885499592E+03  0.11885499595E+03  0.25500000000E-02 0. -1.
          2   -1    0    0  501    0  0.00000000000E+00 -0.00000000000E+00 -0.46871993931E+00  0.46872687570E+00  0.25500000000E-02 0.  1.
         31    1    1    2    0    0  0.35852747878E+00  0.25775040163E+00  0.57297872651E+02  0.57781485907E+02  0.74470750000E+01 0.  1.
        -31    1    1    2    0    0 -0.35852747878E+00 -0.25775040163E+00  0.61088403334E+02  0.61542236920E+02  0.74470750000E+01 0.  1.
<mgrwt>
<rscale>  0 0.14927843E+02</rscale>
<asrwt>0</asrwt>
<pdfrwt beam="2">  1        2 0.99548443E+00 0.14927843E+02</pdfrwt>
<pdfrwt beam="1">  1       -2 0.98665203E+00 0.14927843E+02</pdfrwt>
<totfact> 0.26758270E-13</totfact>
</mgrwt>
</event>
<event>
 4    1  0.5160210E-019  0.1491112E+02  0.7818608E-02  0.1870793E+00
         -2   -1    0    0    0  501 -0.00000000000E+00  0.00000000000E+00  0.11895046358E+03  0.11895046360E+03  0.25500000000E-02 0. -1.
          2   -1    0    0  501    0  0.00000000000E+00 -0.00000000000E+00 -0.46729481060E+00  0.46730176815E+00  0.25500000000E-02 0.  1.
         31    1    1    2    0    0 -0.18803080452E+00 -0.12578380196E+00  0.61438466908E+02  0.61888571798E+02  0.74470750000E+01 0. -1.
        -31    1    1    2    0    0  0.18803080452E+00  0.12578380196E+00  0.57044701858E+02  0.57529193574E+02  0.74470750000E+01 0.  1.
<mgrwt>
<rscale>  0 0.14911117E+02</rscale>
<asrwt>0</asrwt>
<pdfrwt beam="2">  1        2 0.99247271E+00 0.14911117E+02</pdfrwt>
<pdfrwt beam="1">  1       -2 0.98742964E+00 0.14911117E+02</pdfrwt>
<totfact> 0.24918300E-13</totfact>
</mgrwt>
</event>
