<event>
 4    1  0.5119137E-019  0.1489656E+02  0.7818608E-02  0.1871241E+00
          2   -1    0    0  501    0  0.00000000000E+00  0.00000000000E+00  0.11992935096E+03  0.11992935098E+03  0.25500000000E-02 0. -1.
         -2   -1    0    0    0  501 -0.00000000000E+00 -0.00000000000E+00 -0.46257612187E+00  0.46258315039E+00  0.25500000000E-02 0.  1.
         31    1    1    2    0    0  0.30636919787E-01 -0.65320411418E-01  0.58820911574E+02  0.59290503201E+02  0.74470750000E+01 0.  1.
        -31    1    1    2    0    0 -0.30636919787E-01  0.65320411418E-01  0.60645863262E+02  0.61101430934E+02  0.74470750000E+01 0. -1.
<mgrwt>
<rscale>  0 0.14896561E+02</rscale>
<asrwt>0</asrwt>
<pdfrwt beam="1">  1        2 0.99548475E+00 0.14896561E+02</pdfrwt>
<pdfrwt beam="2">  1       -2 0.98252087E+00 0.14896561E+02</pdfrwt>
<totfact> 0.83605137E-13</totfact>
</mgrwt>
</event>
<event>
 4    1 -0.5119137E-019  0.1502151E+02  0.7818608E-02  0.1867413E+00
         -2   -1    0    0    0  501 -0.00000000000E+00  0.00000000000E+00  0.12003823105E+03  0.12003823108E+03  0.25500000000E-02 0.  1.
          2   -1    0    0  501    0  0.00000000000E+00 -0.00000000000E+00 -0.46994196405E+00  0.46994888241E+00  0.25500000000E-02 0. -1.
         31    1    1    2    0    0  0.25403918985E+00  0.78231059461E+00  0.55569924532E+02  0.56072738335E+02  0.74470750000E+01 0.  1.
        -31    1    1    2    0    0 -0.25403918985E+00 -0.78231059461E+00  0.63998364553E+02  0.64435441624E+02  0.74470750000E+01 0.  1.
<mgrwt>
<rscale>  0 0.15021507E+02</rscale>
<asrwt>0</asrwt>
<pdfrwt beam="2">  1        2 0.99810830E+00 0.15021507E+02</pdfrwt>
<pdfrwt beam="1">  1       -2 0.99644595E+00 0.15021507E+02</pdfrwt>
<totfact>-0.55571000E-14</totfact>
</mgrwt>
</event>
<event>
 4    1  0.5119137E-019  0.1490450E+02  0.7818608E-02  0.1870997E+00
          2   -1    0    0  501    0  0.00000000000E+00  0.00000000000E+00  0.11976383834E+03  0.11976383837E+03  0.25500000000E-02 0. -1.
         -2   -1    0    0    0  501 -0.00000000000E+00 -0.00000000000E+00 -0.46370936543E+00  0.46371637677E+00  0.25500000000E-02 0.  1.
         31    1    1    2    0    0 -0.17564354512E-01  0.27620212557E+00  0.59467110438E+02  0.59932234615E+02  0.74470750000E+01 0. -1.
        -31    1    1    2    0    0  0.17564354512E-01 -0.27620212557E+00  0.59833018537E+02  0.60295320129E+02  0.74470750000E+01 0.  1.
<mgrwt>
<rscale>  0 0.14904501E+02</rscale>
<asrwt>0</asrwt>
<pdfrwt beam="1">  1        2 0.99412554E+00 0.14904501E+02</pdfrwt>
<pdfrwt beam="2">  1       -2 0.98491335E+00 0.14904501E+02</pdfrwt>
<totfact> 0.53835664E-13</totfact>
</mgrwt>
</event>
<event>
 4    1 -0.5119137E-019  0.1495216E+02  0.7818608E-02  0.1869532E+00
          2   -1    0    0  501    0  0.00000000000E+00  0.00000000000E+00  0.11898449501E+03  0.11898449504E+03  0.25500000000E-02 0. -1.
         -2   -1    0    0    0  501 -0.00000000000E+00 -0.00000000000E+00 -0.46973651333E+00  0.46974343471E+00  0.25500000000E-02 0.  1.
         31    1    1    2    0    0  0.28267065553E+00 -0.20752062923E+00  0.54810076575E+02  0.55314793571E+02  0.74470750000E+01 0.  1.
        -31    1    1    2    0    0 -0.28267065553E+00  0.20752062923E+00  0.63704681925E+02  0.64139444905E+02  0.74470750000E+01 0. -1.
<mgrwt>
<rscale>  0 0.14952161E+02</rscale>
<asrwt>0</asrwt>
<pdfrwt beam="1">  1        2 0.98773122E+00 0.14952161E+02</pdfrwt>
<pdfrwt beam="2">  1       -2 0.99763921E+00 0.14952161E+02</pdfrwt>
<totfact>-0.15634777E-13</totfact>
</mgrwt>
</event>
<event>
 4    1 -0.5119137E-019  0.1492783E+02  0.7818608E-02  0.1870279E+00
         -2   -1    0    0    0  501 -0.00000000000E+00  0.00000000000E+00  0.12005190996E+03  0.12005190999E+03  0.25500000000E-02 0. -1.
          2   -1    0    0  501    0  0.00000000000E+00 -0.00000000000E+00 -0.46404616933E+00  0.46405317559E+00  0.25500000000E-02 0.  1.
         31    1    1    2    0    0  0.15798780378E+00 -0.28142707090E-01  0.63626591268E+02  0.64061125455E+02  0.74470750000E+01 0. -1.
        -31    1    1    2    0    0 -0.15798780378E+00  0.28142707090E-01  0.55961272527E+02  0.56454837712E+02  0.74470750000E+01 0.  1.
<mgrwt>
<rscale>  0 0.14927833E+02</rscale>
<asrwt>0</asrwt>
<pdfrwt beam="2">  1        2 0.98563508E+00 0.14927833E+02</pdfrwt>
<pdfrwt beam="1">  1       -2 0.99651030E+00 0.14927833E+02</pdfrwt>
<totfact>-0.27518428E-13</totfact>
</mgrwt>
</event>
<event>
 4    1  0.5119137E-019  0.1491627E+02  0.7818608E-02  0.1870635E+00
          2   -1    0    0  501    0  0.00000000000E+00  0.00000000000E+00  0.12002554631E+03  0.12002554634E+03  0.25500000000E-02 0. -1.
         -2   -1    0    0    0  501 -0.00000000000E+00 -0.00000000000E+00 -0.46342897898E+00  0.46343599457E+00  0.25500000000E-02 0.  1.
         31    1    1    2    0    0  0.23400473160E+00 -0.32291436802E+00  0.59166798072E+02  0.59634955789E+02  0.74470750000E+01 0.  1.
        -31    1    1    2    0    0 -0.23400473160E+00  0.32291436802E+00  0.60395319261E+02  0.60854026544E+02  0.74470750000E+01 0.  1.
<mgrwt>
<rscale>  0 0.14916265E+02</rscale>
<asrwt>0</asrwt>
<pdfrwt beam="1">  1        2 0.99628721E+00 0.14916265E+02</pdfrwt>
<pdfrwt beam="2">  1       -2 0.98432839E+00 0.14916265E+02</pdfrwt>
<totfact> 0.49176886E-13</totfact>
</mgrwt>
</event>
<event>
 4    1 -0.5119137E-019  0.1494744E+02  0.7818608E-02  0.1869677E+00
         -2   -1    0    0    0  501 -0.00000000000E+00  0.00000000000E+00  0.12041190835E+03  0.12041190838E+03  0.25500000000E-02 0.  1.
          2   -1    0    0  501    0  0.00000000000E+00 -0.00000000000E+00 -0.46387506599E+00  0.46388207483E+00  0.25500000000E-02 0. -1.
         31    1    1    2    0    0  0.22773864553E+00 -0.58693980859E+00  0.59691805237E+02  0.60157849876E+02  0.74470750000E+01 0. -1.
        -31    1    1    2    0    0 -0.22773864553E+00  0.58693980859E+00  0.60256228050E+02  0.60717940578E+02  0.74470750000E+01 0.  1.
<mgrwt>
<rscale>  0 0.14947442E+02</rscale>
<asrwt>0</asrwt>
<pdfrwt beam="2">  1        2 0.98528440E+00 0.14947442E+02</pdfrwt>
<pdfrwt beam="1">  1       -2 0.99948561E+00 0.14947442E+02</pdfrwt>
<totfact>-0.57625542E-14</totfact>
</mgrwt>
</event>
<event>
 4    1 -0.5119137E-019  0.1493701E+02  0.7818608E-02  0.1869997E+00
         -2   -1    0    0    0  501 -0.00000000000E+00  0.00000000000E+00  0.11947134180E+03  0.11947134183E+03  0.25500000000E-02 0. -1.
          2   -1    0    0  501    0  0.00000000000E+00 -0.00000000000E+00 -0.46687461073E+00  0.46688157454E+00  0.25500000000E-02 0.  1.
         31    1    1    2    0    0 -0.29870110959E-02 -0.53152469435E+00  0.61048884954E+02  0.61503721901E+02  0.74470750000E+01 0. -1.
        -31    1    1    2    0    0  0.29870110959E-02  0.53152469435E+00  0.57955582234E+02  0.58434501500E+02  0.74470750000E+01 0.  1.
<mgrwt>
<rscale>  0 0.14937008E+02</rscale>
<asrwt>0</asrwt>
<pdfrwt beam="2">  1        2 0.99160066E+00 0.14937008E+02</pdfrwt>
<pdfrwt beam="1">  1       -2 0.99173315E+00 0.14937008E+02</pdfrwt>
<totfact>-0.91706587E-14</totfact>
</mgrwt>
</event>
<event>
 4    1  0.5119137E-019  0.1494116E+02  0.7818608E-02  0.1869869E+00
         -2   -1    0    0    0  501 -0.00000000000E+00  0.00000000000E+00  0.11869470104E+03  0.11869470107E+03  0.25500000000E-02 0.  1.
          2   -1    0    0  501    0  0.00000000000E+00 -0.00000000000E+00 -0.47019096876E+00  0.47019788345E+00  0.25500000000E-02 0. -1.
         31    1    1    2    0    0 -0.14208135371E+00 -0.34533112662E+00  0.62777769111E+02  0.63219037175E+02  0.74470750000E+01 0.  1.
        -31    1    1    2    0    0  0.14208135371E+00  0.34533112662E+00  0.55446740960E+02  0.55945861776E+02  0.74470750000E+01 0. -1.
<mgrwt>
<rscale>  0 0.14941163E+02</rscale>
<asrwt>0</asrwt>
<pdfrwt beam="2">  1        2 0.99859098E+00 0.14941163E+02</pdfrwt>
<pdfrwt beam="1">  1       -2 0.98533876E+00 0.14941163E+02</pdfrwt>
<totfact> 0.18153234E-13</totfact>
</mgrwt>
</event>
<event>
 4    1 -0.5119137E-019  0.1500658E+02  0.7818608E-02  0.1867868E+00
          2   -1    0    0  501    0  0.00000000000E+00  0.00000000000E+00  0.11977198974E+03  0.11977198977E+03  0.25500000000E-02 0. -1.
         -2   -1    0    0    0  501 -0.00000000000E+00 -0.00000000000E+00 -0.47005071868E+00  0.47005763544E+00  0.25500000000E-02 0.  1.
         31    1    1    2    0    0 -0.54737649207E+00 -0.39404303909E+00  0.54675973045E+02  0.55184924078E+02  0.74470750000E+01 0.  1.
        -31    1    1    2    0    0  0.54737649207E+00  0.39404303909E+00  0.64625965980E+02  0.65057123329E+02  0.74470750000E+01 0.  1.
<mgrwt>
<rscale>  0 0.15006576E+02</rscale>
<asrwt>0</asrwt>
<pdfrwt beam="1">  1        2 0.99424538E+00 0.15006576E+02</pdfrwt>
<pdfrwt beam="2">  1       -2 0.99832972E+00 0.15006576E+02</pdfrwt>
<totfact>-0.65577130E-14</totfact>
</mgrwt>
</event>
<event>
 4    1 -0.5119137E-019  0.1499092E+02  0.7818608E-02  0.1868346E+00
         -2   -1    0    0    0  501 -0.00000000000E+00  0.00000000000E+00  0.11980046401E+03  0.11980046404E+03  0.25500000000E-02 0.  1.
          2   -1    0    0  501    0  0.00000000000E+00 -0.00000000000E+00 -0.46895915018E+00  0.46896608303E+00  0.25500000000E-02 0. -1.
         31    1    1    2    0    0 -0.66512187547E+00  0.33151175851E+00  0.62980730680E+02  0.63423841339E+02  0.74470750000E+01 0.  1.
        -31    1    1    2    0    0  0.66512187547E+00 -0.33151175851E+00  0.56350774181E+02  0.56845588782E+02  0.74470750000E+01 0. -1.
<mgrwt>
<rscale>  0 0.14990923E+02</rscale>
<asrwt>0</asrwt>
<pdfrwt beam="2">  1        2 0.99602136E+00 0.14990923E+02</pdfrwt>
<pdfrwt beam="1">  1       -2 0.99447180E+00 0.14990923E+02</pdfrwt>
<totfact>-0.10513742E-13</totfact>
</mgrwt>
</event>
<event>
 4    1 -0.5119137E-019  0.1492661E+02  0.7818608E-02  0.1870316E+00
         -2   -1    0    0    0  501 -0.00000000000E+00  0.00000000000E+00  0.11989227473E+03  0.11989227475E+03  0.25500000000E-02 0. -1.
          2   -1    0    0  501    0  0.00000000000E+00 -0.00000000000E+00 -0.46458759191E+00  0.46459459000E+00  0.25500000000E-02 0.  1.
         31    1    1    2    0    0 -0.98937261131E-01 -0.35640062776E+00  0.57099189002E+02  0.57583965830E+02  0.74470750000E+01 0. -1.
        -31    1    1    2    0    0  0.98937261131E-01  0.35640062776E+00  0.62328498133E+02  0.62772903514E+02  0.74470750000E+01 0.  1.
<mgrwt>
<rscale>  0 0.14926605E+02</rscale>
<asrwt>0</asrwt>
<pdfrwt beam="2">  1        2 0.98677554E+00 0.14926605E+02</pdfrwt>
<pdfrwt beam="1">  1       -2 0.99519481E+00 0.14926605E+02</pdfrwt>
<totfact>-0.26236583E-13</totfact>
</mgrwt>
</event>
<event>
 4    1 -0.5119137E-019  0.1499469E+02  0.7818608E-02  0.1868230E+00
         -2   -1    0    0    0  501 -0.00000000000E+00  0.00000000000E+00  0.11993233682E+03  0.11993233684E+03  0.25500000000E-02 0.  1.
          2   -1    0    0  501    0  0.00000000000E+00 -0.00000000000E+00 -0.46867921284E+00  0.46868614983E+00  0.25500000000E-02 0. -1.
         31    1    1    2    0    0  0.49511391275E+00 -0.57977240252E-01  0.65425399234E+02  0.65849755429E+02  0.74470750000E+01 0.  1.
        -31    1    1    2    0    0 -0.49511391275E+00  0.57977240252E-01  0.54038258371E+02  0.54551267565E+02  0.74470750000E+01 0. -1.
<mgrwt>
<rscale>  0 0.14994694E+02</rscale>
<asrwt>0</asrwt>
<pdfrwt beam="2">  1        2 0.99543340E+00 0.14994694E+02</pdfrwt>
<pdfrwt beam="1">  1       -2 0.99555990E+00 0.14994694E+02</pdfrwt>
<totfact>-0.11089501E-13</totfact>
</mgrwt>
</event>
<event>
 4    1 -0.5119137E-019  0.1497740E+02  0.7818608E-02  0.1868759E+00
         -2   -1    0    0    0  501 -0.00000000000E+00  0.00000000000E+00  0.11967772312E+03  0.11967772315E+03  0.25500000000E-02 0. -1.
          2   -1    0    0  501    0  0.00000000000E+00 -0.00000000000E+00 -0.46859330777E+00  0.46860024604E+00  0.25500000000E-02 0.  1.
         31    1    1    2    0    0  0.37432990486E+00 -0.67138860397E+00  0.58197034522E+02  0.58676610662E+02  0.74470750000E+01 0. -1.
        -31    1    1    2    0    0 -0.37432990486E+00  0.67138860397E+00  0.61012095292E+02  0.61469712734E+02  0.74470750000E+01 0. -1.
<mgrwt>
<rscale>  0 0.14977396E+02</rscale>
<asrwt>0</asrwt>
<pdfrwt beam="2">  1        2 0.99524341E+00 0.14977396E+02</pdfrwt>
<pdfrwt beam="1">  1       -2 0.99345386E+00 0.14977396E+02</pdfrwt>
<totfact>-0.10801138E-13</totfact>
</mgrwt>
</event>
<event>
 4    1 -0.5119137E-019  0.1493179E+02  0.7818608E-02  0.1870157E+00
          2   -1    0    0  501    0  0.00000000000E+00  0.00000000000E+00  0.11874351625E+03  0.11874351628E+03  0.25500000000E-02 0.  1.
         -2   -1    0    0    0  501 -0.00000000000E+00 -0.00000000000E+00 -0.46940805988E+00  0.46941498611E+00  0.25500000000E-02 0. -1.
         31    1    1    2    0    0 -0.44075671107E+00  0.91595140279E-01  0.56907349553E+02  0.57394320410E+02  0.74470750000E+01 0. -1.
        -31    1    1    2    0    0  0.44075671107E+00 -0.91595140279E-01  0.61366758640E+02  0.61818610857E+02  0.74470750000E+01 0.  1.
<mgrwt>
<rscale>  0 0.14931789E+02</rscale>
<asrwt>0</asrwt>
<pdfrwt beam="1">  1        2 0.98573592E+00 0.14931789E+02</pdfrwt>
<pdfrwt beam="2">  1       -2 0.99693643E+00 0.14931789E+02</pdfrwt>
<totfact>-0.25064234E-13</totfact>
</mgrwt>
</event>
<event>
 4    1 -0.5119137E-019  0.1496348E+02  0.7818608E-02  0.1869185E+00
         -2   -1    0    0    0  501 -0.00000000000E+00  0.00000000000E+00  0.12026968037E+03  0.12026968040E+03  0.25500000000E-02 0.  1.
          2   -1    0    0  501    0  0.00000000000E+00 -0.00000000000E+00 -0.46542081795E+00  0.46542780351E+00  0.25500000000E-02 0. -1.
         31    1    1    2    0    0  0.18616967454E+00  0.25106324417E+00  0.65130082932E+02  0.65555200562E+02  0.74470750000E+01 0.  1.
        -31    1    1    2    0    0 -0.18616967454E+00 -0.25106324417E+00  0.54674176625E+02  0.55179907644E+02  0.74470750000E+01 0. -1.
<mgrwt>
<rscale>  0 0.14963480E+02</rscale>
<asrwt>0</asrwt>
<pdfrwt beam="2">  1        2 0.98855043E+00 0.14963480E+02</pdfrwt>
<pdfrwt beam="1">  1       -2 0.99832235E+00 0.14963480E+02</pdfrwt>
<totfact>-0.10721333E-13</totfact>
</mgrwt>
</event>
<event>
 4    1  0.5119137E-019  0.1492136E+02  0.7818608E-02  0.1870478E+00
         -2   -1    0    0    0  501 -0.00000000000E+00  0.00000000000E+00  0.11880617720E+03  0.11880617723E+03  0.25500000000E-02 0. -1.
          2   -1    0    0  501    0  0.00000000000E+00 -0.00000000000E+00 -0.46850537374E+00  0.46851231331E+00  0.25500000000E-02 0.  1.
         31    1    1    2    0    0 -0.16016654842E+00 -0.31310945486E+00  0.61417441556E+02  0.61868285447E+02  0.74470750000E+01 0.  1.
        -31    1    1    2    0    0  0.16016654842E+00  0.31310945486E+00  0.56920230273E+02  0.57406404096E+02  0.74470750000E+01 0.  1.
<mgrwt>
<rscale>  0 0.14921360E+02</rscale>
<asrwt>0</asrwt>
<pdfrwt beam="2">  1        2 0.99502892E+00 0.14921360E+02</pdfrwt>
<pdfrwt beam="1">  1       -2 0.98624659E+00 0.14921360E+02</pdfrwt>
<totfact> 0.32674342E-13</totfact>
</mgrwt>
</event>
<event>
 4    1 -0.5119137E-019  0.1490519E+02  0.7818608E-02  0.1870975E+00
          2   -1    0    0  501    0  0.00000000000E+00  0.00000000000E+00  0.11842590979E+03  0.11842590982E+03  0.25500000000E-02 0. -1.
         -2   -1    0    0    0  501 -0.00000000000E+00 -0.00000000000E+00 -0.46899164737E+00  0.46899857974E+00  0.25500000000E-02 0.  1.
         31    1    1    2    0    0 -0.19119619326E+00 -0.17375535656E+00  0.57985256451E+02  0.58462087190E+02  0.74470750000E+01 0.  1.
        -31    1    1    2    0    0  0.19119619326E+00  0.17375535656E+00  0.59971661693E+02  0.60432821208E+02  0.74470750000E+01 0.  1.
<mgrwt>
<rscale>  0 0.14905191E+02</rscale>
<asrwt>0</asrwt>
<pdfrwt beam="1">  1        2 0.98310629E+00 0.14905191E+02</pdfrwt>
<pdfrwt beam="2">  1       -2 0.99604503E+00 0.14905191E+02</pdfrwt>
<totfact>-0.44414625E-13</totfact>
</mgrwt>
</event>
<event>
 4    1 -0.5119137E-019  0.1494599E+02  0.7818608E-02  0.1869721E+00
         -2   -1    0    0    0  501 -0.00000000000E+00  0.00000000000E+00  0.11981336772E+03  0.11981336775E+03  0.25500000000E-02 0.  1.
          2   -1    0    0  501    0  0.00000000000E+00 -0.00000000000E+00 -0.46610177494E+00  0.46610875030E+00  0.25500000000E-02 0. -1.
         31    1    1    2    0    0  0.43038627569E+00  0.22174519269E+00  0.62814419621E+02  0.63256182636E+02  0.74470750000E+01 0.  1.
        -31    1    1    2    0    0 -0.43038627569E+00 -0.22174519269E+00  0.56532846328E+02  0.57023293865E+02  0.74470750000E+01 0. -1.
<mgrwt>
<rscale>  0 0.14945989E+02</rscale>
<asrwt>0</asrwt>
<pdfrwt beam="2">  1        2 0.98997661E+00 0.14945989E+02</pdfrwt>
<pdfrwt beam="1">  1       -2 0.99455487E+00 0.14945989E+02</pdfrwt>
<totfact>-0.17915549E-13</totfact>
</mgrwt>
</event>
<event>
 4    1  0.5119137E-019  0.1493745E+02  0.7818608E-02  0.1869983E+00
         -2   -1    0    0    0  501 -0.00000000000E+00  0.00000000000E+00  0.11853583018E+03  0.11853583020E+03  0.25500000000E-02 0. -1.
          2   -1    0    0  501    0  0.00000000000E+00 -0.00000000000E+00 -0.47058687570E+00  0.47059378457E+00  0.25500000000E-02 0.  1.
         31    1    1    2    0    0 -0.38491645144E+00  0.25789957024E+00  0.56411739895E+02  0.56903057887E+02  0.74470750000E+01 0. -1.
        -31    1    1    2    0    0  0.38491645144E+00 -0.25789957024E+00  0.61653503405E+02  0.62103366101E+02  0.74470750000E+01 0. -1.
<mgrwt>
<rscale>  0 0.14937445E+02</rscale>
<asrwt>0</asrwt>
<pdfrwt beam="2">  1        2 0.99942319E+00 0.14937445E+02</pdfrwt>
<pdfrwt beam="1">  1       -2 0.98402838E+00 0.14937445E+02</pdfrwt>
<totfact> 0.11622247E-13</totfact>
</mgrwt>
</event>
<event>
 4    1 -0.5119137E-019  0.1501425E+02  0.7818608E-02  0.1867634E+00
          2   -1    0    0  501    0  0.00000000000E+00  0.00000000000E+00  0.11985791495E+03  0.11985791498E+03  0.25500000000E-02 0. -1.
         -2   -1    0    0    0  501 -0.00000000000E+00 -0.00000000000E+00 -0.47019451292E+00  0.47020142756E+00  0.25500000000E-02 0.  1.
         31    1    1    2    0    0 -0.67848803064E+00  0.22968705124E+00  0.64666082336E+02  0.65097421092E+02  0.74470750000E+01 0. -1.
        -31    1    1    2    0    0  0.67848803064E+00 -0.22968705124E+00  0.54721638102E+02  0.55230695313E+02  0.74470750000E+01 0.  1.
<mgrwt>
<rscale>  0 0.15014253E+02</rscale>
<asrwt>0</asrwt>
<pdfrwt beam="1">  1        2 0.99495706E+00 0.15014253E+02</pdfrwt>
<pdfrwt beam="2">  1       -2 0.99863672E+00 0.15014253E+02</pdfrwt>
<totfact>-0.51513356E-14</totfact>
</mgrwt>
</event>
<event>
 4    1 -0.5119137E-019  0.1491658E+02  0.7818608E-02  0.1870625E+00
          2   -1    0    0  501    0  0.00000000000E+00  0.00000000000E+00  0.11889080349E+03  0.11889080351E+03  0.25500000000E-02 0.  1.
         -2   -1    0    0    0  501 -0.00000000000E+00 -0.00000000000E+00 -0.46787221155E+00  0.46787916051E+00  0.25500000000E-02 0. -1.
         31    1    1    2    0    0  0.28447552184E+00 -0.28744976146E+00  0.58728717216E+02  0.59200377580E+02  0.74470750000E+01 0. -1.
        -31    1    1    2    0    0 -0.28447552184E+00  0.28744976146E+00  0.59694214058E+02  0.60158305094E+02  0.74470750000E+01 0.  1.
<mgrwt>
<rscale>  0 0.14916584E+02</rscale>
<asrwt>0</asrwt>
<pdfrwt beam="1">  1        2 0.98694110E+00 0.14916584E+02</pdfrwt>
<pdfrwt beam="2">  1       -2 0.99369225E+00 0.14916584E+02</pdfrwt>
<totfact>-0.24595163E-13</totfact>
</mgrwt>
</event>
<event>
 4    1 -0.5119137E-019  0.1492768E+02  0.7818608E-02  0.1870283E+00
          2   -1    0    0  501    0  0.00000000000E+00  0.00000000000E+00  0.11903951225E+03  0.11903951228E+03  0.25500000000E-02 0. -1.
         -2   -1    0    0    0  501 -0.00000000000E+00 -0.00000000000E+00 -0.46798332787E+00  0.46799027518E+00  0.25500000000E-02 0.  1.
         31    1    1    2    0    0 -0.12829295189E+00 -0.37472035782E+00  0.61728813197E+02  0.62177666241E+02  0.74470750000E+01 0. -1.
        -31    1    1    2    0    0  0.12829295189E+00  0.37472035782E+00  0.56842715729E+02  0.57329836316E+02  0.74470750000E+01 0.  1.
<mgrwt>
<rscale>  0 0.14927682E+02</rscale>
<asrwt>0</asrwt>
<pdfrwt beam="1">  1        2 0.98817165E+00 0.14927682E+02</pdfrwt>
<pdfrwt beam="2">  1       -2 0.99393219E+00 0.14927682E+02</pdfrwt>
<totfact>-0.21275115E-13</totfact>
</mgrwt>
</event>
<event>
 4    1 -0.5119137E-019  0.1493117E+02  0.7818608E-02  0.1870176E+00
          2   -1    0    0  501    0  0.00000000000E+00  0.00000000000E+00  0.11850986822E+03  0.11850986825E+03  0.25500000000E-02 0. -1.
         -2   -1    0    0    0  501 -0.00000000000E+00 -0.00000000000E+00 -0.47029484063E+00  0.47030175380E+00  0.25500000000E-02 0.  1.
         31    1    1    2    0    0 -0.37511831315E+00  0.36695608920E+00  0.58809575133E+02  0.59281535269E+02  0.74470750000E+01 0. -1.
        -31    1    1    2    0    0  0.37511831315E+00 -0.36695608920E+00  0.59229998244E+02  0.59698634730E+02  0.74470750000E+01 0.  1.
<mgrwt>
<rscale>  0 0.14931174E+02</rscale>
<asrwt>0</asrwt>
<pdfrwt beam="1">  1        2 0.98381129E+00 0.14931174E+02</pdfrwt>
<pdfrwt beam="2">  1       -2 0.99880457E+00 0.14931174E+02</pdfrwt>
<totfact>-0.16147173E-13</totfact>
</mgrwt>
</event>
<event>
 4    1 -0.5119137E-019  0.1495707E+02  0.7818608E-02  0.1869381E+00
          2   -1    0    0  501    0  0.00000000000E+00  0.00000000000E+00  0.11902813159E+03  0.11902813161E+03  0.25500000000E-02 0.  1.
         -2   -1    0    0    0  501 -0.00000000000E+00 -0.00000000000E+00 -0.46987283695E+00  0.46987975632E+00  0.25500000000E-02 0. -1.
         31    1    1    2    0    0  0.20688688877E-01  0.49761972502E+00  0.55518833746E+02  0.56018281659E+02  0.74470750000E+01 0. -1.
        -31    1    1    2    0    0 -0.20688688877E-01 -0.49761972502E+00  0.63039425003E+02  0.63479729710E+02  0.74470750000E+01 0.  1.
<mgrwt>
<rscale>  0 0.14957072E+02</rscale>
<asrwt>0</asrwt>
<pdfrwt beam="1">  1        2 0.98809317E+00 0.14957072E+02</pdfrwt>
<pdfrwt beam="2">  1       -2 0.99792903E+00 0.14957072E+02</pdfrwt>
<totfact>-0.13480569E-13</totfact>
</mgrwt>
</event>
<event>
 4    1 -0.5119137E-019  0.1494469E+02  0.7818608E-02  0.1869761E+00
         -2   -1    0    0    0  501 -0.00000000000E+00  0.00000000000E+00  0.11930380983E+03  0.11930380985E+03  0.25500000000E-02 0.  1.
          2   -1    0    0  501    0  0.00000000000E+00 -0.00000000000E+00 -0.46801107943E+00  0.46801802633E+00  0.25500000000E-02 0. -1.
         31    1    1    2    0    0  0.51108371619E+00  0.29521507244E+00  0.60774145453E+02  0.61231560817E+02  0.74470750000E+01 0.  1.
        -31    1    1    2    0    0 -0.51108371619E+00 -0.29521507244E+00  0.58061653294E+02  0.58540267062E+02  0.74470750000E+01 0.  1.
<mgrwt>
<rscale>  0 0.14944688E+02</rscale>
<asrwt>0</asrwt>
<pdfrwt beam="2">  1        2 0.99399952E+00 0.14944688E+02</pdfrwt>
<pdfrwt beam="1">  1       -2 0.99035727E+00 0.14944688E+02</pdfrwt>
<totfact>-0.12154783E-14</totfact>
</mgrwt>
</event>
<event>
 4    1 -0.5119137E-019  0.1491777E+02  0.7818608E-02  0.1870588E+00
         -2   -1    0    0    0  501 -0.00000000000E+00  0.00000000000E+00  0.12017144886E+03  0.12017144888E+03  0.25500000000E-02 0. -1.
          2   -1    0    0  501    0  0.00000000000E+00 -0.00000000000E+00 -0.46295944405E+00  0.46296646675E+00  0.25500000000E-02 0.  1.
         31    1    1    2    0    0 -0.38332326369E+00 -0.13250240061E+00  0.58986571449E+02  0.59456194218E+02  0.74470750000E+01 0.  1.
        -31    1    1    2    0    0  0.38332326369E+00  0.13250240061E+00  0.60721917965E+02  0.61178221133E+02  0.74470750000E+01 0.  1.
<mgrwt>
<rscale>  0 0.14917766E+02</rscale>
<asrwt>0</asrwt>
<pdfrwt beam="2">  1        2 0.98333953E+00 0.14917766E+02</pdfrwt>
<pdfrwt beam="1">  1       -2 0.99748975E+00 0.14917766E+02</pdfrwt>
<totfact>-0.32371802E-13</totfact>
</mgrwt>
</event>
<event>
 4    1 -0.5119137E-019  0.1490927E+02  0.7818608E-02  0.1870850E+00
          2   -1    0    0  501    0  0.00000000000E+00  0.00000000000E+00  0.11828448420E+03  0.11828448422E+03  0.25500000000E-02 0. -1.
         -2   -1    0    0    0  501 -0.00000000000E+00 -0.00000000000E+00 -0.46980937892E+00  0.46981629923E+00  0.25500000000E-02 0.  1.
         31    1    1    2    0    0 -0.13544867713E+00 -0.12556033889E+00  0.56675183821E+02  0.57162658257E+02  0.74470750000E+01 0.  1.
        -31    1    1    2    0    0  0.13544867713E+00  0.12556033889E+00  0.61139490996E+02  0.61591642266E+02  0.74470750000E+01 0. -1.
<mgrwt>
<rscale>  0 0.14909269E+02</rscale>
<asrwt>0</asrwt>
<pdfrwt beam="1">  1        2 0.98194364E+00 0.14909269E+02</pdfrwt>
<pdfrwt beam="2">  1       -2 0.99777013E+00 0.14909269E+02</pdfrwt>
<totfact>-0.37486721E-13</totfact>
</mgrwt>
</event>
<event>
 4    1  0.5119137E-019  0.1491577E+02  0.7818608E-02  0.1870650E+00
         -2   -1    0    0    0  501 -0.00000000000E+00  0.00000000000E+00  0.11837825326E+03  0.11837825329E+03  0.25500000000E-02 0.  1.
          2   -1    0    0  501    0  0.00000000000E+00 -0.00000000000E+00 -0.46984686923E+00  0.46985378899E+00  0.25500000000E-02 0. -1.
         31    1    1    2    0    0 -0.10124317579E+00 -0.13484069244E+00  0.61856836955E+02  0.62303736937E+02  0.74470750000E+01 0.  1.
        -31    1    1    2    0    0  0.10124317579E+00  0.13484069244E+00  0.56051569440E+02  0.56544370143E+02  0.74470750000E+01 0. -1.
<mgrwt>
<rscale>  0 0.14915772E+02</rscale>
<asrwt>0</asrwt>
<pdfrwt beam="2">  1        2 0.99785256E+00 0.14915772E+02</pdfrwt>
<pdfrwt beam="1">  1       -2 0.98271930E+00 0.14915772E+02</pdfrwt>
<totfact> 0.49100528E-13</totfact>
</mgrwt>
</event>
<event>
 4    1 -0.5119137E-019  0.1493165E+02  0.7818608E-02  0.1870161E+00
         -2   -1    0    0    0  501 -0.00000000000E+00  0.00000000000E+00  0.12011521410E+03  0.12011521413E+03  0.25500000000E-02 0.  1.
          2   -1    0    0  501    0  0.00000000000E+00 -0.00000000000E+00 -0.46403866142E+00  0.46404566779E+00  0.25500000000E-02 0. -1.
         31    1    1    2    0    0 -0.47088431357E+00  0.24050844800E+00  0.59785367870E+02  0.60249719616E+02  0.74470750000E+01 0.  1.
        -31    1    1    2    0    0  0.47088431357E+00 -0.24050844800E+00  0.59865807570E+02  0.60329540181E+02  0.74470750000E+01 0. -1.
<mgrwt>
<rscale>  0 0.14931648E+02</rscale>
<asrwt>0</asrwt>
<pdfrwt beam="2">  1        2 0.98562119E+00 0.14931648E+02</pdfrwt>
<pdfrwt beam="1">  1       -2 0.99703369E+00 0.14931648E+02</pdfrwt>
<totfact>-0.24992854E-13</totfact>
</mgrwt>
</event>
<event>
 4    1  0.5119137E-019  0.1494893E+02  0.7818608E-02  0.1869631E+00
         -2   -1    0    0    0  501 -0.00000000000E+00  0.00000000000E+00  0.11882751441E+03  0.11882751444E+03  0.25500000000E-02 0. -1.
          2   -1    0    0  501    0  0.00000000000E+00 -0.00000000000E+00 -0.47015386986E+00  0.47016078509E+00  0.25500000000E-02 0.  1.
         31    1    1    2    0    0 -0.41622178987E+00 -0.34811900071E+00  0.61876420467E+02  0.62325313984E+02  0.74470750000E+01 0. -1.
        -31    1    1    2    0    0  0.41622178987E+00  0.34811900071E+00  0.56480940078E+02  0.56972361243E+02  0.74470750000E+01 0.  1.
<mgrwt>
<rscale>  0 0.14948930E+02</rscale>
<asrwt>0</asrwt>
<pdfrwt beam="2">  1        2 0.99851691E+00 0.14948930E+02</pdfrwt>
<pdfrwt beam="1">  1       -2 0.98643665E+00 0.14948930E+02</pdfrwt>
<totfact> 0.13204317E-13</totfact>
</mgrwt>
</event>
<event>
 4    1 -0.5119137E-019  0.1493261E+02  0.7818608E-02  0.1870132E+00
          2   -1    0    0  501    0  0.00000000000E+00  0.00000000000E+00  0.11944014833E+03  0.11944014836E+03  0.25500000000E-02 0. -1.
         -2   -1    0    0    0  501 -0.00000000000E+00 -0.00000000000E+00 -0.46672173960E+00  0.46672870569E+00  0.25500000000E-02 0.  1.
         31    1    1    2    0    0 -0.38596644188E+00 -0.32971209994E+00  0.58116288793E+02  0.58593682503E+02  0.74470750000E+01 0. -1.
        -31    1    1    2    0    0  0.38596644188E+00  0.32971209994E+00  0.60857137796E+02  0.61313194558E+02  0.74470750000E+01 0. -1.
<mgrwt>
<rscale>  0 0.14932613E+02</rscale>
<asrwt>0</asrwt>
<pdfrwt beam="1">  1        2 0.99147395E+00 0.14932613E+02</pdfrwt>
<pdfrwt beam="2">  1       -2 0.99127624E+00 0.14932613E+02</pdfrwt>
<totfact>-0.70332451E-14</totfact>
</mgrwt>
</event>
<event>
 4    1  0.5119137E-019  0.1493627E+02  0.7818608E-02  0.1870019E+00
         -2   -1    0    0    0  501 -0.00000000000E+00  0.00000000000E+00  0.11893572003E+03  0.11893572006E+03  0.25500000000E-02 0. -1.
          2   -1    0    0  501    0  0.00000000000E+00 -0.00000000000E+00 -0.46893094705E+00  0.46893788032E+00  0.25500000000E-02 0.  1.
         31    1    1    2    0    0 -0.38977389040E+00  0.13255656176E+00  0.56193105483E+02  0.56685919988E+02  0.74470750000E+01 0.  1.
        -31    1    1    2    0    0  0.38977389040E+00 -0.13255656176E+00  0.62273683604E+02  0.62718737954E+02  0.74470750000E+01 0. -1.
<mgrwt>
<rscale>  0 0.14936272E+02</rscale>
<asrwt>0</asrwt>
<pdfrwt beam="2">  1        2 0.99593346E+00 0.14936272E+02</pdfrwt>
<pdfrwt beam="1">  1       -2 0.98732126E+00 0.14936272E+02</pdfrwt>
<totfact> 0.19087276E-13</totfact>
</mgrwt>
</event>
<event>
 4    1 -0.5119137E-019  0.1496304E+02  0.7818608E-02  0.1869199E+00
         -2   -1    0    0    0  501 -0.00000000000E+00  0.00000000000E+00  0.11975300833E+03  0.11975300836E+03  0.25500000000E-02 0. -1.
          2   -1    0    0  501    0  0.00000000000E+00 -0.00000000000E+00 -0.46740109948E+00  0.46740805545E+00  0.25500000000E-02 0.  1.
         31    1    1    2    0    0  0.26143507263E+00  0.35841591819E+00  0.55116514667E+02  0.55619114748E+02  0.74470750000E+01 0.  1.
        -31    1    1    2    0    0 -0.26143507263E+00 -0.35841591819E+00  0.64169092562E+02  0.64601301663E+02  0.74470750000E+01 0. -1.
<mgrwt>
<rscale>  0 0.14963035E+02</rscale>
<asrwt>0</asrwt>
<pdfrwt beam="2">  1        2 0.99272360E+00 0.14963035E+02</pdfrwt>
<pdfrwt beam="1">  1       -2 0.99406652E+00 0.14963035E+02</pdfrwt>
<totfact>-0.14117737E-13</totfact>
</mgrwt>
</event>
<event>
 4    1 -0.5119137E-019  0.1496769E+02  0.7818608E-02  0.1869056E+00
         -2   -1    0    0    0  501 -0.00000000000E+00  0.00000000000E+00  0.11964030338E+03  0.11964030341E+03  0.25500000000E-02 0.  1.
          2   -1    0    0  501    0  0.00000000000E+00 -0.00000000000E+00 -0.46813239996E+00  0.46813934506E+00  0.25500000000E-02 0. -1.
         31    1    1    2    0    0  0.48759386840E+00  0.17026738241E+00  0.63849333496E+02  0.64284236424E+02  0.74470750000E+01 0.  1.
        -31    1    1    2    0    0 -0.48759386840E+00 -0.17026738241E+00  0.55322837484E+02  0.55824206327E+02  0.74470750000E+01 0. -1.
<mgrwt>
<rscale>  0 0.14967688E+02</rscale>
<asrwt>0</asrwt>
<pdfrwt beam="2">  1        2 0.99426711E+00 0.14967688E+02</pdfrwt>
<pdfrwt beam="1">  1       -2 0.99314064E+00 0.14967688E+02</pdfrwt>
<totfact>-0.11354769E-13</totfact>
</mgrwt>
</event>
<event>
 4    1  0.5119137E-019  0.1492571E+02  0.7818608E-02  0.1870344E+00
          2   -1    0    0  501    0  0.00000000000E+00  0.00000000000E+00  0.12003756329E+03  0.12003756332E+03  0.25500000000E-02 0.  1.
         -2   -1    0    0    0  501 -0.00000000000E+00 -0.00000000000E+00 -0.46396961723E+00  0.46397662464E+00  0.25500000000E-02 0. -1.
         31    1    1    2    0    0  0.37074912752E+00  0.21834695457E+00  0.57978823413E+02  0.58456719209E+02  0.74470750000E+01 0. -1.
        -31    1    1    2    0    0 -0.37074912752E+00 -0.21834695457E+00  0.61594770264E+02  0.62044820736E+02  0.74470750000E+01 0. -1.
<mgrwt>
<rscale>  0 0.14925710E+02</rscale>
<asrwt>0</asrwt>
<pdfrwt beam="1">  1        2 0.99639104E+00 0.14925710E+02</pdfrwt>
<pdfrwt beam="2">  1       -2 0.98547266E+00 0.14925710E+02</pdfrwt>
<totfact> 0.35106065E-13</totfact>
</mgrwt>
</event>
<event>
 4    1 -0.5119137E-019  0.1500542E+02  0.7818608E-02  0.1867903E+00
          2   -1    0    0  501    0  0.00000000000E+00  0.00000000000E+00  0.11968581011E+03  0.11968581013E+03  0.25500000000E-02 0. -1.
         -2   -1    0    0    0  501 -0.00000000000E+00 -0.00000000000E+00 -0.47031647705E+00  0.47032338990E+00  0.25500000000E-02 0.  1.
         31    1    1    2    0    0 -0.45878143661E-01  0.58916692809E+00  0.54045679915E+02  0.54559542391E+02  0.74470750000E+01 0.  1.
        -31    1    1    2    0    0  0.45878143661E-01 -0.58916692809E+00  0.65169813713E+02  0.65596591131E+02  0.74470750000E+01 0.  1.
<mgrwt>
<rscale>  0 0.15005416E+02</rscale>
<asrwt>0</asrwt>
<pdfrwt beam="1">  1        2 0.99353498E+00 0.15005416E+02</pdfrwt>
<pdfrwt beam="2">  1       -2 0.99888913E+00 0.15005416E+02</pdfrwt>
<totfact>-0.48486163E-14</totfact>
</mgrwt>
</event>
<event>
 4    1  0.5119137E-019  0.1489933E+02  0.7818608E-02  0.1871156E+00
          2   -1    0    0  501    0  0.00000000000E+00  0.00000000000E+00  0.11997937827E+03  0.11997937830E+03  0.25500000000E-02 0. -1.
         -2   -1    0    0    0  501 -0.00000000000E+00 -0.00000000000E+00 -0.46255515888E+00  0.46256218772E+00  0.25500000000E-02 0.  1.
         31    1    1    2    0    0  0.12188853309E+00 -0.13888520873E+00  0.59220171875E+02  0.59686864793E+02  0.74470750000E+01 0.  1.
        -31    1    1    2    0    0 -0.12188853309E+00  0.13888520873E+00  0.60296651238E+02  0.60755075693E+02  0.74470750000E+01 0. -1.
<mgrwt>
<rscale>  0 0.14899330E+02</rscale>
<asrwt>0</asrwt>
<pdfrwt beam="1">  1        2 0.99589823E+00 0.14899330E+02</pdfrwt>
<pdfrwt beam="2">  1       -2 0.98247809E+00 0.14899330E+02</pdfrwt>
<totfact> 0.79938654E-13</totfact>
</mgrwt>
</event>
<event>
 4    1 -0.5119137E-019  0.1498262E+02  0.7818608E-02  0.1868599E+00
         -2   -1    0    0    0  501 -0.00000000000E+00  0.00000000000E+00  0.12012972990E+03  0.12012972993E+03  0.25500000000E-02 0. -1.
          2   -1    0    0  501    0  0.00000000000E+00 -0.00000000000E+00 -0.46715576893E+00  0.46716272854E+00  0.25500000000E-02 0.  1.
         31    1    1    2    0    0  0.55234035949E+00  0.52494670737E+00  0.57552623288E+02  0.58037436387E+02  0.74470750000E+01 0.  1.
        -31    1    1    2    0    0 -0.55234035949E+00 -0.52494670737E+00  0.62109950846E+02  0.62559456272E+02  0.74470750000E+01 0. -1.
<mgrwt>
<rscale>  0 0.14982619E+02</rscale>
<asrwt>0</asrwt>
<pdfrwt beam="2">  1        2 0.99221666E+00 0.14982619E+02</pdfrwt>
<pdfrwt beam="1">  1       -2 0.99717949E+00 0.14982619E+02</pdfrwt>
<totfact>-0.11457150E-13</totfact>
</mgrwt>
</event>
<event>
 4    1  0.5119137E-019  0.1490287E+02  0.7818608E-02  0.1871047E+00
         -2   -1    0    0    0  501 -0.00000000000E+00  0.00000000000E+00  0.11822809727E+03  0.11822809729E+03  0.25500000000E-02 0. -1.
          2   -1    0    0  501    0  0.00000000000E+00 -0.00000000000E+00 -0.46963010618E+00  0.46963702913E+00  0.25500000000E-02 0.  1.
         31    1    1    2    0    0 -0.12524881796E-01 -0.21588501968E+00  0.59953652491E+02  0.60414784087E+02  0.74470750000E+01 0. -1.
        -31    1    1    2    0    0  0.12524881796E-01  0.21588501968E+00  0.57804814669E+02  0.58282950236E+02  0.74470750000E+01 0.  1.
<mgrwt>
<rscale>  0 0.14902870E+02</rscale>
<asrwt>0</asrwt>
<pdfrwt beam="2">  1        2 0.99738902E+00 0.14902870E+02</pdfrwt>
<pdfrwt beam="1">  1       -2 0.98147592E+00 0.14902870E+02</pdfrwt>
<totfact> 0.72843563E-13</totfact>
</mgrwt>
</event>
<event>
 4    1 -0.5119137E-019  0.1493347E+02  0.7818608E-02  0.1870106E+00
          2   -1    0    0  501    0  0.00000000000E+00  0.00000000000E+00  0.11897694019E+03  0.11897694022E+03  0.25500000000E-02 0. -1.
         -2   -1    0    0    0  501 -0.00000000000E+00 -0.00000000000E+00 -0.46859252817E+00  0.46859946645E+00  0.25500000000E-02 0.  1.
         31    1    1    2    0    0 -0.51407884790E+00 -0.16244033024E+00  0.59656589219E+02  0.60122027803E+02  0.74470750000E+01 0. -1.
        -31    1    1    2    0    0  0.51407884790E+00  0.16244033024E+00  0.58851758444E+02  0.59323511881E+02  0.74470750000E+01 0. -1.
<mgrwt>
<rscale>  0 0.14933469E+02</rscale>
<asrwt>0</asrwt>
<pdfrwt beam="1">  1        2 0.98765929E+00 0.14933469E+02</pdfrwt>
<pdfrwt beam="2">  1       -2 0.99521890E+00 0.14933469E+02</pdfrwt>
<totfact>-0.23177691E-13</totfact>
</mgrwt>
</event>
<event>
 4    1 -0.5119137E-019  0.1490179E+02  0.7818608E-02  0.1871080E+00
          2   -1    0    0  501    0  0.00000000000E+00  0.00000000000E+00  0.11869594558E+03  0.11869594561E+03  0.25500000000E-02 0. -1.
         -2   -1    0    0    0  501 -0.00000000000E+00 -0.00000000000E+00 -0.46771135855E+00  0.46771830990E+00  0.25500000000E-02 0.  1.
         31    1    1    2    0    0 -0.37553916940E-01 -0.14813716767E+00  0.57648822501E+02  0.58128039850E+02  0.74470750000E+01 0.  1.
        -31    1    1    2    0    0  0.37553916940E-01  0.14813716767E+00  0.60579411722E+02  0.61035624069E+02  0.74470750000E+01 0. -1.
<mgrwt>
<rscale>  0 0.14901793E+02</rscale>
<asrwt>0</asrwt>
<pdfrwt beam="1">  1        2 0.98532855E+00 0.14901793E+02</pdfrwt>
<pdfrwt beam="2">  1       -2 0.99334558E+00 0.14901793E+02</pdfrwt>
<totfact>-0.30191887E-13</totfact>
</mgrwt>
</event>
<event>
 4    1  0.5119137E-019  0.1490096E+02  0.7818608E-02  0.1871106E+00
          2   -1    0    0  501    0  0.00000000000E+00  0.00000000000E+00  0.12004344872E+03  0.12004344875E+03  0.25500000000E-02 0.  1.
         -2   -1    0    0    0  501 -0.00000000000E+00 -0.00000000000E+00 -0.46240938273E+00  0.46241641378E+00  0.25500000000E-02 0. -1.
         31    1    1    2    0    0 -0.17673351138E+00 -0.12036282970E-01  0.60915084277E+02  0.61368866685E+02  0.74470750000E+01 0.  1.
        -31    1    1    2    0    0  0.17673351138E+00  0.12036282970E-01  0.58665955058E+02  0.59136998475E+02  0.74470750000E+01 0.  1.
<mgrwt>
<rscale>  0 0.14900959E+02</rscale>
<asrwt>0</asrwt>
<pdfrwt beam="1">  1        2 0.99642681E+00 0.14900959E+02</pdfrwt>
<pdfrwt beam="2">  1       -2 0.98217167E+00 0.14900959E+02</pdfrwt>
<totfact> 0.78391007E-13</totfact>
</mgrwt>
</event>
<event>
 4    1  0.5119137E-019  0.1492805E+02  0.7818608E-02  0.1870272E+00
         -2   -1    0    0    0  501 -0.00000000000E+00  0.00000000000E+00  0.11896364173E+03  0.11896364176E+03  0.25500000000E-02 0. -1.
          2   -1    0    0  501    0  0.00000000000E+00 -0.00000000000E+00 -0.46830486509E+00  0.46831180763E+00  0.25500000000E-02 0.  1.
         31    1    1    2    0    0 -0.25791192278E+00 -0.23979223149E+00  0.62118094288E+02  0.62563892006E+02  0.74470750000E+01 0.  1.
        -31    1    1    2    0    0  0.25791192278E+00  0.23979223149E+00  0.56377242576E+02  0.56868061558E+02  0.74470750000E+01 0.  1.
<mgrwt>
<rscale>  0 0.14928050E+02</rscale>
<asrwt>0</asrwt>
<pdfrwt beam="2">  1        2 0.99460992E+00 0.14928050E+02</pdfrwt>
<pdfrwt beam="1">  1       -2 0.98754695E+00 0.14928050E+02</pdfrwt>
<totfact> 0.19956645E-13</totfact>
</mgrwt>
</event>
<event>
 4    1 -0.5119137E-019  0.1494460E+02  0.7818608E-02  0.1869764E+00
          2   -1    0    0  501    0  0.00000000000E+00  0.00000000000E+00  0.11938176248E+03  0.11938176251E+03  0.25500000000E-02 0. -1.
         -2   -1    0    0    0  501 -0.00000000000E+00 -0.00000000000E+00 -0.46770017064E+00  0.46770712216E+00  0.25500000000E-02 0.  1.
         31    1    1    2    0    0  0.44838754382E-01 -0.14511445789E+00  0.54690307931E+02  0.55195215158E+02  0.74470750000E+01 0.  1.
        -31    1    1    2    0    0 -0.44838754382E-01  0.14511445789E+00  0.64223754383E+02  0.64654254476E+02  0.74470750000E+01 0. -1.
<mgrwt>
<rscale>  0 0.14944603E+02</rscale>
<asrwt>0</asrwt>
<pdfrwt beam="1">  1        2 0.99099927E+00 0.14944603E+02</pdfrwt>
<pdfrwt beam="2">  1       -2 0.99334431E+00 0.14944603E+02</pdfrwt>
<totfact>-0.14982048E-13</totfact>
</mgrwt>
</event>
<event>
 4    1 -0.5119137E-019  0.1496265E+02  0.7818608E-02  0.1869210E+00
         -2   -1    0    0    0  501 -0.00000000000E+00  0.00000000000E+00  0.11995948233E+03  0.11995948236E+03  0.25500000000E-02 0.  1.
          2   -1    0    0  501    0  0.00000000000E+00 -0.00000000000E+00 -0.46657261838E+00  0.46657958669E+00  0.25500000000E-02 0. -1.
         31    1    1    2    0    0  0.51424392010E+00 -0.27982201195E-02  0.55747663338E+02  0.56245225116E+02  0.74470750000E+01 0. -1.
        -31    1    1    2    0    0 -0.51424392010E+00  0.27982201195E-02  0.63745246378E+02  0.64180836832E+02  0.74470750000E+01 0.  1.
<mgrwt>
<rscale>  0 0.14962651E+02</rscale>
<asrwt>0</asrwt>
<pdfrwt beam="2">  1        2 0.99097745E+00 0.14962651E+02</pdfrwt>
<pdfrwt beam="1">  1       -2 0.99576694E+00 0.14962651E+02</pdfrwt>
<totfact>-0.15719916E-13</totfact>
</mgrwt>
</event>
<event>
 4    1 -0.5119137E-019  0.1490806E+02  0.7818608E-02  0.1870887E+00
          2   -1    0    0  501    0  0.00000000000E+00  0.00000000000E+00  0.11875430945E+03  0.11875430948E+03  0.25500000000E-02 0. -1.
         -2   -1    0    0    0  501 -0.00000000000E+00 -0.00000000000E+00 -0.46787501571E+00  0.46788196463E+00  0.25500000000E-02 0.  1.
         31    1    1    2    0    0 -0.28035432459E+00 -0.76026130126E-01  0.58032627977E+02  0.58509223328E+02  0.74470750000E+01 0. -1.
        -31    1    1    2    0    0  0.28035432459E+00  0.76026130126E-01  0.60253806461E+02  0.60712968117E+02  0.74470750000E+01 0.  1.
<mgrwt>
<rscale>  0 0.14908064E+02</rscale>
<asrwt>0</asrwt>
<pdfrwt beam="1">  1        2 0.98581249E+00 0.14908064E+02</pdfrwt>
<pdfrwt beam="2">  1       -2 0.99369371E+00 0.14908064E+02</pdfrwt>
<totfact>-0.29126220E-13</totfact>
</mgrwt>
</event>
<event>
 4    1 -0.5119137E-019  0.1491195E+02  0.7818608E-02  0.1870767E+00
         -2   -1    0    0    0  501 -0.00000000000E+00  0.00000000000E+00  0.12024836669E+03  0.12024836672E+03  0.25500000000E-02 0.  1.
          2   -1    0    0  501    0  0.00000000000E+00 -0.00000000000E+00 -0.46230267646E+00  0.46230970913E+00  0.25500000000E-02 0. -1.
         31    1    1    2    0    0  0.75947750925E-01  0.15777465975E+00  0.62478092025E+02  0.62920597343E+02  0.74470750000E+01 0.  1.
        -31    1    1    2    0    0 -0.75947750925E-01 -0.15777465975E+00  0.57307971989E+02  0.57790079084E+02  0.74470750000E+01 0. -1.
<mgrwt>
<rscale>  0 0.14911951E+02</rscale>
<asrwt>0</asrwt>
<pdfrwt beam="2">  1        2 0.98195231E+00 0.14911951E+02</pdfrwt>
<pdfrwt beam="1">  1       -2 0.99812033E+00 0.14911951E+02</pdfrwt>
<totfact>-0.32662738E-13</totfact>
</mgrwt>
</event>
<event>
 4    1 -0.5119137E-019  0.1490594E+02  0.7818608E-02  0.1870952E+00
          2   -1    0    0  501    0  0.00000000000E+00  0.00000000000E+00  0.11888303517E+03  0.11888303520E+03  0.25500000000E-02 0. -1.
         -2   -1    0    0    0  501 -0.00000000000E+00 -0.00000000000E+00 -0.46723521183E+00  0.46724217026E+00  0.25500000000E-02 0.  1.
         31    1    1    2    0    0  0.23183422219E+00 -0.16208976484E+00  0.58500263396E+02  0.58973042686E+02  0.74470750000E+01 0.  1.
        -31    1    1    2    0    0 -0.23183422219E+00  0.16208976484E+00  0.59915536562E+02  0.60377234681E+02  0.74470750000E+01 0. -1.
<mgrwt>
<rscale>  0 0.14905939E+02</rscale>
<asrwt>0</asrwt>
<pdfrwt beam="1">  1        2 0.98687160E+00 0.14905939E+02</pdfrwt>
<pdfrwt beam="2">  1       -2 0.99234442E+00 0.14905939E+02</pdfrwt>
<totfact>-0.19352531E-13</totfact>
</mgrwt>
</event>
<event>
 4    1  0.5119137E-019  0.1492974E+02  0.7818608E-02  0.1870220E+00
          2   -1    0    0  501    0  0.00000000000E+00  0.00000000000E+00  0.12028834792E+03  0.12028834794E+03  0.25500000000E-02 0.  1.
         -2   -1    0    0    0  501 -0.00000000000E+00 -0.00000000000E+00 -0.46325244818E+00  0.46325946643E+00  0.25500000000E-02 0. -1.
         31    1    1    2    0    0  0.17183425520E+00 -0.25506047157E+00  0.56570062896E+02  0.57058965334E+02  0.74470750000E+01 0.  1.
        -31    1    1    2    0    0 -0.17183425520E+00  0.25506047157E+00  0.63255032572E+02  0.63692642076E+02  0.74470750000E+01 0.  1.
<mgrwt>
<rscale>  0 0.14929742E+02</rscale>
<asrwt>0</asrwt>
<pdfrwt beam="1">  1        2 0.99845878E+00 0.14929742E+02</pdfrwt>
<pdfrwt beam="2">  1       -2 0.98396315E+00 0.14929742E+02</pdfrwt>
<totfact> 0.28359666E-13</totfact>
</mgrwt>
</event>
<event>
 4    1 -0.5119137E-019  0.1498741E+02  0.7818608E-02  0.1868453E+00
          2   -1    0    0  501    0  0.00000000000E+00  0.00000000000E+00  0.11973126356E+03  0.11973126359E+03  0.25500000000E-02 0.  1.
         -2   -1    0    0    0  501 -0.00000000000E+00 -0.00000000000E+00 -0.46901037080E+00  0.46901730290E+00  0.25500000000E-02 0. -1.
         31    1    1    2    0    0 -0.74702449998E-01 -0.46570471566E+00  0.54108117655E+02  0.54620232365E+02  0.74470750000E+01 0. -1.
        -31    1    1    2    0    0  0.74702449998E-01  0.46570471566E+00  0.65154135535E+02  0.65580048526E+02  0.74470750000E+01 0.  1.
<mgrwt>
<rscale>  0 0.14987411E+02</rscale>
<asrwt>0</asrwt>
<pdfrwt beam="1">  1        2 0.99390002E+00 0.14987411E+02</pdfrwt>
<pdfrwt beam="2">  1       -2 0.99612748E+00 0.14987411E+02</pdfrwt>
<totfact>-0.12180289E-13</totfact>
</mgrwt>
</event>
<event>
 4    1 -0.5119137E-019  0.1496175E+02  0.7818608E-02  0.1869238E+00
         -2   -1    0    0    0  501 -0.00000000000E+00  0.00000000000E+00  0.12037411404E+03  0.12037411406E+03  0.25500000000E-02 0. -1.
          2   -1    0    0  501    0  0.00000000000E+00 -0.00000000000E+00 -0.46490977972E+00  0.46491677296E+00  0.25500000000E-02 0.  1.
         31    1    1    2    0    0 -0.21597845032E+00 -0.51187372067E+00  0.56379522246E+02  0.56871944895E+02  0.74470750000E+01 0.  1.
        -31    1    1    2    0    0  0.21597845032E+00  0.51187372067E+00  0.63529682011E+02  0.63967085942E+02  0.74470750000E+01 0. -1.
<mgrwt>
<rscale>  0 0.14961755E+02</rscale>
<asrwt>0</asrwt>
<pdfrwt beam="2">  1        2 0.98747248E+00 0.14961755E+02</pdfrwt>
<pdfrwt beam="1">  1       -2 0.99918165E+00 0.14961755E+02</pdfrwt>
<totfact>-0.64606119E-14</totfact>
</mgrwt>
</event>
<event>
 4    1 -0.5119137E-019  0.1490300E+02  0.7818608E-02  0.1871043E+00
          2   -1    0    0  501    0  0.00000000000E+00  0.00000000000E+00  0.11885961463E+03  0.11885961466E+03  0.25500000000E-02 0. -1.
         -2   -1    0    0    0  501 -0.00000000000E+00 -0.00000000000E+00 -0.46714281203E+00  0.46714977184E+00  0.25500000000E-02 0.  1.
         31    1    1    2    0    0 -0.64802642729E-01 -0.15179864719E+00  0.60770629423E+02  0.61225448702E+02  0.74470750000E+01 0. -1.
        -31    1    1    2    0    0  0.64802642729E-01  0.15179864719E+00  0.57621842398E+02  0.58101315730E+02  0.74470750000E+01 0.  1.
<mgrwt>
<rscale>  0 0.14902997E+02</rscale>
<asrwt>0</asrwt>
<pdfrwt beam="1">  1        2 0.98667718E+00 0.14902997E+02</pdfrwt>
<pdfrwt beam="2">  1       -2 0.99214818E+00 0.14902997E+02</pdfrwt>
<totfact>-0.18686320E-13</totfact>
</mgrwt>
</event>
<event>
 4    1 -0.5119137E-019  0.1491159E+02  0.7818608E-02  0.1870778E+00
          2   -1    0    0  501    0  0.00000000000E+00  0.00000000000E+00  0.11823290333E+03  0.11823290336E+03  0.25500000000E-02 0. -1.
         -2   -1    0    0    0  501 -0.00000000000E+00 -0.00000000000E+00 -0.47016072498E+00  0.47016764011E+00  0.25500000000E-02 0.  1.
         31    1    1    2    0    0  0.34773383744E+00  0.91028814035E-01  0.58663586115E+02  0.59135475537E+02  0.74470750000E+01 0.  1.
        -31    1    1    2    0    0 -0.34773383744E+00 -0.91028814035E-01  0.59099156493E+02  0.59567595464E+02  0.74470750000E+01 0. -1.
<mgrwt>
<rscale>  0 0.14911590E+02</rscale>
<asrwt>0</asrwt>
<pdfrwt beam="1">  1        2 0.98152004E+00 0.14911590E+02</pdfrwt>
<pdfrwt beam="2">  1       -2 0.99851162E+00 0.14911590E+02</pdfrwt>
<totfact>-0.28842849E-13</totfact>
</mgrwt>
</event>
<event>
 4    1 -0.5119137E-019  0.1490816E+02  0.7818608E-02  0.1870884E+00
          2   -1    0    0  501    0  0.00000000000E+00  0.00000000000E+00  0.11809091597E+03  0.11809091599E+03  0.25500000000E-02 0. -1.
         -2   -1    0    0    0  501 -0.00000000000E+00 -0.00000000000E+00 -0.47050937299E+00  0.47051628300E+00  0.25500000000E-02 0.  1.
         31    1    1    2    0    0 -0.28114615437E+00  0.15055353718E+00  0.59220254672E+02  0.59687512923E+02  0.74470750000E+01 0. -1.
        -31    1    1    2    0    0  0.28114615437E+00 -0.15055353718E+00  0.58400151921E+02  0.58873919353E+02  0.74470750000E+01 0. -1.
<mgrwt>
<rscale>  0 0.14908158E+02</rscale>
<asrwt>0</asrwt>
<pdfrwt beam="1">  1        2 0.98034888E+00 0.14908158E+02</pdfrwt>
<pdfrwt beam="2">  1       -2 0.99924436E+00 0.14908158E+02</pdfrwt>
<totfact>-0.18934188E-13</totfact>
</mgrwt>
</event>
<event>
 4    1 -0.5119137E-019  0.1492513E+02  0.7818608E-02  0.1870362E+00
         -2   -1    0    0    0  501 -0.00000000000E+00  0.00000000000E+00  0.11989472142E+03  0.11989472145E+03  0.25500000000E-02 0.  1.
          2   -1    0    0  501    0  0.00000000000E+00 -0.00000000000E+00 -0.46448653527E+00  0.46449353489E+00  0.25500000000E-02 0. -1.
         31    1    1    2    0    0  0.24034330876E+00  0.40826753620E+00  0.60366935680E+02  0.60826394737E+02  0.74470750000E+01 0. -1.
        -31    1    1    2    0    0 -0.24034330876E+00 -0.40826753620E+00  0.59063299204E+02  0.59532820244E+02  0.74470750000E+01 0.  1.
<mgrwt>
<rscale>  0 0.14925134E+02</rscale>
<asrwt>0</asrwt>
<pdfrwt beam="2">  1        2 0.98656181E+00 0.14925134E+02</pdfrwt>
<pdfrwt beam="1">  1       -2 0.99521420E+00 0.14925134E+02</pdfrwt>
<totfact>-0.27050567E-13</totfact>
</mgrwt>
</event>
<event>
 4    1 -0.5119137E-019  0.1492213E+02  0.7818608E-02  0.1870454E+00
          2   -1    0    0  501    0  0.00000000000E+00  0.00000000000E+00  0.11864609764E+03  0.11864609767E+03  0.25500000000E-02 0. -1.
         -2   -1    0    0    0  501 -0.00000000000E+00 -0.00000000000E+00 -0.46918598468E+00  0.46919291419E+00  0.25500000000E-02 0.  1.
         31    1    1    2    0    0 -0.18610073920E+00  0.73822267422E-01  0.55811841740E+02  0.56306844057E+02  0.74470750000E+01 0.  1.
        -31    1    1    2    0    0  0.18610073920E+00 -0.73822267422E-01  0.62365069914E+02  0.62808446524E+02  0.74470750000E+01 0. -1.
<mgrwt>
<rscale>  0 0.14922131E+02</rscale>
<asrwt>0</asrwt>
<pdfrwt beam="1">  1        2 0.98492856E+00 0.14922131E+02</pdfrwt>
<pdfrwt beam="2">  1       -2 0.99646343E+00 0.14922131E+02</pdfrwt>
<totfact>-0.31035688E-13</totfact>
</mgrwt>
</event>
<event>
 4    1 -0.5119137E-019  0.1492258E+02  0.7818608E-02  0.1870440E+00
          2   -1    0    0  501    0  0.00000000000E+00  0.00000000000E+00  0.11861553895E+03  0.11861553897E+03  0.25500000000E-02 0. -1.
         -2   -1    0    0    0  501 -0.00000000000E+00 -0.00000000000E+00 -0.46933531815E+00  0.46934224545E+00  0.25500000000E-02 0.  1.
         31    1    1    2    0    0  0.96302986365E-01 -0.28918851648E+00  0.56319703254E+02  0.56810745506E+02  0.74470750000E+01 0.  1.
        -31    1    1    2    0    0 -0.96302986365E-01  0.28918851648E+00  0.61826500374E+02  0.62274135714E+02  0.74470750000E+01 0. -1.
<mgrwt>
<rscale>  0 0.14922584E+02</rscale>
<asrwt>0</asrwt>
<pdfrwt beam="1">  1        2 0.98467712E+00 0.14922584E+02</pdfrwt>
<pdfrwt beam="2">  1       -2 0.99677832E+00 0.14922584E+02</pdfrwt>
<totfact>-0.30648212E-13</totfact>
</mgrwt>
</event>
<event>
 4    1  0.5119137E-019  0.1491292E+02  0.7818608E-02  0.1870737E+00
         -2   -1    0    0    0  501 -0.00000000000E+00  0.00000000000E+00  0.11835088107E+03  0.11835088110E+03  0.25500000000E-02 0. -1.
          2   -1    0    0  501    0  0.00000000000E+00 -0.00000000000E+00 -0.46977592448E+00  0.46978284528E+00  0.25500000000E-02 0.  1.
         31    1    1    2    0    0  0.71407082507E-01  0.20282850461E+00  0.56502366984E+02  0.56991426015E+02  0.74470750000E+01 0.  1.
        -31    1    1    2    0    0 -0.71407082507E-01 -0.20282850461E+00  0.61378738167E+02  0.61829237933E+02  0.74470750000E+01 0. -1.
<mgrwt>
<rscale>  0 0.14912922E+02</rscale>
<asrwt>0</asrwt>
<pdfrwt beam="2">  1        2 0.99770158E+00 0.14912922E+02</pdfrwt>
<pdfrwt beam="1">  1       -2 0.98249238E+00 0.14912922E+02</pdfrwt>
<totfact> 0.54219659E-13</totfact>
</mgrwt>
</event>
<event>
 4    1 -0.5119137E-019  0.1494051E+02  0.7818608E-02  0.1869889E+00
          2   -1    0    0  501    0  0.00000000000E+00  0.00000000000E+00  0.11938560102E+03  0.11938560105E+03  0.25500000000E-02 0. -1.
         -2   -1    0    0    0  501 -0.00000000000E+00 -0.00000000000E+00 -0.46742905647E+00  0.46743601202E+00  0.25500000000E-02 0.  1.
         31    1    1    2    0    0  0.36780085756E+00  0.43418756948E+00  0.58269365776E+02  0.58746078255E+02  0.74470750000E+01 0.  1.
        -31    1    1    2    0    0 -0.36780085756E+00 -0.43418756948E+00  0.60648806192E+02  0.61106958809E+02  0.74470750000E+01 0.  1.
<mgrwt>
<rscale>  0 0.14940511E+02</rscale>
<asrwt>0</asrwt>
<pdfrwt beam="1">  1        2 0.99102877E+00 0.14940511E+02</pdfrwt>
<pdfrwt beam="2">  1       -2 0.99277087E+00 0.14940511E+02</pdfrwt>
<totfact>-0.13520754E-13</totfact>
</mgrwt>
</event>
<event>
 4    1 -0.5119137E-019  0.1490835E+02  0.7818608E-02  0.1870878E+00
         -2   -1    0    0    0  501 -0.00000000000E+00  0.00000000000E+00  0.11961482470E+03  0.11961482473E+03  0.25500000000E-02 0.  1.
          2   -1    0    0  501    0  0.00000000000E+00 -0.00000000000E+00 -0.46452719909E+00  0.46453419809E+00  0.25500000000E-02 0. -1.
         31    1    1    2    0    0  0.92606936951E-01  0.30269351737E+00  0.60179819890E+02  0.60639672224E+02  0.74470750000E+01 0.  1.
        -31    1    1    2    0    0 -0.92606936951E-01 -0.30269351737E+00  0.58970477615E+02  0.59439686705E+02  0.74470750000E+01 0. -1.
<mgrwt>
<rscale>  0 0.14908355E+02</rscale>
<asrwt>0</asrwt>
<pdfrwt beam="2">  1        2 0.98663894E+00 0.14908355E+02</pdfrwt>
<pdfrwt beam="1">  1       -2 0.99290015E+00 0.14908355E+02</pdfrwt>
<totfact>-0.22931471E-13</totfact>
</mgrwt>
</event>
<event>
 4    1 -0.5119137E-019  0.1494620E+02  0.7818608E-02  0.1869715E+00
         -2   -1    0    0    0  501 -0.00000000000E+00  0.00000000000E+00  0.11951418296E+03  0.11951418298E+03  0.25500000000E-02 0. -1.
          2   -1    0    0  501    0  0.00000000000E+00 -0.00000000000E+00 -0.46728211378E+00  0.46728907152E+00  0.25500000000E-02 0.  1.
         31    1    1    2    0    0 -0.34310935252E+00 -0.51858118398E+00  0.59194169736E+02  0.59664020207E+02  0.74470750000E+01 0.  1.
        -31    1    1    2    0    0  0.34310935252E+00  0.51858118398E+00  0.59852731106E+02  0.60317451847E+02  0.74470750000E+01 0.  1.
<mgrwt>
<rscale>  0 0.14946205E+02</rscale>
<asrwt>0</asrwt>
<pdfrwt beam="2">  1        2 0.99246416E+00 0.14946205E+02</pdfrwt>
<pdfrwt beam="1">  1       -2 0.99209076E+00 0.14946205E+02</pdfrwt>
<totfact>-0.10003304E-13</totfact>
</mgrwt>
</event>
<event>
 4    1  0.5119137E-019  0.1489805E+02  0.7818608E-02  0.1871195E+00
          2   -1    0    0  501    0  0.00000000000E+00  0.00000000000E+00  0.12004037375E+03  0.12004037378E+03  0.25500000000E-02 0.  1.
         -2   -1    0    0    0  501 -0.00000000000E+00 -0.00000000000E+00 -0.46224091768E+00  0.46224795129E+00  0.25500000000E-02 0. -1.
         31    1    1    2    0    0  0.38184057917E-01  0.16526643762E+00  0.59929364591E+02  0.60390532679E+02  0.74470750000E+01 0. -1.
        -31    1    1    2    0    0 -0.38184057917E-01 -0.16526643762E+00  0.59648768243E+02  0.60112089050E+02  0.74470750000E+01 0.  1.
<mgrwt>
<rscale>  0 0.14898053E+02</rscale>
<asrwt>0</asrwt>
<pdfrwt beam="1">  1        2 0.99639999E+00 0.14898053E+02</pdfrwt>
<pdfrwt beam="2">  1       -2 0.98181512E+00 0.14898053E+02</pdfrwt>
<totfact> 0.84541215E-13</totfact>
</mgrwt>
</event>
<event>
 4    1 -0.5119137E-019  0.1491671E+02  0.7818608E-02  0.1870621E+00
          2   -1    0    0  501    0  0.00000000000E+00  0.00000000000E+00  0.11871468222E+03  0.11871468225E+03  0.25500000000E-02 0.  1.
         -2   -1    0    0    0  501 -0.00000000000E+00 -0.00000000000E+00 -0.46857417831E+00  0.46858111686E+00  0.25500000000E-02 0. -1.
         31    1    1    2    0    0  0.19998240326E+00  0.16417640204E+00  0.61664511827E+02  0.62113105637E+02  0.74470750000E+01 0.  1.
        -31    1    1    2    0    0 -0.19998240326E+00 -0.16417640204E+00  0.56581596217E+02  0.57070157731E+02  0.74470750000E+01 0.  1.
<mgrwt>
<rscale>  0 0.14916709E+02</rscale>
<asrwt>0</asrwt>
<pdfrwt beam="1">  1        2 0.98549061E+00 0.14916709E+02</pdfrwt>
<pdfrwt beam="2">  1       -2 0.99517146E+00 0.14916709E+02</pdfrwt>
<totfact>-0.31931921E-13</totfact>
</mgrwt>
</event>
<event>
 4    1 -0.5119137E-019  0.1500811E+02  0.7818608E-02  0.1867821E+00
         -2   -1    0    0    0  501 -0.00000000000E+00  0.00000000000E+00  0.11994431511E+03  0.11994431513E+03  0.25500000000E-02 0.  1.
          2   -1    0    0  501    0  0.00000000000E+00 -0.00000000000E+00 -0.46947163901E+00  0.46947856430E+00  0.25500000000E-02 0. -1.
         31    1    1    2    0    0  0.29902046377E+00  0.49595986518E+00  0.65503882843E+02  0.65928392844E+02  0.74470750000E+01 0.  1.
        -31    1    1    2    0    0 -0.29902046377E+00 -0.49595986518E+00  0.53970960624E+02  0.54485400853E+02  0.74470750000E+01 0. -1.
<mgrwt>
<rscale>  0 0.15008114E+02</rscale>
<asrwt>0</asrwt>
<pdfrwt beam="2">  1        2 0.99711024E+00 0.15008114E+02</pdfrwt>
<pdfrwt beam="1">  1       -2 0.99566550E+00 0.15008114E+02</pdfrwt>
<totfact>-0.83078440E-14</totfact>
</mgrwt>
</event>
<event>
 4    1 -0.5119137E-019  0.1496801E+02  0.7818608E-02  0.1869046E+00
         -2   -1    0    0    0  501 -0.00000000000E+00  0.00000000000E+00  0.12005215708E+03  0.12005215710E+03  0.25500000000E-02 0.  1.
          2   -1    0    0  501    0  0.00000000000E+00 -0.00000000000E+00 -0.46654622123E+00  0.46655318995E+00  0.25500000000E-02 0. -1.
         31    1    1    2    0    0 -0.39792195662E+00 -0.42279706745E+00  0.56065647523E+02  0.56561054246E+02  0.74470750000E+01 0. -1.
        -31    1    1    2    0    0  0.39792195662E+00  0.42279706745E+00  0.63519963331E+02  0.63957656046E+02  0.74470750000E+01 0.  1.
<mgrwt>
<rscale>  0 0.14968006E+02</rscale>
<asrwt>0</asrwt>
<pdfrwt beam="2">  1        2 0.99092456E+00 0.14968006E+02</pdfrwt>
<pdfrwt beam="1">  1       -2 0.99653302E+00 0.14968006E+02</pdfrwt>
<totfact>-0.14381515E-13</totfact>
</mgrwt>
</event>
<event>
 4    1  0.5119137E-019  0.1493053E+02  0.7818608E-02  0.1870196E+00
         -2   -1    0    0    0  501 -0.00000000000E+00  0.00000000000E+00  0.11846456805E+03  0.11846456808E+03  0.25500000000E-02 0. -1.
          2   -1    0    0  501    0  0.00000000000E+00 -0.00000000000E+00 -0.47043379717E+00  0.47044070830E+00  0.25500000000E-02 0.  1.
         31    1    1    2    0    0  0.18317733207E+00 -0.24891022630E+00  0.62336221074E+02  0.62780242864E+02  0.74470750000E+01 0. -1.
        -31    1    1    2    0    0 -0.18317733207E+00  0.24891022630E+00  0.55657913180E+02  0.56154765923E+02  0.74470750000E+01 0.  1.
<mgrwt>
<rscale>  0 0.14930526E+02</rscale>
<asrwt>0</asrwt>
<pdfrwt beam="2">  1        2 0.99909700E+00 0.14930526E+02</pdfrwt>
<pdfrwt beam="1">  1       -2 0.98343787E+00 0.14930526E+02</pdfrwt>
<totfact> 0.20207751E-13</totfact>
</mgrwt>
</event>
<event>
 4    1 -0.5119137E-019  0.1497662E+02  0.7818608E-02  0.1868783E+00
          2   -1    0    0  501    0  0.00000000000E+00  0.00000000000E+00  0.11983126065E+03  0.11983126068E+03  0.25500000000E-02 0. -1.
         -2   -1    0    0    0  501 -0.00000000000E+00 -0.00000000000E+00 -0.46794416618E+00  0.46795111407E+00  0.25500000000E-02 0.  1.
         31    1    1    2    0    0  0.13599640477E+00  0.77098925645E+00  0.59248099570E+02  0.59719420193E+02  0.74470750000E+01 0. -1.
        -31    1    1    2    0    0 -0.13599640477E+00 -0.77098925645E+00  0.60115216918E+02  0.60579791603E+02  0.74470750000E+01 0.  1.
<mgrwt>
<rscale>  0 0.14976616E+02</rscale>
<asrwt>0</asrwt>
<pdfrwt beam="1">  1        2 0.99471805E+00 0.14976616E+02</pdfrwt>
<pdfrwt beam="2">  1       -2 0.99387505E+00 0.14976616E+02</pdfrwt>
<totfact>-0.11894267E-13</totfact>
</mgrwt>
</event>
<event>
 4    1 -0.5119137E-019  0.1489944E+02  0.7818608E-02  0.1871153E+00
         -2   -1    0    0    0  501 -0.00000000000E+00  0.00000000000E+00  0.11993371897E+03  0.11993371900E+03  0.25500000000E-02 0. -1.
          2   -1    0    0  501    0  0.00000000000E+00 -0.00000000000E+00 -0.46273839985E+00  0.46274542590E+00  0.25500000000E-02 0.  1.
         31    1    1    2    0    0 -0.14386783795E+00 -0.12471583968E+00  0.60191435363E+02  0.60650672454E+02  0.74470750000E+01 0. -1.
        -31    1    1    2    0    0  0.14386783795E+00  0.12471583968E+00  0.59279545207E+02  0.59745791969E+02  0.74470750000E+01 0. -1.
<mgrwt>
<rscale>  0 0.14899445E+02</rscale>
<asrwt>0</asrwt>
<pdfrwt beam="2">  1        2 0.98286436E+00 0.14899445E+02</pdfrwt>
<pdfrwt beam="1">  1       -2 0.99552220E+00 0.14899445E+02</pdfrwt>
<totfact>-0.48444047E-13</totfact>
</mgrwt>
</event>
<event>
 4    1 -0.5119137E-019  0.1490714E+02  0.7818608E-02  0.1870915E+00
          2   -1    0    0  501    0  0.00000000000E+00  0.00000000000E+00  0.11875020809E+03  0.11875020812E+03  0.25500000000E-02 0.  1.
         -2   -1    0    0    0  501 -0.00000000000E+00 -0.00000000000E+00 -0.46783336055E+00  0.46784031009E+00  0.25500000000E-02 0. -1.
         31    1    1    2    0    0  0.42420466032E-01  0.89385666888E-01  0.61500203074E+02  0.61949525369E+02  0.74470750000E+01 0. -1.
        -31    1    1    2    0    0 -0.42420466032E-01 -0.89385666888E-01  0.56782171659E+02  0.57268523062E+02  0.74470750000E+01 0. -1.
<mgrwt>
<rscale>  0 0.14907143E+02</rscale>
<asrwt>0</asrwt>
<pdfrwt beam="1">  1        2 0.98577824E+00 0.14907143E+02</pdfrwt>
<pdfrwt beam="2">  1       -2 0.99360545E+00 0.14907143E+02</pdfrwt>
<totfact>-0.29020679E-13</totfact>
</mgrwt>
</event>
<event>
 4    1 -0.5119137E-019  0.1496954E+02  0.7818608E-02  0.1868999E+00
          2   -1    0    0  501    0  0.00000000000E+00  0.00000000000E+00  0.11956387367E+03  0.11956387370E+03  0.25500000000E-02 0.  1.
         -2   -1    0    0    0  501 -0.00000000000E+00 -0.00000000000E+00 -0.46854759372E+00  0.46855453266E+00  0.25500000000E-02 0. -1.
         31    1    1    2    0    0  0.61116519846E+00  0.36458680405E+00  0.61452121969E+02  0.61905804793E+02  0.74470750000E+01 0. -1.
        -31    1    1    2    0    0 -0.61116519846E+00 -0.36458680405E+00  0.57643204106E+02  0.58126623436E+02  0.74470750000E+01 0.  1.
<mgrwt>
<rscale>  0 0.14969540E+02</rscale>
<asrwt>0</asrwt>
<pdfrwt beam="1">  1        2 0.99251210E+00 0.14969540E+02</pdfrwt>
<pdfrwt beam="2">  1       -2 0.99514301E+00 0.14969540E+02</pdfrwt>
<totfact>-0.14528025E-13</totfact>
</mgrwt>
</event>
<event>
 4    1 -0.5119137E-019  0.1494260E+02  0.7818608E-02  0.1869825E+00
          2   -1    0    0  501    0  0.00000000000E+00  0.00000000000E+00  0.11869165714E+03  0.11869165717E+03  0.25500000000E-02 0. -1.
         -2   -1    0    0    0  501 -0.00000000000E+00 -0.00000000000E+00 -0.47029361549E+00  0.47030052867E+00  0.25500000000E-02 0.  1.
         31    1    1    2    0    0  0.19850245914E+00 -0.45848159349E+00  0.61777213385E+02  0.62226462444E+02  0.74470750000E+01 0. -1.
        -31    1    1    2    0    0 -0.19850245914E+00  0.45848159349E+00  0.56444150143E+02  0.56935495256E+02  0.74470750000E+01 0. -1.
<mgrwt>
<rscale>  0 0.14942602E+02</rscale>
<asrwt>0</asrwt>
<pdfrwt beam="1">  1        2 0.98531444E+00 0.14942602E+02</pdfrwt>
<pdfrwt beam="2">  1       -2 0.99880802E+00 0.14942602E+02</pdfrwt>
<totfact>-0.12582855E-13</totfact>
</mgrwt>
</event>
<event>
 4    1 -0.5119137E-019  0.1492986E+02  0.7818608E-02  0.1870216E+00
         -2   -1    0    0    0  501 -0.00000000000E+00  0.00000000000E+00  0.12025508050E+03  0.12025508053E+03  0.25500000000E-02 0. -1.
          2   -1    0    0  501    0  0.00000000000E+00 -0.00000000000E+00 -0.46338783206E+00  0.46339484827E+00  0.25500000000E-02 0.  1.
         31    1    1    2    0    0 -0.27354673335E+00 -0.29694758510E+00  0.57297898955E+02  0.57781235331E+02  0.74470750000E+01 0.  1.
        -31    1    1    2    0    0  0.27354673335E+00  0.29694758510E+00  0.62493793716E+02  0.62937240047E+02  0.74470750000E+01 0. -1.
<mgrwt>
<rscale>  0 0.14929858E+02</rscale>
<asrwt>0</asrwt>
<pdfrwt beam="2">  1        2 0.98424856E+00 0.14929858E+02</pdfrwt>
<pdfrwt beam="1">  1       -2 0.99818482E+00 0.14929858E+02</pdfrwt>
<totfact>-0.21559744E-13</totfact>
</mgrwt>
</event>
<event>
 4    1 -0.5119137E-019  0.1495538E+02  0.7818608E-02  0.1869433E+00
         -2   -1    0    0    0  501 -0.00000000000E+00  0.00000000000E+00  0.12017484394E+03  0.12017484397E+03  0.25500000000E-02 0.  1.
          2   -1    0    0  501    0  0.00000000000E+00 -0.00000000000E+00 -0.46528421735E+00  0.46529120496E+00  0.25500000000E-02 0. -1.
         31    1    1    2    0    0 -0.54117330976E+00  0.12291442607E+00  0.56741225714E+02  0.57230530297E+02  0.74470750000E+01 0. -1.
        -31    1    1    2    0    0  0.54117330976E+00 -0.12291442607E+00  0.62968334007E+02  0.63409604873E+02  0.74470750000E+01 0.  1.
<mgrwt>
<rscale>  0 0.14955384E+02</rscale>
<asrwt>0</asrwt>
<pdfrwt beam="2">  1        2 0.98825841E+00 0.14955384E+02</pdfrwt>
<pdfrwt beam="1">  1       -2 0.99753705E+00 0.14955384E+02</pdfrwt>
<totfact>-0.15086043E-13</totfact>
</mgrwt>
</event>
<event>
 4    1 -0.5119137E-019  0.1491212E+02  0.7818608E-02  0.1870762E+00
          2   -1    0    0  501    0  0.00000000000E+00  0.00000000000E+00  0.11843753041E+03  0.11843753044E+03  0.25500000000E-02 0. -1.
         -2   -1    0    0    0  501 -0.00000000000E+00 -0.00000000000E+00 -0.46938178660E+00  0.46938871322E+00  0.25500000000E-02 0.  1.
         31    1    1    2    0    0  0.57080968327E-01 -0.22383458431E+00  0.61247113248E+02  0.61698631812E+02  0.74470750000E+01 0. -1.
        -31    1    1    2    0    0 -0.57080968327E-01  0.22383458431E+00  0.56721035380E+02  0.57208287344E+02  0.74470750000E+01 0.  1.
<mgrwt>
<rscale>  0 0.14912120E+02</rscale>
<asrwt>0</asrwt>
<pdfrwt beam="1">  1        2 0.98320560E+00 0.14912120E+02</pdfrwt>
<pdfrwt beam="2">  1       -2 0.99687071E+00 0.14912120E+02</pdfrwt>
<totfact>-0.38481159E-13</totfact>
</mgrwt>
</event>
<event>
 4    1  0.5119137E-019  0.1491342E+02  0.7818608E-02  0.1870722E+00
          2   -1    0    0  501    0  0.00000000000E+00  0.00000000000E+00  0.12041172359E+03  0.12041172361E+03  0.25500000000E-02 0.  1.
         -2   -1    0    0    0  501 -0.00000000000E+00 -0.00000000000E+00 -0.46176643968E+00  0.46177348052E+00  0.25500000000E-02 0. -1.
         31    1    1    2    0    0 -0.80354961971E-01 -0.22386556996E-01  0.62970940552E+02  0.63409819729E+02  0.74470750000E+01 0.  1.
        -31    1    1    2    0    0  0.80354961971E-01  0.22386556996E-01  0.56979016596E+02  0.57463677365E+02  0.74470750000E+01 0. -1.
<mgrwt>
<rscale>  0 0.14913419E+02</rscale>
<asrwt>0</asrwt>
<pdfrwt beam="1">  1        2 0.99946664E+00 0.14913419E+02</pdfrwt>
<pdfrwt beam="2">  1       -2 0.98082278E+00 0.14913419E+02</pdfrwt>
<totfact> 0.21123172E-13</totfact>
</mgrwt>
</event>
<event>
 4    1  0.5119137E-019  0.1491131E+02  0.7818608E-02  0.1870787E+00
         -2   -1    0    0    0  501 -0.00000000000E+00  0.00000000000E+00  0.11821157576E+03  0.11821157579E+03  0.25500000000E-02 0.  1.
          2   -1    0    0  501    0  0.00000000000E+00 -0.00000000000E+00 -0.47022812467E+00  0.47023503881E+00  0.25500000000E-02 0. -1.
         31    1    1    2    0    0  0.17824609641E-01 -0.34781479689E+00  0.59517310032E+02  0.59982417526E+02  0.74470750000E+01 0.  1.
        -31    1    1    2    0    0 -0.17824609641E-01  0.34781479689E+00  0.58224037603E+02  0.58699393299E+02  0.74470750000E+01 0. -1.
<mgrwt>
<rscale>  0 0.14911314E+02</rscale>
<asrwt>0</asrwt>
<pdfrwt beam="2">  1        2 0.99865348E+00 0.14911314E+02</pdfrwt>
<pdfrwt beam="1">  1       -2 0.98134425E+00 0.14911314E+02</pdfrwt>
<totfact> 0.44285828E-13</totfact>
</mgrwt>
</event>
<event>
 4    1  0.5119137E-019  0.1492625E+02  0.7818608E-02  0.1870327E+00
          2   -1    0    0  501    0  0.00000000000E+00  0.00000000000E+00  0.12033595175E+03  0.12033595177E+03  0.25500000000E-02 0.  1.
         -2   -1    0    0    0  501 -0.00000000000E+00 -0.00000000000E+00 -0.46285274469E+00  0.46285976901E+00  0.25500000000E-02 0. -1.
         31    1    1    2    0    0  0.23385470213E+00 -0.35979714257E+00  0.61837698083E+02  0.62285985360E+02  0.74470750000E+01 0.  1.
        -31    1    1    2    0    0 -0.23385470213E+00  0.35979714257E+00  0.58035400918E+02  0.58512826182E+02  0.74470750000E+01 0. -1.
<mgrwt>
<rscale>  0 0.14926252E+02</rscale>
<asrwt>0</asrwt>
<pdfrwt beam="1">  1        2 0.99884909E+00 0.14926252E+02</pdfrwt>
<pdfrwt beam="2">  1       -2 0.98311893E+00 0.14926252E+02</pdfrwt>
<totfact> 0.26935207E-13</totfact>
</mgrwt>
</event>
<event>
 4    1 -0.5119137E-019  0.1496022E+02  0.7818608E-02  0.1869285E+00
          2   -1    0    0  501    0  0.00000000000E+00  0.00000000000E+00  0.11963808245E+03  0.11963808247E+03  0.25500000000E-02 0. -1.
         -2   -1    0    0    0  501 -0.00000000000E+00 -0.00000000000E+00 -0.46767412161E+00  0.46768107351E+00  0.25500000000E-02 0.  1.
         31    1    1    2    0    0 -0.44602042945E+00 -0.49386768032E+00  0.61385570572E+02  0.61839227356E+02  0.74470750000E+01 0. -1.
        -31    1    1    2    0    0  0.44602042945E+00  0.49386768032E+00  0.57784837753E+02  0.58266536191E+02  0.74470750000E+01 0.  1.
<mgrwt>
<rscale>  0 0.14960221E+02</rscale>
<asrwt>0</asrwt>
<pdfrwt beam="1">  1        2 0.99311849E+00 0.14960221E+02</pdfrwt>
<pdfrwt beam="2">  1       -2 0.99329751E+00 0.14960221E+02</pdfrwt>
<totfact>-0.12713479E-13</totfact>
</mgrwt>
</event>
<event>
 4    1 -0.5119137E-019  0.1493720E+02  0.7818608E-02  0.1869991E+00
          2   -1    0    0  501    0  0.00000000000E+00  0.00000000000E+00  0.11881560644E+03  0.11881560647E+03  0.25500000000E-02 0.  1.
         -2   -1    0    0    0  501 -0.00000000000E+00 -0.00000000000E+00 -0.46946317422E+00  0.46947009963E+00  0.25500000000E-02 0. -1.
         31    1    1    2    0    0  0.44238142136E+00 -0.11433389620E+00  0.61848804092E+02  0.62297209145E+02  0.74470750000E+01 0.  1.
        -31    1    1    2    0    0 -0.44238142136E+00  0.11433389620E+00  0.56497339176E+02  0.56987867424E+02  0.74470750000E+01 0.  1.
<mgrwt>
<rscale>  0 0.14937197E+02</rscale>
<asrwt>0</asrwt>
<pdfrwt beam="1">  1        2 0.98633247E+00 0.14937197E+02</pdfrwt>
<pdfrwt beam="2">  1       -2 0.99705541E+00 0.14937197E+02</pdfrwt>
<totfact>-0.22293134E-13</totfact>
</mgrwt>
</event>
<event>
 4    1 -0.5119137E-019  0.1497904E+02  0.7818608E-02  0.1868709E+00
         -2   -1    0    0    0  501 -0.00000000000E+00  0.00000000000E+00  0.11993867311E+03  0.11993867314E+03  0.25500000000E-02 0.  1.
          2   -1    0    0  501    0  0.00000000000E+00 -0.00000000000E+00 -0.46767655298E+00  0.46768350484E+00  0.25500000000E-02 0. -1.
         31    1    1    2    0    0 -0.34924925929E+00  0.64931075772E+00  0.57318384129E+02  0.57804841188E+02  0.74470750000E+01 0. -1.
        -31    1    1    2    0    0  0.34924925929E+00 -0.64931075772E+00  0.62152612432E+02  0.62601515459E+02  0.74470750000E+01 0.  1.
<mgrwt>
<rscale>  0 0.14979042E+02</rscale>
<asrwt>0</asrwt>
<pdfrwt beam="2">  1        2 0.99331234E+00 0.14979042E+02</pdfrwt>
<pdfrwt beam="1">  1       -2 0.99560400E+00 0.14979042E+02</pdfrwt>
<totfact>-0.13387385E-13</totfact>
</mgrwt>
</event>
<event>
 4    1 -0.5119137E-019  0.1496191E+02  0.7818608E-02  0.1869233E+00
         -2   -1    0    0    0  501 -0.00000000000E+00  0.00000000000E+00  0.12034094357E+03  0.12034094360E+03  0.25500000000E-02 0. -1.
          2   -1    0    0  501    0  0.00000000000E+00 -0.00000000000E+00 -0.46504766341E+00  0.46505465458E+00  0.25500000000E-02 0.  1.
         31    1    1    2    0    0  0.21620442033E-01  0.84915736155E-01  0.54239491560E+02  0.54748415949E+02  0.74470750000E+01 0.  1.
        -31    1    1    2    0    0 -0.21620442033E-01 -0.84915736155E-01  0.65636404345E+02  0.66057582302E+02  0.74470750000E+01 0. -1.
<mgrwt>
<rscale>  0 0.14961911E+02</rscale>
<asrwt>0</asrwt>
<pdfrwt beam="2">  1        2 0.98776317E+00 0.14961911E+02</pdfrwt>
<pdfrwt beam="1">  1       -2 0.99890852E+00 0.14961911E+02</pdfrwt>
<totfact>-0.81054884E-14</totfact>
</mgrwt>
</event>
<event>
 4    1  0.5119137E-019  0.1491410E+02  0.7818608E-02  0.1870701E+00
          2   -1    0    0  501    0  0.00000000000E+00  0.00000000000E+00  0.12025614326E+03  0.12025614329E+03  0.25500000000E-02 0. -1.
         -2   -1    0    0    0  501 -0.00000000000E+00 -0.00000000000E+00 -0.46240625094E+00  0.46241328204E+00  0.25500000000E-02 0.  1.
         31    1    1    2    0    0 -0.23731847044E+00 -0.42009033397E-01  0.57460410170E+02  0.57941485550E+02  0.74470750000E+01 0.  1.
        -31    1    1    2    0    0  0.23731847044E+00  0.42009033397E-01  0.62333326838E+02  0.62777071018E+02  0.74470750000E+01 0.  1.
<mgrwt>
<rscale>  0 0.14914103E+02</rscale>
<asrwt>0</asrwt>
<pdfrwt beam="1">  1        2 0.99818549E+00 0.14914103E+02</pdfrwt>
<pdfrwt beam="2">  1       -2 0.98217170E+00 0.14914103E+02</pdfrwt>
<totfact> 0.48229212E-13</totfact>
</mgrwt>
</event>
<event>
 4    1 -0.5119137E-019  0.1501212E+02  0.7818608E-02  0.1867699E+00
          2   -1    0    0  501    0  0.00000000000E+00  0.00000000000E+00  0.12014158191E+03  0.12014158194E+03  0.25500000000E-02 0.  1.
         -2   -1    0    0    0  501 -0.00000000000E+00 -0.00000000000E+00 -0.46895096704E+00  0.46895790002E+00  0.25500000000E-02 0. -1.
         31    1    1    2    0    0  0.43684807121E+00  0.36394561082E+00  0.65841650954E+02  0.66263905855E+02  0.74470750000E+01 0.  1.
        -31    1    1    2    0    0 -0.43684807121E+00 -0.36394561082E+00  0.53830979988E+02  0.54346633982E+02  0.74470750000E+01 0. -1.
<mgrwt>
<rscale>  0 0.15012119E+02</rscale>
<asrwt>0</asrwt>
<pdfrwt beam="1">  1        2 0.99729233E+00 0.15012119E+02</pdfrwt>
<pdfrwt beam="2">  1       -2 0.99601508E+00 0.15012119E+02</pdfrwt>
<totfact>-0.76874974E-14</totfact>
</mgrwt>
</event>
<event>
 4    1  0.5119137E-019  0.1490320E+02  0.7818608E-02  0.1871037E+00
          2   -1    0    0  501    0  0.00000000000E+00  0.00000000000E+00  0.11954238981E+03  0.11954238984E+03  0.25500000000E-02 0. -1.
         -2   -1    0    0    0  501 -0.00000000000E+00 -0.00000000000E+00 -0.46448701913E+00  0.46449401873E+00  0.25500000000E-02 0.  1.
         31    1    1    2    0    0 -0.22764032441E+00 -0.24556851609E-01  0.60523876101E+02  0.60980742268E+02  0.74470750000E+01 0. -1.
        -31    1    1    2    0    0  0.22764032441E+00  0.24556851609E-01  0.58554026688E+02  0.59026141587E+02  0.74470750000E+01 0.  1.
<mgrwt>
<rscale>  0 0.14903196E+02</rscale>
<asrwt>0</asrwt>
<pdfrwt beam="1">  1        2 0.99230088E+00 0.14903196E+02</pdfrwt>
<pdfrwt beam="2">  1       -2 0.98655161E+00 0.14903196E+02</pdfrwt>
<totfact> 0.36425749E-13</totfact>
</mgrwt>
</event>
<event>
 4    1  0.5119137E-019  0.1492028E+02  0.7818608E-02  0.1870511E+00
          2   -1    0    0  501    0  0.00000000000E+00  0.00000000000E+00  0.12008647603E+03  0.12008647605E+03  0.25500000000E-02 0. -1.
         -2   -1    0    0    0  501 -0.00000000000E+00 -0.00000000000E+00 -0.46344294792E+00  0.46344996329E+00  0.25500000000E-02 0.  1.
         31    1    1    2    0    0  0.40369430354E+00 -0.10110207624E+00  0.58625763023E+02  0.59098326599E+02  0.74470750000E+01 0.  1.
        -31    1    1    2    0    0 -0.40369430354E+00  0.10110207624E+00  0.60997270055E+02  0.61451599418E+02  0.74470750000E+01 0.  1.
<mgrwt>
<rscale>  0 0.14920275E+02</rscale>
<asrwt>0</asrwt>
<pdfrwt beam="1">  1        2 0.99679113E+00 0.14920275E+02</pdfrwt>
<pdfrwt beam="2">  1       -2 0.98435987E+00 0.14920275E+02</pdfrwt>
<totfact> 0.44491004E-13</totfact>
</mgrwt>
</event>
<event>
 4    1  0.5119137E-019  0.1492692E+02  0.7818608E-02  0.1870307E+00
         -2   -1    0    0    0  501 -0.00000000000E+00  0.00000000000E+00  0.11860271930E+03  0.11860271933E+03  0.25500000000E-02 0.  1.
          2   -1    0    0  501    0  0.00000000000E+00 -0.00000000000E+00 -0.46965874254E+00  0.46966566507E+00  0.25500000000E-02 0. -1.
         31    1    1    2    0    0 -0.35997197773E+00  0.13482050893E+00  0.56588058010E+02  0.57077272113E+02  0.74470750000E+01 0. -1.
        -31    1    1    2    0    0  0.35997197773E+00 -0.13482050893E+00  0.61545002549E+02  0.61995112882E+02  0.74470750000E+01 0.  1.
<mgrwt>
<rscale>  0 0.14926918E+02</rscale>
<asrwt>0</asrwt>
<pdfrwt beam="2">  1        2 0.99746207E+00 0.14926918E+02</pdfrwt>
<pdfrwt beam="1">  1       -2 0.98457379E+00 0.14926918E+02</pdfrwt>
<totfact> 0.35791831E-13</totfact>
</mgrwt>
</event>
<event>
 4    1  0.5119137E-019  0.1493181E+02  0.7818608E-02  0.1870157E+00
          2   -1    0    0  501    0  0.00000000000E+00  0.00000000000E+00  0.11986910048E+03  0.11986910051E+03  0.25500000000E-02 0.  1.
         -2   -1    0    0    0  501 -0.00000000000E+00 -0.00000000000E+00 -0.46500125303E+00  0.46500824489E+00  0.25500000000E-02 0. -1.
         31    1    1    2    0    0 -0.39212448727E+00 -0.29104234301E+00  0.58044362158E+02  0.58522178460E+02  0.74470750000E+01 0.  1.
        -31    1    1    2    0    0  0.39212448727E+00  0.29104234301E+00  0.61359737067E+02  0.61811930291E+02  0.74470750000E+01 0.  1.
<mgrwt>
<rscale>  0 0.14931806E+02</rscale>
<asrwt>0</asrwt>
<pdfrwt beam="1">  1        2 0.99500660E+00 0.14931806E+02</pdfrwt>
<pdfrwt beam="2">  1       -2 0.98765001E+00 0.14931806E+02</pdfrwt>
<totfact> 0.18241795E-13</totfact>
</mgrwt>
</event>
<event>
 4    1 -0.5119137E-019  0.1496256E+02  0.7818608E-02  0.1869213E+00
          2   -1    0    0  501    0  0.00000000000E+00  0.00000000000E+00  0.11970104499E+03  0.11970104501E+03  0.25500000000E-02 0. -1.
         -2   -1    0    0    0  501 -0.00000000000E+00 -0.00000000000E+00 -0.46757415677E+00  0.46758111016E+00  0.25500000000E-02 0.  1.
         31    1    1    2    0    0 -0.15782674297E+00  0.59415837001E+00  0.62542099659E+02  0.62986912047E+02  0.74470750000E+01 0. -1.
        -31    1    1    2    0    0  0.15782674297E+00 -0.59415837001E+00  0.56691371171E+02  0.57181714077E+02  0.74470750000E+01 0.  1.
<mgrwt>
<rscale>  0 0.14962558E+02</rscale>
<asrwt>0</asrwt>
<pdfrwt beam="1">  1        2 0.99363828E+00 0.14962558E+02</pdfrwt>
<pdfrwt beam="2">  1       -2 0.99308805E+00 0.14962558E+02</pdfrwt>
<totfact>-0.11839919E-13</totfact>
</mgrwt>
</event>
<event>
 4    1  0.5119137E-019  0.1491148E+02  0.7818608E-02  0.1870782E+00
          2   -1    0    0  501    0  0.00000000000E+00  0.00000000000E+00  0.11998762198E+03  0.11998762201E+03  0.25500000000E-02 0.  1.
         -2   -1    0    0    0  501 -0.00000000000E+00 -0.00000000000E+00 -0.46327789281E+00  0.46328491068E+00  0.25500000000E-02 0. -1.
         31    1    1    2    0    0 -0.18030021048E+00  0.28843114066E+00  0.60697593500E+02  0.61153679231E+02  0.74470750000E+01 0.  1.
        -31    1    1    2    0    0  0.18030021048E+00 -0.28843114066E+00  0.58826750591E+02  0.59297227691E+02  0.74470750000E+01 0.  1.
<mgrwt>
<rscale>  0 0.14911477E+02</rscale>
<asrwt>0</asrwt>
<pdfrwt beam="1">  1        2 0.99597237E+00 0.14911477E+02</pdfrwt>
<pdfrwt beam="2">  1       -2 0.98400753E+00 0.14911477E+02</pdfrwt>
<totfact> 0.55959608E-13</totfact>
</mgrwt>
</event>
<event>
 4    1 -0.5119137E-019  0.1489999E+02  0.7818608E-02  0.1871136E+00
         -2   -1    0    0    0  501 -0.00000000000E+00  0.00000000000E+00  0.12032357396E+03  0.12032357399E+03  0.25500000000E-02 0.  1.
          2   -1    0    0  501    0  0.00000000000E+00 -0.00000000000E+00 -0.46127283411E+00  0.46127988248E+00  0.25500000000E-02 0. -1.
         31    1    1    2    0    0  0.13629334916E+00 -0.14151013682E+00  0.59363923506E+02  0.59829532349E+02  0.74470750000E+01 0. -1.
        -31    1    1    2    0    0 -0.13629334916E+00  0.14151013682E+00  0.60498377620E+02  0.60955321521E+02  0.74470750000E+01 0. -1.
<mgrwt>
<rscale>  0 0.14899990E+02</rscale>
<asrwt>0</asrwt>
<pdfrwt beam="2">  1        2 0.97977561E+00 0.14899990E+02</pdfrwt>
<pdfrwt beam="1">  1       -2 0.99873368E+00 0.14899990E+02</pdfrwt>
<totfact>-0.33417507E-13</totfact>
</mgrwt>
</event>
<event>
 4    1  0.5119137E-019  0.1491704E+02  0.7818608E-02  0.1870611E+00
         -2   -1    0    0    0  501 -0.00000000000E+00  0.00000000000E+00  0.11843076304E+03  0.11843076307E+03  0.25500000000E-02 0. -1.
          2   -1    0    0  501    0  0.00000000000E+00 -0.00000000000E+00 -0.46971851925E+00  0.46972544089E+00  0.25500000000E-02 0.  1.
         31    1    1    2    0    0  0.17074225114E+00 -0.22266422880E+00  0.61396569264E+02  0.61847201843E+02  0.74470750000E+01 0. -1.
        -31    1    1    2    0    0 -0.17074225114E+00  0.22266422880E+00  0.56564475259E+02  0.57053286668E+02  0.74470750000E+01 0.  1.
<mgrwt>
<rscale>  0 0.14917042E+02</rscale>
<asrwt>0</asrwt>
<pdfrwt beam="2">  1        2 0.99758280E+00 0.14917042E+02</pdfrwt>
<pdfrwt beam="1">  1       -2 0.98315243E+00 0.14917042E+02</pdfrwt>
<totfact> 0.48808666E-13</totfact>
</mgrwt>
</event>
<event>
 4    1  0.5119137E-019  0.1491600E+02  0.7818608E-02  0.1870643E+00
          2   -1    0    0  501    0  0.00000000000E+00  0.00000000000E+00  0.12020138297E+03  0.12020138299E+03  0.25500000000E-02 0. -1.
         -2   -1    0    0    0  501 -0.00000000000E+00 -0.00000000000E+00 -0.46273480588E+00  0.46274183199E+00  0.25500000000E-02 0.  1.
         31    1    1    2    0    0 -0.34077300761E+00 -0.17766847082E+00  0.58872934006E+02  0.59343314509E+02  0.74470750000E+01 0. -1.
        -31    1    1    2    0    0  0.34077300761E+00  0.17766847082E+00  0.60865714156E+02  0.61320810318E+02  0.74470750000E+01 0.  1.
<mgrwt>
<rscale>  0 0.14916003E+02</rscale>
<asrwt>0</asrwt>
<pdfrwt beam="1">  1        2 0.99773541E+00 0.14916003E+02</pdfrwt>
<pdfrwt beam="2">  1       -2 0.98286517E+00 0.14916003E+02</pdfrwt>
<totfact> 0.49535848E-13</totfact>
</mgrwt>
</event>
<event>
 4    1 -0.5119137E-019  0.1491483E+02  0.7818608E-02  0.1870679E+00
         -2   -1    0    0    0  501 -0.00000000000E+00  0.00000000000E+00  0.12011594299E+03  0.12011594302E+03  0.25500000000E-02 0.  1.
          2   -1    0    0  501    0  0.00000000000E+00 -0.00000000000E+00 -0.46299128380E+00  0.46299830602E+00  0.25500000000E-02 0. -1.
         31    1    1    2    0    0  0.17636066032E+00 -0.57727573180E-01  0.57029449288E+02  0.57513923947E+02  0.74470750000E+01 0. -1.
        -31    1    1    2    0    0 -0.17636066032E+00  0.57727573180E-01  0.62623502419E+02  0.63065017378E+02  0.74470750000E+01 0.  1.
<mgrwt>
<rscale>  0 0.14914833E+02</rscale>
<asrwt>0</asrwt>
<pdfrwt beam="2">  1        2 0.98340515E+00 0.14914833E+02</pdfrwt>
<pdfrwt beam="1">  1       -2 0.99703105E+00 0.14914833E+02</pdfrwt>
<totfact>-0.35976706E-13</totfact>
</mgrwt>
</event>
<event>
 4    1  0.5119137E-019  0.1492323E+02  0.7818608E-02  0.1870420E+00
         -2   -1    0    0    0  501 -0.00000000000E+00  0.00000000000E+00  0.11864793205E+03  0.11864793208E+03  0.25500000000E-02 0. -1.
          2   -1    0    0  501    0  0.00000000000E+00 -0.00000000000E+00 -0.46924783557E+00  0.46925476416E+00  0.25500000000E-02 0.  1.
         31    1    1    2    0    0  0.11157371817E+00 -0.25091242348E+00  0.62090486186E+02  0.62536092032E+02  0.74470750000E+01 0. -1.
        -31    1    1    2    0    0 -0.11157371817E+00  0.25091242348E+00  0.56088198028E+02  0.56581094809E+02  0.74470750000E+01 0. -1.
<mgrwt>
<rscale>  0 0.14923230E+02</rscale>
<asrwt>0</asrwt>
<pdfrwt beam="2">  1        2 0.99659433E+00 0.14923230E+02</pdfrwt>
<pdfrwt beam="1">  1       -2 0.98494424E+00 0.14923230E+02</pdfrwt>
<totfact> 0.39506649E-13</totfact>
</mgrwt>
</event>
<event>
 4    1 -0.5119137E-019  0.1499042E+02  0.7818608E-02  0.1868361E+00
         -2   -1    0    0    0  501 -0.00000000000E+00  0.00000000000E+00  0.11982929787E+03  0.11982929790E+03  0.25500000000E-02 0.  1.
          2   -1    0    0  501    0  0.00000000000E+00 -0.00000000000E+00 -0.46881475477E+00  0.46882168976E+00  0.25500000000E-02 0. -1.
         31    1    1    2    0    0  0.82256183717E+00  0.20132128934E+00  0.59312720226E+02  0.59784403024E+02  0.74470750000E+01 0.  1.
        -31    1    1    2    0    0 -0.82256183717E+00 -0.20132128934E+00  0.60047762893E+02  0.60513716567E+02  0.74470750000E+01 0.  1.
<mgrwt>
<rscale>  0 0.14990418E+02</rscale>
<asrwt>0</asrwt>
<pdfrwt beam="2">  1        2 0.99571682E+00 0.14990418E+02</pdfrwt>
<pdfrwt beam="1">  1       -2 0.99470902E+00 0.14990418E+02</pdfrwt>
<totfact>-0.11002760E-13</totfact>
</mgrwt>
</event>
<event>
 4    1 -0.5119137E-019  0.1500521E+02  0.7818608E-02  0.1867910E+00
         -2   -1    0    0    0  501 -0.00000000000E+00  0.00000000000E+00  0.12013015440E+03  0.12013015443E+03  0.25500000000E-02 0.  1.
          2   -1    0    0  501    0  0.00000000000E+00 -0.00000000000E+00 -0.46856367502E+00  0.46857061373E+00  0.25500000000E-02 0. -1.
         31    1    1    2    0    0 -0.77280296684E+00 -0.31270533351E+00  0.56876546907E+02  0.57368070590E+02  0.74470750000E+01 0. -1.
        -31    1    1    2    0    0  0.77280296684E+00  0.31270533351E+00  0.62785043822E+02  0.63230654455E+02  0.74470750000E+01 0.  1.
<mgrwt>
<rscale>  0 0.15005205E+02</rscale>
<asrwt>0</asrwt>
<pdfrwt beam="2">  1        2 0.99519534E+00 0.15005205E+02</pdfrwt>
<pdfrwt beam="1">  1       -2 0.99719464E+00 0.15005205E+02</pdfrwt>
<totfact>-0.89519918E-14</totfact>
</mgrwt>
</event>
<event>
 4    1 -0.5119137E-019  0.1502602E+02  0.7818608E-02  0.1867275E+00
          2   -1    0    0  501    0  0.00000000000E+00  0.00000000000E+00  0.11994864167E+03  0.11994864169E+03  0.25500000000E-02 0. -1.
         -2   -1    0    0    0  501 -0.00000000000E+00 -0.00000000000E+00 -0.47057577118E+00  0.47058268021E+00  0.25500000000E-02 0.  1.
         31    1    1    2    0    0 -0.55184556496E+00 -0.74445862104E+00  0.56875607229E+02  0.57368566096E+02  0.74470750000E+01 0.  1.
        -31    1    1    2    0    0  0.55184556496E+00  0.74445862104E+00  0.62602458666E+02  0.63050658278E+02  0.74470750000E+01 0.  1.
<mgrwt>
<rscale>  0 0.15026023E+02</rscale>
<asrwt>0</asrwt>
<pdfrwt beam="1">  1        2 0.99571040E+00 0.15026023E+02</pdfrwt>
<pdfrwt beam="2">  1       -2 0.99944625E+00 0.15026023E+02</pdfrwt>
<totfact>-0.20504777E-14</totfact>
</mgrwt>
</event>
<event>
 4    1  0.5119137E-019  0.1492298E+02  0.7818608E-02  0.1870428E+00
         -2   -1    0    0    0  501 -0.00000000000E+00  0.00000000000E+00  0.11873051807E+03  0.11873051810E+03  0.25500000000E-02 0. -1.
          2   -1    0    0  501    0  0.00000000000E+00 -0.00000000000E+00 -0.46890595677E+00  0.46891289041E+00  0.25500000000E-02 0.  1.
         31    1    1    2    0    0 -0.43137416243E+00 -0.12597209723E+00  0.58220658090E+02  0.58696728249E+02  0.74470750000E+01 0.  1.
        -31    1    1    2    0    0  0.43137416243E+00  0.12597209723E+00  0.60040954025E+02  0.60502702741E+02  0.74470750000E+01 0. -1.
<mgrwt>
<rscale>  0 0.14922984E+02</rscale>
<asrwt>0</asrwt>
<pdfrwt beam="2">  1        2 0.99587384E+00 0.14922984E+02</pdfrwt>
<pdfrwt beam="1">  1       -2 0.98562430E+00 0.14922984E+02</pdfrwt>
<totfact> 0.36279116E-13</totfact>
</mgrwt>
</event>
<event>
 4    1  0.5119137E-019  0.1491500E+02  0.7818608E-02  0.1870674E+00
          2   -1    0    0  501    0  0.00000000000E+00  0.00000000000E+00  0.11998594630E+03  0.11998594633E+03  0.25500000000E-02 0. -1.
         -2   -1    0    0    0  501 -0.00000000000E+00 -0.00000000000E+00 -0.46350312530E+00  0.46351013976E+00  0.25500000000E-02 0.  1.
         31    1    1    2    0    0  0.48644023864E-01 -0.30050898472E+00  0.61783175343E+02  0.62231120457E+02  0.74470750000E+01 0.  1.
        -31    1    1    2    0    0 -0.48644023864E-01  0.30050898472E+00  0.57739267836E+02  0.58218336013E+02  0.74470750000E+01 0.  1.
<mgrwt>
<rscale>  0 0.14914997E+02</rscale>
<asrwt>0</asrwt>
<pdfrwt beam="1">  1        2 0.99596038E+00 0.14914997E+02</pdfrwt>
<pdfrwt beam="2">  1       -2 0.98448402E+00 0.14914997E+02</pdfrwt>
<totfact> 0.49653554E-13</totfact>
</mgrwt>
</event>
<event>
 4    1 -0.5119137E-019  0.1494886E+02  0.7818608E-02  0.1869633E+00
          2   -1    0    0  501    0  0.00000000000E+00  0.00000000000E+00  0.11933619159E+03  0.11933619162E+03  0.25500000000E-02 0.  1.
         -2   -1    0    0    0  501 -0.00000000000E+00 -0.00000000000E+00 -0.46814507874E+00  0.46815202365E+00  0.25500000000E-02 0. -1.
         31    1    1    2    0    0  0.36894668255E+00  0.29009267189E+00  0.55960342816E+02  0.56455638952E+02  0.74470750000E+01 0. -1.
        -31    1    1    2    0    0 -0.36894668255E+00 -0.29009267189E+00  0.62907703698E+02  0.63348704691E+02  0.74470750000E+01 0.  1.
<mgrwt>
<rscale>  0 0.14948855E+02</rscale>
<asrwt>0</asrwt>
<pdfrwt beam="1">  1        2 0.99062614E+00 0.14948855E+02</pdfrwt>
<pdfrwt beam="2">  1       -2 0.99428406E+00 0.14948855E+02</pdfrwt>
<totfact>-0.16758848E-13</totfact>
</mgrwt>
</event>
<event>
 4    1  0.5119137E-019  0.1491820E+02  0.7818608E-02  0.1870575E+00
         -2   -1    0    0    0  501 -0.00000000000E+00  0.00000000000E+00  0.11842047040E+03  0.11842047043E+03  0.25500000000E-02 0. -1.
          2   -1    0    0  501    0  0.00000000000E+00 -0.00000000000E+00 -0.46983211883E+00  0.46983903881E+00  0.25500000000E-02 0.  1.
         31    1    1    2    0    0 -0.10346309156E+00  0.40353482820E+00  0.59576076824E+02  0.60041164218E+02  0.74470750000E+01 0.  1.
        -31    1    1    2    0    0  0.10346309156E+00 -0.40353482820E+00  0.58374561457E+02  0.58849145247E+02  0.74470750000E+01 0.  1.
<mgrwt>
<rscale>  0 0.14918197E+02</rscale>
<asrwt>0</asrwt>
<pdfrwt beam="2">  1        2 0.99782277E+00 0.14918197E+02</pdfrwt>
<pdfrwt beam="1">  1       -2 0.98306826E+00 0.14918197E+02</pdfrwt>
<totfact> 0.45994097E-13</totfact>
</mgrwt>
</event>
<event>
 4    1 -0.5119137E-019  0.1492691E+02  0.7818608E-02  0.1870307E+00
          2   -1    0    0  501    0  0.00000000000E+00  0.00000000000E+00  0.11867399672E+03  0.11867399674E+03  0.25500000000E-02 0.  1.
         -2   -1    0    0    0  501 -0.00000000000E+00 -0.00000000000E+00 -0.46937600855E+00  0.46938293525E+00  0.25500000000E-02 0. -1.
         31    1    1    2    0    0 -0.46706817400E-01  0.14132839775E+00  0.55341035120E+02  0.55840050586E+02  0.74470750000E+01 0. -1.
        -31    1    1    2    0    0  0.46706817400E-01 -0.14132839775E+00  0.62863585589E+02  0.63303329094E+02  0.74470750000E+01 0.  1.
<mgrwt>
<rscale>  0 0.14926907E+02</rscale>
<asrwt>0</asrwt>
<pdfrwt beam="1">  1        2 0.98516082E+00 0.14926907E+02</pdfrwt>
<pdfrwt beam="2">  1       -2 0.99686633E+00 0.14926907E+02</pdfrwt>
<totfact>-0.27853354E-13</totfact>
</mgrwt>
</event>
<event>
 4    1  0.5119137E-019  0.1489744E+02  0.7818608E-02  0.1871214E+00
         -2   -1    0    0    0  501 -0.00000000000E+00  0.00000000000E+00  0.11885795831E+03  0.11885795834E+03  0.25500000000E-02 0.  1.
          2   -1    0    0  501    0  0.00000000000E+00 -0.00000000000E+00 -0.46680101110E+00  0.46680797601E+00  0.25500000000E-02 0. -1.
         31    1    1    2    0    0  0.25818331246E-01 -0.15428366820E+00  0.59243769454E+02  0.59710196912E+02  0.74470750000E+01 0. -1.
        -31    1    1    2    0    0 -0.25818331246E-01  0.15428366820E+00  0.59147387843E+02  0.59614569400E+02  0.74470750000E+01 0.  1.
<mgrwt>
<rscale>  0 0.14897440E+02</rscale>
<asrwt>0</asrwt>
<pdfrwt beam="2">  1        2 0.99142504E+00 0.14897440E+02</pdfrwt>
<pdfrwt beam="1">  1       -2 0.98666066E+00 0.14897440E+02</pdfrwt>
<totfact> 0.37301089E-13</totfact>
</mgrwt>
</event>
<event>
 4    1 -0.5119137E-019  0.1498802E+02  0.7818608E-02  0.1868434E+00
          2   -1    0    0  501    0  0.00000000000E+00  0.00000000000E+00  0.11948192365E+03  0.11948192367E+03  0.25500000000E-02 0. -1.
         -2   -1    0    0    0  501 -0.00000000000E+00 -0.00000000000E+00 -0.47002763202E+00  0.47003454912E+00  0.25500000000E-02 0.  1.
         31    1    1    2    0    0  0.83587724745E+00 -0.25109481066E-01  0.59150295029E+02  0.59623113382E+02  0.74470750000E+01 0.  1.
        -31    1    1    2    0    0 -0.83587724745E+00  0.25109481066E-01  0.59861600985E+02  0.60328844840E+02  0.74470750000E+01 0. -1.
<mgrwt>
<rscale>  0 0.14988025E+02</rscale>
<asrwt>0</asrwt>
<pdfrwt beam="1">  1        2 0.99184672E+00 0.14988025E+02</pdfrwt>
<pdfrwt beam="2">  1       -2 0.99827141E+00 0.14988025E+02</pdfrwt>
<totfact>-0.80723581E-14</totfact>
</mgrwt>
</event>
<event>
 4    1 -0.5119137E-019  0.1495786E+02  0.7818608E-02  0.1869357E+00
         -2   -1    0    0    0  501 -0.00000000000E+00  0.00000000000E+00  0.11998112257E+03  0.11998112260E+03  0.25500000000E-02 0.  1.
          2   -1    0    0  501    0  0.00000000000E+00 -0.00000000000E+00 -0.46618966864E+00  0.46619664269E+00  0.25500000000E-02 0. -1.
         31    1    1    2    0    0  0.53324024891E+00  0.41808062764E+00  0.58728807183E+02  0.59202963235E+02  0.74470750000E+01 0. -1.
        -31    1    1    2    0    0 -0.53324024891E+00 -0.41808062764E+00  0.60786125717E+02  0.61244356004E+02  0.74470750000E+01 0.  1.
<mgrwt>
<rscale>  0 0.14957858E+02</rscale>
<asrwt>0</asrwt>
<pdfrwt beam="2">  1        2 0.99016793E+00 0.14957858E+02</pdfrwt>
<pdfrwt beam="1">  1       -2 0.99594271E+00 0.14957858E+02</pdfrwt>
<totfact>-0.16594526E-13</totfact>
</mgrwt>
</event>
<event>
 4    1 -0.5119137E-019  0.1494598E+02  0.7818608E-02  0.1869721E+00
         -2   -1    0    0    0  501 -0.00000000000E+00  0.00000000000E+00  0.11972563190E+03  0.11972563193E+03  0.25500000000E-02 0. -1.
          2   -1    0    0  501    0  0.00000000000E+00 -0.00000000000E+00 -0.46644307802E+00  0.46645004827E+00  0.25500000000E-02 0.  1.
         31    1    1    2    0    0 -0.29313504931E+00 -0.20096153129E+00  0.63733046145E+02  0.64167643019E+02  0.74470750000E+01 0. -1.
        -31    1    1    2    0    0  0.29313504931E+00  0.20096153129E+00  0.55526142679E+02  0.56024438958E+02  0.74470750000E+01 0.  1.
<mgrwt>
<rscale>  0 0.14945984E+02</rscale>
<asrwt>0</asrwt>
<pdfrwt beam="2">  1        2 0.99069589E+00 0.14945984E+02</pdfrwt>
<pdfrwt beam="1">  1       -2 0.99383223E+00 0.14945984E+02</pdfrwt>
<totfact>-0.16205509E-13</totfact>
</mgrwt>
</event>
<event>
 4    1 -0.5119137E-019  0.1493888E+02  0.7818608E-02  0.1869939E+00
          2   -1    0    0  501    0  0.00000000000E+00  0.00000000000E+00  0.11914236798E+03  0.11914236801E+03  0.25500000000E-02 0.  1.
         -2   -1    0    0    0  501 -0.00000000000E+00 -0.00000000000E+00 -0.46828117243E+00  0.46828811532E+00  0.25500000000E-02 0. -1.
         31    1    1    2    0    0  0.45434073638E+00 -0.91908713571E-01  0.62096102540E+02  0.62542783352E+02  0.74470750000E+01 0.  1.
        -31    1    1    2    0    0 -0.45434073638E+00  0.91908713571E-01  0.56577984273E+02  0.57067872775E+02  0.74470750000E+01 0. -1.
<mgrwt>
<rscale>  0 0.14938881E+02</rscale>
<asrwt>0</asrwt>
<pdfrwt beam="1">  1        2 0.98902459E+00 0.14938881E+02</pdfrwt>
<pdfrwt beam="2">  1       -2 0.99456565E+00 0.14938881E+02</pdfrwt>
<totfact>-0.19772054E-13</totfact>
</mgrwt>
</event>
<event>
 4    1  0.5119137E-019  0.1491164E+02  0.7818608E-02  0.1870777E+00
          2   -1    0    0  501    0  0.00000000000E+00  0.00000000000E+00  0.12035253018E+03  0.12035253021E+03  0.25500000000E-02 0. -1.
         -2   -1    0    0    0  501 -0.00000000000E+00 -0.00000000000E+00 -0.46188343938E+00  0.46189047844E+00  0.25500000000E-02 0.  1.
         31    1    1    2    0    0 -0.32747680533E+00 -0.63663739040E-01  0.58827149647E+02  0.59297586425E+02  0.74470750000E+01 0.  1.
        -31    1    1    2    0    0  0.32747680533E+00  0.63663739040E-01  0.61063497097E+02  0.61516834265E+02  0.74470750000E+01 0.  1.
<mgrwt>
<rscale>  0 0.14911642E+02</rscale>
<asrwt>0</asrwt>
<pdfrwt beam="1">  1        2 0.99897816E+00 0.14911642E+02</pdfrwt>
<pdfrwt beam="2">  1       -2 0.98106850E+00 0.14911642E+02</pdfrwt>
<totfact> 0.36667341E-13</totfact>
</mgrwt>
</event>
<event>
 4    1 -0.5119137E-019  0.1493027E+02  0.7818608E-02  0.1870204E+00
          2   -1    0    0  501    0  0.00000000000E+00  0.00000000000E+00  0.11919828884E+03  0.11919828887E+03  0.25500000000E-02 0.  1.
         -2   -1    0    0    0  501 -0.00000000000E+00 -0.00000000000E+00 -0.46752169931E+00  0.46752865348E+00  0.25500000000E-02 0. -1.
         31    1    1    2    0    0 -0.35296508127E+00 -0.11991944514E+00  0.62258705721E+02  0.62703622935E+02  0.74470750000E+01 0.  1.
        -31    1    1    2    0    0  0.35296508127E+00  0.11991944514E+00  0.56472061421E+02  0.56962194588E+02  0.74470750000E+01 0. -1.
<mgrwt>
<rscale>  0 0.14930265E+02</rscale>
<asrwt>0</asrwt>
<pdfrwt beam="1">  1        2 0.98948071E+00 0.14930265E+02</pdfrwt>
<pdfrwt beam="2">  1       -2 0.99296078E+00 0.14930265E+02</pdfrwt>
<totfact>-0.16201262E-13</totfact>
</mgrwt>
</event>
<event>
 4    1 -0.5119137E-019  0.1492403E+02  0.7818608E-02  0.1870396E+00
         -2   -1    0    0    0  501 -0.00000000000E+00  0.00000000000E+00  0.12025269819E+03  0.12025269822E+03  0.25500000000E-02 0.  1.
          2   -1    0    0  501    0  0.00000000000E+00 -0.00000000000E+00 -0.46303509980E+00  0.46304212136E+00  0.25500000000E-02 0. -1.
         31    1    1    2    0    0  0.33826705574E+00  0.28403374395E+00  0.61239104722E+02  0.61691830682E+02  0.74470750000E+01 0.  1.
        -31    1    1    2    0    0 -0.33826705574E+00 -0.28403374395E+00  0.58550558371E+02  0.59023909658E+02  0.74470750000E+01 0. -1.
<mgrwt>
<rscale>  0 0.14924027E+02</rscale>
<asrwt>0</asrwt>
<pdfrwt beam="2">  1        2 0.98350216E+00 0.14924027E+02</pdfrwt>
<pdfrwt beam="1">  1       -2 0.99816220E+00 0.14924027E+02</pdfrwt>
<totfact>-0.24677364E-13</totfact>
</mgrwt>
</event>
<event>
 4    1  0.5119137E-019  0.1495114E+02  0.7818608E-02  0.1869563E+00
         -2   -1    0    0    0  501 -0.00000000000E+00  0.00000000000E+00  0.11914397333E+03  0.11914397336E+03  0.25500000000E-02 0. -1.
          2   -1    0    0  501    0  0.00000000000E+00 -0.00000000000E+00 -0.46904395176E+00  0.46905088336E+00  0.25500000000E-02 0.  1.
         31    1    1    2    0    0 -0.50529071431E+00 -0.35508590015E+00  0.61012664433E+02  0.61468573694E+02  0.74470750000E+01 0.  1.
        -31    1    1    2    0    0  0.50529071431E+00  0.35508590015E+00  0.57662264943E+02  0.58144450545E+02  0.74470750000E+01 0. -1.
<mgrwt>
<rscale>  0 0.14951144E+02</rscale>
<asrwt>0</asrwt>
<pdfrwt beam="2">  1        2 0.99617936E+00 0.14951144E+02</pdfrwt>
<pdfrwt beam="1">  1       -2 0.98904417E+00 0.14951144E+02</pdfrwt>
<totfact> 0.59701693E-14</totfact>
</mgrwt>
</event>
<event>
 4    1  0.5119137E-019  0.1493283E+02  0.7818608E-02  0.1870125E+00
          2   -1    0    0  501    0  0.00000000000E+00  0.00000000000E+00  0.12017793577E+03  0.12017793579E+03  0.25500000000E-02 0. -1.
         -2   -1    0    0    0  501 -0.00000000000E+00 -0.00000000000E+00 -0.46386962530E+00  0.46387663422E+00  0.25500000000E-02 0.  1.
         31    1    1    2    0    0 -0.46291840230E+00  0.24323020960E+00  0.58869612261E+02  0.59341078758E+02  0.74470750000E+01 0. -1.
        -31    1    1    2    0    0  0.46291840230E+00 -0.24323020960E+00  0.60844453880E+02  0.61300733670E+02  0.74470750000E+01 0.  1.
<mgrwt>
<rscale>  0 0.14932825E+02</rscale>
<asrwt>0</asrwt>
<pdfrwt beam="1">  1        2 0.99755091E+00 0.14932825E+02</pdfrwt>
<pdfrwt beam="2">  1       -2 0.98526552E+00 0.14932825E+02</pdfrwt>
<totfact> 0.28742760E-13</totfact>
</mgrwt>
</event>
<event>
 4    1 -0.5119137E-019  0.1491388E+02  0.7818608E-02  0.1870708E+00
          2   -1    0    0  501    0  0.00000000000E+00  0.00000000000E+00  0.11862631571E+03  0.11862631574E+03  0.25500000000E-02 0.  1.
         -2   -1    0    0    0  501 -0.00000000000E+00 -0.00000000000E+00 -0.46874531444E+00  0.46875225046E+00  0.25500000000E-02 0. -1.
         31    1    1    2    0    0  0.23551459626E-01 -0.31891244416E+00  0.60768216913E+02  0.61223666769E+02  0.74470750000E+01 0.  1.
        -31    1    1    2    0    0 -0.23551459626E-01  0.31891244416E+00  0.57389353485E+02  0.57871401221E+02  0.74470750000E+01 0. -1.
<mgrwt>
<rscale>  0 0.14913879E+02</rscale>
<asrwt>0</asrwt>
<pdfrwt beam="1">  1        2 0.98476135E+00 0.14913879E+02</pdfrwt>
<pdfrwt beam="2">  1       -2 0.99553057E+00 0.14913879E+02</pdfrwt>
<totfact>-0.35265211E-13</totfact>
</mgrwt>
</event>
<event>
 4    1 -0.5119137E-019  0.1491046E+02  0.7818608E-02  0.1870813E+00
         -2   -1    0    0    0  501 -0.00000000000E+00  0.00000000000E+00  0.11957294212E+03  0.11957294214E+03  0.25500000000E-02 0. -1.
          2   -1    0    0  501    0  0.00000000000E+00 -0.00000000000E+00 -0.46482104012E+00  0.46482803470E+00  0.25500000000E-02 0.  1.
         31    1    1    2    0    0 -0.15854159872E+00 -0.21851583281E+00  0.61329392260E+02  0.61780467509E+02  0.74470750000E+01 0. -1.
        -31    1    1    2    0    0  0.15854159872E+00  0.21851583281E+00  0.57778728816E+02  0.58257302669E+02  0.74470750000E+01 0.  1.
<mgrwt>
<rscale>  0 0.14910458E+02</rscale>
<asrwt>0</asrwt>
<pdfrwt beam="2">  1        2 0.98725928E+00 0.14910458E+02</pdfrwt>
<pdfrwt beam="1">  1       -2 0.99255627E+00 0.14910458E+02</pdfrwt>
<totfact>-0.19425022E-13</totfact>
</mgrwt>
</event>
<event>
 4    1  0.5119137E-019  0.1491206E+02  0.7818608E-02  0.1870764E+00
          2   -1    0    0  501    0  0.00000000000E+00  0.00000000000E+00  0.11960110326E+03  0.11960110328E+03  0.25500000000E-02 0. -1.
         -2   -1    0    0    0  501 -0.00000000000E+00 -0.00000000000E+00 -0.46481138259E+00  0.46481837731E+00  0.25500000000E-02 0.  1.
         31    1    1    2    0    0 -0.22829032526E-01  0.35442429988E+00  0.60256635591E+02  0.60716119742E+02  0.74470750000E+01 0.  1.
        -31    1    1    2    0    0  0.22829032526E-01 -0.35442429988E+00  0.58879656283E+02  0.59349801919E+02  0.74470750000E+01 0. -1.
<mgrwt>
<rscale>  0 0.14912059E+02</rscale>
<asrwt>0</asrwt>
<pdfrwt beam="1">  1        2 0.99278905E+00 0.14912059E+02</pdfrwt>
<pdfrwt beam="2">  1       -2 0.98723975E+00 0.14912059E+02</pdfrwt>
<totfact> 0.26570745E-13</totfact>
</mgrwt>
</event>
<event>
 4    1 -0.5119137E-019  0.1500787E+02  0.7818608E-02  0.1867828E+00
          2   -1    0    0  501    0  0.00000000000E+00  0.00000000000E+00  0.12000863826E+03  0.12000863829E+03  0.25500000000E-02 0. -1.
         -2   -1    0    0    0  501 -0.00000000000E+00 -0.00000000000E+00 -0.46920477531E+00  0.46921170453E+00  0.25500000000E-02 0.  1.
         31    1    1    2    0    0 -0.86224553027E+00  0.16281281234E+00  0.57497116695E+02  0.57984026505E+02  0.74470750000E+01 0. -1.
        -31    1    1    2    0    0  0.86224553027E+00 -0.16281281234E+00  0.62042316789E+02  0.62493823486E+02  0.74470750000E+01 0. -1.
<mgrwt>
<rscale>  0 0.15007871E+02</rscale>
<asrwt>0</asrwt>
<pdfrwt beam="1">  1        2 0.99619516E+00 0.15007871E+02</pdfrwt>
<pdfrwt beam="2">  1       -2 0.99654775E+00 0.15007871E+02</pdfrwt>
<totfact>-0.89380105E-14</totfact>
</mgrwt>
</event>
<event>
 4    1  0.5119137E-019  0.1489904E+02  0.7818608E-02  0.1871165E+00
          2   -1    0    0  501    0  0.00000000000E+00  0.00000000000E+00  0.11935350625E+03  0.11935350628E+03  0.25500000000E-02 0.  1.
         -2   -1    0    0    0  501 -0.00000000000E+00 -0.00000000000E+00 -0.46496253528E+00  0.46496952773E+00  0.25500000000E-02 0. -1.
         31    1    1    2    0    0  0.13832467747E+00  0.13005499704E+00  0.59292678015E+02  0.59758820606E+02  0.74470750000E+01 0. -1.
        -31    1    1    2    0    0 -0.13832467747E+00 -0.13005499704E+00  0.59595865698E+02  0.60059655197E+02  0.74470750000E+01 0. -1.
<mgrwt>
<rscale>  0 0.14899037E+02</rscale>
<asrwt>0</asrwt>
<pdfrwt beam="1">  1        2 0.99074299E+00 0.14899037E+02</pdfrwt>
<pdfrwt beam="2">  1       -2 0.98755161E+00 0.14899037E+02</pdfrwt>
<totfact> 0.26840782E-13</totfact>
</mgrwt>
</event>
<event>
 4    1  0.5119137E-019  0.1490417E+02  0.7818608E-02  0.1871007E+00
         -2   -1    0    0    0  501 -0.00000000000E+00  0.00000000000E+00  0.11870316399E+03  0.11870316402E+03  0.25500000000E-02 0. -1.
          2   -1    0    0  501    0  0.00000000000E+00 -0.00000000000E+00 -0.46783199187E+00  0.46783894143E+00  0.25500000000E-02 0.  1.
         31    1    1    2    0    0  0.26772360329E-01 -0.23872973990E+00  0.60157696351E+02  0.60617366034E+02  0.74470750000E+01 0.  1.
        -31    1    1    2    0    0 -0.26772360329E-01  0.23872973990E+00  0.58077635649E+02  0.58553636926E+02  0.74470750000E+01 0. -1.
<mgrwt>
<rscale>  0 0.14904168E+02</rscale>
<asrwt>0</asrwt>
<pdfrwt beam="2">  1        2 0.99360101E+00 0.14904168E+02</pdfrwt>
<pdfrwt beam="1">  1       -2 0.98538923E+00 0.14904168E+02</pdfrwt>
<totfact> 0.48893843E-13</totfact>
</mgrwt>
</event>
<event>
 4    1  0.5119137E-019  0.1491856E+02  0.7818608E-02  0.1870564E+00
          2   -1    0    0  501    0  0.00000000000E+00  0.00000000000E+00  0.12015747827E+03  0.12015747830E+03  0.25500000000E-02 0. -1.
         -2   -1    0    0    0  501 -0.00000000000E+00 -0.00000000000E+00 -0.46306254273E+00  0.46306956386E+00  0.25500000000E-02 0.  1.
         31    1    1    2    0    0 -0.27932724560E+00  0.13976313653E-01  0.57243457958E+02  0.57726515779E+02  0.74470750000E+01 0.  1.
        -31    1    1    2    0    0  0.27932724560E+00 -0.13976313653E-01  0.62450957770E+02  0.62894032081E+02  0.74470750000E+01 0. -1.
<mgrwt>
<rscale>  0 0.14918559E+02</rscale>
<asrwt>0</asrwt>
<pdfrwt beam="1">  1        2 0.99737508E+00 0.14918559E+02</pdfrwt>
<pdfrwt beam="2">  1       -2 0.98355723E+00 0.14918559E+02</pdfrwt>
<totfact> 0.47230488E-13</totfact>
</mgrwt>
</event>
<event>
 4    1 -0.5119137E-019  0.1489923E+02  0.7818608E-02  0.1871159E+00
          2   -1    0    0  501    0  0.00000000000E+00  0.00000000000E+00  0.11816836598E+03  0.11816836601E+03  0.25500000000E-02 0.  1.
         -2   -1    0    0    0  501 -0.00000000000E+00 -0.00000000000E+00 -0.46963824038E+00  0.46964516321E+00  0.25500000000E-02 0. -1.
         31    1    1    2    0    0 -0.13731933767E+00 -0.13720620024E+00  0.58740313186E+02  0.59210818280E+02  0.74470750000E+01 0. -1.
        -31    1    1    2    0    0  0.13731933767E+00  0.13720620024E+00  0.58958414557E+02  0.59427192894E+02  0.74470750000E+01 0.  1.
<mgrwt>
<rscale>  0 0.14899234E+02</rscale>
<asrwt>0</asrwt>
<pdfrwt beam="1">  1        2 0.98098208E+00 0.14899234E+02</pdfrwt>
<pdfrwt beam="2">  1       -2 0.99740424E+00 0.14899234E+02</pdfrwt>
<totfact>-0.49349358E-13</totfact>
</mgrwt>
</event>
<event>
 4    1 -0.5119137E-019  0.1502016E+02  0.7818608E-02  0.1867454E+00
          2   -1    0    0  501    0  0.00000000000E+00  0.00000000000E+00  0.12020489192E+03  0.12020489195E+03  0.25500000000E-02 0. -1.
         -2   -1    0    0    0  501 -0.00000000000E+00 -0.00000000000E+00 -0.46920644755E+00  0.46921337675E+00  0.25500000000E-02 0.  1.
         31    1    1    2    0    0 -0.80827097074E+00  0.37462977150E+00  0.56769178263E+02  0.57262484893E+02  0.74470750000E+01 0. -1.
        -31    1    1    2    0    0  0.80827097074E+00 -0.37462977150E+00  0.62966507212E+02  0.63411620433E+02  0.74470750000E+01 0.  1.
<mgrwt>
<rscale>  0 0.15020164E+02</rscale>
<asrwt>0</asrwt>
<pdfrwt beam="1">  1        2 0.99781793E+00 0.15020164E+02</pdfrwt>
<pdfrwt beam="2">  1       -2 0.99655762E+00 0.15020164E+02</pdfrwt>
<totfact>-0.61001421E-14</totfact>
</mgrwt>
</event>
<event>
 4    1 -0.5119137E-019  0.1495366E+02  0.7818608E-02  0.1869486E+00
          2   -1    0    0  501    0  0.00000000000E+00  0.00000000000E+00  0.11901786506E+03  0.11901786509E+03  0.25500000000E-02 0.  1.
         -2   -1    0    0    0  501 -0.00000000000E+00 -0.00000000000E+00 -0.46969918497E+00  0.46970610690E+00  0.25500000000E-02 0. -1.
         31    1    1    2    0    0  0.19804154110E+00  0.59688362297E+00  0.61035495977E+02  0.61491350495E+02  0.74470750000E+01 0.  1.
        -31    1    1    2    0    0 -0.19804154110E+00 -0.59688362297E+00  0.57512669897E+02  0.57996220698E+02  0.74470750000E+01 0. -1.
<mgrwt>
<rscale>  0 0.14953663E+02</rscale>
<asrwt>0</asrwt>
<pdfrwt beam="1">  1        2 0.98800684E+00 0.14953663E+02</pdfrwt>
<pdfrwt beam="2">  1       -2 0.99756134E+00 0.14953663E+02</pdfrwt>
<totfact>-0.15456443E-13</totfact>
</mgrwt>
</event>
<event>
 4    1  0.5119137E-019  0.1492315E+02  0.7818608E-02  0.1870423E+00
         -2   -1    0    0    0  501 -0.00000000000E+00  0.00000000000E+00  0.11904210474E+03  0.11904210477E+03  0.25500000000E-02 0.  1.
          2   -1    0    0  501    0  0.00000000000E+00 -0.00000000000E+00 -0.46768872231E+00  0.46769567399E+00  0.25500000000E-02 0. -1.
         31    1    1    2    0    0 -0.38360914113E+00  0.16458455787E+00  0.57648001996E+02  0.58128524016E+02  0.74470750000E+01 0. -1.
        -31    1    1    2    0    0  0.38360914113E+00 -0.16458455787E+00  0.60926414026E+02  0.61381276430E+02  0.74470750000E+01 0.  1.
<mgrwt>
<rscale>  0 0.14923145E+02</rscale>
<asrwt>0</asrwt>
<pdfrwt beam="2">  1        2 0.99330903E+00 0.14923145E+02</pdfrwt>
<pdfrwt beam="1">  1       -2 0.98819065E+00 0.14923145E+02</pdfrwt>
<totfact> 0.15596151E-13</totfact>
</mgrwt>
</event>
<event>
 4    1 -0.5119137E-019  0.1490797E+02  0.7818608E-02  0.1870890E+00
          2   -1    0    0  501    0  0.00000000000E+00  0.00000000000E+00  0.11853903172E+03  0.11853903175E+03  0.25500000000E-02 0.  1.
         -2   -1    0    0    0  501 -0.00000000000E+00 -0.00000000000E+00 -0.46871885512E+00  0.46872579153E+00  0.25500000000E-02 0. -1.
         31    1    1    2    0    0 -0.58319782169E-01 -0.10259890184E+00  0.56653117240E+02  0.57140603311E+02  0.74470750000E+01 0. -1.
        -31    1    1    2    0    0  0.58319782169E-01  0.10259890184E+00  0.61417195626E+02  0.61867154229E+02  0.74470750000E+01 0.  1.
<mgrwt>
<rscale>  0 0.14907970E+02</rscale>
<asrwt>0</asrwt>
<pdfrwt beam="1">  1        2 0.98403940E+00 0.14907970E+02</pdfrwt>
<pdfrwt beam="2">  1       -2 0.99547171E+00 0.14907970E+02</pdfrwt>
<totfact>-0.39881648E-13</totfact>
</mgrwt>
</event>
<event>
 4    1 -0.5119137E-019  0.1497597E+02  0.7818608E-02  0.1868803E+00
          2   -1    0    0  501    0  0.00000000000E+00  0.00000000000E+00  0.11984302868E+03  0.11984302871E+03  0.25500000000E-02 0.  1.
         -2   -1    0    0    0  501 -0.00000000000E+00 -0.00000000000E+00 -0.46785782878E+00  0.46786477796E+00  0.25500000000E-02 0. -1.
         31    1    1    2    0    0 -0.96354849287E-02 -0.49791029810E+00  0.64527687338E+02  0.64957904575E+02  0.74470750000E+01 0. -1.
        -31    1    1    2    0    0  0.96354849287E-02  0.49791029810E+00  0.54847483512E+02  0.55352988909E+02  0.74470750000E+01 0. -1.
<mgrwt>
<rscale>  0 0.14975970E+02</rscale>
<asrwt>0</asrwt>
<pdfrwt beam="1">  1        2 0.99481464E+00 0.14975970E+02</pdfrwt>
<pdfrwt beam="2">  1       -2 0.99369278E+00 0.14975970E+02</pdfrwt>
<totfact>-0.11596634E-13</totfact>
</mgrwt>
</event>
<event>
 4    1  0.5119137E-019  0.1495731E+02  0.7818608E-02  0.1869374E+00
         -2   -1    0    0    0  501 -0.00000000000E+00  0.00000000000E+00  0.11915077531E+03  0.11915077534E+03  0.25500000000E-02 0. -1.
          2   -1    0    0  501    0  0.00000000000E+00 -0.00000000000E+00 -0.46940381154E+00  0.46941073782E+00  0.25500000000E-02 0.  1.
         31    1    1    2    0    0  0.38755934702E+00 -0.53412433926E+00  0.57826931080E+02  0.58308218763E+02  0.74470750000E+01 0.  1.
        -31    1    1    2    0    0 -0.38755934702E+00  0.53412433926E+00  0.60854440420E+02  0.61311967315E+02  0.74470750000E+01 0.  1.
<mgrwt>
<rscale>  0 0.14957305E+02</rscale>
<asrwt>0</asrwt>
<pdfrwt beam="2">  1        2 0.99694086E+00 0.14957305E+02</pdfrwt>
<pdfrwt beam="1">  1       -2 0.98910339E+00 0.14957305E+02</pdfrwt>
<totfact> 0.48748776E-14</totfact>
</mgrwt>
</event>
<event>
 4    1 -0.5119137E-019  0.1493199E+02  0.7818608E-02  0.1870151E+00
         -2   -1    0    0    0  501 -0.00000000000E+00  0.00000000000E+00  0.12028084722E+03  0.12028084724E+03  0.25500000000E-02 0. -1.
          2   -1    0    0  501    0  0.00000000000E+00 -0.00000000000E+00 -0.46342117315E+00  0.46342818886E+00  0.25500000000E-02 0.  1.
         31    1    1    2    0    0  0.40997665977E+00  0.35860900341E-01  0.57192594754E+02  0.57676868740E+02  0.74470750000E+01 0.  1.
        -31    1    1    2    0    0 -0.40997665977E+00 -0.35860900341E-01  0.62624831289E+02  0.63067406692E+02  0.74470750000E+01 0. -1.
<mgrwt>
<rscale>  0 0.14931995E+02</rscale>
<asrwt>0</asrwt>
<pdfrwt beam="2">  1        2 0.98431991E+00 0.14931995E+02</pdfrwt>
<pdfrwt beam="1">  1       -2 0.99839815E+00 0.14931995E+02</pdfrwt>
<totfact>-0.19178660E-13</totfact>
</mgrwt>
</event>
<event>
 4    1  0.5119137E-019  0.1492173E+02  0.7818608E-02  0.1870466E+00
          2   -1    0    0  501    0  0.00000000000E+00  0.00000000000E+00  0.12027448397E+03  0.12027448400E+03  0.25500000000E-02 0.  1.
         -2   -1    0    0    0  501 -0.00000000000E+00 -0.00000000000E+00 -0.46280869842E+00  0.46281572341E+00  0.25500000000E-02 0. -1.
         31    1    1    2    0    0 -0.15381306819E+00 -0.42631005476E+00  0.59797787061E+02  0.60261427648E+02  0.74470750000E+01 0.  1.
        -31    1    1    2    0    0  0.15381306819E+00  0.42631005476E+00  0.60013888216E+02  0.60475872078E+02  0.74470750000E+01 0. -1.
<mgrwt>
<rscale>  0 0.14921730E+02</rscale>
<asrwt>0</asrwt>
<pdfrwt beam="1">  1        2 0.99834047E+00 0.14921730E+02</pdfrwt>
<pdfrwt beam="2">  1       -2 0.98302381E+00 0.14921730E+02</pdfrwt>
<totfact> 0.37490469E-13</totfact>
</mgrwt>
</event>
<event>
 4    1  0.5119137E-019  0.1492732E+02  0.7818608E-02  0.1870295E+00
          2   -1    0    0  501    0  0.00000000000E+00  0.00000000000E+00  0.12018050248E+03  0.12018050251E+03  0.25500000000E-02 0.  1.
         -2   -1    0    0    0  501 -0.00000000000E+00 -0.00000000000E+00 -0.46351754083E+00  0.46352455508E+00  0.25500000000E-02 0. -1.
         31    1    1    2    0    0 -0.31792433080E+00  0.19808900331E+00  0.62501653691E+02  0.62944864407E+02  0.74470750000E+01 0.  1.
        -31    1    1    2    0    0  0.31792433080E+00 -0.19808900331E+00  0.57215331248E+02  0.57699162654E+02  0.74470750000E+01 0. -1.
<mgrwt>
<rscale>  0 0.14927317E+02</rscale>
<asrwt>0</asrwt>
<pdfrwt beam="1">  1        2 0.99756923E+00 0.14927317E+02</pdfrwt>
<pdfrwt beam="2">  1       -2 0.98452066E+00 0.14927317E+02</pdfrwt>
<totfact> 0.35178203E-13</totfact>
</mgrwt>
</event>
<event>
 4    1  0.5119137E-019  0.1491238E+02  0.7818608E-02  0.1870754E+00
          2   -1    0    0  501    0  0.00000000000E+00  0.00000000000E+00  0.12029432734E+03  0.12029432736E+03  0.25500000000E-02 0.  1.
         -2   -1    0    0    0  501 -0.00000000000E+00 -0.00000000000E+00 -0.46215286499E+00  0.46215989995E+00  0.25500000000E-02 0. -1.
         31    1    1    2    0    0  0.16815868234E+00  0.24931435523E+00  0.61642127277E+02  0.62091071953E+02  0.74470750000E+01 0.  1.
        -31    1    1    2    0    0 -0.16815868234E+00 -0.24931435523E+00  0.58190047195E+02  0.58665415311E+02  0.74470750000E+01 0.  1.
<mgrwt>
<rscale>  0 0.14912383E+02</rscale>
<asrwt>0</asrwt>
<pdfrwt beam="1">  1        2 0.99849913E+00 0.14912383E+02</pdfrwt>
<pdfrwt beam="2">  1       -2 0.98163676E+00 0.14912383E+02</pdfrwt>
<totfact> 0.45900647E-13</totfact>
</mgrwt>
</event>
<event>
 4    1  0.5119137E-019  0.1491321E+02  0.7818608E-02  0.1870729E+00
         -2   -1    0    0    0  501 -0.00000000000E+00  0.00000000000E+00  0.11899455816E+03  0.11899455818E+03  0.25500000000E-02 0. -1.
          2   -1    0    0  501    0  0.00000000000E+00 -0.00000000000E+00 -0.46725257255E+00  0.46725953073E+00  0.25500000000E-02 0.  1.
         31    1    1    2    0    0 -0.33232942195E-01  0.15999775929E+00  0.61983687490E+02  0.62429665581E+02  0.74470750000E+01 0.  1.
        -31    1    1    2    0    0  0.33232942195E-01 -0.15999775929E+00  0.56543618094E+02  0.57032152133E+02  0.74470750000E+01 0.  1.
<mgrwt>
<rscale>  0 0.14913206E+02</rscale>
<asrwt>0</asrwt>
<pdfrwt beam="2">  1        2 0.99238479E+00 0.14913206E+02</pdfrwt>
<pdfrwt beam="1">  1       -2 0.98779389E+00 0.14913206E+02</pdfrwt>
<totfact> 0.20911459E-13</totfact>
</mgrwt>
</event>
<event>
 4    1  0.5119137E-019  0.1490058E+02  0.7818608E-02  0.1871118E+00
         -2   -1    0    0    0  501 -0.00000000000E+00  0.00000000000E+00  0.11816174106E+03  0.11816174108E+03  0.25500000000E-02 0.  1.
          2   -1    0    0  501    0  0.00000000000E+00 -0.00000000000E+00 -0.46974943472E+00  0.46975635592E+00  0.25500000000E-02 0. -1.
         31    1    1    2    0    0  0.15208739208E+00 -0.72186642239E-01  0.57732641392E+02  0.58211211546E+02  0.74470750000E+01 0.  1.
        -31    1    1    2    0    0 -0.15208739208E+00  0.72186642239E-01  0.59959350229E+02  0.60420285894E+02  0.74470750000E+01 0.  1.
<mgrwt>
<rscale>  0 0.14900580E+02</rscale>
<asrwt>0</asrwt>
<pdfrwt beam="2">  1        2 0.99763923E+00 0.14900580E+02</pdfrwt>
<pdfrwt beam="1">  1       -2 0.98092822E+00 0.14900580E+02</pdfrwt>
<totfact> 0.74934267E-13</totfact>
</mgrwt>
</event>
<event>
 4    1  0.5119137E-019  0.1493425E+02  0.7818608E-02  0.1870082E+00
         -2   -1    0    0    0  501 -0.00000000000E+00  0.00000000000E+00  0.11860961408E+03  0.11860961411E+03  0.25500000000E-02 0. -1.
          2   -1    0    0  501    0  0.00000000000E+00 -0.00000000000E+00 -0.47009288946E+00  0.47009980560E+00  0.25500000000E-02 0.  1.
         31    1    1    2    0    0 -0.67942405244E-01  0.37928483116E+00  0.55975938316E+02  0.56470461921E+02  0.74470750000E+01 0.  1.
        -31    1    1    2    0    0  0.67942405244E-01 -0.37928483116E+00  0.62163582879E+02  0.62609251996E+02  0.74470750000E+01 0. -1.
<mgrwt>
<rscale>  0 0.14934249E+02</rscale>
<asrwt>0</asrwt>
<pdfrwt beam="2">  1        2 0.99838068E+00 0.14934249E+02</pdfrwt>
<pdfrwt beam="1">  1       -2 0.98463439E+00 0.14934249E+02</pdfrwt>
<totfact> 0.24869101E-13</totfact>
</mgrwt>
</event>
<event>
 4    1 -0.5119137E-019  0.1497563E+02  0.7818608E-02  0.1868813E+00
         -2   -1    0    0    0  501 -0.00000000000E+00  0.00000000000E+00  0.11993493544E+03  0.11993493547E+03  0.25500000000E-02 0. -1.
          2   -1    0    0  501    0  0.00000000000E+00 -0.00000000000E+00 -0.46747816086E+00  0.46748511568E+00  0.25500000000E-02 0.  1.
         31    1    1    2    0    0 -0.30332360222E+00  0.78668922746E-01  0.65476840100E+02  0.65899724655E+02  0.74470750000E+01 0. -1.
        -31    1    1    2    0    0  0.30332360222E+00 -0.78668922746E-01  0.53990617179E+02  0.54502695928E+02  0.74470750000E+01 0.  1.
<mgrwt>
<rscale>  0 0.14975631E+02</rscale>
<asrwt>0</asrwt>
<pdfrwt beam="2">  1        2 0.99289249E+00 0.14975631E+02</pdfrwt>
<pdfrwt beam="1">  1       -2 0.99557145E+00 0.14975631E+02</pdfrwt>
<totfact>-0.13832860E-13</totfact>
</mgrwt>
</event>
<event>
 4    1  0.5119137E-019  0.1494920E+02  0.7818608E-02  0.1869623E+00
          2   -1    0    0  501    0  0.00000000000E+00  0.00000000000E+00  0.12021192545E+03  0.12021192548E+03  0.25500000000E-02 0.  1.
         -2   -1    0    0    0  501 -0.00000000000E+00 -0.00000000000E+00 -0.46475612510E+00  0.46476312065E+00  0.25500000000E-02 0. -1.
         31    1    1    2    0    0 -0.58182082490E+00 -0.22038008439E+00  0.58632329246E+02  0.59106649726E+02  0.74470750000E+01 0. -1.
        -31    1    1    2    0    0  0.58182082490E+00  0.22038008439E+00  0.61114840080E+02  0.61570038874E+02  0.74470750000E+01 0.  1.
<mgrwt>
<rscale>  0 0.14949201E+02</rscale>
<asrwt>0</asrwt>
<pdfrwt beam="1">  1        2 0.99783929E+00 0.14949201E+02</pdfrwt>
<pdfrwt beam="2">  1       -2 0.98714225E+00 0.14949201E+02</pdfrwt>
<totfact> 0.13486133E-13</totfact>
</mgrwt>
</event>
<event>
 4    1  0.5119137E-019  0.1490643E+02  0.7818608E-02  0.1870937E+00
          2   -1    0    0  501    0  0.00000000000E+00  0.00000000000E+00  0.12026328596E+03  0.12026328599E+03  0.25500000000E-02 0.  1.
         -2   -1    0    0    0  501 -0.00000000000E+00 -0.00000000000E+00 -0.46190333605E+00  0.46191037481E+00  0.25500000000E-02 0. -1.
         31    1    1    2    0    0  0.16170896030E+00 -0.43257507576E-01  0.61941419674E+02  0.62387710475E+02  0.74470750000E+01 0.  1.
        -31    1    1    2    0    0 -0.16170896030E+00  0.43257507576E-01  0.57859962952E+02  0.58337485889E+02  0.74470750000E+01 0. -1.
<mgrwt>
<rscale>  0 0.14906433E+02</rscale>
<asrwt>0</asrwt>
<pdfrwt beam="1">  1        2 0.99824039E+00 0.14906433E+02</pdfrwt>
<pdfrwt beam="2">  1       -2 0.98110782E+00 0.14906433E+02</pdfrwt>
<totfact> 0.57763254E-13</totfact>
</mgrwt>
</event>
<event>
 4    1 -0.5119137E-019  0.1498230E+02  0.7818608E-02  0.1868609E+00
          2   -1    0    0  501    0  0.00000000000E+00  0.00000000000E+00  0.11930100962E+03  0.11930100964E+03  0.25500000000E-02 0. -1.
         -2   -1    0    0    0  501 -0.00000000000E+00 -0.00000000000E+00 -0.47038095901E+00  0.47038787091E+00  0.25500000000E-02 0.  1.
         31    1    1    2    0    0 -0.65652257813E+00  0.47552149126E+00  0.59700229713E+02  0.60168376216E+02  0.74470750000E+01 0. -1.
        -31    1    1    2    0    0  0.65652257813E+00 -0.47552149126E+00  0.59130398944E+02  0.59603021299E+02  0.74470750000E+01 0.  1.
<mgrwt>
<rscale>  0 0.14982301E+02</rscale>
<asrwt>0</asrwt>
<pdfrwt beam="1">  1        2 0.99035371E+00 0.14982301E+02</pdfrwt>
<pdfrwt beam="2">  1       -2 0.99901293E+00 0.14982301E+02</pdfrwt>
<totfact>-0.55529570E-14</totfact>
</mgrwt>
</event>
<event>
 4    1 -0.5119137E-019  0.1494080E+02  0.7818608E-02  0.1869880E+00
          2   -1    0    0  501    0  0.00000000000E+00  0.00000000000E+00  0.11909856318E+03  0.11909856321E+03  0.25500000000E-02 0.  1.
         -2   -1    0    0    0  501 -0.00000000000E+00 -0.00000000000E+00 -0.46857371762E+00  0.46858065618E+00  0.25500000000E-02 0. -1.
         31    1    1    2    0    0 -0.39387678025E+00 -0.24914111985E+00  0.62208583093E+02  0.62654480659E+02  0.74470750000E+01 0.  1.
        -31    1    1    2    0    0  0.39387678025E+00  0.24914111985E+00  0.56421406368E+02  0.56912663202E+02  0.74470750000E+01 0. -1.
<mgrwt>
<rscale>  0 0.14940800E+02</rscale>
<asrwt>0</asrwt>
<pdfrwt beam="1">  1        2 0.98866480E+00 0.14940800E+02</pdfrwt>
<pdfrwt beam="2">  1       -2 0.99518310E+00 0.14940800E+02</pdfrwt>
<totfact>-0.20465033E-13</totfact>
</mgrwt>
</event>
<event>
 4    1  0.5119137E-019  0.1490540E+02  0.7818608E-02  0.1870969E+00
          2   -1    0    0  501    0  0.00000000000E+00  0.00000000000E+00  0.11958160661E+03  0.11958160663E+03  0.25500000000E-02 0.  1.
         -2   -1    0    0    0  501 -0.00000000000E+00 -0.00000000000E+00 -0.46447189825E+00  0.46447889808E+00  0.25500000000E-02 0. -1.
         31    1    1    2    0    0 -0.17993370579E+00 -0.12245471502E+00  0.61095574534E+02  0.61548156146E+02  0.74470750000E+01 0. -1.
        -31    1    1    2    0    0  0.17993370579E+00  0.12245471502E+00  0.58021560175E+02  0.58497929386E+02  0.74470750000E+01 0. -1.
<mgrwt>
<rscale>  0 0.14905397E+02</rscale>
<asrwt>0</asrwt>
<pdfrwt beam="1">  1        2 0.99262503E+00 0.14905397E+02</pdfrwt>
<pdfrwt beam="2">  1       -2 0.98652087E+00 0.14905397E+02</pdfrwt>
<totfact> 0.35999618E-13</totfact>
</mgrwt>
</event>
<event>
 4    1 -0.5119137E-019  0.1493624E+02  0.7818608E-02  0.1870021E+00
         -2   -1    0    0    0  501 -0.00000000000E+00  0.00000000000E+00  0.12000895047E+03  0.12000895050E+03  0.25500000000E-02 0.  1.
          2   -1    0    0  501    0  0.00000000000E+00 -0.00000000000E+00 -0.46473507977E+00  0.46474207564E+00  0.25500000000E-02 0. -1.
         31    1    1    2    0    0  0.19201091380E+00  0.35878812238E-01  0.55536869662E+02  0.56034283910E+02  0.74470750000E+01 0. -1.
        -31    1    1    2    0    0 -0.19201091380E+00 -0.35878812238E-01  0.64007345732E+02  0.64439408666E+02  0.74470750000E+01 0.  1.
<mgrwt>
<rscale>  0 0.14936237E+02</rscale>
<asrwt>0</asrwt>
<pdfrwt beam="2">  1        2 0.98709130E+00 0.14936237E+02</pdfrwt>
<pdfrwt beam="1">  1       -2 0.99616078E+00 0.14936237E+02</pdfrwt>
<totfact>-0.23237432E-13</totfact>
</mgrwt>
</event>
<event>
 4    1 -0.5119137E-019  0.1492876E+02  0.7818608E-02  0.1870250E+00
          2   -1    0    0  501    0  0.00000000000E+00  0.00000000000E+00  0.11877719908E+03  0.11877719911E+03  0.25500000000E-02 0.  1.
         -2   -1    0    0    0  501 -0.00000000000E+00 -0.00000000000E+00 -0.46908475651E+00  0.46909168751E+00  0.25500000000E-02 0. -1.
         31    1    1    2    0    0  0.45233475669E+00  0.69391870332E-01  0.57392407677E+02  0.57875355783E+02  0.74470750000E+01 0. -1.
        -31    1    1    2    0    0 -0.45233475669E+00 -0.69391870332E-01  0.60915706647E+02  0.61370935012E+02  0.74470750000E+01 0.  1.
<mgrwt>
<rscale>  0 0.14928763E+02</rscale>
<asrwt>0</asrwt>
<pdfrwt beam="1">  1        2 0.98601176E+00 0.14928763E+02</pdfrwt>
<pdfrwt beam="2">  1       -2 0.99625362E+00 0.14928763E+02</pdfrwt>
<totfact>-0.26933707E-13</totfact>
</mgrwt>
</event>
<event>
 4    1 -0.5119137E-019  0.1496210E+02  0.7818608E-02  0.1869227E+00
          2   -1    0    0  501    0  0.00000000000E+00  0.00000000000E+00  0.11911561729E+03  0.11911561732E+03  0.25500000000E-02 0.  1.
         -2   -1    0    0    0  501 -0.00000000000E+00 -0.00000000000E+00 -0.46984369519E+00  0.46985061499E+00  0.25500000000E-02 0. -1.
         31    1    1    2    0    0  0.28181854482E+00 -0.62795003464E+00  0.60785069877E+02  0.61243427313E+02  0.74470750000E+01 0. -1.
        -31    1    1    2    0    0 -0.28181854482E+00  0.62795003464E+00  0.57860703717E+02  0.58342040619E+02  0.74470750000E+01 0. -1.
<mgrwt>
<rscale>  0 0.14962104E+02</rscale>
<asrwt>0</asrwt>
<pdfrwt beam="1">  1        2 0.98881632E+00 0.14962104E+02</pdfrwt>
<pdfrwt beam="2">  1       -2 0.99787027E+00 0.14962104E+02</pdfrwt>
<totfact>-0.12633036E-13</totfact>
</mgrwt>
</event>
<event>
 4    1 -0.5119137E-019  0.1495473E+02  0.7818608E-02  0.1869453E+00
         -2   -1    0    0    0  501 -0.00000000000E+00  0.00000000000E+00  0.11979515383E+03  0.11979515386E+03  0.25500000000E-02 0.  1.
          2   -1    0    0  501    0  0.00000000000E+00 -0.00000000000E+00 -0.46671808726E+00  0.46672505341E+00  0.25500000000E-02 0. -1.
         31    1    1    2    0    0  0.58859602318E+00  0.18571792546E+00  0.61808859476E+02  0.62258934878E+02  0.74470750000E+01 0.  1.
        -31    1    1    2    0    0 -0.58859602318E+00 -0.18571792546E+00  0.57519576270E+02  0.58002944036E+02  0.74470750000E+01 0. -1.
<mgrwt>
<rscale>  0 0.14954730E+02</rscale>
<asrwt>0</asrwt>
<pdfrwt beam="2">  1        2 0.99127995E+00 0.14954730E+02</pdfrwt>
<pdfrwt beam="1">  1       -2 0.99440936E+00 0.14954730E+02</pdfrwt>
<totfact>-0.15947546E-13</totfact>
</mgrwt>
</event>
<event>
 4    1 -0.5119137E-019  0.1490193E+02  0.7818608E-02  0.1871076E+00
          2   -1    0    0  501    0  0.00000000000E+00  0.00000000000E+00  0.11825743545E+03  0.11825743547E+03  0.25500000000E-02 0. -1.
         -2   -1    0    0    0  501 -0.00000000000E+00 -0.00000000000E+00 -0.46945419220E+00  0.46946111774E+00  0.25500000000E-02 0.  1.
         31    1    1    2    0    0 -0.18406013647E+00  0.11899737165E+00  0.58101381787E+02  0.58577107561E+02  0.74470750000E+01 0.  1.
        -31    1    1    2    0    0  0.18406013647E+00 -0.11899737165E+00  0.59686599467E+02  0.60149789031E+02  0.74470750000E+01 0.  1.
<mgrwt>
<rscale>  0 0.14901928E+02</rscale>
<asrwt>0</asrwt>
<pdfrwt beam="1">  1        2 0.98171705E+00 0.14901928E+02</pdfrwt>
<pdfrwt beam="2">  1       -2 0.99701788E+00 0.14901928E+02</pdfrwt>
<totfact>-0.47986104E-13</totfact>
</mgrwt>
</event>
<event>
 4    1 -0.5119137E-019  0.1490164E+02  0.7818608E-02  0.1871085E+00
          2   -1    0    0  501    0  0.00000000000E+00  0.00000000000E+00  0.11820943628E+03  0.11820943631E+03  0.25500000000E-02 0. -1.
         -2   -1    0    0    0  501 -0.00000000000E+00 -0.00000000000E+00 -0.46962671472E+00  0.46963363772E+00  0.25500000000E-02 0.  1.
         31    1    1    2    0    0  0.19132015747E+00 -0.89327334367E-01  0.58026575013E+02  0.58502879558E+02  0.74470750000E+01 0.  1.
        -31    1    1    2    0    0 -0.19132015747E+00  0.89327334367E-01  0.59713234552E+02  0.60176190387E+02  0.74470750000E+01 0. -1.
<mgrwt>
<rscale>  0 0.14901640E+02</rscale>
<asrwt>0</asrwt>
<pdfrwt beam="1">  1        2 0.98132159E+00 0.14901640E+02</pdfrwt>
<pdfrwt beam="2">  1       -2 0.99738123E+00 0.14901640E+02</pdfrwt>
<totfact>-0.46920125E-13</totfact>
</mgrwt>
</event>
<event>
 4    1  0.5119137E-019  0.1491157E+02  0.7818608E-02  0.1870779E+00
          2   -1    0    0  501    0  0.00000000000E+00  0.00000000000E+00  0.11985814190E+03  0.11985814193E+03  0.25500000000E-02 0. -1.
         -2   -1    0    0    0  501 -0.00000000000E+00 -0.00000000000E+00 -0.46378410080E+00  0.46379111101E+00  0.25500000000E-02 0.  1.
         31    1    1    2    0    0 -0.11154162893E+00  0.17817185598E+00  0.62058127794E+02  0.62503714594E+02  0.74470750000E+01 0. -1.
        -31    1    1    2    0    0  0.11154162893E+00 -0.17817185598E+00  0.57336230007E+02  0.57818218445E+02  0.74470750000E+01 0.  1.
<mgrwt>
<rscale>  0 0.14911569E+02</rscale>
<asrwt>0</asrwt>
<pdfrwt beam="1">  1        2 0.99490593E+00 0.14911569E+02</pdfrwt>
<pdfrwt beam="2">  1       -2 0.98507447E+00 0.14911569E+02</pdfrwt>
<totfact> 0.47921215E-13</totfact>
</mgrwt>
</event>
<event>
 4    1 -0.5119137E-019  0.1498183E+02  0.7818608E-02  0.1868623E+00
          2   -1    0    0  501    0  0.00000000000E+00  0.00000000000E+00  0.11983058908E+03  0.11983058911E+03  0.25500000000E-02 0. -1.
         -2   -1    0    0    0  501 -0.00000000000E+00 -0.00000000000E+00 -0.46827292784E+00  0.46827987086E+00  0.25500000000E-02 0.  1.
         31    1    1    2    0    0 -0.33277926630E+00  0.34629727978E+00  0.64911228680E+02  0.65338787857E+02  0.74470750000E+01 0. -1.
        -31    1    1    2    0    0  0.33277926630E+00 -0.34629727978E+00  0.54451087472E+02  0.54960081120E+02  0.74470750000E+01 0.  1.
<mgrwt>
<rscale>  0 0.14981834E+02</rscale>
<asrwt>0</asrwt>
<pdfrwt beam="1">  1        2 0.99471522E+00 0.14981834E+02</pdfrwt>
<pdfrwt beam="2">  1       -2 0.99457057E+00 0.14981834E+02</pdfrwt>
<totfact>-0.12284784E-13</totfact>
</mgrwt>
</event>
<event>
 4    1 -0.5119137E-019  0.1493237E+02  0.7818608E-02  0.1870139E+00
         -2   -1    0    0    0  501 -0.00000000000E+00  0.00000000000E+00  0.12014034829E+03  0.12014034831E+03  0.25500000000E-02 0. -1.
          2   -1    0    0  501    0  0.00000000000E+00 -0.00000000000E+00 -0.46398636474E+00  0.46399337190E+00  0.25500000000E-02 0.  1.
         31    1    1    2    0    0 -0.25335017404E+00 -0.45685178429E+00  0.58950414719E+02  0.59421235442E+02  0.74470750000E+01 0. -1.
        -31    1    1    2    0    0  0.25335017404E+00  0.45685178429E+00  0.60725947203E+02  0.61183106244E+02  0.74470750000E+01 0. -1.
<mgrwt>
<rscale>  0 0.14932369E+02</rscale>
<asrwt>0</asrwt>
<pdfrwt beam="2">  1        2 0.98551134E+00 0.14932369E+02</pdfrwt>
<pdfrwt beam="1">  1       -2 0.99724108E+00 0.14932369E+02</pdfrwt>
<totfact>-0.24218300E-13</totfact>
</mgrwt>
</event>
<event>
 4    1 -0.5119137E-019  0.1492861E+02  0.7818608E-02  0.1870255E+00
         -2   -1    0    0    0  501 -0.00000000000E+00  0.00000000000E+00  0.12023939172E+03  0.12023939174E+03  0.25500000000E-02 0.  1.
          2   -1    0    0  501    0  0.00000000000E+00 -0.00000000000E+00 -0.46337068853E+00  0.46337770500E+00  0.25500000000E-02 0. -1.
         31    1    1    2    0    0  0.25326334847E+00 -0.32583890263E+00  0.57508731128E+02  0.57990373299E+02  0.74470750000E+01 0. -1.
        -31    1    1    2    0    0 -0.25326334847E+00  0.32583890263E+00  0.62267289901E+02  0.62712396151E+02  0.74470750000E+01 0.  1.
<mgrwt>
<rscale>  0 0.14928608E+02</rscale>
<asrwt>0</asrwt>
<pdfrwt beam="2">  1        2 0.98421179E+00 0.14928608E+02</pdfrwt>
<pdfrwt beam="1">  1       -2 0.99805495E+00 0.14928608E+02</pdfrwt>
<totfact>-0.22956542E-13</totfact>
</mgrwt>
</event>
<event>
 4    1 -0.5119137E-019  0.1491819E+02  0.7818608E-02  0.1870575E+00
          2   -1    0    0  501    0  0.00000000000E+00  0.00000000000E+00  0.11873199603E+03  0.11873199606E+03  0.25500000000E-02 0. -1.
         -2   -1    0    0    0  501 -0.00000000000E+00 -0.00000000000E+00 -0.46859882918E+00  0.46860576736E+00  0.25500000000E-02 0.  1.
         31    1    1    2    0    0  0.11504570079E+00  0.34803897732E+00  0.60822862641E+02  0.61278168319E+02  0.74470750000E+01 0. -1.
        -31    1    1    2    0    0 -0.11504570079E+00 -0.34803897732E+00  0.57440534562E+02  0.57922433507E+02  0.74470750000E+01 0. -1.
<mgrwt>
<rscale>  0 0.14918189E+02</rscale>
<asrwt>0</asrwt>
<pdfrwt beam="1">  1        2 0.98563398E+00 0.14918189E+02</pdfrwt>
<pdfrwt beam="2">  1       -2 0.99522418E+00 0.14918189E+02</pdfrwt>
<totfact>-0.31155507E-13</totfact>
</mgrwt>
</event>
<event>
 4    1 -0.5119137E-019  0.1497322E+02  0.7818608E-02  0.1868887E+00
          2   -1    0    0  501    0  0.00000000000E+00  0.00000000000E+00  0.11978152374E+03  0.11978152377E+03  0.25500000000E-02 0. -1.
         -2   -1    0    0    0  501 -0.00000000000E+00 -0.00000000000E+00 -0.46792596397E+00  0.46793291213E+00  0.25500000000E-02 0.  1.
         31    1    1    2    0    0 -0.13927205074E+00 -0.19485929050E-01  0.65723248795E+02  0.66143965217E+02  0.74470750000E+01 0. -1.
        -31    1    1    2    0    0  0.13927205074E+00  0.19485929050E-01  0.53590348979E+02  0.54105491460E+02  0.74470750000E+01 0.  1.
<mgrwt>
<rscale>  0 0.14973217E+02</rscale>
<asrwt>0</asrwt>
<pdfrwt beam="1">  1        2 0.99430664E+00 0.14973217E+02</pdfrwt>
<pdfrwt beam="2">  1       -2 0.99383494E+00 0.14973217E+02</pdfrwt>
<totfact>-0.12305308E-13</totfact>
</mgrwt>
</event>
<event>
 4    1  0.5119137E-019  0.1490208E+02  0.7818608E-02  0.1871071E+00
         -2   -1    0    0    0  501 -0.00000000000E+00  0.00000000000E+00  0.11813709885E+03  0.11813709887E+03  0.25500000000E-02 0.  1.
          2   -1    0    0  501    0  0.00000000000E+00 -0.00000000000E+00 -0.46994226683E+00  0.46994918518E+00  0.25500000000E-02 0. -1.
         31    1    1    2    0    0 -0.18358619035E+00 -0.13453086951E+00  0.58153579145E+02  0.58628913480E+02  0.74470750000E+01 0.  1.
        -31    1    1    2    0    0  0.18358619035E+00  0.13453086951E+00  0.59513577435E+02  0.59978134579E+02  0.74470750000E+01 0. -1.
<mgrwt>
<rscale>  0 0.14902084E+02</rscale>
<asrwt>0</asrwt>
<pdfrwt beam="2">  1        2 0.99804631E+00 0.14902084E+02</pdfrwt>
<pdfrwt beam="1">  1       -2 0.98072606E+00 0.14902084E+02</pdfrwt>
<totfact> 0.67262948E-13</totfact>
</mgrwt>
</event>
<event>
 4    1 -0.5119137E-019  0.1495981E+02  0.7818608E-02  0.1869298E+00
         -2   -1    0    0    0  501 -0.00000000000E+00  0.00000000000E+00  0.12022933950E+03  0.12022933952E+03  0.25500000000E-02 0. -1.
          2   -1    0    0  501    0  0.00000000000E+00 -0.00000000000E+00 -0.46534835460E+00  0.46535534125E+00  0.25500000000E-02 0.  1.
         31    1    1    2    0    0 -0.22494564896E+00  0.35994406380E+00  0.55390959463E+02  0.55890942706E+02  0.74470750000E+01 0.  1.
        -31    1    1    2    0    0  0.22494564896E+00 -0.35994406380E+00  0.64373031679E+02  0.64803752159E+02  0.74470750000E+01 0. -1.
<mgrwt>
<rscale>  0 0.14959806E+02</rscale>
<asrwt>0</asrwt>
<pdfrwt beam="2">  1        2 0.98839583E+00 0.14959806E+02</pdfrwt>
<pdfrwt beam="1">  1       -2 0.99798818E+00 0.14959806E+02</pdfrwt>
<totfact>-0.12687615E-13</totfact>
</mgrwt>
</event>
<event>
 4    1  0.5119137E-019  0.1494045E+02  0.7818608E-02  0.1869891E+00
         -2   -1    0    0    0  501 -0.00000000000E+00  0.00000000000E+00  0.11918406340E+03  0.11918406343E+03  0.25500000000E-02 0. -1.
          2   -1    0    0  501    0  0.00000000000E+00 -0.00000000000E+00 -0.46821558274E+00  0.46822252661E+00  0.25500000000E-02 0.  1.
         31    1    1    2    0    0 -0.42566704448E+00 -0.74990790905E-01  0.56169422754E+02  0.56662596081E+02  0.74470750000E+01 0. -1.
        -31    1    1    2    0    0  0.42566704448E+00  0.74990790905E-01  0.62546425067E+02  0.62989689876E+02  0.74470750000E+01 0. -1.
<mgrwt>
<rscale>  0 0.14940449E+02</rscale>
<asrwt>0</asrwt>
<pdfrwt beam="2">  1        2 0.99442825E+00 0.14940449E+02</pdfrwt>
<pdfrwt beam="1">  1       -2 0.98936882E+00 0.14940449E+02</pdfrwt>
<totfact> 0.49784266E-14</totfact>
</mgrwt>
</event>
<event>
 4    1 -0.5119137E-019  0.1494882E+02  0.7818608E-02  0.1869634E+00
         -2   -1    0    0    0  501 -0.00000000000E+00  0.00000000000E+00  0.11954050043E+03  0.11954050046E+03  0.25500000000E-02 0. -1.
          2   -1    0    0  501    0  0.00000000000E+00 -0.00000000000E+00 -0.46734266989E+00  0.46734962673E+00  0.25500000000E-02 0.  1.
         31    1    1    2    0    0 -0.29512346404E+00  0.89947519386E-01  0.64025621044E+02  0.64458003883E+02  0.74470750000E+01 0. -1.
        -31    1    1    2    0    0  0.29512346404E+00 -0.89947519386E-01  0.55047536717E+02  0.55549846203E+02  0.74470750000E+01 0. -1.
<mgrwt>
<rscale>  0 0.14948819E+02</rscale>
<asrwt>0</asrwt>
<pdfrwt beam="2">  1        2 0.99259313E+00 0.14948819E+02</pdfrwt>
<pdfrwt beam="1">  1       -2 0.99230887E+00 0.14948819E+02</pdfrwt>
<totfact>-0.10661346E-13</totfact>
</mgrwt>
</event>
<event>
 4    1 -0.5119137E-019  0.1492578E+02  0.7818608E-02  0.1870342E+00
         -2   -1    0    0    0  501 -0.00000000000E+00  0.00000000000E+00  0.12031083210E+03  0.12031083213E+03  0.25500000000E-02 0.  1.
          2   -1    0    0  501    0  0.00000000000E+00 -0.00000000000E+00 -0.46292036814E+00  0.46292739143E+00  0.25500000000E-02 0. -1.
         31    1    1    2    0    0  0.94399775102E-01  0.23530852750E+00  0.63275419618E+02  0.63712651297E+02  0.74470750000E+01 0.  1.
        -31    1    1    2    0    0 -0.94399775102E-01 -0.23530852750E+00  0.56572492118E+02  0.57061108226E+02  0.74470750000E+01 0. -1.
<mgrwt>
<rscale>  0 0.14925784E+02</rscale>
<asrwt>0</asrwt>
<pdfrwt beam="2">  1        2 0.98326122E+00 0.14925784E+02</pdfrwt>
<pdfrwt beam="1">  1       -2 0.99864194E+00 0.14925784E+02</pdfrwt>
<totfact>-0.19840620E-13</totfact>
</mgrwt>
</event>
<event>
 4    1  0.5119137E-019  0.1490119E+02  0.7818608E-02  0.1871099E+00
         -2   -1    0    0    0  501 -0.00000000000E+00  0.00000000000E+00  0.11803243146E+03  0.11803243149E+03  0.25500000000E-02 0.  1.
          2   -1    0    0  501    0  0.00000000000E+00 -0.00000000000E+00 -0.47030272280E+00  0.47030963585E+00  0.25500000000E-02 0. -1.
         31    1    1    2    0    0 -0.17729882288E+00 -0.25614815123E-01  0.59916029434E+02  0.60377326872E+02  0.74470750000E+01 0.  1.
        -31    1    1    2    0    0  0.17729882288E+00  0.25614815123E-01  0.57646099304E+02  0.58125414253E+02  0.74470750000E+01 0.  1.
<mgrwt>
<rscale>  0 0.14901193E+02</rscale>
<asrwt>0</asrwt>
<pdfrwt beam="2">  1        2 0.99880527E+00 0.14901193E+02</pdfrwt>
<pdfrwt beam="1">  1       -2 0.97986358E+00 0.14901193E+02</pdfrwt>
<totfact> 0.51915095E-13</totfact>
</mgrwt>
</event>
<event>
 4    1 -0.5119137E-019  0.1501667E+02  0.7818608E-02  0.1867560E+00
         -2   -1    0    0    0  501 -0.00000000000E+00  0.00000000000E+00  0.12009091055E+03  0.12009091058E+03  0.25500000000E-02 0. -1.
          2   -1    0    0  501    0  0.00000000000E+00 -0.00000000000E+00 -0.46943320756E+00  0.46944013341E+00  0.25500000000E-02 0.  1.
         31    1    1    2    0    0 -0.23785470931E+00  0.74711858767E+00  0.64218293864E+02  0.64653406359E+02  0.74470750000E+01 0. -1.
        -31    1    1    2    0    0  0.23785470931E+00 -0.74711858767E+00  0.55403183479E+02  0.55906944352E+02  0.74470750000E+01 0.  1.
<mgrwt>
<rscale>  0 0.15016668E+02</rscale>
<asrwt>0</asrwt>
<pdfrwt beam="2">  1        2 0.99703368E+00 0.15016668E+02</pdfrwt>
<pdfrwt beam="1">  1       -2 0.99687733E+00 0.15016668E+02</pdfrwt>
<totfact>-0.71821828E-14</totfact>
</mgrwt>
</event>
<event>
 4    1 -0.5119137E-019  0.1503293E+02  0.7818608E-02  0.1867065E+00
          2   -1    0    0  501    0  0.00000000000E+00  0.00000000000E+00  0.12009329339E+03  0.12009329342E+03  0.25500000000E-02 0.  1.
         -2   -1    0    0    0  501 -0.00000000000E+00 -0.00000000000E+00 -0.47044146148E+00  0.47044837249E+00  0.25500000000E-02 0. -1.
         31    1    1    2    0    0  0.45175812574E+00  0.60011890865E+00  0.54289113348E+02  0.54802654884E+02  0.74470750000E+01 0. -1.
        -31    1    1    2    0    0 -0.45175812574E+00 -0.60011890865E+00  0.65333738582E+02  0.65761086907E+02  0.74470750000E+01 0.  1.
<mgrwt>
<rscale>  0 0.15032935E+02</rscale>
<asrwt>0</asrwt>
<pdfrwt beam="1">  1        2 0.99690537E+00 0.15032935E+02</pdfrwt>
<pdfrwt beam="2">  1       -2 0.99916681E+00 0.15032935E+02</pdfrwt>
<totfact>-0.24700818E-14</totfact>
</mgrwt>
</event>
<event>
 4    1 -0.5119137E-019  0.1499968E+02  0.7818608E-02  0.1868078E+00
          2   -1    0    0  501    0  0.00000000000E+00  0.00000000000E+00  0.12025004360E+03  0.12025004363E+03  0.25500000000E-02 0.  1.
         -2   -1    0    0    0  501 -0.00000000000E+00 -0.00000000000E+00 -0.46775202932E+00  0.46775898007E+00  0.25500000000E-02 0. -1.
         31    1    1    2    0    0 -0.74691212174E+00  0.12552997649E+00  0.63623394855E+02  0.64062227048E+02  0.74470750000E+01 0. -1.
        -31    1    1    2    0    0  0.74691212174E+00 -0.12552997649E+00  0.56158896718E+02  0.56655575561E+02  0.74470750000E+01 0.  1.
<mgrwt>
<rscale>  0 0.14999683E+02</rscale>
<asrwt>0</asrwt>
<pdfrwt beam="1">  1        2 0.99817925E+00 0.14999683E+02</pdfrwt>
<pdfrwt beam="2">  1       -2 0.99348202E+00 0.14999683E+02</pdfrwt>
<totfact>-0.56724889E-14</totfact>
</mgrwt>
</event>
<event>
 4    1 -0.5119137E-019  0.1491598E+02  0.7818608E-02  0.1870643E+00
         -2   -1    0    0    0  501 -0.00000000000E+00  0.00000000000E+00  0.11963547989E+03  0.11963547992E+03  0.25500000000E-02 0.  1.
          2   -1    0    0  501    0  0.00000000000E+00 -0.00000000000E+00 -0.46492245097E+00  0.46492944402E+00  0.25500000000E-02 0. -1.
         31    1    1    2    0    0  0.39551841884E+00  0.23029805166E-01  0.58974676074E+02  0.59444329497E+02  0.74470750000E+01 0. -1.
        -31    1    1    2    0    0 -0.39551841884E+00 -0.23029805166E-01  0.60195881364E+02  0.60656079863E+02  0.74470750000E+01 0. -1.
<mgrwt>
<rscale>  0 0.14915984E+02</rscale>
<asrwt>0</asrwt>
<pdfrwt beam="2">  1        2 0.98747583E+00 0.14915984E+02</pdfrwt>
<pdfrwt beam="1">  1       -2 0.99307421E+00 0.14915984E+02</pdfrwt>
<totfact>-0.21032904E-13</totfact>
</mgrwt>
</event>
<event>
 4    1 -0.5119137E-019  0.1492468E+02  0.7818608E-02  0.1870376E+00
         -2   -1    0    0    0  501 -0.00000000000E+00  0.00000000000E+00  0.12012339525E+03  0.12012339527E+03  0.25500000000E-02 0.  1.
          2   -1    0    0  501    0  0.00000000000E+00 -0.00000000000E+00 -0.46357384066E+00  0.46358085405E+00  0.25500000000E-02 0. -1.
         31    1    1    2    0    0  0.15752894008E+00  0.40229893401E+00  0.58195845058E+02  0.58671986227E+02  0.74470750000E+01 0.  1.
        -31    1    1    2    0    0 -0.15752894008E+00 -0.40229893401E+00  0.61463976348E+02  0.61914989901E+02  0.74470750000E+01 0.  1.
<mgrwt>
<rscale>  0 0.14924676E+02</rscale>
<asrwt>0</asrwt>
<pdfrwt beam="2">  1        2 0.98463798E+00 0.14924676E+02</pdfrwt>
<pdfrwt beam="1">  1       -2 0.99709749E+00 0.14924676E+02</pdfrwt>
<totfact>-0.28860837E-13</totfact>
</mgrwt>
</event>
<event>
 4    1 -0.5119137E-019  0.1494428E+02  0.7818608E-02  0.1869774E+00
         -2   -1    0    0    0  501 -0.00000000000E+00  0.00000000000E+00  0.11996554775E+03  0.11996554778E+03  0.25500000000E-02 0.  1.
          2   -1    0    0  501    0  0.00000000000E+00 -0.00000000000E+00 -0.46540402509E+00  0.46541101091E+00  0.25500000000E-02 0. -1.
         31    1    1    2    0    0 -0.14807466696E+00  0.13868434783E+00  0.55101223167E+02  0.55602561812E+02  0.74470750000E+01 0. -1.
        -31    1    1    2    0    0  0.14807466696E+00 -0.13868434783E+00  0.64398920559E+02  0.64828396977E+02  0.74470750000E+01 0.  1.
<mgrwt>
<rscale>  0 0.14944279E+02</rscale>
<asrwt>0</asrwt>
<pdfrwt beam="2">  1        2 0.98850524E+00 0.14944279E+02</pdfrwt>
<pdfrwt beam="1">  1       -2 0.99580743E+00 0.14944279E+02</pdfrwt>
<totfact>-0.20053275E-13</totfact>
</mgrwt>
</event>
<event>
 4    1 -0.5119137E-019  0.1497041E+02  0.7818608E-02  0.1868973E+00
          2   -1    0    0  501    0  0.00000000000E+00  0.00000000000E+00  0.11951259600E+03  0.11951259602E+03  0.25500000000E-02 0. -1.
         -2   -1    0    0    0  501 -0.00000000000E+00 -0.00000000000E+00 -0.46880331481E+00  0.46881024997E+00  0.25500000000E-02 0.  1.
         31    1    1    2    0    0  0.60454966244E+00  0.79595533297E-01  0.55959449471E+02  0.56456095569E+02  0.74470750000E+01 0.  1.
        -31    1    1    2    0    0 -0.60454966244E+00 -0.79595533297E-01  0.63084343210E+02  0.63525310704E+02  0.74470750000E+01 0. -1.
<mgrwt>
<rscale>  0 0.14970413E+02</rscale>
<asrwt>0</asrwt>
<pdfrwt beam="1">  1        2 0.99209021E+00 0.14970413E+02</pdfrwt>
<pdfrwt beam="2">  1       -2 0.99568233E+00 0.14970413E+02</pdfrwt>
<totfact>-0.14533514E-13</totfact>
</mgrwt>
</event>
<event>
 4    1 -0.5119137E-019  0.1493538E+02  0.7818608E-02  0.1870047E+00
          2   -1    0    0  501    0  0.00000000000E+00  0.00000000000E+00  0.11905366994E+03  0.11905366997E+03  0.25500000000E-02 0. -1.
         -2   -1    0    0    0  501 -0.00000000000E+00 -0.00000000000E+00 -0.46841060122E+00  0.46841754219E+00  0.25500000000E-02 0.  1.
         31    1    1    2    0    0 -0.43277288510E+00  0.32177127938E+00  0.60325629187E+02  0.60785946501E+02  0.74470750000E+01 0. -1.
        -31    1    1    2    0    0  0.43277288510E+00 -0.32177127938E+00  0.58259630154E+02  0.58736141011E+02  0.74470750000E+01 0.  1.
<mgrwt>
<rscale>  0 0.14935383E+02</rscale>
<asrwt>0</asrwt>
<pdfrwt beam="1">  1        2 0.98829224E+00 0.14935383E+02</pdfrwt>
<pdfrwt beam="2">  1       -2 0.99483655E+00 0.14935383E+02</pdfrwt>
<totfact>-0.21565815E-13</totfact>
</mgrwt>
</event>
<event>
 4    1  0.5119137E-019  0.1493428E+02  0.7818608E-02  0.1870081E+00
          2   -1    0    0  501    0  0.00000000000E+00  0.00000000000E+00  0.11973952732E+03  0.11973952734E+03  0.25500000000E-02 0. -1.
         -2   -1    0    0    0  501 -0.00000000000E+00 -0.00000000000E+00 -0.46565848264E+00  0.46566546464E+00  0.25500000000E-02 0.  1.
         31    1    1    2    0    0 -0.22643143011E+00  0.49792671755E+00  0.59672574482E+02  0.60137960337E+02  0.74470750000E+01 0.  1.
        -31    1    1    2    0    0  0.22643143011E+00 -0.49792671755E+00  0.59601294352E+02  0.60067232471E+02  0.74470750000E+01 0. -1.
<mgrwt>
<rscale>  0 0.14934276E+02</rscale>
<asrwt>0</asrwt>
<pdfrwt beam="1">  1        2 0.99394064E+00 0.14934276E+02</pdfrwt>
<pdfrwt beam="2">  1       -2 0.98903638E+00 0.14934276E+02</pdfrwt>
<totfact> 0.76860235E-14</totfact>
</mgrwt>
</event>
<event>
 4    1  0.5119137E-019  0.1491922E+02  0.7818608E-02  0.1870543E+00
          2   -1    0    0  501    0  0.00000000000E+00  0.00000000000E+00  0.11976865983E+03  0.11976865986E+03  0.25500000000E-02 0.  1.
         -2   -1    0    0    0  501 -0.00000000000E+00 -0.00000000000E+00 -0.46460729318E+00  0.46461429097E+00  0.25500000000E-02 0. -1.
         31    1    1    2    0    0 -0.41190808775E+00  0.12931335460E+00  0.59472021467E+02  0.59938023438E+02  0.74470750000E+01 0. -1.
        -31    1    1    2    0    0  0.41190808775E+00 -0.12931335460E+00  0.59832031075E+02  0.60295250715E+02  0.74470750000E+01 0.  1.
<mgrwt>
<rscale>  0 0.14919225E+02</rscale>
<asrwt>0</asrwt>
<pdfrwt beam="1">  1        2 0.99417283E+00 0.14919225E+02</pdfrwt>
<pdfrwt beam="2">  1       -2 0.98681330E+00 0.14919225E+02</pdfrwt>
<totfact> 0.28625839E-13</totfact>
</mgrwt>
</event>
<event>
 4    1 -0.5119137E-019  0.1494581E+02  0.7818608E-02  0.1869727E+00
          2   -1    0    0  501    0  0.00000000000E+00  0.00000000000E+00  0.11905399159E+03  0.11905399161E+03  0.25500000000E-02 0.  1.
         -2   -1    0    0    0  501 -0.00000000000E+00 -0.00000000000E+00 -0.46906375484E+00  0.46907068614E+00  0.25500000000E-02 0. -1.
         31    1    1    2    0    0  0.32997761774E+00  0.16570871042E-01  0.55089290847E+02  0.55591348715E+02  0.74470750000E+01 0. -1.
        -31    1    1    2    0    0 -0.32997761774E+00 -0.16570871042E-01  0.63495636985E+02  0.63931713585E+02  0.74470750000E+01 0.  1.
<mgrwt>
<rscale>  0 0.14945813E+02</rscale>
<asrwt>0</asrwt>
<pdfrwt beam="1">  1        2 0.98830031E+00 0.14945813E+02</pdfrwt>
<pdfrwt beam="2">  1       -2 0.99621830E+00 0.14945813E+02</pdfrwt>
<totfact>-0.19661649E-13</totfact>
</mgrwt>
</event>
<event>
 4    1  0.5119137E-019  0.1493632E+02  0.7818608E-02  0.1870018E+00
          2   -1    0    0  501    0  0.00000000000E+00  0.00000000000E+00  0.12042588256E+03  0.12042588259E+03  0.25500000000E-02 0.  1.
         -2   -1    0    0    0  501 -0.00000000000E+00 -0.00000000000E+00 -0.46313123210E+00  0.46313825219E+00  0.25500000000E-02 0. -1.
         31    1    1    2    0    0 -0.20148921249E+00 -0.70952918737E-01  0.64178021795E+02  0.64609001228E+02  0.74470750000E+01 0.  1.
        -31    1    1    2    0    0  0.20148921249E+00  0.70952918737E-01  0.55784729531E+02  0.56280019609E+02  0.74470750000E+01 0. -1.
<mgrwt>
<rscale>  0 0.14936320E+02</rscale>
<asrwt>0</asrwt>
<pdfrwt beam="1">  1        2 0.99959501E+00 0.14936320E+02</pdfrwt>
<pdfrwt beam="2">  1       -2 0.98371099E+00 0.14936320E+02</pdfrwt>
<totfact> 0.89825534E-14</totfact>
</mgrwt>
</event>
<event>
 4    1 -0.5119137E-019  0.1497926E+02  0.7818608E-02  0.1868702E+00
          2   -1    0    0  501    0  0.00000000000E+00  0.00000000000E+00  0.11966226018E+03  0.11966226021E+03  0.25500000000E-02 0. -1.
         -2   -1    0    0    0  501 -0.00000000000E+00 -0.00000000000E+00 -0.46877068629E+00  0.46877762193E+00  0.25500000000E-02 0.  1.
         31    1    1    2    0    0 -0.93686752987E-01  0.58802849659E+00  0.55344746168E+02  0.55846704551E+02  0.74470750000E+01 0.  1.
        -31    1    1    2    0    0  0.93686752987E-01 -0.58802849659E+00  0.63848743330E+02  0.64284333283E+02  0.74470750000E+01 0. -1.
<mgrwt>
<rscale>  0 0.14979263E+02</rscale>
<asrwt>0</asrwt>
<pdfrwt beam="1">  1        2 0.99332747E+00 0.14979263E+02</pdfrwt>
<pdfrwt beam="2">  1       -2 0.99561817E+00 0.14979263E+02</pdfrwt>
<totfact>-0.13358761E-13</totfact>
</mgrwt>
</event>
<event>
 4    1  0.5119137E-019  0.1492195E+02  0.7818608E-02  0.1870460E+00
         -2   -1    0    0    0  501 -0.00000000000E+00  0.00000000000E+00  0.11827200737E+03  0.11827200740E+03  0.25500000000E-02 0.  1.
          2   -1    0    0  501    0  0.00000000000E+00 -0.00000000000E+00 -0.47065861625E+00  0.47066552407E+00  0.25500000000E-02 0. -1.
         31    1    1    2    0    0  0.18298861614E-01 -0.45483837998E+00  0.58928507746E+02  0.59398949183E+02  0.74470750000E+01 0.  1.
        -31    1    1    2    0    0 -0.18298861614E-01  0.45483837998E+00  0.58872841010E+02  0.59343723741E+02  0.74470750000E+01 0.  1.
<mgrwt>
<rscale>  0 0.14921950E+02</rscale>
<asrwt>0</asrwt>
<pdfrwt beam="2">  1        2 0.99956613E+00 0.14921950E+02</pdfrwt>
<pdfrwt beam="1">  1       -2 0.98184750E+00 0.14921950E+02</pdfrwt>
<totfact> 0.14334159E-13</totfact>
</mgrwt>
</event>
<event>
 4    1  0.5119137E-019  0.1491162E+02  0.7818608E-02  0.1870778E+00
         -2   -1    0    0    0  501 -0.00000000000E+00  0.00000000000E+00  0.11848890087E+03  0.11848890090E+03  0.25500000000E-02 0. -1.
          2   -1    0    0  501    0  0.00000000000E+00 -0.00000000000E+00 -0.46914673796E+00  0.46915366805E+00  0.25500000000E-02 0.  1.
         31    1    1    2    0    0 -0.16861353789E+00 -0.25936376108E+00  0.60490974039E+02  0.60948441870E+02  0.74470750000E+01 0. -1.
        -31    1    1    2    0    0  0.16861353789E+00  0.25936376108E+00  0.57528780097E+02  0.58009612700E+02  0.74470750000E+01 0.  1.
<mgrwt>
<rscale>  0 0.14911619E+02</rscale>
<asrwt>0</asrwt>
<pdfrwt beam="2">  1        2 0.99637520E+00 0.14911619E+02</pdfrwt>
<pdfrwt beam="1">  1       -2 0.98362843E+00 0.14911619E+02</pdfrwt>
<totfact> 0.57571894E-13</totfact>
</mgrwt>
</event>
<event>
 4    1 -0.5119137E-019  0.1503516E+02  0.7818608E-02  0.1866997E+00
          2   -1    0    0  501    0  0.00000000000E+00  0.00000000000E+00  0.12023208231E+03  0.12023208234E+03  0.25500000000E-02 0. -1.
         -2   -1    0    0    0  501 -0.00000000000E+00 -0.00000000000E+00 -0.47003765149E+00  0.47004456844E+00  0.25500000000E-02 0.  1.
         31    1    1    2    0    0  0.28609845153E-01  0.12009349961E+00  0.51694607365E+02  0.52228407957E+02  0.74470750000E+01 0.  1.
        -31    1    1    2    0    0 -0.28609845153E-01 -0.12009349961E+00  0.68067437294E+02  0.68473718949E+02  0.74470750000E+01 0. -1.
<mgrwt>
<rscale>  0 0.15035162E+02</rscale>
<asrwt>0</asrwt>
<pdfrwt beam="1">  1        2 0.99804964E+00 0.15035162E+02</pdfrwt>
<pdfrwt beam="2">  1       -2 0.99831701E+00 0.15035162E+02</pdfrwt>
<totfact>-0.33120186E-14</totfact>
</mgrwt>
</event>
<event>
 4    1 -0.5119137E-019  0.1499459E+02  0.7818608E-02  0.1868234E+00
          2   -1    0    0  501    0  0.00000000000E+00  0.00000000000E+00  0.12015452366E+03  0.12015452369E+03  0.25500000000E-02 0. -1.
         -2   -1    0    0    0  501 -0.00000000000E+00 -0.00000000000E+00 -0.46780625977E+00  0.46781320971E+00  0.25500000000E-02 0.  1.
         31    1    1    2    0    0  0.78397030916E+00  0.16101348659E+00  0.62511359375E+02  0.62958474503E+02  0.74470750000E+01 0. -1.
        -31    1    1    2    0    0 -0.78397030916E+00 -0.16101348659E+00  0.57175358025E+02  0.57663862393E+02  0.74470750000E+01 0.  1.
<mgrwt>
<rscale>  0 0.14994594E+02</rscale>
<asrwt>0</asrwt>
<pdfrwt beam="1">  1        2 0.99738988E+00 0.14994594E+02</pdfrwt>
<pdfrwt beam="2">  1       -2 0.99359369E+00 0.14994594E+02</pdfrwt>
<totfact>-0.75503320E-14</totfact>
</mgrwt>
</event>
<event>
 4    1  0.5119137E-019  0.1489872E+02  0.7818608E-02  0.1871175E+00
          2   -1    0    0  501    0  0.00000000000E+00  0.00000000000E+00  0.12022200922E+03  0.12022200924E+03  0.25500000000E-02 0. -1.
         -2   -1    0    0    0  501 -0.00000000000E+00 -0.00000000000E+00 -0.46158391968E+00  0.46159096331E+00  0.25500000000E-02 0.  1.
         31    1    1    2    0    0  0.14989468304E+00 -0.10086817028E+00  0.59576691041E+02  0.60040600298E+02  0.74470750000E+01 0.  1.
        -31    1    1    2    0    0 -0.14989468304E+00  0.10086817028E+00  0.60183734256E+02  0.60642999908E+02  0.74470750000E+01 0.  1.
<mgrwt>
<rscale>  0 0.14898721E+02</rscale>
<asrwt>0</asrwt>
<pdfrwt beam="1">  1        2 0.99789644E+00 0.14898721E+02</pdfrwt>
<pdfrwt beam="2">  1       -2 0.98043068E+00 0.14898721E+02</pdfrwt>
<totfact> 0.75037276E-13</totfact>
</mgrwt>
</event>
<event>
 4    1  0.5119137E-019  0.1492259E+02  0.7818608E-02  0.1870440E+00
         -2   -1    0    0    0  501 -0.00000000000E+00  0.00000000000E+00  0.11904255894E+03  0.11904255897E+03  0.25500000000E-02 0.  1.
          2   -1    0    0  501    0  0.00000000000E+00 -0.00000000000E+00 -0.46765219677E+00  0.46765914900E+00  0.25500000000E-02 0. -1.
         31    1    1    2    0    0 -0.25879771189E+00 -0.91416984533E-01  0.62248194187E+02  0.62692678511E+02  0.74470750000E+01 0.  1.
        -31    1    1    2    0    0  0.25879771189E+00  0.91416984533E-01  0.56326712557E+02  0.56817539605E+02  0.74470750000E+01 0. -1.
<mgrwt>
<rscale>  0 0.14922591E+02</rscale>
<asrwt>0</asrwt>
<pdfrwt beam="2">  1        2 0.99323177E+00 0.14922591E+02</pdfrwt>
<pdfrwt beam="1">  1       -2 0.98819410E+00 0.14922591E+02</pdfrwt>
<totfact> 0.15651240E-13</totfact>
</mgrwt>
</event>
<event>
 4    1  0.5119137E-019  0.1491365E+02  0.7818608E-02  0.1870715E+00
         -2   -1    0    0    0  501 -0.00000000000E+00  0.00000000000E+00  0.11862141761E+03  0.11862141764E+03  0.25500000000E-02 0. -1.
          2   -1    0    0  501    0  0.00000000000E+00 -0.00000000000E+00 -0.46875017290E+00  0.46875710884E+00  0.25500000000E-02 0.  1.
         31    1    1    2    0    0 -0.76017356775E-01 -0.35880009651E+00  0.58247150210E+02  0.58722431402E+02  0.74470750000E+01 0.  1.
        -31    1    1    2    0    0  0.76017356775E-01  0.35880009651E+00  0.59905517228E+02  0.60367743345E+02  0.74470750000E+01 0.  1.
<mgrwt>
<rscale>  0 0.14913648E+02</rscale>
<asrwt>0</asrwt>
<pdfrwt beam="2">  1        2 0.99554069E+00 0.14913648E+02</pdfrwt>
<pdfrwt beam="1">  1       -2 0.98472089E+00 0.14913648E+02</pdfrwt>
<totfact> 0.49284282E-13</totfact>
</mgrwt>
</event>
<event>
 4    1 -0.5119137E-019  0.1493857E+02  0.7818608E-02  0.1869949E+00
         -2   -1    0    0    0  501 -0.00000000000E+00  0.00000000000E+00  0.12031463813E+03  0.12031463816E+03  0.25500000000E-02 0. -1.
          2   -1    0    0  501    0  0.00000000000E+00 -0.00000000000E+00 -0.46369885538E+00  0.46370586688E+00  0.25500000000E-02 0.  1.
         31    1    1    2    0    0  0.49852427731E+00 -0.21471673976E+00  0.61472839622E+02  0.61924660410E+02  0.74470750000E+01 0.  1.
        -31    1    1    2    0    0 -0.49852427731E+00  0.21471673976E+00  0.58378099651E+02  0.58853683612E+02  0.74470750000E+01 0.  1.
<mgrwt>
<rscale>  0 0.14938566E+02</rscale>
<asrwt>0</asrwt>
<pdfrwt beam="2">  1        2 0.98490851E+00 0.14938566E+02</pdfrwt>
<pdfrwt beam="1">  1       -2 0.99867985E+00 0.14938566E+02</pdfrwt>
<totfact>-0.14714813E-13</totfact>
</mgrwt>
</event>
<event>
 4    1 -0.5119137E-019  0.1493661E+02  0.7818608E-02  0.1870009E+00
         -2   -1    0    0    0  501 -0.00000000000E+00  0.00000000000E+00  0.11962331766E+03  0.11962331769E+03  0.25500000000E-02 0.  1.
          2   -1    0    0  501    0  0.00000000000E+00 -0.00000000000E+00 -0.46625673620E+00  0.46626370924E+00  0.25500000000E-02 0. -1.
         31    1    1    2    0    0 -0.55118606272E+00 -0.11264892402E+00  0.59685217116E+02  0.60150648908E+02  0.74470750000E+01 0.  1.
        -31    1    1    2    0    0  0.55118606272E+00  0.11264892402E+00  0.59471843809E+02  0.59938932489E+02  0.74470750000E+01 0.  1.
<mgrwt>
<rscale>  0 0.14936612E+02</rscale>
<asrwt>0</asrwt>
<pdfrwt beam="2">  1        2 0.99029836E+00 0.14936612E+02</pdfrwt>
<pdfrwt beam="1">  1       -2 0.99298468E+00 0.14936612E+02</pdfrwt>
<totfact>-0.15029009E-13</totfact>
</mgrwt>
</event>
<event>
 4    1 -0.5119137E-019  0.1500767E+02  0.7818608E-02  0.1867835E+00
          2   -1    0    0  501    0  0.00000000000E+00  0.00000000000E+00  0.11976618327E+03  0.11976618329E+03  0.25500000000E-02 0. -1.
         -2   -1    0    0    0  501 -0.00000000000E+00 -0.00000000000E+00 -0.47014204344E+00  0.47014895886E+00  0.25500000000E-02 0.  1.
         31    1    1    2    0    0  0.40727611105E+00  0.40339433002E+00  0.65425358176E+02  0.65850322849E+02  0.74470750000E+01 0.  1.
        -31    1    1    2    0    0 -0.40727611105E+00 -0.40339433002E+00  0.53870683047E+02  0.54386009403E+02  0.74470750000E+01 0.  1.
<mgrwt>
<rscale>  0 0.15007669E+02</rscale>
<asrwt>0</asrwt>
<pdfrwt beam="1">  1        2 0.99419812E+00 0.15007669E+02</pdfrwt>
<pdfrwt beam="2">  1       -2 0.99852273E+00 0.15007669E+02</pdfrwt>
<totfact>-0.59263305E-14</totfact>
</mgrwt>
</event>
<event>
 4    1 -0.5119137E-019  0.1496376E+02  0.7818608E-02  0.1869177E+00
         -2   -1    0    0    0  501 -0.00000000000E+00  0.00000000000E+00  0.11986240057E+03  0.11986240060E+03  0.25500000000E-02 0.  1.
          2   -1    0    0  501    0  0.00000000000E+00 -0.00000000000E+00 -0.46701949054E+00  0.46702645219E+00  0.25500000000E-02 0. -1.
         31    1    1    2    0    0  0.56293829166E+00 -0.26007659610E+00  0.62652640237E+02  0.63096725700E+02  0.74470750000E+01 0.  1.
        -31    1    1    2    0    0 -0.56293829166E+00  0.26007659610E+00  0.56742740846E+02  0.57232701353E+02  0.74470750000E+01 0. -1.
<mgrwt>
<rscale>  0 0.14963756E+02</rscale>
<asrwt>0</asrwt>
<pdfrwt beam="2">  1        2 0.99191977E+00 0.14963756E+02</pdfrwt>
<pdfrwt beam="1">  1       -2 0.99496789E+00 0.14963756E+02</pdfrwt>
<totfact>-0.15232944E-13</totfact>
</mgrwt>
</event>
<event>
 4    1  0.5119137E-019  0.1493161E+02  0.7818608E-02  0.1870163E+00
          2   -1    0    0  501    0  0.00000000000E+00  0.00000000000E+00  0.12007985309E+03  0.12007985311E+03  0.25500000000E-02 0.  1.
         -2   -1    0    0    0  501 -0.00000000000E+00 -0.00000000000E+00 -0.46417273757E+00  0.46417974192E+00  0.25500000000E-02 0. -1.
         31    1    1    2    0    0 -0.25997253528E+00 -0.45343276141E+00  0.60438620378E+02  0.60897938769E+02  0.74470750000E+01 0.  1.
        -31    1    1    2    0    0  0.25997253528E+00  0.45343276141E+00  0.59177059971E+02  0.59646094088E+02  0.74470750000E+01 0. -1.
<mgrwt>
<rscale>  0 0.14931606E+02</rscale>
<asrwt>0</asrwt>
<pdfrwt beam="1">  1        2 0.99674240E+00 0.14931606E+02</pdfrwt>
<pdfrwt beam="2">  1       -2 0.98590375E+00 0.14931606E+02</pdfrwt>
<totfact> 0.28707006E-13</totfact>
</mgrwt>
</event>
<event>
 4    1 -0.5119137E-019  0.1497651E+02  0.7818608E-02  0.1868786E+00
          2   -1    0    0  501    0  0.00000000000E+00  0.00000000000E+00  0.11974377032E+03  0.11974377035E+03  0.25500000000E-02 0.  1.
         -2   -1    0    0    0  501 -0.00000000000E+00 -0.00000000000E+00 -0.46827938764E+00  0.46828633056E+00  0.25500000000E-02 0. -1.
         31    1    1    2    0    0 -0.46988938479E+00 -0.59844891228E+00  0.61162718291E+02  0.61619120182E+02  0.74470750000E+01 0.  1.
        -31    1    1    2    0    0  0.46988938479E+00  0.59844891228E+00  0.58112772641E+02  0.58592936496E+02  0.74470750000E+01 0. -1.
<mgrwt>
<rscale>  0 0.14976509E+02</rscale>
<asrwt>0</asrwt>
<pdfrwt beam="1">  1        2 0.99399739E+00 0.14976509E+02</pdfrwt>
<pdfrwt beam="2">  1       -2 0.99458143E+00 0.14976509E+02</pdfrwt>
<totfact>-0.13081839E-13</totfact>
</mgrwt>
</event>
<event>
 4    1 -0.5119137E-019  0.1494444E+02  0.7818608E-02  0.1869769E+00
          2   -1    0    0  501    0  0.00000000000E+00  0.00000000000E+00  0.11913447056E+03  0.11913447058E+03  0.25500000000E-02 0. -1.
         -2   -1    0    0    0  501 -0.00000000000E+00 -0.00000000000E+00 -0.46866097586E+00  0.46866791313E+00  0.25500000000E-02 0.  1.
         31    1    1    2    0    0  0.13553105118E+00  0.50148332794E+00  0.61930101301E+02  0.62378411549E+02  0.74470750000E+01 0.  1.
        -31    1    1    2    0    0 -0.13553105118E+00 -0.50148332794E+00  0.56735708281E+02  0.57224726949E+02  0.74470750000E+01 0.  1.
<mgrwt>
<rscale>  0 0.14944443E+02</rscale>
<asrwt>0</asrwt>
<pdfrwt beam="1">  1        2 0.98896243E+00 0.14944443E+02</pdfrwt>
<pdfrwt beam="2">  1       -2 0.99536887E+00 0.14944443E+02</pdfrwt>
<totfact>-0.19616961E-13</totfact>
</mgrwt>
</event>
<event>
 4    1  0.5119137E-019  0.1490852E+02  0.7818608E-02  0.1870873E+00
         -2   -1    0    0    0  501 -0.00000000000E+00  0.00000000000E+00  0.11860986327E+03  0.11860986329E+03  0.25500000000E-02 0. -1.
          2   -1    0    0  501    0  0.00000000000E+00 -0.00000000000E+00 -0.46847331572E+00  0.46848025577E+00  0.25500000000E-02 0.  1.
         31    1    1    2    0    0  0.28208538135E+00  0.42912822991E-02  0.57747261413E+02  0.58226151490E+02  0.74470750000E+01 0.  1.
        -31    1    1    2    0    0 -0.28208538135E+00 -0.42912822991E-02  0.60394128538E+02  0.60852192060E+02  0.74470750000E+01 0.  1.
<mgrwt>
<rscale>  0 0.14908517E+02</rscale>
<asrwt>0</asrwt>
<pdfrwt beam="2">  1        2 0.99495463E+00 0.14908517E+02</pdfrwt>
<pdfrwt beam="1">  1       -2 0.98462306E+00 0.14908517E+02</pdfrwt>
<totfact> 0.54027761E-13</totfact>
</mgrwt>
</event>
<event>
 4    1 -0.5119137E-019  0.1494885E+02  0.7818608E-02  0.1869633E+00
          2   -1    0    0  501    0  0.00000000000E+00  0.00000000000E+00  0.11916400172E+03  0.11916400175E+03  0.25500000000E-02 0.  1.
         -2   -1    0    0    0  501 -0.00000000000E+00 -0.00000000000E+00 -0.46882098815E+00  0.46882792305E+00  0.25500000000E-02 0. -1.
         31    1    1    2    0    0  0.30657133200E+00 -0.39012044110E+00  0.56127559164E+02  0.56621621344E+02  0.74470750000E+01 0. -1.
        -31    1    1    2    0    0 -0.30657133200E+00  0.39012044110E+00  0.62567621567E+02  0.63011208325E+02  0.74470750000E+01 0.  1.
<mgrwt>
<rscale>  0 0.14948846E+02</rscale>
<asrwt>0</asrwt>
<pdfrwt beam="1">  1        2 0.98920794E+00 0.14948846E+02</pdfrwt>
<pdfrwt beam="2">  1       -2 0.99570834E+00 0.14948846E+02</pdfrwt>
<totfact>-0.18668257E-13</totfact>
</mgrwt>
</event>
<event>
 4    1  0.5119137E-019  0.1491850E+02  0.7818608E-02  0.1870566E+00
         -2   -1    0    0    0  501 -0.00000000000E+00  0.00000000000E+00  0.11827456579E+03  0.11827456582E+03  0.25500000000E-02 0. -1.
          2   -1    0    0  501    0  0.00000000000E+00 -0.00000000000E+00 -0.47043088565E+00  0.47043779682E+00  0.25500000000E-02 0.  1.
         31    1    1    2    0    0  0.37946857325E+00 -0.59110550098E-01  0.60369831865E+02  0.60828636479E+02  0.74470750000E+01 0. -1.
        -31    1    1    2    0    0 -0.37946857325E+00  0.59110550098E-01  0.57434303037E+02  0.57916367133E+02  0.74470750000E+01 0. -1.
<mgrwt>
<rscale>  0 0.14918501E+02</rscale>
<asrwt>0</asrwt>
<pdfrwt beam="2">  1        2 0.99908449E+00 0.14918501E+02</pdfrwt>
<pdfrwt beam="1">  1       -2 0.98186677E+00 0.14918501E+02</pdfrwt>
<totfact> 0.28568979E-13</totfact>
</mgrwt>
</event>
<event>
 4    1  0.5119137E-019  0.1490285E+02  0.7818608E-02  0.1871048E+00
         -2   -1    0    0    0  501 -0.00000000000E+00  0.00000000000E+00  0.11919570713E+03  0.11919570716E+03  0.25500000000E-02 0. -1.
          2   -1    0    0  501    0  0.00000000000E+00 -0.00000000000E+00 -0.46581652074E+00  0.46582350037E+00  0.25500000000E-02 0.  1.
         31    1    1    2    0    0  0.38966180737E-01  0.14640833938E+00  0.61007922056E+02  0.61460950476E+02  0.74470750000E+01 0. -1.
        -31    1    1    2    0    0 -0.38966180737E-01 -0.14640833938E+00  0.57721968556E+02  0.58200580184E+02  0.74470750000E+01 0. -1.
<mgrwt>
<rscale>  0 0.14902852E+02</rscale>
<asrwt>0</asrwt>
<pdfrwt beam="2">  1        2 0.98935325E+00 0.14902852E+02</pdfrwt>
<pdfrwt beam="1">  1       -2 0.98944526E+00 0.14902852E+02</pdfrwt>
<totfact> 0.67290126E-14</totfact>
</mgrwt>
</event>
<event>
 4    1 -0.5119137E-019  0.1498663E+02  0.7818608E-02  0.1868477E+00
          2   -1    0    0  501    0  0.00000000000E+00  0.00000000000E+00  0.11982802893E+03  0.11982802896E+03  0.25500000000E-02 0.  1.
         -2   -1    0    0    0  501 -0.00000000000E+00 -0.00000000000E+00 -0.46858260347E+00  0.46858954190E+00  0.25500000000E-02 0. -1.
         31    1    1    2    0    0 -0.71801007553E+00 -0.35238495623E+00  0.61494396346E+02  0.61948845200E+02  0.74470750000E+01 0.  1.
        -31    1    1    2    0    0  0.71801007553E+00  0.35238495623E+00  0.57865049982E+02  0.58347773300E+02  0.74470750000E+01 0. -1.
<mgrwt>
<rscale>  0 0.14986627E+02</rscale>
<asrwt>0</asrwt>
<pdfrwt beam="1">  1        2 0.99469661E+00 0.14986627E+02</pdfrwt>
<pdfrwt beam="2">  1       -2 0.99522564E+00 0.14986627E+02</pdfrwt>
<totfact>-0.12205848E-13</totfact>
</mgrwt>
</event>
<event>
 4    1 -0.5119137E-019  0.1490004E+02  0.7818608E-02  0.1871134E+00
          2   -1    0    0  501    0  0.00000000000E+00  0.00000000000E+00  0.11872904696E+03  0.11872904699E+03  0.25500000000E-02 0. -1.
         -2   -1    0    0    0  501 -0.00000000000E+00 -0.00000000000E+00 -0.46747075474E+00  0.46747770967E+00  0.25500000000E-02 0.  1.
         31    1    1    2    0    0 -0.11581896539E+00 -0.17444256623E+00  0.59144707963E+02  0.59612073024E+02  0.74470750000E+01 0. -1.
        -31    1    1    2    0    0  0.11581896539E+00  0.17444256623E+00  0.59116868241E+02  0.59584451671E+02  0.74470750000E+01 0.  1.
<mgrwt>
<rscale>  0 0.14900037E+02</rscale>
<asrwt>0</asrwt>
<pdfrwt beam="1">  1        2 0.98560026E+00 0.14900037E+02</pdfrwt>
<pdfrwt beam="2">  1       -2 0.99283767E+00 0.14900037E+02</pdfrwt>
<totfact>-0.26531599E-13</totfact>
</mgrwt>
</event>
<event>
 4    1 -0.5119137E-019  0.1494868E+02  0.7818608E-02  0.1869639E+00
          2   -1    0    0  501    0  0.00000000000E+00  0.00000000000E+00  0.11904846780E+03  0.11904846782E+03  0.25500000000E-02 0.  1.
         -2   -1    0    0    0  501 -0.00000000000E+00 -0.00000000000E+00 -0.46926562208E+00  0.46927255041E+00  0.25500000000E-02 0. -1.
         31    1    1    2    0    0 -0.49221198512E+00  0.48858917446E-01  0.62509425938E+02  0.62953410685E+02  0.74470750000E+01 0.  1.
        -31    1    1    2    0    0  0.49221198512E+00 -0.48858917446E-01  0.56069776237E+02  0.56564329689E+02  0.74470750000E+01 0. -1.
<mgrwt>
<rscale>  0 0.14948681E+02</rscale>
<asrwt>0</asrwt>
<pdfrwt beam="1">  1        2 0.98825630E+00 0.14948681E+02</pdfrwt>
<pdfrwt beam="2">  1       -2 0.99664517E+00 0.14948681E+02</pdfrwt>
<totfact>-0.18544540E-13</totfact>
</mgrwt>
</event>
<event>
 4    1  0.5119137E-019  0.1490361E+02  0.7818608E-02  0.1871024E+00
          2   -1    0    0  501    0  0.00000000000E+00  0.00000000000E+00  0.11996305315E+03  0.11996305318E+03  0.25500000000E-02 0. -1.
         -2   -1    0    0    0  501 -0.00000000000E+00 -0.00000000000E+00 -0.46288422619E+00  0.46289125003E+00  0.25500000000E-02 0.  1.
         31    1    1    2    0    0 -0.75090895539E-01  0.18506802120E-01  0.57697582064E+02  0.58176248446E+02  0.74470750000E+01 0.  1.
        -31    1    1    2    0    0  0.75090895539E-01 -0.18506802120E-01  0.61802586861E+02  0.62249695982E+02  0.74470750000E+01 0. -1.
<mgrwt>
<rscale>  0 0.14903614E+02</rscale>
<asrwt>0</asrwt>
<pdfrwt beam="1">  1        2 0.99576597E+00 0.14903614E+02</pdfrwt>
<pdfrwt beam="2">  1       -2 0.98317383E+00 0.14903614E+02</pdfrwt>
<totfact> 0.70045201E-13</totfact>
</mgrwt>
</event>
<event>
 4    1  0.5119137E-019  0.1494808E+02  0.7818608E-02  0.1869657E+00
          2   -1    0    0  501    0  0.00000000000E+00  0.00000000000E+00  0.12004053242E+03  0.12004053244E+03  0.25500000000E-02 0. -1.
         -2   -1    0    0    0  501 -0.00000000000E+00 -0.00000000000E+00 -0.46535001539E+00  0.46535700201E+00  0.25500000000E-02 0.  1.
         31    1    1    2    0    0 -0.13611851453E+00  0.63720941440E-01  0.54819563380E+02  0.55323286633E+02  0.74470750000E+01 0.  1.
        -31    1    1    2    0    0  0.13611851453E+00 -0.63720941440E-01  0.64755619022E+02  0.65182602814E+02  0.74470750000E+01 0. -1.
<mgrwt>
<rscale>  0 0.14948082E+02</rscale>
<asrwt>0</asrwt>
<pdfrwt beam="1">  1        2 0.99642701E+00 0.14948082E+02</pdfrwt>
<pdfrwt beam="2">  1       -2 0.98839335E+00 0.14948082E+02</pdfrwt>
<totfact> 0.97951261E-14</totfact>
</mgrwt>
</event>
<event>
 4    1 -0.5119137E-019  0.1499581E+02  0.7818608E-02  0.1868196E+00
         -2   -1    0    0    0  501 -0.00000000000E+00  0.00000000000E+00  0.12010264948E+03  0.12010264951E+03  0.25500000000E-02 0.  1.
          2   -1    0    0  501    0  0.00000000000E+00 -0.00000000000E+00 -0.46808445441E+00  0.46809140022E+00  0.25500000000E-02 0. -1.
         31    1    1    2    0    0  0.84682194675E+00 -0.54401749240E-01  0.58217072135E+02  0.58697584968E+02  0.74470750000E+01 0. -1.
        -31    1    1    2    0    0 -0.84682194675E+00  0.54401749240E-01  0.61417492890E+02  0.61873155940E+02  0.74470750000E+01 0.  1.
<mgrwt>
<rscale>  0 0.14995813E+02</rscale>
<asrwt>0</asrwt>
<pdfrwt beam="2">  1        2 0.99418059E+00 0.14995813E+02</pdfrwt>
<pdfrwt beam="1">  1       -2 0.99696324E+00 0.14995813E+02</pdfrwt>
<totfact>-0.10391657E-13</totfact>
</mgrwt>
</event>
<event>
 4    1 -0.5119137E-019  0.1502407E+02  0.7818608E-02  0.1867335E+00
          2   -1    0    0  501    0  0.00000000000E+00  0.00000000000E+00  0.12010074585E+03  0.12010074588E+03  0.25500000000E-02 0. -1.
         -2   -1    0    0    0  501 -0.00000000000E+00 -0.00000000000E+00 -0.46985757156E+00  0.46986449116E+00  0.25500000000E-02 0.  1.
         31    1    1    2    0    0 -0.25679084086E+00 -0.79046370533E+00  0.64069258524E+02  0.64505965525E+02  0.74470750000E+01 0. -1.
        -31    1    1    2    0    0  0.25679084086E+00  0.79046370533E+00  0.55561629756E+02  0.56064644845E+02  0.74470750000E+01 0. -1.
<mgrwt>
<rscale>  0 0.15024069E+02</rscale>
<asrwt>0</asrwt>
<pdfrwt beam="1">  1        2 0.99696217E+00 0.15024069E+02</pdfrwt>
<pdfrwt beam="2">  1       -2 0.99793178E+00 0.15024069E+02</pdfrwt>
<totfact>-0.54232449E-14</totfact>
</mgrwt>
</event>
<event>
 4    1  0.5119137E-019  0.1491231E+02  0.7818608E-02  0.1870756E+00
          2   -1    0    0  501    0  0.00000000000E+00  0.00000000000E+00  0.11982424857E+03  0.11982424859E+03  0.25500000000E-02 0. -1.
         -2   -1    0    0    0  501 -0.00000000000E+00 -0.00000000000E+00 -0.46396168214E+00  0.46396868967E+00  0.25500000000E-02 0.  1.
         31    1    1    2    0    0  0.11260131171E+00  0.33917705211E+00  0.58975231638E+02  0.59444634686E+02  0.74470750000E+01 0.  1.
        -31    1    1    2    0    0 -0.11260131171E+00 -0.33917705211E+00  0.60385055248E+02  0.60843582599E+02  0.74470750000E+01 0. -1.
<mgrwt>
<rscale>  0 0.14912315E+02</rscale>
<asrwt>0</asrwt>
<pdfrwt beam="1">  1        2 0.99462714E+00 0.14912315E+02</pdfrwt>
<pdfrwt beam="2">  1       -2 0.98544911E+00 0.14912315E+02</pdfrwt>
<totfact> 0.44085098E-13</totfact>
</mgrwt>
</event>
<event>
 4    1  0.5119137E-019  0.1490557E+02  0.7818608E-02  0.1870964E+00
         -2   -1    0    0    0  501 -0.00000000000E+00  0.00000000000E+00  0.11857015384E+03  0.11857015387E+03  0.25500000000E-02 0. -1.
          2   -1    0    0  501    0  0.00000000000E+00 -0.00000000000E+00 -0.46844490524E+00  0.46845184571E+00  0.25500000000E-02 0.  1.
         31    1    1    2    0    0 -0.13605160974E+00 -0.23139838080E+00  0.59962046003E+02  0.60423322833E+02  0.74470750000E+01 0. -1.
        -31    1    1    2    0    0  0.13605160974E+00  0.23139838080E+00  0.58139662931E+02  0.58615282880E+02  0.74470750000E+01 0. -1.
<mgrwt>
<rscale>  0 0.14905569E+02</rscale>
<asrwt>0</asrwt>
<pdfrwt beam="2">  1        2 0.99489322E+00 0.14905569E+02</pdfrwt>
<pdfrwt beam="1">  1       -2 0.98429448E+00 0.14905569E+02</pdfrwt>
<totfact> 0.59247094E-13</totfact>
</mgrwt>
</event>
<event>
 4    1  0.5119137E-019  0.1494627E+02  0.7818608E-02  0.1869712E+00
          2   -1    0    0  501    0  0.00000000000E+00  0.00000000000E+00  0.12022287268E+03  0.12022287270E+03  0.25500000000E-02 0. -1.
         -2   -1    0    0    0  501 -0.00000000000E+00 -0.00000000000E+00 -0.46453181040E+00  0.46453880933E+00  0.25500000000E-02 0.  1.
         31    1    1    2    0    0 -0.83871065780E-01 -0.24381582316E-01  0.64864749763E+02  0.65290905314E+02  0.74470750000E+01 0. -1.
        -31    1    1    2    0    0  0.83871065780E-01  0.24381582316E-01  0.54893591102E+02  0.55396506198E+02  0.74470750000E+01 0.  1.
<mgrwt>
<rscale>  0 0.14946273E+02</rscale>
<asrwt>0</asrwt>
<pdfrwt beam="1">  1        2 0.99792796E+00 0.14946273E+02</pdfrwt>
<pdfrwt beam="2">  1       -2 0.98666800E+00 0.14946273E+02</pdfrwt>
<totfact> 0.15846949E-13</totfact>
</mgrwt>
</event>
<event>
 4    1 -0.5119137E-019  0.1493509E+02  0.7818608E-02  0.1870056E+00
         -2   -1    0    0    0  501 -0.00000000000E+00  0.00000000000E+00  0.12002732959E+03  0.12002732962E+03  0.25500000000E-02 0.  1.
          2   -1    0    0  501    0  0.00000000000E+00 -0.00000000000E+00 -0.46459258904E+00  0.46459958706E+00  0.25500000000E-02 0. -1.
         31    1    1    2    0    0  0.39108690512E+00 -0.13804050302E+00  0.56835817496E+02  0.57323128671E+02  0.74470750000E+01 0. -1.
        -31    1    1    2    0    0 -0.39108690512E+00  0.13804050302E+00  0.62726919504E+02  0.63168800532E+02  0.74470750000E+01 0.  1.
<mgrwt>
<rscale>  0 0.14935090E+02</rscale>
<asrwt>0</asrwt>
<pdfrwt beam="2">  1        2 0.98679040E+00 0.14935090E+02</pdfrwt>
<pdfrwt beam="1">  1       -2 0.99631157E+00 0.14935090E+02</pdfrwt>
<totfact>-0.23789031E-13</totfact>
</mgrwt>
</event>
<event>
 4    1  0.5119137E-019  0.1493326E+02  0.7818608E-02  0.1870112E+00
         -2   -1    0    0    0  501 -0.00000000000E+00  0.00000000000E+00  0.11856466058E+03  0.11856466061E+03  0.25500000000E-02 0. -1.
          2   -1    0    0  501    0  0.00000000000E+00 -0.00000000000E+00 -0.47020856487E+00  0.47021547930E+00  0.25500000000E-02 0.  1.
         31    1    1    2    0    0 -0.41852357021E+00  0.80417352016E-01  0.61690674179E+02  0.62140001896E+02  0.74470750000E+01 0. -1.
        -31    1    1    2    0    0  0.41852357021E+00 -0.80417352016E-01  0.56403777840E+02  0.56894874194E+02  0.74470750000E+01 0.  1.
<mgrwt>
<rscale>  0 0.14933256E+02</rscale>
<asrwt>0</asrwt>
<pdfrwt beam="2">  1        2 0.99862389E+00 0.14933256E+02</pdfrwt>
<pdfrwt beam="1">  1       -2 0.98426364E+00 0.14933256E+02</pdfrwt>
<totfact> 0.23921720E-13</totfact>
</mgrwt>
</event>
<event>
 4    1 -0.5119137E-019  0.1494098E+02  0.7818608E-02  0.1869875E+00
          2   -1    0    0  501    0  0.00000000000E+00  0.00000000000E+00  0.11926181534E+03  0.11926181537E+03  0.25500000000E-02 0.  1.
         -2   -1    0    0    0  501 -0.00000000000E+00 -0.00000000000E+00 -0.46794386619E+00  0.46795081409E+00  0.25500000000E-02 0. -1.
         31    1    1    2    0    0  0.29961645274E+00  0.26929866748E+00  0.62862580124E+02  0.63303437487E+02  0.74470750000E+01 0.  1.
        -31    1    1    2    0    0 -0.29961645274E+00 -0.26929866748E+00  0.55931291351E+02  0.56426328695E+02  0.74470750000E+01 0.  1.
<mgrwt>
<rscale>  0 0.14940984E+02</rscale>
<asrwt>0</asrwt>
<pdfrwt beam="1">  1        2 0.99000948E+00 0.14940984E+02</pdfrwt>
<pdfrwt beam="2">  1       -2 0.99385596E+00 0.14940984E+02</pdfrwt>
<totfact>-0.17275729E-13</totfact>
</mgrwt>
</event>
<event>
 4    1  0.5119137E-019  0.1490582E+02  0.7818608E-02  0.1870956E+00
         -2   -1    0    0    0  501 -0.00000000000E+00  0.00000000000E+00  0.11809430700E+03  0.11809430703E+03  0.25500000000E-02 0. -1.
          2   -1    0    0  501    0  0.00000000000E+00 -0.00000000000E+00 -0.47034813987E+00  0.47035505226E+00  0.25500000000E-02 0.  1.
         31    1    1    2    0    0  0.22806082251E+00  0.14809385673E+00  0.57905771820E+02  0.58383313367E+02  0.74470750000E+01 0.  1.
        -31    1    1    2    0    0 -0.22806082251E+00 -0.14809385673E+00  0.59718187037E+02  0.60181348711E+02  0.74470750000E+01 0. -1.
<mgrwt>
<rscale>  0 0.14905818E+02</rscale>
<asrwt>0</asrwt>
<pdfrwt beam="2">  1        2 0.99890342E+00 0.14905818E+02</pdfrwt>
<pdfrwt beam="1">  1       -2 0.98037558E+00 0.14905818E+02</pdfrwt>
<totfact> 0.44154795E-13</totfact>
</mgrwt>
</event>
<event>
 4    1 -0.5119137E-019  0.1499467E+02  0.7818608E-02  0.1868231E+00
          2   -1    0    0  501    0  0.00000000000E+00  0.00000000000E+00  0.12013112900E+03  0.12013112902E+03  0.25500000000E-02 0.  1.
         -2   -1    0    0    0  501 -0.00000000000E+00 -0.00000000000E+00 -0.46790225246E+00  0.46790920097E+00  0.25500000000E-02 0. -1.
         31    1    1    2    0    0 -0.83694366337E+00 -0.16161383904E+00  0.61091195040E+02  0.61549326814E+02  0.74470750000E+01 0.  1.
        -31    1    1    2    0    0  0.83694366337E+00  0.16161383904E+00  0.58572031704E+02  0.59049711411E+02  0.74470750000E+01 0.  1.
<mgrwt>
<rscale>  0 0.14994672E+02</rscale>
<asrwt>0</asrwt>
<pdfrwt beam="1">  1        2 0.99719723E+00 0.14994672E+02</pdfrwt>
<pdfrwt beam="2">  1       -2 0.99379603E+00 0.14994672E+02</pdfrwt>
<totfact>-0.80963545E-14</totfact>
</mgrwt>
</event>
<event>
 4    1 -0.5119137E-019  0.1495188E+02  0.7818608E-02  0.1869541E+00
         -2   -1    0    0    0  501 -0.00000000000E+00  0.00000000000E+00  0.11976535121E+03  0.11976535123E+03  0.25500000000E-02 0.  1.
          2   -1    0    0  501    0  0.00000000000E+00 -0.00000000000E+00 -0.46665623059E+00  0.46666319766E+00  0.25500000000E-02 0. -1.
         31    1    1    2    0    0 -0.12735962936E+00  0.50791265984E+00  0.56467749017E+02  0.56959106391E+02  0.74470750000E+01 0. -1.
        -31    1    1    2    0    0  0.12735962936E+00 -0.50791265984E+00  0.62830945959E+02  0.63272908040E+02  0.74470750000E+01 0.  1.
<mgrwt>
<rscale>  0 0.14951879E+02</rscale>
<asrwt>0</asrwt>
<pdfrwt beam="2">  1        2 0.99114812E+00 0.14951879E+02</pdfrwt>
<pdfrwt beam="1">  1       -2 0.99416242E+00 0.14951879E+02</pdfrwt>
<totfact>-0.15957436E-13</totfact>
</mgrwt>
</event>
<event>
 4    1 -0.5119137E-019  0.1491970E+02  0.7818608E-02  0.1870529E+00
          2   -1    0    0  501    0  0.00000000000E+00  0.00000000000E+00  0.11857503236E+03  0.11857503239E+03  0.25500000000E-02 0. -1.
         -2   -1    0    0    0  501 -0.00000000000E+00 -0.00000000000E+00 -0.46931395297E+00  0.46932088059E+00  0.25500000000E-02 0.  1.
         31    1    1    2    0    0 -0.15558713011E+00  0.39394042126E+00  0.59890034397E+02  0.60352750911E+02  0.74470750000E+01 0.  1.
        -31    1    1    2    0    0  0.15558713011E+00 -0.39394042126E+00  0.58215684013E+02  0.58691602360E+02  0.74470750000E+01 0.  1.
<mgrwt>
<rscale>  0 0.14919696E+02</rscale>
<asrwt>0</asrwt>
<pdfrwt beam="1">  1        2 0.98434200E+00 0.14919696E+02</pdfrwt>
<pdfrwt beam="2">  1       -2 0.99673178E+00 0.14919696E+02</pdfrwt>
<totfact>-0.32668807E-13</totfact>
</mgrwt>
</event>
<event>
 4    1 -0.5119137E-019  0.1496119E+02  0.7818608E-02  0.1869255E+00
          2   -1    0    0  501    0  0.00000000000E+00  0.00000000000E+00  0.11953612324E+03  0.11953612326E+03  0.25500000000E-02 0. -1.
         -2   -1    0    0    0  501 -0.00000000000E+00 -0.00000000000E+00 -0.46813384312E+00  0.46814078820E+00  0.25500000000E-02 0.  1.
         31    1    1    2    0    0 -0.19978901074E+00  0.41843526568E+00  0.55248979447E+02  0.55750548515E+02  0.74470750000E+01 0.  1.
        -31    1    1    2    0    0  0.19978901074E+00 -0.41843526568E+00  0.63819009947E+02  0.64253715538E+02  0.74470750000E+01 0. -1.
<mgrwt>
<rscale>  0 0.14961193E+02</rscale>
<asrwt>0</asrwt>
<pdfrwt beam="1">  1        2 0.99227922E+00 0.14961193E+02</pdfrwt>
<pdfrwt beam="2">  1       -2 0.99426679E+00 0.14961193E+02</pdfrwt>
<totfact>-0.14723514E-13</totfact>
</mgrwt>
</event>
<event>
 4    1 -0.5119137E-019  0.1495553E+02  0.7818608E-02  0.1869429E+00
          2   -1    0    0  501    0  0.00000000000E+00  0.00000000000E+00  0.11956900968E+03  0.11956900971E+03  0.25500000000E-02 0.  1.
         -2   -1    0    0    0  501 -0.00000000000E+00 -0.00000000000E+00 -0.46765062526E+00  0.46765757751E+00  0.25500000000E-02 0. -1.
         31    1    1    2    0    0  0.19733640112E+00  0.61311723169E+00  0.61218141266E+02  0.61672802762E+02  0.74470750000E+01 0.  1.
        -31    1    1    2    0    0 -0.19733640112E+00 -0.61311723169E+00  0.57883217788E+02  0.58363864522E+02  0.74470750000E+01 0. -1.
<mgrwt>
<rscale>  0 0.14955526E+02</rscale>
<asrwt>0</asrwt>
<pdfrwt beam="1">  1        2 0.99254715E+00 0.14955526E+02</pdfrwt>
<pdfrwt beam="2">  1       -2 0.99324556E+00 0.14955526E+02</pdfrwt>
<totfact>-0.13146064E-13</totfact>
</mgrwt>
</event>
<event>
 4    1  0.5119137E-019  0.1494495E+02  0.7818608E-02  0.1869753E+00
          2   -1    0    0  501    0  0.00000000000E+00  0.00000000000E+00  0.12010928236E+03  0.12010928239E+03  0.25500000000E-02 0.  1.
         -2   -1    0    0    0  501 -0.00000000000E+00 -0.00000000000E+00 -0.46488905081E+00  0.46489604436E+00  0.25500000000E-02 0. -1.
         31    1    1    2    0    0  0.33419578094E+00 -0.51677699435E+00  0.59947751284E+02  0.60411675654E+02  0.74470750000E+01 0.  1.
        -31    1    1    2    0    0 -0.33419578094E+00  0.51677699435E+00  0.59696642024E+02  0.60162502776E+02  0.74470750000E+01 0. -1.
<mgrwt>
<rscale>  0 0.14944954E+02</rscale>
<asrwt>0</asrwt>
<pdfrwt beam="1">  1        2 0.99699167E+00 0.14944954E+02</pdfrwt>
<pdfrwt beam="2">  1       -2 0.98742025E+00 0.14944954E+02</pdfrwt>
<totfact> 0.15097237E-13</totfact>
</mgrwt>
</event>
<event>
 4    1 -0.5119137E-019  0.1490279E+02  0.7818608E-02  0.1871050E+00
         -2   -1    0    0    0  501 -0.00000000000E+00  0.00000000000E+00  0.11960487472E+03  0.11960487475E+03  0.25500000000E-02 0. -1.
          2   -1    0    0  501    0  0.00000000000E+00 -0.00000000000E+00 -0.46421877512E+00  0.46422577877E+00  0.25500000000E-02 0.  1.
         31    1    1    2    0    0 -0.21610263517E+00  0.71498744130E-01  0.58669113415E+02  0.59140304424E+02  0.74470750000E+01 0.  1.
        -31    1    1    2    0    0  0.21610263517E+00 -0.71498744130E-01  0.60471542528E+02  0.60928796100E+02  0.74470750000E+01 0.  1.
<mgrwt>
<rscale>  0 0.14902785E+02</rscale>
<asrwt>0</asrwt>
<pdfrwt beam="2">  1        2 0.98598608E+00 0.14902785E+02</pdfrwt>
<pdfrwt beam="1">  1       -2 0.99281533E+00 0.14902785E+02</pdfrwt>
<totfact>-0.24867795E-13</totfact>
</mgrwt>
</event>
<event>
 4    1  0.5119137E-019  0.1493623E+02  0.7818608E-02  0.1870021E+00
          2   -1    0    0  501    0  0.00000000000E+00  0.00000000000E+00  0.12034074445E+03  0.12034074448E+03  0.25500000000E-02 0.  1.
         -2   -1    0    0    0  501 -0.00000000000E+00 -0.00000000000E+00 -0.46345338141E+00  0.46346039663E+00  0.25500000000E-02 0. -1.
         31    1    1    2    0    0  0.14724870813E+00 -0.53986903202E+00  0.60150096042E+02  0.60611930515E+02  0.74470750000E+01 0. -1.
        -31    1    1    2    0    0 -0.14724870813E+00  0.53986903202E+00  0.59727195030E+02  0.60192274363E+02  0.74470750000E+01 0.  1.
<mgrwt>
<rscale>  0 0.14936231E+02</rscale>
<asrwt>0</asrwt>
<pdfrwt beam="1">  1        2 0.99889369E+00 0.14936231E+02</pdfrwt>
<pdfrwt beam="2">  1       -2 0.98438994E+00 0.14936231E+02</pdfrwt>
<totfact> 0.19182356E-13</totfact>
</mgrwt>
</event>
<event>
 4    1  0.5119137E-019  0.1489624E+02  0.7818608E-02  0.1871251E+00
          2   -1    0    0  501    0  0.00000000000E+00  0.00000000000E+00  0.12032403792E+03  0.12032403794E+03  0.25500000000E-02 0.  1.
         -2   -1    0    0    0  501 -0.00000000000E+00 -0.00000000000E+00 -0.46103879553E+00  0.46104584749E+00  0.25500000000E-02 0. -1.
         31    1    1    2    0    0 -0.79789045897E-01  0.89984867282E-01  0.59664116985E+02  0.60127200543E+02  0.74470750000E+01 0. -1.
        -31    1    1    2    0    0  0.79789045897E-01 -0.89984867282E-01  0.60198882138E+02  0.60657883249E+02  0.74470750000E+01 0.  1.
<mgrwt>
<rscale>  0 0.14896238E+02</rscale>
<asrwt>0</asrwt>
<pdfrwt beam="1">  1        2 0.99873558E+00 0.14896238E+02</pdfrwt>
<pdfrwt beam="2">  1       -2 0.97928042E+00 0.14896238E+02</pdfrwt>
<totfact> 0.59969560E-13</totfact>
</mgrwt>
</event>
<event>
 4    1 -0.5119137E-019  0.1497952E+02  0.7818608E-02  0.1868694E+00
          2   -1    0    0  501    0  0.00000000000E+00  0.00000000000E+00  0.11976921023E+03  0.11976921026E+03  0.25500000000E-02 0.  1.
         -2   -1    0    0    0  501 -0.00000000000E+00 -0.00000000000E+00 -0.46836813018E+00  0.46837507179E+00  0.25500000000E-02 0. -1.
         31    1    1    2    0    0  0.15962225359E+00 -0.34783195229E+00  0.54025315168E+02  0.54537510682E+02  0.74470750000E+01 0. -1.
        -31    1    1    2    0    0 -0.15962225359E+00  0.34783195229E+00  0.65275526930E+02  0.65700074645E+02  0.74470750000E+01 0.  1.
<mgrwt>
<rscale>  0 0.14979519E+02</rscale>
<asrwt>0</asrwt>
<pdfrwt beam="1">  1        2 0.99420848E+00 0.14979519E+02</pdfrwt>
<pdfrwt beam="2">  1       -2 0.99476999E+00 0.14979519E+02</pdfrwt>
<totfact>-0.12870797E-13</totfact>
</mgrwt>
</event>
<event>
 4    1 -0.5119137E-019  0.1499836E+02  0.7818608E-02  0.1868119E+00
         -2   -1    0    0    0  501 -0.00000000000E+00  0.00000000000E+00  0.12007790494E+03  0.12007790497E+03  0.25500000000E-02 0. -1.
          2   -1    0    0  501    0  0.00000000000E+00 -0.00000000000E+00 -0.46833971959E+00  0.46834666161E+00  0.25500000000E-02 0.  1.
         31    1    1    2    0    0 -0.25381714652E+00 -0.79156520656E+00  0.57423955160E+02  0.57910798224E+02  0.74470750000E+01 0.  1.
        -31    1    1    2    0    0  0.25381714652E+00  0.79156520656E+00  0.62185610059E+02  0.62635453404E+02  0.74470750000E+01 0. -1.
<mgrwt>
<rscale>  0 0.14998356E+02</rscale>
<asrwt>0</asrwt>
<pdfrwt beam="2">  1        2 0.99471985E+00 0.14998356E+02</pdfrwt>
<pdfrwt beam="1">  1       -2 0.99676075E+00 0.14998356E+02</pdfrwt>
<totfact>-0.10309927E-13</totfact>
</mgrwt>
</event>
<event>
 4    1  0.5119137E-019  0.1490382E+02  0.7818608E-02  0.1871018E+00
          2   -1    0    0  501    0  0.00000000000E+00  0.00000000000E+00  0.11983491305E+03  0.11983491308E+03  0.25500000000E-02 0. -1.
         -2   -1    0    0    0  501 -0.00000000000E+00 -0.00000000000E+00 -0.46339223924E+00  0.46339925538E+00  0.25500000000E-02 0.  1.
         31    1    1    2    0    0 -0.65786253317E-01  0.19628663440E-01  0.61780552151E+02  0.62227809405E+02  0.74470750000E+01 0. -1.
        -31    1    1    2    0    0  0.65786253317E-01 -0.19628663440E-01  0.57590968660E+02  0.58070502929E+02  0.74470750000E+01 0.  1.
<mgrwt>
<rscale>  0 0.14903824E+02</rscale>
<asrwt>0</asrwt>
<pdfrwt beam="1">  1        2 0.99471061E+00 0.14903824E+02</pdfrwt>
<pdfrwt beam="2">  1       -2 0.98424464E+00 0.14903824E+02</pdfrwt>
<totfact> 0.61083463E-13</totfact>
</mgrwt>
</event>
<event>
 4    1 -0.5119137E-019  0.1494381E+02  0.7818608E-02  0.1869788E+00
          2   -1    0    0  501    0  0.00000000000E+00  0.00000000000E+00  0.11893677163E+03  0.11893677165E+03  0.25500000000E-02 0.  1.
         -2   -1    0    0    0  501 -0.00000000000E+00 -0.00000000000E+00 -0.46940047967E+00  0.46940740601E+00  0.25500000000E-02 0. -1.
         31    1    1    2    0    0  0.19533525978E+00  0.44564234606E+00  0.62155505516E+02  0.62601937230E+02  0.74470750000E+01 0.  1.
        -31    1    1    2    0    0 -0.19533525978E+00 -0.44564234606E+00  0.56311865630E+02  0.56804241829E+02  0.74470750000E+01 0. -1.
<mgrwt>
<rscale>  0 0.14943814E+02</rscale>
<asrwt>0</asrwt>
<pdfrwt beam="1">  1        2 0.98733383E+00 0.14943814E+02</pdfrwt>
<pdfrwt beam="2">  1       -2 0.99692678E+00 0.14943814E+02</pdfrwt>
<totfact>-0.19836521E-13</totfact>
</mgrwt>
</event>
<event>
 4    1  0.5119137E-019  0.1492684E+02  0.7818608E-02  0.1870309E+00
         -2   -1    0    0    0  501 -0.00000000000E+00  0.00000000000E+00  0.11833026467E+03  0.11833026469E+03  0.25500000000E-02 0.  1.
          2   -1    0    0  501    0  0.00000000000E+00 -0.00000000000E+00 -0.47073540362E+00  0.47074231032E+00  0.25500000000E-02 0. -1.
         31    1    1    2    0    0  0.42415922242E+00  0.19306585112E-01  0.60934502220E+02  0.61389353886E+02  0.74470750000E+01 0.  1.
        -31    1    1    2    0    0 -0.42415922242E+00 -0.19306585112E-01  0.56925027044E+02  0.57411653119E+02  0.74470750000E+01 0. -1.
<mgrwt>
<rscale>  0 0.14926843E+02</rscale>
<asrwt>0</asrwt>
<pdfrwt beam="2">  1        2 0.99973051E+00 0.14926843E+02</pdfrwt>
<pdfrwt beam="1">  1       -2 0.98232985E+00 0.14926843E+02</pdfrwt>
<totfact> 0.82298415E-14</totfact>
</mgrwt>
</event>
<event>
 4    1  0.5119137E-019  0.1493855E+02  0.7818608E-02  0.1869949E+00
          2   -1    0    0  501    0  0.00000000000E+00  0.00000000000E+00  0.12039432917E+03  0.12039432920E+03  0.25500000000E-02 0.  1.
         -2   -1    0    0    0  501 -0.00000000000E+00 -0.00000000000E+00 -0.46339117923E+00  0.46339819538E+00  0.25500000000E-02 0. -1.
         31    1    1    2    0    0 -0.35534236510E+00 -0.45263197964E+00  0.59924362577E+02  0.60388072500E+02  0.74470750000E+01 0. -1.
        -31    1    1    2    0    0  0.35534236510E+00  0.45263197964E+00  0.60006575415E+02  0.60469654894E+02  0.74470750000E+01 0.  1.
<mgrwt>
<rscale>  0 0.14938554E+02</rscale>
<asrwt>0</asrwt>
<pdfrwt beam="1">  1        2 0.99933625E+00 0.14938554E+02</pdfrwt>
<pdfrwt beam="2">  1       -2 0.98426001E+00 0.14938554E+02</pdfrwt>
<totfact> 0.12497461E-13</totfact>
</mgrwt>
</event>
<event>
 4    1  0.5119137E-019  0.1492811E+02  0.7818608E-02  0.1870270E+00
          2   -1    0    0  501    0  0.00000000000E+00  0.00000000000E+00  0.11997155242E+03  0.11997155245E+03  0.25500000000E-02 0.  1.
         -2   -1    0    0    0  501 -0.00000000000E+00 -0.00000000000E+00 -0.46437414668E+00  0.46438114798E+00  0.25500000000E-02 0. -1.
         31    1    1    2    0    0  0.41743291401E+00 -0.20619052770E+00  0.58213948331E+02  0.58690199106E+02  0.74470750000E+01 0. -1.
        -31    1    1    2    0    0 -0.41743291401E+00  0.20619052770E+00  0.61293229946E+02  0.61745734493E+02  0.74470750000E+01 0. -1.
<mgrwt>
<rscale>  0 0.14928109E+02</rscale>
<asrwt>0</asrwt>
<pdfrwt beam="1">  1        2 0.99584856E+00 0.14928109E+02</pdfrwt>
<pdfrwt beam="2">  1       -2 0.98632646E+00 0.14928109E+02</pdfrwt>
<totfact> 0.28800059E-13</totfact>
</mgrwt>
</event>
<event>
 4    1 -0.5119137E-019  0.1494844E+02  0.7818608E-02  0.1869646E+00
          2   -1    0    0  501    0  0.00000000000E+00  0.00000000000E+00  0.11874549442E+03  0.11874549445E+03  0.25500000000E-02 0.  1.
         -2   -1    0    0    0  501 -0.00000000000E+00 -0.00000000000E+00 -0.47044805933E+00  0.47045497025E+00  0.25500000000E-02 0. -1.
         31    1    1    2    0    0 -0.33849967567E+00 -0.51261962577E+00  0.60465186894E+02  0.60925159935E+02  0.74470750000E+01 0.  1.
        -31    1    1    2    0    0  0.33849967567E+00  0.51261962577E+00  0.57809859469E+02  0.58290789485E+02  0.74470750000E+01 0. -1.
<mgrwt>
<rscale>  0 0.14948445E+02</rscale>
<asrwt>0</asrwt>
<pdfrwt beam="1">  1        2 0.98576088E+00 0.14948445E+02</pdfrwt>
<pdfrwt beam="2">  1       -2 0.99913652E+00 0.14948445E+02</pdfrwt>
<totfact>-0.87292169E-14</totfact>
</mgrwt>
</event>
<event>
 4    1  0.5119137E-019  0.1492416E+02  0.7818608E-02  0.1870392E+00
         -2   -1    0    0    0  501 -0.00000000000E+00  0.00000000000E+00  0.11863754282E+03  0.11863754285E+03  0.25500000000E-02 0. -1.
          2   -1    0    0  501    0  0.00000000000E+00 -0.00000000000E+00 -0.46934714278E+00  0.46935406990E+00  0.25500000000E-02 0.  1.
         31    1    1    2    0    0  0.82885512911E-01 -0.10081371830E+00  0.62712046314E+02  0.63152804470E+02  0.74470750000E+01 0. -1.
        -31    1    1    2    0    0 -0.82885512911E-01  0.10081371830E+00  0.55456149367E+02  0.55954092452E+02  0.74470750000E+01 0.  1.
<mgrwt>
<rscale>  0 0.14924156E+02</rscale>
<asrwt>0</asrwt>
<pdfrwt beam="2">  1        2 0.99680406E+00 0.14924156E+02</pdfrwt>
<pdfrwt beam="1">  1       -2 0.98485916E+00 0.14924156E+02</pdfrwt>
<totfact> 0.38828935E-13</totfact>
</mgrwt>
</event>
<event>
 4    1 -0.5119137E-019  0.1498006E+02  0.7818608E-02  0.1868677E+00
          2   -1    0    0  501    0  0.00000000000E+00  0.00000000000E+00  0.11974283345E+03  0.11974283348E+03  0.25500000000E-02 0. -1.
         -2   -1    0    0    0  501 -0.00000000000E+00 -0.00000000000E+00 -0.46850538524E+00  0.46851232481E+00  0.25500000000E-02 0.  1.
         31    1    1    2    0    0  0.65096473961E-01 -0.26900771144E+00  0.65669369238E+02  0.66090858558E+02  0.74470750000E+01 0. -1.
        -31    1    1    2    0    0 -0.65096473961E-01  0.26900771144E+00  0.53604958827E+02  0.54120487245E+02  0.74470750000E+01 0.  1.
<mgrwt>
<rscale>  0 0.14980064E+02</rscale>
<asrwt>0</asrwt>
<pdfrwt beam="1">  1        2 0.99399151E+00 0.14980064E+02</pdfrwt>
<pdfrwt beam="2">  1       -2 0.99505952E+00 0.14980064E+02</pdfrwt>
<totfact>-0.13050123E-13</totfact>
</mgrwt>
</event>
<event>
 4    1 -0.5119137E-019  0.1496520E+02  0.7818608E-02  0.1869132E+00
          2   -1    0    0  501    0  0.00000000000E+00  0.00000000000E+00  0.11936674557E+03  0.11936674559E+03  0.25500000000E-02 0.  1.
         -2   -1    0    0    0  501 -0.00000000000E+00 -0.00000000000E+00 -0.46904955140E+00  0.46905648292E+00  0.25500000000E-02 0. -1.
         31    1    1    2    0    0 -0.36485701735E+00 -0.23973484730E+00  0.64116793706E+02  0.64549304834E+02  0.74470750000E+01 0.  1.
        -31    1    1    2    0    0  0.36485701735E+00  0.23973484730E+00  0.54780902310E+02  0.55286497243E+02  0.74470750000E+01 0.  1.
<mgrwt>
<rscale>  0 0.14965204E+02</rscale>
<asrwt>0</asrwt>
<pdfrwt beam="1">  1        2 0.99088626E+00 0.14965204E+02</pdfrwt>
<pdfrwt beam="2">  1       -2 0.99619850E+00 0.14965204E+02</pdfrwt>
<totfact>-0.15132806E-13</totfact>
</mgrwt>
</event>
<event>
 4    1 -0.5119137E-019  0.1500286E+02  0.7818608E-02  0.1867981E+00
          2   -1    0    0  501    0  0.00000000000E+00  0.00000000000E+00  0.11979039951E+03  0.11979039954E+03  0.25500000000E-02 0. -1.
         -2   -1    0    0    0  501 -0.00000000000E+00 -0.00000000000E+00 -0.46974607515E+00  0.46975299640E+00  0.25500000000E-02 0.  1.
         31    1    1    2    0    0 -0.42383363980E+00  0.44318722613E+00  0.64956297673E+02  0.65384673917E+02  0.74470750000E+01 0. -1.
        -31    1    1    2    0    0  0.42383363980E+00 -0.44318722613E+00  0.54364355762E+02  0.54875478616E+02  0.74470750000E+01 0.  1.
<mgrwt>
<rscale>  0 0.15002865E+02</rscale>
<asrwt>0</asrwt>
<pdfrwt beam="1">  1        2 0.99439508E+00 0.15002865E+02</pdfrwt>
<pdfrwt beam="2">  1       -2 0.99768583E+00 0.15002865E+02</pdfrwt>
<totfact>-0.84213377E-14</totfact>
</mgrwt>
</event>
<event>
 4    1  0.5119137E-019  0.1489508E+02  0.7818608E-02  0.1871287E+00
         -2   -1    0    0    0  501 -0.00000000000E+00  0.00000000000E+00  0.11865008366E+03  0.11865008369E+03  0.25500000000E-02 0.  1.
          2   -1    0    0  501    0  0.00000000000E+00 -0.00000000000E+00 -0.46747059218E+00  0.46747754711E+00  0.25500000000E-02 0. -1.
         31    1    1    2    0    0  0.58988132103E-01  0.57967990313E-01  0.59022148517E+02  0.59490165418E+02  0.74470750000E+01 0. -1.
        -31    1    1    2    0    0 -0.58988132103E-01 -0.57967990313E-01  0.59160464549E+02  0.59627395815E+02  0.74470750000E+01 0.  1.
<mgrwt>
<rscale>  0 0.14895078E+02</rscale>
<asrwt>0</asrwt>
<pdfrwt beam="2">  1        2 0.99283474E+00 0.14895078E+02</pdfrwt>
<pdfrwt beam="1">  1       -2 0.98494734E+00 0.14895078E+02</pdfrwt>
<totfact> 0.58800176E-13</totfact>
</mgrwt>
</event>
<event>
 4    1 -0.5119137E-019  0.1494714E+02  0.7818608E-02  0.1869686E+00
          2   -1    0    0  501    0  0.00000000000E+00  0.00000000000E+00  0.11882738679E+03  0.11882738682E+03  0.25500000000E-02 0. -1.
         -2   -1    0    0    0  501 -0.00000000000E+00 -0.00000000000E+00 -0.47004186416E+00  0.47004878105E+00  0.25500000000E-02 0.  1.
         31    1    1    2    0    0 -0.52070575212E+00  0.25888194742E+00  0.57270156195E+02  0.57755241070E+02  0.74470750000E+01 0.  1.
        -31    1    1    2    0    0  0.52070575212E+00 -0.25888194742E+00  0.61087188734E+02  0.61542194532E+02  0.74470750000E+01 0. -1.
<mgrwt>
<rscale>  0 0.14947142E+02</rscale>
<asrwt>0</asrwt>
<pdfrwt beam="1">  1        2 0.98643467E+00 0.14947142E+02</pdfrwt>
<pdfrwt beam="2">  1       -2 0.99827997E+00 0.14947142E+02</pdfrwt>
<totfact>-0.14565064E-13</totfact>
</mgrwt>
</event>
<event>
 4    1  0.5119137E-019  0.1495431E+02  0.7818608E-02  0.1869466E+00
          2   -1    0    0  501    0  0.00000000000E+00  0.00000000000E+00  0.12039918700E+03  0.12039918703E+03  0.25500000000E-02 0.  1.
         -2   -1    0    0    0  501 -0.00000000000E+00 -0.00000000000E+00 -0.46435029498E+00  0.46435729664E+00  0.25500000000E-02 0. -1.
         31    1    1    2    0    0  0.28030388674E+00 -0.16886680846E+00  0.64692634670E+02  0.65120680224E+02  0.74470750000E+01 0.  1.
        -31    1    1    2    0    0 -0.28030388674E+00  0.16886680846E+00  0.55242202034E+02  0.55742864098E+02  0.74470750000E+01 0. -1.
<mgrwt>
<rscale>  0 0.14954307E+02</rscale>
<asrwt>0</asrwt>
<pdfrwt beam="1">  1        2 0.99938435E+00 0.14954307E+02</pdfrwt>
<pdfrwt beam="2">  1       -2 0.98628950E+00 0.14954307E+02</pdfrwt>
<totfact> 0.63624067E-14</totfact>
</mgrwt>
</event>
<event>
 4    1  0.5119137E-019  0.1492079E+02  0.7818608E-02  0.1870495E+00
          2   -1    0    0  501    0  0.00000000000E+00  0.00000000000E+00  0.11998729524E+03  0.11998729527E+03  0.25500000000E-02 0.  1.
         -2   -1    0    0    0  501 -0.00000000000E+00 -0.00000000000E+00 -0.46385814550E+00  0.46386515460E+00  0.25500000000E-02 0. -1.
         31    1    1    2    0    0 -0.33141547546E+00 -0.82256642601E-01  0.62073101858E+02  0.62519161084E+02  0.74470750000E+01 0.  1.
        -31    1    1    2    0    0  0.33141547546E+00  0.82256642601E-01  0.57450335239E+02  0.57931999340E+02  0.74470750000E+01 0. -1.
<mgrwt>
<rscale>  0 0.14920792E+02</rscale>
<asrwt>0</asrwt>
<pdfrwt beam="1">  1        2 0.99597447E+00 0.14920792E+02</pdfrwt>
<pdfrwt beam="2">  1       -2 0.98523522E+00 0.14920792E+02</pdfrwt>
<totfact> 0.40236258E-13</totfact>
</mgrwt>
</event>
<event>
 4    1 -0.5119137E-019  0.1490890E+02  0.7818608E-02  0.1870861E+00
          2   -1    0    0  501    0  0.00000000000E+00  0.00000000000E+00  0.11830970142E+03  0.11830970145E+03  0.25500000000E-02 0. -1.
         -2   -1    0    0    0  501 -0.00000000000E+00 -0.00000000000E+00 -0.46968591889E+00  0.46969284101E+00  0.25500000000E-02 0.  1.
         31    1    1    2    0    0  0.26103095216E+00 -0.17793509640E+00  0.59720264381E+02  0.60183624864E+02  0.74470750000E+01 0. -1.
        -31    1    1    2    0    0 -0.26103095216E+00  0.17793509640E+00  0.58119751124E+02  0.58595769428E+02  0.74470750000E+01 0.  1.
<mgrwt>
<rscale>  0 0.14908898E+02</rscale>
<asrwt>0</asrwt>
<pdfrwt beam="1">  1        2 0.98215114E+00 0.14908898E+02</pdfrwt>
<pdfrwt beam="2">  1       -2 0.99750981E+00 0.14908898E+02</pdfrwt>
<totfact>-0.39340596E-13</totfact>
</mgrwt>
</event>
<event>
 4    1 -0.5119137E-019  0.1494593E+02  0.7818608E-02  0.1869723E+00
          2   -1    0    0  501    0  0.00000000000E+00  0.00000000000E+00  0.11888385635E+03  0.11888385638E+03  0.25500000000E-02 0.  1.
         -2   -1    0    0    0  501 -0.00000000000E+00 -0.00000000000E+00 -0.46974241590E+00  0.46974933720E+00  0.25500000000E-02 0. -1.
         31    1    1    2    0    0 -0.49554166531E+00 -0.24168626574E+00  0.61498056333E+02  0.61949768625E+02  0.74470750000E+01 0. -1.
        -31    1    1    2    0    0  0.49554166531E+00  0.24168626574E+00  0.56916057600E+02  0.57403837089E+02  0.74470750000E+01 0.  1.
<mgrwt>
<rscale>  0 0.14945930E+02</rscale>
<asrwt>0</asrwt>
<pdfrwt beam="1">  1        2 0.98689912E+00 0.14945930E+02</pdfrwt>
<pdfrwt beam="2">  1       -2 0.99764838E+00 0.14945930E+02</pdfrwt>
<totfact>-0.17483121E-13</totfact>
</mgrwt>
</event>
<event>
 4    1 -0.5119137E-019  0.1503798E+02  0.7818608E-02  0.1866912E+00
          2   -1    0    0  501    0  0.00000000000E+00  0.00000000000E+00  0.12019374097E+03  0.12019374100E+03  0.25500000000E-02 0. -1.
         -2   -1    0    0    0  501 -0.00000000000E+00 -0.00000000000E+00 -0.47036358002E+00  0.47037049218E+00  0.25500000000E-02 0.  1.
         31    1    1    2    0    0  0.22663498021E+00  0.96505723066E+00  0.62315919196E+02  0.62767152319E+02  0.74470750000E+01 0. -1.
        -31    1    1    2    0    0 -0.22663498021E+00 -0.96505723066E+00  0.57407458195E+02  0.57896959172E+02  0.74470750000E+01 0.  1.
<mgrwt>
<rscale>  0 0.15037976E+02</rscale>
<asrwt>0</asrwt>
<pdfrwt beam="1">  1        2 0.99773530E+00 0.15037976E+02</pdfrwt>
<pdfrwt beam="2">  1       -2 0.99900530E+00 0.15037976E+02</pdfrwt>
<totfact>-0.23319061E-14</totfact>
</mgrwt>
</event>
<event>
 4    1 -0.5119137E-019  0.1498507E+02  0.7818608E-02  0.1868524E+00
         -2   -1    0    0    0  501 -0.00000000000E+00  0.00000000000E+00  0.12028586488E+03  0.12028586491E+03  0.25500000000E-02 0.  1.
          2   -1    0    0  501    0  0.00000000000E+00 -0.00000000000E+00 -0.46670233794E+00  0.46670930432E+00  0.25500000000E-02 0. -1.
         31    1    1    2    0    0  0.46396843855E+00  0.64910340091E+00  0.61572550379E+02  0.62026401541E+02  0.74470750000E+01 0. -1.
        -31    1    1    2    0    0 -0.46396843855E+00 -0.64910340091E+00  0.58246612162E+02  0.58726172669E+02  0.74470750000E+01 0. -1.
<mgrwt>
<rscale>  0 0.14985075E+02</rscale>
<asrwt>0</asrwt>
<pdfrwt beam="2">  1        2 0.99126232E+00 0.14985075E+02</pdfrwt>
<pdfrwt beam="1">  1       -2 0.99846677E+00 0.14985075E+02</pdfrwt>
<totfact>-0.76221463E-14</totfact>
</mgrwt>
</event>
<event>
 4    1 -0.5119137E-019  0.1499413E+02  0.7818608E-02  0.1868248E+00
          2   -1    0    0  501    0  0.00000000000E+00  0.00000000000E+00  0.12027339911E+03  0.12027339914E+03  0.25500000000E-02 0.  1.
         -2   -1    0    0    0  501 -0.00000000000E+00 -0.00000000000E+00 -0.46731470726E+00  0.46732166451E+00  0.25500000000E-02 0. -1.
         31    1    1    2    0    0 -0.33233006798E+00 -0.53299010879E+00  0.55122099803E+02  0.55626426583E+02  0.74470750000E+01 0. -1.
        -31    1    1    2    0    0  0.33233006798E+00  0.53299010879E+00  0.64683984605E+02  0.65114294223E+02  0.74470750000E+01 0.  1.
<mgrwt>
<rscale>  0 0.14994126E+02</rscale>
<asrwt>0</asrwt>
<pdfrwt beam="1">  1        2 0.99836876E+00 0.14994126E+02</pdfrwt>
<pdfrwt beam="2">  1       -2 0.99255752E+00 0.14994126E+02</pdfrwt>
<totfact>-0.43857859E-14</totfact>
</mgrwt>
</event>
<event>
 4    1 -0.5119137E-019  0.1492362E+02  0.7818608E-02  0.1870408E+00
          2   -1    0    0  501    0  0.00000000000E+00  0.00000000000E+00  0.11848170373E+03  0.11848170375E+03  0.25500000000E-02 0. -1.
         -2   -1    0    0    0  501 -0.00000000000E+00 -0.00000000000E+00 -0.46993092460E+00  0.46993784312E+00  0.25500000000E-02 0.  1.
         31    1    1    2    0    0 -0.23162723923E+00  0.19374621093E+00  0.56148474405E+02  0.56640985981E+02  0.74470750000E+01 0.  1.
        -31    1    1    2    0    0  0.23162723923E+00 -0.19374621093E+00  0.61863298397E+02  0.62310655616E+02  0.74470750000E+01 0. -1.
<mgrwt>
<rscale>  0 0.14923623E+02</rscale>
<asrwt>0</asrwt>
<pdfrwt beam="1">  1        2 0.98357540E+00 0.14923623E+02</pdfrwt>
<pdfrwt beam="2">  1       -2 0.99803381E+00 0.14923623E+02</pdfrwt>
<totfact>-0.25758404E-13</totfact>
</mgrwt>
</event>
<event>
 4    1  0.5119137E-019  0.1491258E+02  0.7818608E-02  0.1870748E+00
         -2   -1    0    0    0  501 -0.00000000000E+00  0.00000000000E+00  0.11831856036E+03  0.11831856039E+03  0.25500000000E-02 0.  1.
          2   -1    0    0  501    0  0.00000000000E+00 -0.00000000000E+00 -0.46988255113E+00  0.46988947036E+00  0.25500000000E-02 0. -1.
         31    1    1    2    0    0 -0.31385561655E+00 -0.18762764302E+00  0.58446130936E+02  0.58919800211E+02  0.74470750000E+01 0.  1.
        -31    1    1    2    0    0  0.31385561655E+00  0.18762764302E+00  0.59402546878E+02  0.59868649652E+02  0.74470750000E+01 0. -1.
<mgrwt>
<rscale>  0 0.14912577E+02</rscale>
<asrwt>0</asrwt>
<pdfrwt beam="2">  1        2 0.99792605E+00 0.14912577E+02</pdfrwt>
<pdfrwt beam="1">  1       -2 0.98222602E+00 0.14912577E+02</pdfrwt>
<totfact> 0.52978779E-13</totfact>
</mgrwt>
</event>
<event>
 4    1 -0.5119137E-019  0.1490439E+02  0.7818608E-02  0.1871000E+00
         -2   -1    0    0    0  501 -0.00000000000E+00  0.00000000000E+00  0.12028298107E+03  0.12028298110E+03  0.25500000000E-02 0. -1.
          2   -1    0    0  501    0  0.00000000000E+00 -0.00000000000E+00 -0.46170097021E+00  0.46170801205E+00  0.25500000000E-02 0.  1.
         31    1    1    2    0    0  0.21657215667E+00 -0.16706257687E+00  0.60219804249E+02  0.60679144384E+02  0.74470750000E+01 0.  1.
        -31    1    1    2    0    0 -0.21657215667E+00  0.16706257687E+00  0.59601475855E+02  0.60065544729E+02  0.74470750000E+01 0.  1.
<mgrwt>
<rscale>  0 0.14904388E+02</rscale>
<asrwt>0</asrwt>
<pdfrwt beam="2">  1        2 0.98068025E+00 0.14904388E+02</pdfrwt>
<pdfrwt beam="1">  1       -2 0.99840157E+00 0.14904388E+02</pdfrwt>
<totfact>-0.35290763E-13</totfact>
</mgrwt>
</event>
<event>
 4    1 -0.5119137E-019  0.1492543E+02  0.7818608E-02  0.1870353E+00
         -2   -1    0    0    0  501 -0.00000000000E+00  0.00000000000E+00  0.11993577482E+03  0.11993577485E+03  0.25500000000E-02 0.  1.
          2   -1    0    0  501    0  0.00000000000E+00 -0.00000000000E+00 -0.46434570717E+00  0.46435270891E+00  0.25500000000E-02 0. -1.
         31    1    1    2    0    0  0.20866558841E+00 -0.37528439275E+00  0.61517351133E+02  0.61967957818E+02  0.74470750000E+01 0.  1.
        -31    1    1    2    0    0 -0.20866558841E+00  0.37528439275E+00  0.57954077982E+02  0.58432169740E+02  0.74470750000E+01 0. -1.
<mgrwt>
<rscale>  0 0.14925426E+02</rscale>
<asrwt>0</asrwt>
<pdfrwt beam="2">  1        2 0.98626516E+00 0.14925426E+02</pdfrwt>
<pdfrwt beam="1">  1       -2 0.99555249E+00 0.14925426E+02</pdfrwt>
<totfact>-0.27771221E-13</totfact>
</mgrwt>
</event>
<event>
 4    1  0.5119137E-019  0.1494499E+02  0.7818608E-02  0.1869752E+00
         -2   -1    0    0    0  501 -0.00000000000E+00  0.00000000000E+00  0.11882826332E+03  0.11882826334E+03  0.25500000000E-02 0.  1.
          2   -1    0    0  501    0  0.00000000000E+00 -0.00000000000E+00 -0.46990318934E+00  0.46991010827E+00  0.25500000000E-02 0. -1.
         31    1    1    2    0    0 -0.31977028020E+00  0.46562251287E+00  0.57220446018E+02  0.57705783297E+02  0.74470750000E+01 0.  1.
        -31    1    1    2    0    0  0.31977028020E+00 -0.46562251287E+00  0.61137914110E+02  0.61592390156E+02  0.74470750000E+01 0.  1.
<mgrwt>
<rscale>  0 0.14944992E+02</rscale>
<asrwt>0</asrwt>
<pdfrwt beam="2">  1        2 0.99798664E+00 0.14944992E+02</pdfrwt>
<pdfrwt beam="1">  1       -2 0.98644077E+00 0.14944992E+02</pdfrwt>
<totfact> 0.16877519E-13</totfact>
</mgrwt>
</event>
<event>
 4    1  0.5119137E-019  0.1491403E+02  0.7818608E-02  0.1870703E+00
         -2   -1    0    0    0  501 -0.00000000000E+00  0.00000000000E+00  0.11899607188E+03  0.11899607191E+03  0.25500000000E-02 0.  1.
          2   -1    0    0  501    0  0.00000000000E+00 -0.00000000000E+00 -0.46729848562E+00  0.46730544311E+00  0.25500000000E-02 0. -1.
         31    1    1    2    0    0 -0.24986965200E+00 -0.21801677383E+00  0.57698632562E+02  0.58178183984E+02  0.74470750000E+01 0. -1.
        -31    1    1    2    0    0  0.24986965200E+00  0.21801677383E+00  0.60830140836E+02  0.61285193369E+02  0.74470750000E+01 0.  1.
<mgrwt>
<rscale>  0 0.14914034E+02</rscale>
<asrwt>0</asrwt>
<pdfrwt beam="2">  1        2 0.99248197E+00 0.14914034E+02</pdfrwt>
<pdfrwt beam="1">  1       -2 0.98780679E+00 0.14914034E+02</pdfrwt>
<totfact> 0.20624552E-13</totfact>
</mgrwt>
</event>
<event>
 4    1 -0.5119137E-019  0.1499452E+02  0.7818608E-02  0.1868236E+00
          2   -1    0    0  501    0  0.00000000000E+00  0.00000000000E+00  0.11988899035E+03  0.11988899038E+03  0.25500000000E-02 0.  1.
         -2   -1    0    0    0  501 -0.00000000000E+00 -0.00000000000E+00 -0.46883783563E+00  0.46884477028E+00  0.25500000000E-02 0. -1.
         31    1    1    2    0    0 -0.72671729704E-01  0.48256446273E+00  0.65452669311E+02  0.65876771291E+02  0.74470750000E+01 0.  1.
        -31    1    1    2    0    0  0.72671729704E-01 -0.48256446273E+00  0.53967483201E+02  0.54481063855E+02  0.74470750000E+01 0. -1.
<mgrwt>
<rscale>  0 0.14994521E+02</rscale>
<asrwt>0</asrwt>
<pdfrwt beam="1">  1        2 0.99520279E+00 0.14994521E+02</pdfrwt>
<pdfrwt beam="2">  1       -2 0.99576758E+00 0.14994521E+02</pdfrwt>
<totfact>-0.11204717E-13</totfact>
</mgrwt>
</event>
<event>
 4    1  0.5119137E-019  0.1491437E+02  0.7818608E-02  0.1870693E+00
         -2   -1    0    0    0  501 -0.00000000000E+00  0.00000000000E+00  0.11826875392E+03  0.11826875395E+03  0.25500000000E-02 0.  1.
          2   -1    0    0  501    0  0.00000000000E+00 -0.00000000000E+00 -0.47019320540E+00  0.47020012006E+00  0.25500000000E-02 0. -1.
         31    1    1    2    0    0  0.20209673883E+00  0.86606733796E-01  0.56352798171E+02  0.56843162575E+02  0.74470750000E+01 0. -1.
        -31    1    1    2    0    0 -0.20209673883E+00 -0.86606733796E-01  0.61445762544E+02  0.61895791493E+02  0.74470750000E+01 0.  1.
<mgrwt>
<rscale>  0 0.14914366E+02</rscale>
<asrwt>0</asrwt>
<pdfrwt beam="2">  1        2 0.99858153E+00 0.14914366E+02</pdfrwt>
<pdfrwt beam="1">  1       -2 0.98181675E+00 0.14914366E+02</pdfrwt>
<totfact> 0.42276135E-13</totfact>
</mgrwt>
</event>
<event>
 4    1 -0.5119137E-019  0.1492941E+02  0.7818608E-02  0.1870230E+00
         -2   -1    0    0    0  501 -0.00000000000E+00  0.00000000000E+00  0.12028346356E+03  0.12028346359E+03  0.25500000000E-02 0. -1.
          2   -1    0    0  501    0  0.00000000000E+00 -0.00000000000E+00 -0.46325095287E+00  0.46325797115E+00  0.25500000000E-02 0.  1.
         31    1    1    2    0    0 -0.14799152857E+00 -0.62293399874E-01  0.55971515360E+02  0.56464991275E+02  0.74470750000E+01 0.  1.
        -31    1    1    2    0    0  0.14799152857E+00  0.62293399874E-01  0.63848697248E+02  0.64281730284E+02  0.74470750000E+01 0. -1.
<mgrwt>
<rscale>  0 0.14929415E+02</rscale>
<asrwt>0</asrwt>
<pdfrwt beam="2">  1        2 0.98395983E+00 0.14929415E+02</pdfrwt>
<pdfrwt beam="1">  1       -2 0.99841838E+00 0.14929415E+02</pdfrwt>
<totfact>-0.20142623E-13</totfact>
</mgrwt>
</event>
<event>
 4    1 -0.5119137E-019  0.1496982E+02  0.7818608E-02  0.1868991E+00
          2   -1    0    0  501    0  0.00000000000E+00  0.00000000000E+00  0.11919390793E+03  0.11919390796E+03  0.25500000000E-02 0.  1.
         -2   -1    0    0    0  501 -0.00000000000E+00 -0.00000000000E+00 -0.47001968209E+00  0.47002659930E+00  0.25500000000E-02 0. -1.
         31    1    1    2    0    0  0.27364099413E-01  0.26341667257E+00  0.64985057444E+02  0.65410906997E+02  0.74470750000E+01 0.  1.
        -31    1    1    2    0    0 -0.27364099413E-01 -0.26341667257E+00  0.53738830807E+02  0.54253027562E+02  0.74470750000E+01 0. -1.
<mgrwt>
<rscale>  0 0.14969823E+02</rscale>
<asrwt>0</asrwt>
<pdfrwt beam="1">  1        2 0.98946514E+00 0.14969823E+02</pdfrwt>
<pdfrwt beam="2">  1       -2 0.99824514E+00 0.14969823E+02</pdfrwt>
<totfact>-0.10056472E-13</totfact>
</mgrwt>
</event>
<event>
 4    1  0.5119137E-019  0.1493764E+02  0.7818608E-02  0.1869978E+00
         -2   -1    0    0    0  501 -0.00000000000E+00  0.00000000000E+00  0.11866102097E+03  0.11866102100E+03  0.25500000000E-02 0. -1.
          2   -1    0    0  501    0  0.00000000000E+00 -0.00000000000E+00 -0.47010232233E+00  0.47010923833E+00  0.25500000000E-02 0.  1.
         31    1    1    2    0    0 -0.50537481441E+00  0.25381230899E+00  0.58561376399E+02  0.59035697304E+02  0.74470750000E+01 0. -1.
        -31    1    1    2    0    0  0.50537481441E+00 -0.25381230899E+00  0.59629542253E+02  0.60095432936E+02  0.74470750000E+01 0.  1.
<mgrwt>
<rscale>  0 0.14937635E+02</rscale>
<asrwt>0</asrwt>
<pdfrwt beam="2">  1        2 0.99840235E+00 0.14937635E+02</pdfrwt>
<pdfrwt beam="1">  1       -2 0.98505954E+00 0.14937635E+02</pdfrwt>
<totfact> 0.21867476E-13</totfact>
</mgrwt>
</event>
<event>
 4    1  0.5119137E-019  0.1492663E+02  0.7818608E-02  0.1870316E+00
          2   -1    0    0  501    0  0.00000000000E+00  0.00000000000E+00  0.12009003324E+03  0.12009003326E+03  0.25500000000E-02 0. -1.
         -2   -1    0    0    0  501 -0.00000000000E+00 -0.00000000000E+00 -0.46382395312E+00  0.46383096273E+00  0.25500000000E-02 0.  1.
         31    1    1    2    0    0 -0.42655231502E+00 -0.23168569941E+00  0.60464592671E+02  0.60923406980E+02  0.74470750000E+01 0.  1.
        -31    1    1    2    0    0  0.42655231502E+00  0.23168569941E+00  0.59161616611E+02  0.59630457245E+02  0.74470750000E+01 0. -1.
<mgrwt>
<rscale>  0 0.14926628E+02</rscale>
<asrwt>0</asrwt>
<pdfrwt beam="1">  1        2 0.99682370E+00 0.14926628E+02</pdfrwt>
<pdfrwt beam="2">  1       -2 0.98516612E+00 0.14926628E+02</pdfrwt>
<totfact> 0.35450799E-13</totfact>
</mgrwt>
</event>
<event>
 4    1 -0.5119137E-019  0.1494790E+02  0.7818608E-02  0.1869663E+00
         -2   -1    0    0    0  501 -0.00000000000E+00  0.00000000000E+00  0.12005130220E+03  0.12005130223E+03  0.25500000000E-02 0. -1.
          2   -1    0    0  501    0  0.00000000000E+00 -0.00000000000E+00 -0.46529680397E+00  0.46530379139E+00  0.25500000000E-02 0.  1.
         31    1    1    2    0    0  0.29167838190E+00  0.95677488310E-01  0.55327591370E+02  0.55827372527E+02  0.74470750000E+01 0.  1.
        -31    1    1    2    0    0 -0.29167838190E+00 -0.95677488310E-01  0.64258414031E+02  0.64689233496E+02  0.74470750000E+01 0.  1.
<mgrwt>
<rscale>  0 0.14947897E+02</rscale>
<asrwt>0</asrwt>
<pdfrwt beam="2">  1        2 0.98828111E+00 0.14947897E+02</pdfrwt>
<pdfrwt beam="1">  1       -2 0.99651562E+00 0.14947897E+02</pdfrwt>
<totfact>-0.18888403E-13</totfact>
</mgrwt>
</event>
<event>
 4    1 -0.5119137E-019  0.1493976E+02  0.7818608E-02  0.1869912E+00
         -2   -1    0    0    0  501 -0.00000000000E+00  0.00000000000E+00  0.11989056442E+03  0.11989056445E+03  0.25500000000E-02 0.  1.
          2   -1    0    0  501    0  0.00000000000E+00 -0.00000000000E+00 -0.46541350001E+00  0.46542048568E+00  0.25500000000E-02 0. -1.
         31    1    1    2    0    0 -0.41439480386E-01  0.56259546849E+00  0.60906189216E+02  0.61362374805E+02  0.74470750000E+01 0. -1.
        -31    1    1    2    0    0  0.41439480386E-01 -0.56259546849E+00  0.58518961706E+02  0.58993610129E+02  0.74470750000E+01 0. -1.
<mgrwt>
<rscale>  0 0.14939760E+02</rscale>
<asrwt>0</asrwt>
<pdfrwt beam="2">  1        2 0.98852289E+00 0.14939760E+02</pdfrwt>
<pdfrwt beam="1">  1       -2 0.99518749E+00 0.14939760E+02</pdfrwt>
<totfact>-0.20807929E-13</totfact>
</mgrwt>
</event>
<event>
 4    1  0.5119137E-019  0.1491143E+02  0.7818608E-02  0.1870783E+00
         -2   -1    0    0    0  501 -0.00000000000E+00  0.00000000000E+00  0.11824612668E+03  0.11824612671E+03  0.25500000000E-02 0. -1.
          2   -1    0    0  501    0  0.00000000000E+00 -0.00000000000E+00 -0.47009828830E+00  0.47010520436E+00  0.25500000000E-02 0.  1.
         31    1    1    2    0    0  0.24908053310E+00  0.11175398124E+00  0.60742492465E+02  0.61197907211E+02  0.74470750000E+01 0.  1.
        -31    1    1    2    0    0 -0.24908053310E+00 -0.11175398124E+00  0.57033535931E+02  0.57518324706E+02  0.74470750000E+01 0.  1.
<mgrwt>
<rscale>  0 0.14911434E+02</rscale>
<asrwt>0</asrwt>
<pdfrwt beam="2">  1        2 0.99837999E+00 0.14911434E+02</pdfrwt>
<pdfrwt beam="1">  1       -2 0.98162887E+00 0.14911434E+02</pdfrwt>
<totfact> 0.48968387E-13</totfact>
</mgrwt>
</event>
<event>
 4    1 -0.5119137E-019  0.1490985E+02  0.7818608E-02  0.1870832E+00
          2   -1    0    0  501    0  0.00000000000E+00  0.00000000000E+00  0.11900643969E+03  0.11900643972E+03  0.25500000000E-02 0.  1.
         -2   -1    0    0    0  501 -0.00000000000E+00 -0.00000000000E+00 -0.46699540853E+00  0.46700237054E+00  0.25500000000E-02 0. -1.
         31    1    1    2    0    0  0.28710336129E+00 -0.16065290657E+00  0.60017760980E+02  0.60478912001E+02  0.74470750000E+01 0. -1.
        -31    1    1    2    0    0 -0.28710336129E+00  0.16065290657E+00  0.58521683301E+02  0.58994530087E+02  0.74470750000E+01 0.  1.
<mgrwt>
<rscale>  0 0.14909846E+02</rscale>
<asrwt>0</asrwt>
<pdfrwt beam="1">  1        2 0.98789001E+00 0.14909846E+02</pdfrwt>
<pdfrwt beam="2">  1       -2 0.99184114E+00 0.14909846E+02</pdfrwt>
<totfact>-0.14005886E-13</totfact>
</mgrwt>
</event>
<event>
 4    1 -0.5119137E-019  0.1496425E+02  0.7818608E-02  0.1869162E+00
          2   -1    0    0  501    0  0.00000000000E+00  0.00000000000E+00  0.11915093452E+03  0.11915093454E+03  0.25500000000E-02 0. -1.
         -2   -1    0    0    0  501 -0.00000000000E+00 -0.00000000000E+00 -0.46983892653E+00  0.46984584640E+00  0.25500000000E-02 0.  1.
         31    1    1    2    0    0  0.43102345342E+00 -0.20061940021E+00  0.54982605160E+02  0.55486681516E+02  0.74470750000E+01 0.  1.
        -31    1    1    2    0    0 -0.43102345342E+00  0.20061940021E+00  0.63698490429E+02  0.64134098874E+02  0.74470750000E+01 0. -1.
<mgrwt>
<rscale>  0 0.14964246E+02</rscale>
<asrwt>0</asrwt>
<pdfrwt beam="1">  1        2 0.98910831E+00 0.14964246E+02</pdfrwt>
<pdfrwt beam="2">  1       -2 0.99786134E+00 0.14964246E+02</pdfrwt>
<totfact>-0.12266585E-13</totfact>
</mgrwt>
</event>
<event>
 4    1 -0.5119137E-019  0.1497407E+02  0.7818608E-02  0.1868861E+00
          2   -1    0    0  501    0  0.00000000000E+00  0.00000000000E+00  0.11965378009E+03  0.11965378012E+03  0.25500000000E-02 0. -1.
         -2   -1    0    0    0  501 -0.00000000000E+00 -0.00000000000E+00 -0.46847912576E+00  0.46848606572E+00  0.25500000000E-02 0.  1.
         31    1    1    2    0    0 -0.48865600199E+00 -0.50142206539E+00  0.62211589102E+02  0.62659643739E+02  0.74470750000E+01 0.  1.
        -31    1    1    2    0    0  0.48865600199E+00  0.50142206539E+00  0.56973711861E+02  0.57462622443E+02  0.74470750000E+01 0.  1.
<mgrwt>
<rscale>  0 0.14974073E+02</rscale>
<asrwt>0</asrwt>
<pdfrwt beam="1">  1        2 0.99325494E+00 0.14974073E+02</pdfrwt>
<pdfrwt beam="2">  1       -2 0.99500108E+00 0.14974073E+02</pdfrwt>
<totfact>-0.13825072E-13</totfact>
</mgrwt>
</event>
<event>
 4    1  0.5119137E-019  0.1493719E+02  0.7818608E-02  0.1869991E+00
         -2   -1    0    0    0  501 -0.00000000000E+00  0.00000000000E+00  0.11873899323E+03  0.11873899326E+03  0.25500000000E-02 0.  1.
          2   -1    0    0  501    0  0.00000000000E+00 -0.00000000000E+00 -0.46976561442E+00  0.46977253537E+00  0.25500000000E-02 0. -1.
         31    1    1    2    0    0 -0.23465395574E+00  0.35474324945E+00  0.56147679058E+02  0.56640989530E+02  0.74470750000E+01 0. -1.
        -31    1    1    2    0    0  0.23465395574E+00 -0.35474324945E+00  0.62121548558E+02  0.62567776263E+02  0.74470750000E+01 0.  1.
<mgrwt>
<rscale>  0 0.14937190E+02</rscale>
<asrwt>0</asrwt>
<pdfrwt beam="2">  1        2 0.99769266E+00 0.14937190E+02</pdfrwt>
<pdfrwt beam="1">  1       -2 0.98570148E+00 0.14937190E+02</pdfrwt>
<totfact> 0.24075590E-13</totfact>
</mgrwt>
</event>
<event>
 4    1 -0.5119137E-019  0.1503078E+02  0.7818608E-02  0.1867131E+00
         -2   -1    0    0    0  501 -0.00000000000E+00  0.00000000000E+00  0.12044842453E+03  0.12044842456E+03  0.25500000000E-02 0.  1.
          2   -1    0    0  501    0  0.00000000000E+00 -0.00000000000E+00 -0.46892002698E+00  0.46892696041E+00  0.25500000000E-02 0. -1.
         31    1    1    2    0    0  0.32814013587E+00 -0.94769950161E+00  0.58960698994E+02  0.59437603941E+02  0.74470750000E+01 0. -1.
        -31    1    1    2    0    0 -0.32814013587E+00  0.94769950161E+00  0.61018805511E+02  0.61479747579E+02  0.74470750000E+01 0. -1.
<mgrwt>
<rscale>  0 0.15030782E+02</rscale>
<asrwt>0</asrwt>
<pdfrwt beam="2">  1        2 0.99595949E+00 0.15030782E+02</pdfrwt>
<pdfrwt beam="1">  1       -2 0.99982926E+00 0.15030782E+02</pdfrwt>
<totfact>-0.62870438E-15</totfact>
</mgrwt>
</event>
<event>
 4    1 -0.5119137E-019  0.1497214E+02  0.7818608E-02  0.1868920E+00
          2   -1    0    0  501    0  0.00000000000E+00  0.00000000000E+00  0.11938917016E+03  0.11938917019E+03  0.25500000000E-02 0. -1.
         -2   -1    0    0    0  501 -0.00000000000E+00 -0.00000000000E+00 -0.46939645198E+00  0.46940337838E+00  0.25500000000E-02 0.  1.
         31    1    1    2    0    0 -0.70915845687E+00 -0.17925607018E+00  0.57718725230E+02  0.58201762917E+02  0.74470750000E+01 0. -1.
        -31    1    1    2    0    0  0.70915845687E+00  0.17925607018E+00  0.61201048483E+02  0.61656810653E+02  0.74470750000E+01 0.  1.
<mgrwt>
<rscale>  0 0.14972143E+02</rscale>
<asrwt>0</asrwt>
<pdfrwt beam="1">  1        2 0.99107455E+00 0.14972143E+02</pdfrwt>
<pdfrwt beam="2">  1       -2 0.99693311E+00 0.14972143E+02</pdfrwt>
<totfact>-0.13202742E-13</totfact>
</mgrwt>
</event>
<event>
 4    1 -0.5119137E-019  0.1498514E+02  0.7818608E-02  0.1868522E+00
         -2   -1    0    0    0  501 -0.00000000000E+00  0.00000000000E+00  0.12027497429E+03  0.12027497432E+03  0.25500000000E-02 0.  1.
          2   -1    0    0  501    0  0.00000000000E+00 -0.00000000000E+00 -0.46674872710E+00  0.46675569278E+00  0.25500000000E-02 0. -1.
         31    1    1    2    0    0  0.40929132007E+00  0.19312885500E+00  0.54351677307E+02  0.54861357715E+02  0.74470750000E+01 0.  1.
        -31    1    1    2    0    0 -0.40929132007E+00 -0.19312885500E+00  0.65456548260E+02  0.65880372299E+02  0.74470750000E+01 0. -1.
<mgrwt>
<rscale>  0 0.14985141E+02</rscale>
<asrwt>0</asrwt>
<pdfrwt beam="2">  1        2 0.99136012E+00 0.14985141E+02</pdfrwt>
<pdfrwt beam="1">  1       -2 0.99837710E+00 0.14985141E+02</pdfrwt>
<totfact>-0.79411633E-14</totfact>
</mgrwt>
</event>
<event>
 4    1 -0.5119137E-019  0.1489953E+02  0.7818608E-02  0.1871150E+00
         -2   -1    0    0    0  501 -0.00000000000E+00  0.00000000000E+00  0.11952684319E+03  0.11952684321E+03  0.25500000000E-02 0.  1.
          2   -1    0    0  501    0  0.00000000000E+00 -0.00000000000E+00 -0.46431888543E+00  0.46432588757E+00  0.25500000000E-02 0. -1.
         31    1    1    2    0    0 -0.27242324834E-01 -0.18614839247E+00  0.58980745359E+02  0.59449328361E+02  0.74470750000E+01 0.  1.
        -31    1    1    2    0    0  0.27242324834E-01  0.18614839247E+00  0.60081778942E+02  0.60541840741E+02  0.74470750000E+01 0. -1.
<mgrwt>
<rscale>  0 0.14899529E+02</rscale>
<asrwt>0</asrwt>
<pdfrwt beam="2">  1        2 0.98619540E+00 0.14899529E+02</pdfrwt>
<pdfrwt beam="1">  1       -2 0.99217094E+00 0.14899529E+02</pdfrwt>
<totfact>-0.20237098E-13</totfact>
</mgrwt>
</event>
<event>
 4    1 -0.5119137E-019  0.1498444E+02  0.7818608E-02  0.1868544E+00
          2   -1    0    0  501    0  0.00000000000E+00  0.00000000000E+00  0.11998612324E+03  0.11998612327E+03  0.25500000000E-02 0. -1.
         -2   -1    0    0    0  501 -0.00000000000E+00 -0.00000000000E+00 -0.46782831049E+00  0.46783526010E+00  0.25500000000E-02 0.  1.
         31    1    1    2    0    0 -0.29771709912E+00 -0.46079097840E-01  0.65900350822E+02  0.66320478914E+02  0.74470750000E+01 0. -1.
        -31    1    1    2    0    0  0.29771709912E+00  0.46079097840E-01  0.53617944111E+02  0.54133479617E+02  0.74470750000E+01 0.  1.
<mgrwt>
<rscale>  0 0.14984435E+02</rscale>
<asrwt>0</asrwt>
<pdfrwt beam="1">  1        2 0.99599761E+00 0.14984435E+02</pdfrwt>
<pdfrwt beam="2">  1       -2 0.99363493E+00 0.14984435E+02</pdfrwt>
<totfact>-0.10016177E-13</totfact>
</mgrwt>
</event>
<event>
 4    1  0.5119137E-019  0.1494209E+02  0.7818608E-02  0.1869841E+00
          2   -1    0    0  501    0  0.00000000000E+00  0.00000000000E+00  0.12033299597E+03  0.12033299600E+03  0.25500000000E-02 0.  1.
         -2   -1    0    0    0  501 -0.00000000000E+00 -0.00000000000E+00 -0.46384693185E+00  0.46385394112E+00  0.25500000000E-02 0. -1.
         31    1    1    2    0    0  0.42319443683E+00 -0.30428259473E+00  0.62304104803E+02  0.62749757632E+02  0.74470750000E+01 0.  1.
        -31    1    1    2    0    0 -0.42319443683E+00  0.30428259473E+00  0.57565044236E+02  0.58047092308E+02  0.74470750000E+01 0.  1.
<mgrwt>
<rscale>  0 0.14942090E+02</rscale>
<asrwt>0</asrwt>
<pdfrwt beam="1">  1        2 0.99883287E+00 0.14942090E+02</pdfrwt>
<pdfrwt beam="2">  1       -2 0.98522239E+00 0.14942090E+02</pdfrwt>
<totfact> 0.15985699E-13</totfact>
</mgrwt>
</event>
<event>
 4    1 -0.5119137E-019  0.1491676E+02  0.7818608E-02  0.1870619E+00
          2   -1    0    0  501    0  0.00000000000E+00  0.00000000000E+00  0.11874671282E+03  0.11874671285E+03  0.25500000000E-02 0. -1.
         -2   -1    0    0    0  501 -0.00000000000E+00 -0.00000000000E+00 -0.46845112982E+00  0.46845807019E+00  0.25500000000E-02 0.  1.
         31    1    1    2    0    0  0.21874655065E+00  0.14590757231E+00  0.56619651505E+02  0.57107906648E+02  0.74470750000E+01 0.  1.
        -31    1    1    2    0    0 -0.21874655065E+00 -0.14590757231E+00  0.61658610188E+02  0.62107264273E+02  0.74470750000E+01 0. -1.
<mgrwt>
<rscale>  0 0.14916762E+02</rscale>
<asrwt>0</asrwt>
<pdfrwt beam="1">  1        2 0.98575444E+00 0.14916762E+02</pdfrwt>
<pdfrwt beam="2">  1       -2 0.99491221E+00 0.14916762E+02</pdfrwt>
<totfact>-0.30831481E-13</totfact>
</mgrwt>
</event>
<event>
 4    1 -0.5119137E-019  0.1502153E+02  0.7818608E-02  0.1867412E+00
          2   -1    0    0  501    0  0.00000000000E+00  0.00000000000E+00  0.11985010444E+03  0.11985010447E+03  0.25500000000E-02 0. -1.
         -2   -1    0    0    0  501 -0.00000000000E+00 -0.00000000000E+00 -0.47068089455E+00  0.47068780205E+00  0.25500000000E-02 0.  1.
         31    1    1    2    0    0  0.59445073603E+00 -0.17196102184E+00  0.65735472150E+02  0.66158855546E+02  0.74470750000E+01 0. -1.
        -31    1    1    2    0    0 -0.59445073603E+00  0.17196102184E+00  0.53643951395E+02  0.54161936723E+02  0.74470750000E+01 0.  1.
<mgrwt>
<rscale>  0 0.15021527E+02</rscale>
<asrwt>0</asrwt>
<pdfrwt beam="1">  1        2 0.99489649E+00 0.15021527E+02</pdfrwt>
<pdfrwt beam="2">  1       -2 0.99966543E+00 0.15021527E+02</pdfrwt>
<totfact>-0.13822419E-14</totfact>
</mgrwt>
</event>
<event>
 4    1 -0.5119137E-019  0.1497665E+02  0.7818608E-02  0.1868782E+00
          2   -1    0    0  501    0  0.00000000000E+00  0.00000000000E+00  0.11971461354E+03  0.11971461356E+03  0.25500000000E-02 0.  1.
         -2   -1    0    0    0  501 -0.00000000000E+00 -0.00000000000E+00 -0.46840246818E+00  0.46840940927E+00  0.25500000000E-02 0. -1.
         31    1    1    2    0    0 -0.25475302326E+00 -0.74243709603E+00  0.59631859123E+02  0.60100196842E+02  0.74470750000E+01 0. -1.
        -31    1    1    2    0    0  0.25475302326E+00  0.74243709603E+00  0.59614351945E+02  0.60082826131E+02  0.74470750000E+01 0. -1.
<mgrwt>
<rscale>  0 0.14976654E+02</rscale>
<asrwt>0</asrwt>
<pdfrwt beam="1">  1        2 0.99375732E+00 0.14976654E+02</pdfrwt>
<pdfrwt beam="2">  1       -2 0.99484087E+00 0.14976654E+02</pdfrwt>
<totfact>-0.13343565E-13</totfact>
</mgrwt>
</event>
<event>
 4    1 -0.5119137E-019  0.1489584E+02  0.7818608E-02  0.1871264E+00
         -2   -1    0    0    0  501 -0.00000000000E+00  0.00000000000E+00  0.12031165611E+03  0.12031165614E+03  0.25500000000E-02 0.  1.
          2   -1    0    0  501    0  0.00000000000E+00 -0.00000000000E+00 -0.46106139306E+00  0.46106844467E+00  0.25500000000E-02 0. -1.
         31    1    1    2    0    0  0.31613486206E-01 -0.10276758539E+00  0.60181763001E+02  0.60640869755E+02  0.74470750000E+01 0.  1.
        -31    1    1    2    0    0 -0.31613486206E-01  0.10276758539E+00  0.59668831719E+02  0.60131854831E+02  0.74470750000E+01 0.  1.
<mgrwt>
<rscale>  0 0.14895837E+02</rscale>
<asrwt>0</asrwt>
<pdfrwt beam="2">  1        2 0.97932785E+00 0.14895837E+02</pdfrwt>
<pdfrwt beam="1">  1       -2 0.99863339E+00 0.14895837E+02</pdfrwt>
<totfact>-0.38443562E-13</totfact>
</mgrwt>
</event>
<event>
 4    1 -0.5119137E-019  0.1493697E+02  0.7818608E-02  0.1869998E+00
          2   -1    0    0  501    0  0.00000000000E+00  0.00000000000E+00  0.11884865522E+03  0.11884865524E+03  0.25500000000E-02 0.  1.
         -2   -1    0    0    0  501 -0.00000000000E+00 -0.00000000000E+00 -0.46931855156E+00  0.46932547910E+00  0.25500000000E-02 0. -1.
         31    1    1    2    0    0 -0.38716965443E+00  0.40264043472E+00  0.58504928348E+02  0.58979637052E+02  0.74470750000E+01 0. -1.
        -31    1    1    2    0    0  0.38716965443E+00 -0.40264043472E+00  0.59874408316E+02  0.60338343671E+02  0.74470750000E+01 0. -1.
<mgrwt>
<rscale>  0 0.14936973E+02</rscale>
<asrwt>0</asrwt>
<pdfrwt beam="1">  1        2 0.98660455E+00 0.14936973E+02</pdfrwt>
<pdfrwt beam="2">  1       -2 0.99675056E+00 0.14936973E+02</pdfrwt>
<totfact>-0.22781543E-13</totfact>
</mgrwt>
</event>
<event>
 4    1 -0.5119137E-019  0.1495692E+02  0.7818608E-02  0.1869386E+00
         -2   -1    0    0    0  501 -0.00000000000E+00  0.00000000000E+00  0.11955441789E+03  0.11955441792E+03  0.25500000000E-02 0.  1.
          2   -1    0    0  501    0  0.00000000000E+00 -0.00000000000E+00 -0.46779500303E+00  0.46780195314E+00  0.25500000000E-02 0. -1.
         31    1    1    2    0    0  0.29740489632E+00 -0.26728115407E+00  0.55085811040E+02  0.55588356630E+02  0.74470750000E+01 0. -1.
        -31    1    1    2    0    0 -0.29740489632E+00  0.26728115407E+00  0.64000811851E+02  0.64433863243E+02  0.74470750000E+01 0.  1.
<mgrwt>
<rscale>  0 0.14956922E+02</rscale>
<asrwt>0</asrwt>
<pdfrwt beam="2">  1        2 0.99355053E+00 0.14956922E+02</pdfrwt>
<pdfrwt beam="1">  1       -2 0.99242769E+00 0.14956922E+02</pdfrwt>
<totfact>-0.10297570E-13</totfact>
</mgrwt>
</event>
<event>
 4    1 -0.5119137E-019  0.1498590E+02  0.7818608E-02  0.1868499E+00
          2   -1    0    0  501    0  0.00000000000E+00  0.00000000000E+00  0.11992589086E+03  0.11992589089E+03  0.25500000000E-02 0. -1.
         -2   -1    0    0    0  501 -0.00000000000E+00 -0.00000000000E+00 -0.46815507778E+00  0.46816202255E+00  0.25500000000E-02 0.  1.
         31    1    1    2    0    0 -0.24705498187E+00  0.76945335772E+00  0.61173029632E+02  0.61629956799E+02  0.74470750000E+01 0. -1.
        -31    1    1    2    0    0  0.24705498187E+00 -0.76945335772E+00  0.58284706155E+02  0.58764096115E+02  0.74470750000E+01 0.  1.
<mgrwt>
<rscale>  0 0.14985905E+02</rscale>
<asrwt>0</asrwt>
<pdfrwt beam="1">  1        2 0.99550226E+00 0.14985905E+02</pdfrwt>
<pdfrwt beam="2">  1       -2 0.99432432E+00 0.14985905E+02</pdfrwt>
<totfact>-0.11219079E-13</totfact>
</mgrwt>
</event>
<event>
 4    1  0.5119137E-019  0.1491470E+02  0.7818608E-02  0.1870683E+00
          2   -1    0    0  501    0  0.00000000000E+00  0.00000000000E+00  0.11967201356E+03  0.11967201359E+03  0.25500000000E-02 0. -1.
         -2   -1    0    0    0  501 -0.00000000000E+00 -0.00000000000E+00 -0.46470076028E+00  0.46470775666E+00  0.25500000000E-02 0.  1.
         31    1    1    2    0    0 -0.38236851109E+00  0.69509393941E-01  0.59231532252E+02  0.59699115372E+02  0.74470750000E+01 0.  1.
        -31    1    1    2    0    0  0.38236851109E+00 -0.69509393941E-01  0.59975780551E+02  0.60437605975E+02  0.74470750000E+01 0. -1.
<mgrwt>
<rscale>  0 0.14914704E+02</rscale>
<asrwt>0</asrwt>
<pdfrwt beam="1">  1        2 0.99337447E+00 0.14914704E+02</pdfrwt>
<pdfrwt beam="2">  1       -2 0.98700797E+00 0.14914704E+02</pdfrwt>
<totfact> 0.28142830E-13</totfact>
</mgrwt>
</event>
<event>
 4    1  0.5119137E-019  0.1490469E+02  0.7818608E-02  0.1870991E+00
         -2   -1    0    0    0  501 -0.00000000000E+00  0.00000000000E+00  0.11838011224E+03  0.11838011227E+03  0.25500000000E-02 0. -1.
          2   -1    0    0  501    0  0.00000000000E+00 -0.00000000000E+00 -0.46914146132E+00  0.46914839148E+00  0.25500000000E-02 0.  1.
         31    1    1    2    0    0 -0.15870964721E+00  0.11267878962E+00  0.60562607292E+02  0.61019064343E+02  0.74470750000E+01 0. -1.
        -31    1    1    2    0    0  0.15870964721E+00 -0.11267878962E+00  0.57348363490E+02  0.57830196319E+02  0.74470750000E+01 0.  1.
<mgrwt>
<rscale>  0 0.14904688E+02</rscale>
<asrwt>0</asrwt>
<pdfrwt beam="2">  1        2 0.99636043E+00 0.14904688E+02</pdfrwt>
<pdfrwt beam="1">  1       -2 0.98272884E+00 0.14904688E+02</pdfrwt>
<totfact> 0.70617976E-13</totfact>
</mgrwt>
</event>
<event>
 4    1 -0.5119137E-019  0.1492343E+02  0.7818608E-02  0.1870414E+00
          2   -1    0    0  501    0  0.00000000000E+00  0.00000000000E+00  0.11886793538E+03  0.11886793541E+03  0.25500000000E-02 0. -1.
         -2   -1    0    0    0  501 -0.00000000000E+00 -0.00000000000E+00 -0.46839199045E+00  0.46839893170E+00  0.25500000000E-02 0.  1.
         31    1    1    2    0    0  0.32843345417E+00  0.30770070931E+00  0.58196836025E+02  0.58673104551E+02  0.74470750000E+01 0.  1.
        -31    1    1    2    0    0 -0.32843345417E+00 -0.30770070931E+00  0.60202707367E+02  0.60663229791E+02  0.74470750000E+01 0. -1.
<mgrwt>
<rscale>  0 0.14923432E+02</rscale>
<asrwt>0</asrwt>
<pdfrwt beam="1">  1        2 0.98675631E+00 0.14923432E+02</pdfrwt>
<pdfrwt beam="2">  1       -2 0.99479109E+00 0.14923432E+02</pdfrwt>
<totfact>-0.26530750E-13</totfact>
</mgrwt>
</event>
<event>
 4    1 -0.5119137E-019  0.1502075E+02  0.7818608E-02  0.1867436E+00
          2   -1    0    0  501    0  0.00000000000E+00  0.00000000000E+00  0.11988276813E+03  0.11988276816E+03  0.25500000000E-02 0. -1.
         -2   -1    0    0    0  501 -0.00000000000E+00 -0.00000000000E+00 -0.47050408770E+00  0.47051099779E+00  0.25500000000E-02 0.  1.
         31    1    1    2    0    0 -0.19522068644E+00 -0.65139064717E+00  0.54129530179E+02  0.54643639926E+02  0.74470750000E+01 0.  1.
        -31    1    1    2    0    0  0.19522068644E+00  0.65139064717E+00  0.65282733865E+02  0.65709639230E+02  0.74470750000E+01 0. -1.
<mgrwt>
<rscale>  0 0.15020752E+02</rscale>
<asrwt>0</asrwt>
<pdfrwt beam="1">  1        2 0.99516512E+00 0.15020752E+02</pdfrwt>
<pdfrwt beam="2">  1       -2 0.99929245E+00 0.15020752E+02</pdfrwt>
<totfact>-0.27624578E-14</totfact>
</mgrwt>
</event>
<event>
 4    1 -0.5119137E-019  0.1491183E+02  0.7818608E-02  0.1870771E+00
          2   -1    0    0  501    0  0.00000000000E+00  0.00000000000E+00  0.11864200360E+03  0.11864200363E+03  0.25500000000E-02 0. -1.
         -2   -1    0    0    0  501 -0.00000000000E+00 -0.00000000000E+00 -0.46855437817E+00  0.46856131701E+00  0.25500000000E-02 0.  1.
         31    1    1    2    0    0  0.33074875239E+00  0.14928451634E+00  0.59037201934E+02  0.59506149421E+02  0.74470750000E+01 0. -1.
        -31    1    1    2    0    0 -0.33074875239E+00 -0.14928451634E+00  0.59136247288E+02  0.59604415524E+02  0.74470750000E+01 0. -1.
<mgrwt>
<rscale>  0 0.14911827E+02</rscale>
<asrwt>0</asrwt>
<pdfrwt beam="1">  1        2 0.98488949E+00 0.14911827E+02</pdfrwt>
<pdfrwt beam="2">  1       -2 0.99512718E+00 0.14911827E+02</pdfrwt>
<totfact>-0.35221953E-13</totfact>
</mgrwt>
</event>
<event>
 4    1  0.5119137E-019  0.1492172E+02  0.7818608E-02  0.1870467E+00
         -2   -1    0    0    0  501 -0.00000000000E+00  0.00000000000E+00  0.11859501409E+03  0.11859501411E+03  0.25500000000E-02 0. -1.
          2   -1    0    0  501    0  0.00000000000E+00 -0.00000000000E+00 -0.46936218516E+00  0.46936911207E+00  0.25500000000E-02 0.  1.
         31    1    1    2    0    0  0.96596672706E-02 -0.24841886801E+00  0.62087564578E+02  0.62533082496E+02  0.74470750000E+01 0. -1.
        -31    1    1    2    0    0 -0.96596672706E-02  0.24841886801E+00  0.56038087324E+02  0.56531300730E+02  0.74470750000E+01 0.  1.
<mgrwt>
<rscale>  0 0.14921720E+02</rscale>
<asrwt>0</asrwt>
<pdfrwt beam="2">  1        2 0.99683447E+00 0.14921720E+02</pdfrwt>
<pdfrwt beam="1">  1       -2 0.98450763E+00 0.14921720E+02</pdfrwt>
<totfact> 0.42428588E-13</totfact>
</mgrwt>
</event>
<event>
 4    1 -0.5119137E-019  0.1493747E+02  0.7818608E-02  0.1869983E+00
         -2   -1    0    0    0  501 -0.00000000000E+00  0.00000000000E+00  0.12027252826E+03  0.12027252828E+03  0.25500000000E-02 0.  1.
          2   -1    0    0  501    0  0.00000000000E+00 -0.00000000000E+00 -0.46379296919E+00  0.46379997927E+00  0.25500000000E-02 0. -1.
         31    1    1    2    0    0  0.18795807870E+00  0.47952547719E+00  0.61847245029E+02  0.62296114780E+02  0.74470750000E+01 0.  1.
        -31    1    1    2    0    0 -0.18795807870E+00 -0.47952547719E+00  0.57961490259E+02  0.58440213484E+02  0.74470750000E+01 0.  1.
<mgrwt>
<rscale>  0 0.14937467E+02</rscale>
<asrwt>0</asrwt>
<pdfrwt beam="2">  1        2 0.98510631E+00 0.14937467E+02</pdfrwt>
<pdfrwt beam="1">  1       -2 0.99833244E+00 0.14937467E+02</pdfrwt>
<totfact>-0.17449499E-13</totfact>
</mgrwt>
</event>
<event>
 4    1 -0.5119137E-019  0.1489463E+02  0.7818608E-02  0.1871301E+00
         -2   -1    0    0    0  501 -0.00000000000E+00  0.00000000000E+00  0.11996861275E+03  0.11996861278E+03  0.25500000000E-02 0.  1.
          2   -1    0    0  501    0  0.00000000000E+00 -0.00000000000E+00 -0.46230464954E+00  0.46231168218E+00  0.25500000000E-02 0. -1.
         31    1    1    2    0    0  0.14731441166E-01 -0.22216493893E-01  0.60183736884E+02  0.60642739235E+02  0.74470750000E+01 0.  1.
        -31    1    1    2    0    0 -0.14731441166E-01  0.22216493893E-01  0.59322571221E+02  0.59788185229E+02  0.74470750000E+01 0. -1.
<mgrwt>
<rscale>  0 0.14894626E+02</rscale>
<asrwt>0</asrwt>
<pdfrwt beam="2">  1        2 0.98194772E+00 0.14894626E+02</pdfrwt>
<pdfrwt beam="1">  1       -2 0.99580714E+00 0.14894626E+02</pdfrwt>
<totfact>-0.55330975E-13</totfact>
</mgrwt>
</event>
<event>
 4    1 -0.5119137E-019  0.1503807E+02  0.7818608E-02  0.1866909E+00
         -2   -1    0    0    0  501 -0.00000000000E+00  0.00000000000E+00  0.12038106856E+03  0.12038106859E+03  0.25500000000E-02 0.  1.
          2   -1    0    0  501    0  0.00000000000E+00 -0.00000000000E+00 -0.46963723842E+00  0.46964416127E+00  0.25500000000E-02 0. -1.
         31    1    1    2    0    0 -0.13219104710E+00 -0.12562668584E+00  0.51745797320E+02  0.52279247535E+02  0.74470750000E+01 0. -1.
        -31    1    1    2    0    0  0.13219104710E+00  0.12562668584E+00  0.68165634000E+02  0.68571465211E+02  0.74470750000E+01 0.  1.
<mgrwt>
<rscale>  0 0.15038065E+02</rscale>
<asrwt>0</asrwt>
<pdfrwt beam="2">  1        2 0.99747469E+00 0.15038065E+02</pdfrwt>
<pdfrwt beam="1">  1       -2 0.99927825E+00 0.15038065E+02</pdfrwt>
<totfact>-0.18743745E-14</totfact>
</mgrwt>
</event>
<event>
 4    1  0.5119137E-019  0.1490927E+02  0.7818608E-02  0.1870850E+00
          2   -1    0    0  501    0  0.00000000000E+00  0.00000000000E+00  0.11969694459E+03  0.11969694462E+03  0.25500000000E-02 0.  1.
         -2   -1    0    0    0  501 -0.00000000000E+00 -0.00000000000E+00 -0.46426536913E+00  0.46427237207E+00  0.25500000000E-02 0. -1.
         31    1    1    2    0    0  0.20738315250E+00 -0.85783361587E-01  0.57605080231E+02  0.58084890988E+02  0.74470750000E+01 0.  1.
        -31    1    1    2    0    0 -0.20738315250E+00  0.85783361587E-01  0.61627598988E+02  0.62076326000E+02  0.74470750000E+01 0.  1.
<mgrwt>
<rscale>  0 0.14909268E+02</rscale>
<asrwt>0</asrwt>
<pdfrwt beam="1">  1        2 0.99357701E+00 0.14909268E+02</pdfrwt>
<pdfrwt beam="2">  1       -2 0.98608759E+00 0.14909268E+02</pdfrwt>
<totfact> 0.39185793E-13</totfact>
</mgrwt>
</event>
<event>
 4    1 -0.5119137E-019  0.1499007E+02  0.7818608E-02  0.1868372E+00
         -2   -1    0    0    0  501 -0.00000000000E+00  0.00000000000E+00  0.11992201266E+03  0.11992201269E+03  0.25500000000E-02 0.  1.
          2   -1    0    0  501    0  0.00000000000E+00 -0.00000000000E+00 -0.46843042870E+00  0.46843736938E+00  0.25500000000E-02 0. -1.
         31    1    1    2    0    0  0.24350337562E+00 -0.79415784707E+00  0.58416115683E+02  0.58894749156E+02  0.74470750000E+01 0. -1.
        -31    1    1    2    0    0 -0.24350337562E+00  0.79415784707E+00  0.61037466552E+02  0.61495700904E+02  0.74470750000E+01 0. -1.
<mgrwt>
<rscale>  0 0.14990069E+02</rscale>
<asrwt>0</asrwt>
<pdfrwt beam="2">  1        2 0.99490673E+00 0.14990069E+02</pdfrwt>
<pdfrwt beam="1">  1       -2 0.99547247E+00 0.14990069E+02</pdfrwt>
<totfact>-0.11811098E-13</totfact>
</mgrwt>
</event>
<event>
 4    1  0.5119137E-019  0.1490950E+02  0.7818608E-02  0.1870843E+00
          2   -1    0    0  501    0  0.00000000000E+00  0.00000000000E+00  0.12014486321E+03  0.12014486323E+03  0.25500000000E-02 0. -1.
         -2   -1    0    0    0  501 -0.00000000000E+00 -0.00000000000E+00 -0.46254869809E+00  0.46255572702E+00  0.25500000000E-02 0.  1.
         31    1    1    2    0    0  0.25791056122E+00  0.11815653226E+00  0.61329911454E+02  0.61781044373E+02  0.74470750000E+01 0.  1.
        -31    1    1    2    0    0 -0.25791056122E+00 -0.11815653226E+00  0.58352403055E+02  0.58826374588E+02  0.74470750000E+01 0. -1.
<mgrwt>
<rscale>  0 0.14909497E+02</rscale>
<asrwt>0</asrwt>
<pdfrwt beam="1">  1        2 0.99726652E+00 0.14909497E+02</pdfrwt>
<pdfrwt beam="2">  1       -2 0.98246962E+00 0.14909497E+02</pdfrwt>
<totfact> 0.61767613E-13</totfact>
</mgrwt>
</event>
<event>
 4    1  0.5119137E-019  0.1496277E+02  0.7818608E-02  0.1869207E+00
          2   -1    0    0  501    0  0.00000000000E+00  0.00000000000E+00  0.12026399481E+03  0.12026399483E+03  0.25500000000E-02 0. -1.
         -2   -1    0    0    0  501 -0.00000000000E+00 -0.00000000000E+00 -0.46539837060E+00  0.46540535650E+00  0.25500000000E-02 0.  1.
         31    1    1    2    0    0 -0.44209036929E-01 -0.55322173475E+00  0.63545007210E+02  0.63982301272E+02  0.74470750000E+01 0. -1.
        -31    1    1    2    0    0  0.44209036929E-01  0.55322173475E+00  0.56253589227E+02  0.56747098919E+02  0.74470750000E+01 0.  1.
<mgrwt>
<rscale>  0 0.14962766E+02</rscale>
<asrwt>0</asrwt>
<pdfrwt beam="1">  1        2 0.99827515E+00 0.14962766E+02</pdfrwt>
<pdfrwt beam="2">  1       -2 0.98850275E+00 0.14962766E+02</pdfrwt>
<totfact> 0.53610628E-14</totfact>
</mgrwt>
</event>
<event>
 4    1 -0.5119137E-019  0.1492295E+02  0.7818608E-02  0.1870429E+00
         -2   -1    0    0    0  501 -0.00000000000E+00  0.00000000000E+00  0.12013501890E+03  0.12013501893E+03  0.25500000000E-02 0. -1.
          2   -1    0    0  501    0  0.00000000000E+00 -0.00000000000E+00 -0.46342167019E+00  0.46342868589E+00  0.25500000000E-02 0.  1.
         31    1    1    2    0    0 -0.40903872003E+00  0.83710361631E-01  0.61459128744E+02  0.61910077953E+02  0.74470750000E+01 0. -1.
        -31    1    1    2    0    0  0.40903872003E+00 -0.83710361631E-01  0.58212468489E+02  0.58688369663E+02  0.74470750000E+01 0.  1.
<mgrwt>
<rscale>  0 0.14922948E+02</rscale>
<asrwt>0</asrwt>
<pdfrwt beam="2">  1        2 0.98431638E+00 0.14922948E+02</pdfrwt>
<pdfrwt beam="1">  1       -2 0.99719234E+00 0.14922948E+02</pdfrwt>
<totfact>-0.29758224E-13</totfact>
</mgrwt>
</event>
<event>
 4    1 -0.5119137E-019  0.1491439E+02  0.7818608E-02  0.1870692E+00
          2   -1    0    0  501    0  0.00000000000E+00  0.00000000000E+00  0.11832775086E+03  0.11832775089E+03  0.25500000000E-02 0.  1.
         -2   -1    0    0    0  501 -0.00000000000E+00 -0.00000000000E+00 -0.46996054212E+00  0.46996746021E+00  0.25500000000E-02 0. -1.
         31    1    1    2    0    0 -0.31311345721E+00  0.21942008144E+00  0.58384261668E+02  0.58858534826E+02  0.74470750000E+01 0. -1.
        -31    1    1    2    0    0  0.31311345721E+00 -0.21942008144E+00  0.59473528654E+02  0.59939183527E+02  0.74470750000E+01 0.  1.
<mgrwt>
<rscale>  0 0.14914394E+02</rscale>
<asrwt>0</asrwt>
<pdfrwt beam="1">  1        2 0.98230265E+00 0.14914394E+02</pdfrwt>
<pdfrwt beam="2">  1       -2 0.99809134E+00 0.14914394E+02</pdfrwt>
<totfact>-0.31173751E-13</totfact>
</mgrwt>
</event>
<event>
 4    1  0.5119137E-019  0.1492158E+02  0.7818608E-02  0.1870471E+00
         -2   -1    0    0    0  501 -0.00000000000E+00  0.00000000000E+00  0.11877788589E+03  0.11877788592E+03  0.25500000000E-02 0. -1.
          2   -1    0    0  501    0  0.00000000000E+00 -0.00000000000E+00 -0.46863091345E+00  0.46863785116E+00  0.25500000000E-02 0.  1.
         31    1    1    2    0    0 -0.67875577523E-01 -0.42687197715E+00  0.58092875737E+02  0.58569855422E+02  0.74470750000E+01 0.  1.
        -31    1    1    2    0    0  0.67875577523E-01  0.42687197715E+00  0.60216379239E+02  0.60676668345E+02  0.74470750000E+01 0.  1.
<mgrwt>
<rscale>  0 0.14921582E+02</rscale>
<asrwt>0</asrwt>
<pdfrwt beam="2">  1        2 0.99529356E+00 0.14921582E+02</pdfrwt>
<pdfrwt beam="1">  1       -2 0.98601369E+00 0.14921582E+02</pdfrwt>
<totfact> 0.34392595E-13</totfact>
</mgrwt>
</event>
<event>
 4    1  0.5119137E-019  0.1490175E+02  0.7818608E-02  0.1871082E+00
         -2   -1    0    0    0  501 -0.00000000000E+00  0.00000000000E+00  0.11898790005E+03  0.11898790008E+03  0.25500000000E-02 0.  1.
          2   -1    0    0  501    0  0.00000000000E+00 -0.00000000000E+00 -0.46656080828E+00  0.46656777677E+00  0.25500000000E-02 0. -1.
         31    1    1    2    0    0  0.23373886765E+00 -0.81740281584E-02  0.59608420066E+02  0.60072267890E+02  0.74470750000E+01 0. -1.
        -31    1    1    2    0    0 -0.23373886765E+00  0.81740281584E-02  0.58912919179E+02  0.59382199967E+02  0.74470750000E+01 0. -1.
<mgrwt>
<rscale>  0 0.14901746E+02</rscale>
<asrwt>0</asrwt>
<pdfrwt beam="2">  1        2 0.99092112E+00 0.14901746E+02</pdfrwt>
<pdfrwt beam="1">  1       -2 0.98773312E+00 0.14901746E+02</pdfrwt>
<totfact> 0.24134323E-13</totfact>
</mgrwt>
</event>
<event>
 4    1  0.5119137E-019  0.1494841E+02  0.7818608E-02  0.1869647E+00
         -2   -1    0    0    0  501 -0.00000000000E+00  0.00000000000E+00  0.11913568530E+03  0.11913568532E+03  0.25500000000E-02 0. -1.
          2   -1    0    0  501    0  0.00000000000E+00 -0.00000000000E+00 -0.46890494841E+00  0.46891188206E+00  0.25500000000E-02 0.  1.
         31    1    1    2    0    0 -0.49092753307E+00 -0.37127792597E+00  0.58044596089E+02  0.58523609922E+02  0.74470750000E+01 0.  1.
        -31    1    1    2    0    0  0.49092753307E+00  0.37127792597E+00  0.60622184260E+02  0.61080987284E+02  0.74470750000E+01 0.  1.
<mgrwt>
<rscale>  0 0.14948408E+02</rscale>
<asrwt>0</asrwt>
<pdfrwt beam="2">  1        2 0.99588503E+00 0.14948408E+02</pdfrwt>
<pdfrwt beam="1">  1       -2 0.98897449E+00 0.14948408E+02</pdfrwt>
<totfact> 0.66815736E-14</totfact>
</mgrwt>
</event>
<event>
 4    1  0.5119137E-019  0.1493403E+02  0.7818608E-02  0.1870088E+00
         -2   -1    0    0    0  501 -0.00000000000E+00  0.00000000000E+00  0.11869874371E+03  0.11869874374E+03  0.25500000000E-02 0. -1.
          2   -1    0    0  501    0  0.00000000000E+00 -0.00000000000E+00 -0.46972622071E+00  0.46973314225E+00  0.25500000000E-02 0.  1.
         31    1    1    2    0    0  0.40761581826E+00  0.35644723343E+00  0.59631341416E+02  0.60096996684E+02  0.74470750000E+01 0.  1.
        -31    1    1    2    0    0 -0.40761581826E+00 -0.35644723343E+00  0.58597676078E+02  0.59071480200E+02  0.74470750000E+01 0. -1.
<mgrwt>
<rscale>  0 0.14934032E+02</rscale>
<asrwt>0</asrwt>
<pdfrwt beam="2">  1        2 0.99760799E+00 0.14934032E+02</pdfrwt>
<pdfrwt beam="1">  1       -2 0.98536834E+00 0.14934032E+02</pdfrwt>
<totfact> 0.27399813E-13</totfact>
</mgrwt>
</event>
<event>
 4    1  0.5119137E-019  0.1489764E+02  0.7818608E-02  0.1871208E+00
         -2   -1    0    0    0  501 -0.00000000000E+00  0.00000000000E+00  0.11826436925E+03  0.11826436928E+03  0.25500000000E-02 0. -1.
          2   -1    0    0  501    0  0.00000000000E+00 -0.00000000000E+00 -0.46915679065E+00  0.46916372059E+00  0.25500000000E-02 0.  1.
         31    1    1    2    0    0 -0.12749946647E+00 -0.26008256314E-02  0.58110392930E+02  0.58585774343E+02  0.74470750000E+01 0. -1.
        -31    1    1    2    0    0  0.12749946647E+00  0.26008256314E-02  0.59684819530E+02  0.60147758655E+02  0.74470750000E+01 0. -1.
<mgrwt>
<rscale>  0 0.14897643E+02</rscale>
<asrwt>0</asrwt>
<pdfrwt beam="2">  1        2 0.99638900E+00 0.14897643E+02</pdfrwt>
<pdfrwt beam="1">  1       -2 0.98177192E+00 0.14897643E+02</pdfrwt>
<totfact> 0.85417586E-13</totfact>
</mgrwt>
</event>
<event>
 4    1 -0.5119137E-019  0.1496300E+02  0.7818608E-02  0.1869200E+00
          2   -1    0    0  501    0  0.00000000000E+00  0.00000000000E+00  0.11947263859E+03  0.11947263862E+03  0.25500000000E-02 0. -1.
         -2   -1    0    0    0  501 -0.00000000000E+00 -0.00000000000E+00 -0.46849568740E+00  0.46850262711E+00  0.25500000000E-02 0.  1.
         31    1    1    2    0    0 -0.29939872406E+00 -0.64401965285E+00  0.60283638885E+02  0.60746032333E+02  0.74470750000E+01 0.  1.
        -31    1    1    2    0    0  0.29939872406E+00  0.64401965285E+00  0.58720504020E+02  0.59195108914E+02  0.74470750000E+01 0.  1.
<mgrwt>
<rscale>  0 0.14962999E+02</rscale>
<asrwt>0</asrwt>
<pdfrwt beam="1">  1        2 0.99175727E+00 0.14962999E+02</pdfrwt>
<pdfrwt beam="2">  1       -2 0.99503023E+00 0.14962999E+02</pdfrwt>
<totfact>-0.15397485E-13</totfact>
</mgrwt>
</event>
<event>
 4    1 -0.5119137E-019  0.1495542E+02  0.7818608E-02  0.1869432E+00
          2   -1    0    0  501    0  0.00000000000E+00  0.00000000000E+00  0.11970414121E+03  0.11970414123E+03  0.25500000000E-02 0. -1.
         -2   -1    0    0    0  501 -0.00000000000E+00 -0.00000000000E+00 -0.46711617151E+00  0.46712313172E+00  0.25500000000E-02 0.  1.
         31    1    1    2    0    0  0.15236357873E+00  0.38310230887E+00  0.63925101462E+02  0.64358740704E+02  0.74470750000E+01 0.  1.
        -31    1    1    2    0    0 -0.15236357873E+00 -0.38310230887E+00  0.55311923574E+02  0.55812523663E+02  0.74470750000E+01 0.  1.
<mgrwt>
<rscale>  0 0.14955422E+02</rscale>
<asrwt>0</asrwt>
<pdfrwt beam="1">  1        2 0.99366009E+00 0.14955422E+02</pdfrwt>
<pdfrwt beam="2">  1       -2 0.99211923E+00 0.14955422E+02</pdfrwt>
<totfact>-0.92617421E-14</totfact>
</mgrwt>
</event>
<event>
 4    1 -0.5119137E-019  0.1492982E+02  0.7818608E-02  0.1870218E+00
          2   -1    0    0  501    0  0.00000000000E+00  0.00000000000E+00  0.11903259917E+03  0.11903259919E+03  0.25500000000E-02 0. -1.
         -2   -1    0    0    0  501 -0.00000000000E+00 -0.00000000000E+00 -0.46814472128E+00  0.46815166619E+00  0.25500000000E-02 0.  1.
         31    1    1    2    0    0 -0.26401198878E+00  0.42784766325E+00  0.58362007824E+02  0.58837366012E+02  0.74470750000E+01 0.  1.
        -31    1    1    2    0    0  0.26401198878E+00 -0.42784766325E+00  0.60202446623E+02  0.60663384849E+02  0.74470750000E+01 0. -1.
<mgrwt>
<rscale>  0 0.14929822E+02</rscale>
<asrwt>0</asrwt>
<pdfrwt beam="1">  1        2 0.98811582E+00 0.14929822E+02</pdfrwt>
<pdfrwt beam="2">  1       -2 0.99427339E+00 0.14929822E+02</pdfrwt>
<totfact>-0.21842871E-13</totfact>
</mgrwt>
</event>
<event>
 4    1 -0.5119137E-019  0.1491540E+02  0.7818608E-02  0.1870661E+00
          2   -1    0    0  501    0  0.00000000000E+00  0.00000000000E+00  0.11829887547E+03  0.11829887550E+03  0.25500000000E-02 0.  1.
         -2   -1    0    0    0  501 -0.00000000000E+00 -0.00000000000E+00 -0.47013862699E+00  0.47014554245E+00  0.25500000000E-02 0. -1.
         31    1    1    2    0    0  0.64156028725E-01  0.35028060192E+00  0.60328634358E+02  0.60787579834E+02  0.74470750000E+01 0.  1.
        -31    1    1    2    0    0 -0.64156028725E-01 -0.35028060192E+00  0.57500102485E+02  0.57981441206E+02  0.74470750000E+01 0. -1.
<mgrwt>
<rscale>  0 0.14915399E+02</rscale>
<asrwt>0</asrwt>
<pdfrwt beam="1">  1        2 0.98206536E+00 0.14915399E+02</pdfrwt>
<pdfrwt beam="2">  1       -2 0.99846708E+00 0.14915399E+02</pdfrwt>
<totfact>-0.26989401E-13</totfact>
</mgrwt>
</event>
<event>
 4    1 -0.5119137E-019  0.1497405E+02  0.7818608E-02  0.1868862E+00
          2   -1    0    0  501    0  0.00000000000E+00  0.00000000000E+00  0.11964402097E+03  0.11964402100E+03  0.25500000000E-02 0.  1.
         -2   -1    0    0    0  501 -0.00000000000E+00 -0.00000000000E+00 -0.46851558532E+00  0.46852252474E+00  0.25500000000E-02 0. -1.
         31    1    1    2    0    0 -0.54799644511E+00  0.52355884188E+00  0.58393485375E+02  0.58871321323E+02  0.74470750000E+01 0.  1.
        -31    1    1    2    0    0  0.54799644511E+00 -0.52355884188E+00  0.60782020013E+02  0.61241222203E+02  0.74470750000E+01 0. -1.
<mgrwt>
<rscale>  0 0.14974045E+02</rscale>
<asrwt>0</asrwt>
<pdfrwt beam="1">  1        2 0.99317455E+00 0.14974045E+02</pdfrwt>
<pdfrwt beam="2">  1       -2 0.99507789E+00 0.14974045E+02</pdfrwt>
<totfact>-0.13880414E-13</totfact>
</mgrwt>
</event>
<event>
 4    1  0.5119137E-019  0.1492205E+02  0.7818608E-02  0.1870456E+00
          2   -1    0    0  501    0  0.00000000000E+00  0.00000000000E+00  0.12019695366E+03  0.12019695368E+03  0.25500000000E-02 0.  1.
         -2   -1    0    0    0  501 -0.00000000000E+00 -0.00000000000E+00 -0.46312722296E+00  0.46313424312E+00  0.25500000000E-02 0. -1.
         31    1    1    2    0    0  0.33132838251E+00 -0.46586788665E-01  0.57361137184E+02  0.57843503818E+02  0.74470750000E+01 0. -1.
        -31    1    1    2    0    0 -0.33132838251E+00  0.46586788665E-01  0.62372689248E+02  0.62816584107E+02  0.74470750000E+01 0.  1.
<mgrwt>
<rscale>  0 0.14922052E+02</rscale>
<asrwt>0</asrwt>
<pdfrwt beam="1">  1        2 0.99770203E+00 0.14922052E+02</pdfrwt>
<pdfrwt beam="2">  1       -2 0.98369533E+00 0.14922052E+02</pdfrwt>
<totfact> 0.41487611E-13</totfact>
</mgrwt>
</event>
<event>
 4    1 -0.5119137E-019  0.1496946E+02  0.7818608E-02  0.1869002E+00
         -2   -1    0    0    0  501 -0.00000000000E+00  0.00000000000E+00  0.11983031042E+03  0.11983031045E+03  0.25500000000E-02 0. -1.
          2   -1    0    0  501    0  0.00000000000E+00 -0.00000000000E+00 -0.46750053780E+00  0.46750749229E+00  0.25500000000E-02 0.  1.
         31    1    1    2    0    0  0.55580387427E+00 -0.49283279245E+00  0.60501978848E+02  0.60963105012E+02  0.74470750000E+01 0. -1.
        -31    1    1    2    0    0 -0.55580387427E+00  0.49283279245E+00  0.58860831038E+02  0.59334712932E+02  0.74470750000E+01 0. -1.
<mgrwt>
<rscale>  0 0.14969456E+02</rscale>
<asrwt>0</asrwt>
<pdfrwt beam="2">  1        2 0.99293647E+00 0.14969456E+02</pdfrwt>
<pdfrwt beam="1">  1       -2 0.99470653E+00 0.14969456E+02</pdfrwt>
<totfact>-0.14184976E-13</totfact>
</mgrwt>
</event>
<event>
 4    1 -0.5119137E-019  0.1490272E+02  0.7818608E-02  0.1871052E+00
          2   -1    0    0  501    0  0.00000000000E+00  0.00000000000E+00  0.11872216172E+03  0.11872216174E+03  0.25500000000E-02 0. -1.
         -2   -1    0    0    0  501 -0.00000000000E+00 -0.00000000000E+00 -0.46766626319E+00  0.46767321521E+00  0.25500000000E-02 0.  1.
         31    1    1    2    0    0 -0.19990389352E+00  0.15272629609E+00  0.58939217824E+02  0.59408363137E+02  0.74470750000E+01 0. -1.
        -31    1    1    2    0    0  0.19990389352E+00 -0.15272629609E+00  0.59315277630E+02  0.59781471823E+02  0.74470750000E+01 0. -1.
<mgrwt>
<rscale>  0 0.14902720E+02</rscale>
<asrwt>0</asrwt>
<pdfrwt beam="1">  1        2 0.98554495E+00 0.14902720E+02</pdfrwt>
<pdfrwt beam="2">  1       -2 0.99325104E+00 0.14902720E+02</pdfrwt>
<totfact>-0.28782744E-13</totfact>
</mgrwt>
</event>
<event>
 4    1 -0.5119137E-019  0.1491389E+02  0.7818608E-02  0.1870708E+00
         -2   -1    0    0    0  501 -0.00000000000E+00  0.00000000000E+00  0.11960027329E+03  0.11960027332E+03  0.25500000000E-02 0. -1.
          2   -1    0    0  501    0  0.00000000000E+00 -0.00000000000E+00 -0.46492885188E+00  0.46493584484E+00  0.25500000000E-02 0.  1.
         31    1    1    2    0    0  0.32948736447E+00  0.16697854101E+00  0.58736108369E+02  0.59207480914E+02  0.74470750000E+01 0.  1.
        -31    1    1    2    0    0 -0.32948736447E+00 -0.16697854101E+00  0.60399236069E+02  0.60857728248E+02  0.74470750000E+01 0. -1.
<mgrwt>
<rscale>  0 0.14913891E+02</rscale>
<asrwt>0</asrwt>
<pdfrwt beam="2">  1        2 0.98748825E+00 0.14913891E+02</pdfrwt>
<pdfrwt beam="1">  1       -2 0.99278315E+00 0.14913891E+02</pdfrwt>
<totfact>-0.19853241E-13</totfact>
</mgrwt>
</event>
<event>
 4    1 -0.5119137E-019  0.1495082E+02  0.7818608E-02  0.1869573E+00
          2   -1    0    0  501    0  0.00000000000E+00  0.00000000000E+00  0.11891403349E+03  0.11891403352E+03  0.25500000000E-02 0.  1.
         -2   -1    0    0    0  501 -0.00000000000E+00 -0.00000000000E+00 -0.46993059586E+00  0.46993751439E+00  0.25500000000E-02 0. -1.
         31    1    1    2    0    0  0.47503538977E+00 -0.28119420222E-01  0.62760653037E+02  0.63202728936E+02  0.74470750000E+01 0.  1.
        -31    1    1    2    0    0 -0.47503538977E+00  0.28119420222E-01  0.55683449857E+02  0.56181242095E+02  0.74470750000E+01 0. -1.
<mgrwt>
<rscale>  0 0.14950820E+02</rscale>
<asrwt>0</asrwt>
<pdfrwt beam="1">  1        2 0.98715020E+00 0.14950820E+02</pdfrwt>
<pdfrwt beam="2">  1       -2 0.99804745E+00 0.14950820E+02</pdfrwt>
<totfact>-0.14581137E-13</totfact>
</mgrwt>
</event>
<event>
 4    1  0.5119137E-019  0.1491581E+02  0.7818608E-02  0.1870649E+00
         -2   -1    0    0    0  501 -0.00000000000E+00  0.00000000000E+00  0.11882690158E+03  0.11882690161E+03  0.25500000000E-02 0. -1.
          2   -1    0    0  501    0  0.00000000000E+00 -0.00000000000E+00 -0.46807512986E+00  0.46808207581E+00  0.25500000000E-02 0.  1.
         31    1    1    2    0    0 -0.17554318202E+00 -0.34384758504E+00  0.60068608151E+02  0.60529708886E+02  0.74470750000E+01 0. -1.
        -31    1    1    2    0    0  0.17554318202E+00  0.34384758504E+00  0.58290218300E+02  0.58765274798E+02  0.74470750000E+01 0.  1.
<mgrwt>
<rscale>  0 0.14915808E+02</rscale>
<asrwt>0</asrwt>
<pdfrwt beam="2">  1        2 0.99411943E+00 0.14915808E+02</pdfrwt>
<pdfrwt beam="1">  1       -2 0.98641439E+00 0.14915808E+02</pdfrwt>
<totfact> 0.33465549E-13</totfact>
</mgrwt>
</event>
<event>
 4    1  0.5119137E-019  0.1492557E+02  0.7818608E-02  0.1870348E+00
         -2   -1    0    0    0  501 -0.00000000000E+00  0.00000000000E+00  0.11850968573E+03  0.11850968576E+03  0.25500000000E-02 0. -1.
          2   -1    0    0  501    0  0.00000000000E+00 -0.00000000000E+00 -0.46994285998E+00  0.46994977832E+00  0.25500000000E-02 0.  1.
         31    1    1    2    0    0  0.77547489431E-01 -0.41417969038E+00  0.60918189488E+02  0.61373139849E+02  0.74470750000E+01 0. -1.
        -31    1    1    2    0    0 -0.77547489431E-01  0.41417969038E+00  0.57121553387E+02  0.57606495691E+02  0.74470750000E+01 0.  1.
<mgrwt>
<rscale>  0 0.14925575E+02</rscale>
<asrwt>0</asrwt>
<pdfrwt beam="2">  1        2 0.99805999E+00 0.14925575E+02</pdfrwt>
<pdfrwt beam="1">  1       -2 0.98380687E+00 0.14925575E+02</pdfrwt>
<totfact> 0.35477706E-13</totfact>
</mgrwt>
</event>
<event>
 4    1 -0.5119137E-019  0.1493365E+02  0.7818608E-02  0.1870100E+00
         -2   -1    0    0    0  501 -0.00000000000E+00  0.00000000000E+00  0.11981573393E+03  0.11981573396E+03  0.25500000000E-02 0. -1.
          2   -1    0    0  501    0  0.00000000000E+00 -0.00000000000E+00 -0.46532332712E+00  0.46533031414E+00  0.25500000000E-02 0.  1.
         31    1    1    2    0    0  0.13662541494E+00 -0.81611937672E-01  0.63854362935E+02  0.64287354269E+02  0.74470750000E+01 0. -1.
        -31    1    1    2    0    0 -0.13662541494E+00  0.81611937672E-01  0.55496047668E+02  0.55993710002E+02  0.74470750000E+01 0.  1.
<mgrwt>
<rscale>  0 0.14933650E+02</rscale>
<asrwt>0</asrwt>
<pdfrwt beam="2">  1        2 0.98832973E+00 0.14933650E+02</pdfrwt>
<pdfrwt beam="1">  1       -2 0.99456800E+00 0.14933650E+02</pdfrwt>
<totfact>-0.21445484E-13</totfact>
</mgrwt>
</event>
<event>
 4    1 -0.5119137E-019  0.1494696E+02  0.7818608E-02  0.1869691E+00
         -2   -1    0    0    0  501 -0.00000000000E+00  0.00000000000E+00  0.11950866705E+03  0.11950866708E+03  0.25500000000E-02 0. -1.
          2   -1    0    0  501    0  0.00000000000E+00 -0.00000000000E+00 -0.46735064071E+00  0.46735759742E+00  0.25500000000E-02 0.  1.
         31    1    1    2    0    0 -0.13713195406E+00  0.54824566870E+00  0.61712522592E+02  0.62162800365E+02  0.74470750000E+01 0. -1.
        -31    1    1    2    0    0  0.13713195406E+00 -0.54824566870E+00  0.57328793821E+02  0.57813224313E+02  0.74470750000E+01 0.  1.
<mgrwt>
<rscale>  0 0.14946956E+02</rscale>
<asrwt>0</asrwt>
<pdfrwt beam="2">  1        2 0.99260896E+00 0.14946956E+02</pdfrwt>
<pdfrwt beam="1">  1       -2 0.99204571E+00 0.14946956E+02</pdfrwt>
<totfact>-0.97366271E-14</totfact>
</mgrwt>
</event>
<event>
 4    1  0.5119137E-019  0.1491872E+02  0.7818608E-02  0.1870559E+00
         -2   -1    0    0    0  501 -0.00000000000E+00  0.00000000000E+00  0.11907090664E+03  0.11907090667E+03  0.25500000000E-02 0.  1.
          2   -1    0    0  501    0  0.00000000000E+00 -0.00000000000E+00 -0.46729802611E+00  0.46730498361E+00  0.25500000000E-02 0. -1.
         31    1    1    2    0    0  0.29301604471E+00  0.30780748392E+00  0.58902198687E+02  0.59372624501E+02  0.74470750000E+01 0. -1.
        -31    1    1    2    0    0 -0.29301604471E+00 -0.30780748392E+00  0.59701409926E+02  0.60165587149E+02  0.74470750000E+01 0.  1.
<mgrwt>
<rscale>  0 0.14918715E+02</rscale>
<asrwt>0</asrwt>
<pdfrwt beam="2">  1        2 0.99248344E+00 0.14918715E+02</pdfrwt>
<pdfrwt beam="1">  1       -2 0.98842557E+00 0.14918715E+02</pdfrwt>
<totfact> 0.14198448E-13</totfact>
</mgrwt>
</event>
<event>
 4    1  0.5119137E-019  0.1494210E+02  0.7818608E-02  0.1869840E+00
         -2   -1    0    0    0  501 -0.00000000000E+00  0.00000000000E+00  0.11866131057E+03  0.11866131060E+03  0.25500000000E-02 0.  1.
          2   -1    0    0  501    0  0.00000000000E+00 -0.00000000000E+00 -0.47038224330E+00  0.47038915518E+00  0.25500000000E-02 0. -1.
         31    1    1    2    0    0  0.23015496405E+00 -0.49182672617E+00  0.61093399292E+02  0.61548007506E+02  0.74470750000E+01 0. -1.
        -31    1    1    2    0    0 -0.23015496405E+00  0.49182672617E+00  0.57097529033E+02  0.57583692245E+02  0.74470750000E+01 0. -1.
<mgrwt>
<rscale>  0 0.14942100E+02</rscale>
<asrwt>0</asrwt>
<pdfrwt beam="2">  1        2 0.99899449E+00 0.14942100E+02</pdfrwt>
<pdfrwt beam="1">  1       -2 0.98506425E+00 0.14942100E+02</pdfrwt>
<totfact> 0.14676724E-13</totfact>
</mgrwt>
</event>
<event>
 4    1 -0.5119137E-019  0.1491593E+02  0.7818608E-02  0.1870645E+00
         -2   -1    0    0    0  501 -0.00000000000E+00  0.00000000000E+00  0.11983601411E+03  0.11983601413E+03  0.25500000000E-02 0. -1.
          2   -1    0    0  501    0  0.00000000000E+00 -0.00000000000E+00 -0.46414088355E+00  0.46414788837E+00  0.25500000000E-02 0.  1.
         31    1    1    2    0    0 -0.81979177659E-02 -0.31239286499E+00  0.61736371971E+02  0.62184694313E+02  0.74470750000E+01 0. -1.
        -31    1    1    2    0    0  0.81979177659E-02  0.31239286499E+00  0.57635501253E+02  0.58115467711E+02  0.74470750000E+01 0.  1.
<mgrwt>
<rscale>  0 0.14915927E+02</rscale>
<asrwt>0</asrwt>
<pdfrwt beam="2">  1        2 0.98582863E+00 0.14915927E+02</pdfrwt>
<pdfrwt beam="1">  1       -2 0.99472591E+00 0.14915927E+02</pdfrwt>
<totfact>-0.30512492E-13</totfact>
</mgrwt>
</event>
<event>
 4    1 -0.5119137E-019  0.1492476E+02  0.7818608E-02  0.1870373E+00
          2   -1    0    0  501    0  0.00000000000E+00  0.00000000000E+00  0.11926711674E+03  0.11926711676E+03  0.25500000000E-02 0.  1.
         -2   -1    0    0    0  501 -0.00000000000E+00 -0.00000000000E+00 -0.46690751500E+00  0.46691447832E+00  0.25500000000E-02 0. -1.
         31    1    1    2    0    0 -0.28121483957E+00  0.13948625564E+00  0.62288957951E+02  0.62733338400E+02  0.74470750000E+01 0.  1.
        -31    1    1    2    0    0  0.28121483957E+00 -0.13948625564E+00  0.56511251272E+02  0.57000692843E+02  0.74470750000E+01 0. -1.
<mgrwt>
<rscale>  0 0.14924762E+02</rscale>
<asrwt>0</asrwt>
<pdfrwt beam="1">  1        2 0.99004474E+00 0.14924762E+02</pdfrwt>
<pdfrwt beam="2">  1       -2 0.99166367E+00 0.14924762E+02</pdfrwt>
<totfact>-0.10103299E-13</totfact>
</mgrwt>
</event>
<event>
 4    1 -0.5119137E-019  0.1493408E+02  0.7818608E-02  0.1870087E+00
          2   -1    0    0  501    0  0.00000000000E+00  0.00000000000E+00  0.11847818394E+03  0.11847818397E+03  0.25500000000E-02 0. -1.
         -2   -1    0    0    0  501 -0.00000000000E+00 -0.00000000000E+00 -0.47060380151E+00  0.47061071013E+00  0.25500000000E-02 0.  1.
         31    1    1    2    0    0  0.19612394092E+00 -0.19727548033E+00  0.55264617484E+02  0.55764811968E+02  0.74470750000E+01 0.  1.
        -31    1    1    2    0    0 -0.19612394092E+00  0.19727548033E+00  0.62742962656E+02  0.63183982710E+02  0.74470750000E+01 0. -1.
<mgrwt>
<rscale>  0 0.14934081E+02</rscale>
<asrwt>0</asrwt>
<pdfrwt beam="1">  1        2 0.98355186E+00 0.14934081E+02</pdfrwt>
<pdfrwt beam="2">  1       -2 0.99945707E+00 0.14934081E+02</pdfrwt>
<totfact>-0.80746911E-14</totfact>
</mgrwt>
</event>
<event>
 4    1  0.5119137E-019  0.1492822E+02  0.7818608E-02  0.1870267E+00
         -2   -1    0    0    0  501 -0.00000000000E+00  0.00000000000E+00  0.11908770527E+03  0.11908770530E+03  0.25500000000E-02 0. -1.
          2   -1    0    0  501    0  0.00000000000E+00 -0.00000000000E+00 -0.46782780010E+00  0.46783474972E+00  0.25500000000E-02 0.  1.
         31    1    1    2    0    0 -0.80579549768E-01 -0.16803042560E+00  0.63060392309E+02  0.63498871892E+02  0.74470750000E+01 0. -1.
        -31    1    1    2    0    0  0.80579549768E-01  0.16803042560E+00  0.55559485163E+02  0.56056668158E+02  0.74470750000E+01 0.  1.
<mgrwt>
<rscale>  0 0.14928222E+02</rscale>
<asrwt>0</asrwt>
<pdfrwt beam="2">  1        2 0.99360474E+00 0.14928222E+02</pdfrwt>
<pdfrwt beam="1">  1       -2 0.98856885E+00 0.14928222E+02</pdfrwt>
<totfact> 0.11810657E-13</totfact>
</mgrwt>
</event>
<event>
 4    1  0.5119137E-019  0.1490492E+02  0.7818608E-02  0.1870984E+00
          2   -1    0    0  501    0  0.00000000000E+00  0.00000000000E+00  0.11997908381E+03  0.11997908383E+03  0.25500000000E-02 0. -1.
         -2   -1    0    0    0  501 -0.00000000000E+00 -0.00000000000E+00 -0.46290362809E+00  0.46291065164E+00  0.25500000000E-02 0.  1.
         31    1    1    2    0    0 -0.98127466723E-02  0.69877572243E-02  0.57471004586E+02  0.57951492123E+02  0.74470750000E+01 0.  1.
        -31    1    1    2    0    0  0.98127466723E-02 -0.69877572243E-02  0.62045175593E+02  0.62490502363E+02  0.74470750000E+01 0. -1.
<mgrwt>
<rscale>  0 0.14904922E+02</rscale>
<asrwt>0</asrwt>
<pdfrwt beam="1">  1        2 0.99589868E+00 0.14904922E+02</pdfrwt>
<pdfrwt beam="2">  1       -2 0.98321538E+00 0.14904922E+02</pdfrwt>
<totfact> 0.68146420E-13</totfact>
</mgrwt>
</event>
<event>
 4    1  0.5119137E-019  0.1490823E+02  0.7818608E-02  0.1870882E+00
         -2   -1    0    0    0  501 -0.00000000000E+00  0.00000000000E+00  0.11841665287E+03  0.11841665290E+03  0.25500000000E-02 0.  1.
          2   -1    0    0  501    0  0.00000000000E+00 -0.00000000000E+00 -0.46921952673E+00  0.46922645574E+00  0.25500000000E-02 0. -1.
         31    1    1    2    0    0  0.31219690209E+00  0.19363711857E-01  0.58304075197E+02  0.58778584131E+02  0.74470750000E+01 0.  1.
        -31    1    1    2    0    0 -0.31219690209E+00 -0.19363711857E-01  0.59643358145E+02  0.60107295221E+02  0.74470750000E+01 0.  1.
<mgrwt>
<rscale>  0 0.14908229E+02</rscale>
<asrwt>0</asrwt>
<pdfrwt beam="2">  1        2 0.99652678E+00 0.14908229E+02</pdfrwt>
<pdfrwt beam="1">  1       -2 0.98303163E+00 0.14908229E+02</pdfrwt>
<totfact> 0.64231440E-13</totfact>
</mgrwt>
</event>
<event>
 4    1 -0.5119137E-019  0.1498503E+02  0.7818608E-02  0.1868526E+00
         -2   -1    0    0    0  501 -0.00000000000E+00  0.00000000000E+00  0.11984872484E+03  0.11984872486E+03  0.25500000000E-02 0.  1.
          2   -1    0    0  501    0  0.00000000000E+00 -0.00000000000E+00 -0.46840154613E+00  0.46840848724E+00  0.25500000000E-02 0. -1.
         31    1    1    2    0    0  0.48907922191E+00 -0.60193266766E+00  0.57457828549E+02  0.57943614911E+02  0.74470750000E+01 0. -1.
        -31    1    1    2    0    0 -0.48907922191E+00  0.60193266766E+00  0.61922494741E+02  0.62373518439E+02  0.74470750000E+01 0. -1.
<mgrwt>
<rscale>  0 0.14985025E+02</rscale>
<asrwt>0</asrwt>
<pdfrwt beam="2">  1        2 0.99484326E+00 0.14985025E+02</pdfrwt>
<pdfrwt beam="1">  1       -2 0.99486624E+00 0.14985025E+02</pdfrwt>
<totfact>-0.12142307E-13</totfact>
</mgrwt>
</event>
<event>
 4    1  0.5119137E-019  0.1493712E+02  0.7818608E-02  0.1869993E+00
          2   -1    0    0  501    0  0.00000000000E+00  0.00000000000E+00  0.12030363250E+03  0.12030363253E+03  0.25500000000E-02 0. -1.
         -2   -1    0    0    0  501 -0.00000000000E+00 -0.00000000000E+00 -0.46365132327E+00  0.46365833549E+00  0.25500000000E-02 0.  1.
         31    1    1    2    0    0  0.24966637309E+00 -0.50578116213E+00  0.60306851513E+02  0.60767535850E+02  0.74470750000E+01 0. -1.
        -31    1    1    2    0    0 -0.24966637309E+00  0.50578116213E+00  0.59533129665E+02  0.59999755013E+02  0.74470750000E+01 0.  1.
<mgrwt>
<rscale>  0 0.14937117E+02</rscale>
<asrwt>0</asrwt>
<pdfrwt beam="1">  1        2 0.99858846E+00 0.14937117E+02</pdfrwt>
<pdfrwt beam="2">  1       -2 0.98480759E+00 0.14937117E+02</pdfrwt>
<totfact> 0.21164510E-13</totfact>
</mgrwt>
</event>
<event>
 4    1 -0.5119137E-019  0.1493100E+02  0.7818608E-02  0.1870181E+00
         -2   -1    0    0    0  501 -0.00000000000E+00  0.00000000000E+00  0.12001751180E+03  0.12001751182E+03  0.25500000000E-02 0. -1.
          2   -1    0    0  501    0  0.00000000000E+00 -0.00000000000E+00 -0.46437594873E+00  0.46438295001E+00  0.25500000000E-02 0.  1.
         31    1    1    2    0    0 -0.52168021892E+00 -0.30940222668E-01  0.59450217421E+02  0.59917112623E+02  0.74470750000E+01 0.  1.
        -31    1    1    2    0    0  0.52168021892E+00  0.30940222668E-01  0.60102918427E+02  0.60564782151E+02  0.74470750000E+01 0.  1.
<mgrwt>
<rscale>  0 0.14930997E+02</rscale>
<asrwt>0</asrwt>
<pdfrwt beam="2">  1        2 0.98633173E+00 0.14930997E+02</pdfrwt>
<pdfrwt beam="1">  1       -2 0.99622860E+00 0.14930997E+02</pdfrwt>
<totfact>-0.25738682E-13</totfact>
</mgrwt>
</event>
<event>
 4    1 -0.5119137E-019  0.1504671E+02  0.7818608E-02  0.1866646E+00
         -2   -1    0    0    0  501 -0.00000000000E+00  0.00000000000E+00  0.12027718000E+03  0.12027718003E+03  0.25500000000E-02 0. -1.
          2   -1    0    0  501    0  0.00000000000E+00 -0.00000000000E+00 -0.47058356993E+00  0.47059047885E+00  0.25500000000E-02 0.  1.
         31    1    1    2    0    0  0.56303160934E+00 -0.87031043300E+00  0.57818183587E+02  0.58305023147E+02  0.74470750000E+01 0. -1.
        -31    1    1    2    0    0 -0.56303160934E+00  0.87031043300E+00  0.61988412848E+02  0.62442747364E+02  0.74470750000E+01 0. -1.
<mgrwt>
<rscale>  0 0.15046712E+02</rscale>
<asrwt>0</asrwt>
<pdfrwt beam="2">  1        2 0.99947342E+00 0.15046712E+02</pdfrwt>
<pdfrwt beam="1">  1       -2 0.99842705E+00 0.15046712E+02</pdfrwt>
<totfact>-0.98822113E-15</totfact>
</mgrwt>
</event>
<event>
 4    1  0.5119137E-019  0.1490739E+02  0.7818608E-02  0.1870908E+00
          2   -1    0    0  501    0  0.00000000000E+00  0.00000000000E+00  0.12003350660E+03  0.12003350662E+03  0.25500000000E-02 0. -1.
         -2   -1    0    0    0  501 -0.00000000000E+00 -0.00000000000E+00 -0.46284688905E+00  0.46285391345E+00  0.25500000000E-02 0.  1.
         31    1    1    2    0    0 -0.81814902383E-01  0.10620380164E+00  0.57489688349E+02  0.57970174792E+02  0.74470750000E+01 0.  1.
        -31    1    1    2    0    0  0.81814902383E-01 -0.10620380164E+00  0.62080971360E+02  0.62526185746E+02  0.74470750000E+01 0. -1.
<mgrwt>
<rscale>  0 0.14907389E+02</rscale>
<asrwt>0</asrwt>
<pdfrwt beam="1">  1        2 0.99634822E+00 0.14907389E+02</pdfrwt>
<pdfrwt beam="2">  1       -2 0.98309705E+00 0.14907389E+02</pdfrwt>
<totfact> 0.65310091E-13</totfact>
</mgrwt>
</event>
<event>
 4    1 -0.5119137E-019  0.1495169E+02  0.7818608E-02  0.1869546E+00
          2   -1    0    0  501    0  0.00000000000E+00  0.00000000000E+00  0.11922319272E+03  0.11922319274E+03  0.25500000000E-02 0. -1.
         -2   -1    0    0    0  501 -0.00000000000E+00 -0.00000000000E+00 -0.46876630386E+00  0.46877323957E+00  0.25500000000E-02 0.  1.
         31    1    1    2    0    0 -0.19016540027E-01  0.53954705222E+00  0.62349235263E+02  0.62794725388E+02  0.74470750000E+01 0.  1.
        -31    1    1    2    0    0  0.19016540027E-01 -0.53954705222E+00  0.56405191149E+02  0.56897240594E+02  0.74470750000E+01 0.  1.
<mgrwt>
<rscale>  0 0.14951686E+02</rscale>
<asrwt>0</asrwt>
<pdfrwt beam="1">  1        2 0.98969692E+00 0.14951686E+02</pdfrwt>
<pdfrwt beam="2">  1       -2 0.99559459E+00 0.14951686E+02</pdfrwt>
<totfact>-0.17895878E-13</totfact>
</mgrwt>
</event>
<event>
 4    1 -0.5119137E-019  0.1495518E+02  0.7818608E-02  0.1869439E+00
          2   -1    0    0  501    0  0.00000000000E+00  0.00000000000E+00  0.11948208333E+03  0.11948208335E+03  0.25500000000E-02 0.  1.
         -2   -1    0    0    0  501 -0.00000000000E+00 -0.00000000000E+00 -0.46796893179E+00  0.46797587931E+00  0.25500000000E-02 0. -1.
         31    1    1    2    0    0 -0.41728015757E+00 -0.43433511603E+00  0.57066021847E+02  0.57553041146E+02  0.74470750000E+01 0. -1.
        -31    1    1    2    0    0  0.41728015757E+00  0.43433511603E+00  0.61948092547E+02  0.62397018086E+02  0.74470750000E+01 0.  1.
<mgrwt>
<rscale>  0 0.14955176E+02</rscale>
<asrwt>0</asrwt>
<pdfrwt beam="1">  1        2 0.99183101E+00 0.14955176E+02</pdfrwt>
<pdfrwt beam="2">  1       -2 0.99391615E+00 0.14955176E+02</pdfrwt>
<totfact>-0.14908021E-13</totfact>
</mgrwt>
</event>
<event>
 4    1  0.5119137E-019  0.1492563E+02  0.7818608E-02  0.1870347E+00
          2   -1    0    0  501    0  0.00000000000E+00  0.00000000000E+00  0.11983923175E+03  0.11983923177E+03  0.25500000000E-02 0. -1.
         -2   -1    0    0    0  501 -0.00000000000E+00 -0.00000000000E+00 -0.46473219466E+00  0.46473919057E+00  0.25500000000E-02 0.  1.
         31    1    1    2    0    0 -0.39530309964E+00 -0.20116287692E+00  0.61256709787E+02  0.61709319807E+02  0.74470750000E+01 0. -1.
        -31    1    1    2    0    0  0.39530309964E+00  0.20116287692E+00  0.58117789766E+02  0.58594651158E+02  0.74470750000E+01 0.  1.
<mgrwt>
<rscale>  0 0.14925625E+02</rscale>
<asrwt>0</asrwt>
<pdfrwt beam="1">  1        2 0.99475740E+00 0.14925625E+02</pdfrwt>
<pdfrwt beam="2">  1       -2 0.98707980E+00 0.14925625E+02</pdfrwt>
<totfact> 0.24343568E-13</totfact>
</mgrwt>
</event>
<event>
 4    1 -0.5119137E-019  0.1496295E+02  0.7818608E-02  0.1869201E+00
         -2   -1    0    0    0  501 -0.00000000000E+00  0.00000000000E+00  0.12022273177E+03  0.12022273180E+03  0.25500000000E-02 0.  1.
          2   -1    0    0  501    0  0.00000000000E+00 -0.00000000000E+00 -0.46556954749E+00  0.46557653082E+00  0.25500000000E-02 0. -1.
         31    1    1    2    0    0 -0.49013055562E-01  0.45456639927E+00  0.64329468088E+02  0.64760701227E+02  0.74470750000E+01 0.  1.
        -31    1    1    2    0    0  0.49013055562E-01 -0.45456639927E+00  0.55427694138E+02  0.55927607104E+02  0.74470750000E+01 0. -1.
<mgrwt>
<rscale>  0 0.14962950E+02</rscale>
<asrwt>0</asrwt>
<pdfrwt beam="2">  1        2 0.98886362E+00 0.14962950E+02</pdfrwt>
<pdfrwt beam="1">  1       -2 0.99793537E+00 0.14962950E+02</pdfrwt>
<totfact>-0.12260081E-13</totfact>
</mgrwt>
</event>
<event>
 4    1 -0.5119137E-019  0.1489744E+02  0.7818608E-02  0.1871214E+00
          2   -1    0    0  501    0  0.00000000000E+00  0.00000000000E+00  0.11800009312E+03  0.11800009315E+03  0.25500000000E-02 0. -1.
         -2   -1    0    0    0  501 -0.00000000000E+00 -0.00000000000E+00 -0.47019494508E+00  0.47020185971E+00  0.25500000000E-02 0.  1.
         31    1    1    2    0    0 -0.79208331243E-01 -0.46558639255E-02  0.57691027881E+02  0.58169750899E+02  0.74470750000E+01 0. -1.
        -31    1    1    2    0    0  0.79208331243E-01  0.46558639255E-02  0.59838870294E+02  0.60300544108E+02  0.74470750000E+01 0. -1.
<mgrwt>
<rscale>  0 0.14897444E+02</rscale>
<asrwt>0</asrwt>
<pdfrwt beam="1">  1        2 0.97959529E+00 0.14897444E+02</pdfrwt>
<pdfrwt beam="2">  1       -2 0.99857620E+00 0.14897444E+02</pdfrwt>
<totfact>-0.38162926E-13</totfact>
</mgrwt>
</event>
<event>
 4    1 -0.5119137E-019  0.1489581E+02  0.7818608E-02  0.1871265E+00
          2   -1    0    0  501    0  0.00000000000E+00  0.00000000000E+00  0.11788443739E+03  0.11788443742E+03  0.25500000000E-02 0. -1.
         -2   -1    0    0    0  501 -0.00000000000E+00 -0.00000000000E+00 -0.47055280088E+00  0.47055971026E+00  0.25500000000E-02 0.  1.
         31    1    1    2    0    0  0.26506136427E-01 -0.92922340137E-01  0.59142101395E+02  0.59609197449E+02  0.74470750000E+01 0.  1.
        -31    1    1    2    0    0 -0.26506136427E-01  0.92922340137E-01  0.58271783196E+02  0.58745799680E+02  0.74470750000E+01 0. -1.
<mgrwt>
<rscale>  0 0.14895806E+02</rscale>
<asrwt>0</asrwt>
<pdfrwt beam="1">  1        2 0.97864193E+00 0.14895806E+02</pdfrwt>
<pdfrwt beam="2">  1       -2 0.99932927E+00 0.14895806E+02</pdfrwt>
<totfact>-0.22304339E-13</totfact>
</mgrwt>
</event>
<event>
 4    1 -0.5119137E-019  0.1496728E+02  0.7818608E-02  0.1869069E+00
         -2   -1    0    0    0  501 -0.00000000000E+00  0.00000000000E+00  0.11985269230E+03  0.11985269233E+03  0.25500000000E-02 0.  1.
          2   -1    0    0  501    0  0.00000000000E+00 -0.00000000000E+00 -0.46727713876E+00  0.46728409657E+00  0.25500000000E-02 0. -1.
         31    1    1    2    0    0 -0.72904920008E-01 -0.59037972210E+00  0.56169756881E+02  0.56664401325E+02  0.74470750000E+01 0. -1.
        -31    1    1    2    0    0  0.72904920008E-01  0.59037972210E+00  0.63215658280E+02  0.63655575099E+02  0.74470750000E+01 0.  1.
<mgrwt>
<rscale>  0 0.14967277E+02</rscale>
<asrwt>0</asrwt>
<pdfrwt beam="2">  1        2 0.99246456E+00 0.14967277E+02</pdfrwt>
<pdfrwt beam="1">  1       -2 0.99488975E+00 0.14967277E+02</pdfrwt>
<totfact>-0.14660785E-13</totfact>
</mgrwt>
</event>
<event>
 4    1  0.5119137E-019  0.1491041E+02  0.7818608E-02  0.1870815E+00
         -2   -1    0    0    0  501 -0.00000000000E+00  0.00000000000E+00  0.11839003559E+03  0.11839003562E+03  0.25500000000E-02 0.  1.
          2   -1    0    0  501    0  0.00000000000E+00 -0.00000000000E+00 -0.46946224155E+00  0.46946916697E+00  0.25500000000E-02 0. -1.
         31    1    1    2    0    0 -0.20285774606E+00 -0.24296864899E+00  0.60114201655E+02  0.60574552014E+02  0.74470750000E+01 0. -1.
        -31    1    1    2    0    0  0.20285774606E+00  0.24296864899E+00  0.57806371694E+02  0.58284952771E+02  0.74470750000E+01 0.  1.
<mgrwt>
<rscale>  0 0.14910408E+02</rscale>
<asrwt>0</asrwt>
<pdfrwt beam="2">  1        2 0.99703933E+00 0.14910408E+02</pdfrwt>
<pdfrwt beam="1">  1       -2 0.98281355E+00 0.14910408E+02</pdfrwt>
<totfact> 0.60680511E-13</totfact>
</mgrwt>
</event>
<event>
 4    1  0.5119137E-019  0.1489951E+02  0.7818608E-02  0.1871150E+00
          2   -1    0    0  501    0  0.00000000000E+00  0.00000000000E+00  0.12008512225E+03  0.12008512227E+03  0.25500000000E-02 0. -1.
         -2   -1    0    0    0  501 -0.00000000000E+00 -0.00000000000E+00 -0.46215916639E+00  0.46216620125E+00  0.25500000000E-02 0.  1.
         31    1    1    2    0    0 -0.25882547382E-01  0.10708766274E+00  0.61160515062E+02  0.61612333720E+02  0.74470750000E+01 0.  1.
        -31    1    1    2    0    0  0.25882547382E-01 -0.10708766274E+00  0.58462448019E+02  0.58934954757E+02  0.74470750000E+01 0.  1.
<mgrwt>
<rscale>  0 0.14899512E+02</rscale>
<asrwt>0</asrwt>
<pdfrwt beam="1">  1        2 0.99676932E+00 0.14899512E+02</pdfrwt>
<pdfrwt beam="2">  1       -2 0.98164355E+00 0.14899512E+02</pdfrwt>
<totfact> 0.81600233E-13</totfact>
</mgrwt>
</event>
<event>
 4    1 -0.5119137E-019  0.1494264E+02  0.7818608E-02  0.1869824E+00
         -2   -1    0    0    0  501 -0.00000000000E+00  0.00000000000E+00  0.11950834411E+03  0.11950834414E+03  0.25500000000E-02 0. -1.
          2   -1    0    0  501    0  0.00000000000E+00 -0.00000000000E+00 -0.46708227326E+00  0.46708923397E+00  0.25500000000E-02 0.  1.
         31    1    1    2    0    0  0.24538617068E+00  0.14526988012E+00  0.55268982402E+02  0.55769173022E+02  0.74470750000E+01 0.  1.
        -31    1    1    2    0    0 -0.24538617068E+00 -0.14526988012E+00  0.63772279433E+02  0.64206260348E+02  0.74470750000E+01 0. -1.
<mgrwt>
<rscale>  0 0.14942643E+02</rscale>
<asrwt>0</asrwt>
<pdfrwt beam="2">  1        2 0.99204119E+00 0.14942643E+02</pdfrwt>
<pdfrwt beam="1">  1       -2 0.99204083E+00 0.14942643E+02</pdfrwt>
<totfact>-0.10124939E-13</totfact>
</mgrwt>
</event>
<event>
 4    1 -0.5119137E-019  0.1497004E+02  0.7818608E-02  0.1868984E+00
          2   -1    0    0  501    0  0.00000000000E+00  0.00000000000E+00  0.11914068256E+03  0.11914068258E+03  0.25500000000E-02 0.  1.
         -2   -1    0    0    0  501 -0.00000000000E+00 -0.00000000000E+00 -0.47024312666E+00  0.47025004059E+00  0.25500000000E-02 0. -1.
         31    1    1    2    0    0  0.43652502192E+00  0.55200591687E+00  0.61468892608E+02  0.61922362270E+02  0.74470750000E+01 0.  1.
        -31    1    1    2    0    0 -0.43652502192E+00 -0.55200591687E+00  0.57201546821E+02  0.57688570353E+02  0.74470750000E+01 0. -1.
<mgrwt>
<rscale>  0 0.14970037E+02</rscale>
<asrwt>0</asrwt>
<pdfrwt beam="1">  1        2 0.98902688E+00 0.14970037E+02</pdfrwt>
<pdfrwt beam="2">  1       -2 0.99871607E+00 0.14970037E+02</pdfrwt>
<totfact>-0.80466344E-14</totfact>
</mgrwt>
</event>
<event>
 4    1  0.5119137E-019  0.1491455E+02  0.7818608E-02  0.1870687E+00
         -2   -1    0    0    0  501 -0.00000000000E+00  0.00000000000E+00  0.11847342618E+03  0.11847342620E+03  0.25500000000E-02 0.  1.
          2   -1    0    0  501    0  0.00000000000E+00 -0.00000000000E+00 -0.46939229094E+00  0.46939921740E+00  0.25500000000E-02 0. -1.
         31    1    1    2    0    0  0.30286451771E-01  0.38706802461E+00  0.58718764954E+02  0.59190396372E+02  0.74470750000E+01 0.  1.
        -31    1    1    2    0    0 -0.30286451771E-01 -0.38706802461E+00  0.59285268931E+02  0.59752429049E+02  0.74470750000E+01 0. -1.
<mgrwt>
<rscale>  0 0.14914547E+02</rscale>
<asrwt>0</asrwt>
<pdfrwt beam="2">  1        2 0.99689413E+00 0.14914547E+02</pdfrwt>
<pdfrwt beam="1">  1       -2 0.98350250E+00 0.14914547E+02</pdfrwt>
<totfact> 0.53712759E-13</totfact>
</mgrwt>
</event>
<event>
 4    1  0.5119137E-019  0.1495255E+02  0.7818608E-02  0.1869520E+00
         -2   -1    0    0    0  501 -0.00000000000E+00  0.00000000000E+00  0.11901497318E+03  0.11901497320E+03  0.25500000000E-02 0.  1.
          2   -1    0    0  501    0  0.00000000000E+00 -0.00000000000E+00 -0.46964092075E+00  0.46964784354E+00  0.25500000000E-02 0. -1.
         31    1    1    2    0    0  0.26958842636E+00 -0.28309401739E+00  0.55021899183E+02  0.55524959575E+02  0.74470750000E+01 0. -1.
        -31    1    1    2    0    0 -0.26958842636E+00  0.28309401739E+00  0.63523433073E+02  0.63959661472E+02  0.74470750000E+01 0.  1.
<mgrwt>
<rscale>  0 0.14952554E+02</rscale>
<asrwt>0</asrwt>
<pdfrwt beam="2">  1        2 0.99743799E+00 0.14952554E+02</pdfrwt>
<pdfrwt beam="1">  1       -2 0.98798245E+00 0.14952554E+02</pdfrwt>
<totfact> 0.10107867E-13</totfact>
</mgrwt>
</event>
<event>
 4    1 -0.5119137E-019  0.1496727E+02  0.7818608E-02  0.1869069E+00
         -2   -1    0    0    0  501 -0.00000000000E+00  0.00000000000E+00  0.11980929861E+03  0.11980929863E+03  0.25500000000E-02 0. -1.
          2   -1    0    0  501    0  0.00000000000E+00 -0.00000000000E+00 -0.46744576062E+00  0.46745271592E+00  0.25500000000E-02 0.  1.
         31    1    1    2    0    0 -0.29643803880E+00 -0.15480614680E+00  0.64964940783E+02  0.65391240220E+02  0.74470750000E+01 0. -1.
        -31    1    1    2    0    0  0.29643803880E+00  0.15480614680E+00  0.54376912062E+02  0.54885511129E+02  0.74470750000E+01 0.  1.
<mgrwt>
<rscale>  0 0.14967267E+02</rscale>
<asrwt>0</asrwt>
<pdfrwt beam="2">  1        2 0.99281990E+00 0.14967267E+02</pdfrwt>
<pdfrwt beam="1">  1       -2 0.99453233E+00 0.14967267E+02</pdfrwt>
<totfact>-0.14277062E-13</totfact>
</mgrwt>
</event>
<event>
 4    1 -0.5119137E-019  0.1491683E+02  0.7818608E-02  0.1870617E+00
          2   -1    0    0  501    0  0.00000000000E+00  0.00000000000E+00  0.11836572907E+03  0.11836572910E+03  0.25500000000E-02 0. -1.
         -2   -1    0    0    0  501 -0.00000000000E+00 -0.00000000000E+00 -0.46996306762E+00  0.46996998567E+00  0.25500000000E-02 0.  1.
         31    1    1    2    0    0  0.34754604109E+00 -0.13853797755E+00  0.60305163557E+02  0.60764394663E+02  0.74470750000E+01 0. -1.
        -31    1    1    2    0    0 -0.34754604109E+00  0.13853797755E+00  0.57590602444E+02  0.58071304419E+02  0.74470750000E+01 0.  1.
<mgrwt>
<rscale>  0 0.14916827E+02</rscale>
<asrwt>0</asrwt>
<pdfrwt beam="1">  1        2 0.98261671E+00 0.14916827E+02</pdfrwt>
<pdfrwt beam="2">  1       -2 0.99809794E+00 0.14916827E+02</pdfrwt>
<totfact>-0.29477513E-13</totfact>
</mgrwt>
</event>
<event>
 4    1 -0.5119137E-019  0.1495249E+02  0.7818608E-02  0.1869522E+00
         -2   -1    0    0    0  501 -0.00000000000E+00  0.00000000000E+00  0.11996999117E+03  0.11996999120E+03  0.25500000000E-02 0. -1.
          2   -1    0    0  501    0  0.00000000000E+00 -0.00000000000E+00 -0.46589862793E+00  0.46590560633E+00  0.25500000000E-02 0.  1.
         31    1    1    2    0    0 -0.15566254208E+00  0.23869087885E+00  0.64545332995E+02  0.64974149796E+02  0.74470750000E+01 0. -1.
        -31    1    1    2    0    0  0.15566254208E+00 -0.23869087885E+00  0.54958759550E+02  0.55461747011E+02  0.74470750000E+01 0.  1.
<mgrwt>
<rscale>  0 0.14952495E+02</rscale>
<asrwt>0</asrwt>
<pdfrwt beam="2">  1        2 0.98955182E+00 0.14952495E+02</pdfrwt>
<pdfrwt beam="1">  1       -2 0.99584826E+00 0.14952495E+02</pdfrwt>
<totfact>-0.17786363E-13</totfact>
</mgrwt>
</event>
<event>
 4    1 -0.5119137E-019  0.1498282E+02  0.7818608E-02  0.1868593E+00
          2   -1    0    0  501    0  0.00000000000E+00  0.00000000000E+00  0.11944439767E+03  0.11944439770E+03  0.25500000000E-02 0.  1.
         -2   -1    0    0    0  501 -0.00000000000E+00 -0.00000000000E+00 -0.46984899655E+00  0.46985591628E+00  0.25500000000E-02 0. -1.
         31    1    1    2    0    0  0.30178045959E+00  0.70227656104E+00  0.61723332989E+02  0.62175662644E+02  0.74470750000E+01 0.  1.
        -31    1    1    2    0    0 -0.30178045959E+00 -0.70227656104E+00  0.57251215683E+02  0.57738590969E+02  0.74470750000E+01 0. -1.
<mgrwt>
<rscale>  0 0.14982823E+02</rscale>
<asrwt>0</asrwt>
<pdfrwt beam="1">  1        2 0.99153495E+00 0.14982823E+02</pdfrwt>
<pdfrwt beam="2">  1       -2 0.99789227E+00 0.14982823E+02</pdfrwt>
<totfact>-0.97141662E-14</totfact>
</mgrwt>
</event>
<event>
 4    1  0.5119137E-019  0.1490047E+02  0.7818608E-02  0.1871121E+00
          2   -1    0    0  501    0  0.00000000000E+00  0.00000000000E+00  0.11936905626E+03  0.11936905629E+03  0.25500000000E-02 0. -1.
         -2   -1    0    0    0  501 -0.00000000000E+00 -0.00000000000E+00 -0.46499108851E+00  0.46499808053E+00  0.25500000000E-02 0.  1.
         31    1    1    2    0    0  0.11487270460E+00  0.17871519516E+00  0.59100825669E+02  0.59568545858E+02  0.74470750000E+01 0. -1.
        -31    1    1    2    0    0 -0.11487270460E+00 -0.17871519516E+00  0.59803239504E+02  0.60265508511E+02  0.74470750000E+01 0.  1.
<mgrwt>
<rscale>  0 0.14900465E+02</rscale>
<asrwt>0</asrwt>
<pdfrwt beam="1">  1        2 0.99087181E+00 0.14900465E+02</pdfrwt>
<pdfrwt beam="2">  1       -2 0.98761252E+00 0.14900465E+02</pdfrwt>
<totfact> 0.25765220E-13</totfact>
</mgrwt>
</event>
<event>
 4    1  0.5119137E-019  0.1490820E+02  0.7818608E-02  0.1870883E+00
          2   -1    0    0  501    0  0.00000000000E+00  0.00000000000E+00  0.11973525052E+03  0.11973525055E+03  0.25500000000E-02 0.  1.
         -2   -1    0    0    0  501 -0.00000000000E+00 -0.00000000000E+00 -0.46405020433E+00  0.46405721053E+00  0.25500000000E-02 0. -1.
         31    1    1    2    0    0 -0.60968080055E-01  0.29929318300E+00  0.58775857467E+02  0.59246549609E+02  0.74470750000E+01 0. -1.
        -31    1    1    2    0    0  0.60968080055E-01 -0.29929318300E+00  0.60495342847E+02  0.60952758147E+02  0.74470750000E+01 0. -1.
<mgrwt>
<rscale>  0 0.14908198E+02</rscale>
<asrwt>0</asrwt>
<pdfrwt beam="1">  1        2 0.99389198E+00 0.14908198E+02</pdfrwt>
<pdfrwt beam="2">  1       -2 0.98563358E+00 0.14908198E+02</pdfrwt>
<totfact> 0.44349731E-13</totfact>
</mgrwt>
</event>
<event>
 4    1 -0.5119137E-019  0.1491840E+02  0.7818608E-02  0.1870569E+00
          2   -1    0    0  501    0  0.00000000000E+00  0.00000000000E+00  0.11904386922E+03  0.11904386925E+03  0.25500000000E-02 0. -1.
         -2   -1    0    0    0  501 -0.00000000000E+00 -0.00000000000E+00 -0.46738440687E+00  0.46739136309E+00  0.25500000000E-02 0.  1.
         31    1    1    2    0    0  0.14357634581E+00  0.12003708878E-04  0.56082589183E+02  0.56575050594E+02  0.74470750000E+01 0.  1.
        -31    1    1    2    0    0 -0.14357634581E+00 -0.12003708878E-04  0.62493895630E+02  0.62936210017E+02  0.74470750000E+01 0. -1.
<mgrwt>
<rscale>  0 0.14918400E+02</rscale>
<asrwt>0</asrwt>
<pdfrwt beam="1">  1        2 0.98820272E+00 0.14918400E+02</pdfrwt>
<pdfrwt beam="2">  1       -2 0.99266530E+00 0.14918400E+02</pdfrwt>
<totfact>-0.17616485E-13</totfact>
</mgrwt>
</event>
<event>
 4    1  0.5119137E-019  0.1491451E+02  0.7818608E-02  0.1870689E+00
         -2   -1    0    0    0  501 -0.00000000000E+00  0.00000000000E+00  0.11830352486E+03  0.11830352489E+03  0.25500000000E-02 0. -1.
          2   -1    0    0  501    0  0.00000000000E+00 -0.00000000000E+00 -0.47006379291E+00  0.47007070947E+00  0.25500000000E-02 0.  1.
         31    1    1    2    0    0 -0.21755246576E+00  0.17308711782E+00  0.61088944102E+02  0.61541817537E+02  0.74470750000E+01 0. -1.
        -31    1    1    2    0    0  0.21755246576E+00 -0.17308711782E+00  0.56744516964E+02  0.57231778058E+02  0.74470750000E+01 0.  1.
<mgrwt>
<rscale>  0 0.14914505E+02</rscale>
<asrwt>0</asrwt>
<pdfrwt beam="2">  1        2 0.99830894E+00 0.14914505E+02</pdfrwt>
<pdfrwt beam="1">  1       -2 0.98210319E+00 0.14914505E+02</pdfrwt>
<totfact> 0.46200509E-13</totfact>
</mgrwt>
</event>
<event>
 4    1 -0.5119137E-019  0.1498433E+02  0.7818608E-02  0.1868547E+00
          2   -1    0    0  501    0  0.00000000000E+00  0.00000000000E+00  0.11937440966E+03  0.11937440969E+03  0.25500000000E-02 0. -1.
         -2   -1    0    0    0  501 -0.00000000000E+00 -0.00000000000E+00 -0.47021915562E+00  0.47022606990E+00  0.25500000000E-02 0.  1.
         31    1    1    2    0    0  0.47480282052E+00  0.66826969763E+00  0.59772205188E+02  0.60239915847E+02  0.74470750000E+01 0.  1.
        -31    1    1    2    0    0 -0.47480282052E+00 -0.66826969763E+00  0.59131985316E+02  0.59604719911E+02  0.74470750000E+01 0. -1.
<mgrwt>
<rscale>  0 0.14984332E+02</rscale>
<asrwt>0</asrwt>
<pdfrwt beam="1">  1        2 0.99095930E+00 0.14984332E+02</pdfrwt>
<pdfrwt beam="2">  1       -2 0.99867305E+00 0.14984332E+02</pdfrwt>
<totfact>-0.68845877E-14</totfact>
</mgrwt>
</event>
<event>
 4    1 -0.5119137E-019  0.1496208E+02  0.7818608E-02  0.1869228E+00
          2   -1    0    0  501    0  0.00000000000E+00  0.00000000000E+00  0.11974397737E+03  0.11974397740E+03  0.25500000000E-02 0.  1.
         -2   -1    0    0    0  501 -0.00000000000E+00 -0.00000000000E+00 -0.46737674577E+00  0.46738370210E+00  0.25500000000E-02 0. -1.
         31    1    1    2    0    0 -0.20404803897E+00  0.14365501261E-01  0.65118222308E+02  0.65542990812E+02  0.74470750000E+01 0.  1.
        -31    1    1    2    0    0  0.20404803897E+00 -0.14365501261E-01  0.54158378320E+02  0.54668370291E+02  0.74470750000E+01 0. -1.
<mgrwt>
<rscale>  0 0.14962081E+02</rscale>
<asrwt>0</asrwt>
<pdfrwt beam="1">  1        2 0.99399164E+00 0.14962081E+02</pdfrwt>
<pdfrwt beam="2">  1       -2 0.99267179E+00 0.14962081E+02</pdfrwt>
<totfact>-0.10593805E-13</totfact>
</mgrwt>
</event>
<event>
 4    1 -0.5119137E-019  0.1494624E+02  0.7818608E-02  0.1869713E+00
          2   -1    0    0  501    0  0.00000000000E+00  0.00000000000E+00  0.11931895133E+03  0.11931895136E+03  0.25500000000E-02 0. -1.
         -2   -1    0    0    0  501 -0.00000000000E+00 -0.00000000000E+00 -0.46804915317E+00  0.46805609950E+00  0.25500000000E-02 0.  1.
         31    1    1    2    0    0 -0.28084158087E+00  0.51032305311E+00  0.57645502859E+02  0.58127465346E+02  0.74470750000E+01 0. -1.
        -31    1    1    2    0    0  0.28084158087E+00 -0.51032305311E+00  0.61205399316E+02  0.61659542110E+02  0.74470750000E+01 0. -1.
<mgrwt>
<rscale>  0 0.14946244E+02</rscale>
<asrwt>0</asrwt>
<pdfrwt beam="1">  1        2 0.99048279E+00 0.14946244E+02</pdfrwt>
<pdfrwt beam="2">  1       -2 0.99408056E+00 0.14946244E+02</pdfrwt>
<totfact>-0.16800893E-13</totfact>
</mgrwt>
</event>
<event>
 4    1 -0.5119137E-019  0.1490797E+02  0.7818608E-02  0.1870890E+00
         -2   -1    0    0    0  501 -0.00000000000E+00  0.00000000000E+00  0.11985158842E+03  0.11985158845E+03  0.25500000000E-02 0.  1.
          2   -1    0    0  501    0  0.00000000000E+00 -0.00000000000E+00 -0.46358577431E+00  0.46359278753E+00  0.25500000000E-02 0. -1.
         31    1    1    2    0    0 -0.13787226359E+00 -0.20643449359E+00  0.61335414801E+02  0.61786354957E+02  0.74470750000E+01 0.  1.
        -31    1    1    2    0    0  0.13787226359E+00  0.20643449359E+00  0.58052587844E+02  0.58528826277E+02  0.74470750000E+01 0. -1.
<mgrwt>
<rscale>  0 0.14907973E+02</rscale>
<asrwt>0</asrwt>
<pdfrwt beam="2">  1        2 0.98465464E+00 0.14907973E+02</pdfrwt>
<pdfrwt beam="1">  1       -2 0.99485010E+00 0.14907973E+02</pdfrwt>
<totfact>-0.36807007E-13</totfact>
</mgrwt>
</event>
<event>
 4    1 -0.5119137E-019  0.1490500E+02  0.7818608E-02  0.1870981E+00
          2   -1    0    0  501    0  0.00000000000E+00  0.00000000000E+00  0.11803512291E+03  0.11803512294E+03  0.25500000000E-02 0. -1.
         -2   -1    0    0    0  501 -0.00000000000E+00 -0.00000000000E+00 -0.47053246991E+00  0.47053937959E+00  0.25500000000E-02 0.  1.
         31    1    1    2    0    0  0.20127429808E+00 -0.11086470665E+00  0.57450919525E+02  0.57932028125E+02  0.74470750000E+01 0.  1.
        -31    1    1    2    0    0 -0.20127429808E+00  0.11086470665E+00  0.60113670915E+02  0.60573634192E+02  0.74470750000E+01 0. -1.
<mgrwt>
<rscale>  0 0.14905002E+02</rscale>
<asrwt>0</asrwt>
<pdfrwt beam="1">  1        2 0.97988773E+00 0.14905002E+02</pdfrwt>
<pdfrwt beam="2">  1       -2 0.99929134E+00 0.14905002E+02</pdfrwt>
<totfact>-0.19225448E-13</totfact>
</mgrwt>
</event>
<event>
 4    1  0.5119137E-019  0.1493061E+02  0.7818608E-02  0.1870193E+00
          2   -1    0    0  501    0  0.00000000000E+00  0.00000000000E+00  0.12037085729E+03  0.12037085731E+03  0.25500000000E-02 0.  1.
         -2   -1    0    0    0  501 -0.00000000000E+00 -0.00000000000E+00 -0.46298860341E+00  0.46299562567E+00  0.25500000000E-02 0. -1.
         31    1    1    2    0    0 -0.15120708338E+00 -0.58193761252E-01  0.55943310542E+02  0.56437037223E+02  0.74470750000E+01 0. -1.
        -31    1    1    2    0    0  0.15120708338E+00  0.58193761252E-01  0.63964558140E+02  0.64396815715E+02  0.74470750000E+01 0.  1.
<mgrwt>
<rscale>  0 0.14930608E+02</rscale>
<asrwt>0</asrwt>
<pdfrwt beam="1">  1        2 0.99913884E+00 0.14930608E+02</pdfrwt>
<pdfrwt beam="2">  1       -2 0.98340748E+00 0.14930608E+02</pdfrwt>
<totfact> 0.19496856E-13</totfact>
</mgrwt>
</event>
<event>
 4    1 -0.5119137E-019  0.1494215E+02  0.7818608E-02  0.1869839E+00
         -2   -1    0    0    0  501 -0.00000000000E+00  0.00000000000E+00  0.11944508971E+03  0.11944508973E+03  0.25500000000E-02 0.  1.
          2   -1    0    0  501    0  0.00000000000E+00 -0.00000000000E+00 -0.46729877119E+00  0.46730572867E+00  0.25500000000E-02 0. -1.
         31    1    1    2    0    0 -0.47572381188E+00 -0.19630998058E+00  0.61938666045E+02  0.62386874647E+02  0.74470750000E+01 0. -1.
        -31    1    1    2    0    0  0.47572381188E+00  0.19630998058E+00  0.57039124891E+02  0.57525520816E+02  0.74470750000E+01 0. -1.
<mgrwt>
<rscale>  0 0.14942150E+02</rscale>
<asrwt>0</asrwt>
<pdfrwt beam="2">  1        2 0.99249717E+00 0.14942150E+02</pdfrwt>
<pdfrwt beam="1">  1       -2 0.99151958E+00 0.14942150E+02</pdfrwt>
<totfact>-0.76620269E-14</totfact>
</mgrwt>
</event>
<event>
 4    1 -0.5119137E-019  0.1492937E+02  0.7818608E-02  0.1870232E+00
          2   -1    0    0  501    0  0.00000000000E+00  0.00000000000E+00  0.11939429698E+03  0.11939429701E+03  0.25500000000E-02 0.  1.
         -2   -1    0    0    0  501 -0.00000000000E+00 -0.00000000000E+00 -0.46669798283E+00  0.46670494927E+00  0.25500000000E-02 0. -1.
         31    1    1    2    0    0 -0.38826861274E+00 -0.19179473226E+00  0.57264611239E+02  0.57748438629E+02  0.74470750000E+01 0. -1.
        -31    1    1    2    0    0  0.38826861274E+00  0.19179473226E+00  0.61662987762E+02  0.62112563331E+02  0.74470750000E+01 0. -1.
<mgrwt>
<rscale>  0 0.14929367E+02</rscale>
<asrwt>0</asrwt>
<pdfrwt beam="1">  1        2 0.99109463E+00 0.14929367E+02</pdfrwt>
<pdfrwt beam="2">  1       -2 0.99122450E+00 0.14929367E+02</pdfrwt>
<totfact>-0.69644916E-14</totfact>
</mgrwt>
</event>
<event>
 4    1 -0.5119137E-019  0.1489889E+02  0.7818608E-02  0.1871170E+00
          2   -1    0    0  501    0  0.00000000000E+00  0.00000000000E+00  0.11811387201E+03  0.11811387204E+03  0.25500000000E-02 0. -1.
         -2   -1    0    0    0  501 -0.00000000000E+00 -0.00000000000E+00 -0.46983293182E+00  0.46983985178E+00  0.25500000000E-02 0.  1.
         31    1    1    2    0    0  0.87686929277E-01 -0.15559174440E+00  0.58359639383E+02  0.58833139750E+02  0.74470750000E+01 0.  1.
        -31    1    1    2    0    0 -0.87686929277E-01  0.15559174440E+00  0.59284399696E+02  0.59750572141E+02  0.74470750000E+01 0. -1.
<mgrwt>
<rscale>  0 0.14898886E+02</rscale>
<asrwt>0</asrwt>
<pdfrwt beam="1">  1        2 0.98053310E+00 0.14898886E+02</pdfrwt>
<pdfrwt beam="2">  1       -2 0.99781425E+00 0.14898886E+02</pdfrwt>
<totfact>-0.46739768E-13</totfact>
</mgrwt>
</event>
<event>
 4    1 -0.5119137E-019  0.1497855E+02  0.7818608E-02  0.1868724E+00
          2   -1    0    0  501    0  0.00000000000E+00  0.00000000000E+00  0.11944804991E+03  0.11944804994E+03  0.25500000000E-02 0.  1.
         -2   -1    0    0    0  501 -0.00000000000E+00 -0.00000000000E+00 -0.46956667244E+00  0.46957359633E+00  0.25500000000E-02 0. -1.
         31    1    1    2    0    0 -0.61015809328E+00  0.49526537223E-01  0.55441929388E+02  0.55943196245E+02  0.74470750000E+01 0. -1.
        -31    1    1    2    0    0  0.61015809328E+00 -0.49526537223E-01  0.63536553850E+02  0.63974427289E+02  0.74470750000E+01 0.  1.
<mgrwt>
<rscale>  0 0.14978550E+02</rscale>
<asrwt>0</asrwt>
<pdfrwt beam="1">  1        2 0.99156281E+00 0.14978550E+02</pdfrwt>
<pdfrwt beam="2">  1       -2 0.99729513E+00 0.14978550E+02</pdfrwt>
<totfact>-0.11682218E-13</totfact>
</mgrwt>
</event>
<event>
 4    1 -0.5119137E-019  0.1495534E+02  0.7818608E-02  0.1869434E+00
         -2   -1    0    0    0  501 -0.00000000000E+00  0.00000000000E+00  0.12034385853E+03  0.12034385856E+03  0.25500000000E-02 0. -1.
          2   -1    0    0  501    0  0.00000000000E+00 -0.00000000000E+00 -0.46462794052E+00  0.46463493800E+00  0.25500000000E-02 0.  1.
         31    1    1    2    0    0 -0.47522699443E+00 -0.47688539925E+00  0.60407649853E+02  0.60868681168E+02  0.74470750000E+01 0. -1.
        -31    1    1    2    0    0  0.47522699443E+00  0.47688539925E+00  0.59471580735E+02  0.59939812325E+02  0.74470750000E+01 0. -1.
<mgrwt>
<rscale>  0 0.14955339E+02</rscale>
<asrwt>0</asrwt>
<pdfrwt beam="2">  1        2 0.98687521E+00 0.14955339E+02</pdfrwt>
<pdfrwt beam="1">  1       -2 0.99892915E+00 0.14955339E+02</pdfrwt>
<totfact>-0.90022098E-14</totfact>
</mgrwt>
</event>
<event>
 4    1 -0.5119137E-019  0.1493843E+02  0.7818608E-02  0.1869953E+00
         -2   -1    0    0    0  501 -0.00000000000E+00  0.00000000000E+00  0.11977683846E+03  0.11977683849E+03  0.25500000000E-02 0. -1.
          2   -1    0    0  501    0  0.00000000000E+00 -0.00000000000E+00 -0.46577263035E+00  0.46577961063E+00  0.25500000000E-02 0.  1.
         31    1    1    2    0    0  0.50246215049E+00 -0.13894376598E+00  0.61602290486E+02  0.62052984559E+02  0.74470750000E+01 0. -1.
        -31    1    1    2    0    0 -0.50246215049E+00  0.13894376598E+00  0.57708775345E+02  0.58189633540E+02  0.74470750000E+01 0. -1.
<mgrwt>
<rscale>  0 0.14938433E+02</rscale>
<asrwt>0</asrwt>
<pdfrwt beam="2">  1        2 0.98927908E+00 0.14938433E+02</pdfrwt>
<pdfrwt beam="1">  1       -2 0.99425010E+00 0.14938433E+02</pdfrwt>
<totfact>-0.19055279E-13</totfact>
</mgrwt>
</event>
<event>
 4    1 -0.5119137E-019  0.1495776E+02  0.7818608E-02  0.1869360E+00
         -2   -1    0    0    0  501 -0.00000000000E+00  0.00000000000E+00  0.12002675629E+03  0.12002675632E+03  0.25500000000E-02 0.  1.
          2   -1    0    0  501    0  0.00000000000E+00 -0.00000000000E+00 -0.46600620246E+00  0.46601317925E+00  0.25500000000E-02 0. -1.
         31    1    1    2    0    0 -0.20050598211E+00  0.35079275192E+00  0.55284760688E+02  0.55785544261E+02  0.74470750000E+01 0.  1.
        -31    1    1    2    0    0  0.20050598211E+00 -0.35079275192E+00  0.64275989401E+02  0.64707225236E+02  0.74470750000E+01 0.  1.
<mgrwt>
<rscale>  0 0.14957759E+02</rscale>
<asrwt>0</asrwt>
<pdfrwt beam="2">  1        2 0.98978123E+00 0.14957759E+02</pdfrwt>
<pdfrwt beam="1">  1       -2 0.99631852E+00 0.14957759E+02</pdfrwt>
<totfact>-0.16464470E-13</totfact>
</mgrwt>
</event>
<event>
 4    1 -0.5119137E-019  0.1502765E+02  0.7818608E-02  0.1867226E+00
         -2   -1    0    0    0  501 -0.00000000000E+00  0.00000000000E+00  0.12009206422E+03  0.12009206425E+03  0.25500000000E-02 0. -1.
          2   -1    0    0  501    0  0.00000000000E+00 -0.00000000000E+00 -0.47011551157E+00  0.47012242737E+00  0.25500000000E-02 0.  1.
         31    1    1    2    0    0 -0.33729072551E+00 -0.86648410213E+00  0.62748582561E+02  0.63195791784E+02  0.74470750000E+01 0.  1.
        -31    1    1    2    0    0  0.33729072551E+00  0.86648410213E+00  0.56873366146E+02  0.57366394889E+02  0.74470750000E+01 0. -1.
<mgrwt>
<rscale>  0 0.15027649E+02</rscale>
<asrwt>0</asrwt>
<pdfrwt beam="2">  1        2 0.99847720E+00 0.15027649E+02</pdfrwt>
<pdfrwt beam="1">  1       -2 0.99689251E+00 0.15027649E+02</pdfrwt>
<totfact>-0.43081677E-14</totfact>
</mgrwt>
</event>
<event>
 4    1  0.5119137E-019  0.1492301E+02  0.7818608E-02  0.1870427E+00
          2   -1    0    0  501    0  0.00000000000E+00  0.00000000000E+00  0.12024637711E+03  0.12024637714E+03  0.25500000000E-02 0.  1.
         -2   -1    0    0    0  501 -0.00000000000E+00 -0.00000000000E+00 -0.46299619210E+00  0.46300321424E+00  0.25500000000E-02 0. -1.
         31    1    1    2    0    0 -0.32185706065E+00 -0.70883909617E-01  0.62531390623E+02  0.62974140373E+02  0.74470750000E+01 0.  1.
        -31    1    1    2    0    0  0.32185706065E+00  0.70883909617E-01  0.57251990298E+02  0.57735239981E+02  0.74470750000E+01 0. -1.
<mgrwt>
<rscale>  0 0.14923008E+02</rscale>
<asrwt>0</asrwt>
<pdfrwt beam="1">  1        2 0.99810961E+00 0.14923008E+02</pdfrwt>
<pdfrwt beam="2">  1       -2 0.98341964E+00 0.14923008E+02</pdfrwt>
<totfact> 0.38078051E-13</totfact>
</mgrwt>
</event>
<event>
 4    1 -0.5119137E-019  0.1496029E+02  0.7818608E-02  0.1869283E+00
         -2   -1    0    0    0  501 -0.00000000000E+00  0.00000000000E+00  0.11992743596E+03  0.11992743599E+03  0.25500000000E-02 0. -1.
          2   -1    0    0  501    0  0.00000000000E+00 -0.00000000000E+00 -0.46654990568E+00  0.46655687434E+00  0.25500000000E-02 0.  1.
         31    1    1    2    0    0 -0.28827259692E+00 -0.63481164532E+00  0.59031550060E+02  0.59503520194E+02  0.74470750000E+01 0. -1.
        -31    1    1    2    0    0  0.28827259692E+00  0.63481164532E+00  0.60429335993E+02  0.60890472667E+02  0.74470750000E+01 0. -1.
<mgrwt>
<rscale>  0 0.14960288E+02</rscale>
<asrwt>0</asrwt>
<pdfrwt beam="2">  1        2 0.99092837E+00 0.14960288E+02</pdfrwt>
<pdfrwt beam="1">  1       -2 0.99550177E+00 0.14960288E+02</pdfrwt>
<totfact>-0.16098660E-13</totfact>
</mgrwt>
</event>
<event>
 4    1 -0.5119137E-019  0.1496559E+02  0.7818608E-02  0.1869120E+00
         -2   -1    0    0    0  501 -0.00000000000E+00  0.00000000000E+00  0.12016228914E+03  0.12016228917E+03  0.25500000000E-02 0. -1.
          2   -1    0    0  501    0  0.00000000000E+00 -0.00000000000E+00 -0.46596816907E+00  0.46597514643E+00  0.25500000000E-02 0.  1.
         31    1    1    2    0    0  0.66536969507E+00  0.17634685318E+00  0.61814020034E+02  0.62264803974E+02  0.74470750000E+01 0. -1.
        -31    1    1    2    0    0 -0.66536969507E+00 -0.17634685318E+00  0.57882300937E+02  0.58363460340E+02  0.74470750000E+01 0.  1.
<mgrwt>
<rscale>  0 0.14965590E+02</rscale>
<asrwt>0</asrwt>
<pdfrwt beam="2">  1        2 0.98970508E+00 0.14965590E+02</pdfrwt>
<pdfrwt beam="1">  1       -2 0.99743889E+00 0.14965590E+02</pdfrwt>
<totfact>-0.13205570E-13</totfact>
</mgrwt>
</event>
<event>
 4    1 -0.5119137E-019  0.1494161E+02  0.7818608E-02  0.1869856E+00
         -2   -1    0    0    0  501 -0.00000000000E+00  0.00000000000E+00  0.11957533989E+03  0.11957533992E+03  0.25500000000E-02 0.  1.
          2   -1    0    0  501    0  0.00000000000E+00 -0.00000000000E+00 -0.46675569656E+00  0.46676266215E+00  0.25500000000E-02 0. -1.
         31    1    1    2    0    0  0.45629574210E+00  0.38135308306E+00  0.59408623842E+02  0.59876515837E+02  0.74470750000E+01 0. -1.
        -31    1    1    2    0    0 -0.45629574210E+00 -0.38135308306E+00  0.59699960355E+02  0.60165586745E+02  0.74470750000E+01 0.  1.
<mgrwt>
<rscale>  0 0.14941605E+02</rscale>
<asrwt>0</asrwt>
<pdfrwt beam="2">  1        2 0.99135244E+00 0.14941605E+02</pdfrwt>
<pdfrwt beam="1">  1       -2 0.99259209E+00 0.14941605E+02</pdfrwt>
<totfact>-0.12639137E-13</totfact>
</mgrwt>
</event>
<event>
 4    1 -0.5119137E-019  0.1490293E+02  0.7818608E-02  0.1871045E+00
         -2   -1    0    0    0  501 -0.00000000000E+00  0.00000000000E+00  0.12015298729E+03  0.12015298731E+03  0.25500000000E-02 0. -1.
          2   -1    0    0  501    0  0.00000000000E+00 -0.00000000000E+00 -0.46211018186E+00  0.46211721747E+00  0.25500000000E-02 0.  1.
         31    1    1    2    0    0 -0.21999812249E+00  0.65025135782E-01  0.60760786692E+02  0.61215886443E+02  0.74470750000E+01 0. -1.
        -31    1    1    2    0    0  0.21999812249E+00 -0.65025135782E-01  0.58930090412E+02  0.59399218088E+02  0.74470750000E+01 0. -1.
<mgrwt>
<rscale>  0 0.14902932E+02</rscale>
<asrwt>0</asrwt>
<pdfrwt beam="2">  1        2 0.98154203E+00 0.14902932E+02</pdfrwt>
<pdfrwt beam="1">  1       -2 0.99733007E+00 0.14902932E+02</pdfrwt>
<totfact>-0.45840542E-13</totfact>
</mgrwt>
</event>
<event>
 4    1 -0.5119137E-019  0.1496528E+02  0.7818608E-02  0.1869130E+00
          2   -1    0    0  501    0  0.00000000000E+00  0.00000000000E+00  0.11964089153E+03  0.11964089156E+03  0.25500000000E-02 0.  1.
         -2   -1    0    0    0  501 -0.00000000000E+00 -0.00000000000E+00 -0.46797967345E+00  0.46798662081E+00  0.25500000000E-02 0. -1.
         31    1    1    2    0    0 -0.43404071517E+00 -0.25337196447E+00  0.55351663170E+02  0.55852646584E+02  0.74470750000E+01 0. -1.
        -31    1    1    2    0    0  0.43404071517E+00  0.25337196447E+00  0.63821248686E+02  0.64256231594E+02  0.74470750000E+01 0.  1.
<mgrwt>
<rscale>  0 0.14965283E+02</rscale>
<asrwt>0</asrwt>
<pdfrwt beam="1">  1        2 0.99314424E+00 0.14965283E+02</pdfrwt>
<pdfrwt beam="2">  1       -2 0.99394402E+00 0.14965283E+02</pdfrwt>
<totfact>-0.13586755E-13</totfact>
</mgrwt>
</event>
<event>
 4    1  0.5119137E-019  0.1491997E+02  0.7818608E-02  0.1870521E+00
          2   -1    0    0  501    0  0.00000000000E+00  0.00000000000E+00  0.11980142211E+03  0.11980142214E+03  0.25500000000E-02 0. -1.
         -2   -1    0    0    0  501 -0.00000000000E+00 -0.00000000000E+00 -0.46452658705E+00  0.46453358606E+00  0.25500000000E-02 0.  1.
         31    1    1    2    0    0  0.11703705703E+00 -0.41600349799E+00  0.59060644508E+02  0.59529869917E+02  0.74470750000E+01 0. -1.
        -31    1    1    2    0    0 -0.11703705703E+00  0.41600349799E+00  0.60276251017E+02  0.60736085808E+02  0.74470750000E+01 0.  1.
<mgrwt>
<rscale>  0 0.14919969E+02</rscale>
<asrwt>0</asrwt>
<pdfrwt beam="1">  1        2 0.99444307E+00 0.14919969E+02</pdfrwt>
<pdfrwt beam="2">  1       -2 0.98664359E+00 0.14919969E+02</pdfrwt>
<totfact> 0.29883016E-13</totfact>
</mgrwt>
</event>
<event>
 4    1 -0.5119137E-019  0.1500927E+02  0.7818608E-02  0.1867786E+00
          2   -1    0    0  501    0  0.00000000000E+00  0.00000000000E+00  0.11979985200E+03  0.11979985203E+03  0.25500000000E-02 0.  1.
         -2   -1    0    0    0  501 -0.00000000000E+00 -0.00000000000E+00 -0.47010997514E+00  0.47011689103E+00  0.25500000000E-02 0. -1.
         31    1    1    2    0    0 -0.48233913287E+00  0.33430201587E+00  0.65421943325E+02  0.65847050073E+02  0.74470750000E+01 0.  1.
        -31    1    1    2    0    0  0.48233913287E+00 -0.33430201587E+00  0.53907798699E+02  0.54422918844E+02  0.74470750000E+01 0. -1.
<mgrwt>
<rscale>  0 0.15009267E+02</rscale>
<asrwt>0</asrwt>
<pdfrwt beam="1">  1        2 0.99447625E+00 0.15009267E+02</pdfrwt>
<pdfrwt beam="2">  1       -2 0.99845599E+00 0.15009267E+02</pdfrwt>
<totfact>-0.60103263E-14</totfact>
</mgrwt>
</event>
<event>
 4    1 -0.5119137E-019  0.1497149E+02  0.7818608E-02  0.1868940E+00
          2   -1    0    0  501    0  0.00000000000E+00  0.00000000000E+00  0.11928769164E+03  0.11928769167E+03  0.25500000000E-02 0. -1.
         -2   -1    0    0    0  501 -0.00000000000E+00 -0.00000000000E+00 -0.46975483760E+00  0.46976175871E+00  0.25500000000E-02 0.  1.
         31    1    1    2    0    0  0.13045633096E-01 -0.52975421018E-02  0.53331482387E+02  0.53848919561E+02  0.74470750000E+01 0.  1.
        -31    1    1    2    0    0 -0.13045633096E-01  0.52975421018E-02  0.65486454414E+02  0.65908533864E+02  0.74470750000E+01 0. -1.
<mgrwt>
<rscale>  0 0.14971491E+02</rscale>
<asrwt>0</asrwt>
<pdfrwt beam="1">  1        2 0.99023841E+00 0.14971491E+02</pdfrwt>
<pdfrwt beam="2">  1       -2 0.99768795E+00 0.14971491E+02</pdfrwt>
<totfact>-0.11629527E-13</totfact>
</mgrwt>
</event>
<event>
 4    1 -0.5119137E-019  0.1501094E+02  0.7818608E-02  0.1867735E+00
          2   -1    0    0  501    0  0.00000000000E+00  0.00000000000E+00  0.12030894689E+03  0.12030894692E+03  0.25500000000E-02 0.  1.
         -2   -1    0    0    0  501 -0.00000000000E+00 -0.00000000000E+00 -0.46822522985E+00  0.46823217357E+00  0.25500000000E-02 0. -1.
         31    1    1    2    0    0  0.31953486667E+00  0.84760684385E+00  0.58074359477E+02  0.58556901341E+02  0.74470750000E+01 0. -1.
        -31    1    1    2    0    0 -0.31953486667E+00 -0.84760684385E+00  0.61766362184E+02  0.62220277751E+02  0.74470750000E+01 0. -1.
<mgrwt>
<rscale>  0 0.15010943E+02</rscale>
<asrwt>0</asrwt>
<pdfrwt beam="1">  1        2 0.99867022E+00 0.15010943E+02</pdfrwt>
<pdfrwt beam="2">  1       -2 0.99448505E+00 0.15010943E+02</pdfrwt>
<totfact>-0.46885442E-14</totfact>
</mgrwt>
</event>
<event>
 4    1 -0.5119137E-019  0.1499177E+02  0.7818608E-02  0.1868320E+00
          2   -1    0    0  501    0  0.00000000000E+00  0.00000000000E+00  0.12029336620E+03  0.12029336622E+03  0.25500000000E-02 0. -1.
         -2   -1    0    0    0  501 -0.00000000000E+00 -0.00000000000E+00 -0.46709022785E+00  0.46709718845E+00  0.25500000000E-02 0.  1.
         31    1    1    2    0    0 -0.36143725991E+00 -0.71502923368E+00  0.62295165758E+02  0.62743832419E+02  0.74470750000E+01 0.  1.
        -31    1    1    2    0    0  0.36143725991E+00  0.71502923368E+00  0.57531110209E+02  0.58016630992E+02  0.74470750000E+01 0.  1.
<mgrwt>
<rscale>  0 0.14991768E+02</rscale>
<asrwt>0</asrwt>
<pdfrwt beam="1">  1        2 0.99853200E+00 0.14991768E+02</pdfrwt>
<pdfrwt beam="2">  1       -2 0.99208323E+00 0.14991768E+02</pdfrwt>
<totfact>-0.34746084E-14</totfact>
</mgrwt>
</event>
<event>
 4    1 -0.5119137E-019  0.1497230E+02  0.7818608E-02  0.1868915E+00
         -2   -1    0    0    0  501 -0.00000000000E+00  0.00000000000E+00  0.11938536727E+03  0.11938536729E+03  0.25500000000E-02 0.  1.
          2   -1    0    0  501    0  0.00000000000E+00 -0.00000000000E+00 -0.46942096604E+00  0.46942789207E+00  0.25500000000E-02 0. -1.
         31    1    1    2    0    0 -0.49160947135E+00  0.44417307279E+00  0.56414817301E+02  0.56908079450E+02  0.74470750000E+01 0.  1.
        -31    1    1    2    0    0  0.49160947135E+00 -0.44417307279E+00  0.62501129000E+02  0.62946715736E+02  0.74470750000E+01 0.  1.
<mgrwt>
<rscale>  0 0.14972296E+02</rscale>
<asrwt>0</asrwt>
<pdfrwt beam="2">  1        2 0.99698484E+00 0.14972296E+02</pdfrwt>
<pdfrwt beam="1">  1       -2 0.99104330E+00 0.14972296E+02</pdfrwt>
<totfact>-0.32305848E-14</totfact>
</mgrwt>
</event>
<event>
 4    1 -0.5119137E-019  0.1493830E+02  0.7818608E-02  0.1869957E+00
          2   -1    0    0  501    0  0.00000000000E+00  0.00000000000E+00  0.11946864762E+03  0.11946864765E+03  0.25500000000E-02 0.  1.
         -2   -1    0    0    0  501 -0.00000000000E+00 -0.00000000000E+00 -0.46696572807E+00  0.46697269052E+00  0.25500000000E-02 0. -1.
         31    1    1    2    0    0 -0.40706465421E-01  0.24770903760E+00  0.63643545924E+02  0.64078255911E+02  0.74470750000E+01 0.  1.
        -31    1    1    2    0    0  0.40706465421E-01 -0.24770903760E+00  0.55358135970E+02  0.55857364429E+02  0.74470750000E+01 0. -1.
<mgrwt>
<rscale>  0 0.14938298E+02</rscale>
<asrwt>0</asrwt>
<pdfrwt beam="1">  1        2 0.99171162E+00 0.14938298E+02</pdfrwt>
<pdfrwt beam="2">  1       -2 0.99179334E+00 0.14938298E+02</pdfrwt>
<totfact>-0.93566876E-14</totfact>
</mgrwt>
</event>
<event>
 4    1 -0.5119137E-019  0.1496242E+02  0.7818608E-02  0.1869217E+00
          2   -1    0    0  501    0  0.00000000000E+00  0.00000000000E+00  0.11903438139E+03  0.11903438141E+03  0.25500000000E-02 0.  1.
         -2   -1    0    0    0  501 -0.00000000000E+00 -0.00000000000E+00 -0.47018419067E+00  0.47019110546E+00  0.25500000000E-02 0. -1.
         31    1    1    2    0    0  0.42495239759E+00 -0.47273959133E+00  0.61876402135E+02  0.62326175356E+02  0.74470750000E+01 0.  1.
        -31    1    1    2    0    0 -0.42495239759E+00  0.47273959133E+00  0.56687795060E+02  0.57178397163E+02  0.74470750000E+01 0. -1.
<mgrwt>
<rscale>  0 0.14962419E+02</rscale>
<asrwt>0</asrwt>
<pdfrwt beam="1">  1        2 0.98814742E+00 0.14962419E+02</pdfrwt>
<pdfrwt beam="2">  1       -2 0.99858789E+00 0.14962419E+02</pdfrwt>
<totfact>-0.97100389E-14</totfact>
</mgrwt>
</event>
<event>
 4    1  0.5119137E-019  0.1490759E+02  0.7818608E-02  0.1870901E+00
          2   -1    0    0  501    0  0.00000000000E+00  0.00000000000E+00  0.12025900134E+03  0.12025900136E+03  0.25500000000E-02 0.  1.
         -2   -1    0    0    0  501 -0.00000000000E+00 -0.00000000000E+00 -0.46199175767E+00  0.46199879508E+00  0.25500000000E-02 0. -1.
         31    1    1    2    0    0 -0.28710548593E+00 -0.67738955098E-01  0.60827112081E+02  0.61281999871E+02  0.74470750000E+01 0.  1.
        -31    1    1    2    0    0  0.28710548593E+00  0.67738955098E-01  0.58969897498E+02  0.59439000287E+02  0.74470750000E+01 0. -1.
<mgrwt>
<rscale>  0 0.14907595E+02</rscale>
<asrwt>0</asrwt>
<pdfrwt beam="1">  1        2 0.99820569E+00 0.14907595E+02</pdfrwt>
<pdfrwt beam="2">  1       -2 0.98129477E+00 0.14907595E+02</pdfrwt>
<totfact> 0.56677701E-13</totfact>
</mgrwt>
</event>
<event>
 4    1  0.5119137E-019  0.1493135E+02  0.7818608E-02  0.1870171E+00
          2   -1    0    0  501    0  0.00000000000E+00  0.00000000000E+00  0.11983282077E+03  0.11983282079E+03  0.25500000000E-02 0. -1.
         -2   -1    0    0    0  501 -0.00000000000E+00 -0.00000000000E+00 -0.46511387481E+00  0.46512086498E+00  0.25500000000E-02 0.  1.
         31    1    1    2    0    0 -0.27502137661E+00  0.39032573064E+00  0.61474782040E+02  0.61926050607E+02  0.74470750000E+01 0. -1.
        -31    1    1    2    0    0  0.27502137661E+00 -0.39032573064E+00  0.57892924852E+02  0.58371891052E+02  0.74470750000E+01 0. -1.
<mgrwt>
<rscale>  0 0.14931354E+02</rscale>
<asrwt>0</asrwt>
<pdfrwt beam="1">  1        2 0.99470755E+00 0.14931354E+02</pdfrwt>
<pdfrwt beam="2">  1       -2 0.98788713E+00 0.14931354E+02</pdfrwt>
<totfact> 0.16589718E-13</totfact>
</mgrwt>
</event>
<event>
 4    1 -0.5119137E-019  0.1496635E+02  0.7818608E-02  0.1869097E+00
          2   -1    0    0  501    0  0.00000000000E+00  0.00000000000E+00  0.11946212919E+03  0.11946212922E+03  0.25500000000E-02 0. -1.
         -2   -1    0    0    0  501 -0.00000000000E+00 -0.00000000000E+00 -0.46874691753E+00  0.46875385352E+00  0.25500000000E-02 0.  1.
         31    1    1    2    0    0 -0.37615945756E-01  0.10231631540E+00  0.53678783396E+02  0.54193012433E+02  0.74470750000E+01 0.  1.
        -31    1    1    2    0    0  0.37615945756E-01 -0.10231631540E+00  0.65314598875E+02  0.65737870637E+02  0.74470750000E+01 0. -1.
<mgrwt>
<rscale>  0 0.14966352E+02</rscale>
<asrwt>0</asrwt>
<pdfrwt beam="1">  1        2 0.99167245E+00 0.14966352E+02</pdfrwt>
<pdfrwt beam="2">  1       -2 0.99556138E+00 0.14966352E+02</pdfrwt>
<totfact>-0.15123207E-13</totfact>
</mgrwt>
</event>
<event>
 4    1 -0.5119137E-019  0.1495179E+02  0.7818608E-02  0.1869543E+00
          2   -1    0    0  501    0  0.00000000000E+00  0.00000000000E+00  0.11980768570E+03  0.11980768573E+03  0.25500000000E-02 0.  1.
         -2   -1    0    0    0  501 -0.00000000000E+00 -0.00000000000E+00 -0.46648564938E+00  0.46649261899E+00  0.25500000000E-02 0. -1.
         31    1    1    2    0    0  0.37201171163E+00 -0.44672710838E+00  0.57229328652E+02  0.57714754975E+02  0.74470750000E+01 0. -1.
        -31    1    1    2    0    0 -0.37201171163E+00  0.44672710838E+00  0.62111871403E+02  0.62559423375E+02  0.74470750000E+01 0.  1.
<mgrwt>
<rscale>  0 0.14951787E+02</rscale>
<asrwt>0</asrwt>
<pdfrwt beam="1">  1        2 0.99451106E+00 0.14951787E+02</pdfrwt>
<pdfrwt beam="2">  1       -2 0.99078859E+00 0.14951787E+02</pdfrwt>
<totfact>-0.33841741E-14</totfact>
</mgrwt>
</event>
<event>
 4    1  0.5119137E-019  0.1490945E+02  0.7818608E-02  0.1870844E+00
         -2   -1    0    0    0  501 -0.00000000000E+00  0.00000000000E+00  0.11852359328E+03  0.11852359331E+03  0.25500000000E-02 0.  1.
          2   -1    0    0  501    0  0.00000000000E+00 -0.00000000000E+00 -0.46887278519E+00  0.46887971932E+00  0.25500000000E-02 0. -1.
         31    1    1    2    0    0 -0.88536370917E-01  0.16715120455E+00  0.61259151587E+02  0.61710439615E+02  0.74470750000E+01 0.  1.
        -31    1    1    2    0    0  0.88536370917E-01 -0.16715120455E+00  0.56795568909E+02  0.57282033414E+02  0.74470750000E+01 0. -1.
<mgrwt>
<rscale>  0 0.14909447E+02</rscale>
<asrwt>0</asrwt>
<pdfrwt beam="2">  1        2 0.99579683E+00 0.14909447E+02</pdfrwt>
<pdfrwt beam="1">  1       -2 0.98391302E+00 0.14909447E+02</pdfrwt>
<totfact> 0.58692703E-13</totfact>
</mgrwt>
</event>
<event>
 4    1  0.5119137E-019  0.1492001E+02  0.7818608E-02  0.1870519E+00
         -2   -1    0    0    0  501 -0.00000000000E+00  0.00000000000E+00  0.11873691245E+03  0.11873691248E+03  0.25500000000E-02 0. -1.
          2   -1    0    0  501    0  0.00000000000E+00 -0.00000000000E+00 -0.46869360879E+00  0.46870054558E+00  0.25500000000E-02 0.  1.
         31    1    1    2    0    0  0.25780373766E+00 -0.12288778415E+00  0.61797873808E+02  0.62245623921E+02  0.74470750000E+01 0. -1.
        -31    1    1    2    0    0 -0.25780373766E+00  0.12288778415E+00  0.56470345034E+02  0.56959989102E+02  0.74470750000E+01 0.  1.
<mgrwt>
<rscale>  0 0.14920006E+02</rscale>
<asrwt>0</asrwt>
<pdfrwt beam="2">  1        2 0.99542484E+00 0.14920006E+02</pdfrwt>
<pdfrwt beam="1">  1       -2 0.98567541E+00 0.14920006E+02</pdfrwt>
<totfact> 0.37815000E-13</totfact>
</mgrwt>
</event>
<event>
 4    1  0.5119137E-019  0.1490612E+02  0.7818608E-02  0.1870947E+00
          2   -1    0    0  501    0  0.00000000000E+00  0.00000000000E+00  0.11947470110E+03  0.11947470113E+03  0.25500000000E-02 0. -1.
         -2   -1    0    0    0  501 -0.00000000000E+00 -0.00000000000E+00 -0.46493247883E+00  0.46493947172E+00  0.25500000000E-02 0.  1.
         31    1    1    2    0    0  0.85356460283E-01  0.58515298512E-01  0.61758635886E+02  0.62206098916E+02  0.74470750000E+01 0. -1.
        -31    1    1    2    0    0 -0.85356460283E-01 -0.58515298512E-01  0.57251132737E+02  0.57733541685E+02  0.74470750000E+01 0.  1.
<mgrwt>
<rscale>  0 0.14906118E+02</rscale>
<asrwt>0</asrwt>
<pdfrwt beam="1">  1        2 0.99174487E+00 0.14906118E+02</pdfrwt>
<pdfrwt beam="2">  1       -2 0.98749190E+00 0.14906118E+02</pdfrwt>
<totfact> 0.25511537E-13</totfact>
</mgrwt>
</event>
<event>
 4    1  0.5119137E-019  0.1490869E+02  0.7818608E-02  0.1870868E+00
          2   -1    0    0  501    0  0.00000000000E+00  0.00000000000E+00  0.11959622357E+03  0.11959622360E+03  0.25500000000E-02 0.  1.
         -2   -1    0    0    0  501 -0.00000000000E+00 -0.00000000000E+00 -0.46462055218E+00  0.46462754977E+00  0.25500000000E-02 0. -1.
         31    1    1    2    0    0  0.27470546556E+00 -0.17478960402E+00  0.59955738453E+02  0.60417344479E+02  0.74470750000E+01 0.  1.
        -31    1    1    2    0    0 -0.27470546556E+00  0.17478960402E+00  0.59175864567E+02  0.59643506669E+02  0.74470750000E+01 0.  1.
<mgrwt>
<rscale>  0 0.14908693E+02</rscale>
<asrwt>0</asrwt>
<pdfrwt beam="1">  1        2 0.99274712E+00 0.14908693E+02</pdfrwt>
<pdfrwt beam="2">  1       -2 0.98683585E+00 0.14908693E+02</pdfrwt>
<totfact> 0.31600772E-13</totfact>
</mgrwt>
</event>
<event>
 4    1 -0.5119137E-019  0.1498805E+02  0.7818608E-02  0.1868433E+00
         -2   -1    0    0    0  501 -0.00000000000E+00  0.00000000000E+00  0.12002216538E+03  0.12002216541E+03  0.25500000000E-02 0.  1.
          2   -1    0    0  501    0  0.00000000000E+00 -0.00000000000E+00 -0.46791325484E+00  0.46792020319E+00  0.25500000000E-02 0. -1.
         31    1    1    2    0    0 -0.93185434376E-01  0.30596691666E+00  0.65999793514E+02  0.66419379471E+02  0.74470750000E+01 0.  1.
        -31    1    1    2    0    0  0.93185434376E-01 -0.30596691666E+00  0.53554458610E+02  0.54070706139E+02  0.74470750000E+01 0. -1.
<mgrwt>
<rscale>  0 0.14988046E+02</rscale>
<asrwt>0</asrwt>
<pdfrwt beam="2">  1        2 0.99381581E+00 0.14988046E+02</pdfrwt>
<pdfrwt beam="1">  1       -2 0.99629633E+00 0.14988046E+02</pdfrwt>
<totfact>-0.12000970E-13</totfact>
</mgrwt>
</event>
<event>
 4    1 -0.5119137E-019  0.1497750E+02  0.7818608E-02  0.1868756E+00
         -2   -1    0    0    0  501 -0.00000000000E+00  0.00000000000E+00  0.11964585554E+03  0.11964585557E+03  0.25500000000E-02 0.  1.
          2   -1    0    0  501    0  0.00000000000E+00 -0.00000000000E+00 -0.46872449049E+00  0.46873142682E+00  0.25500000000E-02 0. -1.
         31    1    1    2    0    0  0.77069786551E+00  0.14865940667E+00  0.60228131617E+02  0.60691867981E+02  0.74470750000E+01 0. -1.
        -31    1    1    2    0    0 -0.77069786551E+00 -0.14865940667E+00  0.58948999431E+02  0.59422719012E+02  0.74470750000E+01 0. -1.
<mgrwt>
<rscale>  0 0.14977498E+02</rscale>
<asrwt>0</asrwt>
<pdfrwt beam="2">  1        2 0.99551991E+00 0.14977498E+02</pdfrwt>
<pdfrwt beam="1">  1       -2 0.99319145E+00 0.14977498E+02</pdfrwt>
<totfact>-0.10082673E-13</totfact>
</mgrwt>
</event>
<event>
 4    1 -0.5119137E-019  0.1496591E+02  0.7818608E-02  0.1869110E+00
          2   -1    0    0  501    0  0.00000000000E+00  0.00000000000E+00  0.11958773246E+03  0.11958773249E+03  0.25500000000E-02 0.  1.
         -2   -1    0    0    0  501 -0.00000000000E+00 -0.00000000000E+00 -0.46822715086E+00  0.46823409456E+00  0.25500000000E-02 0. -1.
         31    1    1    2    0    0  0.63735874703E-01  0.45732995207E+00  0.64115369508E+02  0.64548065395E+02  0.74470750000E+01 0.  1.
        -31    1    1    2    0    0 -0.63735874703E-01 -0.45732995207E+00  0.55004135801E+02  0.55507901187E+02  0.74470750000E+01 0. -1.
<mgrwt>
<rscale>  0 0.14965913E+02</rscale>
<asrwt>0</asrwt>
<pdfrwt beam="1">  1        2 0.99270673E+00 0.14965913E+02</pdfrwt>
<pdfrwt beam="2">  1       -2 0.99446586E+00 0.14965913E+02</pdfrwt>
<totfact>-0.14372887E-13</totfact>
</mgrwt>
</event>
<event>
 4    1 -0.5119137E-019  0.1500965E+02  0.7818608E-02  0.1867774E+00
         -2   -1    0    0    0  501 -0.00000000000E+00  0.00000000000E+00  0.11999742640E+03  0.11999742643E+03  0.25500000000E-02 0.  1.
          2   -1    0    0  501    0  0.00000000000E+00 -0.00000000000E+00 -0.46936011363E+00  0.46936704056E+00  0.25500000000E-02 0. -1.
         31    1    1    2    0    0  0.25785925842E-01 -0.92606847515E+00  0.60344502508E+02  0.60809342840E+02  0.74470750000E+01 0.  1.
        -31    1    1    2    0    0 -0.25785925842E-01  0.92606847515E+00  0.59183563781E+02  0.59657450629E+02  0.74470750000E+01 0. -1.
<mgrwt>
<rscale>  0 0.15009654E+02</rscale>
<asrwt>0</asrwt>
<pdfrwt beam="2">  1        2 0.99687602E+00 0.15009654E+02</pdfrwt>
<pdfrwt beam="1">  1       -2 0.99610373E+00 0.15009654E+02</pdfrwt>
<totfact>-0.83929325E-14</totfact>
</mgrwt>
</event>
<event>
 4    1  0.5119137E-019  0.1495720E+02  0.7818608E-02  0.1869377E+00
         -2   -1    0    0    0  501 -0.00000000000E+00  0.00000000000E+00  0.11899849731E+03  0.11899849734E+03  0.25500000000E-02 0. -1.
          2   -1    0    0  501    0  0.00000000000E+00 -0.00000000000E+00 -0.46999771238E+00  0.47000462992E+00  0.25500000000E-02 0.  1.
         31    1    1    2    0    0  0.22713640447E+00 -0.39084035081E-04  0.54094513210E+02  0.54605190929E+02  0.74470750000E+01 0.  1.
        -31    1    1    2    0    0 -0.22713640447E+00  0.39084035081E-04  0.64433986393E+02  0.64863311043E+02  0.74470750000E+01 0. -1.
<mgrwt>
<rscale>  0 0.14957197E+02</rscale>
<asrwt>0</asrwt>
<pdfrwt beam="2">  1        2 0.99819222E+00 0.14957197E+02</pdfrwt>
<pdfrwt beam="1">  1       -2 0.98784916E+00 0.14957197E+02</pdfrwt>
<totfact> 0.83446765E-14</totfact>
</mgrwt>
</event>
<event>
 4    1  0.5119137E-019  0.1495166E+02  0.7818608E-02  0.1869547E+00
         -2   -1    0    0    0  501 -0.00000000000E+00  0.00000000000E+00  0.11889168454E+03  0.11889168456E+03  0.25500000000E-02 0. -1.
          2   -1    0    0  501    0  0.00000000000E+00 -0.00000000000E+00 -0.47007170935E+00  0.47007862579E+00  0.25500000000E-02 0.  1.
         31    1    1    2    0    0 -0.23605779392E+00 -0.11414900383E+00  0.54418555319E+02  0.54926376563E+02  0.74470750000E+01 0.  1.
        -31    1    1    2    0    0  0.23605779392E+00  0.11414900383E+00  0.64003057507E+02  0.64435386625E+02  0.74470750000E+01 0. -1.
<mgrwt>
<rscale>  0 0.14951660E+02</rscale>
<asrwt>0</asrwt>
<pdfrwt beam="2">  1        2 0.99834523E+00 0.14951660E+02</pdfrwt>
<pdfrwt beam="1">  1       -2 0.98696657E+00 0.14951660E+02</pdfrwt>
<totfact> 0.11765996E-13</totfact>
</mgrwt>
</event>
<event>
 4    1  0.5119137E-019  0.1493066E+02  0.7818608E-02  0.1870192E+00
          2   -1    0    0  501    0  0.00000000000E+00  0.00000000000E+00  0.11983016454E+03  0.11983016457E+03  0.25500000000E-02 0.  1.
         -2   -1    0    0    0  501 -0.00000000000E+00 -0.00000000000E+00 -0.46508111582E+00  0.46508810648E+00  0.25500000000E-02 0. -1.
         31    1    1    2    0    0 -0.45625049086E+00  0.57342103239E-01  0.61669028497E+02  0.62118752841E+02  0.74470750000E+01 0.  1.
        -31    1    1    2    0    0  0.45625049086E+00 -0.57342103239E-01  0.57696054927E+02  0.58176499833E+02  0.74470750000E+01 0. -1.
<mgrwt>
<rscale>  0 0.14930662E+02</rscale>
<asrwt>0</asrwt>
<pdfrwt beam="1">  1        2 0.99468532E+00 0.14930662E+02</pdfrwt>
<pdfrwt beam="2">  1       -2 0.98781774E+00 0.14930662E+02</pdfrwt>
<totfact> 0.17260467E-13</totfact>
</mgrwt>
</event>
<event>
 4    1 -0.5119137E-019  0.1501474E+02  0.7818608E-02  0.1867619E+00
          2   -1    0    0  501    0  0.00000000000E+00  0.00000000000E+00  0.12024139549E+03  0.12024139552E+03  0.25500000000E-02 0. -1.
         -2   -1    0    0    0  501 -0.00000000000E+00 -0.00000000000E+00 -0.46872519470E+00  0.46873213101E+00  0.25500000000E-02 0.  1.
         31    1    1    2    0    0  0.50337132503E+00 -0.80509136214E+00  0.59801657404E+02  0.60271043703E+02  0.74470750000E+01 0. -1.
        -31    1    1    2    0    0 -0.50337132503E+00  0.80509136214E+00  0.59971012897E+02  0.60439083950E+02  0.74470750000E+01 0.  1.
<mgrwt>
<rscale>  0 0.15014738E+02</rscale>
<asrwt>0</asrwt>
<pdfrwt beam="1">  1        2 0.99811579E+00 0.15014738E+02</pdfrwt>
<pdfrwt beam="2">  1       -2 0.99554064E+00 0.15014738E+02</pdfrwt>
<totfact>-0.61038846E-14</totfact>
</mgrwt>
</event>
<event>
 4    1  0.5119137E-019  0.1491873E+02  0.7818608E-02  0.1870559E+00
         -2   -1    0    0    0  501 -0.00000000000E+00  0.00000000000E+00  0.11833259945E+03  0.11833259948E+03  0.25500000000E-02 0.  1.
          2   -1    0    0  501    0  0.00000000000E+00 -0.00000000000E+00 -0.47021460389E+00  0.47022151824E+00  0.25500000000E-02 0. -1.
         31    1    1    2    0    0  0.18833943761E+00 -0.27953031361E+00  0.61031969483E+02  0.61485557930E+02  0.74470750000E+01 0.  1.
        -31    1    1    2    0    0 -0.18833943761E+00  0.27953031361E+00  0.56830415363E+02  0.57317263066E+02  0.74470750000E+01 0. -1.
<mgrwt>
<rscale>  0 0.14918730E+02</rscale>
<asrwt>0</asrwt>
<pdfrwt beam="2">  1        2 0.99862892E+00 0.14918730E+02</pdfrwt>
<pdfrwt beam="1">  1       -2 0.98234485E+00 0.14918730E+02</pdfrwt>
<totfact> 0.36951088E-13</totfact>
</mgrwt>
</event>
<event>
 4    1 -0.5119137E-019  0.1497737E+02  0.7818608E-02  0.1868760E+00
          2   -1    0    0  501    0  0.00000000000E+00  0.00000000000E+00  0.11983418532E+03  0.11983418535E+03  0.25500000000E-02 0. -1.
         -2   -1    0    0    0  501 -0.00000000000E+00 -0.00000000000E+00 -0.46797954447E+00  0.46798649184E+00  0.25500000000E-02 0.  1.
         31    1    1    2    0    0  0.49961720069E+00  0.59429649186E+00  0.60779595632E+02  0.61239047812E+02  0.74470750000E+01 0. -1.
        -31    1    1    2    0    0 -0.49961720069E+00 -0.59429649186E+00  0.58586610143E+02  0.59063124027E+02  0.74470750000E+01 0.  1.
<mgrwt>
<rscale>  0 0.14977365E+02</rscale>
<asrwt>0</asrwt>
<pdfrwt beam="1">  1        2 0.99474253E+00 0.14977365E+02</pdfrwt>
<pdfrwt beam="2">  1       -2 0.99395000E+00 0.14977365E+02</pdfrwt>
<totfact>-0.11933309E-13</totfact>
</mgrwt>
</event>
<event>
 4    1 -0.5119137E-019  0.1499716E+02  0.7818608E-02  0.1868155E+00
          2   -1    0    0  501    0  0.00000000000E+00  0.00000000000E+00  0.12017899252E+03  0.12017899254E+03  0.25500000000E-02 0.  1.
         -2   -1    0    0    0  501 -0.00000000000E+00 -0.00000000000E+00 -0.46787143322E+00  0.46787838220E+00  0.25500000000E-02 0. -1.
         31    1    1    2    0    0  0.81296863142E+00  0.31103900154E+00  0.58968860416E+02  0.59443612677E+02  0.74470750000E+01 0. -1.
        -31    1    1    2    0    0 -0.81296863142E+00 -0.31103900154E+00  0.60742260667E+02  0.61203258248E+02  0.74470750000E+01 0. -1.
<mgrwt>
<rscale>  0 0.14997165E+02</rscale>
<asrwt>0</asrwt>
<pdfrwt beam="1">  1        2 0.99759274E+00 0.14997165E+02</pdfrwt>
<pdfrwt beam="2">  1       -2 0.99373236E+00 0.14997165E+02</pdfrwt>
<totfact>-0.72200947E-14</totfact>
</mgrwt>
</event>
<event>
 4    1 -0.5119137E-019  0.1490909E+02  0.7818608E-02  0.1870855E+00
         -2   -1    0    0    0  501 -0.00000000000E+00  0.00000000000E+00  0.12022162633E+03  0.12022162636E+03  0.25500000000E-02 0. -1.
          2   -1    0    0  501    0  0.00000000000E+00 -0.00000000000E+00 -0.46222811998E+00  0.46223515380E+00  0.25500000000E-02 0.  1.
         31    1    1    2    0    0  0.28160887641E+00  0.14086010865E+00  0.60772726518E+02  0.61228117394E+02  0.74470750000E+01 0. -1.
        -31    1    1    2    0    0 -0.28160887641E+00 -0.14086010865E+00  0.58986671695E+02  0.59455744120E+02  0.74470750000E+01 0. -1.
<mgrwt>
<rscale>  0 0.14909090E+02</rscale>
<asrwt>0</asrwt>
<pdfrwt beam="2">  1        2 0.98179372E+00 0.14909090E+02</pdfrwt>
<pdfrwt beam="1">  1       -2 0.99789861E+00 0.14909090E+02</pdfrwt>
<totfact>-0.36702811E-13</totfact>
</mgrwt>
</event>
<event>
 4    1  0.5119137E-019  0.1494761E+02  0.7818608E-02  0.1869671E+00
         -2   -1    0    0    0  501 -0.00000000000E+00  0.00000000000E+00  0.11884363871E+03  0.11884363874E+03  0.25500000000E-02 0.  1.
          2   -1    0    0  501    0  0.00000000000E+00 -0.00000000000E+00 -0.47000710373E+00  0.47001402113E+00  0.25500000000E-02 0. -1.
         31    1    1    2    0    0 -0.28165880300E+00  0.52189319662E+00  0.57453785462E+02  0.57937449841E+02  0.74470750000E+01 0. -1.
        -31    1    1    2    0    0  0.28165880300E+00 -0.52189319662E+00  0.60919846150E+02  0.61376202922E+02  0.74470750000E+01 0.  1.
<mgrwt>
<rscale>  0 0.14947611E+02</rscale>
<asrwt>0</asrwt>
<pdfrwt beam="2">  1        2 0.99820697E+00 0.14947611E+02</pdfrwt>
<pdfrwt beam="1">  1       -2 0.98656876E+00 0.14947611E+02</pdfrwt>
<totfact> 0.14687210E-13</totfact>
</mgrwt>
</event>
<event>
 4    1  0.5119137E-019  0.1491833E+02  0.7818608E-02  0.1870571E+00
         -2   -1    0    0    0  501 -0.00000000000E+00  0.00000000000E+00  0.11853772166E+03  0.11853772168E+03  0.25500000000E-02 0. -1.
          2   -1    0    0  501    0  0.00000000000E+00 -0.00000000000E+00 -0.46937563114E+00  0.46938255784E+00  0.25500000000E-02 0.  1.
         31    1    1    2    0    0  0.11433285602E+00  0.33264991192E+00  0.60929967180E+02  0.61384391783E+02  0.74470750000E+01 0. -1.
        -31    1    1    2    0    0 -0.11433285602E+00 -0.33264991192E+00  0.57138378845E+02  0.57622712458E+02  0.74470750000E+01 0.  1.
<mgrwt>
<rscale>  0 0.14918329E+02</rscale>
<asrwt>0</asrwt>
<pdfrwt beam="2">  1        2 0.99686102E+00 0.14918329E+02</pdfrwt>
<pdfrwt beam="1">  1       -2 0.98403400E+00 0.14918329E+02</pdfrwt>
<totfact> 0.47618368E-13</totfact>
</mgrwt>
</event>
<event>
 4    1  0.5119137E-019  0.1493982E+02  0.7818608E-02  0.1869911E+00
         -2   -1    0    0    0  501 -0.00000000000E+00  0.00000000000E+00  0.11860220127E+03  0.11860220130E+03  0.25500000000E-02 0. -1.
          2   -1    0    0  501    0  0.00000000000E+00 -0.00000000000E+00 -0.47047284963E+00  0.47047976018E+00  0.25500000000E-02 0.  1.
         31    1    1    2    0    0  0.45717481201E+00  0.27047701552E+00  0.60992532975E+02  0.61447784105E+02  0.74470750000E+01 0. -1.
        -31    1    1    2    0    0 -0.45717481201E+00 -0.27047701552E+00  0.57139195447E+02  0.57624896954E+02  0.74470750000E+01 0.  1.
<mgrwt>
<rscale>  0 0.14939816E+02</rscale>
<asrwt>0</asrwt>
<pdfrwt beam="2">  1        2 0.99918419E+00 0.14939816E+02</pdfrwt>
<pdfrwt beam="1">  1       -2 0.98457624E+00 0.14939816E+02</pdfrwt>
<totfact> 0.13910441E-13</totfact>
</mgrwt>
</event>
<event>
 4    1 -0.5119137E-019  0.1498785E+02  0.7818608E-02  0.1868440E+00
          2   -1    0    0  501    0  0.00000000000E+00  0.00000000000E+00  0.11945158132E+03  0.11945158135E+03  0.25500000000E-02 0.  1.
         -2   -1    0    0    0  501 -0.00000000000E+00 -0.00000000000E+00 -0.47013595514E+00  0.47014287064E+00  0.25500000000E-02 0. -1.
         31    1    1    2    0    0 -0.63238923968E+00  0.54412883528E+00  0.58985870728E+02  0.59459968584E+02  0.74470750000E+01 0.  1.
        -31    1    1    2    0    0  0.63238923968E+00 -0.54412883528E+00  0.59995574635E+02  0.60461755633E+02  0.74470750000E+01 0. -1.
<mgrwt>
<rscale>  0 0.14987848E+02</rscale>
<asrwt>0</asrwt>
<pdfrwt beam="1">  1        2 0.99159672E+00 0.14987848E+02</pdfrwt>
<pdfrwt beam="2">  1       -2 0.99849957E+00 0.14987848E+02</pdfrwt>
<totfact>-0.72901686E-14</totfact>
</mgrwt>
</event>
<event>
 4    1 -0.5119137E-019  0.1499412E+02  0.7818608E-02  0.1868248E+00
          2   -1    0    0  501    0  0.00000000000E+00  0.00000000000E+00  0.11970971375E+03  0.11970971377E+03  0.25500000000E-02 0.  1.
         -2   -1    0    0    0  501 -0.00000000000E+00 -0.00000000000E+00 -0.46951485346E+00  0.46952177811E+00  0.25500000000E-02 0. -1.
         31    1    1    2    0    0  0.48840194859E+00  0.71289035799E+00  0.59741986078E+02  0.60210552030E+02  0.74470750000E+01 0.  1.
        -31    1    1    2    0    0 -0.48840194859E+00 -0.71289035799E+00  0.59498212815E+02  0.59968683522E+02  0.74470750000E+01 0. -1.
<mgrwt>
<rscale>  0 0.14994120E+02</rscale>
<asrwt>0</asrwt>
<pdfrwt beam="1">  1        2 0.99372600E+00 0.14994120E+02</pdfrwt>
<pdfrwt beam="2">  1       -2 0.99719404E+00 0.14994120E+02</pdfrwt>
<totfact>-0.10227949E-13</totfact>
</mgrwt>
</event>
<event>
 4    1 -0.5119137E-019  0.1498752E+02  0.7818608E-02  0.1868450E+00
         -2   -1    0    0    0  501 -0.00000000000E+00  0.00000000000E+00  0.11953090290E+03  0.11953090292E+03  0.25500000000E-02 0. -1.
          2   -1    0    0  501    0  0.00000000000E+00 -0.00000000000E+00 -0.46980347794E+00  0.46981039833E+00  0.25500000000E-02 0.  1.
         31    1    1    2    0    0  0.48430653521E+00 -0.60896967817E+00  0.61960790973E+02  0.62411568967E+02  0.74470750000E+01 0. -1.
        -31    1    1    2    0    0 -0.48430653521E+00  0.60896967817E+00  0.57100308444E+02  0.57589144353E+02  0.74470750000E+01 0. -1.
<mgrwt>
<rscale>  0 0.14987522E+02</rscale>
<asrwt>0</asrwt>
<pdfrwt beam="2">  1        2 0.99779881E+00 0.14987522E+02</pdfrwt>
<pdfrwt beam="1">  1       -2 0.99224986E+00 0.14987522E+02</pdfrwt>
<totfact>-0.50871050E-14</totfact>
</mgrwt>
</event>
<event>
 4    1  0.5119137E-019  0.1492370E+02  0.7818608E-02  0.1870406E+00
         -2   -1    0    0    0  501 -0.00000000000E+00  0.00000000000E+00  0.11889080937E+03  0.11889080939E+03  0.25500000000E-02 0.  1.
          2   -1    0    0  501    0  0.00000000000E+00 -0.00000000000E+00 -0.46831863448E+00  0.46832557681E+00  0.25500000000E-02 0. -1.
         31    1    1    2    0    0  0.32178413136E+00 -0.33978515792E+00  0.59496538869E+02  0.59962622212E+02  0.74470750000E+01 0.  1.
        -31    1    1    2    0    0 -0.32178413136E+00  0.33978515792E+00  0.58925951861E+02  0.59396512758E+02  0.74470750000E+01 0.  1.
<mgrwt>
<rscale>  0 0.14923699E+02</rscale>
<asrwt>0</asrwt>
<pdfrwt beam="2">  1        2 0.99463666E+00 0.14923699E+02</pdfrwt>
<pdfrwt beam="1">  1       -2 0.98694484E+00 0.14923699E+02</pdfrwt>
<totfact> 0.26054582E-13</totfact>
</mgrwt>
</event>
<event>
 4    1 -0.5119137E-019  0.1498925E+02  0.7818608E-02  0.1868397E+00
          2   -1    0    0  501    0  0.00000000000E+00  0.00000000000E+00  0.12008588414E+03  0.12008588417E+03  0.25500000000E-02 0. -1.
         -2   -1    0    0    0  501 -0.00000000000E+00 -0.00000000000E+00 -0.46774023012E+00  0.46774718104E+00  0.25500000000E-02 0.  1.
         31    1    1    2    0    0  0.28333548671E+00  0.79174468881E+00  0.59343222309E+02  0.59814580987E+02  0.74470750000E+01 0. -1.
        -31    1    1    2    0    0 -0.28333548671E+00 -0.79174468881E+00  0.60274921602E+02  0.60739050361E+02  0.74470750000E+01 0.  1.
<mgrwt>
<rscale>  0 0.14989252E+02</rscale>
<asrwt>0</asrwt>
<pdfrwt beam="1">  1        2 0.99682177E+00 0.14989252E+02</pdfrwt>
<pdfrwt beam="2">  1       -2 0.99345179E+00 0.14989252E+02</pdfrwt>
<totfact>-0.85020692E-14</totfact>
</mgrwt>
</event>
<event>
 4    1  0.5119137E-019  0.1492837E+02  0.7818608E-02  0.1870262E+00
          2   -1    0    0  501    0  0.00000000000E+00  0.00000000000E+00  0.11978785349E+03  0.11978785351E+03  0.25500000000E-02 0.  1.
         -2   -1    0    0    0  501 -0.00000000000E+00 -0.00000000000E+00 -0.46510246521E+00  0.46510945556E+00  0.25500000000E-02 0. -1.
         31    1    1    2    0    0  0.33458080425E+00  0.35566959945E+00  0.60701626167E+02  0.61158685324E+02  0.74470750000E+01 0.  1.
        -31    1    1    2    0    0 -0.33458080425E+00 -0.35566959945E+00  0.58621124855E+02  0.59094277646E+02  0.74470750000E+01 0. -1.
<mgrwt>
<rscale>  0 0.14928369E+02</rscale>
<asrwt>0</asrwt>
<pdfrwt beam="1">  1        2 0.99433563E+00 0.14928369E+02</pdfrwt>
<pdfrwt beam="2">  1       -2 0.98786156E+00 0.14928369E+02</pdfrwt>
<totfact> 0.17398905E-13</totfact>
</mgrwt>
</event>
<event>
 4    1 -0.5119137E-019  0.1491820E+02  0.7818608E-02  0.1870575E+00
         -2   -1    0    0    0  501 -0.00000000000E+00  0.00000000000E+00  0.12040648071E+03  0.12040648074E+03  0.25500000000E-02 0.  1.
          2   -1    0    0  501    0  0.00000000000E+00 -0.00000000000E+00 -0.46208285333E+00  0.46208988935E+00  0.25500000000E-02 0. -1.
         31    1    1    2    0    0 -0.22430279336E+00 -0.16983552944E+00  0.62535777796E+02  0.62978262809E+02  0.74470750000E+01 0.  1.
        -31    1    1    2    0    0  0.22430279336E+00  0.16983552944E+00  0.57408620064E+02  0.57890307821E+02  0.74470750000E+01 0. -1.
<mgrwt>
<rscale>  0 0.14918203E+02</rscale>
<asrwt>0</asrwt>
<pdfrwt beam="2">  1        2 0.98149212E+00 0.14918203E+02</pdfrwt>
<pdfrwt beam="1">  1       -2 0.99942591E+00 0.14918203E+02</pdfrwt>
<totfact>-0.12059242E-13</totfact>
</mgrwt>
</event>
<event>
 4    1 -0.5119137E-019  0.1491872E+02  0.7818608E-02  0.1870559E+00
          2   -1    0    0  501    0  0.00000000000E+00  0.00000000000E+00  0.11919587771E+03  0.11919587773E+03  0.25500000000E-02 0. -1.
         -2   -1    0    0    0  501 -0.00000000000E+00 -0.00000000000E+00 -0.46680819243E+00  0.46681515723E+00  0.25500000000E-02 0.  1.
         31    1    1    2    0    0 -0.23958965544E+00  0.24957463934E+00  0.61384385089E+02  0.61835437651E+02  0.74470750000E+01 0. -1.
        -31    1    1    2    0    0  0.23958965544E+00 -0.24957463934E+00  0.57344684425E+02  0.57827255239E+02  0.74470750000E+01 0. -1.
<mgrwt>
<rscale>  0 0.14918717E+02</rscale>
<asrwt>0</asrwt>
<pdfrwt beam="1">  1        2 0.98945487E+00 0.14918717E+02</pdfrwt>
<pdfrwt beam="2">  1       -2 0.99145123E+00 0.14918717E+02</pdfrwt>
<totfact>-0.94969697E-14</totfact>
</mgrwt>
</event>
<event>
 4    1  0.5119137E-019  0.1493727E+02  0.7818608E-02  0.1869989E+00
          2   -1    0    0  501    0  0.00000000000E+00  0.00000000000E+00  0.11985165808E+03  0.11985165810E+03  0.25500000000E-02 0.  1.
         -2   -1    0    0    0  501 -0.00000000000E+00 -0.00000000000E+00 -0.46540921360E+00  0.46541619933E+00  0.25500000000E-02 0. -1.
         31    1    1    2    0    0  0.53733009568E+00 -0.52273980541E-01  0.58295535427E+02  0.58771760506E+02  0.74470750000E+01 0. -1.
        -31    1    1    2    0    0 -0.53733009568E+00  0.52273980541E-01  0.61090713437E+02  0.61545313798E+02  0.74470750000E+01 0. -1.
<mgrwt>
<rscale>  0 0.14937267E+02</rscale>
<asrwt>0</asrwt>
<pdfrwt beam="1">  1        2 0.99486575E+00 0.14937267E+02</pdfrwt>
<pdfrwt beam="2">  1       -2 0.98851258E+00 0.14937267E+02</pdfrwt>
<totfact> 0.11047988E-13</totfact>
</mgrwt>
</event>
<event>
 4    1  0.5119137E-019  0.1490798E+02  0.7818608E-02  0.1870889E+00
          2   -1    0    0  501    0  0.00000000000E+00  0.00000000000E+00  0.12028441864E+03  0.12028441867E+03  0.25500000000E-02 0.  1.
         -2   -1    0    0    0  501 -0.00000000000E+00 -0.00000000000E+00 -0.46191820252E+00  0.46192524105E+00  0.25500000000E-02 0. -1.
         31    1    1    2    0    0  0.99132927967E-01  0.52807913791E-01  0.62347108818E+02  0.62790393533E+02  0.74470750000E+01 0.  1.
        -31    1    1    2    0    0 -0.99132927967E-01 -0.52807913791E-01  0.57475391625E+02  0.57955950380E+02  0.74470750000E+01 0.  1.
<mgrwt>
<rscale>  0 0.14907983E+02</rscale>
<asrwt>0</asrwt>
<pdfrwt beam="1">  1        2 0.99841525E+00 0.14907983E+02</pdfrwt>
<pdfrwt beam="2">  1       -2 0.98113993E+00 0.14907983E+02</pdfrwt>
<totfact> 0.52728245E-13</totfact>
</mgrwt>
</event>
<event>
 4    1 -0.5119137E-019  0.1492721E+02  0.7818608E-02  0.1870298E+00
         -2   -1    0    0    0  501 -0.00000000000E+00  0.00000000000E+00  0.12008256452E+03  0.12008256455E+03  0.25500000000E-02 0.  1.
          2   -1    0    0  501    0  0.00000000000E+00 -0.00000000000E+00 -0.46388883971E+00  0.46389584834E+00  0.25500000000E-02 0. -1.
         31    1    1    2    0    0  0.18068547821E+00 -0.30211165756E+00  0.56982399754E+02  0.57468049614E+02  0.74470750000E+01 0. -1.
        -31    1    1    2    0    0 -0.18068547821E+00  0.30211165756E+00  0.62636275926E+02  0.63078410780E+02  0.74470750000E+01 0.  1.
<mgrwt>
<rscale>  0 0.14927208E+02</rscale>
<asrwt>0</asrwt>
<pdfrwt beam="2">  1        2 0.98530317E+00 0.14927208E+02</pdfrwt>
<pdfrwt beam="1">  1       -2 0.99676248E+00 0.14927208E+02</pdfrwt>
<totfact>-0.27774904E-13</totfact>
</mgrwt>
</event>
<event>
 4    1  0.5119137E-019  0.1489598E+02  0.7818608E-02  0.1871259E+00
          2   -1    0    0  501    0  0.00000000000E+00  0.00000000000E+00  0.12037496175E+03  0.12037496177E+03  0.25500000000E-02 0. -1.
         -2   -1    0    0    0  501 -0.00000000000E+00 -0.00000000000E+00 -0.46082761419E+00  0.46083466938E+00  0.25500000000E-02 0.  1.
         31    1    1    2    0    0 -0.64832125115E-01  0.32547184067E-01  0.60698136855E+02  0.61153315578E+02  0.74470750000E+01 0. -1.
        -31    1    1    2    0    0  0.64832125115E-01 -0.32547184067E-01  0.59215997278E+02  0.59682480865E+02  0.74470750000E+01 0.  1.
<mgrwt>
<rscale>  0 0.14895977E+02</rscale>
<asrwt>0</asrwt>
<pdfrwt beam="1">  1        2 0.99915491E+00 0.14895977E+02</pdfrwt>
<pdfrwt beam="2">  1       -2 0.97883515E+00 0.14895977E+02</pdfrwt>
<totfact> 0.45040726E-13</totfact>
</mgrwt>
</event>
<event>
 4    1 -0.5119137E-019  0.1491450E+02  0.7818608E-02  0.1870689E+00
         -2   -1    0    0    0  501 -0.00000000000E+00  0.00000000000E+00  0.12000701332E+03  0.12000701335E+03  0.25500000000E-02 0.  1.
          2   -1    0    0  501    0  0.00000000000E+00 -0.00000000000E+00 -0.46339084809E+00  0.46339786425E+00  0.25500000000E-02 0. -1.
         31    1    1    2    0    0  0.20712908146E+00 -0.18792202542E+00  0.57582958512E+02  0.58063191905E+02  0.74470750000E+01 0. -1.
        -31    1    1    2    0    0 -0.20712908146E+00  0.18792202542E+00  0.61960663960E+02  0.62407219306E+02  0.74470750000E+01 0.  1.
<mgrwt>
<rscale>  0 0.14914500E+02</rscale>
<asrwt>0</asrwt>
<pdfrwt beam="2">  1        2 0.98424713E+00 0.14914500E+02</pdfrwt>
<pdfrwt beam="1">  1       -2 0.99613365E+00 0.14914500E+02</pdfrwt>
<totfact>-0.36306007E-13</totfact>
</mgrwt>
</event>
<event>
 4    1 -0.5119137E-019  0.1490043E+02  0.7818608E-02  0.1871122E+00
          2   -1    0    0  501    0  0.00000000000E+00  0.00000000000E+00  0.11845150908E+03  0.11845150910E+03  0.25500000000E-02 0.  1.
         -2   -1    0    0    0  501 -0.00000000000E+00 -0.00000000000E+00 -0.46859096227E+00  0.46859790058E+00  0.25500000000E-02 0. -1.
         31    1    1    2    0    0 -0.14787305457E+00  0.13253970555E+00  0.58306695521E+02  0.58780686469E+02  0.74470750000E+01 0. -1.
        -31    1    1    2    0    0  0.14787305457E+00 -0.13253970555E+00  0.59676222594E+02  0.60139420535E+02  0.74470750000E+01 0.  1.
<mgrwt>
<rscale>  0 0.14900432E+02</rscale>
<asrwt>0</asrwt>
<pdfrwt beam="1">  1        2 0.98331465E+00 0.14900432E+02</pdfrwt>
<pdfrwt beam="2">  1       -2 0.99519827E+00 0.14900432E+02</pdfrwt>
<totfact>-0.45650239E-13</totfact>
</mgrwt>
</event>
<event>
 4    1 -0.5119137E-019  0.1500779E+02  0.7818608E-02  0.1867831E+00
          2   -1    0    0  501    0  0.00000000000E+00  0.00000000000E+00  0.12015831974E+03  0.12015831977E+03  0.25500000000E-02 0.  1.
         -2   -1    0    0    0  501 -0.00000000000E+00 -0.00000000000E+00 -0.46861537150E+00  0.46862230944E+00  0.25500000000E-02 0. -1.
         31    1    1    2    0    0  0.38444161838E+00 -0.74569169316E+00  0.56777067902E+02  0.57269522585E+02  0.74470750000E+01 0. -1.
        -31    1    1    2    0    0 -0.38444161838E+00  0.74569169316E+00  0.62912636469E+02  0.63357419495E+02  0.74470750000E+01 0. -1.
<mgrwt>
<rscale>  0 0.15007792E+02</rscale>
<asrwt>0</asrwt>
<pdfrwt beam="1">  1        2 0.99742796E+00 0.15007792E+02</pdfrwt>
<pdfrwt beam="2">  1       -2 0.99530562E+00 0.15007792E+02</pdfrwt>
<totfact>-0.78274314E-14</totfact>
</mgrwt>
</event>
<event>
 4    1 -0.5119137E-019  0.1496841E+02  0.7818608E-02  0.1869034E+00
          2   -1    0    0  501    0  0.00000000000E+00  0.00000000000E+00  0.11977355985E+03  0.11977355987E+03  0.25500000000E-02 0.  1.
         -2   -1    0    0    0  501 -0.00000000000E+00 -0.00000000000E+00 -0.46765655484E+00  0.46766350701E+00  0.25500000000E-02 0. -1.
         31    1    1    2    0    0  0.26340541878E+00 -0.34200356560E+00  0.54779660450E+02  0.55285228352E+02  0.74470750000E+01 0. -1.
        -31    1    1    2    0    0 -0.26340541878E+00  0.34200356560E+00  0.64526242841E+02  0.64955995029E+02  0.74470750000E+01 0.  1.
<mgrwt>
<rscale>  0 0.14968408E+02</rscale>
<asrwt>0</asrwt>
<pdfrwt beam="1">  1        2 0.99423856E+00 0.14968408E+02</pdfrwt>
<pdfrwt beam="2">  1       -2 0.99326472E+00 0.14968408E+02</pdfrwt>
<totfact>-0.11602483E-13</totfact>
</mgrwt>
</event>
<event>
 4    1 -0.5119137E-019  0.1490582E+02  0.7818608E-02  0.1870956E+00
         -2   -1    0    0    0  501 -0.00000000000E+00  0.00000000000E+00  0.11985907297E+03  0.11985907300E+03  0.25500000000E-02 0.  1.
          2   -1    0    0  501    0  0.00000000000E+00 -0.00000000000E+00 -0.46342276881E+00  0.46342978449E+00  0.25500000000E-02 0. -1.
         31    1    1    2    0    0 -0.19582475525E+00 -0.16189586091E+00  0.58490675704E+02  0.58963400749E+02  0.74470750000E+01 0. -1.
        -31    1    1    2    0    0  0.19582475525E+00  0.16189586091E+00  0.60904974500E+02  0.61359102034E+02  0.74470750000E+01 0.  1.
<mgrwt>
<rscale>  0 0.14905817E+02</rscale>
<asrwt>0</asrwt>
<pdfrwt beam="2">  1        2 0.98431000E+00 0.14905817E+02</pdfrwt>
<pdfrwt beam="1">  1       -2 0.99491064E+00 0.14905817E+02</pdfrwt>
<totfact>-0.38932806E-13</totfact>
</mgrwt>
</event>
<event>
 4    1  0.5119137E-019  0.1489957E+02  0.7818608E-02  0.1871149E+00
         -2   -1    0    0    0  501 -0.00000000000E+00  0.00000000000E+00  0.11844812326E+03  0.11844812329E+03  0.25500000000E-02 0.  1.
          2   -1    0    0  501    0  0.00000000000E+00 -0.00000000000E+00 -0.46855019014E+00  0.46855712905E+00  0.25500000000E-02 0. -1.
         31    1    1    2    0    0  0.15789726140E+00 -0.64662554385E-02  0.57999167921E+02  0.58475528035E+02  0.74470750000E+01 0. -1.
        -31    1    1    2    0    0 -0.15789726140E+00  0.64662554385E-02  0.59980405149E+02  0.60441152382E+02  0.74470750000E+01 0.  1.
<mgrwt>
<rscale>  0 0.14899571E+02</rscale>
<asrwt>0</asrwt>
<pdfrwt beam="2">  1        2 0.99511191E+00 0.14899571E+02</pdfrwt>
<pdfrwt beam="1">  1       -2 0.98328632E+00 0.14899571E+02</pdfrwt>
<totfact> 0.73831482E-13</totfact>
</mgrwt>
</event>
<event>
 4    1 -0.5119137E-019  0.1494803E+02  0.7818608E-02  0.1869658E+00
          2   -1    0    0  501    0  0.00000000000E+00  0.00000000000E+00  0.11936704417E+03  0.11936704419E+03  0.25500000000E-02 0.  1.
         -2   -1    0    0    0  501 -0.00000000000E+00 -0.00000000000E+00 -0.46797270429E+00  0.46797965176E+00  0.25500000000E-02 0. -1.
         31    1    1    2    0    0 -0.26465355750E+00  0.70828293711E-01  0.64033505772E+02  0.64465679595E+02  0.74470750000E+01 0.  1.
        -31    1    1    2    0    0  0.26465355750E+00 -0.70828293711E-01  0.54865565689E+02  0.55369344249E+02  0.74470750000E+01 0. -1.
<mgrwt>
<rscale>  0 0.14948035E+02</rscale>
<asrwt>0</asrwt>
<pdfrwt beam="1">  1        2 0.99087982E+00 0.14948035E+02</pdfrwt>
<pdfrwt beam="2">  1       -2 0.99392039E+00 0.14948035E+02</pdfrwt>
<totfact>-0.16066456E-13</totfact>
</mgrwt>
</event>
<event>
 4    1  0.5119137E-019  0.1494810E+02  0.7818608E-02  0.1869656E+00
          2   -1    0    0  501    0  0.00000000000E+00  0.00000000000E+00  0.12024443775E+03  0.12024443777E+03  0.25500000000E-02 0. -1.
         -2   -1    0    0    0  501 -0.00000000000E+00 -0.00000000000E+00 -0.46456205082E+00  0.46456904929E+00  0.25500000000E-02 0.  1.
         31    1    1    2    0    0  0.25788849734E-01 -0.51453465090E+00  0.62879832689E+02  0.63321384192E+02  0.74470750000E+01 0. -1.
        -31    1    1    2    0    0 -0.25788849734E-01  0.51453465090E+00  0.56900043008E+02  0.57387622632E+02  0.74470750000E+01 0.  1.
<mgrwt>
<rscale>  0 0.14948100E+02</rscale>
<asrwt>0</asrwt>
<pdfrwt beam="1">  1        2 0.99810652E+00 0.14948100E+02</pdfrwt>
<pdfrwt beam="2">  1       -2 0.98673266E+00 0.14948100E+02</pdfrwt>
<totfact> 0.14404374E-13</totfact>
</mgrwt>
</event>
<event>
 4    1  0.5119137E-019  0.1494437E+02  0.7818608E-02  0.1869771E+00
          2   -1    0    0  501    0  0.00000000000E+00  0.00000000000E+00  0.12033567064E+03  0.12033567066E+03  0.25500000000E-02 0.  1.
         -2   -1    0    0    0  501 -0.00000000000E+00 -0.00000000000E+00 -0.46397838981E+00  0.46398539709E+00  0.25500000000E-02 0. -1.
         31    1    1    2    0    0 -0.20789203078E-01  0.30200314133E+00  0.55635633149E+02  0.56132648610E+02  0.74470750000E+01 0. -1.
        -31    1    1    2    0    0  0.20789203078E-01 -0.30200314133E+00  0.64236059097E+02  0.64667007450E+02  0.74470750000E+01 0.  1.
<mgrwt>
<rscale>  0 0.14944374E+02</rscale>
<asrwt>0</asrwt>
<pdfrwt beam="1">  1        2 0.99885608E+00 0.14944374E+02</pdfrwt>
<pdfrwt beam="2">  1       -2 0.98550062E+00 0.14944374E+02</pdfrwt>
<totfact> 0.14453271E-13</totfact>
</mgrwt>
</event>
<event>
 4    1 -0.5119137E-019  0.1498895E+02  0.7818608E-02  0.1868406E+00
          2   -1    0    0  501    0  0.00000000000E+00  0.00000000000E+00  0.11961364465E+03  0.11961364468E+03  0.25500000000E-02 0. -1.
         -2   -1    0    0    0  501 -0.00000000000E+00 -0.00000000000E+00 -0.46956774384E+00  0.46957466771E+00  0.25500000000E-02 0.  1.
         31    1    1    2    0    0  0.37029324487E+00 -0.14242430511E+00  0.53626273908E+02  0.54142345545E+02  0.74470750000E+01 0.  1.
        -31    1    1    2    0    0 -0.37029324487E+00  0.14242430511E+00  0.65517802997E+02  0.65940873799E+02  0.74470750000E+01 0.  1.
<mgrwt>
<rscale>  0 0.14988946E+02</rscale>
<asrwt>0</asrwt>
<pdfrwt beam="1">  1        2 0.99293208E+00 0.14988946E+02</pdfrwt>
<pdfrwt beam="2">  1       -2 0.99730281E+00 0.14988946E+02</pdfrwt>
<totfact>-0.10553799E-13</totfact>
</mgrwt>
</event>
<event>
 4    1 -0.5119137E-019  0.1494802E+02  0.7818608E-02  0.1869659E+00
         -2   -1    0    0    0  501 -0.00000000000E+00  0.00000000000E+00  0.12016994064E+03  0.12016994067E+03  0.25500000000E-02 0.  1.
          2   -1    0    0  501    0  0.00000000000E+00 -0.00000000000E+00 -0.46484526511E+00  0.46485225932E+00  0.25500000000E-02 0. -1.
         31    1    1    2    0    0 -0.56156038643E+00  0.27312244738E+00  0.58969250638E+02  0.59440906729E+02  0.74470750000E+01 0.  1.
        -31    1    1    2    0    0  0.56156038643E+00 -0.27312244738E+00  0.60735844736E+02  0.61193886196E+02  0.74470750000E+01 0.  1.
<mgrwt>
<rscale>  0 0.14948023E+02</rscale>
<asrwt>0</asrwt>
<pdfrwt beam="2">  1        2 0.98732953E+00 0.14948023E+02</pdfrwt>
<pdfrwt beam="1">  1       -2 0.99749287E+00 0.14948023E+02</pdfrwt>
<totfact>-0.17259003E-13</totfact>
</mgrwt>
</event>
<event>
 4    1 -0.5119137E-019  0.1494226E+02  0.7818608E-02  0.1869836E+00
         -2   -1    0    0    0  501 -0.00000000000E+00  0.00000000000E+00  0.12011637161E+03  0.12011637164E+03  0.25500000000E-02 0.  1.
          2   -1    0    0  501    0  0.00000000000E+00 -0.00000000000E+00 -0.46469374170E+00  0.46470073819E+00  0.25500000000E-02 0. -1.
         31    1    1    2    0    0  0.28837755364E+00 -0.34135067635E+00  0.63045090619E+02  0.63484975066E+02  0.74470750000E+01 0.  1.
        -31    1    1    2    0    0 -0.28837755364E+00  0.34135067635E+00  0.56606587249E+02  0.57096097310E+02  0.74470750000E+01 0.  1.
<mgrwt>
<rscale>  0 0.14942255E+02</rscale>
<asrwt>0</asrwt>
<pdfrwt beam="2">  1        2 0.98700724E+00 0.14942255E+02</pdfrwt>
<pdfrwt beam="1">  1       -2 0.99704867E+00 0.14942255E+02</pdfrwt>
<totfact>-0.20227701E-13</totfact>
</mgrwt>
</event>
<event>
 4    1 -0.5119137E-019  0.1491604E+02  0.7818608E-02  0.1870641E+00
         -2   -1    0    0    0  501 -0.00000000000E+00  0.00000000000E+00  0.12008543578E+03  0.12008543580E+03  0.25500000000E-02 0. -1.
          2   -1    0    0  501    0  0.00000000000E+00 -0.00000000000E+00 -0.46318409132E+00  0.46319111062E+00  0.25500000000E-02 0.  1.
         31    1    1    2    0    0  0.36110907117E+00  0.17759451049E+00  0.60093705016E+02  0.60554721106E+02  0.74470750000E+01 0. -1.
        -31    1    1    2    0    0 -0.36110907117E+00 -0.17759451049E+00  0.59528546670E+02  0.59993905809E+02  0.74470750000E+01 0. -1.
<mgrwt>
<rscale>  0 0.14916043E+02</rscale>
<asrwt>0</asrwt>
<pdfrwt beam="2">  1        2 0.98381214E+00 0.14916043E+02</pdfrwt>
<pdfrwt beam="1">  1       -2 0.99678039E+00 0.14916043E+02</pdfrwt>
<totfact>-0.35363095E-13</totfact>
</mgrwt>
</event>
<event>
 4    1 -0.5119137E-019  0.1501383E+02  0.7818608E-02  0.1867647E+00
         -2   -1    0    0    0  501 -0.00000000000E+00  0.00000000000E+00  0.12021379646E+03  0.12021379649E+03  0.25500000000E-02 0. -1.
          2   -1    0    0  501    0  0.00000000000E+00 -0.00000000000E+00 -0.46877631304E+00  0.46878324860E+00  0.25500000000E-02 0.  1.
         31    1    1    2    0    0  0.68494743885E+00 -0.64774190167E+00  0.59242055394E+02  0.59715733069E+02  0.74470750000E+01 0.  1.
        -31    1    1    2    0    0 -0.68494743885E+00  0.64774190167E+00  0.60502964755E+02  0.60966846669E+02  0.74470750000E+01 0. -1.
<mgrwt>
<rscale>  0 0.15013834E+02</rscale>
<asrwt>0</asrwt>
<pdfrwt beam="2">  1        2 0.99564790E+00 0.15013834E+02</pdfrwt>
<pdfrwt beam="1">  1       -2 0.99788801E+00 0.15013834E+02</pdfrwt>
<totfact>-0.68765466E-14</totfact>
</mgrwt>
</event>
<event>
 4    1 -0.5119137E-019  0.1491690E+02  0.7818608E-02  0.1870615E+00
         -2   -1    0    0    0  501 -0.00000000000E+00  0.00000000000E+00  0.12025035601E+03  0.12025035604E+03  0.25500000000E-02 0. -1.
          2   -1    0    0  501    0  0.00000000000E+00 -0.00000000000E+00 -0.46260215791E+00  0.46260918603E+00  0.25500000000E-02 0.  1.
         31    1    1    2    0    0 -0.99237584679E-01 -0.35595902596E-02  0.63127918721E+02  0.63565736910E+02  0.74470750000E+01 0. -1.
        -31    1    1    2    0    0  0.99237584679E-01  0.35595902596E-02  0.56659835135E+02  0.57147228317E+02  0.74470750000E+01 0.  1.
<mgrwt>
<rscale>  0 0.14916903E+02</rscale>
<asrwt>0</asrwt>
<pdfrwt beam="2">  1        2 0.98258604E+00 0.14916903E+02</pdfrwt>
<pdfrwt beam="1">  1       -2 0.99813926E+00 0.14916903E+02</pdfrwt>
<totfact>-0.29102143E-13</totfact>
</mgrwt>
</event>
<event>
 4    1 -0.5119137E-019  0.1492564E+02  0.7818608E-02  0.1870346E+00
         -2   -1    0    0    0  501 -0.00000000000E+00  0.00000000000E+00  0.11990801040E+03  0.11990801043E+03  0.25500000000E-02 0. -1.
          2   -1    0    0  501    0  0.00000000000E+00 -0.00000000000E+00 -0.46446664368E+00  0.46447364360E+00  0.25500000000E-02 0.  1.
         31    1    1    2    0    0 -0.22267836540E+00  0.24270212974E+00  0.62587652701E+02  0.63030006240E+02  0.74470750000E+01 0. -1.
        -31    1    1    2    0    0  0.22267836540E+00 -0.24270212974E+00  0.56855891055E+02  0.57342477830E+02  0.74470750000E+01 0.  1.
<mgrwt>
<rscale>  0 0.14925642E+02</rscale>
<asrwt>0</asrwt>
<pdfrwt beam="2">  1        2 0.98652015E+00 0.14925642E+02</pdfrwt>
<pdfrwt beam="1">  1       -2 0.99532392E+00 0.14925642E+02</pdfrwt>
<totfact>-0.27087671E-13</totfact>
</mgrwt>
</event>
<event>
 4    1 -0.5119137E-019  0.1500738E+02  0.7818608E-02  0.1867843E+00
         -2   -1    0    0    0  501 -0.00000000000E+00  0.00000000000E+00  0.11990772334E+03  0.11990772337E+03  0.25500000000E-02 0. -1.
          2   -1    0    0  501    0  0.00000000000E+00 -0.00000000000E+00 -0.46956900291E+00  0.46957592676E+00  0.25500000000E-02 0.  1.
         31    1    1    2    0    0  0.63669684452E+00  0.63744519820E+00  0.61213760781E+02  0.61671672218E+02  0.74470750000E+01 0.  1.
        -31    1    1    2    0    0 -0.63669684452E+00 -0.63744519820E+00  0.58224393559E+02  0.58705627078E+02  0.74470750000E+01 0.  1.
<mgrwt>
<rscale>  0 0.15007381E+02</rscale>
<asrwt>0</asrwt>
<pdfrwt beam="2">  1        2 0.99731504E+00 0.15007381E+02</pdfrwt>
<pdfrwt beam="1">  1       -2 0.99536373E+00 0.15007381E+02</pdfrwt>
<totfact>-0.80477947E-14</totfact>
</mgrwt>
</event>
<event>
 4    1 -0.5119137E-019  0.1494684E+02  0.7818608E-02  0.1869695E+00
          2   -1    0    0  501    0  0.00000000000E+00  0.00000000000E+00  0.11921288524E+03  0.11921288526E+03  0.25500000000E-02 0.  1.
         -2   -1    0    0    0  501 -0.00000000000E+00 -0.00000000000E+00 -0.46850277127E+00  0.46850971088E+00  0.25500000000E-02 0. -1.
         31    1    1    2    0    0  0.60855140513E+00  0.14707017007E+00  0.59107409769E+02  0.59577989057E+02  0.74470750000E+01 0. -1.
        -31    1    1    2    0    0 -0.60855140513E+00 -0.14707017007E+00  0.59636972696E+02  0.60103405917E+02  0.74470750000E+01 0. -1.
<mgrwt>
<rscale>  0 0.14946837E+02</rscale>
<asrwt>0</asrwt>
<pdfrwt beam="1">  1        2 0.98960951E+00 0.14946837E+02</pdfrwt>
<pdfrwt beam="2">  1       -2 0.99503675E+00 0.14946837E+02</pdfrwt>
<totfact>-0.18539730E-13</totfact>
</mgrwt>
</event>
<event>
 4    1  0.5119137E-019  0.1490867E+02  0.7818608E-02  0.1870868E+00
         -2   -1    0    0    0  501 -0.00000000000E+00  0.00000000000E+00  0.11852096071E+03  0.11852096074E+03  0.25500000000E-02 0.  1.
          2   -1    0    0  501    0  0.00000000000E+00 -0.00000000000E+00 -0.46883458255E+00  0.46884151725E+00  0.25500000000E-02 0. -1.
         31    1    1    2    0    0 -0.16615401801E+00 -0.13895766366E+00  0.61002076964E+02  0.61455343433E+02  0.74470750000E+01 0. -1.
        -31    1    1    2    0    0  0.16615401801E+00  0.13895766366E+00  0.57050049163E+02  0.57534458822E+02  0.74470750000E+01 0. -1.
<mgrwt>
<rscale>  0 0.14908674E+02</rscale>
<asrwt>0</asrwt>
<pdfrwt beam="2">  1        2 0.99571593E+00 0.14908674E+02</pdfrwt>
<pdfrwt beam="1">  1       -2 0.98389094E+00 0.14908674E+02</pdfrwt>
<totfact> 0.59647567E-13</totfact>
</mgrwt>
</event>
<event>
 4    1 -0.5119137E-019  0.1493604E+02  0.7818608E-02  0.1870027E+00
         -2   -1    0    0    0  501 -0.00000000000E+00  0.00000000000E+00  0.11990637582E+03  0.11990637585E+03  0.25500000000E-02 0. -1.
          2   -1    0    0  501    0  0.00000000000E+00 -0.00000000000E+00 -0.46512020334E+00  0.46512719342E+00  0.25500000000E-02 0.  1.
         31    1    1    2    0    0  0.16922157644E+00 -0.51751093866E+00  0.60737506051E+02  0.61194771189E+02  0.74470750000E+01 0. -1.
        -31    1    1    2    0    0 -0.16922157644E+00  0.51751093866E+00  0.58703749564E+02  0.59176731850E+02  0.74470750000E+01 0. -1.
<mgrwt>
<rscale>  0 0.14936037E+02</rscale>
<asrwt>0</asrwt>
<pdfrwt beam="2">  1        2 0.98790286E+00 0.14936037E+02</pdfrwt>
<pdfrwt beam="1">  1       -2 0.99531581E+00 0.14936037E+02</pdfrwt>
<totfact>-0.22354682E-13</totfact>
</mgrwt>
</event>
<event>
 4    1 -0.5119137E-019  0.1495503E+02  0.7818608E-02  0.1869444E+00
          2   -1    0    0  501    0  0.00000000000E+00  0.00000000000E+00  0.11902669863E+03  0.11902669866E+03  0.25500000000E-02 0.  1.
         -2   -1    0    0    0  501 -0.00000000000E+00 -0.00000000000E+00 -0.46975027857E+00  0.46975719975E+00  0.25500000000E-02 0. -1.
         31    1    1    2    0    0 -0.58939992563E-01 -0.66955343384E+00  0.58875912571E+02  0.59348831352E+02  0.74470750000E+01 0.  1.
        -31    1    1    2    0    0  0.58939992563E-01  0.66955343384E+00  0.59681035782E+02  0.60147624506E+02  0.74470750000E+01 0.  1.
<mgrwt>
<rscale>  0 0.14955031E+02</rscale>
<asrwt>0</asrwt>
<pdfrwt beam="1">  1        2 0.98808030E+00 0.14955031E+02</pdfrwt>
<pdfrwt beam="2">  1       -2 0.99766972E+00 0.14955031E+02</pdfrwt>
<totfact>-0.14799273E-13</totfact>
</mgrwt>
</event>
<event>
 4    1 -0.5119137E-019  0.1490536E+02  0.7818608E-02  0.1870970E+00
          2   -1    0    0  501    0  0.00000000000E+00  0.00000000000E+00  0.11854982736E+03  0.11854982739E+03  0.25500000000E-02 0.  1.
         -2   -1    0    0    0  501 -0.00000000000E+00 -0.00000000000E+00 -0.46851231869E+00  0.46851925816E+00  0.25500000000E-02 0. -1.
         31    1    1    2    0    0 -0.23277275090E+00 -0.86835033407E-02  0.57674219029E+02  0.58153492804E+02  0.74470750000E+01 0. -1.
        -31    1    1    2    0    0  0.23277275090E+00  0.86835033407E-02  0.60407096017E+02  0.60864853847E+02  0.74470750000E+01 0. -1.
<mgrwt>
<rscale>  0 0.14905364E+02</rscale>
<asrwt>0</asrwt>
<pdfrwt beam="1">  1        2 0.98412696E+00 0.14905364E+02</pdfrwt>
<pdfrwt beam="2">  1       -2 0.99503516E+00 0.14905364E+02</pdfrwt>
<totfact>-0.40039306E-13</totfact>
</mgrwt>
</event>
<event>
 4    1  0.5119137E-019  0.1491853E+02  0.7818608E-02  0.1870565E+00
          2   -1    0    0  501    0  0.00000000000E+00  0.00000000000E+00  0.11998926886E+03  0.11998926888E+03  0.25500000000E-02 0.  1.
         -2   -1    0    0    0  501 -0.00000000000E+00 -0.00000000000E+00 -0.46370972064E+00  0.46371673197E+00  0.25500000000E-02 0. -1.
         31    1    1    2    0    0 -0.17351969688E+00 -0.38498775038E+00  0.60231042091E+02  0.60691149948E+02  0.74470750000E+01 0.  1.
        -31    1    1    2    0    0  0.17351969688E+00  0.38498775038E+00  0.59294517045E+02  0.59761835667E+02  0.74470750000E+01 0. -1.
<mgrwt>
<rscale>  0 0.14918527E+02</rscale>
<asrwt>0</asrwt>
<pdfrwt beam="1">  1        2 0.99598956E+00 0.14918527E+02</pdfrwt>
<pdfrwt beam="2">  1       -2 0.98492124E+00 0.14918527E+02</pdfrwt>
<totfact> 0.43923154E-13</totfact>
</mgrwt>
</event>
<event>
 4    1  0.5119137E-019  0.1491863E+02  0.7818608E-02  0.1870562E+00
          2   -1    0    0  501    0  0.00000000000E+00  0.00000000000E+00  0.12036726845E+03  0.12036726848E+03  0.25500000000E-02 0. -1.
         -2   -1    0    0    0  501 -0.00000000000E+00 -0.00000000000E+00 -0.46225969121E+00  0.46226672454E+00  0.25500000000E-02 0.  1.
         31    1    1    2    0    0 -0.34515041862E+00  0.78876783676E-01  0.61887637582E+02  0.62335094143E+02  0.74470750000E+01 0. -1.
        -31    1    1    2    0    0  0.34515041862E+00 -0.78876783676E-01  0.58017371179E+02  0.58494441060E+02  0.74470750000E+01 0.  1.
<mgrwt>
<rscale>  0 0.14918628E+02</rscale>
<asrwt>0</asrwt>
<pdfrwt beam="1">  1        2 0.99910314E+00 0.14918628E+02</pdfrwt>
<pdfrwt beam="2">  1       -2 0.98186507E+00 0.14918628E+02</pdfrwt>
<totfact> 0.28054340E-13</totfact>
</mgrwt>
</event>
<event>
 4    1  0.5119137E-019  0.1490658E+02  0.7818608E-02  0.1870933E+00
         -2   -1    0    0    0  501 -0.00000000000E+00  0.00000000000E+00  0.11881514634E+03  0.11881514637E+03  0.25500000000E-02 0.  1.
          2   -1    0    0  501    0  0.00000000000E+00 -0.00000000000E+00 -0.46754248730E+00  0.46754944116E+00  0.25500000000E-02 0. -1.
         31    1    1    2    0    0  0.19130615872E+00 -0.19002773895E+00  0.60302930726E+02  0.60761625133E+02  0.74470750000E+01 0.  1.
        -31    1    1    2    0    0 -0.19130615872E+00  0.19002773895E+00  0.58044673131E+02  0.58521070680E+02  0.74470750000E+01 0.  1.
<mgrwt>
<rscale>  0 0.14906582E+02</rscale>
<asrwt>0</asrwt>
<pdfrwt beam="2">  1        2 0.99299225E+00 0.14906582E+02</pdfrwt>
<pdfrwt beam="1">  1       -2 0.98631279E+00 0.14906582E+02</pdfrwt>
<totfact> 0.37824272E-13</totfact>
</mgrwt>
</event>
<event>
 4    1  0.5119137E-019  0.1490898E+02  0.7818608E-02  0.1870859E+00
         -2   -1    0    0    0  501 -0.00000000000E+00  0.00000000000E+00  0.11839139348E+03  0.11839139351E+03  0.25500000000E-02 0. -1.
          2   -1    0    0  501    0  0.00000000000E+00 -0.00000000000E+00 -0.46936699032E+00  0.46937391715E+00  0.25500000000E-02 0.  1.
         31    1    1    2    0    0 -0.15366962027E+00 -0.15059263976E+00  0.60981151241E+02  0.61434567023E+02  0.74470750000E+01 0.  1.
        -31    1    1    2    0    0  0.15366962027E+00  0.15059263976E+00  0.56940875248E+02  0.57426200402E+02  0.74470750000E+01 0.  1.
<mgrwt>
<rscale>  0 0.14908981E+02</rscale>
<asrwt>0</asrwt>
<pdfrwt beam="2">  1        2 0.99683788E+00 0.14908981E+02</pdfrwt>
<pdfrwt beam="1">  1       -2 0.98282399E+00 0.14908981E+02</pdfrwt>
<totfact> 0.63267286E-13</totfact>
</mgrwt>
</event>
<event>
 4    1  0.5119137E-019  0.1490733E+02  0.7818608E-02  0.1870910E+00
          2   -1    0    0  501    0  0.00000000000E+00  0.00000000000E+00  0.11985720767E+03  0.11985720769E+03  0.25500000000E-02 0. -1.
         -2   -1    0    0    0  501 -0.00000000000E+00 -0.00000000000E+00 -0.46352401346E+00  0.46353102761E+00  0.25500000000E-02 0.  1.
         31    1    1    2    0    0  0.47074684302E-01 -0.18742251702E+00  0.57705871736E+02  0.58184739426E+02  0.74470750000E+01 0.  1.
        -31    1    1    2    0    0 -0.47074684302E-01  0.18742251702E+00  0.61687811916E+02  0.62135999294E+02  0.74470750000E+01 0. -1.
<mgrwt>
<rscale>  0 0.14907329E+02</rscale>
<asrwt>0</asrwt>
<pdfrwt beam="1">  1        2 0.99489605E+00 0.14907329E+02</pdfrwt>
<pdfrwt beam="2">  1       -2 0.98452415E+00 0.14907329E+02</pdfrwt>
<totfact> 0.55796565E-13</totfact>
</mgrwt>
</event>
<event>
 4    1 -0.5119137E-019  0.1500760E+02  0.7818608E-02  0.1867837E+00
         -2   -1    0    0    0  501 -0.00000000000E+00  0.00000000000E+00  0.11996947033E+03  0.11996947035E+03  0.25500000000E-02 0. -1.
          2   -1    0    0  501    0  0.00000000000E+00 -0.00000000000E+00 -0.46934098686E+00  0.46934791408E+00  0.25500000000E-02 0.  1.
         31    1    1    2    0    0  0.31253669541E-01 -0.72737495488E+00  0.64275810215E+02  0.64709881440E+02  0.74470750000E+01 0. -1.
        -31    1    1    2    0    0 -0.31253669541E-01  0.72737495488E+00  0.55224319124E+02  0.55728936827E+02  0.74470750000E+01 0.  1.
<mgrwt>
<rscale>  0 0.15007599E+02</rscale>
<asrwt>0</asrwt>
<pdfrwt beam="2">  1        2 0.99683465E+00 0.15007599E+02</pdfrwt>
<pdfrwt beam="1">  1       -2 0.99587242E+00 0.15007599E+02</pdfrwt>
<totfact>-0.86762591E-14</totfact>
</mgrwt>
</event>
<event>
 4    1 -0.5119137E-019  0.1492173E+02  0.7818608E-02  0.1870466E+00
         -2   -1    0    0    0  501 -0.00000000000E+00  0.00000000000E+00  0.12015500443E+03  0.12015500446E+03  0.25500000000E-02 0. -1.
          2   -1    0    0  501    0  0.00000000000E+00 -0.00000000000E+00 -0.46326877028E+00  0.46327578829E+00  0.25500000000E-02 0.  1.
         31    1    1    2    0    0  0.34721768338E-01 -0.41759541387E+00  0.61245217072E+02  0.61697740087E+02  0.74470750000E+01 0. -1.
        -31    1    1    2    0    0 -0.34721768338E-01  0.41759541387E+00  0.58446518591E+02  0.58920540162E+02  0.74470750000E+01 0.  1.
<mgrwt>
<rscale>  0 0.14921727E+02</rscale>
<asrwt>0</asrwt>
<pdfrwt beam="2">  1        2 0.98399350E+00 0.14921727E+02</pdfrwt>
<pdfrwt beam="1">  1       -2 0.99735633E+00 0.14921727E+02</pdfrwt>
<totfact>-0.30110343E-13</totfact>
</mgrwt>
</event>
<event>
 4    1  0.5119137E-019  0.1493032E+02  0.7818608E-02  0.1870202E+00
          2   -1    0    0  501    0  0.00000000000E+00  0.00000000000E+00  0.12014803669E+03  0.12014803672E+03  0.25500000000E-02 0. -1.
         -2   -1    0    0    0  501 -0.00000000000E+00 -0.00000000000E+00 -0.46382925266E+00  0.46383626219E+00  0.25500000000E-02 0.  1.
         31    1    1    2    0    0 -0.18356053083E+00  0.20732320626E+00  0.56293201676E+02  0.56784330219E+02  0.74470750000E+01 0. -1.
        -31    1    1    2    0    0  0.18356053083E+00 -0.20732320626E+00  0.63391005765E+02  0.63827542765E+02  0.74470750000E+01 0. -1.
<mgrwt>
<rscale>  0 0.14930318E+02</rscale>
<asrwt>0</asrwt>
<pdfrwt beam="1">  1        2 0.99730335E+00 0.14930318E+02</pdfrwt>
<pdfrwt beam="2">  1       -2 0.98517916E+00 0.14930318E+02</pdfrwt>
<totfact> 0.31588792E-13</totfact>
</mgrwt>
</event>
<event>
 4    1  0.5119137E-019  0.1490600E+02  0.7818608E-02  0.1870951E+00
         -2   -1    0    0    0  501 -0.00000000000E+00  0.00000000000E+00  0.11850461133E+03  0.11850461136E+03  0.25500000000E-02 0.  1.
          2   -1    0    0  501    0  0.00000000000E+00 -0.00000000000E+00 -0.46873106667E+00  0.46873800290E+00  0.25500000000E-02 0. -1.
         31    1    1    2    0    0  0.16103897330E+00 -0.11814979387E+00  0.57262208895E+02  0.57744778002E+02  0.74470750000E+01 0.  1.
        -31    1    1    2    0    0 -0.16103897330E+00  0.11814979387E+00  0.60773671367E+02  0.61228571357E+02  0.74470750000E+01 0.  1.
<mgrwt>
<rscale>  0 0.14906000E+02</rscale>
<asrwt>0</asrwt>
<pdfrwt beam="2">  1        2 0.99549641E+00 0.14906000E+02</pdfrwt>
<pdfrwt beam="1">  1       -2 0.98375489E+00 0.14906000E+02</pdfrwt>
<totfact> 0.63366534E-13</totfact>
</mgrwt>
</event>
<event>
 4    1 -0.5119137E-019  0.1491168E+02  0.7818608E-02  0.1870776E+00
          2   -1    0    0  501    0  0.00000000000E+00  0.00000000000E+00  0.11852548593E+03  0.11852548596E+03  0.25500000000E-02 0. -1.
         -2   -1    0    0    0  501 -0.00000000000E+00 -0.00000000000E+00 -0.46900595311E+00  0.46901288528E+00  0.25500000000E-02 0.  1.
         31    1    1    2    0    0 -0.18075551451E+00  0.25094934544E+00  0.57535362261E+02  0.58016139864E+02  0.74470750000E+01 0.  1.
        -31    1    1    2    0    0  0.18075551451E+00 -0.25094934544E+00  0.60521117715E+02  0.60978358978E+02  0.74470750000E+01 0.  1.
<mgrwt>
<rscale>  0 0.14911683E+02</rscale>
<asrwt>0</asrwt>
<pdfrwt beam="1">  1        2 0.98392977E+00 0.14911683E+02</pdfrwt>
<pdfrwt beam="2">  1       -2 0.99607860E+00 0.14911683E+02</pdfrwt>
<totfact>-0.38524715E-13</totfact>
</mgrwt>
</event>
<event>
 4    1 -0.5119137E-019  0.1502724E+02  0.7818608E-02  0.1867238E+00
         -2   -1    0    0    0  501 -0.00000000000E+00  0.00000000000E+00  0.12032168092E+03  0.12032168094E+03  0.25500000000E-02 0.  1.
          2   -1    0    0  501    0  0.00000000000E+00 -0.00000000000E+00 -0.46919279736E+00  0.46919972676E+00  0.25500000000E-02 0. -1.
         31    1    1    2    0    0  0.50664363255E+00  0.78001510533E+00  0.57023057372E+02  0.57514807741E+02  0.74470750000E+01 0. -1.
        -31    1    1    2    0    0 -0.50664363255E+00 -0.78001510533E+00  0.62829430748E+02  0.63276072930E+02  0.74470750000E+01 0.  1.
<mgrwt>
<rscale>  0 0.15027240E+02</rscale>
<asrwt>0</asrwt>
<pdfrwt beam="2">  1        2 0.99653250E+00 0.15027240E+02</pdfrwt>
<pdfrwt beam="1">  1       -2 0.99878351E+00 0.15027240E+02</pdfrwt>
<totfact>-0.37605473E-14</totfact>
</mgrwt>
</event>
<event>
 4    1 -0.5119137E-019  0.1495554E+02  0.7818608E-02  0.1869428E+00
          2   -1    0    0  501    0  0.00000000000E+00  0.00000000000E+00  0.11965685146E+03  0.11965685148E+03  0.25500000000E-02 0.  1.
         -2   -1    0    0    0  501 -0.00000000000E+00 -0.00000000000E+00 -0.46730786526E+00  0.46731482262E+00  0.25500000000E-02 0. -1.
         31    1    1    2    0    0 -0.38211104340E+00 -0.23379481391E+00  0.63669917729E+02  0.64105522527E+02  0.74470750000E+01 0.  1.
        -31    1    1    2    0    0  0.38211104340E+00  0.23379481391E+00  0.55519625863E+02  0.56018643779E+02  0.74470750000E+01 0. -1.
<mgrwt>
<rscale>  0 0.14955535E+02</rscale>
<asrwt>0</asrwt>
<pdfrwt beam="1">  1        2 0.99327065E+00 0.14955535E+02</pdfrwt>
<pdfrwt beam="2">  1       -2 0.99252325E+00 0.14955535E+02</pdfrwt>
<totfact>-0.10790488E-13</totfact>
</mgrwt>
</event>
<event>
 4    1  0.5119137E-019  0.1493254E+02  0.7818608E-02  0.1870134E+00
          2   -1    0    0  501    0  0.00000000000E+00  0.00000000000E+00  0.11981354198E+03  0.11981354200E+03  0.25500000000E-02 0. -1.
         -2   -1    0    0    0  501 -0.00000000000E+00 -0.00000000000E+00 -0.46526295120E+00  0.46526993913E+00  0.25500000000E-02 0.  1.
         31    1    1    2    0    0  0.35167574132E-01  0.37429307223E+00  0.56607319937E+02  0.57096312741E+02  0.74470750000E+01 0.  1.
        -31    1    1    2    0    0 -0.35167574132E-01 -0.37429307223E+00  0.62740959089E+02  0.63182499203E+02  0.74470750000E+01 0. -1.
<mgrwt>
<rscale>  0 0.14932545E+02</rscale>
<asrwt>0</asrwt>
<pdfrwt beam="1">  1        2 0.99454937E+00 0.14932545E+02</pdfrwt>
<pdfrwt beam="2">  1       -2 0.98820192E+00 0.14932545E+02</pdfrwt>
<totfact> 0.14013440E-13</totfact>
</mgrwt>
</event>
<event>
 4    1  0.5119137E-019  0.1494133E+02  0.7818608E-02  0.1869864E+00
          2   -1    0    0  501    0  0.00000000000E+00  0.00000000000E+00  0.12034268434E+03  0.12034268436E+03  0.25500000000E-02 0. -1.
         -2   -1    0    0    0  501 -0.00000000000E+00 -0.00000000000E+00 -0.46376241983E+00  0.46376943037E+00  0.25500000000E-02 0.  1.
         31    1    1    2    0    0 -0.56180064259E+00  0.18993222112E+00  0.59819720355E+02  0.60284405642E+02  0.74470750000E+01 0.  1.
        -31    1    1    2    0    0  0.56180064259E+00 -0.18993222112E+00  0.60059201560E+02  0.60522048150E+02  0.74470750000E+01 0. -1.
<mgrwt>
<rscale>  0 0.14941331E+02</rscale>
<asrwt>0</asrwt>
<pdfrwt beam="1">  1        2 0.99891228E+00 0.14941331E+02</pdfrwt>
<pdfrwt beam="2">  1       -2 0.98504388E+00 0.14941331E+02</pdfrwt>
<totfact> 0.15824302E-13</totfact>
</mgrwt>
</event>
<event>
 4    1  0.5119137E-019  0.1490033E+02  0.7818608E-02  0.1871125E+00
         -2   -1    0    0    0  501 -0.00000000000E+00  0.00000000000E+00  0.11873615382E+03  0.11873615385E+03  0.25500000000E-02 0.  1.
          2   -1    0    0  501    0  0.00000000000E+00 -0.00000000000E+00 -0.46746149110E+00  0.46746844616E+00  0.25500000000E-02 0. -1.
         31    1    1    2    0    0  0.30272662645E-01  0.36260658982E-01  0.57459324044E+02  0.57939926449E+02  0.74470750000E+01 0. -1.
        -31    1    1    2    0    0 -0.30272662645E-01 -0.36260658982E-01  0.60809368290E+02  0.61263695849E+02  0.74470750000E+01 0.  1.
<mgrwt>
<rscale>  0 0.14900335E+02</rscale>
<asrwt>0</asrwt>
<pdfrwt beam="2">  1        2 0.99281831E+00 0.14900335E+02</pdfrwt>
<pdfrwt beam="1">  1       -2 0.98565895E+00 0.14900335E+02</pdfrwt>
<totfact> 0.47660031E-13</totfact>
</mgrwt>
</event>
<event>
 4    1 -0.5119137E-019  0.1492586E+02  0.7818608E-02  0.1870339E+00
         -2   -1    0    0    0  501 -0.00000000000E+00  0.00000000000E+00  0.12046080678E+03  0.12046080681E+03  0.25500000000E-02 0.  1.
          2   -1    0    0  501    0  0.00000000000E+00 -0.00000000000E+00 -0.46234887058E+00  0.46235590255E+00  0.25500000000E-02 0. -1.
         31    1    1    2    0    0  0.83034483691E-01 -0.46921216236E+00  0.59215259697E+02  0.59683607145E+02  0.74470750000E+01 0.  1.
        -31    1    1    2    0    0 -0.83034483691E-01  0.46921216236E+00  0.60783198213E+02  0.61239555566E+02  0.74470750000E+01 0.  1.
<mgrwt>
<rscale>  0 0.14925863E+02</rscale>
<asrwt>0</asrwt>
<pdfrwt beam="2">  1        2 0.98205669E+00 0.14925863E+02</pdfrwt>
<pdfrwt beam="1">  1       -2 0.99987731E+00 0.14925863E+02</pdfrwt>
<totfact>-0.24231046E-14</totfact>
</mgrwt>
</event>
<event>
 4    1 -0.5119137E-019  0.1492844E+02  0.7818608E-02  0.1870260E+00
         -2   -1    0    0    0  501 -0.00000000000E+00  0.00000000000E+00  0.12032726809E+03  0.12032726812E+03  0.25500000000E-02 0. -1.
          2   -1    0    0  501    0  0.00000000000E+00 -0.00000000000E+00 -0.46302159608E+00  0.46302861784E+00  0.25500000000E-02 0.  1.
         31    1    1    2    0    0 -0.37665323547E-01  0.35005503301E+00  0.56996131339E+02  0.57481665520E+02  0.74470750000E+01 0. -1.
        -31    1    1    2    0    0  0.37665323547E-01 -0.35005503301E+00  0.62868115156E+02  0.63308631216E+02  0.74470750000E+01 0. -1.
<mgrwt>
<rscale>  0 0.14928436E+02</rscale>
<asrwt>0</asrwt>
<pdfrwt beam="2">  1        2 0.98347592E+00 0.14928436E+02</pdfrwt>
<pdfrwt beam="1">  1       -2 0.99877869E+00 0.14928436E+02</pdfrwt>
<totfact>-0.17413877E-13</totfact>
</mgrwt>
</event>
<event>
 4    1 -0.5119137E-019  0.1493502E+02  0.7818608E-02  0.1870058E+00
          2   -1    0    0  501    0  0.00000000000E+00  0.00000000000E+00  0.11865326664E+03  0.11865326666E+03  0.25500000000E-02 0.  1.
         -2   -1    0    0    0  501 -0.00000000000E+00 -0.00000000000E+00 -0.46996820899E+00  0.46997512696E+00  0.25500000000E-02 0. -1.
         31    1    1    2    0    0  0.19380181511E+00  0.45605055656E+00  0.57150822334E+02  0.57636108133E+02  0.74470750000E+01 0. -1.
        -31    1    1    2    0    0 -0.19380181511E+00 -0.45605055656E+00  0.61032476094E+02  0.61487133658E+02  0.74470750000E+01 0.  1.
<mgrwt>
<rscale>  0 0.14935016E+02</rscale>
<asrwt>0</asrwt>
<pdfrwt beam="1">  1        2 0.98499431E+00 0.14935016E+02</pdfrwt>
<pdfrwt beam="2">  1       -2 0.99811839E+00 0.14935016E+02</pdfrwt>
<totfact>-0.19649603E-13</totfact>
</mgrwt>
</event>
<event>
 4    1 -0.5119137E-019  0.1501158E+02  0.7818608E-02  0.1867715E+00
         -2   -1    0    0    0  501 -0.00000000000E+00  0.00000000000E+00  0.12000383419E+03  0.12000383422E+03  0.25500000000E-02 0. -1.
          2   -1    0    0  501    0  0.00000000000E+00 -0.00000000000E+00 -0.46945568220E+00  0.46946260773E+00  0.25500000000E-02 0.  1.
         31    1    1    2    0    0  0.21618017998E-01 -0.93342127648E+00  0.59133644632E+02  0.59608041371E+02  0.74470750000E+01 0. -1.
        -31    1    1    2    0    0 -0.21618017998E-01  0.93342127648E+00  0.60400733877E+02  0.60865255455E+02  0.74470750000E+01 0.  1.
<mgrwt>
<rscale>  0 0.15011582E+02</rscale>
<asrwt>0</asrwt>
<pdfrwt beam="2">  1        2 0.99707841E+00 0.15011582E+02</pdfrwt>
<pdfrwt beam="1">  1       -2 0.99615751E+00 0.15011582E+02</pdfrwt>
<totfact>-0.79719513E-14</totfact>
</mgrwt>
</event>
<event>
 4    1  0.5119137E-019  0.1495101E+02  0.7818608E-02  0.1869567E+00
          2   -1    0    0  501    0  0.00000000000E+00  0.00000000000E+00  0.11992849608E+03  0.11992849611E+03  0.25500000000E-02 0. -1.
         -2   -1    0    0    0  501 -0.00000000000E+00 -0.00000000000E+00 -0.46596716172E+00  0.46597413909E+00  0.25500000000E-02 0.  1.
         31    1    1    2    0    0  0.62015211766E+00 -0.17486589192E+00  0.58964371522E+02  0.59436278499E+02  0.74470750000E+01 0. -1.
        -31    1    1    2    0    0 -0.62015211766E+00  0.17486589192E+00  0.60498157394E+02  0.60958191745E+02  0.74470750000E+01 0.  1.
<mgrwt>
<rscale>  0 0.14951008E+02</rscale>
<asrwt>0</asrwt>
<pdfrwt beam="1">  1        2 0.99550572E+00 0.14951008E+02</pdfrwt>
<pdfrwt beam="2">  1       -2 0.98969549E+00 0.14951008E+02</pdfrwt>
<totfact> 0.24927046E-14</totfact>
</mgrwt>
</event>
<event>
 4    1 -0.5119137E-019  0.1492219E+02  0.7818608E-02  0.1870452E+00
          2   -1    0    0  501    0  0.00000000000E+00  0.00000000000E+00  0.11839929911E+03  0.11839929914E+03  0.25500000000E-02 0. -1.
         -2   -1    0    0    0  501 -0.00000000000E+00 -0.00000000000E+00 -0.47016758315E+00  0.47017449818E+00  0.25500000000E-02 0.  1.
         31    1    1    2    0    0 -0.12154654107E+00 -0.43984930807E+00  0.59183869161E+02  0.59652305370E+02  0.74470750000E+01 0. -1.
        -31    1    1    2    0    0  0.12154654107E+00  0.43984930807E+00  0.58745262370E+02  0.59217168270E+02  0.74470750000E+01 0.  1.
<mgrwt>
<rscale>  0 0.14922188E+02</rscale>
<asrwt>0</asrwt>
<pdfrwt beam="1">  1        2 0.98289598E+00 0.14922188E+02</pdfrwt>
<pdfrwt beam="2">  1       -2 0.99853169E+00 0.14922188E+02</pdfrwt>
<totfact>-0.22595157E-13</totfact>
</mgrwt>
</event>
<event>
 4    1 -0.5119137E-019  0.1497649E+02  0.7818608E-02  0.1868787E+00
          2   -1    0    0  501    0  0.00000000000E+00  0.00000000000E+00  0.12000817036E+03  0.12000817039E+03  0.25500000000E-02 0.  1.
         -2   -1    0    0    0  501 -0.00000000000E+00 -0.00000000000E+00 -0.46724654563E+00  0.46725350389E+00  0.25500000000E-02 0. -1.
         31    1    1    2    0    0  0.13571404120E+00 -0.22023172783E+00  0.65725296846E+02  0.66146356603E+02  0.74470750000E+01 0.  1.
        -31    1    1    2    0    0 -0.13571404120E+00  0.22023172783E+00  0.53815626968E+02  0.54329067287E+02  0.74470750000E+01 0. -1.
<mgrwt>
<rscale>  0 0.14976491E+02</rscale>
<asrwt>0</asrwt>
<pdfrwt beam="1">  1        2 0.99617510E+00 0.14976491E+02</pdfrwt>
<pdfrwt beam="2">  1       -2 0.99240482E+00 0.14976491E+02</pdfrwt>
<totfact>-0.77733695E-14</totfact>
</mgrwt>
</event>
<event>
 4    1 -0.5119137E-019  0.1500338E+02  0.7818608E-02  0.1867965E+00
          2   -1    0    0  501    0  0.00000000000E+00  0.00000000000E+00  0.12024991471E+03  0.12024991474E+03  0.25500000000E-02 0. -1.
         -2   -1    0    0    0  501 -0.00000000000E+00 -0.00000000000E+00 -0.46798337772E+00  0.46799032503E+00  0.25500000000E-02 0.  1.
         31    1    1    2    0    0  0.10026430768E+00  0.44629546797E+00  0.53621120942E+02  0.54137720396E+02  0.74470750000E+01 0.  1.
        -31    1    1    2    0    0 -0.10026430768E+00 -0.44629546797E+00  0.66160810395E+02  0.66580184671E+02  0.74470750000E+01 0. -1.
<mgrwt>
<rscale>  0 0.15003384E+02</rscale>
<asrwt>0</asrwt>
<pdfrwt beam="1">  1        2 0.99818010E+00 0.15003384E+02</pdfrwt>
<pdfrwt beam="2">  1       -2 0.99397147E+00 0.15003384E+02</pdfrwt>
<totfact>-0.59376654E-14</totfact>
</mgrwt>
</event>
<event>
 4    1 -0.5119137E-019  0.1500592E+02  0.7818608E-02  0.1867888E+00
         -2   -1    0    0    0  501 -0.00000000000E+00  0.00000000000E+00  0.12013695355E+03  0.12013695357E+03  0.25500000000E-02 0. -1.
          2   -1    0    0  501    0  0.00000000000E+00 -0.00000000000E+00 -0.46858180194E+00  0.46858874038E+00  0.25500000000E-02 0.  1.
         31    1    1    2    0    0 -0.48200134307E+00  0.69941184238E+00  0.62547641019E+02  0.62995141283E+02  0.74470750000E+01 0.  1.
        -31    1    1    2    0    0  0.48200134307E+00 -0.69941184238E+00  0.57120730725E+02  0.57610401030E+02  0.74470750000E+01 0.  1.
<mgrwt>
<rscale>  0 0.15005920E+02</rscale>
<asrwt>0</asrwt>
<pdfrwt beam="2">  1        2 0.99523391E+00 0.15005920E+02</pdfrwt>
<pdfrwt beam="1">  1       -2 0.99725101E+00 0.15005920E+02</pdfrwt>
<totfact>-0.87904483E-14</totfact>
</mgrwt>
</event>
<event>
 4    1  0.5119137E-019  0.1492874E+02  0.7818608E-02  0.1870251E+00
         -2   -1    0    0    0  501 -0.00000000000E+00  0.00000000000E+00  0.11867232206E+03  0.11867232209E+03  0.25500000000E-02 0. -1.
          2   -1    0    0  501    0  0.00000000000E+00 -0.00000000000E+00 -0.46949771549E+00  0.46950464039E+00  0.25500000000E-02 0.  1.
         31    1    1    2    0    0 -0.31616143658E+00 -0.32543431975E-02  0.62272710772E+02  0.62717217744E+02  0.74470750000E+01 0. -1.
        -31    1    1    2    0    0  0.31616143658E+00  0.32543431975E-02  0.55930113574E+02  0.56424608985E+02  0.74470750000E+01 0. -1.
<mgrwt>
<rscale>  0 0.14928737E+02</rscale>
<asrwt>0</asrwt>
<pdfrwt beam="2">  1        2 0.99712374E+00 0.14928737E+02</pdfrwt>
<pdfrwt beam="1">  1       -2 0.98514798E+00 0.14928737E+02</pdfrwt>
<totfact> 0.33338639E-13</totfact>
</mgrwt>
</event>
<event>
 4    1 -0.5119137E-019  0.1492687E+02  0.7818608E-02  0.1870308E+00
         -2   -1    0    0    0  501 -0.00000000000E+00  0.00000000000E+00  0.12035551324E+03  0.12035551326E+03  0.25500000000E-02 0. -1.
          2   -1    0    0  501    0  0.00000000000E+00 -0.00000000000E+00 -0.46281577208E+00  0.46282279696E+00  0.25500000000E-02 0.  1.
         31    1    1    2    0    0  0.12168865973E+00 -0.34339599316E+00  0.57247254443E+02  0.57730752604E+02  0.74470750000E+01 0.  1.
        -31    1    1    2    0    0 -0.12168865973E+00  0.34339599316E+00  0.62645443023E+02  0.63087583457E+02  0.74470750000E+01 0.  1.
<mgrwt>
<rscale>  0 0.14926869E+02</rscale>
<asrwt>0</asrwt>
<pdfrwt beam="2">  1        2 0.98304131E+00 0.14926869E+02</pdfrwt>
<pdfrwt beam="1">  1       -2 0.99901053E+00 0.14926869E+02</pdfrwt>
<totfact>-0.15479610E-13</totfact>
</mgrwt>
</event>
<event>
 4    1  0.5119137E-019  0.1492499E+02  0.7818608E-02  0.1870366E+00
         -2   -1    0    0    0  501 -0.00000000000E+00  0.00000000000E+00  0.11837654150E+03  0.11837654153E+03  0.25500000000E-02 0. -1.
          2   -1    0    0  501    0  0.00000000000E+00 -0.00000000000E+00 -0.47043462844E+00  0.47044153955E+00  0.25500000000E-02 0.  1.
         31    1    1    2    0    0 -0.14353281498E+00  0.35627656183E+00  0.61238516586E+02  0.61690861352E+02  0.74470750000E+01 0. -1.
        -31    1    1    2    0    0  0.14353281498E+00 -0.35627656183E+00  0.56667590283E+02  0.57156121713E+02  0.74470750000E+01 0.  1.
<mgrwt>
<rscale>  0 0.14924991E+02</rscale>
<asrwt>0</asrwt>
<pdfrwt beam="2">  1        2 0.99909582E+00 0.14924991E+02</pdfrwt>
<pdfrwt beam="1">  1       -2 0.98271001E+00 0.14924991E+02</pdfrwt>
<totfact> 0.23773775E-13</totfact>
</mgrwt>
</event>
<event>
 4    1  0.5119137E-019  0.1491184E+02  0.7818608E-02  0.1870771E+00
          2   -1    0    0  501    0  0.00000000000E+00  0.00000000000E+00  0.11989355968E+03  0.11989355971E+03  0.25500000000E-02 0.  1.
         -2   -1    0    0    0  501 -0.00000000000E+00 -0.00000000000E+00 -0.46366364219E+00  0.46367065422E+00  0.25500000000E-02 0. -1.
         31    1    1    2    0    0  0.28879298637E+00  0.16908518698E+00  0.60850413767E+02  0.61305332336E+02  0.74470750000E+01 0.  1.
        -31    1    1    2    0    0 -0.28879298637E+00 -0.16908518698E+00  0.58579482269E+02  0.59051898024E+02  0.74470750000E+01 0.  1.
<mgrwt>
<rscale>  0 0.14911835E+02</rscale>
<asrwt>0</asrwt>
<pdfrwt beam="1">  1        2 0.99519779E+00 0.14911835E+02</pdfrwt>
<pdfrwt beam="2">  1       -2 0.98482072E+00 0.14911835E+02</pdfrwt>
<totfact> 0.49905845E-13</totfact>
</mgrwt>
</event>
<event>
 4    1  0.5119137E-019  0.1493602E+02  0.7818608E-02  0.1870027E+00
         -2   -1    0    0    0  501 -0.00000000000E+00  0.00000000000E+00  0.11894273579E+03  0.11894273582E+03  0.25500000000E-02 0. -1.
          2   -1    0    0  501    0  0.00000000000E+00 -0.00000000000E+00 -0.46888736700E+00  0.46889430092E+00  0.25500000000E-02 0.  1.
         31    1    1    2    0    0 -0.18143444858E+00  0.32025733044E-02  0.55011670944E+02  0.55513744198E+02  0.74470750000E+01 0.  1.
        -31    1    1    2    0    0  0.18143444858E+00 -0.32025733044E-02  0.63462177482E+02  0.63897885924E+02  0.74470750000E+01 0. -1.
<mgrwt>
<rscale>  0 0.14936018E+02</rscale>
<asrwt>0</asrwt>
<pdfrwt beam="2">  1        2 0.99584150E+00 0.14936018E+02</pdfrwt>
<pdfrwt beam="1">  1       -2 0.98737891E+00 0.14936018E+02</pdfrwt>
<totfact> 0.18828847E-13</totfact>
</mgrwt>
</event>
<event>
 4    1 -0.5119137E-019  0.1497994E+02  0.7818608E-02  0.1868681E+00
          2   -1    0    0  501    0  0.00000000000E+00  0.00000000000E+00  0.11966654692E+03  0.11966654695E+03  0.25500000000E-02 0.  1.
         -2   -1    0    0    0  501 -0.00000000000E+00 -0.00000000000E+00 -0.46879619704E+00  0.46880313231E+00  0.25500000000E-02 0. -1.
         31    1    1    2    0    0 -0.70009042523E+00 -0.29142563327E+00  0.61653853229E+02  0.62106614781E+02  0.74470750000E+01 0. -1.
        -31    1    1    2    0    0  0.70009042523E+00  0.29142563327E+00  0.57543897495E+02  0.58028735299E+02  0.74470750000E+01 0. -1.
<mgrwt>
<rscale>  0 0.14979939E+02</rscale>
<asrwt>0</asrwt>
<pdfrwt beam="1">  1        2 0.99336313E+00 0.14979939E+02</pdfrwt>
<pdfrwt beam="2">  1       -2 0.99567228E+00 0.14979939E+02</pdfrwt>
<totfact>-0.13269414E-13</totfact>
</mgrwt>
</event>
<event>
 4    1 -0.5119137E-019  0.1495540E+02  0.7818608E-02  0.1869433E+00
         -2   -1    0    0    0  501 -0.00000000000E+00  0.00000000000E+00  0.12000311631E+03  0.12000311633E+03  0.25500000000E-02 0.  1.
          2   -1    0    0  501    0  0.00000000000E+00 -0.00000000000E+00 -0.46595109456E+00  0.46595807217E+00  0.25500000000E-02 0. -1.
         31    1    1    2    0    0 -0.30731670478E+00  0.60195673715E+00  0.59632883283E+02  0.60099887606E+02  0.74470750000E+01 0.  1.
        -31    1    1    2    0    0  0.30731670478E+00 -0.60195673715E+00  0.59904281928E+02  0.60369186799E+02  0.74470750000E+01 0. -1.
<mgrwt>
<rscale>  0 0.14955401E+02</rscale>
<asrwt>0</asrwt>
<pdfrwt beam="2">  1        2 0.98966388E+00 0.14955401E+02</pdfrwt>
<pdfrwt beam="1">  1       -2 0.99612260E+00 0.14955401E+02</pdfrwt>
<totfact>-0.17081765E-13</totfact>
</mgrwt>
</event>
<event>
 4    1 -0.5119137E-019  0.1490348E+02  0.7818608E-02  0.1871028E+00
         -2   -1    0    0    0  501 -0.00000000000E+00  0.00000000000E+00  0.12022990203E+03  0.12022990205E+03  0.25500000000E-02 0. -1.
          2   -1    0    0  501    0  0.00000000000E+00 -0.00000000000E+00 -0.46184868103E+00  0.46185572062E+00  0.25500000000E-02 0.  1.
         31    1    1    2    0    0  0.43790306440E-01 -0.26000852880E+00  0.59882566005E+02  0.60344429399E+02  0.74470750000E+01 0. -1.
        -31    1    1    2    0    0 -0.43790306440E-01  0.26000852880E+00  0.59885487341E+02  0.60347328377E+02  0.74470750000E+01 0.  1.
<mgrwt>
<rscale>  0 0.14903483E+02</rscale>
<asrwt>0</asrwt>
<pdfrwt beam="2">  1        2 0.98099113E+00 0.14903483E+02</pdfrwt>
<pdfrwt beam="1">  1       -2 0.99796390E+00 0.14903483E+02</pdfrwt>
<totfact>-0.40952936E-13</totfact>
</mgrwt>
</event>
<event>
 4    1 -0.5119137E-019  0.1492637E+02  0.7818608E-02  0.1870324E+00
          2   -1    0    0  501    0  0.00000000000E+00  0.00000000000E+00  0.11863820317E+03  0.11863820320E+03  0.25500000000E-02 0.  1.
         -2   -1    0    0    0  501 -0.00000000000E+00 -0.00000000000E+00 -0.46948389490E+00  0.46949082000E+00  0.25500000000E-02 0. -1.
         31    1    1    2    0    0  0.21045275797E+00 -0.29384190027E+00  0.56442852612E+02  0.56933164065E+02  0.74470750000E+01 0.  1.
        -31    1    1    2    0    0 -0.21045275797E+00  0.29384190027E+00  0.61725866663E+02  0.62174529952E+02  0.74470750000E+01 0.  1.
<mgrwt>
<rscale>  0 0.14926371E+02</rscale>
<asrwt>0</asrwt>
<pdfrwt beam="1">  1        2 0.98486575E+00 0.14926371E+02</pdfrwt>
<pdfrwt beam="2">  1       -2 0.99709337E+00 0.14926371E+02</pdfrwt>
<totfact>-0.27832233E-13</totfact>
</mgrwt>
</event>
<event>
 4    1 -0.5119137E-019  0.1500421E+02  0.7818608E-02  0.1867940E+00
         -2   -1    0    0    0  501 -0.00000000000E+00  0.00000000000E+00  0.11990731614E+03  0.11990731617E+03  0.25500000000E-02 0. -1.
          2   -1    0    0  501    0  0.00000000000E+00 -0.00000000000E+00 -0.46937210155E+00  0.46937902831E+00  0.25500000000E-02 0.  1.
         31    1    1    2    0    0 -0.63327047718E+00 -0.15359377581E+00  0.64780494639E+02  0.65210398207E+02  0.74470750000E+01 0. -1.
        -31    1    1    2    0    0  0.63327047718E+00  0.15359377581E+00  0.54657449403E+02  0.55166296992E+02  0.74470750000E+01 0.  1.
<mgrwt>
<rscale>  0 0.15004208E+02</rscale>
<asrwt>0</asrwt>
<pdfrwt beam="2">  1        2 0.99689846E+00 0.15004208E+02</pdfrwt>
<pdfrwt beam="1">  1       -2 0.99535874E+00 0.15004208E+02</pdfrwt>
<totfact>-0.88869375E-14</totfact>
</mgrwt>
</event>
<event>
 4    1 -0.5119137E-019  0.1492000E+02  0.7818608E-02  0.1870520E+00
          2   -1    0    0  501    0  0.00000000000E+00  0.00000000000E+00  0.11877162150E+03  0.11877162153E+03  0.25500000000E-02 0. -1.
         -2   -1    0    0    0  501 -0.00000000000E+00 -0.00000000000E+00 -0.46855635141E+00  0.46856329022E+00  0.25500000000E-02 0.  1.
         31    1    1    2    0    0 -0.21591217379E+00  0.22512038733E+00  0.61619869033E+02  0.62069029982E+02  0.74470750000E+01 0.  1.
        -31    1    1    2    0    0  0.21591217379E+00 -0.22512038733E+00  0.56683196115E+02  0.57171154834E+02  0.74470750000E+01 0.  1.
<mgrwt>
<rscale>  0 0.14920002E+02</rscale>
<asrwt>0</asrwt>
<pdfrwt beam="1">  1        2 0.98596128E+00 0.14920002E+02</pdfrwt>
<pdfrwt beam="2">  1       -2 0.99513562E+00 0.14920002E+02</pdfrwt>
<totfact>-0.29702620E-13</totfact>
</mgrwt>
</event>
<event>
 4    1 -0.5119137E-019  0.1494739E+02  0.7818608E-02  0.1869678E+00
          2   -1    0    0  501    0  0.00000000000E+00  0.00000000000E+00  0.11919966821E+03  0.11919966823E+03  0.25500000000E-02 0. -1.
         -2   -1    0    0    0  501 -0.00000000000E+00 -0.00000000000E+00 -0.46858920014E+00  0.46859613847E+00  0.25500000000E-02 0.  1.
         31    1    1    2    0    0  0.58236113544E-01  0.62700012865E+00  0.59161850995E+02  0.59632038870E+02  0.74470750000E+01 0.  1.
        -31    1    1    2    0    0 -0.58236113544E-01 -0.62700012865E+00  0.59569228010E+02  0.60036225501E+02  0.74470750000E+01 0.  1.
<mgrwt>
<rscale>  0 0.14947387E+02</rscale>
<asrwt>0</asrwt>
<pdfrwt beam="1">  1        2 0.98950094E+00 0.14947387E+02</pdfrwt>
<pdfrwt beam="2">  1       -2 0.99521916E+00 0.14947387E+02</pdfrwt>
<totfact>-0.18638501E-13</totfact>
</mgrwt>
</event>
<event>
 4    1  0.5119137E-019  0.1490800E+02  0.7818608E-02  0.1870889E+00
          2   -1    0    0  501    0  0.00000000000E+00  0.00000000000E+00  0.11963251271E+03  0.11963251274E+03  0.25500000000E-02 0.  1.
         -2   -1    0    0    0  501 -0.00000000000E+00 -0.00000000000E+00 -0.46443620460E+00  0.46444320497E+00  0.25500000000E-02 0. -1.
         31    1    1    2    0    0 -0.14606914619E+00 -0.24375304496E+00  0.60790117191E+02  0.61245228597E+02  0.74470750000E+01 0.  1.
        -31    1    1    2    0    0  0.14606914619E+00  0.24375304496E+00  0.58377959314E+02  0.58851727344E+02  0.74470750000E+01 0. -1.
<mgrwt>
<rscale>  0 0.14907997E+02</rscale>
<asrwt>0</asrwt>
<pdfrwt beam="1">  1        2 0.99304566E+00 0.14907997E+02</pdfrwt>
<pdfrwt beam="2">  1       -2 0.98644698E+00 0.14907997E+02</pdfrwt>
<totfact> 0.35895674E-13</totfact>
</mgrwt>
</event>
<event>
 4    1 -0.5119137E-019  0.1491256E+02  0.7818608E-02  0.1870749E+00
          2   -1    0    0  501    0  0.00000000000E+00  0.00000000000E+00  0.11855882317E+03  0.11855882320E+03  0.25500000000E-02 0.  1.
         -2   -1    0    0    0  501 -0.00000000000E+00 -0.00000000000E+00 -0.46892926397E+00  0.46893619726E+00  0.25500000000E-02 0. -1.
         31    1    1    2    0    0 -0.25925342365E+00  0.21266868281E+00  0.60300629877E+02  0.60759668612E+02  0.74470750000E+01 0.  1.
        -31    1    1    2    0    0  0.25925342365E+00 -0.21266868281E+00  0.57789264031E+02  0.58268090784E+02  0.74470750000E+01 0. -1.
<mgrwt>
<rscale>  0 0.14912561E+02</rscale>
<asrwt>0</asrwt>
<pdfrwt beam="1">  1        2 0.98420479E+00 0.14912561E+02</pdfrwt>
<pdfrwt beam="2">  1       -2 0.99591747E+00 0.14912561E+02</pdfrwt>
<totfact>-0.37439294E-13</totfact>
</mgrwt>
</event>
<event>
 4    1 -0.5119137E-019  0.1491179E+02  0.7818608E-02  0.1870772E+00
         -2   -1    0    0    0  501 -0.00000000000E+00  0.00000000000E+00  0.11969890913E+03  0.11969890916E+03  0.25500000000E-02 0. -1.
          2   -1    0    0  501    0  0.00000000000E+00 -0.00000000000E+00 -0.46441474187E+00  0.46442174257E+00  0.25500000000E-02 0.  1.
         31    1    1    2    0    0  0.13698777148E+00  0.11954058423E+00  0.57089739506E+02  0.57573694848E+02  0.74470750000E+01 0.  1.
        -31    1    1    2    0    0 -0.13698777148E+00 -0.11954058423E+00  0.62144754885E+02  0.62589636054E+02  0.74470750000E+01 0. -1.
<mgrwt>
<rscale>  0 0.14911789E+02</rscale>
<asrwt>0</asrwt>
<pdfrwt beam="2">  1        2 0.98640369E+00 0.14911789E+02</pdfrwt>
<pdfrwt beam="1">  1       -2 0.99359449E+00 0.14911789E+02</pdfrwt>
<totfact>-0.26343495E-13</totfact>
</mgrwt>
</event>
<event>
 4    1 -0.5119137E-019  0.1500071E+02  0.7818608E-02  0.1868047E+00
         -2   -1    0    0    0  501 -0.00000000000E+00  0.00000000000E+00  0.11989808549E+03  0.11989808552E+03  0.25500000000E-02 0. -1.
          2   -1    0    0  501    0  0.00000000000E+00 -0.00000000000E+00 -0.46918906590E+00  0.46919599536E+00  0.25500000000E-02 0.  1.
         31    1    1    2    0    0 -0.40471191149E+00 -0.57990175970E+00  0.64082140408E+02  0.64517282360E+02  0.74470750000E+01 0. -1.
        -31    1    1    2    0    0  0.40471191149E+00  0.57990175970E+00  0.55346756017E+02  0.55849999154E+02  0.74470750000E+01 0. -1.
<mgrwt>
<rscale>  0 0.15000705E+02</rscale>
<asrwt>0</asrwt>
<pdfrwt beam="2">  1        2 0.99651093E+00 0.15000705E+02</pdfrwt>
<pdfrwt beam="1">  1       -2 0.99528090E+00 0.15000705E+02</pdfrwt>
<totfact>-0.96253555E-14</totfact>
</mgrwt>
</event>
<event>
 4    1 -0.5119137E-019  0.1489776E+02  0.7818608E-02  0.1871205E+00
          2   -1    0    0  501    0  0.00000000000E+00  0.00000000000E+00  0.11808118926E+03  0.11808118929E+03  0.25500000000E-02 0. -1.
         -2   -1    0    0    0  501 -0.00000000000E+00 -0.00000000000E+00 -0.46989172585E+00  0.46989864494E+00  0.25500000000E-02 0.  1.
         31    1    1    2    0    0 -0.45666874892E-01  0.41167206782E-01  0.57596732605E+02  0.58076211249E+02  0.74470750000E+01 0.  1.
        -31    1    1    2    0    0  0.45666874892E-01 -0.41167206782E-01  0.60014564933E+02  0.60474876687E+02  0.74470750000E+01 0. -1.
<mgrwt>
<rscale>  0 0.14897756E+02</rscale>
<asrwt>0</asrwt>
<pdfrwt beam="1">  1        2 0.98026334E+00 0.14897756E+02</pdfrwt>
<pdfrwt beam="2">  1       -2 0.99793752E+00 0.14897756E+02</pdfrwt>
<totfact>-0.46684652E-13</totfact>
</mgrwt>
</event>
<event>
 4    1  0.5119137E-019  0.1490421E+02  0.7818608E-02  0.1871006E+00
         -2   -1    0    0    0  501 -0.00000000000E+00  0.00000000000E+00  0.11894661134E+03  0.11894661137E+03  0.25500000000E-02 0.  1.
          2   -1    0    0  501    0  0.00000000000E+00 -0.00000000000E+00 -0.46687730704E+00  0.46688427081E+00  0.25500000000E-02 0. -1.
         31    1    1    2    0    0  0.17906342386E+00  0.13767788987E-01  0.57584029558E+02  0.58063858289E+02  0.74470750000E+01 0.  1.
        -31    1    1    2    0    0 -0.17906342386E+00 -0.13767788987E-01  0.60895704476E+02  0.61349637350E+02  0.74470750000E+01 0.  1.
<mgrwt>
<rscale>  0 0.14904213E+02</rscale>
<asrwt>0</asrwt>
<pdfrwt beam="2">  1        2 0.99158934E+00 0.14904213E+02</pdfrwt>
<pdfrwt beam="1">  1       -2 0.98739433E+00 0.14904213E+02</pdfrwt>
<totfact> 0.27030097E-13</totfact>
</mgrwt>
</event>
<event>
 4    1 -0.5119137E-019  0.1490702E+02  0.7818608E-02  0.1870919E+00
         -2   -1    0    0    0  501 -0.00000000000E+00  0.00000000000E+00  0.11995614771E+03  0.11995614774E+03  0.25500000000E-02 0.  1.
          2   -1    0    0  501    0  0.00000000000E+00 -0.00000000000E+00 -0.46312265351E+00  0.46312967374E+00  0.25500000000E-02 0. -1.
         31    1    1    2    0    0 -0.59463478769E-01 -0.22669406877E+00  0.61381820273E+02  0.61832367836E+02  0.74470750000E+01 0.  1.
        -31    1    1    2    0    0  0.59463478769E-01  0.22669406877E+00  0.58111204787E+02  0.58586909578E+02  0.74470750000E+01 0.  1.
<mgrwt>
<rscale>  0 0.14907023E+02</rscale>
<asrwt>0</asrwt>
<pdfrwt beam="2">  1        2 0.98367808E+00 0.14907023E+02</pdfrwt>
<pdfrwt beam="1">  1       -2 0.99571084E+00 0.14907023E+02</pdfrwt>
<totfact>-0.41654472E-13</totfact>
</mgrwt>
</event>
<event>
 4    1 -0.5119137E-019  0.1501277E+02  0.7818608E-02  0.1867679E+00
         -2   -1    0    0    0  501 -0.00000000000E+00  0.00000000000E+00  0.12031048027E+03  0.12031048030E+03  0.25500000000E-02 0. -1.
          2   -1    0    0  501    0  0.00000000000E+00 -0.00000000000E+00 -0.46833324523E+00  0.46834018735E+00  0.25500000000E-02 0.  1.
         31    1    1    2    0    0 -0.30536768484E+00  0.19048946025E+00  0.66922398066E+02  0.67336437570E+02  0.74470750000E+01 0. -1.
        -31    1    1    2    0    0  0.30536768484E+00 -0.19048946025E+00  0.52919748963E+02  0.53442382919E+02  0.74470750000E+01 0.  1.
<mgrwt>
<rscale>  0 0.15012770E+02</rscale>
<asrwt>0</asrwt>
<pdfrwt beam="2">  1        2 0.99471362E+00 0.15012770E+02</pdfrwt>
<pdfrwt beam="1">  1       -2 0.99868379E+00 0.15012770E+02</pdfrwt>
<totfact>-0.51151018E-14</totfact>
</mgrwt>
</event>
<event>
 4    1 -0.5119137E-019  0.1491394E+02  0.7818608E-02  0.1870706E+00
         -2   -1    0    0    0  501 -0.00000000000E+00  0.00000000000E+00  0.12023451933E+03  0.12023451936E+03  0.25500000000E-02 0.  1.
          2   -1    0    0  501    0  0.00000000000E+00 -0.00000000000E+00 -0.46247902959E+00  0.46248605959E+00  0.25500000000E-02 0. -1.
         31    1    1    2    0    0 -0.57332134170E-01  0.13632277918E+00  0.57018199571E+02  0.57502659758E+02  0.74470750000E+01 0. -1.
        -31    1    1    2    0    0  0.57332134170E-01 -0.13632277918E+00  0.62753840733E+02  0.63194345662E+02  0.74470750000E+01 0.  1.
<mgrwt>
<rscale>  0 0.14913936E+02</rscale>
<asrwt>0</asrwt>
<pdfrwt beam="2">  1        2 0.98232502E+00 0.14913936E+02</pdfrwt>
<pdfrwt beam="1">  1       -2 0.99800729E+00 0.14913936E+02</pdfrwt>
<totfact>-0.32160679E-13</totfact>
</mgrwt>
</event>
<event>
 4    1 -0.5119137E-019  0.1495838E+02  0.7818608E-02  0.1869341E+00
         -2   -1    0    0    0  501 -0.00000000000E+00  0.00000000000E+00  0.11957017095E+03  0.11957017097E+03  0.25500000000E-02 0. -1.
          2   -1    0    0  501    0  0.00000000000E+00 -0.00000000000E+00 -0.46782442488E+00  0.46783137455E+00  0.25500000000E-02 0.  1.
         31    1    1    2    0    0 -0.92333452606E-01  0.53486542220E+00  0.56102070710E+02  0.56596783217E+02  0.74470750000E+01 0.  1.
        -31    1    1    2    0    0  0.92333452606E-01 -0.53486542220E+00  0.63000275812E+02  0.63441219132E+02  0.74470750000E+01 0. -1.
<mgrwt>
<rscale>  0 0.14958378E+02</rscale>
<asrwt>0</asrwt>
<pdfrwt beam="2">  1        2 0.99361329E+00 0.14958378E+02</pdfrwt>
<pdfrwt beam="1">  1       -2 0.99255819E+00 0.14958378E+02</pdfrwt>
<totfact>-0.10613404E-13</totfact>
</mgrwt>
</event>
<event>
 4    1  0.5119137E-019  0.1489869E+02  0.7818608E-02  0.1871176E+00
         -2   -1    0    0    0  501 -0.00000000000E+00  0.00000000000E+00  0.11815774404E+03  0.11815774407E+03  0.25500000000E-02 0.  1.
          2   -1    0    0  501    0  0.00000000000E+00 -0.00000000000E+00 -0.46964638759E+00  0.46965331030E+00  0.25500000000E-02 0. -1.
         31    1    1    2    0    0  0.76208401810E-01  0.54789973927E-01  0.57584243356E+02  0.58063868443E+02  0.74470750000E+01 0. -1.
        -31    1    1    2    0    0 -0.76208401810E-01 -0.54789973927E-01  0.60103854296E+02  0.60563528934E+02  0.74470750000E+01 0.  1.
<mgrwt>
<rscale>  0 0.14898694E+02</rscale>
<asrwt>0</asrwt>
<pdfrwt beam="2">  1        2 0.99742112E+00 0.14898694E+02</pdfrwt>
<pdfrwt beam="1">  1       -2 0.98089432E+00 0.14898694E+02</pdfrwt>
<totfact> 0.80410646E-13</totfact>
</mgrwt>
</event>
<event>
 4    1 -0.5119137E-019  0.1497677E+02  0.7818608E-02  0.1868778E+00
         -2   -1    0    0    0  501 -0.00000000000E+00  0.00000000000E+00  0.11935790749E+03  0.11935790752E+03  0.25500000000E-02 0. -1.
          2   -1    0    0  501    0  0.00000000000E+00 -0.00000000000E+00 -0.46980958439E+00  0.46981650469E+00  0.25500000000E-02 0.  1.
         31    1    1    2    0    0 -0.38702320363E+00 -0.40330429513E+00  0.55028753524E+02  0.55533189011E+02  0.74470750000E+01 0.  1.
        -31    1    1    2    0    0  0.38702320363E+00  0.40330429513E+00  0.63859344380E+02  0.64294535009E+02  0.74470750000E+01 0. -1.
<mgrwt>
<rscale>  0 0.14976769E+02</rscale>
<asrwt>0</asrwt>
<pdfrwt beam="2">  1        2 0.99780606E+00 0.14976769E+02</pdfrwt>
<pdfrwt beam="1">  1       -2 0.99081946E+00 0.14976769E+02</pdfrwt>
<totfact>-0.19861706E-14</totfact>
</mgrwt>
</event>
<event>
 4    1 -0.5119137E-019  0.1498580E+02  0.7818608E-02  0.1868502E+00
          2   -1    0    0  501    0  0.00000000000E+00  0.00000000000E+00  0.11942292180E+03  0.11942292183E+03  0.25500000000E-02 0. -1.
         -2   -1    0    0    0  501 -0.00000000000E+00 -0.00000000000E+00 -0.47012006397E+00  0.47012697970E+00  0.25500000000E-02 0.  1.
         31    1    1    2    0    0  0.11256414152E+00 -0.60008925332E+00  0.63943945713E+02  0.64379033056E+02  0.74470750000E+01 0. -1.
        -31    1    1    2    0    0 -0.11256414152E+00  0.60008925332E+00  0.55008856024E+02  0.55514015752E+02  0.74470750000E+01 0. -1.
<mgrwt>
<rscale>  0 0.14985797E+02</rscale>
<asrwt>0</asrwt>
<pdfrwt beam="1">  1        2 0.99135961E+00 0.14985797E+02</pdfrwt>
<pdfrwt beam="2">  1       -2 0.99846501E+00 0.14985797E+02</pdfrwt>
<totfact>-0.75716642E-14</totfact>
</mgrwt>
</event>
<event>
 4    1 -0.5119137E-019  0.1499893E+02  0.7818608E-02  0.1868101E+00
          2   -1    0    0  501    0  0.00000000000E+00  0.00000000000E+00  0.11962279161E+03  0.11962279164E+03  0.25500000000E-02 0.  1.
         -2   -1    0    0    0  501 -0.00000000000E+00 -0.00000000000E+00 -0.47015769148E+00  0.47016460666E+00  0.25500000000E-02 0. -1.
         31    1    1    2    0    0 -0.13014026962E-01 -0.78362152822E+00  0.62866253536E+02  0.63310654647E+02  0.74470750000E+01 0.  1.
        -31    1    1    2    0    0  0.13014026962E-01  0.78362152822E+00  0.56286380380E+02  0.56782301595E+02  0.74470750000E+01 0. -1.
<mgrwt>
<rscale>  0 0.14998932E+02</rscale>
<asrwt>0</asrwt>
<pdfrwt beam="1">  1        2 0.99301259E+00 0.14998932E+02</pdfrwt>
<pdfrwt beam="2">  1       -2 0.99855116E+00 0.14998932E+02</pdfrwt>
<totfact>-0.63813743E-14</totfact>
</mgrwt>
</event>
<event>
 4    1  0.5119137E-019  0.1491769E+02  0.7818608E-02  0.1870591E+00
          2   -1    0    0  501    0  0.00000000000E+00  0.00000000000E+00  0.11983147719E+03  0.11983147722E+03  0.25500000000E-02 0.  1.
         -2   -1    0    0    0  501 -0.00000000000E+00 -0.00000000000E+00 -0.46426828735E+00  0.46427529025E+00  0.25500000000E-02 0. -1.
         31    1    1    2    0    0  0.34577588371E-02  0.32498590329E+00  0.57552768385E+02  0.58033487769E+02  0.74470750000E+01 0.  1.
        -31    1    1    2    0    0 -0.34577588371E-02 -0.32498590329E+00  0.61814440516E+02  0.62262264737E+02  0.74470750000E+01 0.  1.
<mgrwt>
<rscale>  0 0.14917691E+02</rscale>
<asrwt>0</asrwt>
<pdfrwt beam="1">  1        2 0.99468945E+00 0.14917691E+02</pdfrwt>
<pdfrwt beam="2">  1       -2 0.98609804E+00 0.14917691E+02</pdfrwt>
<totfact> 0.35575657E-13</totfact>
</mgrwt>
</event>
<event>
 4    1 -0.5119137E-019  0.1493289E+02  0.7818608E-02  0.1870123E+00
         -2   -1    0    0    0  501 -0.00000000000E+00  0.00000000000E+00  0.12035230944E+03  0.12035230947E+03  0.25500000000E-02 0. -1.
          2   -1    0    0  501    0  0.00000000000E+00 -0.00000000000E+00 -0.46320168071E+00  0.46320869974E+00  0.25500000000E-02 0.  1.
         31    1    1    2    0    0  0.11036246997E+00  0.12632645357E+00  0.64075920464E+02  0.64507446451E+02  0.74470750000E+01 0. -1.
        -31    1    1    2    0    0 -0.11036246997E+00 -0.12632645357E+00  0.55813187297E+02  0.56308071718E+02  0.74470750000E+01 0.  1.
<mgrwt>
<rscale>  0 0.14932892E+02</rscale>
<asrwt>0</asrwt>
<pdfrwt beam="2">  1        2 0.98385774E+00 0.14932892E+02</pdfrwt>
<pdfrwt beam="1">  1       -2 0.99898723E+00 0.14932892E+02</pdfrwt>
<totfact>-0.13783618E-13</totfact>
</mgrwt>
</event>
<event>
 4    1 -0.5119137E-019  0.1496002E+02  0.7818608E-02  0.1869291E+00
         -2   -1    0    0    0  501 -0.00000000000E+00  0.00000000000E+00  0.11952111500E+03  0.11952111502E+03  0.25500000000E-02 0. -1.
          2   -1    0    0  501    0  0.00000000000E+00 -0.00000000000E+00 -0.46811923206E+00  0.46812617736E+00  0.25500000000E-02 0.  1.
         31    1    1    2    0    0 -0.94260648623E-01 -0.56453286642E-02  0.53953969054E+02  0.54465572794E+02  0.74470750000E+01 0.  1.
        -31    1    1    2    0    0  0.94260648623E-01  0.56453286642E-02  0.65099026709E+02  0.65523668407E+02  0.74470750000E+01 0. -1.
<mgrwt>
<rscale>  0 0.14960020E+02</rscale>
<asrwt>0</asrwt>
<pdfrwt beam="2">  1        2 0.99423539E+00 0.14960020E+02</pdfrwt>
<pdfrwt beam="1">  1       -2 0.99215500E+00 0.14960020E+02</pdfrwt>
<totfact>-0.89549798E-14</totfact>
</mgrwt>
</event>
<event>
 4    1  0.5119137E-019  0.1491104E+02  0.7818608E-02  0.1870795E+00
         -2   -1    0    0    0  501 -0.00000000000E+00  0.00000000000E+00  0.11859342639E+03  0.11859342642E+03  0.25500000000E-02 0.  1.
          2   -1    0    0  501    0  0.00000000000E+00 -0.00000000000E+00 -0.46869694716E+00  0.46870388389E+00  0.25500000000E-02 0. -1.
         31    1    1    2    0    0  0.29468503015E+00  0.83458218174E-01  0.57632636673E+02  0.58112593648E+02  0.74470750000E+01 0. -1.
        -31    1    1    2    0    0 -0.29468503015E+00 -0.83458218174E-01  0.60492092769E+02  0.60949536653E+02  0.74470750000E+01 0.  1.
<mgrwt>
<rscale>  0 0.14911042E+02</rscale>
<asrwt>0</asrwt>
<pdfrwt beam="2">  1        2 0.99542717E+00 0.14911042E+02</pdfrwt>
<pdfrwt beam="1">  1       -2 0.98448900E+00 0.14911042E+02</pdfrwt>
<totfact> 0.53156160E-13</totfact>
</mgrwt>
</event>
<event>
 4    1  0.5119137E-019  0.1491652E+02  0.7818608E-02  0.1870627E+00
         -2   -1    0    0    0  501 -0.00000000000E+00  0.00000000000E+00  0.11839219784E+03  0.11839219787E+03  0.25500000000E-02 0.  1.
          2   -1    0    0  501    0  0.00000000000E+00 -0.00000000000E+00 -0.46983851086E+00  0.46984543074E+00  0.25500000000E-02 0. -1.
         31    1    1    2    0    0  0.32923882072E+00  0.24042468518E+00  0.58783260720E+02  0.59254509273E+02  0.74470750000E+01 0. -1.
        -31    1    1    2    0    0 -0.32923882072E+00 -0.24042468518E+00  0.59139098609E+02  0.59607534025E+02  0.74470750000E+01 0. -1.
<mgrwt>
<rscale>  0 0.14916518E+02</rscale>
<asrwt>0</asrwt>
<pdfrwt beam="2">  1        2 0.99783535E+00 0.14916518E+02</pdfrwt>
<pdfrwt beam="1">  1       -2 0.98283454E+00 0.14916518E+02</pdfrwt>
<totfact> 0.48192982E-13</totfact>
</mgrwt>
</event>
<event>
 4    1 -0.5119137E-019  0.1499869E+02  0.7818608E-02  0.1868108E+00
          2   -1    0    0  501    0  0.00000000000E+00  0.00000000000E+00  0.11973888308E+03  0.11973888310E+03  0.25500000000E-02 0.  1.
         -2   -1    0    0    0  501 -0.00000000000E+00 -0.00000000000E+00 -0.46968694912E+00  0.46969387123E+00  0.25500000000E-02 0. -1.
         31    1    1    2    0    0  0.76555094520E+00 -0.22250271224E+00  0.56575301246E+02  0.57068898823E+02  0.74470750000E+01 0. -1.
        -31    1    1    2    0    0 -0.76555094520E+00  0.22250271224E+00  0.62693894882E+02  0.63139678153E+02  0.74470750000E+01 0.  1.
<mgrwt>
<rscale>  0 0.14998694E+02</rscale>
<asrwt>0</asrwt>
<pdfrwt beam="1">  1        2 0.99396862E+00 0.14998694E+02</pdfrwt>
<pdfrwt beam="2">  1       -2 0.99755907E+00 0.14998694E+02</pdfrwt>
<totfact>-0.90847355E-14</totfact>
</mgrwt>
</event>
<event>
 4    1 -0.5119137E-019  0.1496658E+02  0.7818608E-02  0.1869090E+00
          2   -1    0    0  501    0  0.00000000000E+00  0.00000000000E+00  0.11945510073E+03  0.11945510076E+03  0.25500000000E-02 0.  1.
         -2   -1    0    0    0  501 -0.00000000000E+00 -0.00000000000E+00 -0.46878901397E+00  0.46879594934E+00  0.25500000000E-02 0. -1.
         31    1    1    2    0    0 -0.12328613176E+00 -0.31025340696E+00  0.54243266120E+02  0.54753103128E+02  0.74470750000E+01 0. -1.
        -31    1    1    2    0    0  0.12328613176E+00  0.31025340696E+00  0.64743045597E+02  0.65170793580E+02  0.74470750000E+01 0.  1.
<mgrwt>
<rscale>  0 0.14966584E+02</rscale>
<asrwt>0</asrwt>
<pdfrwt beam="1">  1        2 0.99161468E+00 0.14966584E+02</pdfrwt>
<pdfrwt beam="2">  1       -2 0.99565021E+00 0.14966584E+02</pdfrwt>
<totfact>-0.15092502E-13</totfact>
</mgrwt>
</event>
<event>
 4    1  0.5119137E-019  0.1490826E+02  0.7818608E-02  0.1870881E+00
          2   -1    0    0  501    0  0.00000000000E+00  0.00000000000E+00  0.11985473752E+03  0.11985473755E+03  0.25500000000E-02 0. -1.
         -2   -1    0    0    0  501 -0.00000000000E+00 -0.00000000000E+00 -0.46359157621E+00  0.46359858933E+00  0.25500000000E-02 0.  1.
         31    1    1    2    0    0 -0.15355585520E+00 -0.14833781133E+00  0.61665202468E+02  0.62113619320E+02  0.74470750000E+01 0. -1.
        -31    1    1    2    0    0  0.15355585520E+00  0.14833781133E+00  0.57725943480E+02  0.58204716821E+02  0.74470750000E+01 0.  1.
<mgrwt>
<rscale>  0 0.14908262E+02</rscale>
<asrwt>0</asrwt>
<pdfrwt beam="1">  1        2 0.99487619E+00 0.14908262E+02</pdfrwt>
<pdfrwt beam="2">  1       -2 0.98466702E+00 0.14908262E+02</pdfrwt>
<totfact> 0.53817035E-13</totfact>
</mgrwt>
</event>
<event>
 4    1 -0.5119137E-019  0.1495549E+02  0.7818608E-02  0.1869430E+00
          2   -1    0    0  501    0  0.00000000000E+00  0.00000000000E+00  0.11895674208E+03  0.11895674211E+03  0.25500000000E-02 0. -1.
         -2   -1    0    0    0  501 -0.00000000000E+00 -0.00000000000E+00 -0.47005529251E+00  0.47006220920E+00  0.25500000000E-02 0.  1.
         31    1    1    2    0    0 -0.26792956195E-01 -0.56460646153E+00  0.56274327488E+02  0.56767758090E+02  0.74470750000E+01 0.  1.
        -31    1    1    2    0    0  0.26792956195E-01  0.56460646153E+00  0.62212359305E+02  0.62659046231E+02  0.74470750000E+01 0. -1.
<mgrwt>
<rscale>  0 0.14955489E+02</rscale>
<asrwt>0</asrwt>
<pdfrwt beam="1">  1        2 0.98750438E+00 0.14955489E+02</pdfrwt>
<pdfrwt beam="2">  1       -2 0.99831265E+00 0.14955489E+02</pdfrwt>
<totfact>-0.12306436E-13</totfact>
</mgrwt>
</event>
<event>
 4    1  0.5119137E-019  0.1490633E+02  0.7818608E-02  0.1870940E+00
          2   -1    0    0  501    0  0.00000000000E+00  0.00000000000E+00  0.12003515536E+03  0.12003515538E+03  0.25500000000E-02 0. -1.
         -2   -1    0    0    0  501 -0.00000000000E+00 -0.00000000000E+00 -0.46277459101E+00  0.46278161651E+00  0.25500000000E-02 0.  1.
         31    1    1    2    0    0 -0.18100113234E-01  0.88316120020E-01  0.62109336193E+02  0.62554270004E+02  0.74470750000E+01 0. -1.
        -31    1    1    2    0    0  0.18100113234E-01 -0.88316120020E-01  0.57463044573E+02  0.57943666997E+02  0.74470750000E+01 0.  1.
<mgrwt>
<rscale>  0 0.14906327E+02</rscale>
<asrwt>0</asrwt>
<pdfrwt beam="1">  1        2 0.99636125E+00 0.14906327E+02</pdfrwt>
<pdfrwt beam="2">  1       -2 0.98294413E+00 0.14906327E+02</pdfrwt>
<totfact> 0.67399381E-13</totfact>
</mgrwt>
</event>
<event>
 4    1 -0.5119137E-019  0.1491640E+02  0.7818608E-02  0.1870630E+00
          2   -1    0    0  501    0  0.00000000000E+00  0.00000000000E+00  0.11827339739E+03  0.11827339742E+03  0.25500000000E-02 0. -1.
         -2   -1    0    0    0  501 -0.00000000000E+00 -0.00000000000E+00 -0.47030324105E+00  0.47031015409E+00  0.25500000000E-02 0.  1.
         31    1    1    2    0    0  0.32401752784E-01 -0.53389478245E-02  0.55670187875E+02  0.56166091394E+02  0.74470750000E+01 0.  1.
        -31    1    1    2    0    0 -0.32401752784E-01  0.53389478245E-02  0.62132906278E+02  0.62577616181E+02  0.74470750000E+01 0. -1.
<mgrwt>
<rscale>  0 0.14916404E+02</rscale>
<asrwt>0</asrwt>
<pdfrwt beam="1">  1        2 0.98185605E+00 0.14916404E+02</pdfrwt>
<pdfrwt beam="2">  1       -2 0.99881444E+00 0.14916404E+02</pdfrwt>
<totfact>-0.22292315E-13</totfact>
</mgrwt>
</event>
<event>
 4    1 -0.5119137E-019  0.1495479E+02  0.7818608E-02  0.1869451E+00
         -2   -1    0    0    0  501 -0.00000000000E+00  0.00000000000E+00  0.11968932647E+03  0.11968932650E+03  0.25500000000E-02 0.  1.
          2   -1    0    0  501    0  0.00000000000E+00 -0.00000000000E+00 -0.46713470592E+00  0.46714166585E+00  0.25500000000E-02 0. -1.
         31    1    1    2    0    0  0.28682430065E+00  0.49015523991E+00  0.56714032671E+02  0.57203696980E+02  0.74470750000E+01 0.  1.
        -31    1    1    2    0    0 -0.28682430065E+00 -0.49015523991E+00  0.62508159098E+02  0.62952771188E+02  0.74470750000E+01 0. -1.
<mgrwt>
<rscale>  0 0.14954793E+02</rscale>
<asrwt>0</asrwt>
<pdfrwt beam="2">  1        2 0.99215796E+00 0.14954793E+02</pdfrwt>
<pdfrwt beam="1">  1       -2 0.99353775E+00 0.14954793E+02</pdfrwt>
<totfact>-0.14046997E-13</totfact>
</mgrwt>
</event>
<event>
 4    1 -0.5119137E-019  0.1498153E+02  0.7818608E-02  0.1868633E+00
          2   -1    0    0  501    0  0.00000000000E+00  0.00000000000E+00  0.11955825170E+03  0.11955825173E+03  0.25500000000E-02 0. -1.
         -2   -1    0    0    0  501 -0.00000000000E+00 -0.00000000000E+00 -0.46932075390E+00  0.46932768141E+00  0.25500000000E-02 0.  1.
         31    1    1    2    0    0  0.20170797033E+00  0.57250826461E+00  0.55273331662E+02  0.55776057326E+02  0.74470750000E+01 0.  1.
        -31    1    1    2    0    0 -0.20170797033E+00 -0.57250826461E+00  0.63815599282E+02  0.64251522080E+02  0.74470750000E+01 0.  1.
<mgrwt>
<rscale>  0 0.14981533E+02</rscale>
<asrwt>0</asrwt>
<pdfrwt beam="1">  1        2 0.99247201E+00 0.14981533E+02</pdfrwt>
<pdfrwt beam="2">  1       -2 0.99677848E+00 0.14981533E+02</pdfrwt>
<totfact>-0.12255498E-13</totfact>
</mgrwt>
</event>
<event>
 4    1 -0.5119137E-019  0.1491452E+02  0.7818608E-02  0.1870688E+00
         -2   -1    0    0    0  501 -0.00000000000E+00  0.00000000000E+00  0.12004762115E+03  0.12004762118E+03  0.25500000000E-02 0.  1.
          2   -1    0    0  501    0  0.00000000000E+00 -0.00000000000E+00 -0.46323554477E+00  0.46324256329E+00  0.25500000000E-02 0. -1.
         31    1    1    2    0    0 -0.46701462799E-01 -0.36223320652E+00  0.58695269113E+02  0.59166941244E+02  0.74470750000E+01 0. -1.
        -31    1    1    2    0    0  0.46701462799E-01  0.36223320652E+00  0.60889116491E+02  0.61343922494E+02  0.74470750000E+01 0.  1.
<mgrwt>
<rscale>  0 0.14914523E+02</rscale>
<asrwt>0</asrwt>
<pdfrwt beam="2">  1        2 0.98391982E+00 0.14914523E+02</pdfrwt>
<pdfrwt beam="1">  1       -2 0.99646814E+00 0.14914523E+02</pdfrwt>
<totfact>-0.36631873E-13</totfact>
</mgrwt>
</event>
<event>
 4    1 -0.5119137E-019  0.1497232E+02  0.7818608E-02  0.1868914E+00
         -2   -1    0    0    0  501 -0.00000000000E+00  0.00000000000E+00  0.11970105900E+03  0.11970105903E+03  0.25500000000E-02 0. -1.
          2   -1    0    0  501    0  0.00000000000E+00 -0.00000000000E+00 -0.46818455981E+00  0.46819150414E+00  0.25500000000E-02 0.  1.
         31    1    1    2    0    0  0.73628454023E+00 -0.12942952107E+00  0.60880732024E+02  0.61339068503E+02  0.74470750000E+01 0. -1.
        -31    1    1    2    0    0 -0.73628454023E+00  0.12942952107E+00  0.58352142418E+02  0.58830182031E+02  0.74470750000E+01 0.  1.
<mgrwt>
<rscale>  0 0.14972322E+02</rscale>
<asrwt>0</asrwt>
<pdfrwt beam="2">  1        2 0.99437943E+00 0.14972322E+02</pdfrwt>
<pdfrwt beam="1">  1       -2 0.99364344E+00 0.14972322E+02</pdfrwt>
<totfact>-0.12013185E-13</totfact>
</mgrwt>
</event>
<event>
 4    1 -0.5119137E-019  0.1499847E+02  0.7818608E-02  0.1868115E+00
          2   -1    0    0  501    0  0.00000000000E+00  0.00000000000E+00  0.11967980057E+03  0.11967980059E+03  0.25500000000E-02 0. -1.
         -2   -1    0    0    0  501 -0.00000000000E+00 -0.00000000000E+00 -0.46990499853E+00  0.46991191743E+00  0.25500000000E-02 0.  1.
         31    1    1    2    0    0 -0.77943970707E+00  0.18541445069E+00  0.56632057741E+02  0.57125220305E+02  0.74470750000E+01 0.  1.
        -31    1    1    2    0    0  0.77943970707E+00 -0.18541445069E+00  0.62577837827E+02  0.63024492207E+02  0.74470750000E+01 0. -1.
<mgrwt>
<rscale>  0 0.14998474E+02</rscale>
<asrwt>0</asrwt>
<pdfrwt beam="1">  1        2 0.99348189E+00 0.14998474E+02</pdfrwt>
<pdfrwt beam="2">  1       -2 0.99801844E+00 0.14998474E+02</pdfrwt>
<totfact>-0.80240815E-14</totfact>
</mgrwt>
</event>
<event>
 4    1 -0.5119137E-019  0.1499428E+02  0.7818608E-02  0.1868243E+00
          2   -1    0    0  501    0  0.00000000000E+00  0.00000000000E+00  0.11966037518E+03  0.11966037521E+03  0.25500000000E-02 0.  1.
         -2   -1    0    0    0  501 -0.00000000000E+00 -0.00000000000E+00 -0.46971822869E+00  0.46972515034E+00  0.25500000000E-02 0. -1.
         31    1    1    2    0    0  0.28905995007E+00 -0.42874429993E+00  0.54040168227E+02  0.54553332486E+02  0.74470750000E+01 0. -1.
        -31    1    1    2    0    0 -0.28905995007E+00  0.42874429993E+00  0.65150488723E+02  0.65576767869E+02  0.74470750000E+01 0.  1.
<mgrwt>
<rscale>  0 0.14994276E+02</rscale>
<asrwt>0</asrwt>
<pdfrwt beam="1">  1        2 0.99331972E+00 0.14994276E+02</pdfrwt>
<pdfrwt beam="2">  1       -2 0.99762269E+00 0.14994276E+02</pdfrwt>
<totfact>-0.93611410E-14</totfact>
</mgrwt>
</event>
<event>
 4    1  0.5119137E-019  0.1491706E+02  0.7818608E-02  0.1870610E+00
         -2   -1    0    0    0  501 -0.00000000000E+00  0.00000000000E+00  0.11824505109E+03  0.11824505112E+03  0.25500000000E-02 0. -1.
          2   -1    0    0  501    0  0.00000000000E+00 -0.00000000000E+00 -0.47045725788E+00  0.47046416866E+00  0.25500000000E-02 0.  1.
         31    1    1    2    0    0 -0.33595252232E+00  0.20005852707E+00  0.59950291527E+02  0.60412327117E+02  0.74470750000E+01 0.  1.
        -31    1    1    2    0    0  0.33595252232E+00 -0.20005852707E+00  0.57824302304E+02  0.58303188168E+02  0.74470750000E+01 0.  1.
<mgrwt>
<rscale>  0 0.14917058E+02</rscale>
<asrwt>0</asrwt>
<pdfrwt beam="2">  1        2 0.99913929E+00 0.14917058E+02</pdfrwt>
<pdfrwt beam="1">  1       -2 0.98162294E+00 0.14917058E+02</pdfrwt>
<totfact> 0.28334136E-13</totfact>
</mgrwt>
</event>
<event>
 4    1 -0.5119137E-019  0.1495938E+02  0.7818608E-02  0.1869311E+00
          2   -1    0    0  501    0  0.00000000000E+00  0.00000000000E+00  0.11927688665E+03  0.11927688668E+03  0.25500000000E-02 0.  1.
         -2   -1    0    0    0  501 -0.00000000000E+00 -0.00000000000E+00 -0.46903740421E+00  0.46904433591E+00  0.25500000000E-02 0. -1.
         31    1    1    2    0    0 -0.24406940217E-01 -0.68828666547E+00  0.58509767400E+02  0.58985813052E+02  0.74470750000E+01 0. -1.
        -31    1    1    2    0    0  0.24406940217E-01  0.68828666547E+00  0.60298081850E+02  0.60760117964E+02  0.74470750000E+01 0. -1.
<mgrwt>
<rscale>  0 0.14959377E+02</rscale>
<asrwt>0</asrwt>
<pdfrwt beam="1">  1        2 0.99014314E+00 0.14959377E+02</pdfrwt>
<pdfrwt beam="2">  1       -2 0.99616986E+00 0.14959377E+02</pdfrwt>
<totfact>-0.16213573E-13</totfact>
</mgrwt>
</event>
<event>
 4    1 -0.5119137E-019  0.1489805E+02  0.7818608E-02  0.1871196E+00
          2   -1    0    0  501    0  0.00000000000E+00  0.00000000000E+00  0.11828849627E+03  0.11828849629E+03  0.25500000000E-02 0. -1.
         -2   -1    0    0    0  501 -0.00000000000E+00 -0.00000000000E+00 -0.46908669348E+00  0.46909362445E+00  0.25500000000E-02 0.  1.
         31    1    1    2    0    0 -0.52749781864E-01  0.15479793482E+00  0.59292145279E+02  0.59758214187E+02  0.74470750000E+01 0.  1.
        -31    1    1    2    0    0  0.52749781864E-01 -0.15479793482E+00  0.58527264294E+02  0.58999375732E+02  0.74470750000E+01 0. -1.
<mgrwt>
<rscale>  0 0.14898050E+02</rscale>
<asrwt>0</asrwt>
<pdfrwt beam="1">  1        2 0.98197084E+00 0.14898050E+02</pdfrwt>
<pdfrwt beam="2">  1       -2 0.99624153E+00 0.14898050E+02</pdfrwt>
<totfact>-0.52550847E-13</totfact>
</mgrwt>
</event>
<event>
 4    1 -0.5119137E-019  0.1504152E+02  0.7818608E-02  0.1866804E+00
          2   -1    0    0  501    0  0.00000000000E+00  0.00000000000E+00  0.12022699153E+03  0.12022699156E+03  0.25500000000E-02 0.  1.
         -2   -1    0    0    0  501 -0.00000000000E+00 -0.00000000000E+00 -0.47045538826E+00  0.47046229907E+00  0.25500000000E-02 0. -1.
         31    1    1    2    0    0 -0.68446024435E+00  0.70830824187E+00  0.56954715976E+02  0.57447965886E+02  0.74470750000E+01 0. -1.
        -31    1    1    2    0    0  0.68446024435E+00 -0.70830824187E+00  0.62801820167E+02  0.63249487973E+02  0.74470750000E+01 0.  1.
<mgrwt>
<rscale>  0 0.15041523E+02</rscale>
<asrwt>0</asrwt>
<pdfrwt beam="1">  1        2 0.99801100E+00 0.15041523E+02</pdfrwt>
<pdfrwt beam="2">  1       -2 0.99920061E+00 0.15041523E+02</pdfrwt>
<totfact>-0.17238665E-14</totfact>
</mgrwt>
</event>
<event>
 4    1  0.5119137E-019  0.1492981E+02  0.7818608E-02  0.1870218E+00
         -2   -1    0    0    0  501 -0.00000000000E+00  0.00000000000E+00  0.11867948459E+03  0.11867948462E+03  0.25500000000E-02 0.  1.
          2   -1    0    0  501    0  0.00000000000E+00 -0.00000000000E+00 -0.46953676254E+00  0.46954368687E+00  0.25500000000E-02 0. -1.
         31    1    1    2    0    0 -0.44079957225E+00 -0.25486375283E-01  0.61230204575E+02  0.61682994676E+02  0.74470750000E+01 0.  1.
        -31    1    1    2    0    0  0.44079957225E+00  0.25486375283E-01  0.56979743250E+02  0.57466033626E+02  0.74470750000E+01 0.  1.
<mgrwt>
<rscale>  0 0.14929808E+02</rscale>
<asrwt>0</asrwt>
<pdfrwt beam="2">  1        2 0.99720657E+00 0.14929808E+02</pdfrwt>
<pdfrwt beam="1">  1       -2 0.98520753E+00 0.14929808E+02</pdfrwt>
<totfact> 0.32111794E-13</totfact>
</mgrwt>
</event>
<event>
 4    1  0.5119137E-019  0.1489758E+02  0.7818608E-02  0.1871210E+00
          2   -1    0    0  501    0  0.00000000000E+00  0.00000000000E+00  0.12009681151E+03  0.12009681154E+03  0.25500000000E-02 0.  1.
         -2   -1    0    0    0  501 -0.00000000000E+00 -0.00000000000E+00 -0.46199443917E+00  0.46200147653E+00  0.25500000000E-02 0. -1.
         31    1    1    2    0    0 -0.61551807470E-01 -0.13379901090E+00  0.60320712227E+02  0.60778852741E+02  0.74470750000E+01 0.  1.
        -31    1    1    2    0    0  0.61551807470E-01  0.13379901090E+00  0.59314104848E+02  0.59779960278E+02  0.74470750000E+01 0.  1.
<mgrwt>
<rscale>  0 0.14897582E+02</rscale>
<asrwt>0</asrwt>
<pdfrwt beam="1">  1        2 0.99686462E+00 0.14897582E+02</pdfrwt>
<pdfrwt beam="2">  1       -2 0.98129538E+00 0.14897582E+02</pdfrwt>
<totfact> 0.85475173E-13</totfact>
</mgrwt>
</event>
<event>
 4    1 -0.5119137E-019  0.1498850E+02  0.7818608E-02  0.1868420E+00
          2   -1    0    0  501    0  0.00000000000E+00  0.00000000000E+00  0.12016227858E+03  0.12016227860E+03  0.25500000000E-02 0. -1.
         -2   -1    0    0    0  501 -0.00000000000E+00 -0.00000000000E+00 -0.46739601919E+00  0.46740297523E+00  0.25500000000E-02 0.  1.
         31    1    1    2    0    0 -0.71362340521E+00 -0.44185463147E+00  0.59692232331E+02  0.60160834607E+02  0.74470750000E+01 0.  1.
        -31    1    1    2    0    0  0.71362340521E+00  0.44185463147E+00  0.60002650227E+02  0.60468846973E+02  0.74470750000E+01 0.  1.
<mgrwt>
<rscale>  0 0.14988501E+02</rscale>
<asrwt>0</asrwt>
<pdfrwt beam="1">  1        2 0.99745061E+00 0.14988501E+02</pdfrwt>
<pdfrwt beam="2">  1       -2 0.99272600E+00 0.14988501E+02</pdfrwt>
<totfact>-0.64497598E-14</totfact>
</mgrwt>
</event>
<event>
 4    1  0.5119137E-019  0.1491494E+02  0.7818608E-02  0.1870675E+00
          2   -1    0    0  501    0  0.00000000000E+00  0.00000000000E+00  0.12027515415E+03  0.12027515417E+03  0.25500000000E-02 0. -1.
         -2   -1    0    0    0  501 -0.00000000000E+00 -0.00000000000E+00 -0.46238495048E+00  0.46239198191E+00  0.25500000000E-02 0.  1.
         31    1    1    2    0    0  0.17481011628E+00 -0.17830738673E+00  0.57443443574E+02  0.57924696700E+02  0.74470750000E+01 0.  1.
        -31    1    1    2    0    0 -0.17481011628E+00  0.17830738673E+00  0.62369325622E+02  0.62812849455E+02  0.74470750000E+01 0. -1.
<mgrwt>
<rscale>  0 0.14914938E+02</rscale>
<asrwt>0</asrwt>
<pdfrwt beam="1">  1        2 0.99834251E+00 0.14914938E+02</pdfrwt>
<pdfrwt beam="2">  1       -2 0.98212723E+00 0.14914938E+02</pdfrwt>
<totfact> 0.45232910E-13</totfact>
</mgrwt>
</event>
<event>
 4    1 -0.5119137E-019  0.1491844E+02  0.7818608E-02  0.1870568E+00
          2   -1    0    0  501    0  0.00000000000E+00  0.00000000000E+00  0.11869866964E+03  0.11869866966E+03  0.25500000000E-02 0. -1.
         -2   -1    0    0    0  501 -0.00000000000E+00 -0.00000000000E+00 -0.46874628429E+00  0.46875322029E+00  0.25500000000E-02 0.  1.
         31    1    1    2    0    0 -0.23505090869E-01  0.36734576558E+00  0.57410071730E+02  0.57892234000E+02  0.74470750000E+01 0.  1.
        -31    1    1    2    0    0  0.23505090869E-01 -0.36734576558E+00  0.60819851622E+02  0.61275188884E+02  0.74470750000E+01 0. -1.
<mgrwt>
<rscale>  0 0.14918442E+02</rscale>
<asrwt>0</asrwt>
<pdfrwt beam="1">  1        2 0.98535963E+00 0.14918442E+02</pdfrwt>
<pdfrwt beam="2">  1       -2 0.99553501E+00 0.14918442E+02</pdfrwt>
<totfact>-0.32007108E-13</totfact>
</mgrwt>
</event>
<event>
 4    1 -0.5119137E-019  0.1497532E+02  0.7818608E-02  0.1868822E+00
          2   -1    0    0  501    0  0.00000000000E+00  0.00000000000E+00  0.11963954007E+03  0.11963954010E+03  0.25500000000E-02 0.  1.
         -2   -1    0    0    0  501 -0.00000000000E+00 -0.00000000000E+00 -0.46861312414E+00  0.46862006211E+00  0.25500000000E-02 0. -1.
         31    1    1    2    0    0 -0.68899814218E-01 -0.23698827076E+00  0.65507761541E+02  0.65930165014E+02  0.74470750000E+01 0.  1.
        -31    1    1    2    0    0  0.68899814218E-01  0.23698827076E+00  0.53663165408E+02  0.54177995149E+02  0.74470750000E+01 0. -1.
<mgrwt>
<rscale>  0 0.14975323E+02</rscale>
<asrwt>0</asrwt>
<pdfrwt beam="1">  1        2 0.99313830E+00 0.14975323E+02</pdfrwt>
<pdfrwt beam="2">  1       -2 0.99528410E+00 0.14975323E+02</pdfrwt>
<totfact>-0.13813635E-13</totfact>
</mgrwt>
</event>
<event>
 4    1 -0.5119137E-019  0.1498497E+02  0.7818608E-02  0.1868528E+00
          2   -1    0    0  501    0  0.00000000000E+00  0.00000000000E+00  0.11967330623E+03  0.11967330626E+03  0.25500000000E-02 0.  1.
         -2   -1    0    0    0  501 -0.00000000000E+00 -0.00000000000E+00 -0.46908442934E+00  0.46909136034E+00  0.25500000000E-02 0. -1.
         31    1    1    2    0    0  0.78357954695E+00  0.12678498563E+00  0.61364238092E+02  0.61819565787E+02  0.74470750000E+01 0. -1.
        -31    1    1    2    0    0 -0.78357954695E+00 -0.12678498563E+00  0.57839983709E+02  0.58322831832E+02  0.74470750000E+01 0. -1.
<mgrwt>
<rscale>  0 0.14984966E+02</rscale>
<asrwt>0</asrwt>
<pdfrwt beam="1">  1        2 0.99342140E+00 0.14984966E+02</pdfrwt>
<pdfrwt beam="2">  1       -2 0.99628227E+00 0.14984966E+02</pdfrwt>
<totfact>-0.12390510E-13</totfact>
</mgrwt>
</event>
<event>
 4    1 -0.5119137E-019  0.1493196E+02  0.7818608E-02  0.1870152E+00
          2   -1    0    0  501    0  0.00000000000E+00  0.00000000000E+00  0.11853074025E+03  0.11853074028E+03  0.25500000000E-02 0. -1.
         -2   -1    0    0    0  501 -0.00000000000E+00 -0.00000000000E+00 -0.47026131897E+00  0.47026823263E+00  0.25500000000E-02 0.  1.
         31    1    1    2    0    0  0.12402389295E+00  0.49876998233E+00  0.57968290425E+02  0.58446948374E+02  0.74470750000E+01 0. -1.
        -31    1    1    2    0    0 -0.12402389295E+00 -0.49876998233E+00  0.60092188508E+02  0.60554060138E+02  0.74470750000E+01 0.  1.
<mgrwt>
<rscale>  0 0.14931957E+02</rscale>
<asrwt>0</asrwt>
<pdfrwt beam="1">  1        2 0.98398360E+00 0.14931957E+02</pdfrwt>
<pdfrwt beam="2">  1       -2 0.99873435E+00 0.14931957E+02</pdfrwt>
<totfact>-0.16510352E-13</totfact>
</mgrwt>
</event>
<event>
 4    1 -0.5119137E-019  0.1500247E+02  0.7818608E-02  0.1867993E+00
         -2   -1    0    0    0  501 -0.00000000000E+00  0.00000000000E+00  0.12032881928E+03  0.12032881930E+03  0.25500000000E-02 0. -1.
          2   -1    0    0  501    0  0.00000000000E+00 -0.00000000000E+00 -0.46761949434E+00  0.46762644705E+00  0.25500000000E-02 0.  1.
         31    1    1    2    0    0  0.27768405827E+00 -0.12806429056E+00  0.66744169083E+02  0.67159039165E+02  0.74470750000E+01 0. -1.
        -31    1    1    2    0    0 -0.27768405827E+00  0.12806429056E+00  0.53117030698E+02  0.53637406585E+02  0.74470750000E+01 0.  1.
<mgrwt>
<rscale>  0 0.15002470E+02</rscale>
<asrwt>0</asrwt>
<pdfrwt beam="2">  1        2 0.99320413E+00 0.15002470E+02</pdfrwt>
<pdfrwt beam="1">  1       -2 0.99882953E+00 0.15002470E+02</pdfrwt>
<totfact>-0.52089953E-14</totfact>
</mgrwt>
</event>
<event>
 4    1 -0.5119137E-019  0.1494404E+02  0.7818608E-02  0.1869781E+00
          2   -1    0    0  501    0  0.00000000000E+00  0.00000000000E+00  0.11895534834E+03  0.11895534837E+03  0.25500000000E-02 0.  1.
         -2   -1    0    0    0  501 -0.00000000000E+00 -0.00000000000E+00 -0.46934168215E+00  0.46934860935E+00  0.25500000000E-02 0. -1.
         31    1    1    2    0    0  0.11863127810E+00 -0.92879451525E-02  0.64024759556E+02  0.64456519623E+02  0.74470750000E+01 0.  1.
        -31    1    1    2    0    0 -0.11863127810E+00  0.92879451525E-02  0.54461247103E+02  0.54968177355E+02  0.74470750000E+01 0. -1.
<mgrwt>
<rscale>  0 0.14944045E+02</rscale>
<asrwt>0</asrwt>
<pdfrwt beam="1">  1        2 0.98748695E+00 0.14944045E+02</pdfrwt>
<pdfrwt beam="2">  1       -2 0.99680300E+00 0.14944045E+02</pdfrwt>
<totfact>-0.19910070E-13</totfact>
</mgrwt>
</event>
<event>
 4    1 -0.5119137E-019  0.1490405E+02  0.7818608E-02  0.1871011E+00
         -2   -1    0    0    0  501 -0.00000000000E+00  0.00000000000E+00  0.11990484190E+03  0.11990484192E+03  0.25500000000E-02 0. -1.
          2   -1    0    0  501    0  0.00000000000E+00 -0.00000000000E+00 -0.46313606478E+00  0.46314308480E+00  0.25500000000E-02 0.  1.
         31    1    1    2    0    0 -0.45603803807E-01 -0.26755974852E+00  0.59796081905E+02  0.60258642576E+02  0.74470750000E+01 0.  1.
        -31    1    1    2    0    0  0.45603803807E-01  0.26755974852E+00  0.59645623928E+02  0.60109342433E+02  0.74470750000E+01 0. -1.
<mgrwt>
<rscale>  0 0.14904051E+02</rscale>
<asrwt>0</asrwt>
<pdfrwt beam="2">  1        2 0.98370483E+00 0.14904051E+02</pdfrwt>
<pdfrwt beam="1">  1       -2 0.99528672E+00 0.14904051E+02</pdfrwt>
<totfact>-0.42593110E-13</totfact>
</mgrwt>
</event>
<event>
 4    1 -0.5119137E-019  0.1496139E+02  0.7818608E-02  0.1869249E+00
         -2   -1    0    0    0  501 -0.00000000000E+00  0.00000000000E+00  0.11987083145E+03  0.11987083147E+03  0.25500000000E-02 0.  1.
          2   -1    0    0  501    0  0.00000000000E+00 -0.00000000000E+00 -0.46683879256E+00  0.46684575690E+00  0.25500000000E-02 0. -1.
         31    1    1    2    0    0 -0.25928649438E+00  0.65263714172E+00  0.60451531900E+02  0.60912558638E+02  0.74470750000E+01 0.  1.
        -31    1    1    2    0    0  0.25928649438E+00 -0.65263714172E+00  0.58952460753E+02  0.59425118592E+02  0.74470750000E+01 0. -1.
<mgrwt>
<rscale>  0 0.14961387E+02</rscale>
<asrwt>0</asrwt>
<pdfrwt beam="2">  1        2 0.99153775E+00 0.14961387E+02</pdfrwt>
<pdfrwt beam="1">  1       -2 0.99503611E+00 0.14961387E+02</pdfrwt>
<totfact>-0.15652821E-13</totfact>
</mgrwt>
</event>
<event>
 4    1  0.5119137E-019  0.1491237E+02  0.7818608E-02  0.1870754E+00
          2   -1    0    0  501    0  0.00000000000E+00  0.00000000000E+00  0.11985199887E+03  0.11985199890E+03  0.25500000000E-02 0. -1.
         -2   -1    0    0    0  501 -0.00000000000E+00 -0.00000000000E+00 -0.46385754328E+00  0.46386455239E+00  0.25500000000E-02 0.  1.
         31    1    1    2    0    0  0.33420187444E+00  0.79088209019E-01  0.60770657444E+02  0.61226217244E+02  0.74470750000E+01 0. -1.
        -31    1    1    2    0    0 -0.33420187444E+00 -0.79088209019E-01  0.58617483882E+02  0.59089646204E+02  0.74470750000E+01 0.  1.
<mgrwt>
<rscale>  0 0.14912368E+02</rscale>
<asrwt>0</asrwt>
<pdfrwt beam="1">  1        2 0.99485574E+00 0.14912368E+02</pdfrwt>
<pdfrwt beam="2">  1       -2 0.98522966E+00 0.14912368E+02</pdfrwt>
<totfact> 0.46046043E-13</totfact>
</mgrwt>
</event>
<event>
 4    1 -0.5119137E-019  0.1496851E+02  0.7818608E-02  0.1869031E+00
         -2   -1    0    0    0  501 -0.00000000000E+00  0.00000000000E+00  0.12010869645E+03  0.12010869648E+03  0.25500000000E-02 0.  1.
          2   -1    0    0  501    0  0.00000000000E+00 -0.00000000000E+00 -0.46635817771E+00  0.46636514923E+00  0.25500000000E-02 0. -1.
         31    1    1    2    0    0 -0.54064015467E+00  0.38370110482E+00  0.57081788784E+02  0.57569341278E+02  0.74470750000E+01 0.  1.
        -31    1    1    2    0    0  0.54064015467E+00 -0.38370110482E+00  0.62560549493E+02  0.63005720353E+02  0.74470750000E+01 0.  1.
<mgrwt>
<rscale>  0 0.14968513E+02</rscale>
<asrwt>0</asrwt>
<pdfrwt beam="2">  1        2 0.99052852E+00 0.14968513E+02</pdfrwt>
<pdfrwt beam="1">  1       -2 0.99699897E+00 0.14968513E+02</pdfrwt>
<totfact>-0.13632779E-13</totfact>
</mgrwt>
</event>
<event>
 4    1 -0.5119137E-019  0.1492652E+02  0.7818608E-02  0.1870319E+00
         -2   -1    0    0    0  501 -0.00000000000E+00  0.00000000000E+00  0.11949189486E+03  0.11949189489E+03  0.25500000000E-02 0.  1.
          2   -1    0    0  501    0  0.00000000000E+00 -0.00000000000E+00 -0.46613907696E+00  0.46614605176E+00  0.25500000000E-02 0. -1.
         31    1    1    2    0    0 -0.37151032675E+00 -0.27347616214E+00  0.60870234378E+02  0.61325827907E+02  0.74470750000E+01 0. -1.
        -31    1    1    2    0    0  0.37151032675E+00  0.27347616214E+00  0.58155521407E+02  0.58632213034E+02  0.74470750000E+01 0.  1.
<mgrwt>
<rscale>  0 0.14926522E+02</rscale>
<asrwt>0</asrwt>
<pdfrwt beam="2">  1        2 0.99004521E+00 0.14926522E+02</pdfrwt>
<pdfrwt beam="1">  1       -2 0.99189701E+00 0.14926522E+02</pdfrwt>
<totfact>-0.11266205E-13</totfact>
</mgrwt>
</event>
<event>
 4    1  0.5119137E-019  0.1492205E+02  0.7818608E-02  0.1870457E+00
         -2   -1    0    0    0  501 -0.00000000000E+00  0.00000000000E+00  0.11892356569E+03  0.11892356571E+03  0.25500000000E-02 0.  1.
          2   -1    0    0  501    0  0.00000000000E+00 -0.00000000000E+00 -0.46808620612E+00  0.46809315190E+00  0.25500000000E-02 0. -1.
         31    1    1    2    0    0 -0.12816453309E-01 -0.38832138262E+00  0.57317301788E+02  0.57800371695E+02  0.74470750000E+01 0. -1.
        -31    1    1    2    0    0  0.12816453309E-01  0.38832138262E+00  0.61138177691E+02  0.61591287169E+02  0.74470750000E+01 0.  1.
<mgrwt>
<rscale>  0 0.14922050E+02</rscale>
<asrwt>0</asrwt>
<pdfrwt beam="2">  1        2 0.99414603E+00 0.14922050E+02</pdfrwt>
<pdfrwt beam="1">  1       -2 0.98721377E+00 0.14922050E+02</pdfrwt>
<totfact> 0.24256860E-13</totfact>
</mgrwt>
</event>
<event>
 4    1 -0.5119137E-019  0.1501636E+02  0.7818608E-02  0.1867570E+00
          2   -1    0    0  501    0  0.00000000000E+00  0.00000000000E+00  0.12034348389E+03  0.12034348392E+03  0.25500000000E-02 0. -1.
         -2   -1    0    0    0  501 -0.00000000000E+00 -0.00000000000E+00 -0.46842897443E+00  0.46843591513E+00  0.25500000000E-02 0.  1.
         31    1    1    2    0    0 -0.38460476894E+00 -0.64850186496E+00  0.64665799410E+02  0.65097565353E+02  0.74470750000E+01 0. -1.
        -31    1    1    2    0    0  0.38460476894E+00  0.64850186496E+00  0.55209255508E+02  0.55714354482E+02  0.74470750000E+01 0.  1.
<mgrwt>
<rscale>  0 0.15016364E+02</rscale>
<asrwt>0</asrwt>
<pdfrwt beam="1">  1        2 0.99895748E+00 0.15016364E+02</pdfrwt>
<pdfrwt beam="2">  1       -2 0.99491721E+00 0.15016364E+02</pdfrwt>
<totfact>-0.38010694E-14</totfact>
</mgrwt>
</event>
<event>
 4    1 -0.5119137E-019  0.1489673E+02  0.7818608E-02  0.1871236E+00
          2   -1    0    0  501    0  0.00000000000E+00  0.00000000000E+00  0.11861644652E+03  0.11861644654E+03  0.25500000000E-02 0.  1.
         -2   -1    0    0    0  501 -0.00000000000E+00 -0.00000000000E+00 -0.46770670166E+00  0.46771365308E+00  0.25500000000E-02 0. -1.
         31    1    1    2    0    0  0.45380728621E-01 -0.11316861124E+00  0.59600389419E+02  0.60063967663E+02  0.74470750000E+01 0. -1.
        -31    1    1    2    0    0 -0.45380728621E-01  0.11316861124E+00  0.58548350395E+02  0.59020192532E+02  0.74470750000E+01 0. -1.
<mgrwt>
<rscale>  0 0.14896727E+02</rscale>
<asrwt>0</asrwt>
<pdfrwt beam="1">  1        2 0.98467116E+00 0.14896727E+02</pdfrwt>
<pdfrwt beam="2">  1       -2 0.99333312E+00 0.14896727E+02</pdfrwt>
<totfact>-0.33526818E-13</totfact>
</mgrwt>
</event>
<event>
 4    1 -0.5119137E-019  0.1490349E+02  0.7818608E-02  0.1871028E+00
          2   -1    0    0  501    0  0.00000000000E+00  0.00000000000E+00  0.11817091207E+03  0.11817091210E+03  0.25500000000E-02 0.  1.
         -2   -1    0    0    0  501 -0.00000000000E+00 -0.00000000000E+00 -0.46989643442E+00  0.46990335345E+00  0.25500000000E-02 0. -1.
         31    1    1    2    0    0  0.22729870626E+00 -0.12701187690E+00  0.58514693607E+02  0.58987253629E+02  0.74470750000E+01 0. -1.
        -31    1    1    2    0    0 -0.22729870626E+00  0.12701187690E+00  0.59186322031E+02  0.59653561824E+02  0.74470750000E+01 0.  1.
<mgrwt>
<rscale>  0 0.14903490E+02</rscale>
<asrwt>0</asrwt>
<pdfrwt beam="1">  1        2 0.98100527E+00 0.14903490E+02</pdfrwt>
<pdfrwt beam="2">  1       -2 0.99795049E+00 0.14903490E+02</pdfrwt>
<totfact>-0.41071217E-13</totfact>
</mgrwt>
</event>
<event>
 4    1  0.5119137E-019  0.1491605E+02  0.7818608E-02  0.1870641E+00
          2   -1    0    0  501    0  0.00000000000E+00  0.00000000000E+00  0.11988055071E+03  0.11988055073E+03  0.25500000000E-02 0.  1.
         -2   -1    0    0    0  501 -0.00000000000E+00 -0.00000000000E+00 -0.46397606317E+00  0.46398307048E+00  0.25500000000E-02 0. -1.
         31    1    1    2    0    0 -0.34388235585E+00 -0.21106433742E+00  0.59546932791E+02  0.60012156553E+02  0.74470750000E+01 0. -1.
        -31    1    1    2    0    0  0.34388235585E+00  0.21106433742E+00  0.59869641853E+02  0.60332377252E+02  0.74470750000E+01 0.  1.
<mgrwt>
<rscale>  0 0.14916049E+02</rscale>
<asrwt>0</asrwt>
<pdfrwt beam="1">  1        2 0.99509281E+00 0.14916049E+02</pdfrwt>
<pdfrwt beam="2">  1       -2 0.98548132E+00 0.14916049E+02</pdfrwt>
<totfact> 0.41683678E-13</totfact>
</mgrwt>
</event>
<event>
 4    1  0.5119137E-019  0.1491188E+02  0.7818608E-02  0.1870770E+00
         -2   -1    0    0    0  501 -0.00000000000E+00  0.00000000000E+00  0.11863333327E+03  0.11863333330E+03  0.25500000000E-02 0. -1.
          2   -1    0    0  501    0  0.00000000000E+00 -0.00000000000E+00 -0.46859190789E+00  0.46859884618E+00  0.25500000000E-02 0.  1.
         31    1    1    2    0    0 -0.14545413033E-01  0.83331077222E-01  0.61905689653E+02  0.62352068875E+02  0.74470750000E+01 0. -1.
        -31    1    1    2    0    0  0.14545413033E-01 -0.83331077222E-01  0.56259051712E+02  0.56749863270E+02  0.74470750000E+01 0.  1.
<mgrwt>
<rscale>  0 0.14911879E+02</rscale>
<asrwt>0</asrwt>
<pdfrwt beam="2">  1        2 0.99520628E+00 0.14911879E+02</pdfrwt>
<pdfrwt beam="1">  1       -2 0.98481811E+00 0.14911879E+02</pdfrwt>
<totfact> 0.49895238E-13</totfact>
</mgrwt>
</event>
<event>
 4    1  0.5119137E-019  0.1491152E+02  0.7818608E-02  0.1870780E+00
          2   -1    0    0  501    0  0.00000000000E+00  0.00000000000E+00  0.12000912816E+03  0.12000912819E+03  0.25500000000E-02 0.  1.
         -2   -1    0    0    0  501 -0.00000000000E+00 -0.00000000000E+00 -0.46319773246E+00  0.46320475155E+00  0.25500000000E-02 0. -1.
         31    1    1    2    0    0 -0.20971332669E+00  0.28717337986E+00  0.59329996055E+02  0.59796603634E+02  0.74470750000E+01 0.  1.
        -31    1    1    2    0    0  0.20971332669E+00 -0.28717337986E+00  0.60215934376E+02  0.60675729308E+02  0.74470750000E+01 0. -1.
<mgrwt>
<rscale>  0 0.14911523E+02</rscale>
<asrwt>0</asrwt>
<pdfrwt beam="1">  1        2 0.99614954E+00 0.14911523E+02</pdfrwt>
<pdfrwt beam="2">  1       -2 0.98383860E+00 0.14911523E+02</pdfrwt>
<totfact> 0.56793786E-13</totfact>
</mgrwt>
</event>
<event>
 4    1  0.5119137E-019  0.1491953E+02  0.7818608E-02  0.1870534E+00
         -2   -1    0    0    0  501 -0.00000000000E+00  0.00000000000E+00  0.11845363315E+03  0.11845363317E+03  0.25500000000E-02 0. -1.
          2   -1    0    0  501    0  0.00000000000E+00 -0.00000000000E+00 -0.46978468101E+00  0.46979160169E+00  0.25500000000E-02 0.  1.
         31    1    1    2    0    0 -0.73926603816E-01 -0.15729035159E+00  0.55813668558E+02  0.56308567105E+02  0.74470750000E+01 0.  1.
        -31    1    1    2    0    0  0.73926603816E-01  0.15729035159E+00  0.62170179906E+02  0.62614857669E+02  0.74470750000E+01 0.  1.
<mgrwt>
<rscale>  0 0.14919533E+02</rscale>
<asrwt>0</asrwt>
<pdfrwt beam="2">  1        2 0.99772352E+00 0.14919533E+02</pdfrwt>
<pdfrwt beam="1">  1       -2 0.98334208E+00 0.14919533E+02</pdfrwt>
<totfact> 0.44728282E-13</totfact>
</mgrwt>
</event>
<event>
 4    1 -0.5119137E-019  0.1499158E+02  0.7818608E-02  0.1868326E+00
          2   -1    0    0  501    0  0.00000000000E+00  0.00000000000E+00  0.11953898424E+03  0.11953898426E+03  0.25500000000E-02 0. -1.
         -2   -1    0    0    0  501 -0.00000000000E+00 -0.00000000000E+00 -0.47002608146E+00  0.47003299858E+00  0.25500000000E-02 0.  1.
         31    1    1    2    0    0 -0.17512682570E+00 -0.74016646913E+00  0.62628789358E+02  0.63074580445E+02  0.74470750000E+01 0. -1.
        -31    1    1    2    0    0  0.17512682570E+00  0.74016646913E+00  0.56440168797E+02  0.56934436817E+02  0.74470750000E+01 0.  1.
<mgrwt>
<rscale>  0 0.14991579E+02</rscale>
<asrwt>0</asrwt>
<pdfrwt beam="1">  1        2 0.99231852E+00 0.14991579E+02</pdfrwt>
<pdfrwt beam="2">  1       -2 0.99826999E+00 0.14991579E+02</pdfrwt>
<totfact>-0.78050596E-14</totfact>
</mgrwt>
</event>
<event>
 4    1 -0.5119137E-019  0.1500180E+02  0.7818608E-02  0.1868013E+00
          2   -1    0    0  501    0  0.00000000000E+00  0.00000000000E+00  0.11959544997E+03  0.11959544999E+03  0.25500000000E-02 0. -1.
         -2   -1    0    0    0  501 -0.00000000000E+00 -0.00000000000E+00 -0.47044531148E+00  0.47045222244E+00  0.25500000000E-02 0.  1.
         31    1    1    2    0    0  0.47226206111E-01  0.26101093143E+00  0.66420523136E+02  0.66837228973E+02  0.74470750000E+01 0. -1.
        -31    1    1    2    0    0 -0.47226206111E-01 -0.26101093143E+00  0.52704481519E+02  0.53228673243E+02  0.74470750000E+01 0.  1.
<mgrwt>
<rscale>  0 0.15001805E+02</rscale>
<asrwt>0</asrwt>
<pdfrwt beam="1">  1        2 0.99278889E+00 0.15001805E+02</pdfrwt>
<pdfrwt beam="2">  1       -2 0.99915873E+00 0.15001805E+02</pdfrwt>
<totfact>-0.39642497E-14</totfact>
</mgrwt>
</event>
<event>
 4    1 -0.5119137E-019  0.1492284E+02  0.7818608E-02  0.1870432E+00
         -2   -1    0    0    0  501 -0.00000000000E+00  0.00000000000E+00  0.12021525033E+03  0.12021525036E+03  0.25500000000E-02 0.  1.
          2   -1    0    0  501    0  0.00000000000E+00 -0.00000000000E+00 -0.46310563541E+00  0.46311265590E+00  0.25500000000E-02 0. -1.
         31    1    1    2    0    0 -0.44789438024E+00  0.10771865153E+00  0.59547943334E+02  0.60013570915E+02  0.74470750000E+01 0. -1.
        -31    1    1    2    0    0  0.44789438024E+00 -0.10771865153E+00  0.60204201360E+02  0.60664792096E+02  0.74470750000E+01 0. -1.
<mgrwt>
<rscale>  0 0.14922840E+02</rscale>
<asrwt>0</asrwt>
<pdfrwt beam="2">  1        2 0.98365022E+00 0.14922840E+02</pdfrwt>
<pdfrwt beam="1">  1       -2 0.99785314E+00 0.14922840E+02</pdfrwt>
<totfact>-0.27283136E-13</totfact>
</mgrwt>
</event>
<event>
 4    1  0.5119137E-019  0.1491035E+02  0.7818608E-02  0.1870817E+00
         -2   -1    0    0    0  501 -0.00000000000E+00  0.00000000000E+00  0.11898109952E+03  0.11898109955E+03  0.25500000000E-02 0. -1.
          2   -1    0    0  501    0  0.00000000000E+00 -0.00000000000E+00 -0.46712658896E+00  0.46713354901E+00  0.25500000000E-02 0.  1.
         31    1    1    2    0    0 -0.12231688419E+00 -0.23073825424E+00  0.61092993369E+02  0.61545763188E+02  0.74470750000E+01 0. -1.
        -31    1    1    2    0    0  0.12231688419E+00  0.23073825424E+00  0.57420979567E+02  0.57902469913E+02  0.74470750000E+01 0. -1.
<mgrwt>
<rscale>  0 0.14910352E+02</rscale>
<asrwt>0</asrwt>
<pdfrwt beam="2">  1        2 0.99211783E+00 0.14910352E+02</pdfrwt>
<pdfrwt beam="1">  1       -2 0.98768156E+00 0.14910352E+02</pdfrwt>
<totfact> 0.22599450E-13</totfact>
</mgrwt>
</event>
<event>
 4    1  0.5119137E-019  0.1493215E+02  0.7818608E-02  0.1870146E+00
          2   -1    0    0  501    0  0.00000000000E+00  0.00000000000E+00  0.11989608901E+03  0.11989608904E+03  0.25500000000E-02 0.  1.
         -2   -1    0    0    0  501 -0.00000000000E+00 -0.00000000000E+00 -0.46491785751E+00  0.46492485063E+00  0.25500000000E-02 0. -1.
         31    1    1    2    0    0  0.47247431542E+00 -0.22754839585E+00  0.60450774870E+02  0.60910016571E+02  0.74470750000E+01 0. -1.
        -31    1    1    2    0    0 -0.47247431542E+00  0.22754839585E+00  0.58980396284E+02  0.59450997318E+02  0.74470750000E+01 0. -1.
<mgrwt>
<rscale>  0 0.14932147E+02</rscale>
<asrwt>0</asrwt>
<pdfrwt beam="1">  1        2 0.99522908E+00 0.14932147E+02</pdfrwt>
<pdfrwt beam="2">  1       -2 0.98747442E+00 0.14932147E+02</pdfrwt>
<totfact> 0.19413367E-13</totfact>
</mgrwt>
</event>
<event>
 4    1  0.5119137E-019  0.1490680E+02  0.7818608E-02  0.1870926E+00
          2   -1    0    0  501    0  0.00000000000E+00  0.00000000000E+00  0.11936075228E+03  0.11936075231E+03  0.25500000000E-02 0. -1.
         -2   -1    0    0    0  501 -0.00000000000E+00 -0.00000000000E+00 -0.46541862726E+00  0.46542561285E+00  0.25500000000E-02 0.  1.
         31    1    1    2    0    0 -0.12276984510E-01  0.12900881144E+00  0.61684261168E+02  0.62132308792E+02  0.74470750000E+01 0. -1.
        -31    1    1    2    0    0  0.12276984510E-01 -0.12900881144E+00  0.57211072489E+02  0.57693869132E+02  0.74470750000E+01 0.  1.
<mgrwt>
<rscale>  0 0.14906795E+02</rscale>
<asrwt>0</asrwt>
<pdfrwt beam="1">  1        2 0.99080668E+00 0.14906795E+02</pdfrwt>
<pdfrwt beam="2">  1       -2 0.98851677E+00 0.14906795E+02</pdfrwt>
<totfact> 0.15131353E-13</totfact>
</mgrwt>
</event>
<event>
 4    1 -0.5119137E-019  0.1498008E+02  0.7818608E-02  0.1868677E+00
         -2   -1    0    0    0  501 -0.00000000000E+00  0.00000000000E+00  0.11953062324E+03  0.11953062327E+03  0.25500000000E-02 0. -1.
          2   -1    0    0  501    0  0.00000000000E+00 -0.00000000000E+00 -0.46933838810E+00  0.46934531536E+00  0.25500000000E-02 0.  1.
         31    1    1    2    0    0  0.15479940401E+00  0.58760030912E+00  0.55348475578E+02  0.55850531885E+02  0.74470750000E+01 0.  1.
        -31    1    1    2    0    0 -0.15479940401E+00 -0.58760030912E+00  0.63712809272E+02  0.64149436696E+02  0.74470750000E+01 0. -1.
<mgrwt>
<rscale>  0 0.14980084E+02</rscale>
<asrwt>0</asrwt>
<pdfrwt beam="2">  1        2 0.99681489E+00 0.14980084E+02</pdfrwt>
<pdfrwt beam="1">  1       -2 0.99224370E+00 0.14980084E+02</pdfrwt>
<totfact>-0.65981433E-14</totfact>
</mgrwt>
</event>
<event>
 4    1 -0.5119137E-019  0.1497734E+02  0.7818608E-02  0.1868761E+00
         -2   -1    0    0    0  501 -0.00000000000E+00  0.00000000000E+00  0.12029427092E+03  0.12029427095E+03  0.25500000000E-02 0.  1.
          2   -1    0    0  501    0  0.00000000000E+00 -0.00000000000E+00 -0.46618832029E+00  0.46619529435E+00  0.25500000000E-02 0. -1.
         31    1    1    2    0    0  0.22789899812E+00  0.75007768540E+00  0.60575309516E+02  0.61036395728E+02  0.74470750000E+01 0.  1.
        -31    1    1    2    0    0 -0.22789899812E+00 -0.75007768540E+00  0.59252773086E+02  0.59724070515E+02  0.74470750000E+01 0.  1.
<mgrwt>
<rscale>  0 0.14977344E+02</rscale>
<asrwt>0</asrwt>
<pdfrwt beam="2">  1        2 0.99017506E+00 0.14977344E+02</pdfrwt>
<pdfrwt beam="1">  1       -2 0.99853203E+00 0.14977344E+02</pdfrwt>
<totfact>-0.80548322E-14</totfact>
</mgrwt>
</event>
<event>
 4    1 -0.5119137E-019  0.1499386E+02  0.7818608E-02  0.1868256E+00
         -2   -1    0    0    0  501 -0.00000000000E+00  0.00000000000E+00  0.11990323464E+03  0.11990323467E+03  0.25500000000E-02 0.  1.
          2   -1    0    0  501    0  0.00000000000E+00 -0.00000000000E+00 -0.46874072353E+00  0.46874765961E+00  0.25500000000E-02 0. -1.
         31    1    1    2    0    0 -0.31781780004E+00  0.37298649372E+00  0.65421680199E+02  0.65845996790E+02  0.74470750000E+01 0.  1.
        -31    1    1    2    0    0  0.31781780004E+00 -0.37298649372E+00  0.54012813717E+02  0.54525985537E+02  0.74470750000E+01 0. -1.
<mgrwt>
<rscale>  0 0.14993858E+02</rscale>
<asrwt>0</asrwt>
<pdfrwt beam="2">  1        2 0.99556259E+00 0.14993858E+02</pdfrwt>
<pdfrwt beam="1">  1       -2 0.99531977E+00 0.14993858E+02</pdfrwt>
<totfact>-0.11069756E-13</totfact>
</mgrwt>
</event>
<event>
 4    1 -0.5119137E-019  0.1497157E+02  0.7818608E-02  0.1868937E+00
          2   -1    0    0  501    0  0.00000000000E+00  0.00000000000E+00  0.11920220212E+03  0.11920220214E+03  0.25500000000E-02 0.  1.
         -2   -1    0    0    0  501 -0.00000000000E+00 -0.00000000000E+00 -0.47009672439E+00  0.47010364047E+00  0.25500000000E-02 0. -1.
         31    1    1    2    0    0  0.25183407112E+00 -0.62364290597E+00  0.56532054146E+02  0.57024419531E+02  0.74470750000E+01 0. -1.
        -31    1    1    2    0    0 -0.25183407112E+00  0.62364290597E+00  0.62200051247E+02  0.62647886254E+02  0.74470750000E+01 0.  1.
<mgrwt>
<rscale>  0 0.14971570E+02</rscale>
<asrwt>0</asrwt>
<pdfrwt beam="1">  1        2 0.98953435E+00 0.14971570E+02</pdfrwt>
<pdfrwt beam="2">  1       -2 0.99840839E+00 0.14971570E+02</pdfrwt>
<totfact>-0.91937481E-14</totfact>
</mgrwt>
</event>
<event>
 4    1 -0.5119137E-019  0.1489695E+02  0.7818608E-02  0.1871230E+00
         -2   -1    0    0    0  501 -0.00000000000E+00  0.00000000000E+00  0.11988551241E+03  0.11988551243E+03  0.25500000000E-02 0.  1.
          2   -1    0    0  501    0  0.00000000000E+00 -0.00000000000E+00 -0.46276941745E+00  0.46277644303E+00  0.25500000000E-02 0. -1.
         31    1    1    2    0    0  0.10887789395E-01  0.14360729782E+00  0.59794339580E+02  0.60256474453E+02  0.74470750000E+01 0. -1.
        -31    1    1    2    0    0 -0.10887789395E-01 -0.14360729782E+00  0.59628403409E+02  0.60091814424E+02  0.74470750000E+01 0.  1.
<mgrwt>
<rscale>  0 0.14896949E+02</rscale>
<asrwt>0</asrwt>
<pdfrwt beam="2">  1        2 0.98292847E+00 0.14896949E+02</pdfrwt>
<pdfrwt beam="1">  1       -2 0.99512386E+00 0.14896949E+02</pdfrwt>
<totfact>-0.48852481E-13</totfact>
</mgrwt>
</event>
<event>
 4    1  0.5119137E-019  0.1491209E+02  0.7818608E-02  0.1870763E+00
          2   -1    0    0  501    0  0.00000000000E+00  0.00000000000E+00  0.11968587330E+03  0.11968587333E+03  0.25500000000E-02 0. -1.
         -2   -1    0    0    0  501 -0.00000000000E+00 -0.00000000000E+00 -0.46448381614E+00  0.46449081579E+00  0.25500000000E-02 0.  1.
         31    1    1    2    0    0  0.73916653628E-01  0.20670461828E+00  0.61966069267E+02  0.62412345389E+02  0.74470750000E+01 0. -1.
        -31    1    1    2    0    0 -0.73916653628E-01 -0.20670461828E+00  0.57255320222E+02  0.57738018759E+02  0.74470750000E+01 0.  1.
<mgrwt>
<rscale>  0 0.14912085E+02</rscale>
<asrwt>0</asrwt>
<pdfrwt beam="1">  1        2 0.99348728E+00 0.14912085E+02</pdfrwt>
<pdfrwt beam="2">  1       -2 0.98654941E+00 0.14912085E+02</pdfrwt>
<totfact> 0.33456082E-13</totfact>
</mgrwt>
</event>
<event>
 4    1  0.5119137E-019  0.1495507E+02  0.7818608E-02  0.1869443E+00
         -2   -1    0    0    0  501 -0.00000000000E+00  0.00000000000E+00  0.11905330621E+03  0.11905330624E+03  0.25500000000E-02 0.  1.
          2   -1    0    0  501    0  0.00000000000E+00 -0.00000000000E+00 -0.46964749121E+00  0.46965441391E+00  0.25500000000E-02 0. -1.
         31    1    1    2    0    0 -0.44104426055E+00 -0.29414702379E+00  0.55962517449E+02  0.56458332669E+02  0.74470750000E+01 0. -1.
        -31    1    1    2    0    0  0.44104426055E+00  0.29414702379E+00  0.62621141269E+02  0.63064627981E+02  0.74470750000E+01 0.  1.
<mgrwt>
<rscale>  0 0.14955066E+02</rscale>
<asrwt>0</asrwt>
<pdfrwt beam="2">  1        2 0.99745316E+00 0.14955066E+02</pdfrwt>
<pdfrwt beam="1">  1       -2 0.98829946E+00 0.14955066E+02</pdfrwt>
<totfact> 0.83044673E-14</totfact>
</mgrwt>
</event>
<event>
 4    1  0.5119137E-019  0.1492276E+02  0.7818608E-02  0.1870435E+00
         -2   -1    0    0    0  501 -0.00000000000E+00  0.00000000000E+00  0.11899989297E+03  0.11899989300E+03  0.25500000000E-02 0.  1.
          2   -1    0    0  501    0  0.00000000000E+00 -0.00000000000E+00 -0.46783035849E+00  0.46783730807E+00  0.25500000000E-02 0. -1.
         31    1    1    2    0    0 -0.24821843933E+00  0.15932356673E+00  0.56421379850E+02  0.56911492922E+02  0.74470750000E+01 0.  1.
        -31    1    1    2    0    0  0.24821843933E+00 -0.15932356673E+00  0.62110682761E+02  0.62556237382E+02  0.74470750000E+01 0.  1.
<mgrwt>
<rscale>  0 0.14922758E+02</rscale>
<asrwt>0</asrwt>
<pdfrwt beam="2">  1        2 0.99360728E+00 0.14922758E+02</pdfrwt>
<pdfrwt beam="1">  1       -2 0.98784278E+00 0.14922758E+02</pdfrwt>
<totfact> 0.18640571E-13</totfact>
</mgrwt>
</event>
<event>
 4    1 -0.5119137E-019  0.1493156E+02  0.7818608E-02  0.1870164E+00
         -2   -1    0    0    0  501 -0.00000000000E+00  0.00000000000E+00  0.11937532896E+03  0.11937532899E+03  0.25500000000E-02 0. -1.
          2   -1    0    0  501    0  0.00000000000E+00 -0.00000000000E+00 -0.46690902695E+00  0.46691599025E+00  0.25500000000E-02 0.  1.
         31    1    1    2    0    0 -0.31277464565E+00  0.15921538243E-01  0.56041179474E+02  0.56534686737E+02  0.74470750000E+01 0.  1.
        -31    1    1    2    0    0  0.31277464565E+00 -0.15921538243E-01  0.62867240458E+02  0.63307558240E+02  0.74470750000E+01 0. -1.
<mgrwt>
<rscale>  0 0.14931556E+02</rscale>
<asrwt>0</asrwt>
<pdfrwt beam="2">  1        2 0.99167037E+00 0.14931556E+02</pdfrwt>
<pdfrwt beam="1">  1       -2 0.99093953E+00 0.14931556E+02</pdfrwt>
<totfact>-0.50884415E-14</totfact>
</mgrwt>
</event>
<event>
 4    1 -0.5119137E-019  0.1492516E+02  0.7818608E-02  0.1870361E+00
         -2   -1    0    0    0  501 -0.00000000000E+00  0.00000000000E+00  0.12012783706E+03  0.12012783708E+03  0.25500000000E-02 0. -1.
          2   -1    0    0  501    0  0.00000000000E+00 -0.00000000000E+00 -0.46358699770E+00  0.46359401090E+00  0.25500000000E-02 0.  1.
         31    1    1    2    0    0 -0.20170212953E+00  0.11771045747E+00  0.63228137209E+02  0.63665617098E+02  0.74470750000E+01 0. -1.
        -31    1    1    2    0    0  0.20170212953E+00 -0.11771045747E+00  0.56436112848E+02  0.56925813995E+02  0.74470750000E+01 0. -1.
<mgrwt>
<rscale>  0 0.14925164E+02</rscale>
<asrwt>0</asrwt>
<pdfrwt beam="2">  1        2 0.98466596E+00 0.14925164E+02</pdfrwt>
<pdfrwt beam="1">  1       -2 0.99713433E+00 0.14925164E+02</pdfrwt>
<totfact>-0.28484041E-13</totfact>
</mgrwt>
</event>
<event>
 4    1 -0.5119137E-019  0.1497724E+02  0.7818608E-02  0.1868764E+00
         -2   -1    0    0    0  501 -0.00000000000E+00  0.00000000000E+00  0.11970200398E+03  0.11970200401E+03  0.25500000000E-02 0. -1.
          2   -1    0    0  501    0  0.00000000000E+00 -0.00000000000E+00 -0.46848843752E+00  0.46849537735E+00  0.25500000000E-02 0.  1.
         31    1    1    2    0    0  0.16842328279E+00 -0.76586348648E+00  0.60216331010E+02  0.60680147986E+02  0.74470750000E+01 0.  1.
        -31    1    1    2    0    0 -0.16842328279E+00  0.76586348648E+00  0.59017184533E+02  0.59490351398E+02  0.74470750000E+01 0. -1.
<mgrwt>
<rscale>  0 0.14977239E+02</rscale>
<asrwt>0</asrwt>
<pdfrwt beam="2">  1        2 0.99502234E+00 0.14977239E+02</pdfrwt>
<pdfrwt beam="1">  1       -2 0.99365377E+00 0.14977239E+02</pdfrwt>
<totfact>-0.11312406E-13</totfact>
</mgrwt>
</event>
<event>
 4    1 -0.5119137E-019  0.1496781E+02  0.7818608E-02  0.1869052E+00
          2   -1    0    0  501    0  0.00000000000E+00  0.00000000000E+00  0.11934440039E+03  0.11934440042E+03  0.25500000000E-02 0.  1.
         -2   -1    0    0    0  501 -0.00000000000E+00 -0.00000000000E+00 -0.46930090095E+00  0.46930782876E+00  0.25500000000E-02 0. -1.
         31    1    1    2    0    0 -0.62166108495E+00  0.31180855224E+00  0.57377383472E+02  0.57862826990E+02  0.74470750000E+01 0.  1.
        -31    1    1    2    0    0  0.62166108495E+00 -0.31180855224E+00  0.61497716017E+02  0.61950881256E+02  0.74470750000E+01 0.  1.
<mgrwt>
<rscale>  0 0.14967812E+02</rscale>
<asrwt>0</asrwt>
<pdfrwt beam="1">  1        2 0.99070357E+00 0.14967812E+02</pdfrwt>
<pdfrwt beam="2">  1       -2 0.99672950E+00 0.14967812E+02</pdfrwt>
<totfact>-0.14166710E-13</totfact>
</mgrwt>
</event>
<event>
 4    1 -0.5119137E-019  0.1495366E+02  0.7818608E-02  0.1869486E+00
          2   -1    0    0  501    0  0.00000000000E+00  0.00000000000E+00  0.11896356220E+03  0.11896356222E+03  0.25500000000E-02 0. -1.
         -2   -1    0    0    0  501 -0.00000000000E+00 -0.00000000000E+00 -0.46991336695E+00  0.46992028573E+00  0.25500000000E-02 0.  1.
         31    1    1    2    0    0  0.60163401084E+00 -0.26487655413E+00  0.58374321924E+02  0.58851104571E+02  0.74470750000E+01 0. -1.
        -31    1    1    2    0    0 -0.60163401084E+00  0.26487655413E+00  0.60119326905E+02  0.60582377938E+02  0.74470750000E+01 0. -1.
<mgrwt>
<rscale>  0 0.14953659E+02</rscale>
<asrwt>0</asrwt>
<pdfrwt beam="1">  1        2 0.98755960E+00 0.14953659E+02</pdfrwt>
<pdfrwt beam="2">  1       -2 0.99801264E+00 0.14953659E+02</pdfrwt>
<totfact>-0.13982460E-13</totfact>
</mgrwt>
</event>
<event>
 4    1  0.5119137E-019  0.1491118E+02  0.7818608E-02  0.1870791E+00
         -2   -1    0    0    0  501 -0.00000000000E+00  0.00000000000E+00  0.11817507968E+03  0.11817507971E+03  0.25500000000E-02 0. -1.
          2   -1    0    0  501    0  0.00000000000E+00 -0.00000000000E+00 -0.47036510224E+00  0.47037201437E+00  0.25500000000E-02 0.  1.
         31    1    1    2    0    0  0.46299603650E-01  0.22265360218E+00  0.56670380298E+02  0.57158049717E+02  0.74470750000E+01 0.  1.
        -31    1    1    2    0    0 -0.46299603650E-01 -0.22265360218E+00  0.61034334283E+02  0.61487402008E+02  0.74470750000E+01 0. -1.
<mgrwt>
<rscale>  0 0.14911183E+02</rscale>
<asrwt>0</asrwt>
<pdfrwt beam="2">  1        2 0.99894201E+00 0.14911183E+02</pdfrwt>
<pdfrwt beam="1">  1       -2 0.98104361E+00 0.14911183E+02</pdfrwt>
<totfact> 0.37985580E-13</totfact>
</mgrwt>
</event>
<event>
 4    1  0.5119137E-019  0.1493434E+02  0.7818608E-02  0.1870079E+00
         -2   -1    0    0    0  501 -0.00000000000E+00  0.00000000000E+00  0.11850281130E+03  0.11850281133E+03  0.25500000000E-02 0.  1.
          2   -1    0    0  501    0  0.00000000000E+00 -0.00000000000E+00 -0.47052249849E+00  0.47052940831E+00  0.25500000000E-02 0. -1.
         31    1    1    2    0    0  0.26382432713E+00 -0.35322639704E+00  0.61601900844E+02  0.62051974069E+02  0.74470750000E+01 0. -1.
        -31    1    1    2    0    0 -0.26382432713E+00  0.35322639704E+00  0.56430387957E+02  0.56921366667E+02  0.74470750000E+01 0.  1.
<mgrwt>
<rscale>  0 0.14934343E+02</rscale>
<asrwt>0</asrwt>
<pdfrwt beam="2">  1        2 0.99928591E+00 0.14934343E+02</pdfrwt>
<pdfrwt beam="1">  1       -2 0.98375482E+00 0.14934343E+02</pdfrwt>
<totfact> 0.15147088E-13</totfact>
</mgrwt>
</event>
<event>
 4    1  0.5119137E-019  0.1491053E+02  0.7818608E-02  0.1870811E+00
         -2   -1    0    0    0  501 -0.00000000000E+00  0.00000000000E+00  0.11901279363E+03  0.11901279365E+03  0.25500000000E-02 0.  1.
          2   -1    0    0  501    0  0.00000000000E+00 -0.00000000000E+00 -0.46701320034E+00  0.46702016208E+00  0.25500000000E-02 0. -1.
         31    1    1    2    0    0 -0.23875817874E+00 -0.22330263968E+00  0.58286021322E+02  0.58760752864E+02  0.74470750000E+01 0. -1.
        -31    1    1    2    0    0  0.23875817874E+00  0.22330263968E+00  0.60259759104E+02  0.60719060952E+02  0.74470750000E+01 0.  1.
<mgrwt>
<rscale>  0 0.14910528E+02</rscale>
<asrwt>0</asrwt>
<pdfrwt beam="2">  1        2 0.99187898E+00 0.14910528E+02</pdfrwt>
<pdfrwt beam="1">  1       -2 0.98794270E+00 0.14910528E+02</pdfrwt>
<totfact> 0.20007478E-13</totfact>
</mgrwt>
</event>
<event>
 4    1 -0.5119137E-019  0.1491568E+02  0.7818608E-02  0.1870652E+00
         -2   -1    0    0    0  501 -0.00000000000E+00  0.00000000000E+00  0.11951452237E+03  0.11951452240E+03  0.25500000000E-02 0. -1.
          2   -1    0    0  501    0  0.00000000000E+00 -0.00000000000E+00 -0.46537419355E+00  0.46538117981E+00  0.25500000000E-02 0.  1.
         31    1    1    2    0    0 -0.10598176848E+00 -0.37981312443E+00  0.58956981676E+02  0.59426762528E+02  0.74470750000E+01 0. -1.
        -31    1    1    2    0    0  0.10598176848E+00  0.37981312443E+00  0.60092166502E+02  0.60553141051E+02  0.74470750000E+01 0. -1.
<mgrwt>
<rscale>  0 0.14915682E+02</rscale>
<asrwt>0</asrwt>
<pdfrwt beam="2">  1        2 0.98842771E+00 0.14915682E+02</pdfrwt>
<pdfrwt beam="1">  1       -2 0.99207779E+00 0.14915682E+02</pdfrwt>
<totfact>-0.14403688E-13</totfact>
</mgrwt>
</event>
<event>
 4    1 -0.5119137E-019  0.1493562E+02  0.7818608E-02  0.1870039E+00
          2   -1    0    0  501    0  0.00000000000E+00  0.00000000000E+00  0.11864199521E+03  0.11864199524E+03  0.25500000000E-02 0.  1.
         -2   -1    0    0    0  501 -0.00000000000E+00 -0.00000000000E+00 -0.47005083246E+00  0.47005774921E+00  0.25500000000E-02 0. -1.
         31    1    1    2    0    0 -0.38838546500E+00  0.38464980715E+00  0.58270434656E+02  0.58746925705E+02  0.74470750000E+01 0. -1.
        -31    1    1    2    0    0  0.38838546500E+00 -0.38464980715E+00  0.59901509725E+02  0.60365127285E+02  0.74470750000E+01 0.  1.
<mgrwt>
<rscale>  0 0.14935619E+02</rscale>
<asrwt>0</asrwt>
<pdfrwt beam="1">  1        2 0.98490179E+00 0.14935619E+02</pdfrwt>
<pdfrwt beam="2">  1       -2 0.99829279E+00 0.14935619E+02</pdfrwt>
<totfact>-0.18398171E-13</totfact>
</mgrwt>
</event>
<event>
 4    1 -0.5119137E-019  0.1496026E+02  0.7818608E-02  0.1869284E+00
         -2   -1    0    0    0  501 -0.00000000000E+00  0.00000000000E+00  0.11992588835E+03  0.11992588837E+03  0.25500000000E-02 0. -1.
          2   -1    0    0  501    0  0.00000000000E+00 -0.00000000000E+00 -0.46655387001E+00  0.46656083860E+00  0.25500000000E-02 0.  1.
         31    1    1    2    0    0  0.29772310209E+00  0.62958323219E+00  0.58993496429E+02  0.59465759569E+02  0.74470750000E+01 0.  1.
        -31    1    1    2    0    0 -0.29772310209E+00 -0.62958323219E+00  0.60465838047E+02  0.60926689643E+02  0.74470750000E+01 0.  1.
<mgrwt>
<rscale>  0 0.14960255E+02</rscale>
<asrwt>0</asrwt>
<pdfrwt beam="2">  1        2 0.99093671E+00 0.14960255E+02</pdfrwt>
<pdfrwt beam="1">  1       -2 0.99548900E+00 0.14960255E+02</pdfrwt>
<totfact>-0.16100433E-13</totfact>
</mgrwt>
</event>
<event>
 4    1  0.5119137E-019  0.1491884E+02  0.7818608E-02  0.1870555E+00
          2   -1    0    0  501    0  0.00000000000E+00  0.00000000000E+00  0.12005133155E+03  0.12005133158E+03  0.25500000000E-02 0.  1.
         -2   -1    0    0    0  501 -0.00000000000E+00 -0.00000000000E+00 -0.46348971055E+00  0.46349672522E+00  0.25500000000E-02 0. -1.
         31    1    1    2    0    0 -0.22017662766E+00  0.36599829901E+00  0.59468518576E+02  0.59934514765E+02  0.74470750000E+01 0. -1.
        -31    1    1    2    0    0  0.22017662766E+00 -0.36599829901E+00  0.60119323266E+02  0.60580313539E+02  0.74470750000E+01 0.  1.
<mgrwt>
<rscale>  0 0.14918845E+02</rscale>
<asrwt>0</asrwt>
<pdfrwt beam="1">  1        2 0.99650092E+00 0.14918845E+02</pdfrwt>
<pdfrwt beam="2">  1       -2 0.98445770E+00 0.14918845E+02</pdfrwt>
<totfact> 0.45846230E-13</totfact>
</mgrwt>
</event>
<event>
 4    1 -0.5119137E-019  0.1491560E+02  0.7818608E-02  0.1870655E+00
         -2   -1    0    0    0  501 -0.00000000000E+00  0.00000000000E+00  0.12008530460E+03  0.12008530463E+03  0.25500000000E-02 0.  1.
          2   -1    0    0  501    0  0.00000000000E+00 -0.00000000000E+00 -0.46315725720E+00  0.46316427690E+00  0.25500000000E-02 0. -1.
         31    1    1    2    0    0  0.19542070405E-01 -0.22142502889E+00  0.62497279158E+02  0.62939798531E+02  0.74470750000E+01 0.  1.
        -31    1    1    2    0    0 -0.19542070405E-01  0.22142502889E+00  0.57124868186E+02  0.57608670374E+02  0.74470750000E+01 0. -1.
<mgrwt>
<rscale>  0 0.14915603E+02</rscale>
<asrwt>0</asrwt>
<pdfrwt beam="2">  1        2 0.98375536E+00 0.14915603E+02</pdfrwt>
<pdfrwt beam="1">  1       -2 0.99677908E+00 0.14915603E+02</pdfrwt>
<totfact>-0.35709966E-13</totfact>
</mgrwt>
</event>
<event>
 4    1 -0.5119137E-019  0.1495469E+02  0.7818608E-02  0.1869454E+00
          2   -1    0    0  501    0  0.00000000000E+00  0.00000000000E+00  0.11941144086E+03  0.11941144089E+03  0.25500000000E-02 0.  1.
         -2   -1    0    0    0  501 -0.00000000000E+00 -0.00000000000E+00 -0.46821536946E+00  0.46822231333E+00  0.25500000000E-02 0. -1.
         31    1    1    2    0    0  0.36306069410E-01 -0.46190703669E+00  0.55568398634E+02  0.56067107372E+02  0.74470750000E+01 0. -1.
        -31    1    1    2    0    0 -0.36306069410E-01  0.46190703669E+00  0.63374826855E+02  0.63812555827E+02  0.74470750000E+01 0.  1.
<mgrwt>
<rscale>  0 0.14954690E+02</rscale>
<asrwt>0</asrwt>
<pdfrwt beam="1">  1        2 0.99124893E+00 0.14954690E+02</pdfrwt>
<pdfrwt beam="2">  1       -2 0.99443521E+00 0.14954690E+02</pdfrwt>
<totfact>-0.15998170E-13</totfact>
</mgrwt>
</event>
<event>
 4    1 -0.5119137E-019  0.1492728E+02  0.7818608E-02  0.1870296E+00
          2   -1    0    0  501    0  0.00000000000E+00  0.00000000000E+00  0.11929369775E+03  0.11929369777E+03  0.25500000000E-02 0.  1.
         -2   -1    0    0    0  501 -0.00000000000E+00 -0.00000000000E+00 -0.46696121736E+00  0.46696817988E+00  0.25500000000E-02 0. -1.
         31    1    1    2    0    0  0.44450657265E+00 -0.11490749069E+00  0.57886204817E+02  0.58365078805E+02  0.74470750000E+01 0. -1.
        -31    1    1    2    0    0 -0.44450657265E+00  0.11490749069E+00  0.60940531712E+02  0.61395587148E+02  0.74470750000E+01 0.  1.
<mgrwt>
<rscale>  0 0.14927284E+02</rscale>
<asrwt>0</asrwt>
<pdfrwt beam="1">  1        2 0.99026498E+00 0.14927284E+02</pdfrwt>
<pdfrwt beam="2">  1       -2 0.99177814E+00 0.14927284E+02</pdfrwt>
<totfact>-0.10469423E-13</totfact>
</mgrwt>
</event>
<event>
 4    1  0.5119137E-019  0.1493096E+02  0.7818608E-02  0.1870182E+00
         -2   -1    0    0    0  501 -0.00000000000E+00  0.00000000000E+00  0.11874387345E+03  0.11874387348E+03  0.25500000000E-02 0.  1.
          2   -1    0    0  501    0  0.00000000000E+00 -0.00000000000E+00 -0.46935480741E+00  0.46936173442E+00  0.25500000000E-02 0. -1.
         31    1    1    2    0    0 -0.37244469939E+00  0.82047659881E-01  0.62005494170E+02  0.62452267215E+02  0.74470750000E+01 0.  1.
        -31    1    1    2    0    0  0.37244469939E+00 -0.82047659881E-01  0.56269024472E+02  0.56760967997E+02  0.74470750000E+01 0. -1.
<mgrwt>
<rscale>  0 0.14930964E+02</rscale>
<asrwt>0</asrwt>
<pdfrwt beam="2">  1        2 0.99682379E+00 0.14930964E+02</pdfrwt>
<pdfrwt beam="1">  1       -2 0.98573844E+00 0.14930964E+02</pdfrwt>
<totfact> 0.29789296E-13</totfact>
</mgrwt>
</event>
<event>
 4    1 -0.5119137E-019  0.1496866E+02  0.7818608E-02  0.1869026E+00
          2   -1    0    0  501    0  0.00000000000E+00  0.00000000000E+00  0.11938626302E+03  0.11938626305E+03  0.25500000000E-02 0.  1.
         -2   -1    0    0    0  501 -0.00000000000E+00 -0.00000000000E+00 -0.46918973605E+00  0.46919666550E+00  0.25500000000E-02 0. -1.
         31    1    1    2    0    0  0.47694896255E+00  0.47924444767E+00  0.56937325896E+02  0.57426258469E+02  0.74470750000E+01 0. -1.
        -31    1    1    2    0    0 -0.47694896255E+00 -0.47924444767E+00  0.61979747393E+02  0.62429201248E+02  0.74470750000E+01 0. -1.
<mgrwt>
<rscale>  0 0.14968664E+02</rscale>
<asrwt>0</asrwt>
<pdfrwt beam="1">  1        2 0.99104880E+00 0.14968664E+02</pdfrwt>
<pdfrwt beam="2">  1       -2 0.99649570E+00 0.14968664E+02</pdfrwt>
<totfact>-0.14320092E-13</totfact>
</mgrwt>
</event>
<event>
 4    1 -0.5119137E-019  0.1496461E+02  0.7818608E-02  0.1869150E+00
          2   -1    0    0  501    0  0.00000000000E+00  0.00000000000E+00  0.11952248301E+03  0.11952248303E+03  0.25500000000E-02 0. -1.
         -2   -1    0    0    0  501 -0.00000000000E+00 -0.00000000000E+00 -0.46840135536E+00  0.46840829647E+00  0.25500000000E-02 0.  1.
         31    1    1    2    0    0  0.46259202946E+00 -0.55639433706E+00  0.59132673356E+02  0.59604157156E+02  0.74470750000E+01 0.  1.
        -31    1    1    2    0    0 -0.46259202946E+00  0.55639433706E+00  0.59921408296E+02  0.60386734175E+02  0.74470750000E+01 0. -1.
<mgrwt>
<rscale>  0 0.14964613E+02</rscale>
<asrwt>0</asrwt>
<pdfrwt beam="1">  1        2 0.99216864E+00 0.14964613E+02</pdfrwt>
<pdfrwt beam="2">  1       -2 0.99483228E+00 0.14964613E+02</pdfrwt>
<totfact>-0.14984594E-13</totfact>
</mgrwt>
</event>
<event>
 4    1 -0.5119137E-019  0.1490500E+02  0.7818608E-02  0.1870981E+00
         -2   -1    0    0    0  501 -0.00000000000E+00  0.00000000000E+00  0.12042600717E+03  0.12042600720E+03  0.25500000000E-02 0.  1.
          2   -1    0    0  501    0  0.00000000000E+00 -0.00000000000E+00 -0.46119055910E+00  0.46119760873E+00  0.25500000000E-02 0. -1.
         31    1    1    2    0    0  0.17842733488E+00 -0.20266433214E+00  0.60704659059E+02  0.61160342271E+02  0.74470750000E+01 0.  1.
        -31    1    1    2    0    0 -0.17842733488E+00  0.20266433214E+00  0.59260157552E+02  0.59726862535E+02  0.74470750000E+01 0.  1.
<mgrwt>
<rscale>  0 0.14905001E+02</rscale>
<asrwt>0</asrwt>
<pdfrwt beam="2">  1        2 0.97960470E+00 0.14905001E+02</pdfrwt>
<pdfrwt beam="1">  1       -2 0.99957999E+00 0.14905001E+02</pdfrwt>
<totfact>-0.12200080E-13</totfact>
</mgrwt>
</event>
<event>
 4    1  0.5119137E-019  0.1490274E+02  0.7818608E-02  0.1871051E+00
         -2   -1    0    0    0  501 -0.00000000000E+00  0.00000000000E+00  0.11860248952E+03  0.11860248954E+03  0.25500000000E-02 0. -1.
          2   -1    0    0  501    0  0.00000000000E+00 -0.00000000000E+00 -0.46813913021E+00  0.46814607521E+00  0.25500000000E-02 0.  1.
         31    1    1    2    0    0  0.17376680908E+00 -0.17729459118E+00  0.59452602152E+02  0.59917714050E+02  0.74470750000E+01 0.  1.
        -31    1    1    2    0    0 -0.17376680908E+00  0.17729459118E+00  0.58681748234E+02  0.59152921569E+02  0.74470750000E+01 0.  1.
<mgrwt>
<rscale>  0 0.14902736E+02</rscale>
<asrwt>0</asrwt>
<pdfrwt beam="2">  1        2 0.99424744E+00 0.14902736E+02</pdfrwt>
<pdfrwt beam="1">  1       -2 0.98455932E+00 0.14902736E+02</pdfrwt>
<totfact> 0.58676964E-13</totfact>
</mgrwt>
</event>
<event>
 4    1 -0.5119137E-019  0.1492646E+02  0.7818608E-02  0.1870321E+00
         -2   -1    0    0    0  501 -0.00000000000E+00  0.00000000000E+00  0.11935342485E+03  0.11935342488E+03  0.25500000000E-02 0.  1.
          2   -1    0    0  501    0  0.00000000000E+00 -0.00000000000E+00 -0.46667624805E+00  0.46668321482E+00  0.25500000000E-02 0. -1.
         31    1    1    2    0    0  0.31120294212E+00  0.18761257930E+00  0.56794884016E+02  0.57282194635E+02  0.74470750000E+01 0. -1.
        -31    1    1    2    0    0 -0.31120294212E+00 -0.18761257930E+00  0.62091864584E+02  0.62537913456E+02  0.74470750000E+01 0.  1.
<mgrwt>
<rscale>  0 0.14926463E+02</rscale>
<asrwt>0</asrwt>
<pdfrwt beam="2">  1        2 0.99117719E+00 0.14926463E+02</pdfrwt>
<pdfrwt beam="1">  1       -2 0.99075649E+00 0.14926463E+02</pdfrwt>
<totfact>-0.41636101E-14</totfact>
</mgrwt>
</event>
<event>
 4    1 -0.5119137E-019  0.1503338E+02  0.7818608E-02  0.1867051E+00
         -2   -1    0    0    0  501 -0.00000000000E+00  0.00000000000E+00  0.12040481508E+03  0.12040481511E+03  0.25500000000E-02 0.  1.
          2   -1    0    0  501    0  0.00000000000E+00 -0.00000000000E+00 -0.46925228143E+00  0.46925920996E+00  0.25500000000E-02 0. -1.
         31    1    1    2    0    0  0.20928007271E+00 -0.33691797518E+00  0.67529227721E+02  0.67939773583E+02  0.74470750000E+01 0.  1.
        -31    1    1    2    0    0 -0.20928007271E+00  0.33691797518E+00  0.52406335082E+02  0.52934300738E+02  0.74470750000E+01 0. -1.
<mgrwt>
<rscale>  0 0.15033383E+02</rscale>
<asrwt>0</asrwt>
<pdfrwt beam="2">  1        2 0.99666102E+00 0.15033383E+02</pdfrwt>
<pdfrwt beam="1">  1       -2 0.99947142E+00 0.15033383E+02</pdfrwt>
<totfact>-0.16867141E-14</totfact>
</mgrwt>
</event>
<event>
 4    1 -0.5119137E-019  0.1491925E+02  0.7818608E-02  0.1870543E+00
         -2   -1    0    0    0  501 -0.00000000000E+00  0.00000000000E+00  0.11950101091E+03  0.11950101094E+03  0.25500000000E-02 0.  1.
          2   -1    0    0  501    0  0.00000000000E+00 -0.00000000000E+00 -0.46564976010E+00  0.46565674223E+00  0.25500000000E-02 0. -1.
         31    1    1    2    0    0  0.64535072569E-01 -0.40930535755E+00  0.58519299198E+02  0.58992702941E+02  0.74470750000E+01 0.  1.
        -31    1    1    2    0    0 -0.64535072569E-01  0.40930535755E+00  0.60516061950E+02  0.60973964736E+02  0.74470750000E+01 0. -1.
<mgrwt>
<rscale>  0 0.14919254E+02</rscale>
<asrwt>0</asrwt>
<pdfrwt beam="2">  1        2 0.98901028E+00 0.14919254E+02</pdfrwt>
<pdfrwt beam="1">  1       -2 0.99196834E+00 0.14919254E+02</pdfrwt>
<totfact>-0.12907799E-13</totfact>
</mgrwt>
</event>
<event>
 4    1 -0.5119137E-019  0.1498648E+02  0.7818608E-02  0.1868481E+00
         -2   -1    0    0    0  501 -0.00000000000E+00  0.00000000000E+00  0.11961511497E+03  0.11961511500E+03  0.25500000000E-02 0. -1.
          2   -1    0    0  501    0  0.00000000000E+00 -0.00000000000E+00 -0.46940764951E+00  0.46941457574E+00  0.25500000000E-02 0.  1.
         31    1    1    2    0    0 -0.45655599160E+00 -0.15819136054E+00  0.64985379395E+02  0.65412475332E+02  0.74470750000E+01 0. -1.
        -31    1    1    2    0    0  0.45655599160E+00  0.15819136054E+00  0.54160327926E+02  0.54672054242E+02  0.74470750000E+01 0.  1.
<mgrwt>
<rscale>  0 0.14986483E+02</rscale>
<asrwt>0</asrwt>
<pdfrwt beam="2">  1        2 0.99696417E+00 0.14986483E+02</pdfrwt>
<pdfrwt beam="1">  1       -2 0.99294291E+00 0.14986483E+02</pdfrwt>
<totfact>-0.76187106E-14</totfact>
</mgrwt>
</event>
<event>
 4    1 -0.5119137E-019  0.1496018E+02  0.7818608E-02  0.1869286E+00
         -2   -1    0    0    0  501 -0.00000000000E+00  0.00000000000E+00  0.12009092109E+03  0.12009092112E+03  0.25500000000E-02 0. -1.
          2   -1    0    0  501    0  0.00000000000E+00 -0.00000000000E+00 -0.46590783779E+00  0.46591481605E+00  0.25500000000E-02 0.  1.
         31    1    1    2    0    0  0.48211950471E+00 -0.14819967913E+00  0.63747136624E+02  0.64182635940E+02  0.74470750000E+01 0. -1.
        -31    1    1    2    0    0 -0.48211950471E+00  0.14819967913E+00  0.55877876632E+02  0.56374199998E+02  0.74470750000E+01 0.  1.
<mgrwt>
<rscale>  0 0.14960177E+02</rscale>
<asrwt>0</asrwt>
<pdfrwt beam="2">  1        2 0.98957516E+00 0.14960177E+02</pdfrwt>
<pdfrwt beam="1">  1       -2 0.99684827E+00 0.14960177E+02</pdfrwt>
<totfact>-0.15391853E-13</totfact>
</mgrwt>
</event>
<event>
 4    1 -0.5119137E-019  0.1494317E+02  0.7818608E-02  0.1869808E+00
         -2   -1    0    0    0  501 -0.00000000000E+00  0.00000000000E+00  0.11983306633E+03  0.11983306636E+03  0.25500000000E-02 0.  1.
          2   -1    0    0  501    0  0.00000000000E+00 -0.00000000000E+00 -0.46584942623E+00  0.46585640536E+00  0.25500000000E-02 0. -1.
         31    1    1    2    0    0  0.56853865551E+00 -0.12260295508E+00  0.58351198754E+02  0.58827371094E+02  0.74470750000E+01 0. -1.
        -31    1    1    2    0    0 -0.56853865551E+00  0.12260295508E+00  0.61016018152E+02  0.61471551672E+02  0.74470750000E+01 0.  1.
<mgrwt>
<rscale>  0 0.14943171E+02</rscale>
<asrwt>0</asrwt>
<pdfrwt beam="2">  1        2 0.98944335E+00 0.14943171E+02</pdfrwt>
<pdfrwt beam="1">  1       -2 0.99471566E+00 0.14943171E+02</pdfrwt>
<totfact>-0.18925484E-13</totfact>
</mgrwt>
</event>
<event>
 4    1 -0.5119137E-019  0.1497348E+02  0.7818608E-02  0.1868879E+00
         -2   -1    0    0    0  501 -0.00000000000E+00  0.00000000000E+00  0.12019793996E+03  0.12019793999E+03  0.25500000000E-02 0.  1.
          2   -1    0    0  501    0  0.00000000000E+00 -0.00000000000E+00 -0.46632113326E+00  0.46632810534E+00  0.25500000000E-02 0. -1.
         31    1    1    2    0    0 -0.55720462436E+00 -0.20308723987E+00  0.63818718028E+02  0.64254489479E+02  0.74470750000E+01 0. -1.
        -31    1    1    2    0    0  0.55720462436E+00  0.20308723987E+00  0.55912900798E+02  0.56409778613E+02  0.74470750000E+01 0.  1.
<mgrwt>
<rscale>  0 0.14973478E+02</rscale>
<asrwt>0</asrwt>
<pdfrwt beam="2">  1        2 0.99045299E+00 0.14973478E+02</pdfrwt>
<pdfrwt beam="1">  1       -2 0.99773659E+00 0.14973478E+02</pdfrwt>
<totfact>-0.11222494E-13</totfact>
</mgrwt>
</event>
<event>
 4    1 -0.5119137E-019  0.1494797E+02  0.7818608E-02  0.1869660E+00
          2   -1    0    0  501    0  0.00000000000E+00  0.00000000000E+00  0.11963164521E+03  0.11963164524E+03  0.25500000000E-02 0.  1.
         -2   -1    0    0    0  501 -0.00000000000E+00 -0.00000000000E+00 -0.46693380152E+00  0.46694076444E+00  0.25500000000E-02 0. -1.
         31    1    1    2    0    0  0.56524268913E+00 -0.24164165143E+00  0.58346446045E+02  0.58822993651E+02  0.74470750000E+01 0. -1.
        -31    1    1    2    0    0 -0.56524268913E+00  0.24164165143E+00  0.60818265368E+02  0.61275592355E+02  0.74470750000E+01 0.  1.
<mgrwt>
<rscale>  0 0.14947974E+02</rscale>
<asrwt>0</asrwt>
<pdfrwt beam="1">  1        2 0.99305914E+00 0.14947974E+02</pdfrwt>
<pdfrwt beam="2">  1       -2 0.99173106E+00 0.14947974E+02</pdfrwt>
<totfact>-0.82391232E-14</totfact>
</mgrwt>
</event>
<event>
 4    1  0.5119137E-019  0.1490089E+02  0.7818608E-02  0.1871108E+00
          2   -1    0    0  501    0  0.00000000000E+00  0.00000000000E+00  0.11986757819E+03  0.11986757821E+03  0.25500000000E-02 0. -1.
         -2   -1    0    0    0  501 -0.00000000000E+00 -0.00000000000E+00 -0.46308347081E+00  0.46309049162E+00  0.25500000000E-02 0.  1.
         31    1    1    2    0    0 -0.50539767548E-01  0.10981396349E+00  0.58179038199E+02  0.58653849194E+02  0.74470750000E+01 0. -1.
        -31    1    1    2    0    0  0.50539767548E-01 -0.10981396349E+00  0.61225456515E+02  0.61676819511E+02  0.74470750000E+01 0. -1.
<mgrwt>
<rscale>  0 0.14900888E+02</rscale>
<asrwt>0</asrwt>
<pdfrwt beam="1">  1        2 0.99497816E+00 0.14900888E+02</pdfrwt>
<pdfrwt beam="2">  1       -2 0.98359238E+00 0.14900888E+02</pdfrwt>
<totfact> 0.69767720E-13</totfact>
</mgrwt>
</event>
<event>
 4    1 -0.5119137E-019  0.1500527E+02  0.7818608E-02  0.1867908E+00
         -2   -1    0    0    0  501 -0.00000000000E+00  0.00000000000E+00  0.12030458888E+03  0.12030458891E+03  0.25500000000E-02 0.  1.
          2   -1    0    0  501    0  0.00000000000E+00 -0.00000000000E+00 -0.46788857561E+00  0.46789552433E+00  0.25500000000E-02 0. -1.
         31    1    1    2    0    0  0.76652081734E+00 -0.27759579085E-01  0.55956367591E+02  0.56454958372E+02  0.74470750000E+01 0. -1.
        -31    1    1    2    0    0 -0.76652081734E+00  0.27759579085E-01  0.63880332713E+02  0.64317526058E+02  0.74470750000E+01 0.  1.
<mgrwt>
<rscale>  0 0.15005274E+02</rscale>
<asrwt>0</asrwt>
<pdfrwt beam="2">  1        2 0.99377265E+00 0.15005274E+02</pdfrwt>
<pdfrwt beam="1">  1       -2 0.99863140E+00 0.15005274E+02</pdfrwt>
<totfact>-0.57372498E-14</totfact>
</mgrwt>
</event>
<event>
 4    1  0.5119137E-019  0.1493255E+02  0.7818608E-02  0.1870134E+00
         -2   -1    0    0    0  501 -0.00000000000E+00  0.00000000000E+00  0.11896552716E+03  0.11896552719E+03  0.25500000000E-02 0.  1.
          2   -1    0    0  501    0  0.00000000000E+00 -0.00000000000E+00 -0.46858006609E+00  0.46858700455E+00  0.25500000000E-02 0. -1.
         31    1    1    2    0    0 -0.43804108270E+00  0.23470622304E+00  0.57660919057E+02  0.58141959715E+02  0.74470750000E+01 0. -1.
        -31    1    1    2    0    0  0.43804108270E+00 -0.23470622304E+00  0.60836028041E+02  0.61292154481E+02  0.74470750000E+01 0. -1.
<mgrwt>
<rscale>  0 0.14932554E+02</rscale>
<asrwt>0</asrwt>
<pdfrwt beam="2">  1        2 0.99519216E+00 0.14932554E+02</pdfrwt>
<pdfrwt beam="1">  1       -2 0.98756482E+00 0.14932554E+02</pdfrwt>
<totfact> 0.18659006E-13</totfact>
</mgrwt>
</event>
<event>
 4    1 -0.5119137E-019  0.1495190E+02  0.7818608E-02  0.1869540E+00
          2   -1    0    0  501    0  0.00000000000E+00  0.00000000000E+00  0.11953719224E+03  0.11953719226E+03  0.25500000000E-02 0.  1.
         -2   -1    0    0    0  501 -0.00000000000E+00 -0.00000000000E+00 -0.46754810887E+00  0.46755506265E+00  0.25500000000E-02 0. -1.
         31    1    1    2    0    0  0.46939438389E+00 -0.59495483167E-01  0.63186546416E+02  0.63625642982E+02  0.74470750000E+01 0.  1.
        -31    1    1    2    0    0 -0.46939438389E+00  0.59495483167E-01  0.55883097713E+02  0.56379104346E+02  0.74470750000E+01 0. -1.
<mgrwt>
<rscale>  0 0.14951897E+02</rscale>
<asrwt>0</asrwt>
<pdfrwt beam="1">  1        2 0.99228321E+00 0.14951897E+02</pdfrwt>
<pdfrwt beam="2">  1       -2 0.99302765E+00 0.14951897E+02</pdfrwt>
<totfact>-0.12929642E-13</totfact>
</mgrwt>
</event>
<event>
 4    1 -0.5119137E-019  0.1493456E+02  0.7818608E-02  0.1870072E+00
          2   -1    0    0  501    0  0.00000000000E+00  0.00000000000E+00  0.11940948959E+03  0.11940948962E+03  0.25500000000E-02 0. -1.
         -2   -1    0    0    0  501 -0.00000000000E+00 -0.00000000000E+00 -0.46696362270E+00  0.46697058518E+00  0.25500000000E-02 0.  1.
         31    1    1    2    0    0 -0.40577850832E+00  0.30047083378E+00  0.57741462761E+02  0.58221906416E+02  0.74470750000E+01 0.  1.
        -31    1    1    2    0    0  0.40577850832E+00 -0.30047083378E+00  0.61201063207E+02  0.61654553786E+02  0.74470750000E+01 0. -1.
<mgrwt>
<rscale>  0 0.14934565E+02</rscale>
<asrwt>0</asrwt>
<pdfrwt beam="1">  1        2 0.99122245E+00 0.14934565E+02</pdfrwt>
<pdfrwt beam="2">  1       -2 0.99178698E+00 0.14934565E+02</pdfrwt>
<totfact>-0.96884450E-14</totfact>
</mgrwt>
</event>
<event>
 4    1  0.5119137E-019  0.1495987E+02  0.7818608E-02  0.1869295E+00
         -2   -1    0    0    0  501 -0.00000000000E+00  0.00000000000E+00  0.11916597500E+03  0.11916597502E+03  0.25500000000E-02 0. -1.
          2   -1    0    0  501    0  0.00000000000E+00 -0.00000000000E+00 -0.46950522993E+00  0.46951215472E+00  0.25500000000E-02 0.  1.
         31    1    1    2    0    0 -0.50388603604E+00  0.43356088452E+00  0.61112352555E+02  0.61568014724E+02  0.74470750000E+01 0.  1.
        -31    1    1    2    0    0  0.50388603604E+00 -0.43356088452E+00  0.57584117212E+02  0.58067472455E+02  0.74470750000E+01 0. -1.
<mgrwt>
<rscale>  0 0.14959875E+02</rscale>
<asrwt>0</asrwt>
<pdfrwt beam="2">  1        2 0.99715591E+00 0.14959875E+02</pdfrwt>
<pdfrwt beam="1">  1       -2 0.98922991E+00 0.14959875E+02</pdfrwt>
<totfact> 0.40191580E-14</totfact>
</mgrwt>
</event>
<event>
 4    1 -0.5119137E-019  0.1498855E+02  0.7818608E-02  0.1868418E+00
         -2   -1    0    0    0  501 -0.00000000000E+00  0.00000000000E+00  0.11989045719E+03  0.11989045722E+03  0.25500000000E-02 0. -1.
          2   -1    0    0  501    0  0.00000000000E+00 -0.00000000000E+00 -0.46845893921E+00  0.46846587946E+00  0.25500000000E-02 0.  1.
         31    1    1    2    0    0  0.78075860297E+00  0.22850035251E+00  0.58037098729E+02  0.58518591502E+02  0.74470750000E+01 0.  1.
        -31    1    1    2    0    0 -0.78075860297E+00 -0.22850035251E+00  0.61384899520E+02  0.61840331593E+02  0.74470750000E+01 0. -1.
<mgrwt>
<rscale>  0 0.14988552E+02</rscale>
<asrwt>0</asrwt>
<pdfrwt beam="2">  1        2 0.99496603E+00 0.14988552E+02</pdfrwt>
<pdfrwt beam="1">  1       -2 0.99521179E+00 0.14988552E+02</pdfrwt>
<totfact>-0.11893189E-13</totfact>
</mgrwt>
</event>
<event>
 4    1 -0.5119137E-019  0.1495276E+02  0.7818608E-02  0.1869514E+00
         -2   -1    0    0    0  501 -0.00000000000E+00  0.00000000000E+00  0.11982568036E+03  0.11982568039E+03  0.25500000000E-02 0.  1.
          2   -1    0    0  501    0  0.00000000000E+00 -0.00000000000E+00 -0.46647608379E+00  0.46648305354E+00  0.25500000000E-02 0. -1.
         31    1    1    2    0    0 -0.37660423255E+00 -0.11951189244E+00  0.55413611484E+02  0.55913177137E+02  0.74470750000E+01 0.  1.
        -31    1    1    2    0    0  0.37660423255E+00  0.11951189244E+00  0.63945592796E+02  0.64378986307E+02  0.74470750000E+01 0.  1.
<mgrwt>
<rscale>  0 0.14952757E+02</rscale>
<asrwt>0</asrwt>
<pdfrwt beam="2">  1        2 0.99076893E+00 0.14952757E+02</pdfrwt>
<pdfrwt beam="1">  1       -2 0.99465977E+00 0.14952757E+02</pdfrwt>
<totfact>-0.16702423E-13</totfact>
</mgrwt>
</event>
<event>
 4    1 -0.5119137E-019  0.1491168E+02  0.7818608E-02  0.1870776E+00
         -2   -1    0    0    0  501 -0.00000000000E+00  0.00000000000E+00  0.11962406640E+03  0.11962406643E+03  0.25500000000E-02 0.  1.
          2   -1    0    0  501    0  0.00000000000E+00 -0.00000000000E+00 -0.46469877693E+00  0.46470577334E+00  0.25500000000E-02 0. -1.
         31    1    1    2    0    0  0.32910719119E+00  0.65581579053E-01  0.58497999851E+02  0.58971073630E+02  0.74470750000E+01 0. -1.
        -31    1    1    2    0    0 -0.32910719119E+00 -0.65581579053E-01  0.60661367772E+02  0.61117698570E+02  0.74470750000E+01 0.  1.
<mgrwt>
<rscale>  0 0.14911684E+02</rscale>
<asrwt>0</asrwt>
<pdfrwt beam="2">  1        2 0.98700224E+00 0.14911684E+02</pdfrwt>
<pdfrwt beam="1">  1       -2 0.99297799E+00 0.14911684E+02</pdfrwt>
<totfact>-0.22083147E-13</totfact>
</mgrwt>
</event>
<event>
 4    1  0.5119137E-019  0.1493893E+02  0.7818608E-02  0.1869938E+00
          2   -1    0    0  501    0  0.00000000000E+00  0.00000000000E+00  0.11991116145E+03  0.11991116148E+03  0.25500000000E-02 0.  1.
         -2   -1    0    0    0  501 -0.00000000000E+00 -0.00000000000E+00 -0.46528186794E+00  0.46528885559E+00  0.25500000000E-02 0. -1.
         31    1    1    2    0    0  0.15850084721E+00 -0.30541688073E+00  0.55981578657E+02  0.56475786643E+02  0.74470750000E+01 0. -1.
        -31    1    1    2    0    0 -0.15850084721E+00  0.30541688073E+00  0.63464300926E+02  0.63900663690E+02  0.74470750000E+01 0.  1.
<mgrwt>
<rscale>  0 0.14938931E+02</rscale>
<asrwt>0</asrwt>
<pdfrwt beam="1">  1        2 0.99535671E+00 0.14938931E+02</pdfrwt>
<pdfrwt beam="2">  1       -2 0.98824505E+00 0.14938931E+02</pdfrwt>
<totfact> 0.12558644E-13</totfact>
</mgrwt>
</event>
<event>
 4    1 -0.5119137E-019  0.1497016E+02  0.7818608E-02  0.1868980E+00
         -2   -1    0    0    0  501 -0.00000000000E+00  0.00000000000E+00  0.12041452587E+03  0.12041452590E+03  0.25500000000E-02 0. -1.
          2   -1    0    0  501    0  0.00000000000E+00 -0.00000000000E+00 -0.46527614266E+00  0.46528313039E+00  0.25500000000E-02 0.  1.
         31    1    1    2    0    0 -0.54975175399E+00  0.14026635167E+00  0.55972933497E+02  0.56469019045E+02  0.74470750000E+01 0.  1.
        -31    1    1    2    0    0  0.54975175399E+00 -0.14026635167E+00  0.63976316235E+02  0.64410789987E+02  0.74470750000E+01 0. -1.
<mgrwt>
<rscale>  0 0.14970161E+02</rscale>
<asrwt>0</asrwt>
<pdfrwt beam="2">  1        2 0.98824891E+00 0.14970161E+02</pdfrwt>
<pdfrwt beam="1">  1       -2 0.99951884E+00 0.14970161E+02</pdfrwt>
<totfact>-0.35261252E-14</totfact>
</mgrwt>
</event>
<event>
 4    1  0.5119137E-019  0.1490864E+02  0.7818608E-02  0.1870869E+00
         -2   -1    0    0    0  501 -0.00000000000E+00  0.00000000000E+00  0.11824158875E+03  0.11824158878E+03  0.25500000000E-02 0.  1.
          2   -1    0    0  501    0  0.00000000000E+00 -0.00000000000E+00 -0.46994008726E+00  0.46994700564E+00  0.25500000000E-02 0. -1.
         31    1    1    2    0    0 -0.57120394606E-01 -0.26672447274E+00  0.60344177944E+02  0.60802575130E+02  0.74470750000E+01 0.  1.
        -31    1    1    2    0    0  0.57120394606E-01  0.26672447274E+00  0.57427470719E+02  0.57908960653E+02  0.74470750000E+01 0. -1.
<mgrwt>
<rscale>  0 0.14908638E+02</rscale>
<asrwt>0</asrwt>
<pdfrwt beam="2">  1        2 0.99804519E+00 0.14908638E+02</pdfrwt>
<pdfrwt beam="1">  1       -2 0.98159004E+00 0.14908638E+02</pdfrwt>
<totfact> 0.57363677E-13</totfact>
</mgrwt>
</event>
<event>
 4    1  0.5119137E-019  0.1492625E+02  0.7818608E-02  0.1870327E+00
         -2   -1    0    0    0  501 -0.00000000000E+00  0.00000000000E+00  0.11879597020E+03  0.11879597022E+03  0.25500000000E-02 0. -1.
          2   -1    0    0  501    0  0.00000000000E+00 -0.00000000000E+00 -0.46885279126E+00  0.46885972569E+00  0.25500000000E-02 0.  1.
         31    1    1    2    0    0 -0.15029723222E+00  0.41252256236E+00  0.57439673284E+02  0.57922083502E+02  0.74470750000E+01 0.  1.
        -31    1    1    2    0    0  0.15029723222E+00 -0.41252256236E+00  0.60887444122E+02  0.61342746449E+02  0.74470750000E+01 0. -1.
<mgrwt>
<rscale>  0 0.14926250E+02</rscale>
<asrwt>0</asrwt>
<pdfrwt beam="2">  1        2 0.99576353E+00 0.14926250E+02</pdfrwt>
<pdfrwt beam="1">  1       -2 0.98616506E+00 0.14926250E+02</pdfrwt>
<totfact> 0.30833436E-13</totfact>
</mgrwt>
</event>
<event>
 4    1 -0.5119137E-019  0.1491360E+02  0.7818608E-02  0.1870716E+00
          2   -1    0    0  501    0  0.00000000000E+00  0.00000000000E+00  0.11886343238E+03  0.11886343240E+03  0.25500000000E-02 0.  1.
         -2   -1    0    0    0  501 -0.00000000000E+00 -0.00000000000E+00 -0.46779292107E+00  0.46779987121E+00  0.25500000000E-02 0. -1.
         31    1    1    2    0    0  0.34863755674E+00  0.10760890197E-01  0.60419158304E+02  0.60877379051E+02  0.74470750000E+01 0. -1.
        -31    1    1    2    0    0 -0.34863755674E+00 -0.10760890197E-01  0.57976481152E+02  0.58453853224E+02  0.74470750000E+01 0. -1.
<mgrwt>
<rscale>  0 0.14913603E+02</rscale>
<asrwt>0</asrwt>
<pdfrwt beam="1">  1        2 0.98671412E+00 0.14913603E+02</pdfrwt>
<pdfrwt beam="2">  1       -2 0.99352362E+00 0.14913603E+02</pdfrwt>
<totfact>-0.24964287E-13</totfact>
</mgrwt>
</event>
<event>
 4    1 -0.5119137E-019  0.1492771E+02  0.7818608E-02  0.1870282E+00
         -2   -1    0    0    0  501 -0.00000000000E+00  0.00000000000E+00  0.11967712599E+03  0.11967712602E+03  0.25500000000E-02 0.  1.
          2   -1    0    0  501    0  0.00000000000E+00 -0.00000000000E+00 -0.46549182195E+00  0.46549880645E+00  0.25500000000E-02 0. -1.
         31    1    1    2    0    0  0.27476773849E+00  0.22339413127E+00  0.56762406599E+02  0.57249935644E+02  0.74470750000E+01 0.  1.
        -31    1    1    2    0    0 -0.27476773849E+00 -0.22339413127E+00  0.62449227568E+02  0.62892689179E+02  0.74470750000E+01 0.  1.
<mgrwt>
<rscale>  0 0.14927712E+02</rscale>
<asrwt>0</asrwt>
<pdfrwt beam="2">  1        2 0.98868178E+00 0.14927712E+02</pdfrwt>
<pdfrwt beam="1">  1       -2 0.99342328E+00 0.14927712E+02</pdfrwt>
<totfact>-0.19018022E-13</totfact>
</mgrwt>
</event>
<event>
 4    1 -0.5119137E-019  0.1495675E+02  0.7818608E-02  0.1869391E+00
         -2   -1    0    0    0  501 -0.00000000000E+00  0.00000000000E+00  0.11948421713E+03  0.11948421716E+03  0.25500000000E-02 0. -1.
          2   -1    0    0  501    0  0.00000000000E+00 -0.00000000000E+00 -0.46805902647E+00  0.46806597265E+00  0.25500000000E-02 0.  1.
         31    1    1    2    0    0 -0.46248391206E+00  0.25812977258E+00  0.56043350340E+02  0.56538452099E+02  0.74470750000E+01 0.  1.
        -31    1    1    2    0    0  0.46248391206E+00 -0.25812977258E+00  0.62972807763E+02  0.63413831030E+02  0.74470750000E+01 0. -1.
<mgrwt>
<rscale>  0 0.14956749E+02</rscale>
<asrwt>0</asrwt>
<pdfrwt beam="2">  1        2 0.99410682E+00 0.14956749E+02</pdfrwt>
<pdfrwt beam="1">  1       -2 0.99184940E+00 0.14956749E+02</pdfrwt>
<totfact>-0.80333762E-14</totfact>
</mgrwt>
</event>
<event>
 4    1 -0.5119137E-019  0.1492065E+02  0.7818608E-02  0.1870500E+00
         -2   -1    0    0    0  501 -0.00000000000E+00  0.00000000000E+00  0.12005086589E+03  0.12005086591E+03  0.25500000000E-02 0. -1.
          2   -1    0    0  501    0  0.00000000000E+00 -0.00000000000E+00 -0.46360345920E+00  0.46361047214E+00  0.25500000000E-02 0.  1.
         31    1    1    2    0    0  0.27122180029E+00 -0.71790882796E-01  0.62577332521E+02  0.63019522267E+02  0.74470750000E+01 0. -1.
        -31    1    1    2    0    0 -0.27122180029E+00  0.71790882796E-01  0.57009929905E+02  0.57494954118E+02  0.74470750000E+01 0.  1.
<mgrwt>
<rscale>  0 0.14920646E+02</rscale>
<asrwt>0</asrwt>
<pdfrwt beam="2">  1        2 0.98469836E+00 0.14920646E+02</pdfrwt>
<pdfrwt beam="1">  1       -2 0.99649801E+00 0.14920646E+02</pdfrwt>
<totfact>-0.32051365E-13</totfact>
</mgrwt>
</event>
<event>
 4    1  0.5119137E-019  0.1490774E+02  0.7818608E-02  0.1870897E+00
         -2   -1    0    0    0  501 -0.00000000000E+00  0.00000000000E+00  0.11909166648E+03  0.11909166651E+03  0.25500000000E-02 0. -1.
          2   -1    0    0  501    0  0.00000000000E+00 -0.00000000000E+00 -0.46652928388E+00  0.46653625284E+00  0.25500000000E-02 0.  1.
         31    1    1    2    0    0  0.13944539091E+00 -0.26615678023E+00  0.60152077721E+02  0.60612058739E+02  0.74470750000E+01 0. -1.
        -31    1    1    2    0    0 -0.13944539091E+00  0.26615678023E+00  0.58473059475E+02  0.58946144020E+02  0.74470750000E+01 0. -1.
<mgrwt>
<rscale>  0 0.14907739E+02</rscale>
<asrwt>0</asrwt>
<pdfrwt beam="2">  1        2 0.99085780E+00 0.14907739E+02</pdfrwt>
<pdfrwt beam="1">  1       -2 0.98859087E+00 0.14907739E+02</pdfrwt>
<totfact> 0.14264936E-13</totfact>
</mgrwt>
</event>
<event>
 4    1 -0.5119137E-019  0.1489967E+02  0.7818608E-02  0.1871146E+00
         -2   -1    0    0    0  501 -0.00000000000E+00  0.00000000000E+00  0.11989836648E+03  0.11989836651E+03  0.25500000000E-02 0. -1.
          2   -1    0    0  501    0  0.00000000000E+00 -0.00000000000E+00 -0.46288866606E+00  0.46289568983E+00  0.25500000000E-02 0.  1.
         31    1    1    2    0    0  0.30933706224E-01 -0.14720929351E+00  0.58620014455E+02  0.59091350029E+02  0.74470750000E+01 0.  1.
        -31    1    1    2    0    0 -0.30933706224E-01  0.14720929351E+00  0.60815463360E+02  0.61269912169E+02  0.74470750000E+01 0. -1.
<mgrwt>
<rscale>  0 0.14899667E+02</rscale>
<asrwt>0</asrwt>
<pdfrwt beam="2">  1        2 0.98318118E+00 0.14899667E+02</pdfrwt>
<pdfrwt beam="1">  1       -2 0.99523113E+00 0.14899667E+02</pdfrwt>
<totfact>-0.46629725E-13</totfact>
</mgrwt>
</event>
<event>
 4    1  0.5119137E-019  0.1489857E+02  0.7818608E-02  0.1871179E+00
          2   -1    0    0  501    0  0.00000000000E+00  0.00000000000E+00  0.11973394308E+03  0.11973394311E+03  0.25500000000E-02 0.  1.
         -2   -1    0    0    0  501 -0.00000000000E+00 -0.00000000000E+00 -0.46345631036E+00  0.46346332553E+00  0.25500000000E-02 0. -1.
         31    1    1    2    0    0 -0.84677564568E-01  0.23265721331E-01  0.60916894935E+02  0.61370471126E+02  0.74470750000E+01 0.  1.
        -31    1    1    2    0    0  0.84677564568E-01 -0.23265721331E-01  0.58353591838E+02  0.58826935311E+02  0.74470750000E+01 0. -1.
<mgrwt>
<rscale>  0 0.14898574E+02</rscale>
<asrwt>0</asrwt>
<pdfrwt beam="1">  1        2 0.99387625E+00 0.14898574E+02</pdfrwt>
<pdfrwt beam="2">  1       -2 0.98437700E+00 0.14898574E+02</pdfrwt>
<totfact> 0.63449278E-13</totfact>
</mgrwt>
</event>
<event>
 4    1  0.5119137E-019  0.1491609E+02  0.7818608E-02  0.1870640E+00
         -2   -1    0    0    0  501 -0.00000000000E+00  0.00000000000E+00  0.11904015453E+03  0.11904015456E+03  0.25500000000E-02 0. -1.
          2   -1    0    0  501    0  0.00000000000E+00 -0.00000000000E+00 -0.46725424809E+00  0.46726120624E+00  0.25500000000E-02 0.  1.
         31    1    1    2    0    0  0.24403853274E-01  0.36447557676E+00  0.57897087409E+02  0.58375209588E+02  0.74470750000E+01 0.  1.
        -31    1    1    2    0    0 -0.24403853274E-01 -0.36447557676E+00  0.60675812876E+02  0.61132206179E+02  0.74470750000E+01 0. -1.
<mgrwt>
<rscale>  0 0.14916090E+02</rscale>
<asrwt>0</asrwt>
<pdfrwt beam="2">  1        2 0.99238982E+00 0.14916090E+02</pdfrwt>
<pdfrwt beam="1">  1       -2 0.98817093E+00 0.14916090E+02</pdfrwt>
<totfact> 0.16866821E-13</totfact>
</mgrwt>
</event>
<event>
 4    1 -0.5119137E-019  0.1496065E+02  0.7818608E-02  0.1869272E+00
          2   -1    0    0  501    0  0.00000000000E+00  0.00000000000E+00  0.11894350337E+03  0.11894350340E+03  0.25500000000E-02 0.  1.
         -2   -1    0    0    0  501 -0.00000000000E+00 -0.00000000000E+00 -0.47043209818E+00  0.47043900933E+00  0.25500000000E-02 0. -1.
         31    1    1    2    0    0 -0.16054367651E+00  0.37687144214E+00  0.54661568665E+02  0.55168050730E+02  0.74470750000E+01 0. -1.
        -31    1    1    2    0    0  0.16054367651E+00 -0.37687144214E+00  0.63811502608E+02  0.64245891678E+02  0.74470750000E+01 0.  1.
<mgrwt>
<rscale>  0 0.14960649E+02</rscale>
<asrwt>0</asrwt>
<pdfrwt beam="1">  1        2 0.98739803E+00 0.14960649E+02</pdfrwt>
<pdfrwt beam="2">  1       -2 0.99910932E+00 0.14960649E+02</pdfrwt>
<totfact>-0.70620281E-14</totfact>
</mgrwt>
</event>
<event>
 4    1  0.5119137E-019  0.1493120E+02  0.7818608E-02  0.1870175E+00
          2   -1    0    0  501    0  0.00000000000E+00  0.00000000000E+00  0.12032187687E+03  0.12032187689E+03  0.25500000000E-02 0. -1.
         -2   -1    0    0    0  501 -0.00000000000E+00 -0.00000000000E+00 -0.46321391266E+00  0.46322093151E+00  0.25500000000E-02 0.  1.
         31    1    1    2    0    0 -0.52243469938E+00 -0.36025397827E-01  0.59564769480E+02  0.60030783146E+02  0.74470750000E+01 0. -1.
        -31    1    1    2    0    0  0.52243469938E+00  0.36025397827E-01  0.60293893473E+02  0.60754314678E+02  0.74470750000E+01 0. -1.
<mgrwt>
<rscale>  0 0.14931201E+02</rscale>
<asrwt>0</asrwt>
<pdfrwt beam="1">  1        2 0.99873570E+00 0.14931201E+02</pdfrwt>
<pdfrwt beam="2">  1       -2 0.98388267E+00 0.14931201E+02</pdfrwt>
<totfact> 0.24465843E-13</totfact>
</mgrwt>
</event>
<event>
 4    1 -0.5119137E-019  0.1497648E+02  0.7818608E-02  0.1868787E+00
          2   -1    0    0  501    0  0.00000000000E+00  0.00000000000E+00  0.11938876785E+03  0.11938876787E+03  0.25500000000E-02 0. -1.
         -2   -1    0    0    0  501 -0.00000000000E+00 -0.00000000000E+00 -0.46966974465E+00  0.46967666702E+00  0.25500000000E-02 0.  1.
         31    1    1    2    0    0  0.19537308422E+00  0.46542309411E+00  0.54657725768E+02  0.55165031510E+02  0.74470750000E+01 0.  1.
        -31    1    1    2    0    0 -0.19537308422E+00 -0.46542309411E+00  0.64261372332E+02  0.64693413029E+02  0.74470750000E+01 0. -1.
<mgrwt>
<rscale>  0 0.14976476E+02</rscale>
<asrwt>0</asrwt>
<pdfrwt beam="1">  1        2 0.99107348E+00 0.14976476E+02</pdfrwt>
<pdfrwt beam="2">  1       -2 0.99751125E+00 0.14976476E+02</pdfrwt>
<totfact>-0.11435292E-13</totfact>
</mgrwt>
</event>
<event>
 4    1 -0.5119137E-019  0.1490357E+02  0.7818608E-02  0.1871025E+00
         -2   -1    0    0    0  501 -0.00000000000E+00  0.00000000000E+00  0.11987613322E+03  0.11987613325E+03  0.25500000000E-02 0. -1.
          2   -1    0    0  501    0  0.00000000000E+00 -0.00000000000E+00 -0.46321697285E+00  0.46322399165E+00  0.25500000000E-02 0.  1.
         31    1    1    2    0    0  0.16538278814E+00  0.16125851195E+00  0.60753089291E+02  0.61208252224E+02  0.74470750000E+01 0. -1.
        -31    1    1    2    0    0 -0.16538278814E+00 -0.16125851195E+00  0.58659826959E+02  0.59131105019E+02  0.74470750000E+01 0. -1.
<mgrwt>
<rscale>  0 0.14903568E+02</rscale>
<asrwt>0</asrwt>
<pdfrwt beam="2">  1        2 0.98387511E+00 0.14903568E+02</pdfrwt>
<pdfrwt beam="1">  1       -2 0.99505000E+00 0.14903568E+02</pdfrwt>
<totfact>-0.41742794E-13</totfact>
</mgrwt>
</event>
<event>
 4    1  0.5119137E-019  0.1493099E+02  0.7818608E-02  0.1870182E+00
          2   -1    0    0  501    0  0.00000000000E+00  0.00000000000E+00  0.12016138588E+03  0.12016138591E+03  0.25500000000E-02 0.  1.
         -2   -1    0    0    0  501 -0.00000000000E+00 -0.00000000000E+00 -0.46381926630E+00  0.46382627598E+00  0.25500000000E-02 0. -1.
         31    1    1    2    0    0  0.34863229173E+00 -0.12583263678E+00  0.62842167686E+02  0.63282970409E+02  0.74470750000E+01 0.  1.
        -31    1    1    2    0    0 -0.34863229173E+00  0.12583263678E+00  0.56855398932E+02  0.57342241778E+02  0.74470750000E+01 0. -1.
<mgrwt>
<rscale>  0 0.14930987E+02</rscale>
<asrwt>0</asrwt>
<pdfrwt beam="1">  1        2 0.99741365E+00 0.14930987E+02</pdfrwt>
<pdfrwt beam="2">  1       -2 0.98515845E+00 0.14930987E+02</pdfrwt>
<totfact> 0.30849757E-13</totfact>
</mgrwt>
</event>
<event>
 4    1 -0.5119137E-019  0.1491876E+02  0.7818608E-02  0.1870558E+00
          2   -1    0    0  501    0  0.00000000000E+00  0.00000000000E+00  0.11863517343E+03  0.11863517345E+03  0.25500000000E-02 0.  1.
         -2   -1    0    0    0  501 -0.00000000000E+00 -0.00000000000E+00 -0.46901741196E+00  0.46902434395E+00  0.25500000000E-02 0. -1.
         31    1    1    2    0    0 -0.21785526692E+00 -0.17431238758E+00  0.61677471258E+02  0.62126059206E+02  0.74470750000E+01 0.  1.
        -31    1    1    2    0    0  0.21785526692E+00  0.17431238758E+00  0.56488684757E+02  0.56978138592E+02  0.74470750000E+01 0. -1.
<mgrwt>
<rscale>  0 0.14918764E+02</rscale>
<asrwt>0</asrwt>
<pdfrwt beam="1">  1        2 0.98483684E+00 0.14918764E+02</pdfrwt>
<pdfrwt beam="2">  1       -2 0.99610647E+00 0.14918764E+02</pdfrwt>
<totfact>-0.33054344E-13</totfact>
</mgrwt>
</event>
<event>
 4    1  0.5119137E-019  0.1493757E+02  0.7818608E-02  0.1869980E+00
         -2   -1    0    0    0  501 -0.00000000000E+00  0.00000000000E+00  0.11862387197E+03  0.11862387200E+03  0.25500000000E-02 0. -1.
          2   -1    0    0  501    0  0.00000000000E+00 -0.00000000000E+00 -0.47024525963E+00  0.47025217353E+00  0.25500000000E-02 0.  1.
         31    1    1    2    0    0 -0.10072148880E-01  0.49279897733E+00  0.61343786506E+02  0.61796132737E+02  0.74470750000E+01 0. -1.
        -31    1    1    2    0    0  0.10072148880E-01 -0.49279897733E+00  0.56809840205E+02  0.57297991435E+02  0.74470750000E+01 0.  1.
<mgrwt>
<rscale>  0 0.14937567E+02</rscale>
<asrwt>0</asrwt>
<pdfrwt beam="2">  1        2 0.99870348E+00 0.14937567E+02</pdfrwt>
<pdfrwt beam="1">  1       -2 0.98475354E+00 0.14937567E+02</pdfrwt>
<totfact> 0.19982938E-13</totfact>
</mgrwt>
</event>
<event>
 4    1 -0.5119137E-019  0.1496361E+02  0.7818608E-02  0.1869181E+00
         -2   -1    0    0    0  501 -0.00000000000E+00  0.00000000000E+00  0.12005363321E+03  0.12005363324E+03  0.25500000000E-02 0. -1.
          2   -1    0    0  501    0  0.00000000000E+00 -0.00000000000E+00 -0.46626665586E+00  0.46627362875E+00  0.25500000000E-02 0.  1.
         31    1    1    2    0    0  0.54069300964E+00 -0.24943100220E+00  0.63054759341E+02  0.63495796447E+02  0.74470750000E+01 0. -1.
        -31    1    1    2    0    0 -0.54069300964E+00  0.24943100220E+00  0.56532607212E+02  0.57024110418E+02  0.74470750000E+01 0. -1.
<mgrwt>
<rscale>  0 0.14963613E+02</rscale>
<asrwt>0</asrwt>
<pdfrwt beam="2">  1        2 0.99033313E+00 0.14963613E+02</pdfrwt>
<pdfrwt beam="1">  1       -2 0.99654291E+00 0.14963613E+02</pdfrwt>
<totfact>-0.15112011E-13</totfact>
</mgrwt>
</event>
<event>
 4    1 -0.5119137E-019  0.1492685E+02  0.7818608E-02  0.1870309E+00
         -2   -1    0    0    0  501 -0.00000000000E+00  0.00000000000E+00  0.11991569595E+03  0.11991569598E+03  0.25500000000E-02 0.  1.
          2   -1    0    0  501    0  0.00000000000E+00 -0.00000000000E+00 -0.46451180793E+00  0.46451880716E+00  0.25500000000E-02 0. -1.
         31    1    1    2    0    0 -0.76511800890E-01  0.48534812271E+00  0.59335747652E+02  0.59803271585E+02  0.74470750000E+01 0.  1.
        -31    1    1    2    0    0  0.76511800890E-01 -0.48534812271E+00  0.60115436491E+02  0.60576943199E+02  0.74470750000E+01 0.  1.
<mgrwt>
<rscale>  0 0.14926846E+02</rscale>
<asrwt>0</asrwt>
<pdfrwt beam="2">  1        2 0.98661595E+00 0.14926846E+02</pdfrwt>
<pdfrwt beam="1">  1       -2 0.99538784E+00 0.14926846E+02</pdfrwt>
<totfact>-0.26620413E-13</totfact>
</mgrwt>
</event>
<event>
 4    1 -0.5119137E-019  0.1495647E+02  0.7818608E-02  0.1869400E+00
          2   -1    0    0  501    0  0.00000000000E+00  0.00000000000E+00  0.11989409574E+03  0.11989409576E+03  0.25500000000E-02 0. -1.
         -2   -1    0    0    0  501 -0.00000000000E+00 -0.00000000000E+00 -0.46644157590E+00  0.46644854617E+00  0.25500000000E-02 0.  1.
         31    1    1    2    0    0 -0.16208647429E+00  0.59451359709E+00  0.62065091275E+02  0.62513312178E+02  0.74470750000E+01 0. -1.
        -31    1    1    2    0    0  0.16208647429E+00 -0.59451359709E+00  0.57362562887E+02  0.57847232133E+02  0.74470750000E+01 0. -1.
<mgrwt>
<rscale>  0 0.14956472E+02</rscale>
<asrwt>0</asrwt>
<pdfrwt beam="1">  1        2 0.99522519E+00 0.14956472E+02</pdfrwt>
<pdfrwt beam="2">  1       -2 0.99069811E+00 0.14956472E+02</pdfrwt>
<totfact>-0.27374811E-14</totfact>
</mgrwt>
</event>
<event>
 4    1  0.5119137E-019  0.1491955E+02  0.7818608E-02  0.1870533E+00
         -2   -1    0    0    0  501 -0.00000000000E+00  0.00000000000E+00  0.11905311273E+03  0.11905311276E+03  0.25500000000E-02 0. -1.
          2   -1    0    0  501    0  0.00000000000E+00 -0.00000000000E+00 -0.46742025090E+00  0.46742720658E+00  0.25500000000E-02 0.  1.
         31    1    1    2    0    0  0.38293969234E+00 -0.97368802005E-02  0.57639598870E+02  0.58119953729E+02  0.74470750000E+01 0.  1.
        -31    1    1    2    0    0 -0.38293969234E+00  0.97368802005E-02  0.60946093612E+02  0.61400586237E+02  0.74470750000E+01 0. -1.
<mgrwt>
<rscale>  0 0.14919551E+02</rscale>
<asrwt>0</asrwt>
<pdfrwt beam="2">  1        2 0.99274143E+00 0.14919551E+02</pdfrwt>
<pdfrwt beam="1">  1       -2 0.98827945E+00 0.14919551E+02</pdfrwt>
<totfact> 0.15363921E-13</totfact>
</mgrwt>
</event>
<event>
 4    1 -0.5119137E-019  0.1499988E+02  0.7818608E-02  0.1868072E+00
          2   -1    0    0  501    0  0.00000000000E+00  0.00000000000E+00  0.11999857486E+03  0.11999857488E+03  0.25500000000E-02 0. -1.
         -2   -1    0    0    0  501 -0.00000000000E+00 -0.00000000000E+00 -0.46874437159E+00  0.46875130762E+00  0.25500000000E-02 0.  1.
         31    1    1    2    0    0  0.28888193403E+00  0.39303326647E-01  0.53020829658E+02  0.53542061047E+02  0.74470750000E+01 0.  1.
        -31    1    1    2    0    0 -0.28888193403E+00 -0.39303326647E-01  0.66509000828E+02  0.66925265145E+02  0.74470750000E+01 0. -1.
<mgrwt>
<rscale>  0 0.14999877E+02</rscale>
<asrwt>0</asrwt>
<pdfrwt beam="1">  1        2 0.99610814E+00 0.14999877E+02</pdfrwt>
<pdfrwt beam="2">  1       -2 0.99557339E+00 0.14999877E+02</pdfrwt>
<totfact>-0.10119479E-13</totfact>
</mgrwt>
</event>
<event>
 4    1 -0.5119137E-019  0.1495757E+02  0.7818608E-02  0.1869366E+00
          2   -1    0    0  501    0  0.00000000000E+00  0.00000000000E+00  0.11960780908E+03  0.11960780911E+03  0.25500000000E-02 0. -1.
         -2   -1    0    0    0  501 -0.00000000000E+00 -0.00000000000E+00 -0.46762687674E+00  0.46763382935E+00  0.25500000000E-02 0.  1.
         31    1    1    2    0    0 -0.40506125953E+00  0.18999515500E+00  0.63765659654E+02  0.64200610978E+02  0.74470750000E+01 0. -1.
        -31    1    1    2    0    0  0.40506125953E+00 -0.18999515500E+00  0.55374522552E+02  0.55874831961E+02  0.74470750000E+01 0.  1.
<mgrwt>
<rscale>  0 0.14957573E+02</rscale>
<asrwt>0</asrwt>
<pdfrwt beam="1">  1        2 0.99286777E+00 0.14957573E+02</pdfrwt>
<pdfrwt beam="2">  1       -2 0.99319657E+00 0.14957573E+02</pdfrwt>
<totfact>-0.12752597E-13</totfact>
</mgrwt>
</event>
<event>
 4    1 -0.5119137E-019  0.1499825E+02  0.7818608E-02  0.1868122E+00
          2   -1    0    0  501    0  0.00000000000E+00  0.00000000000E+00  0.11978749630E+03  0.11978749632E+03  0.25500000000E-02 0.  1.
         -2   -1    0    0    0  501 -0.00000000000E+00 -0.00000000000E+00 -0.46946877573E+00  0.46947570106E+00  0.25500000000E-02 0. -1.
         31    1    1    2    0    0  0.74472608288E+00  0.37993228259E+00  0.61912870804E+02  0.62364745351E+02  0.74470750000E+01 0.  1.
        -31    1    1    2    0    0 -0.74472608288E+00 -0.37993228259E+00  0.57405156718E+02  0.57892226675E+02  0.74470750000E+01 0. -1.
<mgrwt>
<rscale>  0 0.14998254E+02</rscale>
<asrwt>0</asrwt>
<pdfrwt beam="1">  1        2 0.99436878E+00 0.14998254E+02</pdfrwt>
<pdfrwt beam="2">  1       -2 0.99709909E+00 0.14998254E+02</pdfrwt>
<totfact>-0.99243987E-14</totfact>
</mgrwt>
</event>
<event>
 4    1 -0.5119137E-019  0.1495932E+02  0.7818608E-02  0.1869312E+00
          2   -1    0    0  501    0  0.00000000000E+00  0.00000000000E+00  0.11975883839E+03  0.11975883842E+03  0.25500000000E-02 0.  1.
         -2   -1    0    0    0  501 -0.00000000000E+00 -0.00000000000E+00 -0.46714610618E+00  0.46715306594E+00  0.25500000000E-02 0. -1.
         31    1    1    2    0    0  0.12926218306E+00  0.66739179972E+00  0.58394352546E+02  0.58871227742E+02  0.74470750000E+01 0. -1.
        -31    1    1    2    0    0 -0.12926218306E+00 -0.66739179972E+00  0.60897339736E+02  0.61354763740E+02  0.74470750000E+01 0.  1.
<mgrwt>
<rscale>  0 0.14959318E+02</rscale>
<asrwt>0</asrwt>
<pdfrwt beam="1">  1        2 0.99411262E+00 0.14959318E+02</pdfrwt>
<pdfrwt beam="2">  1       -2 0.99218432E+00 0.14959318E+02</pdfrwt>
<totfact>-0.91386311E-14</totfact>
</mgrwt>
</event>
<event>
 4    1  0.5119137E-019  0.1491336E+02  0.7818608E-02  0.1870724E+00
         -2   -1    0    0    0  501 -0.00000000000E+00  0.00000000000E+00  0.11851248733E+03  0.11851248735E+03  0.25500000000E-02 0.  1.
          2   -1    0    0  501    0  0.00000000000E+00 -0.00000000000E+00 -0.46916265417E+00  0.46916958402E+00  0.25500000000E-02 0. -1.
         31    1    1    2    0    0 -0.28592222059E+00  0.23802937524E+00  0.58474039322E+02  0.58947524208E+02  0.74470750000E+01 0. -1.
        -31    1    1    2    0    0  0.28592222059E+00 -0.23802937524E+00  0.59569285349E+02  0.60034132729E+02  0.74470750000E+01 0. -1.
<mgrwt>
<rscale>  0 0.14913356E+02</rscale>
<asrwt>0</asrwt>
<pdfrwt beam="2">  1        2 0.99640965E+00 0.14913356E+02</pdfrwt>
<pdfrwt beam="1">  1       -2 0.98382359E+00 0.14913356E+02</pdfrwt>
<totfact> 0.54630724E-13</totfact>
</mgrwt>
</event>
<event>
 4    1  0.5119137E-019  0.1491766E+02  0.7818608E-02  0.1870592E+00
          2   -1    0    0  501    0  0.00000000000E+00  0.00000000000E+00  0.11991839516E+03  0.11991839518E+03  0.25500000000E-02 0.  1.
         -2   -1    0    0    0  501 -0.00000000000E+00 -0.00000000000E+00 -0.46392994086E+00  0.46393694887E+00  0.25500000000E-02 0. -1.
         31    1    1    2    0    0  0.38562133426E-01  0.15188170484E+00  0.56594780480E+02  0.57082857836E+02  0.74470750000E+01 0. -1.
        -31    1    1    2    0    0 -0.38562133426E-01 -0.15188170484E+00  0.62859684736E+02  0.63299474297E+02  0.74470750000E+01 0.  1.
<mgrwt>
<rscale>  0 0.14917662E+02</rscale>
<asrwt>0</asrwt>
<pdfrwt beam="1">  1        2 0.99540535E+00 0.14917662E+02</pdfrwt>
<pdfrwt beam="2">  1       -2 0.98538494E+00 0.14917662E+02</pdfrwt>
<totfact> 0.41446625E-13</totfact>
</mgrwt>
</event>
<event>
 4    1 -0.5119137E-019  0.1491416E+02  0.7818608E-02  0.1870699E+00
          2   -1    0    0  501    0  0.00000000000E+00  0.00000000000E+00  0.11829945928E+03  0.11829945931E+03  0.25500000000E-02 0. -1.
         -2   -1    0    0    0  501 -0.00000000000E+00 -0.00000000000E+00 -0.47005827476E+00  0.47006519140E+00  0.25500000000E-02 0.  1.
         31    1    1    2    0    0 -0.28016485337E+00  0.14828078365E+00  0.60671135407E+02  0.61127294044E+02  0.74470750000E+01 0.  1.
        -31    1    1    2    0    0  0.28016485337E+00 -0.14828078365E+00  0.57158265598E+02  0.57642230455E+02  0.74470750000E+01 0.  1.
<mgrwt>
<rscale>  0 0.14914161E+02</rscale>
<asrwt>0</asrwt>
<pdfrwt beam="1">  1        2 0.98206953E+00 0.14914161E+02</pdfrwt>
<pdfrwt beam="2">  1       -2 0.99829713E+00 0.14914161E+02</pdfrwt>
<totfact>-0.29498247E-13</totfact>
</mgrwt>
</event>
<event>
 4    1  0.5119137E-019  0.1491932E+02  0.7818608E-02  0.1870540E+00
          2   -1    0    0  501    0  0.00000000000E+00  0.00000000000E+00  0.12027164690E+03  0.12027164693E+03  0.25500000000E-02 0.  1.
         -2   -1    0    0    0  501 -0.00000000000E+00 -0.00000000000E+00 -0.46267017260E+00  0.46267719969E+00  0.25500000000E-02 0. -1.
         31    1    1    2    0    0 -0.21900681462E+00  0.24967774162E+00  0.62154437678E+02  0.62599867029E+02  0.74470750000E+01 0.  1.
        -31    1    1    2    0    0  0.21900681462E+00 -0.24967774162E+00  0.57654539050E+02  0.58134457098E+02  0.74470750000E+01 0. -1.
<mgrwt>
<rscale>  0 0.14919320E+02</rscale>
<asrwt>0</asrwt>
<pdfrwt beam="1">  1        2 0.99831587E+00 0.14919320E+02</pdfrwt>
<pdfrwt beam="2">  1       -2 0.98273061E+00 0.14919320E+02</pdfrwt>
<totfact> 0.40434804E-13</totfact>
</mgrwt>
</event>
<event>
 4    1 -0.5119137E-019  0.1491713E+02  0.7818608E-02  0.1870608E+00
         -2   -1    0    0    0  501 -0.00000000000E+00  0.00000000000E+00  0.11986776368E+03  0.11986776370E+03  0.25500000000E-02 0.  1.
          2   -1    0    0  501    0  0.00000000000E+00 -0.00000000000E+00 -0.46409262398E+00  0.46409962953E+00  0.25500000000E-02 0. -1.
         31    1    1    2    0    0 -0.72927285671E-01 -0.15873305577E+00  0.56675724156E+02  0.57163162520E+02  0.74470750000E+01 0. -1.
        -31    1    1    2    0    0  0.72927285671E-01  0.15873305577E+00  0.62727946897E+02  0.63168700814E+02  0.74470750000E+01 0.  1.
<mgrwt>
<rscale>  0 0.14917127E+02</rscale>
<asrwt>0</asrwt>
<pdfrwt beam="2">  1        2 0.98572753E+00 0.14917127E+02</pdfrwt>
<pdfrwt beam="1">  1       -2 0.99498804E+00 0.14917127E+02</pdfrwt>
<totfact>-0.30921117E-13</totfact>
</mgrwt>
</event>
<event>
 4    1  0.5119137E-019  0.1491187E+02  0.7818608E-02  0.1870770E+00
         -2   -1    0    0    0  501 -0.00000000000E+00  0.00000000000E+00  0.11843479940E+03  0.11843479943E+03  0.25500000000E-02 0.  1.
          2   -1    0    0  501    0  0.00000000000E+00 -0.00000000000E+00 -0.46937714220E+00  0.46938406888E+00  0.25500000000E-02 0. -1.
         31    1    1    2    0    0  0.62397818044E-02  0.18959702000E+00  0.61454446371E+02  0.61904312376E+02  0.74470750000E+01 0.  1.
        -31    1    1    2    0    0 -0.62397818044E-02 -0.18959702000E+00  0.56510975889E+02  0.56999871122E+02  0.74470750000E+01 0. -1.
<mgrwt>
<rscale>  0 0.14911875E+02</rscale>
<asrwt>0</asrwt>
<pdfrwt beam="2">  1        2 0.99686080E+00 0.14911875E+02</pdfrwt>
<pdfrwt beam="1">  1       -2 0.98318298E+00 0.14911875E+02</pdfrwt>
<totfact> 0.58185223E-13</totfact>
</mgrwt>
</event>
<event>
 4    1 -0.5119137E-019  0.1500109E+02  0.7818608E-02  0.1868035E+00
         -2   -1    0    0    0  501 -0.00000000000E+00  0.00000000000E+00  0.12008251547E+03  0.12008251549E+03  0.25500000000E-02 0.  1.
          2   -1    0    0  501    0  0.00000000000E+00 -0.00000000000E+00 -0.46849239724E+00  0.46849933700E+00  0.25500000000E-02 0. -1.
         31    1    1    2    0    0  0.43414578215E+00 -0.58441695749E+00  0.63976633170E+02  0.64412720355E+02  0.74470750000E+01 0.  1.
        -31    1    1    2    0    0 -0.43414578215E+00  0.58441695749E+00  0.55637389900E+02  0.56138294476E+02  0.74470750000E+01 0. -1.
<mgrwt>
<rscale>  0 0.15001089E+02</rscale>
<asrwt>0</asrwt>
<pdfrwt beam="2">  1        2 0.99504301E+00 0.15001089E+02</pdfrwt>
<pdfrwt beam="1">  1       -2 0.99680014E+00 0.15001089E+02</pdfrwt>
<totfact>-0.99090667E-14</totfact>
</mgrwt>
</event>
<event>
 4    1 -0.5119137E-019  0.1497727E+02  0.7818608E-02  0.1868763E+00
          2   -1    0    0  501    0  0.00000000000E+00  0.00000000000E+00  0.11958866893E+03  0.11958866896E+03  0.25500000000E-02 0. -1.
         -2   -1    0    0    0  501 -0.00000000000E+00 -0.00000000000E+00 -0.46893450532E+00  0.46894143853E+00  0.25500000000E-02 0.  1.
         31    1    1    2    0    0  0.79793088451E-01  0.75419951039E+00  0.61270885764E+02  0.61726457474E+02  0.74470750000E+01 0. -1.
        -31    1    1    2    0    0 -0.79793088451E-01 -0.75419951039E+00  0.57848848659E+02  0.58331152920E+02  0.74470750000E+01 0.  1.
<mgrwt>
<rscale>  0 0.14977272E+02</rscale>
<asrwt>0</asrwt>
<pdfrwt beam="1">  1        2 0.99272032E+00 0.14977272E+02</pdfrwt>
<pdfrwt beam="2">  1       -2 0.99596235E+00 0.14977272E+02</pdfrwt>
<totfact>-0.13540798E-13</totfact>
</mgrwt>
</event>
<event>
 4    1 -0.5119137E-019  0.1495575E+02  0.7818608E-02  0.1869422E+00
          2   -1    0    0  501    0  0.00000000000E+00  0.00000000000E+00  0.11898523203E+03  0.11898523206E+03  0.25500000000E-02 0.  1.
         -2   -1    0    0    0  501 -0.00000000000E+00 -0.00000000000E+00 -0.46995895558E+00  0.46996587369E+00  0.25500000000E-02 0. -1.
         31    1    1    2    0    0  0.50963803994E+00  0.13573319541E+00  0.62660518591E+02  0.63103705680E+02  0.74470750000E+01 0.  1.
        -31    1    1    2    0    0 -0.50963803994E+00 -0.13573319541E+00  0.55854754488E+02  0.56351492255E+02  0.74470750000E+01 0.  1.
<mgrwt>
<rscale>  0 0.14955747E+02</rscale>
<asrwt>0</asrwt>
<pdfrwt beam="1">  1        2 0.98773916E+00 0.14955747E+02</pdfrwt>
<pdfrwt beam="2">  1       -2 0.99810980E+00 0.14955747E+02</pdfrwt>
<totfact>-0.13107625E-13</totfact>
</mgrwt>
</event>
<event>
 4    1 -0.5119137E-019  0.1501751E+02  0.7818608E-02  0.1867535E+00
         -2   -1    0    0    0  501 -0.00000000000E+00  0.00000000000E+00  0.12012321841E+03  0.12012321843E+03  0.25500000000E-02 0.  1.
          2   -1    0    0  501    0  0.00000000000E+00 -0.00000000000E+00 -0.46935961249E+00  0.46936653943E+00  0.25500000000E-02 0. -1.
         31    1    1    2    0    0 -0.89471585577E+00 -0.19825326870E+00  0.62135639922E+02  0.62587031367E+02  0.74470750000E+01 0. -1.
        -31    1    1    2    0    0  0.89471585577E+00  0.19825326870E+00  0.57518218873E+02  0.58005553607E+02  0.74470750000E+01 0.  1.
<mgrwt>
<rscale>  0 0.15017511E+02</rscale>
<asrwt>0</asrwt>
<pdfrwt beam="2">  1        2 0.99687903E+00 0.15017511E+02</pdfrwt>
<pdfrwt beam="1">  1       -2 0.99714387E+00 0.15017511E+02</pdfrwt>
<totfact>-0.70122721E-14</totfact>
</mgrwt>
</event>
<event>
 4    1 -0.5119137E-019  0.1490230E+02  0.7818608E-02  0.1871065E+00
          2   -1    0    0  501    0  0.00000000000E+00  0.00000000000E+00  0.11831439933E+03  0.11831439936E+03  0.25500000000E-02 0. -1.
         -2   -1    0    0    0  501 -0.00000000000E+00 -0.00000000000E+00 -0.46925160214E+00  0.46925853067E+00  0.25500000000E-02 0.  1.
         31    1    1    2    0    0 -0.15987523851E+00 -0.18060687710E+00  0.59323466247E+02  0.59789553875E+02  0.74470750000E+01 0. -1.
        -31    1    1    2    0    0  0.15987523851E+00  0.18060687710E+00  0.58521681485E+02  0.58994104017E+02  0.74470750000E+01 0. -1.
<mgrwt>
<rscale>  0 0.14902300E+02</rscale>
<asrwt>0</asrwt>
<pdfrwt beam="1">  1        2 0.98218639E+00 0.14902300E+02</pdfrwt>
<pdfrwt beam="2">  1       -2 0.99659123E+00 0.14902300E+02</pdfrwt>
<totfact>-0.48113948E-13</totfact>
</mgrwt>
</event>
<event>
 4    1  0.5119137E-019  0.1490843E+02  0.7818608E-02  0.1870876E+00
          2   -1    0    0  501    0  0.00000000000E+00  0.00000000000E+00  0.11997221814E+03  0.11997221817E+03  0.25500000000E-02 0. -1.
         -2   -1    0    0    0  501 -0.00000000000E+00 -0.00000000000E+00 -0.46314832823E+00  0.46315534807E+00  0.25500000000E-02 0.  1.
         31    1    1    2    0    0 -0.21459452125E-02  0.15887744694E+00  0.57452791009E+02  0.57933646247E+02  0.74470750000E+01 0. -1.
        -31    1    1    2    0    0  0.21459452125E-02 -0.15887744694E+00  0.62056278801E+02  0.62501727267E+02  0.74470750000E+01 0.  1.
<mgrwt>
<rscale>  0 0.14908435E+02</rscale>
<asrwt>0</asrwt>
<pdfrwt beam="1">  1        2 0.99584393E+00 0.14908435E+02</pdfrwt>
<pdfrwt beam="2">  1       -2 0.98373291E+00 0.14908435E+02</pdfrwt>
<totfact> 0.60907946E-13</totfact>
</mgrwt>
</event>
<event>
 4    1 -0.5119137E-019  0.1490918E+02  0.7818608E-02  0.1870853E+00
         -2   -1    0    0    0  501 -0.00000000000E+00  0.00000000000E+00  0.12000351712E+03  0.12000351715E+03  0.25500000000E-02 0.  1.
          2   -1    0    0  501    0  0.00000000000E+00 -0.00000000000E+00 -0.46307387365E+00  0.46308089461E+00  0.25500000000E-02 0. -1.
         31    1    1    2    0    0 -0.18805585796E+00  0.13009739568E+00  0.61744489449E+02  0.62192388552E+02  0.74470750000E+01 0.  1.
        -31    1    1    2    0    0  0.18805585796E+00 -0.13009739568E+00  0.57795953800E+02  0.58274209493E+02  0.74470750000E+01 0.  1.
<mgrwt>
<rscale>  0 0.14909181E+02</rscale>
<asrwt>0</asrwt>
<pdfrwt beam="2">  1        2 0.98357636E+00 0.14909181E+02</pdfrwt>
<pdfrwt beam="1">  1       -2 0.99610212E+00 0.14909181E+02</pdfrwt>
<totfact>-0.40765139E-13</totfact>
</mgrwt>
</event>
<event>
 4    1 -0.5119137E-019  0.1498790E+02  0.7818608E-02  0.1868438E+00
         -2   -1    0    0    0  501 -0.00000000000E+00  0.00000000000E+00  0.12025180022E+03  0.12025180025E+03  0.25500000000E-02 0. -1.
          2   -1    0    0  501    0  0.00000000000E+00 -0.00000000000E+00 -0.46701065922E+00  0.46701762100E+00  0.25500000000E-02 0.  1.
         31    1    1    2    0    0 -0.68290964986E+00 -0.23301112006E+00  0.63306826822E+02  0.63747422756E+02  0.74470750000E+01 0. -1.
        -31    1    1    2    0    0  0.68290964986E+00  0.23301112006E+00  0.56477962737E+02  0.56971395110E+02  0.74470750000E+01 0. -1.
<mgrwt>
<rscale>  0 0.14987901E+02</rscale>
<asrwt>0</asrwt>
<pdfrwt beam="2">  1        2 0.99191356E+00 0.14987901E+02</pdfrwt>
<pdfrwt beam="1">  1       -2 0.99818765E+00 0.14987901E+02</pdfrwt>
<totfact>-0.83557148E-14</totfact>
</mgrwt>
</event>
<event>
 4    1  0.5119137E-019  0.1493003E+02  0.7818608E-02  0.1870211E+00
         -2   -1    0    0    0  501 -0.00000000000E+00  0.00000000000E+00  0.11878681211E+03  0.11878681214E+03  0.25500000000E-02 0. -1.
          2   -1    0    0  501    0  0.00000000000E+00 -0.00000000000E+00 -0.46912629001E+00  0.46913322039E+00  0.25500000000E-02 0.  1.
         31    1    1    2    0    0 -0.10907738738E+00  0.46709001389E+00  0.57613394650E+02  0.58094683407E+02  0.74470750000E+01 0. -1.
        -31    1    1    2    0    0  0.10907738738E+00 -0.46709001389E+00  0.60704291172E+02  0.61161261953E+02  0.74470750000E+01 0. -1.
<mgrwt>
<rscale>  0 0.14930028E+02</rscale>
<asrwt>0</asrwt>
<pdfrwt beam="2">  1        2 0.99634180E+00 0.14930028E+02</pdfrwt>
<pdfrwt beam="1">  1       -2 0.98609160E+00 0.14930028E+02</pdfrwt>
<totfact> 0.29004493E-13</totfact>
</mgrwt>
</event>
<event>
 4    1  0.5119137E-019  0.1492756E+02  0.7818608E-02  0.1870287E+00
         -2   -1    0    0    0  501 -0.00000000000E+00  0.00000000000E+00  0.11920014417E+03  0.11920014420E+03  0.25500000000E-02 0.  1.
          2   -1    0    0  501    0  0.00000000000E+00 -0.00000000000E+00 -0.46734511182E+00  0.46735206862E+00  0.25500000000E-02 0. -1.
         31    1    1    2    0    0 -0.15042188218E+00 -0.38695081768E-01  0.55564049989E+02  0.56061097932E+02  0.74470750000E+01 0. -1.
        -31    1    1    2    0    0  0.15042188218E+00  0.38695081768E-01  0.63168749071E+02  0.63606398336E+02  0.74470750000E+01 0.  1.
<mgrwt>
<rscale>  0 0.14927561E+02</rscale>
<asrwt>0</asrwt>
<pdfrwt beam="2">  1        2 0.99258726E+00 0.14927561E+02</pdfrwt>
<pdfrwt beam="1">  1       -2 0.98949459E+00 0.14927561E+02</pdfrwt>
<totfact> 0.47373776E-14</totfact>
</mgrwt>
</event>
<event>
 4    1  0.5119137E-019  0.1490044E+02  0.7818608E-02  0.1871122E+00
         -2   -1    0    0    0  501 -0.00000000000E+00  0.00000000000E+00  0.11920996509E+03  0.11920996512E+03  0.25500000000E-02 0. -1.
          2   -1    0    0  501    0  0.00000000000E+00 -0.00000000000E+00 -0.46561021593E+00  0.46561719865E+00  0.25500000000E-02 0.  1.
         31    1    1    2    0    0 -0.45550404442E-01 -0.95497844771E-01  0.57855139721E+02  0.58332557915E+02  0.74470750000E+01 0.  1.
        -31    1    1    2    0    0  0.45550404442E-01  0.95497844771E-01  0.60889215152E+02  0.61343024400E+02  0.74470750000E+01 0. -1.
<mgrwt>
<rscale>  0 0.14900443E+02</rscale>
<asrwt>0</asrwt>
<pdfrwt beam="2">  1        2 0.98891725E+00 0.14900443E+02</pdfrwt>
<pdfrwt beam="1">  1       -2 0.98956145E+00 0.14900443E+02</pdfrwt>
<totfact> 0.58108418E-14</totfact>
</mgrwt>
</event>
<event>
 4    1 -0.5119137E-019  0.1493726E+02  0.7818608E-02  0.1869989E+00
          2   -1    0    0  501    0  0.00000000000E+00  0.00000000000E+00  0.11943088618E+03  0.11943088621E+03  0.25500000000E-02 0.  1.
         -2   -1    0    0    0  501 -0.00000000000E+00 -0.00000000000E+00 -0.46704877493E+00  0.46705573614E+00  0.25500000000E-02 0. -1.
         31    1    1    2    0    0 -0.77343318058E-01 -0.48146136618E+00  0.61804900788E+02  0.62253855098E+02  0.74470750000E+01 0.  1.
        -31    1    1    2    0    0  0.77343318058E-01  0.48146136618E+00  0.57158936615E+02  0.57644086844E+02  0.74470750000E+01 0. -1.
<mgrwt>
<rscale>  0 0.14937265E+02</rscale>
<asrwt>0</asrwt>
<pdfrwt beam="1">  1        2 0.99140007E+00 0.14937265E+02</pdfrwt>
<pdfrwt beam="2">  1       -2 0.99196782E+00 0.14937265E+02</pdfrwt>
<totfact>-0.10327945E-13</totfact>
</mgrwt>
</event>
<event>
 4    1 -0.5119137E-019  0.1497745E+02  0.7818608E-02  0.1868757E+00
          2   -1    0    0  501    0  0.00000000000E+00  0.00000000000E+00  0.11955072236E+03  0.11955072238E+03  0.25500000000E-02 0. -1.
         -2   -1    0    0    0  501 -0.00000000000E+00 -0.00000000000E+00 -0.46909454007E+00  0.46910147092E+00  0.25500000000E-02 0.  1.
         31    1    1    2    0    0 -0.71582628433E+00 -0.96489084239E-01  0.62079486317E+02  0.62528739512E+02  0.74470750000E+01 0. -1.
        -31    1    1    2    0    0  0.71582628433E+00  0.96489084239E-01  0.57002141499E+02  0.57491084343E+02  0.74470750000E+01 0.  1.
<mgrwt>
<rscale>  0 0.14977451E+02</rscale>
<asrwt>0</asrwt>
<pdfrwt beam="1">  1        2 0.99240788E+00 0.14977451E+02</pdfrwt>
<pdfrwt beam="2">  1       -2 0.99629967E+00 0.14977451E+02</pdfrwt>
<totfact>-0.13299790E-13</totfact>
</mgrwt>
</event>
<event>
 4    1 -0.5119137E-019  0.1501592E+02  0.7818608E-02  0.1867583E+00
         -2   -1    0    0    0  501 -0.00000000000E+00  0.00000000000E+00  0.12018426423E+03  0.12018426426E+03  0.25500000000E-02 0. -1.
          2   -1    0    0  501    0  0.00000000000E+00 -0.00000000000E+00 -0.46902212429E+00  0.46902905621E+00  0.25500000000E-02 0.  1.
         31    1    1    2    0    0  0.23338115326E+00 -0.91579205107E+00  0.58796790286E+02  0.59274063602E+02  0.74470750000E+01 0.  1.
        -31    1    1    2    0    0 -0.23338115326E+00  0.91579205107E+00  0.60918451819E+02  0.61379229712E+02  0.74470750000E+01 0.  1.
<mgrwt>
<rscale>  0 0.15015925E+02</rscale>
<asrwt>0</asrwt>
<pdfrwt beam="2">  1        2 0.99616700E+00 0.15015925E+02</pdfrwt>
<pdfrwt beam="1">  1       -2 0.99764585E+00 0.15015925E+02</pdfrwt>
<totfact>-0.69496910E-14</totfact>
</mgrwt>
</event>
<event>
 4    1 -0.5119137E-019  0.1498463E+02  0.7818608E-02  0.1868538E+00
         -2   -1    0    0    0  501 -0.00000000000E+00  0.00000000000E+00  0.11946761956E+03  0.11946761959E+03  0.25500000000E-02 0. -1.
          2   -1    0    0  501    0  0.00000000000E+00 -0.00000000000E+00 -0.46987089191E+00  0.46987781131E+00  0.25500000000E-02 0.  1.
         31    1    1    2    0    0  0.55091386623E+00  0.48580221533E+00  0.56543470564E+02  0.57036501465E+02  0.74470750000E+01 0. -1.
        -31    1    1    2    0    0 -0.55091386623E+00 -0.48580221533E+00  0.62454278104E+02  0.62900995933E+02  0.74470750000E+01 0. -1.
<mgrwt>
<rscale>  0 0.14984629E+02</rscale>
<asrwt>0</asrwt>
<pdfrwt beam="2">  1        2 0.99793935E+00 0.14984629E+02</pdfrwt>
<pdfrwt beam="1">  1       -2 0.99172714E+00 0.14984629E+02</pdfrwt>
<totfact>-0.39293964E-14</totfact>
</mgrwt>
</event>
<event>
 4    1  0.5119137E-019  0.1492430E+02  0.7818608E-02  0.1870387E+00
          2   -1    0    0  501    0  0.00000000000E+00  0.00000000000E+00  0.11955978114E+03  0.11955978117E+03  0.25500000000E-02 0.  1.
         -2   -1    0    0    0  501 -0.00000000000E+00 -0.00000000000E+00 -0.46573590971E+00  0.46574289054E+00  0.25500000000E-02 0. -1.
         31    1    1    2    0    0 -0.45814383463E-01  0.16580622483E+00  0.63100105359E+02  0.63538270460E+02  0.74470750000E+01 0.  1.
        -31    1    1    2    0    0  0.45814383463E-01 -0.16580622483E+00  0.55993939871E+02  0.56487253598E+02  0.74470750000E+01 0. -1.
<mgrwt>
<rscale>  0 0.14924303E+02</rscale>
<asrwt>0</asrwt>
<pdfrwt beam="1">  1        2 0.99245501E+00 0.14924303E+02</pdfrwt>
<pdfrwt beam="2">  1       -2 0.98919443E+00 0.14924303E+02</pdfrwt>
<totfact> 0.72254058E-14</totfact>
</mgrwt>
</event>
<event>
 4    1  0.5119137E-019  0.1492568E+02  0.7818608E-02  0.1870345E+00
         -2   -1    0    0    0  501 -0.00000000000E+00  0.00000000000E+00  0.11883086718E+03  0.11883086720E+03  0.25500000000E-02 0. -1.
          2   -1    0    0  501    0  0.00000000000E+00 -0.00000000000E+00 -0.46867906431E+00  0.46868600130E+00  0.25500000000E-02 0.  1.
         31    1    1    2    0    0  0.45848235984E+00  0.10427411176E+00  0.60125131928E+02  0.60586396944E+02  0.74470750000E+01 0. -1.
        -31    1    1    2    0    0 -0.45848235984E+00 -0.10427411176E+00  0.58237056183E+02  0.58713156261E+02  0.74470750000E+01 0. -1.
<mgrwt>
<rscale>  0 0.14925677E+02</rscale>
<asrwt>0</asrwt>
<pdfrwt beam="2">  1        2 0.99539717E+00 0.14925677E+02</pdfrwt>
<pdfrwt beam="1">  1       -2 0.98645218E+00 0.14925677E+02</pdfrwt>
<totfact> 0.29141276E-13</totfact>
</mgrwt>
</event>
<event>
 4    1 -0.5119137E-019  0.1495249E+02  0.7818608E-02  0.1869522E+00
         -2   -1    0    0    0  501 -0.00000000000E+00  0.00000000000E+00  0.12029731969E+03  0.12029731972E+03  0.25500000000E-02 0.  1.
          2   -1    0    0  501    0  0.00000000000E+00 -0.00000000000E+00 -0.46463053196E+00  0.46463752940E+00  0.25500000000E-02 0. -1.
         31    1    1    2    0    0  0.28680633530E+00 -0.57993049517E+00  0.58871757058E+02  0.59344429245E+02  0.74470750000E+01 0. -1.
        -31    1    1    2    0    0 -0.28680633530E+00  0.57993049517E+00  0.60960932099E+02  0.61417528000E+02  0.74470750000E+01 0. -1.
<mgrwt>
<rscale>  0 0.14952489E+02</rscale>
<asrwt>0</asrwt>
<pdfrwt beam="2">  1        2 0.98687922E+00 0.14952489E+02</pdfrwt>
<pdfrwt beam="1">  1       -2 0.99854436E+00 0.14952489E+02</pdfrwt>
<totfact>-0.11830676E-13</totfact>
</mgrwt>
</event>
<event>
 4    1 -0.5119137E-019  0.1492681E+02  0.7818608E-02  0.1870310E+00
         -2   -1    0    0    0  501 -0.00000000000E+00  0.00000000000E+00  0.11950379867E+03  0.11950379869E+03  0.25500000000E-02 0.  1.
          2   -1    0    0  501    0  0.00000000000E+00 -0.00000000000E+00 -0.46611047628E+00  0.46611745150E+00  0.25500000000E-02 0. -1.
         31    1    1    2    0    0 -0.15742625325E+00 -0.15941665733E+00  0.55985487769E+02  0.56479057743E+02  0.74470750000E+01 0. -1.
        -31    1    1    2    0    0  0.15742625325E+00  0.15941665733E+00  0.63052200422E+02  0.63490858403E+02  0.74470750000E+01 0.  1.
<mgrwt>
<rscale>  0 0.14926807E+02</rscale>
<asrwt>0</asrwt>
<pdfrwt beam="2">  1        2 0.98998508E+00 0.14926807E+02</pdfrwt>
<pdfrwt beam="1">  1       -2 0.99199521E+00 0.14926807E+02</pdfrwt>
<totfact>-0.11793003E-13</totfact>
</mgrwt>
</event>
<event>
 4    1 -0.5119137E-019  0.1494658E+02  0.7818608E-02  0.1869703E+00
         -2   -1    0    0    0  501 -0.00000000000E+00  0.00000000000E+00  0.11951032749E+03  0.11951032752E+03  0.25500000000E-02 0.  1.
          2   -1    0    0  501    0  0.00000000000E+00 -0.00000000000E+00 -0.46732058820E+00  0.46732754536E+00  0.25500000000E-02 0. -1.
         31    1    1    2    0    0  0.13153206278E+00 -0.20306069060E+00  0.54892190729E+02  0.55395578013E+02  0.74470750000E+01 0. -1.
        -31    1    1    2    0    0 -0.13153206278E+00  0.20306069060E+00  0.64150816177E+02  0.64582077053E+02  0.74470750000E+01 0.  1.
<mgrwt>
<rscale>  0 0.14946579E+02</rscale>
<asrwt>0</asrwt>
<pdfrwt beam="2">  1        2 0.99254544E+00 0.14946579E+02</pdfrwt>
<pdfrwt beam="1">  1       -2 0.99205920E+00 0.14946579E+02</pdfrwt>
<totfact>-0.98304714E-14</totfact>
</mgrwt>
</event>
<event>
 4    1 -0.5119137E-019  0.1497407E+02  0.7818608E-02  0.1868861E+00
         -2   -1    0    0    0  501 -0.00000000000E+00  0.00000000000E+00  0.12006491619E+03  0.12006491622E+03  0.25500000000E-02 0.  1.
          2   -1    0    0  501    0  0.00000000000E+00 -0.00000000000E+00 -0.46687455896E+00  0.46688152277E+00  0.25500000000E-02 0. -1.
         31    1    1    2    0    0 -0.17932431910E-01 -0.69017707798E+00  0.57009660890E+02  0.57498148030E+02  0.74470750000E+01 0. -1.
        -31    1    1    2    0    0  0.17932431910E-01  0.69017707798E+00  0.62588380742E+02  0.63033649712E+02  0.74470750000E+01 0.  1.
<mgrwt>
<rscale>  0 0.14974068E+02</rscale>
<asrwt>0</asrwt>
<pdfrwt beam="2">  1        2 0.99161964E+00 0.14974068E+02</pdfrwt>
<pdfrwt beam="1">  1       -2 0.99664124E+00 0.14974068E+02</pdfrwt>
<totfact>-0.13370762E-13</totfact>
</mgrwt>
</event>
<event>
 4    1 -0.5119137E-019  0.1497370E+02  0.7818608E-02  0.1868872E+00
          2   -1    0    0  501    0  0.00000000000E+00  0.00000000000E+00  0.11997011264E+03  0.11997011266E+03  0.25500000000E-02 0. -1.
         -2   -1    0    0    0  501 -0.00000000000E+00 -0.00000000000E+00 -0.46722064867E+00  0.46722760732E+00  0.25500000000E-02 0.  1.
         31    1    1    2    0    0 -0.55625226937E+00 -0.22713670508E+00  0.63633939009E+02  0.64071039695E+02  0.74470750000E+01 0. -1.
        -31    1    1    2    0    0  0.55625226937E+00  0.22713670508E+00  0.55868952978E+02  0.56366300575E+02  0.74470750000E+01 0.  1.
<mgrwt>
<rscale>  0 0.14973702E+02</rscale>
<asrwt>0</asrwt>
<pdfrwt beam="1">  1        2 0.99586020E+00 0.14973702E+02</pdfrwt>
<pdfrwt beam="2">  1       -2 0.99234881E+00 0.14973702E+02</pdfrwt>
<totfact>-0.80096111E-14</totfact>
</mgrwt>
</event>
<event>
 4    1 -0.5119137E-019  0.1493967E+02  0.7818608E-02  0.1869915E+00
          2   -1    0    0  501    0  0.00000000000E+00  0.00000000000E+00  0.11861942238E+03  0.11861942241E+03  0.25500000000E-02 0.  1.
         -2   -1    0    0    0  501 -0.00000000000E+00 -0.00000000000E+00 -0.47039529211E+00  0.47040220380E+00  0.25500000000E-02 0. -1.
         31    1    1    2    0    0  0.27820675433E+00  0.49916814790E+00  0.58167836236E+02  0.58645397656E+02  0.74470750000E+01 0.  1.
        -31    1    1    2    0    0 -0.27820675433E+00 -0.49916814790E+00  0.59981190857E+02  0.60444426960E+02  0.74470750000E+01 0. -1.
<mgrwt>
<rscale>  0 0.14939669E+02</rscale>
<asrwt>0</asrwt>
<pdfrwt beam="1">  1        2 0.98471799E+00 0.14939669E+02</pdfrwt>
<pdfrwt beam="2">  1       -2 0.99902070E+00 0.14939669E+02</pdfrwt>
<totfact>-0.11589548E-13</totfact>
</mgrwt>
</event>
<event>
 4    1 -0.5119137E-019  0.1491448E+02  0.7818608E-02  0.1870689E+00
         -2   -1    0    0    0  501 -0.00000000000E+00  0.00000000000E+00  0.12004308074E+03  0.12004308077E+03  0.25500000000E-02 0. -1.
          2   -1    0    0  501    0  0.00000000000E+00 -0.00000000000E+00 -0.46325057896E+00  0.46325759725E+00  0.25500000000E-02 0.  1.
         31    1    1    2    0    0 -0.93246531065E-01  0.37554266143E+00  0.60132512567E+02  0.60593132621E+02  0.74470750000E+01 0.  1.
        -31    1    1    2    0    0  0.93246531065E-01 -0.37554266143E+00  0.59447317595E+02  0.59913205744E+02  0.74470750000E+01 0. -1.
<mgrwt>
<rscale>  0 0.14914483E+02</rscale>
<asrwt>0</asrwt>
<pdfrwt beam="2">  1        2 0.98395148E+00 0.14914483E+02</pdfrwt>
<pdfrwt beam="1">  1       -2 0.99643072E+00 0.14914483E+02</pdfrwt>
<totfact>-0.36645566E-13</totfact>
</mgrwt>
</event>
<event>
 4    1 -0.5119137E-019  0.1492726E+02  0.7818608E-02  0.1870296E+00
         -2   -1    0    0    0  501 -0.00000000000E+00  0.00000000000E+00  0.12002380630E+03  0.12002380633E+03  0.25500000000E-02 0.  1.
          2   -1    0    0  501    0  0.00000000000E+00 -0.00000000000E+00 -0.46411885934E+00  0.46412586449E+00  0.25500000000E-02 0. -1.
         31    1    1    2    0    0  0.64986745658E-01 -0.47729339459E-01  0.63736679143E+02  0.64170317870E+02  0.74470750000E+01 0.  1.
        -31    1    1    2    0    0 -0.64986745658E-01  0.47729339459E-01  0.55823008302E+02  0.56317614326E+02  0.74470750000E+01 0. -1.
<mgrwt>
<rscale>  0 0.14927255E+02</rscale>
<asrwt>0</asrwt>
<pdfrwt beam="2">  1        2 0.98578799E+00 0.14927255E+02</pdfrwt>
<pdfrwt beam="1">  1       -2 0.99627852E+00 0.14927255E+02</pdfrwt>
<totfact>-0.27790785E-13</totfact>
</mgrwt>
</event>
<event>
 4    1  0.5119137E-019  0.1492570E+02  0.7818608E-02  0.1870344E+00
          2   -1    0    0  501    0  0.00000000000E+00  0.00000000000E+00  0.12003767192E+03  0.12003767195E+03  0.25500000000E-02 0. -1.
         -2   -1    0    0    0  501 -0.00000000000E+00 -0.00000000000E+00 -0.46396875462E+00  0.46397576205E+00  0.25500000000E-02 0.  1.
         31    1    1    2    0    0  0.22046925603E+00 -0.33100533531E+00  0.57545754957E+02  0.58026985195E+02  0.74470750000E+01 0.  1.
        -31    1    1    2    0    0 -0.22046925603E+00  0.33100533531E+00  0.62027948208E+02  0.62474662513E+02  0.74470750000E+01 0. -1.
<mgrwt>
<rscale>  0 0.14925703E+02</rscale>
<asrwt>0</asrwt>
<pdfrwt beam="1">  1        2 0.99639193E+00 0.14925703E+02</pdfrwt>
<pdfrwt beam="2">  1       -2 0.98547083E+00 0.14925703E+02</pdfrwt>
<totfact> 0.35120208E-13</totfact>
</mgrwt>
</event>
<event>
 4    1  0.5119137E-019  0.1492085E+02  0.7818608E-02  0.1870493E+00
          2   -1    0    0  501    0  0.00000000000E+00  0.00000000000E+00  0.12001751669E+03  0.12001751672E+03  0.25500000000E-02 0. -1.
         -2   -1    0    0    0  501 -0.00000000000E+00 -0.00000000000E+00 -0.46374510813E+00  0.46375211893E+00  0.25500000000E-02 0.  1.
         31    1    1    2    0    0  0.64562974044E-01  0.45590629498E-01  0.56231487043E+02  0.56722529105E+02  0.74470750000E+01 0.  1.
        -31    1    1    2    0    0 -0.64562974044E-01 -0.45590629498E-01  0.63322284543E+02  0.63758739735E+02  0.74470750000E+01 0. -1.
<mgrwt>
<rscale>  0 0.14920853E+02</rscale>
<asrwt>0</asrwt>
<pdfrwt beam="1">  1        2 0.99622343E+00 0.14920853E+02</pdfrwt>
<pdfrwt beam="2">  1       -2 0.98499701E+00 0.14920853E+02</pdfrwt>
<totfact> 0.41494849E-13</totfact>
</mgrwt>
</event>
<event>
 4    1 -0.5119137E-019  0.1490984E+02  0.7818608E-02  0.1870832E+00
         -2   -1    0    0    0  501 -0.00000000000E+00  0.00000000000E+00  0.11971468517E+03  0.11971468520E+03  0.25500000000E-02 0.  1.
          2   -1    0    0  501    0  0.00000000000E+00 -0.00000000000E+00 -0.46423225765E+00  0.46423926109E+00  0.25500000000E-02 0. -1.
         31    1    1    2    0    0  0.10304638084E+00  0.32602915370E+00  0.59615642452E+02  0.60079952269E+02  0.74470750000E+01 0.  1.
        -31    1    1    2    0    0 -0.10304638084E+00 -0.32602915370E+00  0.59634810460E+02  0.60098972189E+02  0.74470750000E+01 0.  1.
<mgrwt>
<rscale>  0 0.14909841E+02</rscale>
<asrwt>0</asrwt>
<pdfrwt beam="2">  1        2 0.98601810E+00 0.14909841E+02</pdfrwt>
<pdfrwt beam="1">  1       -2 0.99372343E+00 0.14909841E+02</pdfrwt>
<totfact>-0.28294680E-13</totfact>
</mgrwt>
</event>
<event>
 4    1 -0.5119137E-019  0.1491249E+02  0.7818608E-02  0.1870751E+00
         -2   -1    0    0    0  501 -0.00000000000E+00  0.00000000000E+00  0.11995015838E+03  0.11995015841E+03  0.25500000000E-02 0. -1.
          2   -1    0    0  501    0  0.00000000000E+00 -0.00000000000E+00 -0.46348561632E+00  0.46349263105E+00  0.25500000000E-02 0.  1.
         31    1    1    2    0    0 -0.43211716526E-01 -0.36233726694E+00  0.60222094258E+02  0.60681897782E+02  0.74470750000E+01 0.  1.
        -31    1    1    2    0    0  0.43211716526E-01  0.36233726694E+00  0.59264578508E+02  0.59731753259E+02  0.74470750000E+01 0. -1.
<mgrwt>
<rscale>  0 0.14912491E+02</rscale>
<asrwt>0</asrwt>
<pdfrwt beam="2">  1        2 0.98444585E+00 0.14912491E+02</pdfrwt>
<pdfrwt beam="1">  1       -2 0.99566432E+00 0.14912491E+02</pdfrwt>
<totfact>-0.36787991E-13</totfact>
</mgrwt>
</event>
<event>
 4    1 -0.5119137E-019  0.1500048E+02  0.7818608E-02  0.1868054E+00
          2   -1    0    0  501    0  0.00000000000E+00  0.00000000000E+00  0.11996401655E+03  0.11996401658E+03  0.25500000000E-02 0. -1.
         -2   -1    0    0    0  501 -0.00000000000E+00 -0.00000000000E+00 -0.46891684475E+00  0.46892377824E+00  0.25500000000E-02 0.  1.
         31    1    1    2    0    0 -0.70381276077E+00  0.12787138794E+00  0.64018118252E+02  0.64453782621E+02  0.74470750000E+01 0. -1.
        -31    1    1    2    0    0  0.70381276077E+00 -0.12787138794E+00  0.55476981453E+02  0.55979157734E+02  0.74470750000E+01 0.  1.
<mgrwt>
<rscale>  0 0.15000476E+02</rscale>
<asrwt>0</asrwt>
<pdfrwt beam="1">  1        2 0.99582381E+00 0.15000476E+02</pdfrwt>
<pdfrwt beam="2">  1       -2 0.99593716E+00 0.15000476E+02</pdfrwt>
<totfact>-0.10221464E-13</totfact>
</mgrwt>
</event>
<event>
 4    1 -0.5119137E-019  0.1501301E+02  0.7818608E-02  0.1867672E+00
          2   -1    0    0  501    0  0.00000000000E+00  0.00000000000E+00  0.11994535896E+03  0.11994535899E+03  0.25500000000E-02 0.  1.
         -2   -1    0    0    0  501 -0.00000000000E+00 -0.00000000000E+00 -0.46977375343E+00  0.46978067426E+00  0.25500000000E-02 0. -1.
         31    1    1    2    0    0  0.43196144417E-01 -0.93770694333E+00  0.59042551580E+02  0.59517753514E+02  0.74470750000E+01 0. -1.
        -31    1    1    2    0    0 -0.43196144417E-01  0.93770694333E+00  0.60433033628E+02  0.60897386149E+02  0.74470750000E+01 0.  1.
<mgrwt>
<rscale>  0 0.15013008E+02</rscale>
<asrwt>0</asrwt>
<pdfrwt beam="1">  1        2 0.99567662E+00 0.15013008E+02</pdfrwt>
<pdfrwt beam="2">  1       -2 0.99774942E+00 0.15013008E+02</pdfrwt>
<totfact>-0.71992037E-14</totfact>
</mgrwt>
</event>
<event>
 4    1 -0.5119137E-019  0.1490774E+02  0.7818608E-02  0.1870897E+00
          2   -1    0    0  501    0  0.00000000000E+00  0.00000000000E+00  0.11809276929E+03  0.11809276932E+03  0.25500000000E-02 0. -1.
         -2   -1    0    0    0  501 -0.00000000000E+00 -0.00000000000E+00 -0.47047579192E+00  0.47048270243E+00  0.25500000000E-02 0.  1.
         31    1    1    2    0    0 -0.33151257714E-01  0.28522397753E+00  0.59902282638E+02  0.60364102271E+02  0.74470750000E+01 0.  1.
        -31    1    1    2    0    0  0.33151257714E-01 -0.28522397753E+00  0.57720010862E+02  0.58199149751E+02  0.74470750000E+01 0.  1.
<mgrwt>
<rscale>  0 0.14907743E+02</rscale>
<asrwt>0</asrwt>
<pdfrwt beam="1">  1        2 0.98036392E+00 0.14907743E+02</pdfrwt>
<pdfrwt beam="2">  1       -2 0.99917339E+00 0.14907743E+02</pdfrwt>
<totfact>-0.20544534E-13</totfact>
</mgrwt>
</event>
<event>
 4    1 -0.5119137E-019  0.1496228E+02  0.7818608E-02  0.1869222E+00
          2   -1    0    0  501    0  0.00000000000E+00  0.00000000000E+00  0.11911371165E+03  0.11911371168E+03  0.25500000000E-02 0.  1.
         -2   -1    0    0    0  501 -0.00000000000E+00 -0.00000000000E+00 -0.46986225960E+00  0.46986917913E+00  0.25500000000E-02 0. -1.
         31    1    1    2    0    0  0.22101057689E+00  0.42497528240E+00  0.55099751148E+02  0.55602796263E+02  0.74470750000E+01 0. -1.
        -31    1    1    2    0    0 -0.22101057689E+00 -0.42497528240E+00  0.63544098246E+02  0.63980784597E+02  0.74470750000E+01 0.  1.
<mgrwt>
<rscale>  0 0.14962280E+02</rscale>
<asrwt>0</asrwt>
<pdfrwt beam="1">  1        2 0.98880071E+00 0.14962280E+02</pdfrwt>
<pdfrwt beam="2">  1       -2 0.99790948E+00 0.14962280E+02</pdfrwt>
<totfact>-0.12471314E-13</totfact>
</mgrwt>
</event>
<event>
 4    1 -0.5119137E-019  0.1498799E+02  0.7818608E-02  0.1868435E+00
         -2   -1    0    0    0  501 -0.00000000000E+00  0.00000000000E+00  0.11961440607E+03  0.11961440610E+03  0.25500000000E-02 0.  1.
          2   -1    0    0  501    0  0.00000000000E+00 -0.00000000000E+00 -0.46950501150E+00  0.46951193629E+00  0.25500000000E-02 0. -1.
         31    1    1    2    0    0 -0.47539773243E+00  0.68778394752E+00  0.59213722705E+02  0.59686036327E+02  0.74470750000E+01 0.  1.
        -31    1    1    2    0    0  0.47539773243E+00 -0.68778394752E+00  0.59931178356E+02  0.60397881709E+02  0.74470750000E+01 0.  1.
<mgrwt>
<rscale>  0 0.14987993E+02</rscale>
<asrwt>0</asrwt>
<pdfrwt beam="2">  1        2 0.99717012E+00 0.14987993E+02</pdfrwt>
<pdfrwt beam="1">  1       -2 0.99293785E+00 0.14987993E+02</pdfrwt>
<totfact>-0.72555497E-14</totfact>
</mgrwt>
</event>
<event>
 4    1 -0.5119137E-019  0.1496574E+02  0.7818608E-02  0.1869116E+00
          2   -1    0    0  501    0  0.00000000000E+00  0.00000000000E+00  0.11976568010E+03  0.11976568012E+03  0.25500000000E-02 0. -1.
         -2   -1    0    0    0  501 -0.00000000000E+00 -0.00000000000E+00 -0.46752057235E+00  0.46752752654E+00  0.25500000000E-02 0.  1.
         31    1    1    2    0    0  0.17820112691E+00 -0.67975773576E+00  0.61267600443E+02  0.61722537345E+02  0.74470750000E+01 0. -1.
        -31    1    1    2    0    0 -0.17820112691E+00  0.67975773576E+00  0.58030559080E+02  0.58510670304E+02  0.74470750000E+01 0. -1.
<mgrwt>
<rscale>  0 0.14965739E+02</rscale>
<asrwt>0</asrwt>
<pdfrwt beam="1">  1        2 0.99417228E+00 0.14965739E+02</pdfrwt>
<pdfrwt beam="2">  1       -2 0.99297677E+00 0.14965739E+02</pdfrwt>
<totfact>-0.11124793E-13</totfact>
</mgrwt>
</event>
<event>
 4    1 -0.5119137E-019  0.1497903E+02  0.7818608E-02  0.1868709E+00
          2   -1    0    0  501    0  0.00000000000E+00  0.00000000000E+00  0.11962329286E+03  0.11962329289E+03  0.25500000000E-02 0.  1.
         -2   -1    0    0    0  501 -0.00000000000E+00 -0.00000000000E+00 -0.46890874494E+00  0.46891567854E+00  0.25500000000E-02 0. -1.
         31    1    1    2    0    0 -0.74541657287E+00  0.23074355629E+00  0.58309243292E+02  0.58788057187E+02  0.74470750000E+01 0. -1.
        -31    1    1    2    0    0  0.74541657287E+00 -0.23074355629E+00  0.60845140821E+02  0.61304151377E+02  0.74470750000E+01 0.  1.
<mgrwt>
<rscale>  0 0.14979029E+02</rscale>
<asrwt>0</asrwt>
<pdfrwt beam="1">  1        2 0.99300640E+00 0.14979029E+02</pdfrwt>
<pdfrwt beam="2">  1       -2 0.99590898E+00 0.14979029E+02</pdfrwt>
<totfact>-0.13337697E-13</totfact>
</mgrwt>
</event>
<event>
 4    1 -0.5119137E-019  0.1493027E+02  0.7818608E-02  0.1870204E+00
          2   -1    0    0  501    0  0.00000000000E+00  0.00000000000E+00  0.11864850435E+03  0.11864850438E+03  0.25500000000E-02 0. -1.
         -2   -1    0    0    0  501 -0.00000000000E+00 -0.00000000000E+00 -0.46968842824E+00  0.46969535033E+00  0.25500000000E-02 0.  1.
         31    1    1    2    0    0  0.16453823237E-01 -0.35685896963E+00  0.62092667032E+02  0.62538674788E+02  0.74470750000E+01 0.  1.
        -31    1    1    2    0    0 -0.16453823237E-01  0.35685896963E+00  0.56086148891E+02  0.56579524941E+02  0.74470750000E+01 0. -1.
<mgrwt>
<rscale>  0 0.14930270E+02</rscale>
<asrwt>0</asrwt>
<pdfrwt beam="1">  1        2 0.98495262E+00 0.14930270E+02</pdfrwt>
<pdfrwt beam="2">  1       -2 0.99752638E+00 0.14930270E+02</pdfrwt>
<totfact>-0.24499321E-13</totfact>
</mgrwt>
</event>
<event>
 4    1 -0.5119137E-019  0.1498642E+02  0.7818608E-02  0.1868483E+00
          2   -1    0    0  501    0  0.00000000000E+00  0.00000000000E+00  0.11939235676E+03  0.11939235678E+03  0.25500000000E-02 0.  1.
         -2   -1    0    0    0  501 -0.00000000000E+00 -0.00000000000E+00 -0.47027961443E+00  0.47028652782E+00  0.25500000000E-02 0. -1.
         31    1    1    2    0    0 -0.17648993063E+00 -0.54956223010E-01  0.65934608722E+02  0.66354093486E+02  0.74470750000E+01 0.  1.
        -31    1    1    2    0    0  0.17648993063E+00  0.54956223010E-01  0.52987468420E+02  0.53508549826E+02  0.74470750000E+01 0. -1.
<mgrwt>
<rscale>  0 0.14986422E+02</rscale>
<asrwt>0</asrwt>
<pdfrwt beam="1">  1        2 0.99110820E+00 0.14986422E+02</pdfrwt>
<pdfrwt beam="2">  1       -2 0.99880154E+00 0.14986422E+02</pdfrwt>
<totfact>-0.62116028E-14</totfact>
</mgrwt>
</event>
<event>
 4    1 -0.5119137E-019  0.1499048E+02  0.7818608E-02  0.1868359E+00
         -2   -1    0    0    0  501 -0.00000000000E+00  0.00000000000E+00  0.12024005900E+03  0.12024005903E+03  0.25500000000E-02 0.  1.
          2   -1    0    0  501    0  0.00000000000E+00 -0.00000000000E+00 -0.46721727311E+00  0.46722423181E+00  0.25500000000E-02 0. -1.
         31    1    1    2    0    0  0.21904831305E+00 -0.71236030672E+00  0.56622635233E+02  0.57115122219E+02  0.74470750000E+01 0.  1.
        -31    1    1    2    0    0 -0.21904831305E+00  0.71236030672E+00  0.63150206493E+02  0.63592161039E+02  0.74470750000E+01 0.  1.
<mgrwt>
<rscale>  0 0.14990484E+02</rscale>
<asrwt>0</asrwt>
<pdfrwt beam="2">  1        2 0.99235032E+00 0.14990484E+02</pdfrwt>
<pdfrwt beam="1">  1       -2 0.99809227E+00 0.14990484E+02</pdfrwt>
<totfact>-0.84436316E-14</totfact>
</mgrwt>
</event>
<event>
 4    1  0.5119137E-019  0.1494854E+02  0.7818608E-02  0.1869643E+00
         -2   -1    0    0    0  501 -0.00000000000E+00  0.00000000000E+00  0.11918658846E+03  0.11918658848E+03  0.25500000000E-02 0. -1.
          2   -1    0    0  501    0  0.00000000000E+00 -0.00000000000E+00 -0.46871295898E+00  0.46871989548E+00  0.25500000000E-02 0.  1.
         31    1    1    2    0    0  0.13716904849E-01  0.39943502954E+00  0.63329455819E+02  0.63767065457E+02  0.74470750000E+01 0. -1.
        -31    1    1    2    0    0 -0.13716904849E-01 -0.39943502954E+00  0.55388419677E+02  0.55888242921E+02  0.74470750000E+01 0.  1.
<mgrwt>
<rscale>  0 0.14948540E+02</rscale>
<asrwt>0</asrwt>
<pdfrwt beam="2">  1        2 0.99548054E+00 0.14948540E+02</pdfrwt>
<pdfrwt beam="1">  1       -2 0.98939381E+00 0.14948540E+02</pdfrwt>
<totfact> 0.43134494E-14</totfact>
</mgrwt>
</event>
<event>
 4    1  0.5119137E-019  0.1493139E+02  0.7818608E-02  0.1870169E+00
         -2   -1    0    0    0  501 -0.00000000000E+00  0.00000000000E+00  0.11845168869E+03  0.11845168872E+03  0.25500000000E-02 0.  1.
          2   -1    0    0  501    0  0.00000000000E+00 -0.00000000000E+00 -0.47053965379E+00  0.47054656336E+00  0.25500000000E-02 0. -1.
         31    1    1    2    0    0 -0.95720476842E-01 -0.29684073523E+00  0.55607492717E+02  0.56104807719E+02  0.74470750000E+01 0. -1.
        -31    1    1    2    0    0  0.95720476842E-01  0.29684073523E+00  0.62373656321E+02  0.62817427564E+02  0.74470750000E+01 0.  1.
<mgrwt>
<rscale>  0 0.14931394E+02</rscale>
<asrwt>0</asrwt>
<pdfrwt beam="2">  1        2 0.99932049E+00 0.14931394E+02</pdfrwt>
<pdfrwt beam="1">  1       -2 0.98333225E+00 0.14931394E+02</pdfrwt>
<totfact> 0.15969250E-13</totfact>
</mgrwt>
</event>
<event>
 4    1  0.5119137E-019  0.1492875E+02  0.7818608E-02  0.1870251E+00
         -2   -1    0    0    0  501 -0.00000000000E+00  0.00000000000E+00  0.11875590495E+03  0.11875590498E+03  0.25500000000E-02 0. -1.
          2   -1    0    0  501    0  0.00000000000E+00 -0.00000000000E+00 -0.46916797679E+00  0.46917490656E+00  0.25500000000E-02 0.  1.
         31    1    1    2    0    0  0.92323574443E-01 -0.47480701437E+00  0.60380364606E+02  0.60839800471E+02  0.74470750000E+01 0. -1.
        -31    1    1    2    0    0 -0.92323574443E-01  0.47480701437E+00  0.57906372372E+02  0.58385279417E+02  0.74470750000E+01 0.  1.
<mgrwt>
<rscale>  0 0.14928748E+02</rscale>
<asrwt>0</asrwt>
<pdfrwt beam="2">  1        2 0.99642896E+00 0.14928748E+02</pdfrwt>
<pdfrwt beam="1">  1       -2 0.98583638E+00 0.14928748E+02</pdfrwt>
<totfact> 0.31107897E-13</totfact>
</mgrwt>
</event>
<event>
 4    1  0.5119137E-019  0.1496477E+02  0.7818608E-02  0.1869146E+00
          2   -1    0    0  501    0  0.00000000000E+00  0.00000000000E+00  0.12029457524E+03  0.12029457527E+03  0.25500000000E-02 0.  1.
         -2   -1    0    0    0  501 -0.00000000000E+00 -0.00000000000E+00 -0.46540449074E+00  0.46541147655E+00  0.25500000000E-02 0. -1.
         31    1    1    2    0    0 -0.21661716949E+00  0.97217949113E-01  0.65451301225E+02  0.65874032307E+02  0.74470750000E+01 0.  1.
        -31    1    1    2    0    0  0.21661716949E+00 -0.97217949113E-01  0.54377869529E+02  0.54885954440E+02  0.74470750000E+01 0. -1.
<mgrwt>
<rscale>  0 0.14964766E+02</rscale>
<asrwt>0</asrwt>
<pdfrwt beam="1">  1        2 0.99852806E+00 0.14964766E+02</pdfrwt>
<pdfrwt beam="2">  1       -2 0.98851667E+00 0.14964766E+02</pdfrwt>
<totfact> 0.46581658E-14</totfact>
</mgrwt>
</event>
<event>
 4    1 -0.5119137E-019  0.1504702E+02  0.7818608E-02  0.1866637E+00
         -2   -1    0    0    0  501 -0.00000000000E+00  0.00000000000E+00  0.12040489510E+03  0.12040489512E+03  0.25500000000E-02 0. -1.
          2   -1    0    0  501    0  0.00000000000E+00 -0.00000000000E+00 -0.47010375729E+00  0.47011067326E+00  0.25500000000E-02 0.  1.
         31    1    1    2    0    0  0.57627002719E+00 -0.31799760493E+00  0.66741384000E+02  0.67158800421E+02  0.74470750000E+01 0. -1.
        -31    1    1    2    0    0 -0.57627002719E+00  0.31799760493E+00  0.53193407339E+02  0.53716205376E+02  0.74470750000E+01 0.  1.
<mgrwt>
<rscale>  0 0.15047021E+02</rscale>
<asrwt>0</asrwt>
<pdfrwt beam="2">  1        2 0.99846245E+00 0.15047021E+02</pdfrwt>
<pdfrwt beam="1">  1       -2 0.99947912E+00 0.15047021E+02</pdfrwt>
<totfact>-0.93287038E-15</totfact>
</mgrwt>
</event>
<event>
 4    1  0.5119137E-019  0.1492326E+02  0.7818608E-02  0.1870419E+00
         -2   -1    0    0    0  501 -0.00000000000E+00  0.00000000000E+00  0.11869575767E+03  0.11869575770E+03  0.25500000000E-02 0.  1.
          2   -1    0    0  501    0  0.00000000000E+00 -0.00000000000E+00 -0.46906067882E+00  0.46906761017E+00  0.25500000000E-02 0. -1.
         31    1    1    2    0    0  0.10969123030E+00  0.17191180407E+00  0.55768948551E+02  0.56264341588E+02  0.74470750000E+01 0.  1.
        -31    1    1    2    0    0 -0.10969123030E+00 -0.17191180407E+00  0.62457748441E+02  0.62900483720E+02  0.74470750000E+01 0.  1.
<mgrwt>
<rscale>  0 0.14923261E+02</rscale>
<asrwt>0</asrwt>
<pdfrwt beam="2">  1        2 0.99620000E+00 0.14923261E+02</pdfrwt>
<pdfrwt beam="1">  1       -2 0.98533815E+00 0.14923261E+02</pdfrwt>
<totfact> 0.37723742E-13</totfact>
</mgrwt>
</event>
<event>
 4    1 -0.5119137E-019  0.1494248E+02  0.7818608E-02  0.1869829E+00
         -2   -1    0    0    0  501 -0.00000000000E+00  0.00000000000E+00  0.11994610387E+03  0.11994610390E+03  0.25500000000E-02 0. -1.
          2   -1    0    0  501    0  0.00000000000E+00 -0.00000000000E+00 -0.46536734015E+00  0.46537432651E+00  0.25500000000E-02 0.  1.
         31    1    1    2    0    0 -0.26676637097E+00  0.67362172168E-01  0.55439953889E+02  0.55938565545E+02  0.74470750000E+01 0.  1.
        -31    1    1    2    0    0  0.26676637097E+00 -0.67362172168E-01  0.64040782639E+02  0.64472912677E+02  0.74470750000E+01 0. -1.
<mgrwt>
<rscale>  0 0.14942479E+02</rscale>
<asrwt>0</asrwt>
<pdfrwt beam="2">  1        2 0.98842700E+00 0.14942479E+02</pdfrwt>
<pdfrwt beam="1">  1       -2 0.99564635E+00 0.14942479E+02</pdfrwt>
<totfact>-0.20514168E-13</totfact>
</mgrwt>
</event>
<event>
 4    1 -0.5119137E-019  0.1498369E+02  0.7818608E-02  0.1868567E+00
          2   -1    0    0  501    0  0.00000000000E+00  0.00000000000E+00  0.11965105213E+03  0.11965105216E+03  0.25500000000E-02 0.  1.
         -2   -1    0    0    0  501 -0.00000000000E+00 -0.00000000000E+00 -0.46909196863E+00  0.46909889952E+00  0.25500000000E-02 0. -1.
         31    1    1    2    0    0 -0.37852095345E+00  0.49497110464E+00  0.63837309598E+02  0.64273239356E+02  0.74470750000E+01 0.  1.
        -31    1    1    2    0    0  0.37852095345E+00 -0.49497110464E+00  0.55344650568E+02  0.55846911705E+02  0.74470750000E+01 0.  1.
<mgrwt>
<rscale>  0 0.14983693E+02</rscale>
<asrwt>0</asrwt>
<pdfrwt beam="1">  1        2 0.99323745E+00 0.14983693E+02</pdfrwt>
<pdfrwt beam="2">  1       -2 0.99629750E+00 0.14983693E+02</pdfrwt>
<totfact>-0.12533870E-13</totfact>
</mgrwt>
</event>
<event>
 4    1 -0.5119137E-019  0.1492520E+02  0.7818608E-02  0.1870360E+00
          2   -1    0    0  501    0  0.00000000000E+00  0.00000000000E+00  0.11831854080E+03  0.11831854083E+03  0.25500000000E-02 0.  1.
         -2   -1    0    0    0  501 -0.00000000000E+00 -0.00000000000E+00 -0.47067870002E+00  0.47068560755E+00  0.25500000000E-02 0. -1.
         31    1    1    2    0    0 -0.35406983701E-01  0.23809359279E+00  0.55608176652E+02  0.56105135049E+02  0.74470750000E+01 0. -1.
        -31    1    1    2    0    0  0.35406983701E-01 -0.23809359279E+00  0.62239685446E+02  0.62684091384E+02  0.74470750000E+01 0.  1.
<mgrwt>
<rscale>  0 0.14925204E+02</rscale>
<asrwt>0</asrwt>
<pdfrwt beam="1">  1        2 0.98223244E+00 0.14925204E+02</pdfrwt>
<pdfrwt beam="2">  1       -2 0.99961017E+00 0.14925204E+02</pdfrwt>
<totfact>-0.73295075E-14</totfact>
</mgrwt>
</event>
<event>
 4    1  0.5119137E-019  0.1490433E+02  0.7818608E-02  0.1871002E+00
          2   -1    0    0  501    0  0.00000000000E+00  0.00000000000E+00  0.11923101654E+03  0.11923101656E+03  0.25500000000E-02 0. -1.
         -2   -1    0    0    0  501 -0.00000000000E+00 -0.00000000000E+00 -0.46577107588E+00  0.46577805619E+00  0.25500000000E-02 0.  1.
         31    1    1    2    0    0  0.66357134455E-01  0.26603836900E+00  0.59174357267E+02  0.59641752688E+02  0.74470750000E+01 0.  1.
        -31    1    1    2    0    0 -0.66357134455E-01 -0.26603836900E+00  0.59590888193E+02  0.60055041931E+02  0.74470750000E+01 0.  1.
<mgrwt>
<rscale>  0 0.14904332E+02</rscale>
<asrwt>0</asrwt>
<pdfrwt beam="1">  1        2 0.98973685E+00 0.14904332E+02</pdfrwt>
<pdfrwt beam="2">  1       -2 0.98925825E+00 0.14904332E+02</pdfrwt>
<totfact> 0.83711207E-14</totfact>
</mgrwt>
</event>
<event>
 4    1 -0.5119137E-019  0.1497101E+02  0.7818608E-02  0.1868954E+00
         -2   -1    0    0    0  501 -0.00000000000E+00  0.00000000000E+00  0.11947968114E+03  0.11947968116E+03  0.25500000000E-02 0.  1.
          2   -1    0    0  501    0  0.00000000000E+00 -0.00000000000E+00 -0.46896985638E+00  0.46897678907E+00  0.25500000000E-02 0. -1.
         31    1    1    2    0    0 -0.65900937195E+00  0.11122284867E+00  0.62362825623E+02  0.62809454779E+02  0.74470750000E+01 0.  1.
        -31    1    1    2    0    0  0.65900937195E+00 -0.11122284867E+00  0.56647885656E+02  0.57139203173E+02  0.74470750000E+01 0. -1.
<mgrwt>
<rscale>  0 0.14971010E+02</rscale>
<asrwt>0</asrwt>
<pdfrwt beam="2">  1        2 0.99603359E+00 0.14971010E+02</pdfrwt>
<pdfrwt beam="1">  1       -2 0.99181943E+00 0.14971010E+02</pdfrwt>
<totfact>-0.64288135E-14</totfact>
</mgrwt>
</event>
<event>
 4    1 -0.5119137E-019  0.1490399E+02  0.7818608E-02  0.1871012E+00
          2   -1    0    0  501    0  0.00000000000E+00  0.00000000000E+00  0.11804008862E+03  0.11804008865E+03  0.25500000000E-02 0.  1.
         -2   -1    0    0    0  501 -0.00000000000E+00 -0.00000000000E+00 -0.47044911354E+00  0.47045602444E+00  0.25500000000E-02 0. -1.
         31    1    1    2    0    0 -0.10372157236E-01  0.46653249909E-01  0.60904423947E+02  0.61358048098E+02  0.74470750000E+01 0.  1.
        -31    1    1    2    0    0  0.10372157236E-01 -0.46653249909E-01  0.56665215560E+02  0.57152496574E+02  0.74470750000E+01 0. -1.
<mgrwt>
<rscale>  0 0.14903995E+02</rscale>
<asrwt>0</asrwt>
<pdfrwt beam="1">  1        2 0.97992810E+00 0.14903995E+02</pdfrwt>
<pdfrwt beam="2">  1       -2 0.99911519E+00 0.14903995E+02</pdfrwt>
<totfact>-0.23513482E-13</totfact>
</mgrwt>
</event>
<event>
 4    1  0.5119137E-019  0.1490051E+02  0.7818608E-02  0.1871120E+00
          2   -1    0    0  501    0  0.00000000000E+00  0.00000000000E+00  0.12007291197E+03  0.12007291200E+03  0.25500000000E-02 0. -1.
         -2   -1    0    0    0  501 -0.00000000000E+00 -0.00000000000E+00 -0.46226784616E+00  0.46227487936E+00  0.25500000000E-02 0.  1.
         31    1    1    2    0    0 -0.18221529146E+00 -0.11742483400E+00  0.59652940698E+02  0.60116380887E+02  0.74470750000E+01 0.  1.
        -31    1    1    2    0    0  0.18221529146E+00  0.11742483400E+00  0.59957703425E+02  0.60418805989E+02  0.74470750000E+01 0. -1.
<mgrwt>
<rscale>  0 0.14900506E+02</rscale>
<asrwt>0</asrwt>
<pdfrwt beam="1">  1        2 0.99666926E+00 0.14900506E+02</pdfrwt>
<pdfrwt beam="2">  1       -2 0.98187312E+00 0.14900506E+02</pdfrwt>
<totfact> 0.79590283E-13</totfact>
</mgrwt>
</event>
<event>
 4    1 -0.5119137E-019  0.1492872E+02  0.7818608E-02  0.1870252E+00
          2   -1    0    0  501    0  0.00000000000E+00  0.00000000000E+00  0.11864363303E+03  0.11864363306E+03  0.25500000000E-02 0. -1.
         -2   -1    0    0    0  501 -0.00000000000E+00 -0.00000000000E+00 -0.46960987997E+00  0.46961680322E+00  0.25500000000E-02 0.  1.
         31    1    1    2    0    0  0.42668893385E+00  0.26995792673E+00  0.59506899832E+02  0.59973202302E+02  0.74470750000E+01 0. -1.
        -31    1    1    2    0    0 -0.42668893385E+00 -0.26995792673E+00  0.58667123321E+02  0.59140047562E+02  0.74470750000E+01 0. -1.
<mgrwt>
<rscale>  0 0.14928715E+02</rscale>
<asrwt>0</asrwt>
<pdfrwt beam="1">  1        2 0.98491169E+00 0.14928715E+02</pdfrwt>
<pdfrwt beam="2">  1       -2 0.99736006E+00 0.14928715E+02</pdfrwt>
<totfact>-0.25852881E-13</totfact>
</mgrwt>
</event>
<event>
 4    1  0.5119137E-019  0.1492044E+02  0.7818608E-02  0.1870506E+00
          2   -1    0    0  501    0  0.00000000000E+00  0.00000000000E+00  0.12023807008E+03  0.12023807011E+03  0.25500000000E-02 0. -1.
         -2   -1    0    0    0  501 -0.00000000000E+00 -0.00000000000E+00 -0.46286873293E+00  0.46287575700E+00  0.25500000000E-02 0.  1.
         31    1    1    2    0    0 -0.33987962818E+00 -0.82561369757E-01  0.57692816265E+02  0.58172521943E+02  0.74470750000E+01 0. -1.
        -31    1    1    2    0    0  0.33987962818E+00  0.82561369757E-01  0.62082385081E+02  0.62528423920E+02  0.74470750000E+01 0. -1.
<mgrwt>
<rscale>  0 0.14920438E+02</rscale>
<asrwt>0</asrwt>
<pdfrwt beam="1">  1        2 0.99803987E+00 0.14920438E+02</pdfrwt>
<pdfrwt beam="2">  1       -2 0.98314969E+00 0.14920438E+02</pdfrwt>
<totfact> 0.41652040E-13</totfact>
</mgrwt>
</event>
<event>
 4    1 -0.5119137E-019  0.1497325E+02  0.7818608E-02  0.1868886E+00
         -2   -1    0    0    0  501 -0.00000000000E+00  0.00000000000E+00  0.12003062402E+03  0.12003062404E+03  0.25500000000E-02 0.  1.
          2   -1    0    0  501    0  0.00000000000E+00 -0.00000000000E+00 -0.46695670613E+00  0.46696366872E+00  0.25500000000E-02 0. -1.
         31    1    1    2    0    0 -0.42125049294E+00 -0.37136095393E+00  0.64003824952E+02  0.64438062475E+02  0.74470750000E+01 0.  1.
        -31    1    1    2    0    0  0.42125049294E+00  0.37136095393E+00  0.55559842357E+02  0.56059525236E+02  0.74470750000E+01 0. -1.
<mgrwt>
<rscale>  0 0.14973246E+02</rscale>
<asrwt>0</asrwt>
<pdfrwt beam="2">  1        2 0.99179234E+00 0.14973246E+02</pdfrwt>
<pdfrwt beam="1">  1       -2 0.99635836E+00 0.14973246E+02</pdfrwt>
<totfact>-0.13796753E-13</totfact>
</mgrwt>
</event>
<event>
 4    1  0.5119137E-019  0.1492280E+02  0.7818608E-02  0.1870433E+00
          2   -1    0    0  501    0  0.00000000000E+00  0.00000000000E+00  0.12002955699E+03  0.12002955701E+03  0.25500000000E-02 0. -1.
         -2   -1    0    0    0  501 -0.00000000000E+00 -0.00000000000E+00 -0.46381971581E+00  0.46382672549E+00  0.25500000000E-02 0.  1.
         31    1    1    2    0    0 -0.63879303004E-01 -0.42821226221E+00  0.61087999951E+02  0.61541775327E+02  0.74470750000E+01 0. -1.
        -31    1    1    2    0    0  0.63879303004E-01  0.42821226221E+00  0.58477737319E+02  0.58951608412E+02  0.74470750000E+01 0.  1.
<mgrwt>
<rscale>  0 0.14922801E+02</rscale>
<asrwt>0</asrwt>
<pdfrwt beam="1">  1        2 0.99632360E+00 0.14922801E+02</pdfrwt>
<pdfrwt beam="2">  1       -2 0.98515524E+00 0.14922801E+02</pdfrwt>
<totfact> 0.39017323E-13</totfact>
</mgrwt>
</event>
<event>
 4    1 -0.5119137E-019  0.1490822E+02  0.7818608E-02  0.1870882E+00
          2   -1    0    0  501    0  0.00000000000E+00  0.00000000000E+00  0.11825587923E+03  0.11825587926E+03  0.25500000000E-02 0.  1.
         -2   -1    0    0    0  501 -0.00000000000E+00 -0.00000000000E+00 -0.46985714298E+00  0.46986406259E+00  0.25500000000E-02 0. -1.
         31    1    1    2    0    0  0.15266206037E+00 -0.18985819222E+00  0.57194203881E+02  0.57677510656E+02  0.74470750000E+01 0. -1.
        -31    1    1    2    0    0 -0.15266206037E+00  0.18985819222E+00  0.60591818205E+02  0.61048232664E+02  0.74470750000E+01 0.  1.
<mgrwt>
<rscale>  0 0.14908223E+02</rscale>
<asrwt>0</asrwt>
<pdfrwt beam="1">  1        2 0.98170751E+00 0.14908223E+02</pdfrwt>
<pdfrwt beam="2">  1       -2 0.99787021E+00 0.14908223E+02</pdfrwt>
<totfact>-0.37636252E-13</totfact>
</mgrwt>
</event>
<event>
 4    1 -0.5119137E-019  0.1490198E+02  0.7818608E-02  0.1871074E+00
         -2   -1    0    0    0  501 -0.00000000000E+00  0.00000000000E+00  0.11965457908E+03  0.11965457911E+03  0.25500000000E-02 0.  1.
          2   -1    0    0  501    0  0.00000000000E+00 -0.00000000000E+00 -0.46397594198E+00  0.46398294930E+00  0.25500000000E-02 0. -1.
         31    1    1    2    0    0 -0.23552532709E+00  0.53501055546E-01  0.59617998298E+02  0.60081802417E+02  0.74470750000E+01 0.  1.
        -31    1    1    2    0    0  0.23552532709E+00 -0.53501055546E-01  0.59572604839E+02  0.60036759639E+02  0.74470750000E+01 0. -1.
<mgrwt>
<rscale>  0 0.14901982E+02</rscale>
<asrwt>0</asrwt>
<pdfrwt beam="2">  1        2 0.98547389E+00 0.14901982E+02</pdfrwt>
<pdfrwt beam="1">  1       -2 0.99322431E+00 0.14901982E+02</pdfrwt>
<totfact>-0.28992207E-13</totfact>
</mgrwt>
</event>
<event>
 4    1 -0.5119137E-019  0.1492724E+02  0.7818608E-02  0.1870297E+00
         -2   -1    0    0    0  501 -0.00000000000E+00  0.00000000000E+00  0.11994035589E+03  0.11994035592E+03  0.25500000000E-02 0.  1.
          2   -1    0    0  501    0  0.00000000000E+00 -0.00000000000E+00 -0.46444057531E+00  0.46444757561E+00  0.25500000000E-02 0. -1.
         31    1    1    2    0    0 -0.11044941544E+00 -0.44248316068E+00  0.58151689233E+02  0.58628370923E+02  0.74470750000E+01 0.  1.
        -31    1    1    2    0    0  0.11044941544E+00  0.44248316068E+00  0.61324226081E+02  0.61776432568E+02  0.74470750000E+01 0. -1.
<mgrwt>
<rscale>  0 0.14927236E+02</rscale>
<asrwt>0</asrwt>
<pdfrwt beam="2">  1        2 0.98646602E+00 0.14927236E+02</pdfrwt>
<pdfrwt beam="1">  1       -2 0.99559116E+00 0.14927236E+02</pdfrwt>
<totfact>-0.26875204E-13</totfact>
</mgrwt>
</event>
<event>
 4    1  0.5119137E-019  0.1494966E+02  0.7818608E-02  0.1869609E+00
         -2   -1    0    0    0  501 -0.00000000000E+00  0.00000000000E+00  0.11901852827E+03  0.11901852830E+03  0.25500000000E-02 0.  1.
          2   -1    0    0  501    0  0.00000000000E+00 -0.00000000000E+00 -0.46944498873E+00  0.46945191441E+00  0.25500000000E-02 0. -1.
         31    1    1    2    0    0 -0.16891379127E-01 -0.30300517344E+00  0.54738779492E+02  0.55243868472E+02  0.74470750000E+01 0. -1.
        -31    1    1    2    0    0  0.16891379127E-01  0.30300517344E+00  0.63810303789E+02  0.64244111739E+02  0.74470750000E+01 0.  1.
<mgrwt>
<rscale>  0 0.14949658E+02</rscale>
<asrwt>0</asrwt>
<pdfrwt beam="2">  1        2 0.99702362E+00 0.14949658E+02</pdfrwt>
<pdfrwt beam="1">  1       -2 0.98801022E+00 0.14949658E+02</pdfrwt>
<totfact> 0.11046529E-13</totfact>
</mgrwt>
</event>
<event>
 4    1 -0.5119137E-019  0.1491441E+02  0.7818608E-02  0.1870692E+00
          2   -1    0    0  501    0  0.00000000000E+00  0.00000000000E+00  0.11906532312E+03  0.11906532314E+03  0.25500000000E-02 0. -1.
         -2   -1    0    0    0  501 -0.00000000000E+00 -0.00000000000E+00 -0.46705002297E+00  0.46705698417E+00  0.25500000000E-02 0.  1.
         31    1    1    2    0    0 -0.16747351280E+00  0.83776831511E-01  0.62027473753E+02  0.62473206194E+02  0.74470750000E+01 0. -1.
        -31    1    1    2    0    0  0.16747351280E+00 -0.83776831511E-01  0.56570799341E+02  0.57059173934E+02  0.74470750000E+01 0.  1.
<mgrwt>
<rscale>  0 0.14914406E+02</rscale>
<asrwt>0</asrwt>
<pdfrwt beam="1">  1        2 0.98837735E+00 0.14914406E+02</pdfrwt>
<pdfrwt beam="2">  1       -2 0.99195859E+00 0.14914406E+02</pdfrwt>
<totfact>-0.13843176E-13</totfact>
</mgrwt>
</event>
<event>
 4    1 -0.5119137E-019  0.1501556E+02  0.7818608E-02  0.1867594E+00
         -2   -1    0    0    0  501 -0.00000000000E+00  0.00000000000E+00  0.12012254263E+03  0.12012254266E+03  0.25500000000E-02 0. -1.
          2   -1    0    0  501    0  0.00000000000E+00 -0.00000000000E+00 -0.46924040404E+00  0.46924733274E+00  0.25500000000E-02 0.  1.
         31    1    1    2    0    0 -0.49980289475E+00 -0.39380174825E+00  0.54131000470E+02  0.54644569911E+02  0.74470750000E+01 0.  1.
        -31    1    1    2    0    0  0.49980289475E+00  0.39380174825E+00  0.65522301756E+02  0.65947220079E+02  0.74470750000E+01 0.  1.
<mgrwt>
<rscale>  0 0.15015561E+02</rscale>
<asrwt>0</asrwt>
<pdfrwt beam="2">  1        2 0.99662680E+00 0.15015561E+02</pdfrwt>
<pdfrwt beam="1">  1       -2 0.99713729E+00 0.15015561E+02</pdfrwt>
<totfact>-0.73874496E-14</totfact>
</mgrwt>
</event>
<event>
 4    1 -0.5119137E-019  0.1491442E+02  0.7818608E-02  0.1870691E+00
          2   -1    0    0  501    0  0.00000000000E+00  0.00000000000E+00  0.11901698370E+03  0.11901698373E+03  0.25500000000E-02 0.  1.
         -2   -1    0    0    0  501 -0.00000000000E+00 -0.00000000000E+00 -0.46724074720E+00  0.46724770555E+00  0.25500000000E-02 0. -1.
         31    1    1    2    0    0  0.12531629675E+00 -0.59795236944E-01  0.56366463611E+02  0.56856454565E+02  0.74470750000E+01 0. -1.
        -31    1    1    2    0    0 -0.12531629675E+00  0.59795236944E-01  0.62183279341E+02  0.62627776867E+02  0.74470750000E+01 0.  1.
<mgrwt>
<rscale>  0 0.14914423E+02</rscale>
<asrwt>0</asrwt>
<pdfrwt beam="1">  1        2 0.98797922E+00 0.14914423E+02</pdfrwt>
<pdfrwt beam="2">  1       -2 0.99236051E+00 0.14914423E+02</pdfrwt>
<totfact>-0.16719416E-13</totfact>
</mgrwt>
</event>
<event>
 4    1 -0.5119137E-019  0.1492380E+02  0.7818608E-02  0.1870403E+00
          2   -1    0    0  501    0  0.00000000000E+00  0.00000000000E+00  0.11912819159E+03  0.11912819162E+03  0.25500000000E-02 0.  1.
         -2   -1    0    0    0  501 -0.00000000000E+00 -0.00000000000E+00 -0.46739195218E+00  0.46739890828E+00  0.25500000000E-02 0. -1.
         31    1    1    2    0    0 -0.54749350553E-01 -0.46230767611E+00  0.58803458062E+02  0.59274972222E+02  0.74470750000E+01 0.  1.
        -31    1    1    2    0    0  0.54749350553E-01  0.46230767611E+00  0.59857341576E+02  0.60320618303E+02  0.74470750000E+01 0. -1.
<mgrwt>
<rscale>  0 0.14923803E+02</rscale>
<asrwt>0</asrwt>
<pdfrwt beam="1">  1        2 0.98890002E+00 0.14923803E+02</pdfrwt>
<pdfrwt beam="2">  1       -2 0.99268401E+00 0.14923803E+02</pdfrwt>
<totfact>-0.16284666E-13</totfact>
</mgrwt>
</event>
<event>
 4    1 -0.5119137E-019  0.1493886E+02  0.7818608E-02  0.1869940E+00
          2   -1    0    0  501    0  0.00000000000E+00  0.00000000000E+00  0.11913019773E+03  0.11913019776E+03  0.25500000000E-02 0.  1.
         -2   -1    0    0    0  501 -0.00000000000E+00 -0.00000000000E+00 -0.46832770903E+00  0.46833465123E+00  0.25500000000E-02 0. -1.
         31    1    1    2    0    0  0.42696722706E+00 -0.35296383307E+00  0.58025737654E+02  0.58504290790E+02  0.74470750000E+01 0. -1.
        -31    1    1    2    0    0 -0.42696722706E+00  0.35296383307E+00  0.60636132372E+02  0.61094241623E+02  0.74470750000E+01 0. -1.
<mgrwt>
<rscale>  0 0.14938861E+02</rscale>
<asrwt>0</asrwt>
<pdfrwt beam="1">  1        2 0.98892434E+00 0.14938861E+02</pdfrwt>
<pdfrwt beam="2">  1       -2 0.99466370E+00 0.14938861E+02</pdfrwt>
<totfact>-0.20017083E-13</totfact>
</mgrwt>
</event>
<event>
 4    1 -0.5119137E-019  0.1490155E+02  0.7818608E-02  0.1871088E+00
         -2   -1    0    0    0  501 -0.00000000000E+00  0.00000000000E+00  0.11976319585E+03  0.11976319588E+03  0.25500000000E-02 0. -1.
          2   -1    0    0  501    0  0.00000000000E+00 -0.00000000000E+00 -0.46352805318E+00  0.46353506727E+00  0.25500000000E-02 0.  1.
         31    1    1    2    0    0 -0.12887137883E+00 -0.16990609169E+00  0.58858409165E+02  0.59328043381E+02  0.74470750000E+01 0. -1.
        -31    1    1    2    0    0  0.12887137883E+00  0.16990609169E+00  0.60441258636E+02  0.60898687568E+02  0.74470750000E+01 0. -1.
<mgrwt>
<rscale>  0 0.14901547E+02</rscale>
<asrwt>0</asrwt>
<pdfrwt beam="2">  1        2 0.98452972E+00 0.14901547E+02</pdfrwt>
<pdfrwt beam="1">  1       -2 0.99411873E+00 0.14901547E+02</pdfrwt>
<totfact>-0.36957767E-13</totfact>
</mgrwt>
</event>
<event>
 4    1 -0.5119137E-019  0.1497832E+02  0.7818608E-02  0.1868731E+00
         -2   -1    0    0    0  501 -0.00000000000E+00  0.00000000000E+00  0.12001149135E+03  0.12001149138E+03  0.25500000000E-02 0.  1.
          2   -1    0    0  501    0  0.00000000000E+00 -0.00000000000E+00 -0.46734776743E+00  0.46735472419E+00  0.25500000000E-02 0. -1.
         31    1    1    2    0    0 -0.26856175827E+00  0.41104846373E+00  0.64779210879E+02  0.65207715605E+02  0.74470750000E+01 0.  1.
        -31    1    1    2    0    0  0.26856175827E+00 -0.41104846373E+00  0.54764932703E+02  0.55271130496E+02  0.74470750000E+01 0. -1.
<mgrwt>
<rscale>  0 0.14978321E+02</rscale>
<asrwt>0</asrwt>
<pdfrwt beam="2">  1        2 0.99261908E+00 0.14978321E+02</pdfrwt>
<pdfrwt beam="1">  1       -2 0.99620339E+00 0.14978321E+02</pdfrwt>
<totfact>-0.13266719E-13</totfact>
</mgrwt>
</event>
<event>
 4    1 -0.5119137E-019  0.1491569E+02  0.7818608E-02  0.1870652E+00
         -2   -1    0    0    0  501 -0.00000000000E+00  0.00000000000E+00  0.11964229785E+03  0.11964229788E+03  0.25500000000E-02 0. -1.
          2   -1    0    0  501    0  0.00000000000E+00 -0.00000000000E+00 -0.46487754363E+00  0.46488453735E+00  0.25500000000E-02 0.  1.
         31    1    1    2    0    0  0.35195837863E+00 -0.16546425681E+00  0.60363584044E+02  0.60822466719E+02  0.74470750000E+01 0.  1.
        -31    1    1    2    0    0 -0.35195837863E+00  0.16546425681E+00  0.58813836265E+02  0.59284715698E+02  0.74470750000E+01 0.  1.
<mgrwt>
<rscale>  0 0.14915688E+02</rscale>
<asrwt>0</asrwt>
<pdfrwt beam="2">  1        2 0.98738104E+00 0.14915688E+02</pdfrwt>
<pdfrwt beam="1">  1       -2 0.99313022E+00 0.14915688E+02</pdfrwt>
<totfact>-0.21507364E-13</totfact>
</mgrwt>
</event>
<event>
 4    1 -0.5119137E-019  0.1493439E+02  0.7818608E-02  0.1870077E+00
          2   -1    0    0  501    0  0.00000000000E+00  0.00000000000E+00  0.11858537524E+03  0.11858537527E+03  0.25500000000E-02 0.  1.
         -2   -1    0    0    0  501 -0.00000000000E+00 -0.00000000000E+00 -0.47019784457E+00  0.47020475916E+00  0.25500000000E-02 0. -1.
         31    1    1    2    0    0 -0.55781748381E-01  0.44089724835E-01  0.54727591248E+02  0.55231994581E+02  0.74470750000E+01 0. -1.
        -31    1    1    2    0    0  0.55781748381E-01 -0.44089724835E-01  0.63387586151E+02  0.63823585450E+02  0.74470750000E+01 0.  1.
<mgrwt>
<rscale>  0 0.14934390E+02</rscale>
<asrwt>0</asrwt>
<pdfrwt beam="1">  1        2 0.98443483E+00 0.14934390E+02</pdfrwt>
<pdfrwt beam="2">  1       -2 0.99860190E+00 0.14934390E+02</pdfrwt>
<totfact>-0.16727035E-13</totfact>
</mgrwt>
</event>
<event>
 4    1  0.5119137E-019  0.1493447E+02  0.7818608E-02  0.1870075E+00
         -2   -1    0    0    0  501 -0.00000000000E+00  0.00000000000E+00  0.11897162439E+03  0.11897162442E+03  0.25500000000E-02 0.  1.
          2   -1    0    0  501    0  0.00000000000E+00 -0.00000000000E+00 -0.46867629657E+00  0.46868323361E+00  0.25500000000E-02 0. -1.
         31    1    1    2    0    0  0.22395577564E+00  0.43910382897E+00  0.57330348103E+02  0.57814104750E+02  0.74470750000E+01 0.  1.
        -31    1    1    2    0    0 -0.22395577564E+00 -0.43910382897E+00  0.61172599993E+02  0.61626202904E+02  0.74470750000E+01 0.  1.
<mgrwt>
<rscale>  0 0.14934470E+02</rscale>
<asrwt>0</asrwt>
<pdfrwt beam="2">  1        2 0.99539594E+00 0.14934470E+02</pdfrwt>
<pdfrwt beam="1">  1       -2 0.98761603E+00 0.14934470E+02</pdfrwt>
<totfact> 0.17777738E-13</totfact>
</mgrwt>
</event>
<event>
 4    1  0.5119137E-019  0.1491241E+02  0.7818608E-02  0.1870753E+00
          2   -1    0    0  501    0  0.00000000000E+00  0.00000000000E+00  0.12026060600E+03  0.12026060602E+03  0.25500000000E-02 0.  1.
         -2   -1    0    0    0  501 -0.00000000000E+00 -0.00000000000E+00 -0.46228387446E+00  0.46229090742E+00  0.25500000000E-02 0. -1.
         31    1    1    2    0    0 -0.22079832898E+00  0.28566031744E+00  0.59288757372E+02  0.59755719647E+02  0.74470750000E+01 0. -1.
        -31    1    1    2    0    0  0.22079832898E+00 -0.28566031744E+00  0.60509564750E+02  0.60967177284E+02  0.74470750000E+01 0. -1.
<mgrwt>
<rscale>  0 0.14912406E+02</rscale>
<asrwt>0</asrwt>
<pdfrwt beam="1">  1        2 0.99822138E+00 0.14912406E+02</pdfrwt>
<pdfrwt beam="2">  1       -2 0.98191291E+00 0.14912406E+02</pdfrwt>
<totfact> 0.49981907E-13</totfact>
</mgrwt>
</event>
<event>
 4    1 -0.5119137E-019  0.1490799E+02  0.7818608E-02  0.1870889E+00
         -2   -1    0    0    0  501 -0.00000000000E+00  0.00000000000E+00  0.12016514750E+03  0.12016514752E+03  0.25500000000E-02 0. -1.
          2   -1    0    0  501    0  0.00000000000E+00 -0.00000000000E+00 -0.46237713790E+00  0.46238416944E+00  0.25500000000E-02 0.  1.
         31    1    1    2    0    0 -0.25791270721E+00  0.17424871133E+00  0.60490307517E+02  0.60947790043E+02  0.74470750000E+01 0.  1.
        -31    1    1    2    0    0  0.25791270721E+00 -0.17424871133E+00  0.59212462842E+02  0.59679741651E+02  0.74470750000E+01 0.  1.
<mgrwt>
<rscale>  0 0.14907990E+02</rscale>
<asrwt>0</asrwt>
<pdfrwt beam="2">  1        2 0.98210726E+00 0.14907990E+02</pdfrwt>
<pdfrwt beam="1">  1       -2 0.99743283E+00 0.14907990E+02</pdfrwt>
<totfact>-0.40522332E-13</totfact>
</mgrwt>
</event>
<event>
 4    1  0.5119137E-019  0.1493635E+02  0.7818608E-02  0.1870017E+00
         -2   -1    0    0    0  501 -0.00000000000E+00  0.00000000000E+00  0.11890954296E+03  0.11890954298E+03  0.25500000000E-02 0. -1.
          2   -1    0    0  501    0  0.00000000000E+00 -0.00000000000E+00 -0.46903922388E+00  0.46904615556E+00  0.25500000000E-02 0.  1.
         31    1    1    2    0    0  0.27761487428E+00  0.50360291470E-01  0.55344737552E+02  0.55844234321E+02  0.74470750000E+01 0.  1.
        -31    1    1    2    0    0 -0.27761487428E+00 -0.50360291470E-01  0.63095766181E+02  0.63534354819E+02  0.74470750000E+01 0. -1.
<mgrwt>
<rscale>  0 0.14936352E+02</rscale>
<asrwt>0</asrwt>
<pdfrwt beam="2">  1        2 0.99616166E+00 0.14936352E+02</pdfrwt>
<pdfrwt beam="1">  1       -2 0.98710570E+00 0.14936352E+02</pdfrwt>
<totfact> 0.20294363E-13</totfact>
</mgrwt>
</event>
<event>
 4    1  0.5119137E-019  0.1490614E+02  0.7818608E-02  0.1870946E+00
          2   -1    0    0  501    0  0.00000000000E+00  0.00000000000E+00  0.11981281865E+03  0.11981281868E+03  0.25500000000E-02 0.  1.
         -2   -1    0    0    0  501 -0.00000000000E+00 -0.00000000000E+00 -0.46362172593E+00  0.46362873860E+00  0.25500000000E-02 0. -1.
         31    1    1    2    0    0  0.14395133283E+00 -0.16983106744E+00  0.58065693464E+02  0.58541722285E+02  0.74470750000E+01 0. -1.
        -31    1    1    2    0    0 -0.14395133283E+00  0.16983106744E+00  0.61283503461E+02  0.61734725132E+02  0.74470750000E+01 0.  1.
<mgrwt>
<rscale>  0 0.14906140E+02</rscale>
<asrwt>0</asrwt>
<pdfrwt beam="1">  1        2 0.99452982E+00 0.14906140E+02</pdfrwt>
<pdfrwt beam="2">  1       -2 0.98472948E+00 0.14906140E+02</pdfrwt>
<totfact> 0.54684276E-13</totfact>
</mgrwt>
</event>
<event>
 4    1 -0.5119137E-019  0.1493715E+02  0.7818608E-02  0.1869992E+00
         -2   -1    0    0    0  501 -0.00000000000E+00  0.00000000000E+00  0.12004121169E+03  0.12004121171E+03  0.25500000000E-02 0. -1.
          2   -1    0    0  501    0  0.00000000000E+00 -0.00000000000E+00 -0.46466719990E+00  0.46467419679E+00  0.25500000000E-02 0.  1.
         31    1    1    2    0    0 -0.25722450712E+00 -0.49742089229E+00  0.60468957173E+02  0.60928378443E+02  0.74470750000E+01 0.  1.
        -31    1    1    2    0    0  0.25722450712E+00  0.49742089229E+00  0.59107587314E+02  0.59577507468E+02  0.74470750000E+01 0.  1.
<mgrwt>
<rscale>  0 0.14937153E+02</rscale>
<asrwt>0</asrwt>
<pdfrwt beam="2">  1        2 0.98694870E+00 0.14937153E+02</pdfrwt>
<pdfrwt beam="1">  1       -2 0.99642698E+00 0.14937153E+02</pdfrwt>
<totfact>-0.22872497E-13</totfact>
</mgrwt>
</event>
<event>
 4    1  0.5119137E-019  0.1493314E+02  0.7818608E-02  0.1870116E+00
          2   -1    0    0  501    0  0.00000000000E+00  0.00000000000E+00  0.12017771149E+03  0.12017771152E+03  0.25500000000E-02 0.  1.
         -2   -1    0    0    0  501 -0.00000000000E+00 -0.00000000000E+00 -0.46389020439E+00  0.46389721300E+00  0.25500000000E-02 0. -1.
         31    1    1    2    0    0  0.14685992107E+00  0.72902041815E-01  0.64006912348E+02  0.64438890718E+02  0.74470750000E+01 0. -1.
        -31    1    1    2    0    0 -0.14685992107E+00 -0.72902041815E-01  0.55706908941E+02  0.56202718016E+02  0.74470750000E+01 0. -1.
<mgrwt>
<rscale>  0 0.14933143E+02</rscale>
<asrwt>0</asrwt>
<pdfrwt beam="1">  1        2 0.99754923E+00 0.14933143E+02</pdfrwt>
<pdfrwt beam="2">  1       -2 0.98530906E+00 0.14933143E+02</pdfrwt>
<totfact> 0.28389445E-13</totfact>
</mgrwt>
</event>
<event>
 4    1  0.5119137E-019  0.1492897E+02  0.7818608E-02  0.1870244E+00
          2   -1    0    0  501    0  0.00000000000E+00  0.00000000000E+00  0.12000518613E+03  0.12000518616E+03  0.25500000000E-02 0.  1.
         -2   -1    0    0    0  501 -0.00000000000E+00 -0.00000000000E+00 -0.46429729020E+00  0.46430429267E+00  0.25500000000E-02 0. -1.
         31    1    1    2    0    0 -0.24097561200E+00  0.40923067396E+00  0.58281600389E+02  0.58757377485E+02  0.74470750000E+01 0. -1.
        -31    1    1    2    0    0  0.24097561200E+00 -0.40923067396E+00  0.61259288455E+02  0.61712112969E+02  0.74470750000E+01 0. -1.
<mgrwt>
<rscale>  0 0.14928966E+02</rscale>
<asrwt>0</asrwt>
<pdfrwt beam="1">  1        2 0.99612604E+00 0.14928966E+02</pdfrwt>
<pdfrwt beam="2">  1       -2 0.98616492E+00 0.14928966E+02</pdfrwt>
<totfact> 0.29278232E-13</totfact>
</mgrwt>
</event>
<event>
 4    1 -0.5119137E-019  0.1490619E+02  0.7818608E-02  0.1870945E+00
          2   -1    0    0  501    0  0.00000000000E+00  0.00000000000E+00  0.11834380305E+03  0.11834380308E+03  0.25500000000E-02 0.  1.
         -2   -1    0    0    0  501 -0.00000000000E+00 -0.00000000000E+00 -0.46938027212E+00  0.46938719876E+00  0.25500000000E-02 0. -1.
         31    1    1    2    0    0 -0.41791808694E-01 -0.14367324548E+00  0.56868735271E+02  0.57354462476E+02  0.74470750000E+01 0. -1.
        -31    1    1    2    0    0  0.41791808694E-01  0.14367324548E+00  0.61005687510E+02  0.61458727803E+02  0.74470750000E+01 0.  1.
<mgrwt>
<rscale>  0 0.14906195E+02</rscale>
<asrwt>0</asrwt>
<pdfrwt beam="1">  1        2 0.98243059E+00 0.14906195E+02</pdfrwt>
<pdfrwt beam="2">  1       -2 0.99686439E+00 0.14906195E+02</pdfrwt>
<totfact>-0.43923423E-13</totfact>
</mgrwt>
</event>
<event>
 4    1  0.5119137E-019  0.1495458E+02  0.7818608E-02  0.1869458E+00
          2   -1    0    0  501    0  0.00000000000E+00  0.00000000000E+00  0.12004792350E+03  0.12004792353E+03  0.25500000000E-02 0.  1.
         -2   -1    0    0    0  501 -0.00000000000E+00 -0.00000000000E+00 -0.46572577968E+00  0.46573276067E+00  0.25500000000E-02 0. -1.
         31    1    1    2    0    0 -0.52389899746E+00  0.36899549616E+00  0.61408482945E+02  0.61861711353E+02  0.74470750000E+01 0.  1.
        -31    1    1    2    0    0  0.52389899746E+00 -0.36899549616E+00  0.58173714775E+02  0.58651944935E+02  0.74470750000E+01 0. -1.
<mgrwt>
<rscale>  0 0.14954576E+02</rscale>
<asrwt>0</asrwt>
<pdfrwt beam="1">  1        2 0.99649123E+00 0.14954576E+02</pdfrwt>
<pdfrwt beam="2">  1       -2 0.98918861E+00 0.14954576E+02</pdfrwt>
<totfact> 0.48453218E-14</totfact>
</mgrwt>
</event>
<event>
 4    1  0.5119137E-019  0.1490539E+02  0.7818608E-02  0.1870969E+00
          2   -1    0    0  501    0  0.00000000000E+00  0.00000000000E+00  0.11943158585E+03  0.11943158588E+03  0.25500000000E-02 0. -1.
         -2   -1    0    0    0  501 -0.00000000000E+00 -0.00000000000E+00 -0.46505517420E+00  0.46506216526E+00  0.25500000000E-02 0.  1.
         31    1    1    2    0    0 -0.38344890814E-01  0.21847922566E+00  0.60978817463E+02  0.61432274163E+02  0.74470750000E+01 0.  1.
        -31    1    1    2    0    0  0.38344890814E-01 -0.21847922566E+00  0.57987713211E+02  0.58464373879E+02  0.74470750000E+01 0.  1.
<mgrwt>
<rscale>  0 0.14905395E+02</rscale>
<asrwt>0</asrwt>
<pdfrwt beam="1">  1        2 0.99138937E+00 0.14905395E+02</pdfrwt>
<pdfrwt beam="2">  1       -2 0.98775011E+00 0.14905395E+02</pdfrwt>
<totfact> 0.23039587E-13</totfact>
</mgrwt>
</event>
<event>
 4    1  0.5119137E-019  0.1492173E+02  0.7818608E-02  0.1870466E+00
          2   -1    0    0  501    0  0.00000000000E+00  0.00000000000E+00  0.12000783603E+03  0.12000783606E+03  0.25500000000E-02 0.  1.
         -2   -1    0    0    0  501 -0.00000000000E+00 -0.00000000000E+00 -0.46383685954E+00  0.46384386895E+00  0.25500000000E-02 0. -1.
         31    1    1    2    0    0  0.94647051320E-01  0.23119742496E+00  0.56717399354E+02  0.57204761392E+02  0.74470750000E+01 0. -1.
        -31    1    1    2    0    0 -0.94647051320E-01 -0.23119742496E+00  0.62826599818E+02  0.63266918536E+02  0.74470750000E+01 0.  1.
<mgrwt>
<rscale>  0 0.14921727E+02</rscale>
<asrwt>0</asrwt>
<pdfrwt beam="1">  1        2 0.99614414E+00 0.14921727E+02</pdfrwt>
<pdfrwt beam="2">  1       -2 0.98519083E+00 0.14921727E+02</pdfrwt>
<totfact> 0.39742027E-13</totfact>
</mgrwt>
</event>
<event>
 4    1  0.5119137E-019  0.1495180E+02  0.7818608E-02  0.1869543E+00
          2   -1    0    0  501    0  0.00000000000E+00  0.00000000000E+00  0.12024679454E+03  0.12024679456E+03  0.25500000000E-02 0.  1.
         -2   -1    0    0    0  501 -0.00000000000E+00 -0.00000000000E+00 -0.46478290439E+00  0.46478989954E+00  0.25500000000E-02 0. -1.
         31    1    1    2    0    0 -0.41620502743E+00  0.33546000535E+00  0.62958807362E+02  0.63399969326E+02  0.74470750000E+01 0. -1.
        -31    1    1    2    0    0  0.41620502743E+00 -0.33546000535E+00  0.56823204271E+02  0.57311615138E+02  0.74470750000E+01 0.  1.
<mgrwt>
<rscale>  0 0.14951800E+02</rscale>
<asrwt>0</asrwt>
<pdfrwt beam="1">  1        2 0.99812784E+00 0.14951800E+02</pdfrwt>
<pdfrwt beam="2">  1       -2 0.98720002E+00 0.14951800E+02</pdfrwt>
<totfact> 0.11763551E-13</totfact>
</mgrwt>
</event>
<event>
 4    1  0.5119137E-019  0.1492554E+02  0.7818608E-02  0.1870349E+00
         -2   -1    0    0    0  501 -0.00000000000E+00  0.00000000000E+00  0.11846193878E+03  0.11846193881E+03  0.25500000000E-02 0.  1.
          2   -1    0    0  501    0  0.00000000000E+00 -0.00000000000E+00 -0.47012986022E+00  0.47013677581E+00  0.25500000000E-02 0. -1.
         31    1    1    2    0    0 -0.76709863783E-01  0.47451098415E+00  0.59427703162E+02  0.59894422730E+02  0.74470750000E+01 0.  1.
        -31    1    1    2    0    0  0.76709863783E-01 -0.47451098415E+00  0.58564105760E+02  0.59037652855E+02  0.74470750000E+01 0. -1.
<mgrwt>
<rscale>  0 0.14925536E+02</rscale>
<asrwt>0</asrwt>
<pdfrwt beam="2">  1        2 0.99845398E+00 0.14925536E+02</pdfrwt>
<pdfrwt beam="1">  1       -2 0.98341361E+00 0.14925536E+02</pdfrwt>
<totfact> 0.32397451E-13</totfact>
</mgrwt>
</event>
<event>
 4    1  0.5119137E-019  0.1489513E+02  0.7818608E-02  0.1871286E+00
         -2   -1    0    0    0  501 -0.00000000000E+00  0.00000000000E+00  0.11914291447E+03  0.11914291450E+03  0.25500000000E-02 0. -1.
          2   -1    0    0  501    0  0.00000000000E+00 -0.00000000000E+00 -0.46553999675E+00  0.46554698053E+00  0.25500000000E-02 0.  1.
         31    1    1    2    0    0 -0.55718882481E-01  0.26350911876E-01  0.59812819317E+02  0.60274671958E+02  0.74470750000E+01 0. -1.
        -31    1    1    2    0    0  0.55718882481E-01 -0.26350911876E-01  0.58864555161E+02  0.59333789524E+02  0.74470750000E+01 0.  1.
<mgrwt>
<rscale>  0 0.14895128E+02</rscale>
<asrwt>0</asrwt>
<pdfrwt beam="2">  1        2 0.98876653E+00 0.14895128E+02</pdfrwt>
<pdfrwt beam="1">  1       -2 0.98900645E+00 0.14895128E+02</pdfrwt>
<totfact> 0.12270195E-13</totfact>
</mgrwt>
</event>
<event>
 4    1  0.5119137E-019  0.1490602E+02  0.7818608E-02  0.1870950E+00
          2   -1    0    0  501    0  0.00000000000E+00  0.00000000000E+00  0.11978206429E+03  0.11978206432E+03  0.25500000000E-02 0.  1.
         -2   -1    0    0    0  501 -0.00000000000E+00 -0.00000000000E+00 -0.46373324005E+00  0.46374025103E+00  0.25500000000E-02 0. -1.
         31    1    1    2    0    0 -0.21028393406E+00 -0.22344536014E-01  0.61345583393E+02  0.61796312564E+02  0.74470750000E+01 0.  1.
        -31    1    1    2    0    0  0.21028393406E+00  0.22344536014E-01  0.57972747661E+02  0.58449492009E+02  0.74470750000E+01 0. -1.
<mgrwt>
<rscale>  0 0.14906019E+02</rscale>
<asrwt>0</asrwt>
<pdfrwt beam="1">  1        2 0.99427644E+00 0.14906019E+02</pdfrwt>
<pdfrwt beam="2">  1       -2 0.98496444E+00 0.14906019E+02</pdfrwt>
<totfact> 0.52400816E-13</totfact>
</mgrwt>
</event>
<event>
 4    1  0.5119137E-019  0.1490928E+02  0.7818608E-02  0.1870850E+00
         -2   -1    0    0    0  501 -0.00000000000E+00  0.00000000000E+00  0.11854366293E+03  0.11854366296E+03  0.25500000000E-02 0. -1.
          2   -1    0    0  501    0  0.00000000000E+00 -0.00000000000E+00 -0.46878295078E+00  0.46878988624E+00  0.25500000000E-02 0.  1.
         31    1    1    2    0    0  0.31715080434E+00  0.39372180568E-01  0.59859343984E+02  0.60321655507E+02  0.74470750000E+01 0. -1.
        -31    1    1    2    0    0 -0.31715080434E+00 -0.39372180568E-01  0.58215535996E+02  0.58690797338E+02  0.74470750000E+01 0.  1.
<mgrwt>
<rscale>  0 0.14909281E+02</rscale>
<asrwt>0</asrwt>
<pdfrwt beam="2">  1        2 0.99560746E+00 0.14909281E+02</pdfrwt>
<pdfrwt beam="1">  1       -2 0.98407823E+00 0.14909281E+02</pdfrwt>
<totfact> 0.57759567E-13</totfact>
</mgrwt>
</event>
<event>
 4    1 -0.5119137E-019  0.1492409E+02  0.7818608E-02  0.1870394E+00
         -2   -1    0    0    0  501 -0.00000000000E+00  0.00000000000E+00  0.12007834122E+03  0.12007834125E+03  0.25500000000E-02 0. -1.
          2   -1    0    0  501    0  0.00000000000E+00 -0.00000000000E+00 -0.46371124823E+00  0.46371825955E+00  0.25500000000E-02 0.  1.
         31    1    1    2    0    0 -0.74361659782E-01  0.32139342543E+00  0.57075991259E+02  0.57560720354E+02  0.74470750000E+01 0.  1.
        -31    1    1    2    0    0  0.74361659782E-01 -0.32139342543E+00  0.62538638717E+02  0.62981339157E+02  0.74470750000E+01 0. -1.
<mgrwt>
<rscale>  0 0.14924088E+02</rscale>
<asrwt>0</asrwt>
<pdfrwt beam="2">  1        2 0.98492729E+00 0.14924088E+02</pdfrwt>
<pdfrwt beam="1">  1       -2 0.99672609E+00 0.14924088E+02</pdfrwt>
<totfact>-0.29708147E-13</totfact>
</mgrwt>
</event>
<event>
 4    1 -0.5119137E-019  0.1501623E+02  0.7818608E-02  0.1867574E+00
          2   -1    0    0  501    0  0.00000000000E+00  0.00000000000E+00  0.12015012845E+03  0.12015012848E+03  0.25500000000E-02 0.  1.
         -2   -1    0    0    0  501 -0.00000000000E+00 -0.00000000000E+00 -0.46917433722E+00  0.46918126690E+00  0.25500000000E-02 0. -1.
         31    1    1    2    0    0 -0.13379472713E+00 -0.85931921985E+00  0.56662573779E+02  0.57156474033E+02  0.74470750000E+01 0. -1.
        -31    1    1    2    0    0  0.13379472713E+00  0.85931921985E+00  0.63018380336E+02  0.63462835714E+02  0.74470750000E+01 0.  1.
<mgrwt>
<rscale>  0 0.15016228E+02</rscale>
<asrwt>0</asrwt>
<pdfrwt beam="1">  1        2 0.99736485E+00 0.15016228E+02</pdfrwt>
<pdfrwt beam="2">  1       -2 0.99648792E+00 0.15016228E+02</pdfrwt>
<totfact>-0.70872289E-14</totfact>
</mgrwt>
</event>
<event>
 4    1  0.5119137E-019  0.1490921E+02  0.7818608E-02  0.1870852E+00
          2   -1    0    0  501    0  0.00000000000E+00  0.00000000000E+00  0.11936669898E+03  0.11936669901E+03  0.25500000000E-02 0. -1.
         -2   -1    0    0    0  501 -0.00000000000E+00 -0.00000000000E+00 -0.46554610857E+00  0.46555309225E+00  0.25500000000E-02 0.  1.
         31    1    1    2    0    0 -0.80285699216E-01 -0.23030334276E+00  0.61295884625E+02  0.61747096154E+02  0.74470750000E+01 0. -1.
        -31    1    1    2    0    0  0.80285699216E-01  0.23030334276E+00  0.57605268246E+02  0.58085155945E+02  0.74470750000E+01 0.  1.
<mgrwt>
<rscale>  0 0.14909208E+02</rscale>
<asrwt>0</asrwt>
<pdfrwt beam="1">  1        2 0.99085690E+00 0.14909208E+02</pdfrwt>
<pdfrwt beam="2">  1       -2 0.98878667E+00 0.14909208E+02</pdfrwt>
<totfact> 0.12202774E-13</totfact>
</mgrwt>
</event>
<event>
 4    1  0.5119137E-019  0.1492047E+02  0.7818608E-02  0.1870505E+00
         -2   -1    0    0    0  501 -0.00000000000E+00  0.00000000000E+00  0.11881904982E+03  0.11881904985E+03  0.25500000000E-02 0. -1.
          2   -1    0    0  501    0  0.00000000000E+00 -0.00000000000E+00 -0.46839878079E+00  0.46840572194E+00  0.25500000000E-02 0.  1.
         31    1    1    2    0    0 -0.27306118436E+00  0.20671089968E+00  0.61420961122E+02  0.61871727655E+02  0.74470750000E+01 0.  1.
        -31    1    1    2    0    0  0.27306118436E+00 -0.20671089968E+00  0.56929689917E+02  0.57415727914E+02  0.74470750000E+01 0. -1.
<mgrwt>
<rscale>  0 0.14920471E+02</rscale>
<asrwt>0</asrwt>
<pdfrwt beam="2">  1        2 0.99480385E+00 0.14920471E+02</pdfrwt>
<pdfrwt beam="1">  1       -2 0.98635214E+00 0.14920471E+02</pdfrwt>
<totfact> 0.32193473E-13</totfact>
</mgrwt>
</event>
<event>
 4    1  0.5119137E-019  0.1492271E+02  0.7818608E-02  0.1870436E+00
         -2   -1    0    0    0  501 -0.00000000000E+00  0.00000000000E+00  0.11860302602E+03  0.11860302605E+03  0.25500000000E-02 0.  1.
          2   -1    0    0  501    0  0.00000000000E+00 -0.00000000000E+00 -0.46939250652E+00  0.46939943298E+00  0.25500000000E-02 0. -1.
         31    1    1    2    0    0 -0.29499585525E+00  0.25609596731E+00  0.57108201795E+02  0.57593039910E+02  0.74470750000E+01 0. -1.
        -31    1    1    2    0    0  0.29499585525E+00 -0.25609596731E+00  0.61025431720E+02  0.61479385573E+02  0.74470750000E+01 0.  1.
<mgrwt>
<rscale>  0 0.14922706E+02</rscale>
<asrwt>0</asrwt>
<pdfrwt beam="2">  1        2 0.99689888E+00 0.14922706E+02</pdfrwt>
<pdfrwt beam="1">  1       -2 0.98457412E+00 0.14922706E+02</pdfrwt>
<totfact> 0.41125516E-13</totfact>
</mgrwt>
</event>
<event>
 4    1 -0.5119137E-019  0.1491272E+02  0.7818608E-02  0.1870744E+00
         -2   -1    0    0    0  501 -0.00000000000E+00  0.00000000000E+00  0.12038613390E+03  0.12038613393E+03  0.25500000000E-02 0. -1.
          2   -1    0    0  501    0  0.00000000000E+00 -0.00000000000E+00 -0.46182137601E+00  0.46182841602E+00  0.25500000000E-02 0.  1.
         31    1    1    2    0    0  0.70322832238E-01  0.12201619830E-01  0.62920797252E+02  0.63360009052E+02  0.74470750000E+01 0. -1.
        -31    1    1    2    0    0 -0.70322832238E-01 -0.12201619830E-01  0.57003515275E+02  0.57487953294E+02  0.74470750000E+01 0.  1.
<mgrwt>
<rscale>  0 0.14912722E+02</rscale>
<asrwt>0</asrwt>
<pdfrwt beam="2">  1        2 0.98093823E+00 0.14912722E+02</pdfrwt>
<pdfrwt beam="1">  1       -2 0.99925551E+00 0.14912722E+02</pdfrwt>
<totfact>-0.16931823E-13</totfact>
</mgrwt>
</event>
<event>
 4    1 -0.5119137E-019  0.1499355E+02  0.7818608E-02  0.1868265E+00
         -2   -1    0    0    0  501 -0.00000000000E+00  0.00000000000E+00  0.12032419421E+03  0.12032419424E+03  0.25500000000E-02 0. -1.
          2   -1    0    0  501    0  0.00000000000E+00 -0.00000000000E+00 -0.46708162409E+00  0.46708858481E+00  0.25500000000E-02 0.  1.
         31    1    1    2    0    0  0.13307727134E+00 -0.84276906238E+00  0.58950239411E+02  0.59424890593E+02  0.74470750000E+01 0. -1.
        -31    1    1    2    0    0 -0.13307727134E+00  0.84276906238E+00  0.60906873176E+02  0.61366392230E+02  0.74470750000E+01 0. -1.
<mgrwt>
<rscale>  0 0.14993551E+02</rscale>
<asrwt>0</asrwt>
<pdfrwt beam="2">  1        2 0.99206601E+00 0.14993551E+02</pdfrwt>
<pdfrwt beam="1">  1       -2 0.99878684E+00 0.14993551E+02</pdfrwt>
<totfact>-0.58379487E-14</totfact>
</mgrwt>
</event>
<event>
 4    1 -0.5119137E-019  0.1494376E+02  0.7818608E-02  0.1869790E+00
         -2   -1    0    0    0  501 -0.00000000000E+00  0.00000000000E+00  0.11974834639E+03  0.11974834642E+03  0.25500000000E-02 0.  1.
          2   -1    0    0  501    0  0.00000000000E+00 -0.00000000000E+00 -0.46621558246E+00  0.46622255611E+00  0.25500000000E-02 0. -1.
         31    1    1    2    0    0  0.30595469440E+00 -0.36967221723E+00  0.62648598995E+02  0.63091490297E+02  0.74470750000E+01 0.  1.
        -31    1    1    2    0    0 -0.30595469440E+00  0.36967221723E+00  0.56633531817E+02  0.57123078680E+02  0.74470750000E+01 0.  1.
<mgrwt>
<rscale>  0 0.14943757E+02</rscale>
<asrwt>0</asrwt>
<pdfrwt beam="2">  1        2 0.99021531E+00 0.14943757E+02</pdfrwt>
<pdfrwt beam="1">  1       -2 0.99401817E+00 0.14943757E+02</pdfrwt>
<totfact>-0.17145713E-13</totfact>
</mgrwt>
</event>
<event>
 4    1 -0.5119137E-019  0.1497962E+02  0.7818608E-02  0.1868691E+00
         -2   -1    0    0    0  501 -0.00000000000E+00  0.00000000000E+00  0.12019853174E+03  0.12019853177E+03  0.25500000000E-02 0.  1.
          2   -1    0    0  501    0  0.00000000000E+00 -0.00000000000E+00 -0.46670134340E+00  0.46670830979E+00  0.25500000000E-02 0. -1.
         31    1    1    2    0    0  0.33334763690E+00 -0.33872684615E-01  0.54023498534E+02  0.54535397568E+02  0.74470750000E+01 0. -1.
        -31    1    1    2    0    0 -0.33334763690E+00  0.33872684615E-01  0.65708331865E+02  0.66129842511E+02  0.74470750000E+01 0. -1.
<mgrwt>
<rscale>  0 0.14979618E+02</rscale>
<asrwt>0</asrwt>
<pdfrwt beam="2">  1        2 0.99125743E+00 0.14979618E+02</pdfrwt>
<pdfrwt beam="1">  1       -2 0.99774463E+00 0.14979618E+02</pdfrwt>
<totfact>-0.10463790E-13</totfact>
</mgrwt>
</event>
<event>
 4    1  0.5119137E-019  0.1493397E+02  0.7818608E-02  0.1870090E+00
         -2   -1    0    0    0  501 -0.00000000000E+00  0.00000000000E+00  0.11850421396E+03  0.11850421399E+03  0.25500000000E-02 0. -1.
          2   -1    0    0  501    0  0.00000000000E+00 -0.00000000000E+00 -0.47049320661E+00  0.47050011686E+00  0.25500000000E-02 0.  1.
         31    1    1    2    0    0  0.18486623839E+00  0.51258004183E+00  0.59011530336E+02  0.59482069168E+02  0.74470750000E+01 0.  1.
        -31    1    1    2    0    0 -0.18486623839E+00 -0.51258004183E+00  0.59022190421E+02  0.59492644940E+02  0.74470750000E+01 0.  1.
<mgrwt>
<rscale>  0 0.14933967E+02</rscale>
<asrwt>0</asrwt>
<pdfrwt beam="2">  1        2 0.99922399E+00 0.14933967E+02</pdfrwt>
<pdfrwt beam="1">  1       -2 0.98376618E+00 0.14933967E+02</pdfrwt>
<totfact> 0.16303634E-13</totfact>
</mgrwt>
</event>
<event>
 4    1 -0.5119137E-019  0.1500863E+02  0.7818608E-02  0.1867805E+00
          2   -1    0    0  501    0  0.00000000000E+00  0.00000000000E+00  0.12026784199E+03  0.12026784202E+03  0.25500000000E-02 0. -1.
         -2   -1    0    0    0  501 -0.00000000000E+00 -0.00000000000E+00 -0.46824097369E+00  0.46824791718E+00  0.25500000000E-02 0.  1.
         31    1    1    2    0    0 -0.35273170438E+00  0.65114511767E+00  0.64360055108E+02  0.64793703623E+02  0.74470750000E+01 0.  1.
        -31    1    1    2    0    0  0.35273170438E+00 -0.65114511767E+00  0.55439545907E+02  0.55942386310E+02  0.74470750000E+01 0.  1.
<mgrwt>
<rscale>  0 0.15008631E+02</rscale>
<asrwt>0</asrwt>
<pdfrwt beam="1">  1        2 0.99833047E+00 0.15008631E+02</pdfrwt>
<pdfrwt beam="2">  1       -2 0.99451704E+00 0.15008631E+02</pdfrwt>
<totfact>-0.56729271E-14</totfact>
</mgrwt>
</event>
<event>
 4    1 -0.5119137E-019  0.1496732E+02  0.7818608E-02  0.1869067E+00
          2   -1    0    0  501    0  0.00000000000E+00  0.00000000000E+00  0.11975001294E+03  0.11975001297E+03  0.25500000000E-02 0. -1.
         -2   -1    0    0    0  501 -0.00000000000E+00 -0.00000000000E+00 -0.46768070449E+00  0.46768765629E+00  0.25500000000E-02 0.  1.
         31    1    1    2    0    0  0.51548871568E+00 -0.57057466256E-01  0.63870610432E+02  0.64305386922E+02  0.74470750000E+01 0. -1.
        -31    1    1    2    0    0 -0.51548871568E+00  0.57057466256E-01  0.55411721806E+02  0.55912313704E+02  0.74470750000E+01 0.  1.
<mgrwt>
<rscale>  0 0.14967323E+02</rscale>
<asrwt>0</asrwt>
<pdfrwt beam="1">  1        2 0.99404406E+00 0.14967323E+02</pdfrwt>
<pdfrwt beam="2">  1       -2 0.99331505E+00 0.14967323E+02</pdfrwt>
<totfact>-0.11876960E-13</totfact>
</mgrwt>
</event>
<event>
 4    1 -0.5119137E-019  0.1494300E+02  0.7818608E-02  0.1869813E+00
         -2   -1    0    0    0  501 -0.00000000000E+00  0.00000000000E+00  0.12012299287E+03  0.12012299289E+03  0.25500000000E-02 0.  1.
          2   -1    0    0  501    0  0.00000000000E+00 -0.00000000000E+00 -0.46471432667E+00  0.46472132285E+00  0.25500000000E-02 0. -1.
         31    1    1    2    0    0  0.44938975185E-01  0.25041146655E+00  0.64246580884E+02  0.64677251076E+02  0.74470750000E+01 0.  1.
        -31    1    1    2    0    0 -0.44938975185E-01 -0.25041146655E+00  0.55411697656E+02  0.55910463141E+02  0.74470750000E+01 0. -1.
<mgrwt>
<rscale>  0 0.14942998E+02</rscale>
<asrwt>0</asrwt>
<pdfrwt beam="2">  1        2 0.98705100E+00 0.14942998E+02</pdfrwt>
<pdfrwt beam="1">  1       -2 0.99710359E+00 0.14942998E+02</pdfrwt>
<totfact>-0.19853979E-13</totfact>
</mgrwt>
</event>
<event>
 4    1 -0.5119137E-019  0.1494920E+02  0.7818608E-02  0.1869623E+00
          2   -1    0    0  501    0  0.00000000000E+00  0.00000000000E+00  0.11932757143E+03  0.11932757146E+03  0.25500000000E-02 0. -1.
         -2   -1    0    0    0  501 -0.00000000000E+00 -0.00000000000E+00 -0.46820067591E+00  0.46820762000E+00  0.25500000000E-02 0.  1.
         31    1    1    2    0    0  0.22516765255E+00  0.47010872422E+00  0.62417756320E+02  0.62862603611E+02  0.74470750000E+01 0. -1.
        -31    1    1    2    0    0 -0.22516765255E+00 -0.47010872422E+00  0.56441614439E+02  0.56933175471E+02  0.74470750000E+01 0. -1.
<mgrwt>
<rscale>  0 0.14949203E+02</rscale>
<asrwt>0</asrwt>
<pdfrwt beam="1">  1        2 0.99055532E+00 0.14949203E+02</pdfrwt>
<pdfrwt beam="2">  1       -2 0.99440140E+00 0.14949203E+02</pdfrwt>
<totfact>-0.16931421E-13</totfact>
</mgrwt>
</event>
<event>
 4    1  0.5119137E-019  0.1492398E+02  0.7818608E-02  0.1870397E+00
          2   -1    0    0  501    0  0.00000000000E+00  0.00000000000E+00  0.11996083914E+03  0.11996083917E+03  0.25500000000E-02 0. -1.
         -2   -1    0    0    0  501 -0.00000000000E+00 -0.00000000000E+00 -0.46415854925E+00  0.46416555381E+00  0.25500000000E-02 0.  1.
         31    1    1    2    0    0 -0.68733803165E-01  0.31252675897E-01  0.55992502986E+02  0.56485617796E+02  0.74470750000E+01 0.  1.
        -31    1    1    2    0    0  0.68733803165E-01 -0.31252675897E-01  0.63504177606E+02  0.63939386926E+02  0.74470750000E+01 0. -1.
<mgrwt>
<rscale>  0 0.14923977E+02</rscale>
<asrwt>0</asrwt>
<pdfrwt beam="1">  1        2 0.99575820E+00 0.14923977E+02</pdfrwt>
<pdfrwt beam="2">  1       -2 0.98586997E+00 0.14923977E+02</pdfrwt>
<totfact> 0.34071147E-13</totfact>
</mgrwt>
</event>
<event>
 4    1 -0.5119137E-019  0.1497152E+02  0.7818608E-02  0.1868939E+00
         -2   -1    0    0    0  501 -0.00000000000E+00  0.00000000000E+00  0.11962439037E+03  0.11962439040E+03  0.25500000000E-02 0. -1.
          2   -1    0    0  501    0  0.00000000000E+00 -0.00000000000E+00 -0.46843438646E+00  0.46844132709E+00  0.25500000000E-02 0.  1.
         31    1    1    2    0    0 -0.47817543845E+00 -0.32810366574E+00  0.63518826081E+02  0.63956520360E+02  0.74470750000E+01 0.  1.
        -31    1    1    2    0    0  0.47817543845E+00  0.32810366574E+00  0.55637129904E+02  0.56136311366E+02  0.74470750000E+01 0.  1.
<mgrwt>
<rscale>  0 0.14971519E+02</rscale>
<asrwt>0</asrwt>
<pdfrwt beam="2">  1        2 0.99490547E+00 0.14971519E+02</pdfrwt>
<pdfrwt beam="1">  1       -2 0.99301156E+00 0.14971519E+02</pdfrwt>
<totfact>-0.10470826E-13</totfact>
</mgrwt>
</event>
<event>
 4    1 -0.5119137E-019  0.1489591E+02  0.7818608E-02  0.1871262E+00
          2   -1    0    0  501    0  0.00000000000E+00  0.00000000000E+00  0.11841365328E+03  0.11841365330E+03  0.25500000000E-02 0. -1.
         -2   -1    0    0    0  501 -0.00000000000E+00 -0.00000000000E+00 -0.46845633108E+00  0.46846327137E+00  0.25500000000E-02 0.  1.
         31    1    1    2    0    0 -0.11314767678E+00 -0.15135176052E-01  0.59044960024E+02  0.59512849552E+02  0.74470750000E+01 0.  1.
        -31    1    1    2    0    0  0.11314767678E+00  0.15135176052E-01  0.58900236922E+02  0.59369267024E+02  0.74470750000E+01 0.  1.
<mgrwt>
<rscale>  0 0.14895911E+02</rscale>
<asrwt>0</asrwt>
<pdfrwt beam="1">  1        2 0.98300052E+00 0.14895911E+02</pdfrwt>
<pdfrwt beam="2">  1       -2 0.99491222E+00 0.14895911E+02</pdfrwt>
<totfact>-0.48495128E-13</totfact>
</mgrwt>
</event>
<event>
 4    1 -0.5119137E-019  0.1491649E+02  0.7818608E-02  0.1870628E+00
          2   -1    0    0  501    0  0.00000000000E+00  0.00000000000E+00  0.11897132169E+03  0.11897132172E+03  0.25500000000E-02 0. -1.
         -2   -1    0    0    0  501 -0.00000000000E+00 -0.00000000000E+00 -0.46754937902E+00  0.46755633278E+00  0.25500000000E-02 0.  1.
         31    1    1    2    0    0 -0.19432950438E+00  0.25847844833E+00  0.61243779896E+02  0.61695737916E+02  0.74470750000E+01 0. -1.
        -31    1    1    2    0    0  0.19432950438E+00 -0.25847844833E+00  0.57259992418E+02  0.57743140137E+02  0.74470750000E+01 0.  1.
<mgrwt>
<rscale>  0 0.14916485E+02</rscale>
<asrwt>0</asrwt>
<pdfrwt beam="1">  1        2 0.98760421E+00 0.14916485E+02</pdfrwt>
<pdfrwt beam="2">  1       -2 0.99301193E+00 0.14916485E+02</pdfrwt>
<totfact>-0.20447192E-13</totfact>
</mgrwt>
</event>
<event>
 4    1 -0.5119137E-019  0.1495709E+02  0.7818608E-02  0.1869381E+00
          2   -1    0    0  501    0  0.00000000000E+00  0.00000000000E+00  0.11921504390E+03  0.11921504393E+03  0.25500000000E-02 0.  1.
         -2   -1    0    0    0  501 -0.00000000000E+00 -0.00000000000E+00 -0.46913750646E+00  0.46914443668E+00  0.25500000000E-02 0. -1.
         31    1    1    2    0    0  0.54244116820E+00 -0.36310680404E+00  0.57701168135E+02  0.58183415328E+02  0.74470750000E+01 0.  1.
        -31    1    1    2    0    0 -0.54244116820E+00  0.36310680404E+00  0.61044738256E+02  0.61500773034E+02  0.74470750000E+01 0. -1.
<mgrwt>
<rscale>  0 0.14957094E+02</rscale>
<asrwt>0</asrwt>
<pdfrwt beam="1">  1        2 0.98963261E+00 0.14957094E+02</pdfrwt>
<pdfrwt beam="2">  1       -2 0.99637961E+00 0.14957094E+02</pdfrwt>
<totfact>-0.16567725E-13</totfact>
</mgrwt>
</event>
<event>
 4    1 -0.5119137E-019  0.1491496E+02  0.7818608E-02  0.1870675E+00
          2   -1    0    0  501    0  0.00000000000E+00  0.00000000000E+00  0.11874227535E+03  0.11874227538E+03  0.25500000000E-02 0. -1.
         -2   -1    0    0    0  501 -0.00000000000E+00 -0.00000000000E+00 -0.46835519915E+00  0.46836214095E+00  0.25500000000E-02 0.  1.
         31    1    1    2    0    0 -0.80261364548E-01 -0.31375726073E+00  0.57346778178E+02  0.57829203513E+02  0.74470750000E+01 0.  1.
        -31    1    1    2    0    0  0.80261364548E-01  0.31375726073E+00  0.60927141972E+02  0.61381434005E+02  0.74470750000E+01 0.  1.
<mgrwt>
<rscale>  0 0.14914956E+02</rscale>
<asrwt>0</asrwt>
<pdfrwt beam="1">  1        2 0.98571696E+00 0.14914956E+02</pdfrwt>
<pdfrwt beam="2">  1       -2 0.99470913E+00 0.14914956E+02</pdfrwt>
<totfact>-0.31047416E-13</totfact>
</mgrwt>
</event>
<event>
 4    1 -0.5119137E-019  0.1490897E+02  0.7818608E-02  0.1870859E+00
         -2   -1    0    0    0  501 -0.00000000000E+00  0.00000000000E+00  0.11981371875E+03  0.11981371877E+03  0.25500000000E-02 0.  1.
          2   -1    0    0  501    0  0.00000000000E+00 -0.00000000000E+00 -0.46379419307E+00  0.46380120313E+00  0.25500000000E-02 0. -1.
         31    1    1    2    0    0 -0.12538530315E+00  0.24736221571E+00  0.61151431502E+02  0.61603842496E+02  0.74470750000E+01 0.  1.
        -31    1    1    2    0    0  0.12538530315E+00 -0.24736221571E+00  0.58198493052E+02  0.58673677481E+02  0.74470750000E+01 0. -1.
<mgrwt>
<rscale>  0 0.14908968E+02</rscale>
<asrwt>0</asrwt>
<pdfrwt beam="2">  1        2 0.98509441E+00 0.14908968E+02</pdfrwt>
<pdfrwt beam="1">  1       -2 0.99453869E+00 0.14908968E+02</pdfrwt>
<totfact>-0.34218866E-13</totfact>
</mgrwt>
</event>
<event>
 4    1  0.5119137E-019  0.1490998E+02  0.7818608E-02  0.1870828E+00
          2   -1    0    0  501    0  0.00000000000E+00  0.00000000000E+00  0.11949139392E+03  0.11949139395E+03  0.25500000000E-02 0.  1.
         -2   -1    0    0    0  501 -0.00000000000E+00 -0.00000000000E+00 -0.46510836454E+00  0.46511535480E+00  0.25500000000E-02 0. -1.
         31    1    1    2    0    0 -0.23483940833E+00 -0.24625680236E+00  0.59140121211E+02  0.59608125745E+02  0.74470750000E+01 0.  1.
        -31    1    1    2    0    0  0.23483940833E+00  0.24625680236E+00  0.59886164345E+02  0.60348383557E+02  0.74470750000E+01 0.  1.
<mgrwt>
<rscale>  0 0.14909979E+02</rscale>
<asrwt>0</asrwt>
<pdfrwt beam="1">  1        2 0.99188435E+00 0.14909979E+02</pdfrwt>
<pdfrwt beam="2">  1       -2 0.98786456E+00 0.14909979E+02</pdfrwt>
<totfact> 0.20879851E-13</totfact>
</mgrwt>
</event>
<event>
 4    1 -0.5119137E-019  0.1497421E+02  0.7818608E-02  0.1868857E+00
          2   -1    0    0  501    0  0.00000000000E+00  0.00000000000E+00  0.11956266325E+03  0.11956266328E+03  0.25500000000E-02 0. -1.
         -2   -1    0    0    0  501 -0.00000000000E+00 -0.00000000000E+00 -0.46884452831E+00  0.46885146287E+00  0.25500000000E-02 0.  1.
         31    1    1    2    0    0  0.15280275537E+00 -0.50946310736E+00  0.64045034084E+02  0.64478742375E+02  0.74470750000E+01 0. -1.
        -31    1    1    2    0    0 -0.15280275537E+00  0.50946310736E+00  0.55048784636E+02  0.55552772364E+02  0.74470750000E+01 0.  1.
<mgrwt>
<rscale>  0 0.14974207E+02</rscale>
<asrwt>0</asrwt>
<pdfrwt beam="1">  1        2 0.99250455E+00 0.14974207E+02</pdfrwt>
<pdfrwt beam="2">  1       -2 0.99577115E+00 0.14974207E+02</pdfrwt>
<totfact>-0.14003134E-13</totfact>
</mgrwt>
</event>
<event>
 4    1 -0.5119137E-019  0.1493359E+02  0.7818608E-02  0.1870102E+00
         -2   -1    0    0    0  501 -0.00000000000E+00  0.00000000000E+00  0.11948335203E+03  0.11948335206E+03  0.25500000000E-02 0.  1.
          2   -1    0    0  501    0  0.00000000000E+00 -0.00000000000E+00 -0.46661393324E+00  0.46662090094E+00  0.25500000000E-02 0. -1.
         31    1    1    2    0    0 -0.72540898322E-01 -0.51087298578E+00  0.60848497978E+02  0.61304688937E+02  0.74470750000E+01 0.  1.
        -31    1    1    2    0    0  0.72540898322E-01  0.51087298578E+00  0.58168240119E+02  0.58645284022E+02  0.74470750000E+01 0. -1.
<mgrwt>
<rscale>  0 0.14933588E+02</rscale>
<asrwt>0</asrwt>
<pdfrwt beam="2">  1        2 0.99104956E+00 0.14933588E+02</pdfrwt>
<pdfrwt beam="1">  1       -2 0.99183030E+00 0.14933588E+02</pdfrwt>
<totfact>-0.10019862E-13</totfact>
</mgrwt>
</event>
<event>
 4    1  0.5119137E-019  0.1492722E+02  0.7818608E-02  0.1870298E+00
          2   -1    0    0  501    0  0.00000000000E+00  0.00000000000E+00  0.12006692281E+03  0.12006692284E+03  0.25500000000E-02 0. -1.
         -2   -1    0    0    0  501 -0.00000000000E+00 -0.00000000000E+00 -0.46394978386E+00  0.46395679157E+00  0.25500000000E-02 0.  1.
         31    1    1    2    0    0 -0.91834174612E-01 -0.41780012075E+00  0.57766272664E+02  0.58245894053E+02  0.74470750000E+01 0.  1.
        -31    1    1    2    0    0  0.91834174612E-01  0.41780012075E+00  0.61836700360E+02  0.62284985574E+02  0.74470750000E+01 0.  1.
<mgrwt>
<rscale>  0 0.14927216E+02</rscale>
<asrwt>0</asrwt>
<pdfrwt beam="1">  1        2 0.99663364E+00 0.14927216E+02</pdfrwt>
<pdfrwt beam="2">  1       -2 0.98543162E+00 0.14927216E+02</pdfrwt>
<totfact> 0.34026783E-13</totfact>
</mgrwt>
</event>
<event>
 4    1 -0.5119137E-019  0.1497254E+02  0.7818608E-02  0.1868908E+00
         -2   -1    0    0    0  501 -0.00000000000E+00  0.00000000000E+00  0.11944935042E+03  0.11944935045E+03  0.25500000000E-02 0.  1.
          2   -1    0    0  501    0  0.00000000000E+00 -0.00000000000E+00 -0.46918456688E+00  0.46919149640E+00  0.25500000000E-02 0. -1.
         31    1    1    2    0    0  0.25395063405E+00 -0.22077138569E+00  0.53987256208E+02  0.54499504492E+02  0.74470750000E+01 0. -1.
        -31    1    1    2    0    0 -0.25395063405E+00  0.22077138569E+00  0.64992909649E+02  0.65419037456E+02  0.74470750000E+01 0.  1.
<mgrwt>
<rscale>  0 0.14972536E+02</rscale>
<asrwt>0</asrwt>
<pdfrwt beam="2">  1        2 0.99648682E+00 0.14972536E+02</pdfrwt>
<pdfrwt beam="1">  1       -2 0.99157041E+00 0.14972536E+02</pdfrwt>
<totfact>-0.52696641E-14</totfact>
</mgrwt>
</event>
<event>
 4    1 -0.5119137E-019  0.1490038E+02  0.7818608E-02  0.1871124E+00
         -2   -1    0    0    0  501 -0.00000000000E+00  0.00000000000E+00  0.11964856530E+03  0.11964856533E+03  0.25500000000E-02 0.  1.
          2   -1    0    0  501    0  0.00000000000E+00 -0.00000000000E+00 -0.46389954149E+00  0.46390654995E+00  0.25500000000E-02 0. -1.
         31    1    1    2    0    0  0.47595392196E-01 -0.37774035707E-01  0.61258430990E+02  0.61709464312E+02  0.74470750000E+01 0.  1.
        -31    1    1    2    0    0 -0.47595392196E-01  0.37774035707E-01  0.57926234769E+02  0.58403007566E+02  0.74470750000E+01 0. -1.
<mgrwt>
<rscale>  0 0.14900381E+02</rscale>
<asrwt>0</asrwt>
<pdfrwt beam="2">  1        2 0.98531206E+00 0.14900381E+02</pdfrwt>
<pdfrwt beam="1">  1       -2 0.99317396E+00 0.14900381E+02</pdfrwt>
<totfact>-0.29518456E-13</totfact>
</mgrwt>
</event>
<event>
 4    1 -0.5119137E-019  0.1492519E+02  0.7818608E-02  0.1870360E+00
          2   -1    0    0  501    0  0.00000000000E+00  0.00000000000E+00  0.11844819531E+03  0.11844819534E+03  0.25500000000E-02 0.  1.
         -2   -1    0    0    0  501 -0.00000000000E+00 -0.00000000000E+00 -0.47016242319E+00  0.47016933830E+00  0.25500000000E-02 0. -1.
         31    1    1    2    0    0  0.15088295600E+00 -0.58956543907E-01  0.62597708287E+02  0.63039338912E+02  0.74470750000E+01 0.  1.
        -31    1    1    2    0    0 -0.15088295600E+00  0.58956543907E-01  0.55380324598E+02  0.55879025762E+02  0.74470750000E+01 0. -1.
<mgrwt>
<rscale>  0 0.14925187E+02</rscale>
<asrwt>0</asrwt>
<pdfrwt beam="1">  1        2 0.98330024E+00 0.14925187E+02</pdfrwt>
<pdfrwt beam="2">  1       -2 0.99852240E+00 0.14925187E+02</pdfrwt>
<totfact>-0.21219911E-13</totfact>
</mgrwt>
</event>
<event>
 4    1  0.5119137E-019  0.1490144E+02  0.7818608E-02  0.1871091E+00
         -2   -1    0    0    0  501 -0.00000000000E+00  0.00000000000E+00  0.11830900334E+03  0.11830900336E+03  0.25500000000E-02 0. -1.
          2   -1    0    0  501    0  0.00000000000E+00 -0.00000000000E+00 -0.46921915606E+00  0.46922608507E+00  0.25500000000E-02 0.  1.
         31    1    1    2    0    0 -0.18446845674E+00  0.49109078982E-01  0.57853530958E+02  0.58331178718E+02  0.74470750000E+01 0.  1.
        -31    1    1    2    0    0  0.18446845674E+00 -0.49109078982E-01  0.59986253223E+02  0.60447050732E+02  0.74470750000E+01 0. -1.
<mgrwt>
<rscale>  0 0.14901445E+02</rscale>
<asrwt>0</asrwt>
<pdfrwt beam="2">  1        2 0.99652242E+00 0.14901445E+02</pdfrwt>
<pdfrwt beam="1">  1       -2 0.98214151E+00 0.14901445E+02</pdfrwt>
<totfact> 0.77545759E-13</totfact>
</mgrwt>
</event>
<event>
 4    1 -0.5119137E-019  0.1491840E+02  0.7818608E-02  0.1870569E+00
          2   -1    0    0  501    0  0.00000000000E+00  0.00000000000E+00  0.11850512064E+03  0.11850512066E+03  0.25500000000E-02 0.  1.
         -2   -1    0    0    0  501 -0.00000000000E+00 -0.00000000000E+00 -0.46950904103E+00  0.46951596577E+00  0.25500000000E-02 0. -1.
         31    1    1    2    0    0  0.31452140875E+00  0.35378694855E-01  0.61281052110E+02  0.61732701619E+02  0.74470750000E+01 0.  1.
        -31    1    1    2    0    0 -0.31452140875E+00 -0.35378694855E-01  0.56754559485E+02  0.57241935011E+02  0.74470750000E+01 0. -1.
<mgrwt>
<rscale>  0 0.14918397E+02</rscale>
<asrwt>0</asrwt>
<pdfrwt beam="1">  1        2 0.98376554E+00 0.14918397E+02</pdfrwt>
<pdfrwt beam="2">  1       -2 0.99714215E+00 0.14918397E+02</pdfrwt>
<totfact>-0.33015061E-13</totfact>
</mgrwt>
</event>
<event>
 4    1  0.5119137E-019  0.1493348E+02  0.7818608E-02  0.1870105E+00
         -2   -1    0    0    0  501 -0.00000000000E+00  0.00000000000E+00  0.11880802064E+03  0.11880802067E+03  0.25500000000E-02 0. -1.
          2   -1    0    0  501    0  0.00000000000E+00 -0.00000000000E+00 -0.46925931006E+00  0.46926623848E+00  0.25500000000E-02 0.  1.
         31    1    1    2    0    0  0.25126706770E+00 -0.46932024318E+00  0.58376189123E+02  0.58851693087E+02  0.74470750000E+01 0. -1.
        -31    1    1    2    0    0 -0.25126706770E+00  0.46932024318E+00  0.59962572208E+02  0.60425593820E+02  0.74470750000E+01 0. -1.
<mgrwt>
<rscale>  0 0.14933477E+02</rscale>
<asrwt>0</asrwt>
<pdfrwt beam="2">  1        2 0.99662389E+00 0.14933477E+02</pdfrwt>
<pdfrwt beam="1">  1       -2 0.98626806E+00 0.14933477E+02</pdfrwt>
<totfact> 0.25948147E-13</totfact>
</mgrwt>
</event>
<event>
 4    1  0.5119137E-019  0.1493003E+02  0.7818608E-02  0.1870211E+00
         -2   -1    0    0    0  501 -0.00000000000E+00  0.00000000000E+00  0.11874554062E+03  0.11874554064E+03  0.25500000000E-02 0.  1.
          2   -1    0    0  501    0  0.00000000000E+00 -0.00000000000E+00 -0.46928967076E+00  0.46929659874E+00  0.25500000000E-02 0. -1.
         31    1    1    2    0    0 -0.37168414010E+00 -0.14670295513E+00  0.61760692568E+02  0.62209338072E+02  0.74470750000E+01 0. -1.
        -31    1    1    2    0    0  0.37168414010E+00  0.14670295513E+00  0.56515558379E+02  0.57005499172E+02  0.74470750000E+01 0. -1.
<mgrwt>
<rscale>  0 0.14930033E+02</rscale>
<asrwt>0</asrwt>
<pdfrwt beam="2">  1        2 0.99668606E+00 0.14930033E+02</pdfrwt>
<pdfrwt beam="1">  1       -2 0.98575168E+00 0.14930033E+02</pdfrwt>
<totfact> 0.30494027E-13</totfact>
</mgrwt>
</event>
<event>
 4    1  0.5119137E-019  0.1491255E+02  0.7818608E-02  0.1870749E+00
         -2   -1    0    0    0  501 -0.00000000000E+00  0.00000000000E+00  0.11821340720E+03  0.11821340723E+03  0.25500000000E-02 0.  1.
          2   -1    0    0  501    0  0.00000000000E+00 -0.00000000000E+00 -0.47029884136E+00  0.47030575446E+00  0.25500000000E-02 0. -1.
         31    1    1    2    0    0 -0.41455390007E-01 -0.26349502850E+00  0.56827466507E+02  0.57313968837E+02  0.74470750000E+01 0. -1.
        -31    1    1    2    0    0  0.41455390007E-01  0.26349502850E+00  0.60915641856E+02  0.61369744150E+02  0.74470750000E+01 0.  1.
<mgrwt>
<rscale>  0 0.14912550E+02</rscale>
<asrwt>0</asrwt>
<pdfrwt beam="2">  1        2 0.99880313E+00 0.14912550E+02</pdfrwt>
<pdfrwt beam="1">  1       -2 0.98135998E+00 0.14912550E+02</pdfrwt>
<totfact> 0.39904745E-13</totfact>
</mgrwt>
</event>
<event>
 4    1 -0.5119137E-019  0.1494738E+02  0.7818608E-02  0.1869678E+00
         -2   -1    0    0    0  501 -0.00000000000E+00  0.00000000000E+00  0.11994941798E+03  0.11994941801E+03  0.25500000000E-02 0.  1.
          2   -1    0    0  501    0  0.00000000000E+00 -0.00000000000E+00 -0.46565975146E+00  0.46566673343E+00  0.25500000000E-02 0. -1.
         31    1    1    2    0    0 -0.45571743044E+00 -0.39204714681E+00  0.58219057079E+02  0.58696498299E+02  0.74470750000E+01 0. -1.
        -31    1    1    2    0    0  0.45571743044E+00  0.39204714681E+00  0.61264701149E+02  0.61718586441E+02  0.74470750000E+01 0.  1.
<mgrwt>
<rscale>  0 0.14947379E+02</rscale>
<asrwt>0</asrwt>
<pdfrwt beam="2">  1        2 0.98904577E+00 0.14947379E+02</pdfrwt>
<pdfrwt beam="1">  1       -2 0.99567617E+00 0.14947379E+02</pdfrwt>
<totfact>-0.19051193E-13</totfact>
</mgrwt>
</event>
<event>
 4    1 -0.5119137E-019  0.1491083E+02  0.7818608E-02  0.1870802E+00
          2   -1    0    0  501    0  0.00000000000E+00  0.00000000000E+00  0.11866536639E+03  0.11866536642E+03  0.25500000000E-02 0. -1.
         -2   -1    0    0    0  501 -0.00000000000E+00 -0.00000000000E+00 -0.46839924666E+00  0.46840618780E+00  0.25500000000E-02 0.  1.
         31    1    1    2    0    0  0.34179319015E+00 -0.24608888784E-01  0.58438224744E+02  0.58911819403E+02  0.74470750000E+01 0.  1.
        -31    1    1    2    0    0 -0.34179319015E+00  0.24608888784E-01  0.59758742399E+02  0.60221953201E+02  0.74470750000E+01 0. -1.
<mgrwt>
<rscale>  0 0.14910826E+02</rscale>
<asrwt>0</asrwt>
<pdfrwt beam="1">  1        2 0.98508139E+00 0.14910826E+02</pdfrwt>
<pdfrwt beam="2">  1       -2 0.99479977E+00 0.14910826E+02</pdfrwt>
<totfact>-0.34348268E-13</totfact>
</mgrwt>
</event>
<event>
 4    1 -0.5119137E-019  0.1498056E+02  0.7818608E-02  0.1868662E+00
          2   -1    0    0  501    0  0.00000000000E+00  0.00000000000E+00  0.11924177815E+03  0.11924177818E+03  0.25500000000E-02 0. -1.
         -2   -1    0    0    0  501 -0.00000000000E+00 -0.00000000000E+00 -0.47050523235E+00  0.47051214242E+00  0.25500000000E-02 0.  1.
         31    1    1    2    0    0 -0.65765376898E+00  0.44386232125E+00  0.60391619849E+02  0.60854220859E+02  0.74470750000E+01 0. -1.
        -31    1    1    2    0    0  0.65765376898E+00 -0.44386232125E+00  0.58379653070E+02  0.58858069463E+02  0.74470750000E+01 0. -1.
<mgrwt>
<rscale>  0 0.14980560E+02</rscale>
<asrwt>0</asrwt>
<pdfrwt beam="1">  1        2 0.98986497E+00 0.14980560E+02</pdfrwt>
<pdfrwt beam="2">  1       -2 0.99927387E+00 0.14980560E+02</pdfrwt>
<totfact>-0.43674268E-14</totfact>
</mgrwt>
</event>
<event>
 4    1 -0.5119137E-019  0.1498219E+02  0.7818608E-02  0.1868613E+00
         -2   -1    0    0    0  501 -0.00000000000E+00  0.00000000000E+00  0.11946399494E+03  0.11946399496E+03  0.25500000000E-02 0.  1.
          2   -1    0    0  501    0  0.00000000000E+00 -0.00000000000E+00 -0.46973198507E+00  0.46973890652E+00  0.25500000000E-02 0. -1.
         31    1    1    2    0    0 -0.44790893546E+00 -0.27204438711E+00  0.54543542855E+02  0.55052081012E+02  0.74470750000E+01 0. -1.
        -31    1    1    2    0    0  0.44790893546E+00  0.27204438711E+00  0.64450720096E+02  0.64881652857E+02  0.74470750000E+01 0. -1.
<mgrwt>
<rscale>  0 0.14982186E+02</rscale>
<asrwt>0</asrwt>
<pdfrwt beam="2">  1        2 0.99764538E+00 0.14982186E+02</pdfrwt>
<pdfrwt beam="1">  1       -2 0.99169602E+00 0.14982186E+02</pdfrwt>
<totfact>-0.42805193E-14</totfact>
</mgrwt>
</event>
<event>
 4    1 -0.5119137E-019  0.1499357E+02  0.7818608E-02  0.1868265E+00
          2   -1    0    0  501    0  0.00000000000E+00  0.00000000000E+00  0.12035431849E+03  0.12035431852E+03  0.25500000000E-02 0. -1.
         -2   -1    0    0    0  501 -0.00000000000E+00 -0.00000000000E+00 -0.46696614645E+00  0.46697310889E+00  0.25500000000E-02 0.  1.
         31    1    1    2    0    0  0.17779986536E-01 -0.29014686610E+00  0.66482189108E+02  0.66898616547E+02  0.74470750000E+01 0. -1.
        -31    1    1    2    0    0 -0.17779986536E-01  0.29014686610E+00  0.53405163236E+02  0.53922675079E+02  0.74470750000E+01 0.  1.
<mgrwt>
<rscale>  0 0.14993574E+02</rscale>
<asrwt>0</asrwt>
<pdfrwt beam="1">  1        2 0.99903497E+00 0.14993574E+02</pdfrwt>
<pdfrwt beam="2">  1       -2 0.99182265E+00 0.14993574E+02</pdfrwt>
<totfact>-0.21724477E-14</totfact>
</mgrwt>
</event>
<event>
 4    1  0.5119137E-019  0.1490955E+02  0.7818608E-02  0.1870841E+00
          2   -1    0    0  501    0  0.00000000000E+00  0.00000000000E+00  0.12022420609E+03  0.12022420612E+03  0.25500000000E-02 0. -1.
         -2   -1    0    0    0  501 -0.00000000000E+00 -0.00000000000E+00 -0.46224693861E+00  0.46225397213E+00  0.25500000000E-02 0.  1.
         31    1    1    2    0    0 -0.37213035055E-02 -0.33203252834E+00  0.60424689502E+02  0.60882774960E+02  0.74470750000E+01 0. -1.
        -31    1    1    2    0    0  0.37213035055E-02  0.33203252834E+00  0.59337269654E+02  0.59803685133E+02  0.74470750000E+01 0.  1.
<mgrwt>
<rscale>  0 0.14909554E+02</rscale>
<asrwt>0</asrwt>
<pdfrwt beam="1">  1        2 0.99792009E+00 0.14909554E+02</pdfrwt>
<pdfrwt beam="2">  1       -2 0.98183362E+00 0.14909554E+02</pdfrwt>
<totfact> 0.57420624E-13</totfact>
</mgrwt>
</event>
<event>
 4    1 -0.5119137E-019  0.1497136E+02  0.7818608E-02  0.1868944E+00
          2   -1    0    0  501    0  0.00000000000E+00  0.00000000000E+00  0.11960944660E+03  0.11960944662E+03  0.25500000000E-02 0.  1.
         -2   -1    0    0    0  501 -0.00000000000E+00 -0.00000000000E+00 -0.46848300083E+00  0.46848994074E+00  0.25500000000E-02 0. -1.
         31    1    1    2    0    0 -0.57804311378E+00  0.44921304514E+00  0.61185743624E+02  0.61641626156E+02  0.74470750000E+01 0. -1.
        -31    1    1    2    0    0  0.57804311378E+00 -0.44921304514E+00  0.57955219970E+02  0.58436310408E+02  0.74470750000E+01 0. -1.
<mgrwt>
<rscale>  0 0.14971361E+02</rscale>
<asrwt>0</asrwt>
<pdfrwt beam="1">  1        2 0.99288839E+00 0.14971361E+02</pdfrwt>
<pdfrwt beam="2">  1       -2 0.99500784E+00 0.14971361E+02</pdfrwt>
<totfact>-0.14194649E-13</totfact>
</mgrwt>
</event>
<event>
 4    1 -0.5119137E-019  0.1493824E+02  0.7818608E-02  0.1869959E+00
         -2   -1    0    0    0  501 -0.00000000000E+00  0.00000000000E+00  0.11994912749E+03  0.11994912752E+03  0.25500000000E-02 0. -1.
          2   -1    0    0  501    0  0.00000000000E+00 -0.00000000000E+00 -0.46509178162E+00  0.46509877212E+00  0.25500000000E-02 0.  1.
         31    1    1    2    0    0 -0.37060994194E-01 -0.50777557150E+00  0.57614816314E+02  0.58096344071E+02  0.74470750000E+01 0.  1.
        -31    1    1    2    0    0  0.37060994194E-01  0.50777557150E+00  0.61869219394E+02  0.62317882217E+02  0.74470750000E+01 0. -1.
<mgrwt>
<rscale>  0 0.14938243E+02</rscale>
<asrwt>0</asrwt>
<pdfrwt beam="2">  1        2 0.98784409E+00 0.14938243E+02</pdfrwt>
<pdfrwt beam="1">  1       -2 0.99566907E+00 0.14938243E+02</pdfrwt>
<totfact>-0.22033936E-13</totfact>
</mgrwt>
</event>
<event>
 4    1 -0.5119137E-019  0.1496659E+02  0.7818608E-02  0.1869090E+00
          2   -1    0    0  501    0  0.00000000000E+00  0.00000000000E+00  0.11984507216E+03  0.11984507219E+03  0.25500000000E-02 0.  1.
         -2   -1    0    0    0  501 -0.00000000000E+00 -0.00000000000E+00 -0.46726388193E+00  0.46727083994E+00  0.25500000000E-02 0. -1.
         31    1    1    2    0    0  0.65961099937E+00 -0.31933924133E+00  0.60178116820E+02  0.60641584200E+02  0.74470750000E+01 0. -1.
        -31    1    1    2    0    0 -0.65961099937E+00  0.31933924133E+00  0.59199691461E+02  0.59670758830E+02  0.74470750000E+01 0.  1.
<mgrwt>
<rscale>  0 0.14966589E+02</rscale>
<asrwt>0</asrwt>
<pdfrwt beam="1">  1        2 0.99482663E+00 0.14966589E+02</pdfrwt>
<pdfrwt beam="2">  1       -2 0.99243626E+00 0.14966589E+02</pdfrwt>
<totfact>-0.92623142E-14</totfact>
</mgrwt>
</event>
<event>
 4    1  0.5119137E-019  0.1493207E+02  0.7818608E-02  0.1870149E+00
         -2   -1    0    0    0  501 -0.00000000000E+00  0.00000000000E+00  0.11900765140E+03  0.11900765143E+03  0.25500000000E-02 0. -1.
          2   -1    0    0  501    0  0.00000000000E+00 -0.00000000000E+00 -0.46838375475E+00  0.46839069612E+00  0.25500000000E-02 0.  1.
         31    1    1    2    0    0  0.33026705130E+00  0.91193974949E-01  0.56016060742E+02  0.56509958236E+02  0.74470750000E+01 0.  1.
        -31    1    1    2    0    0 -0.33026705130E+00 -0.91193974949E-01  0.62523206904E+02  0.62966083889E+02  0.74470750000E+01 0. -1.
<mgrwt>
<rscale>  0 0.14932068E+02</rscale>
<asrwt>0</asrwt>
<pdfrwt beam="2">  1        2 0.99477825E+00 0.14932068E+02</pdfrwt>
<pdfrwt beam="1">  1       -2 0.98791151E+00 0.14932068E+02</pdfrwt>
<totfact> 0.16258118E-13</totfact>
</mgrwt>
</event>
<event>
 4    1 -0.5119137E-019  0.1492405E+02  0.7818608E-02  0.1870395E+00
         -2   -1    0    0    0  501 -0.00000000000E+00  0.00000000000E+00  0.11993366620E+03  0.11993366622E+03  0.25500000000E-02 0. -1.
          2   -1    0    0  501    0  0.00000000000E+00 -0.00000000000E+00 -0.46426835580E+00  0.46427535870E+00  0.25500000000E-02 0.  1.
         31    1    1    2    0    0 -0.27506476622E+00  0.14599774681E+00  0.56871891933E+02  0.57358242599E+02  0.74470750000E+01 0.  1.
        -31    1    1    2    0    0  0.27506476622E+00 -0.14599774681E+00  0.62597505908E+02  0.63039698983E+02  0.74470750000E+01 0.  1.
<mgrwt>
<rscale>  0 0.14924052E+02</rscale>
<asrwt>0</asrwt>
<pdfrwt beam="2">  1        2 0.98610143E+00 0.14924052E+02</pdfrwt>
<pdfrwt beam="1">  1       -2 0.99553442E+00 0.14924052E+02</pdfrwt>
<totfact>-0.28505058E-13</totfact>
</mgrwt>
</event>
<event>
 4    1  0.5119137E-019  0.1492395E+02  0.7818608E-02  0.1870398E+00
         -2   -1    0    0    0  501 -0.00000000000E+00  0.00000000000E+00  0.11902364738E+03  0.11902364741E+03  0.25500000000E-02 0. -1.
          2   -1    0    0  501    0  0.00000000000E+00 -0.00000000000E+00 -0.46781179872E+00  0.46781874858E+00  0.25500000000E-02 0.  1.
         31    1    1    2    0    0  0.34759669339E+00 -0.29872737978E+00  0.60158503223E+02  0.60619423435E+02  0.74470750000E+01 0. -1.
        -31    1    1    2    0    0 -0.34759669339E+00  0.29872737978E+00  0.58397332359E+02  0.58872042722E+02  0.74470750000E+01 0. -1.
<mgrwt>
<rscale>  0 0.14923952E+02</rscale>
<asrwt>0</asrwt>
<pdfrwt beam="2">  1        2 0.99356880E+00 0.14923952E+02</pdfrwt>
<pdfrwt beam="1">  1       -2 0.98803905E+00 0.14923952E+02</pdfrwt>
<totfact> 0.16751700E-13</totfact>
</mgrwt>
</event>
<event>
 4    1  0.5119137E-019  0.1491117E+02  0.7818608E-02  0.1870791E+00
         -2   -1    0    0    0  501 -0.00000000000E+00  0.00000000000E+00  0.11847220589E+03  0.11847220592E+03  0.25500000000E-02 0. -1.
          2   -1    0    0  501    0  0.00000000000E+00 -0.00000000000E+00 -0.46918466086E+00  0.46919159039E+00  0.25500000000E-02 0.  1.
         31    1    1    2    0    0 -0.20390754612E+00 -0.29191395985E+00  0.58952743905E+02  0.59422316784E+02  0.74470750000E+01 0. -1.
        -31    1    1    2    0    0  0.20390754612E+00  0.29191395985E+00  0.59050277329E+02  0.59519080729E+02  0.74470750000E+01 0.  1.
<mgrwt>
<rscale>  0 0.14911171E+02</rscale>
<asrwt>0</asrwt>
<pdfrwt beam="2">  1        2 0.99645487E+00 0.14911171E+02</pdfrwt>
<pdfrwt beam="1">  1       -2 0.98349069E+00 0.14911171E+02</pdfrwt>
<totfact> 0.58644545E-13</totfact>
</mgrwt>
</event>
<event>
 4    1 -0.5119137E-019  0.1493937E+02  0.7818608E-02  0.1869924E+00
         -2   -1    0    0    0  501 -0.00000000000E+00  0.00000000000E+00  0.12037827493E+03  0.12037827496E+03  0.25500000000E-02 0.  1.
          2   -1    0    0  501    0  0.00000000000E+00 -0.00000000000E+00 -0.46350343492E+00  0.46351044938E+00  0.25500000000E-02 0. -1.
         31    1    1    2    0    0  0.55924169831E+00 -0.21251409512E-01  0.61211554449E+02  0.61665440297E+02  0.74470750000E+01 0.  1.
        -31    1    1    2    0    0 -0.55924169831E+00  0.21251409512E-01  0.58703217051E+02  0.59176345114E+02  0.74470750000E+01 0.  1.
<mgrwt>
<rscale>  0 0.14939367E+02</rscale>
<asrwt>0</asrwt>
<pdfrwt beam="2">  1        2 0.98449702E+00 0.14939367E+02</pdfrwt>
<pdfrwt beam="1">  1       -2 0.99920443E+00 0.14939367E+02</pdfrwt>
<totfact>-0.99096371E-14</totfact>
</mgrwt>
</event>
<event>
 4    1 -0.5119137E-019  0.1496369E+02  0.7818608E-02  0.1869179E+00
          2   -1    0    0  501    0  0.00000000000E+00  0.00000000000E+00  0.11920878957E+03  0.11920878959E+03  0.25500000000E-02 0.  1.
         -2   -1    0    0    0  501 -0.00000000000E+00 -0.00000000000E+00 -0.46957597734E+00  0.46958290109E+00  0.25500000000E-02 0. -1.
         31    1    1    2    0    0  0.30399599463E-02 -0.33309424699E+00  0.64478973403E+02  0.64908457832E+02  0.74470750000E+01 0.  1.
        -31    1    1    2    0    0 -0.30399599463E-02  0.33309424699E+00  0.54260240186E+02  0.54769914663E+02  0.74470750000E+01 0. -1.
<mgrwt>
<rscale>  0 0.14963689E+02</rscale>
<asrwt>0</asrwt>
<pdfrwt beam="1">  1        2 0.98958452E+00 0.14963689E+02</pdfrwt>
<pdfrwt beam="2">  1       -2 0.99730698E+00 0.14963689E+02</pdfrwt>
<totfact>-0.13854371E-13</totfact>
</mgrwt>
</event>
<event>
 4    1 -0.5119137E-019  0.1492915E+02  0.7818608E-02  0.1870238E+00
         -2   -1    0    0    0  501 -0.00000000000E+00  0.00000000000E+00  0.11967997490E+03  0.11967997492E+03  0.25500000000E-02 0. -1.
          2   -1    0    0  501    0  0.00000000000E+00 -0.00000000000E+00 -0.46557020651E+00  0.46557718983E+00  0.25500000000E-02 0.  1.
         31    1    1    2    0    0 -0.48902623992E+00  0.14085536325E+00  0.59252845489E+02  0.59721165524E+02  0.74470750000E+01 0.  1.
        -31    1    1    2    0    0  0.48902623992E+00 -0.14085536325E+00  0.59961559200E+02  0.60424386589E+02  0.74470750000E+01 0. -1.
<mgrwt>
<rscale>  0 0.14929146E+02</rscale>
<asrwt>0</asrwt>
<pdfrwt beam="2">  1        2 0.98884771E+00 0.14929146E+02</pdfrwt>
<pdfrwt beam="1">  1       -2 0.99344749E+00 0.14929146E+02</pdfrwt>
<totfact>-0.18713874E-13</totfact>
</mgrwt>
</event>
<event>
 4    1 -0.5119137E-019  0.1493955E+02  0.7818608E-02  0.1869919E+00
         -2   -1    0    0    0  501 -0.00000000000E+00  0.00000000000E+00  0.12036009642E+03  0.12036009645E+03  0.25500000000E-02 0.  1.
          2   -1    0    0  501    0  0.00000000000E+00 -0.00000000000E+00 -0.46358492070E+00  0.46359193393E+00  0.25500000000E-02 0. -1.
         31    1    1    2    0    0  0.22792805548E+00  0.37961993394E+00  0.63001891339E+02  0.63442046790E+02  0.74470750000E+01 0.  1.
        -31    1    1    2    0    0 -0.22792805548E+00 -0.37961993394E+00  0.56894620163E+02  0.57381641594E+02  0.74470750000E+01 0. -1.
<mgrwt>
<rscale>  0 0.14939552E+02</rscale>
<asrwt>0</asrwt>
<pdfrwt beam="2">  1        2 0.98466887E+00 0.14939552E+02</pdfrwt>
<pdfrwt beam="1">  1       -2 0.99905479E+00 0.14939552E+02</pdfrwt>
<totfact>-0.11308086E-13</totfact>
</mgrwt>
</event>
<event>
 4    1  0.5119137E-019  0.1493418E+02  0.7818608E-02  0.1870084E+00
         -2   -1    0    0    0  501 -0.00000000000E+00  0.00000000000E+00  0.11897761579E+03  0.11897761582E+03  0.25500000000E-02 0. -1.
          2   -1    0    0  501    0  0.00000000000E+00 -0.00000000000E+00 -0.46863457323E+00  0.46864151089E+00  0.25500000000E-02 0.  1.
         31    1    1    2    0    0  0.20230527842E+00  0.37998258628E+00  0.56563487462E+02  0.57053241399E+02  0.74470750000E+01 0.  1.
        -31    1    1    2    0    0 -0.20230527842E+00 -0.37998258628E+00  0.61945493757E+02  0.62393015931E+02  0.74470750000E+01 0. -1.
<mgrwt>
<rscale>  0 0.14934181E+02</rscale>
<asrwt>0</asrwt>
<pdfrwt beam="2">  1        2 0.99530787E+00 0.14934181E+02</pdfrwt>
<pdfrwt beam="1">  1       -2 0.98766523E+00 0.14934181E+02</pdfrwt>
<totfact> 0.17520658E-13</totfact>
</mgrwt>
</event>
<event>
 4    1 -0.5119137E-019  0.1498740E+02  0.7818608E-02  0.1868453E+00
         -2   -1    0    0    0  501 -0.00000000000E+00  0.00000000000E+00  0.11969521184E+03  0.11969521186E+03  0.25500000000E-02 0.  1.
          2   -1    0    0  501    0  0.00000000000E+00 -0.00000000000E+00 -0.46915080102E+00  0.46915773105E+00  0.25500000000E-02 0. -1.
         31    1    1    2    0    0 -0.49786820183E+00  0.69219375906E-01  0.64955079884E+02  0.65382520545E+02  0.74470750000E+01 0.  1.
        -31    1    1    2    0    0  0.49786820183E+00 -0.69219375906E-01  0.54270981151E+02  0.54781849048E+02  0.74470750000E+01 0. -1.
<mgrwt>
<rscale>  0 0.14987398E+02</rscale>
<asrwt>0</asrwt>
<pdfrwt beam="2">  1        2 0.99642340E+00 0.14987398E+02</pdfrwt>
<pdfrwt beam="1">  1       -2 0.99360308E+00 0.14987398E+02</pdfrwt>
<totfact>-0.93294584E-14</totfact>
</mgrwt>
</event>
<event>
 4    1  0.5119137E-019  0.1490366E+02  0.7818608E-02  0.1871023E+00
          2   -1    0    0  501    0  0.00000000000E+00  0.00000000000E+00  0.12003108781E+03  0.12003108783E+03  0.25500000000E-02 0. -1.
         -2   -1    0    0    0  501 -0.00000000000E+00 -0.00000000000E+00 -0.46262455724E+00  0.46263158502E+00  0.25500000000E-02 0.  1.
         31    1    1    2    0    0  0.10302440313E+00  0.23224264885E+00  0.59143681772E+02  0.59611228558E+02  0.74470750000E+01 0.  1.
        -31    1    1    2    0    0 -0.10302440313E+00 -0.23224264885E+00  0.60424781478E+02  0.60882490860E+02  0.74470750000E+01 0. -1.
<mgrwt>
<rscale>  0 0.14903658E+02</rscale>
<asrwt>0</asrwt>
<pdfrwt beam="1">  1        2 0.99632638E+00 0.14903658E+02</pdfrwt>
<pdfrwt beam="2">  1       -2 0.98262655E+00 0.14903658E+02</pdfrwt>
<totfact> 0.72582722E-13</totfact>
</mgrwt>
</event>
<event>
 4    1  0.5119137E-019  0.1491123E+02  0.7818608E-02  0.1870789E+00
         -2   -1    0    0    0  501 -0.00000000000E+00  0.00000000000E+00  0.11843185264E+03  0.11843185267E+03  0.25500000000E-02 0.  1.
          2   -1    0    0  501    0  0.00000000000E+00 -0.00000000000E+00 -0.46934843547E+00  0.46935536258E+00  0.25500000000E-02 0. -1.
         31    1    1    2    0    0 -0.23167660606E+00  0.22717241629E+00  0.57798236451E+02  0.58276928061E+02  0.74470750000E+01 0. -1.
        -31    1    1    2    0    0  0.23167660606E+00 -0.22717241629E+00  0.60164267752E+02  0.60624279967E+02  0.74470750000E+01 0.  1.
<mgrwt>
<rscale>  0 0.14911233E+02</rscale>
<asrwt>0</asrwt>
<pdfrwt beam="2">  1        2 0.99679997E+00 0.14911233E+02</pdfrwt>
<pdfrwt beam="1">  1       -2 0.98315838E+00 0.14911233E+02</pdfrwt>
<totfact> 0.59249681E-13</totfact>
</mgrwt>
</event>
<event>
 4    1  0.5119137E-019  0.1490432E+02  0.7818608E-02  0.1871002E+00
         -2   -1    0    0    0  501 -0.00000000000E+00  0.00000000000E+00  0.11874898777E+03  0.11874898780E+03  0.25500000000E-02 0.  1.
          2   -1    0    0  501    0  0.00000000000E+00 -0.00000000000E+00 -0.46766086327E+00  0.46766781537E+00  0.25500000000E-02 0. -1.
         31    1    1    2    0    0 -0.14684684142E+00 -0.98908305319E-01  0.57455263622E+02  0.57936150984E+02  0.74470750000E+01 0. -1.
        -31    1    1    2    0    0  0.14684684142E+00  0.98908305319E-01  0.60826063284E+02  0.61280504628E+02  0.74470750000E+01 0. -1.
<mgrwt>
<rscale>  0 0.14904318E+02</rscale>
<asrwt>0</asrwt>
<pdfrwt beam="2">  1        2 0.99324050E+00 0.14904318E+02</pdfrwt>
<pdfrwt beam="1">  1       -2 0.98576672E+00 0.14904318E+02</pdfrwt>
<totfact> 0.44671602E-13</totfact>
</mgrwt>
</event>
<event>
 4    1 -0.5119137E-019  0.1490834E+02  0.7818608E-02  0.1870879E+00
         -2   -1    0    0    0  501 -0.00000000000E+00  0.00000000000E+00  0.11953974654E+03  0.11953974657E+03  0.25500000000E-02 0. -1.
          2   -1    0    0  501    0  0.00000000000E+00 -0.00000000000E+00 -0.46481773185E+00  0.46482472648E+00  0.25500000000E-02 0.  1.
         31    1    1    2    0    0  0.25923447652E+00 -0.11795292789E+00  0.58275625111E+02  0.58750221477E+02  0.74470750000E+01 0.  1.
        -31    1    1    2    0    0 -0.25923447652E+00  0.11795292789E+00  0.60799303696E+02  0.61254349816E+02  0.74470750000E+01 0.  1.
<mgrwt>
<rscale>  0 0.14908335E+02</rscale>
<asrwt>0</asrwt>
<pdfrwt beam="2">  1        2 0.98725122E+00 0.14908335E+02</pdfrwt>
<pdfrwt beam="1">  1       -2 0.99228176E+00 0.14908335E+02</pdfrwt>
<totfact>-0.17991751E-13</totfact>
</mgrwt>
</event>
<event>
 4    1 -0.5119137E-019  0.1495080E+02  0.7818608E-02  0.1869574E+00
         -2   -1    0    0    0  501 -0.00000000000E+00  0.00000000000E+00  0.12022276717E+03  0.12022276720E+03  0.25500000000E-02 0. -1.
          2   -1    0    0  501    0  0.00000000000E+00 -0.00000000000E+00 -0.46481341266E+00  0.46482040735E+00  0.25500000000E-02 0.  1.
         31    1    1    2    0    0  0.43575390326E+00 -0.18970233647E+00  0.56298069634E+02  0.56790469614E+02  0.74470750000E+01 0.  1.
        -31    1    1    2    0    0 -0.43575390326E+00  0.18970233647E+00  0.63459884125E+02  0.63897117992E+02  0.74470750000E+01 0. -1.
<mgrwt>
<rscale>  0 0.14950796E+02</rscale>
<asrwt>0</asrwt>
<pdfrwt beam="2">  1        2 0.98726381E+00 0.14950796E+02</pdfrwt>
<pdfrwt beam="1">  1       -2 0.99792942E+00 0.14950796E+02</pdfrwt>
<totfact>-0.15044711E-13</totfact>
</mgrwt>
</event>
<event>
 4    1  0.5119137E-019  0.1494060E+02  0.7818608E-02  0.1869887E+00
         -2   -1    0    0    0  501 -0.00000000000E+00  0.00000000000E+00  0.11884519573E+03  0.11884519576E+03  0.25500000000E-02 0.  1.
          2   -1    0    0  501    0  0.00000000000E+00 -0.00000000000E+00 -0.46956002167E+00  0.46956694566E+00  0.25500000000E-02 0. -1.
         31    1    1    2    0    0 -0.81447293817E-01 -0.49126168691E+00  0.56681839418E+02  0.57171127482E+02  0.74470750000E+01 0. -1.
        -31    1    1    2    0    0  0.81447293817E-01  0.49126168691E+00  0.61693796290E+02  0.62143635221E+02  0.74470750000E+01 0.  1.
<mgrwt>
<rscale>  0 0.14940598E+02</rscale>
<asrwt>0</asrwt>
<pdfrwt beam="2">  1        2 0.99726126E+00 0.14940598E+02</pdfrwt>
<pdfrwt beam="1">  1       -2 0.98657794E+00 0.14940598E+02</pdfrwt>
<totfact> 0.20144515E-13</totfact>
</mgrwt>
</event>
<event>
 4    1  0.5119137E-019  0.1491611E+02  0.7818608E-02  0.1870639E+00
         -2   -1    0    0    0  501 -0.00000000000E+00  0.00000000000E+00  0.11901114865E+03  0.11901114867E+03  0.25500000000E-02 0. -1.
          2   -1    0    0  501    0  0.00000000000E+00 -0.00000000000E+00 -0.46736939927E+00  0.46737635571E+00  0.25500000000E-02 0.  1.
         31    1    1    2    0    0  0.18884143095E-01 -0.56899393068E-01  0.56067215476E+02  0.56559660284E+02  0.74470750000E+01 0.  1.
        -31    1    1    2    0    0 -0.18884143095E-01  0.56899393068E-01  0.62476563772E+02  0.62918864746E+02  0.74470750000E+01 0. -1.
<mgrwt>
<rscale>  0 0.14916110E+02</rscale>
<asrwt>0</asrwt>
<pdfrwt beam="2">  1        2 0.99263248E+00 0.14916110E+02</pdfrwt>
<pdfrwt beam="1">  1       -2 0.98793204E+00 0.14916110E+02</pdfrwt>
<totfact> 0.19058837E-13</totfact>
</mgrwt>
</event>
<event>
 4    1  0.5119137E-019  0.1492051E+02  0.7818608E-02  0.1870504E+00
         -2   -1    0    0    0  501 -0.00000000000E+00  0.00000000000E+00  0.11895875237E+03  0.11895875239E+03  0.25500000000E-02 0. -1.
          2   -1    0    0  501    0  0.00000000000E+00 -0.00000000000E+00 -0.46785135611E+00  0.46785830538E+00  0.25500000000E-02 0.  1.
         31    1    1    2    0    0 -0.43726424333E+00  0.52493013505E-01  0.59649532960E+02  0.60114221811E+02  0.74470750000E+01 0. -1.
        -31    1    1    2    0    0  0.43726424333E+00 -0.52493013505E-01  0.58841368051E+02  0.59312388889E+02  0.74470750000E+01 0. -1.
<mgrwt>
<rscale>  0 0.14920513E+02</rscale>
<asrwt>0</asrwt>
<pdfrwt beam="2">  1        2 0.99365036E+00 0.14920513E+02</pdfrwt>
<pdfrwt beam="1">  1       -2 0.98750278E+00 0.14920513E+02</pdfrwt>
<totfact> 0.22087105E-13</totfact>
</mgrwt>
</event>
<event>
 4    1 -0.5119137E-019  0.1498901E+02  0.7818608E-02  0.1868404E+00
          2   -1    0    0  501    0  0.00000000000E+00  0.00000000000E+00  0.11958579322E+03  0.11958579325E+03  0.25500000000E-02 0. -1.
         -2   -1    0    0    0  501 -0.00000000000E+00 -0.00000000000E+00 -0.46968124005E+00  0.46968816224E+00  0.25500000000E-02 0.  1.
         31    1    1    2    0    0 -0.79381176390E+00  0.11323908908E+00  0.57504503458E+02  0.57990256114E+02  0.74470750000E+01 0. -1.
        -31    1    1    2    0    0  0.79381176390E+00 -0.11323908908E+00  0.61611608526E+02  0.62065225299E+02  0.74470750000E+01 0. -1.
<mgrwt>
<rscale>  0 0.14989012E+02</rscale>
<asrwt>0</asrwt>
<pdfrwt beam="1">  1        2 0.99270272E+00 0.14989012E+02</pdfrwt>
<pdfrwt beam="2">  1       -2 0.99754200E+00 0.14989012E+02</pdfrwt>
<totfact>-0.10034080E-13</totfact>
</mgrwt>
</event>
<event>
 4    1 -0.5119137E-019  0.1497231E+02  0.7818608E-02  0.1868915E+00
          2   -1    0    0  501    0  0.00000000000E+00  0.00000000000E+00  0.11962748216E+03  0.11962748219E+03  0.25500000000E-02 0. -1.
         -2   -1    0    0    0  501 -0.00000000000E+00 -0.00000000000E+00 -0.46847157967E+00  0.46847851974E+00  0.25500000000E-02 0.  1.
         31    1    1    2    0    0  0.23893636622E+00 -0.69414828494E+00  0.57884857238E+02  0.58366553401E+02  0.74470750000E+01 0.  1.
        -31    1    1    2    0    0 -0.23893636622E+00  0.69414828494E+00  0.61274153343E+02  0.61729407307E+02  0.74470750000E+01 0. -1.
<mgrwt>
<rscale>  0 0.14972307E+02</rscale>
<asrwt>0</asrwt>
<pdfrwt beam="1">  1        2 0.99303743E+00 0.14972307E+02</pdfrwt>
<pdfrwt beam="2">  1       -2 0.99498426E+00 0.14972307E+02</pdfrwt>
<totfact>-0.14050158E-13</totfact>
</mgrwt>
</event>
<event>
 4    1  0.5119137E-019  0.1494874E+02  0.7818608E-02  0.1869637E+00
          2   -1    0    0  501    0  0.00000000000E+00  0.00000000000E+00  0.12023592808E+03  0.12023592810E+03  0.25500000000E-02 0. -1.
         -2   -1    0    0    0  501 -0.00000000000E+00 -0.00000000000E+00 -0.46463452156E+00  0.46464151894E+00  0.25500000000E-02 0.  1.
         31    1    1    2    0    0  0.29366199089E+00 -0.13388973890E+00  0.55440402834E+02  0.55939264889E+02  0.74470750000E+01 0.  1.
        -31    1    1    2    0    0 -0.29366199089E+00  0.13388973890E+00  0.64330890720E+02  0.64761304733E+02  0.74470750000E+01 0. -1.
<mgrwt>
<rscale>  0 0.14948737E+02</rscale>
<asrwt>0</asrwt>
<pdfrwt beam="1">  1        2 0.99803676E+00 0.14948737E+02</pdfrwt>
<pdfrwt beam="2">  1       -2 0.98688573E+00 0.14948737E+02</pdfrwt>
<totfact> 0.13944600E-13</totfact>
</mgrwt>
</event>
<event>
 4    1 -0.5119137E-019  0.1489553E+02  0.7818608E-02  0.1871273E+00
         -2   -1    0    0    0  501 -0.00000000000E+00  0.00000000000E+00  0.12005626375E+03  0.12005626378E+03  0.25500000000E-02 0. -1.
          2   -1    0    0  501    0  0.00000000000E+00 -0.00000000000E+00 -0.46202314334E+00  0.46203018027E+00  0.25500000000E-02 0.  1.
         31    1    1    2    0    0  0.79914805847E-01  0.21203880435E-01  0.60271387465E+02  0.60729777778E+02  0.74470750000E+01 0. -1.
        -31    1    1    2    0    0 -0.79914805847E-01 -0.21203880435E-01  0.59322853144E+02  0.59788516182E+02  0.74470750000E+01 0.  1.
<mgrwt>
<rscale>  0 0.14895529E+02</rscale>
<asrwt>0</asrwt>
<pdfrwt beam="2">  1        2 0.98135484E+00 0.14895529E+02</pdfrwt>
<pdfrwt beam="1">  1       -2 0.99652958E+00 0.14895529E+02</pdfrwt>
<totfact>-0.55909211E-13</totfact>
</mgrwt>
</event>
<event>
 4    1 -0.5119137E-019  0.1495993E+02  0.7818608E-02  0.1869294E+00
         -2   -1    0    0    0  501 -0.00000000000E+00  0.00000000000E+00  0.11978492036E+03  0.11978492039E+03  0.25500000000E-02 0.  1.
          2   -1    0    0  501    0  0.00000000000E+00 -0.00000000000E+00 -0.46708292173E+00  0.46708988244E+00  0.25500000000E-02 0. -1.
         31    1    1    2    0    0  0.39838144243E+00  0.35425772950E+00  0.63314152833E+02  0.63752843712E+02  0.74470750000E+01 0. -1.
        -31    1    1    2    0    0 -0.39838144243E+00 -0.35425772950E+00  0.56003684605E+02  0.56499166557E+02  0.74470750000E+01 0. -1.
<mgrwt>
<rscale>  0 0.14959935E+02</rscale>
<asrwt>0</asrwt>
<pdfrwt beam="2">  1        2 0.99205148E+00 0.14959935E+02</pdfrwt>
<pdfrwt beam="1">  1       -2 0.99432776E+00 0.14959935E+02</pdfrwt>
<totfact>-0.15004169E-13</totfact>
</mgrwt>
</event>
<event>
 4    1  0.5119137E-019  0.1490642E+02  0.7818608E-02  0.1870938E+00
         -2   -1    0    0    0  501 -0.00000000000E+00  0.00000000000E+00  0.11892250623E+03  0.11892250625E+03  0.25500000000E-02 0. -1.
          2   -1    0    0  501    0  0.00000000000E+00 -0.00000000000E+00 -0.46711006522E+00  0.46711702552E+00  0.25500000000E-02 0.  1.
         31    1    1    2    0    0 -0.88928762461E-01 -0.18323896381E+00  0.61016940223E+02  0.61470052913E+02  0.74470750000E+01 0. -1.
        -31    1    1    2    0    0  0.88928762461E-01  0.18323896381E+00  0.57438455937E+02  0.57919570366E+02  0.74470750000E+01 0.  1.
<mgrwt>
<rscale>  0 0.14906417E+02</rscale>
<asrwt>0</asrwt>
<pdfrwt beam="2">  1        2 0.99208096E+00 0.14906417E+02</pdfrwt>
<pdfrwt beam="1">  1       -2 0.98719694E+00 0.14906417E+02</pdfrwt>
<totfact> 0.28493088E-13</totfact>
</mgrwt>
</event>
<event>
 4    1 -0.5119137E-019  0.1493575E+02  0.7818608E-02  0.1870035E+00
          2   -1    0    0  501    0  0.00000000000E+00  0.00000000000E+00  0.11926744509E+03  0.11926744512E+03  0.25500000000E-02 0. -1.
         -2   -1    0    0    0  501 -0.00000000000E+00 -0.00000000000E+00 -0.46759423644E+00  0.46760118953E+00  0.25500000000E-02 0.  1.
         31    1    1    2    0    0  0.31252984384E+00  0.45321559869E+00  0.58720516387E+02  0.59193420665E+02  0.74470750000E+01 0. -1.
        -31    1    1    2    0    0 -0.31252984384E+00 -0.45321559869E+00  0.60079334471E+02  0.60541625645E+02  0.74470750000E+01 0.  1.
<mgrwt>
<rscale>  0 0.14935754E+02</rscale>
<asrwt>0</asrwt>
<pdfrwt beam="1">  1        2 0.99005314E+00 0.14935754E+02</pdfrwt>
<pdfrwt beam="2">  1       -2 0.99311648E+00 0.14935754E+02</pdfrwt>
<totfact>-0.15733462E-13</totfact>
</mgrwt>
</event>
<event>
 4    1 -0.5119137E-019  0.1493766E+02  0.7818608E-02  0.1869977E+00
          2   -1    0    0  501    0  0.00000000000E+00  0.00000000000E+00  0.11863830167E+03  0.11863830169E+03  0.25500000000E-02 0. -1.
         -2   -1    0    0    0  501 -0.00000000000E+00 -0.00000000000E+00 -0.47019390075E+00  0.47020081540E+00  0.25500000000E-02 0.  1.
         31    1    1    2    0    0 -0.48671491610E-01 -0.41729057690E+00  0.62151525845E+02  0.62597504673E+02  0.74470750000E+01 0. -1.
        -31    1    1    2    0    0  0.48671491610E-01  0.41729057690E+00  0.56016581919E+02  0.56510997835E+02  0.74470750000E+01 0.  1.
<mgrwt>
<rscale>  0 0.14937660E+02</rscale>
<asrwt>0</asrwt>
<pdfrwt beam="1">  1        2 0.98487243E+00 0.14937660E+02</pdfrwt>
<pdfrwt beam="2">  1       -2 0.99859531E+00 0.14937660E+02</pdfrwt>
<totfact>-0.15632964E-13</totfact>
</mgrwt>
</event>
<event>
 4    1 -0.5119137E-019  0.1495471E+02  0.7818608E-02  0.1869454E+00
         -2   -1    0    0    0  501 -0.00000000000E+00  0.00000000000E+00  0.12014160038E+03  0.12014160041E+03  0.25500000000E-02 0. -1.
          2   -1    0    0  501    0  0.00000000000E+00 -0.00000000000E+00 -0.46537081711E+00  0.46537780342E+00  0.25500000000E-02 0.  1.
         31    1    1    2    0    0 -0.47662992338E+00 -0.12556932486E+00  0.63524608508E+02  0.63961533408E+02  0.74470750000E+01 0. -1.
        -31    1    1    2    0    0  0.47662992338E+00  0.12556932486E+00  0.56151621058E+02  0.56645444806E+02  0.74470750000E+01 0.  1.
<mgrwt>
<rscale>  0 0.14954707E+02</rscale>
<asrwt>0</asrwt>
<pdfrwt beam="2">  1        2 0.98844057E+00 0.14954707E+02</pdfrwt>
<pdfrwt beam="1">  1       -2 0.99726288E+00 0.14954707E+02</pdfrwt>
<totfact>-0.15914482E-13</totfact>
</mgrwt>
</event>
<event>
 4    1  0.5119137E-019  0.1490024E+02  0.7818608E-02  0.1871128E+00
          2   -1    0    0  501    0  0.00000000000E+00  0.00000000000E+00  0.11933247568E+03  0.11933247571E+03  0.25500000000E-02 0. -1.
         -2   -1    0    0    0  501 -0.00000000000E+00 -0.00000000000E+00 -0.46511925017E+00  0.46512624026E+00  0.25500000000E-02 0.  1.
         31    1    1    2    0    0 -0.28610142947E-01 -0.14276099600E+00  0.58184847925E+02  0.58659668030E+02  0.74470750000E+01 0.  1.
        -31    1    1    2    0    0  0.28610142947E-01  0.14276099600E+00  0.60682508503E+02  0.61137933916E+02  0.74470750000E+01 0. -1.
<mgrwt>
<rscale>  0 0.14900235E+02</rscale>
<asrwt>0</asrwt>
<pdfrwt beam="1">  1        2 0.99057039E+00 0.14900235E+02</pdfrwt>
<pdfrwt beam="2">  1       -2 0.98788249E+00 0.14900235E+02</pdfrwt>
<totfact> 0.22963983E-13</totfact>
</mgrwt>
</event>
<event>
 4    1 -0.5119137E-019  0.1500971E+02  0.7818608E-02  0.1867772E+00
          2   -1    0    0  501    0  0.00000000000E+00  0.00000000000E+00  0.12020839486E+03  0.12020839489E+03  0.25500000000E-02 0.  1.
         -2   -1    0    0    0  501 -0.00000000000E+00 -0.00000000000E+00 -0.46854000600E+00  0.46854694506E+00  0.25500000000E-02 0. -1.
         31    1    1    2    0    0 -0.90535543044E+00  0.18490357669E+00  0.60677070559E+02  0.61139346378E+02  0.74470750000E+01 0.  1.
        -31    1    1    2    0    0  0.90535543044E+00 -0.18490357669E+00  0.59062784297E+02  0.59537595456E+02  0.74470750000E+01 0.  1.
<mgrwt>
<rscale>  0 0.15009712E+02</rscale>
<asrwt>0</asrwt>
<pdfrwt beam="1">  1        2 0.99784139E+00 0.15009712E+02</pdfrwt>
<pdfrwt beam="2">  1       -2 0.99514778E+00 0.15009712E+02</pdfrwt>
<totfact>-0.69181812E-14</totfact>
</mgrwt>
</event>
<event>
 4    1 -0.5119137E-019  0.1491072E+02  0.7818608E-02  0.1870805E+00
         -2   -1    0    0    0  501 -0.00000000000E+00  0.00000000000E+00  0.11960285729E+03  0.11960285732E+03  0.25500000000E-02 0.  1.
          2   -1    0    0  501    0  0.00000000000E+00 -0.00000000000E+00 -0.46472136483E+00  0.46472836091E+00  0.25500000000E-02 0. -1.
         31    1    1    2    0    0 -0.27294221226E+00  0.22070692279E+00  0.59432020436E+02  0.59897806205E+02  0.74470750000E+01 0.  1.
        -31    1    1    2    0    0  0.27294221226E+00 -0.22070692279E+00  0.59706115493E+02  0.60169779477E+02  0.74470750000E+01 0.  1.
<mgrwt>
<rscale>  0 0.14910724E+02</rscale>
<asrwt>0</asrwt>
<pdfrwt beam="2">  1        2 0.98704935E+00 0.14910724E+02</pdfrwt>
<pdfrwt beam="1">  1       -2 0.99280281E+00 0.14910724E+02</pdfrwt>
<totfact>-0.21187638E-13</totfact>
</mgrwt>
</event>
<event>
 4    1 -0.5119137E-019  0.1494128E+02  0.7818608E-02  0.1869866E+00
         -2   -1    0    0    0  501 -0.00000000000E+00  0.00000000000E+00  0.11942040343E+03  0.11942040346E+03  0.25500000000E-02 0.  1.
          2   -1    0    0  501    0  0.00000000000E+00 -0.00000000000E+00 -0.46734075939E+00  0.46734771626E+00  0.25500000000E-02 0. -1.
         31    1    1    2    0    0 -0.18555700772E+00 -0.49335558947E+00  0.57298459640E+02  0.57782784930E+02  0.74470750000E+01 0. -1.
        -31    1    1    2    0    0  0.18555700772E+00  0.49335558947E+00  0.61654603035E+02  0.62104966248E+02  0.74470750000E+01 0.  1.
<mgrwt>
<rscale>  0 0.14941277E+02</rscale>
<asrwt>0</asrwt>
<pdfrwt beam="2">  1        2 0.99258520E+00 0.14941277E+02</pdfrwt>
<pdfrwt beam="1">  1       -2 0.99131581E+00 0.14941277E+02</pdfrwt>
<totfact>-0.66712132E-14</totfact>
</mgrwt>
</event>
<event>
 4    1 -0.5119137E-019  0.1490123E+02  0.7818608E-02  0.1871098E+00
          2   -1    0    0  501    0  0.00000000000E+00  0.00000000000E+00  0.11860670605E+03  0.11860670608E+03  0.25500000000E-02 0.  1.
         -2   -1    0    0    0  501 -0.00000000000E+00 -0.00000000000E+00 -0.46802786415E+00  0.46803481080E+00  0.25500000000E-02 0. -1.
         31    1    1    2    0    0  0.20539347387E+00 -0.99372413018E-01  0.58862326952E+02  0.59331985654E+02  0.74470750000E+01 0.  1.
        -31    1    1    2    0    0 -0.20539347387E+00  0.99372413018E-01  0.59276351236E+02  0.59742755237E+02  0.74470750000E+01 0.  1.
<mgrwt>
<rscale>  0 0.14901229E+02</rscale>
<asrwt>0</asrwt>
<pdfrwt beam="1">  1        2 0.98459327E+00 0.14901229E+02</pdfrwt>
<pdfrwt beam="2">  1       -2 0.99401220E+00 0.14901229E+02</pdfrwt>
<totfact>-0.36340455E-13</totfact>
</mgrwt>
</event>
<event>
 4    1  0.5119137E-019  0.1490596E+02  0.7818608E-02  0.1870952E+00
          2   -1    0    0  501    0  0.00000000000E+00  0.00000000000E+00  0.11945427929E+03  0.11945427932E+03  0.25500000000E-02 0.  1.
         -2   -1    0    0    0  501 -0.00000000000E+00 -0.00000000000E+00 -0.46500222436E+00  0.46500921620E+00  0.25500000000E-02 0. -1.
         31    1    1    2    0    0 -0.25649976511E+00 -0.98706901130E-01  0.60392850187E+02  0.60850890010E+02  0.74470750000E+01 0. -1.
        -31    1    1    2    0    0  0.25649976511E+00  0.98706901130E-01  0.58596426878E+02  0.59068398523E+02  0.74470750000E+01 0. -1.
<mgrwt>
<rscale>  0 0.14905962E+02</rscale>
<asrwt>0</asrwt>
<pdfrwt beam="1">  1        2 0.99157658E+00 0.14905962E+02</pdfrwt>
<pdfrwt beam="2">  1       -2 0.98763881E+00 0.14905962E+02</pdfrwt>
<totfact> 0.24041135E-13</totfact>
</mgrwt>
</event>
<event>
 4    1 -0.5119137E-019  0.1496976E+02  0.7818608E-02  0.1868993E+00
         -2   -1    0    0    0  501 -0.00000000000E+00  0.00000000000E+00  0.11941236539E+03  0.11941236542E+03  0.25500000000E-02 0. -1.
          2   -1    0    0  501    0  0.00000000000E+00 -0.00000000000E+00 -0.46915588758E+00  0.46916281753E+00  0.25500000000E-02 0.  1.
         31    1    1    2    0    0 -0.56822464878E+00 -0.69410105312E-01  0.55574556260E+02  0.56074218020E+02  0.74470750000E+01 0.  1.
        -31    1    1    2    0    0  0.56822464878E+00  0.69410105312E-01  0.63368653241E+02  0.63807310213E+02  0.74470750000E+01 0.  1.
<mgrwt>
<rscale>  0 0.14969760E+02</rscale>
<asrwt>0</asrwt>
<pdfrwt beam="2">  1        2 0.99642495E+00 0.14969760E+02</pdfrwt>
<pdfrwt beam="1">  1       -2 0.99126435E+00 0.14969760E+02</pdfrwt>
<totfact>-0.43645290E-14</totfact>
</mgrwt>
</event>
<event>
 4    1  0.5119137E-019  0.1489838E+02  0.7818608E-02  0.1871185E+00
          2   -1    0    0  501    0  0.00000000000E+00  0.00000000000E+00  0.11975518257E+03  0.11975518260E+03  0.25500000000E-02 0.  1.
         -2   -1    0    0    0  501 -0.00000000000E+00 -0.00000000000E+00 -0.46336221354E+00  0.46336923014E+00  0.25500000000E-02 0. -1.
         31    1    1    2    0    0 -0.13987648602E+00 -0.10903298803E+00  0.59713516310E+02  0.60176360888E+02  0.74470750000E+01 0. -1.
        -31    1    1    2    0    0  0.13987648602E+00  0.10903298803E+00  0.59578304050E+02  0.60042190943E+02  0.74470750000E+01 0.  1.
<mgrwt>
<rscale>  0 0.14898382E+02</rscale>
<asrwt>0</asrwt>
<pdfrwt beam="1">  1        2 0.99405110E+00 0.14898382E+02</pdfrwt>
<pdfrwt beam="2">  1       -2 0.98417859E+00 0.14898382E+02</pdfrwt>
<totfact> 0.65817692E-13</totfact>
</mgrwt>
</event>
<event>
 4    1 -0.5119137E-019  0.1490770E+02  0.7818608E-02  0.1870898E+00
          2   -1    0    0  501    0  0.00000000000E+00  0.00000000000E+00  0.11889618468E+03  0.11889618471E+03  0.25500000000E-02 0. -1.
         -2   -1    0    0    0  501 -0.00000000000E+00 -0.00000000000E+00 -0.46729373890E+00  0.46730069646E+00  0.25500000000E-02 0.  1.
         31    1    1    2    0    0  0.11411111868E+00  0.86969806324E-01  0.56944844297E+02  0.57429912094E+02  0.74470750000E+01 0.  1.
        -31    1    1    2    0    0 -0.11411111868E+00 -0.86969806324E-01  0.61484046647E+02  0.61933573312E+02  0.74470750000E+01 0. -1.
<mgrwt>
<rscale>  0 0.14907697E+02</rscale>
<asrwt>0</asrwt>
<pdfrwt beam="1">  1        2 0.98698081E+00 0.14907697E+02</pdfrwt>
<pdfrwt beam="2">  1       -2 0.99246867E+00 0.14907697E+02</pdfrwt>
<totfact>-0.19740021E-13</totfact>
</mgrwt>
</event>
<event>
 4    1 -0.5119137E-019  0.1490357E+02  0.7818608E-02  0.1871025E+00
          2   -1    0    0  501    0  0.00000000000E+00  0.00000000000E+00  0.11839388356E+03  0.11839388358E+03  0.25500000000E-02 0. -1.
         -2   -1    0    0    0  501 -0.00000000000E+00 -0.00000000000E+00 -0.46901636655E+00  0.46902329856E+00  0.25500000000E-02 0.  1.
         31    1    1    2    0    0 -0.39888574878E-02  0.16008214311E+00  0.57279734130E+02  0.57762033467E+02  0.74470750000E+01 0.  1.
        -31    1    1    2    0    0  0.39888574878E-02 -0.16008214311E+00  0.60645133060E+02  0.61100873416E+02  0.74470750000E+01 0. -1.
<mgrwt>
<rscale>  0 0.14903568E+02</rscale>
<asrwt>0</asrwt>
<pdfrwt beam="1">  1        2 0.98284168E+00 0.14903568E+02</pdfrwt>
<pdfrwt beam="2">  1       -2 0.99609626E+00 0.14903568E+02</pdfrwt>
<totfact>-0.46175891E-13</totfact>
</mgrwt>
</event>
<event>
 4    1  0.5119137E-019  0.1491359E+02  0.7818608E-02  0.1870717E+00
         -2   -1    0    0    0  501 -0.00000000000E+00  0.00000000000E+00  0.11839982922E+03  0.11839982924E+03  0.25500000000E-02 0. -1.
          2   -1    0    0  501    0  0.00000000000E+00 -0.00000000000E+00 -0.46962398221E+00  0.46963090525E+00  0.25500000000E-02 0.  1.
         31    1    1    2    0    0  0.42388613448E-01 -0.10757790642E+00  0.61855637329E+02  0.62302425035E+02  0.74470750000E+01 0. -1.
        -31    1    1    2    0    0 -0.42388613448E-01  0.10757790642E+00  0.56074567905E+02  0.56567035114E+02  0.74470750000E+01 0.  1.
<mgrwt>
<rscale>  0 0.14913593E+02</rscale>
<asrwt>0</asrwt>
<pdfrwt beam="2">  1        2 0.99738179E+00 0.14913593E+02</pdfrwt>
<pdfrwt beam="1">  1       -2 0.98289587E+00 0.14913593E+02</pdfrwt>
<totfact> 0.54721583E-13</totfact>
</mgrwt>
</event>
<event>
 4    1 -0.5119137E-019  0.1500131E+02  0.7818608E-02  0.1868029E+00
          2   -1    0    0  501    0  0.00000000000E+00  0.00000000000E+00  0.11985077740E+03  0.11985077743E+03  0.25500000000E-02 0. -1.
         -2   -1    0    0    0  501 -0.00000000000E+00 -0.00000000000E+00 -0.46941216021E+00  0.46941908637E+00  0.25500000000E-02 0.  1.
         31    1    1    2    0    0 -0.75059849807E+00 -0.45167282118E+00  0.58222704300E+02  0.58703574239E+02  0.74470750000E+01 0.  1.
        -31    1    1    2    0    0  0.75059849807E+00  0.45167282118E+00  0.61158660941E+02  0.61616622275E+02  0.74470750000E+01 0.  1.
<mgrwt>
<rscale>  0 0.15001311E+02</rscale>
<asrwt>0</asrwt>
<pdfrwt beam="1">  1        2 0.99489157E+00 0.15001311E+02</pdfrwt>
<pdfrwt beam="2">  1       -2 0.99698137E+00 0.15001311E+02</pdfrwt>
<totfact>-0.97019716E-14</totfact>
</mgrwt>
</event>
<event>
 4    1 -0.5119137E-019  0.1499308E+02  0.7818608E-02  0.1868280E+00
         -2   -1    0    0    0  501 -0.00000000000E+00  0.00000000000E+00  0.11964045477E+03  0.11964045479E+03  0.25500000000E-02 0. -1.
          2   -1    0    0  501    0  0.00000000000E+00 -0.00000000000E+00 -0.46972119699E+00  0.46972811860E+00  0.25500000000E-02 0.  1.
         31    1    1    2    0    0  0.41092264457E+00  0.75514645984E+00  0.59531459840E+02  0.60001606148E+02  0.74470750000E+01 0. -1.
        -31    1    1    2    0    0 -0.41092264457E+00 -0.75514645984E+00  0.59639273729E+02  0.60108576764E+02  0.74470750000E+01 0. -1.
<mgrwt>
<rscale>  0 0.14993075E+02</rscale>
<asrwt>0</asrwt>
<pdfrwt beam="2">  1        2 0.99762832E+00 0.14993075E+02</pdfrwt>
<pdfrwt beam="1">  1       -2 0.99315503E+00 0.14993075E+02</pdfrwt>
<totfact>-0.66420728E-14</totfact>
</mgrwt>
</event>
<event>
 4    1 -0.5119137E-019  0.1490867E+02  0.7818608E-02  0.1870868E+00
          2   -1    0    0  501    0  0.00000000000E+00  0.00000000000E+00  0.11873827890E+03  0.11873827893E+03  0.25500000000E-02 0. -1.
         -2   -1    0    0    0  501 -0.00000000000E+00 -0.00000000000E+00 -0.46797616374E+00  0.46798311116E+00  0.25500000000E-02 0.  1.
         31    1    1    2    0    0  0.26305955373E+00 -0.17481355522E+00  0.58401725137E+02  0.58875463354E+02  0.74470750000E+01 0. -1.
        -31    1    1    2    0    0 -0.26305955373E+00  0.17481355522E+00  0.59868577599E+02  0.60330798685E+02  0.74470750000E+01 0.  1.
<mgrwt>
<rscale>  0 0.14908669E+02</rscale>
<asrwt>0</asrwt>
<pdfrwt beam="1">  1        2 0.98568078E+00 0.14908669E+02</pdfrwt>
<pdfrwt beam="2">  1       -2 0.99390716E+00 0.14908669E+02</pdfrwt>
<totfact>-0.30282143E-13</totfact>
</mgrwt>
</event>
<event>
 4    1  0.5119137E-019  0.1493125E+02  0.7818608E-02  0.1870174E+00
          2   -1    0    0  501    0  0.00000000000E+00  0.00000000000E+00  0.11993136145E+03  0.11993136148E+03  0.25500000000E-02 0. -1.
         -2   -1    0    0    0  501 -0.00000000000E+00 -0.00000000000E+00 -0.46472544030E+00  0.46473243631E+00  0.25500000000E-02 0.  1.
         31    1    1    2    0    0 -0.29489603439E+00 -0.42000887595E+00  0.60662543095E+02  0.61120098428E+02  0.74470750000E+01 0.  1.
        -31    1    1    2    0    0  0.29489603439E+00  0.42000887595E+00  0.58804092916E+02  0.59275995486E+02  0.74470750000E+01 0. -1.
<mgrwt>
<rscale>  0 0.14931253E+02</rscale>
<asrwt>0</asrwt>
<pdfrwt beam="1">  1        2 0.99551914E+00 0.14931253E+02</pdfrwt>
<pdfrwt beam="2">  1       -2 0.98706844E+00 0.14931253E+02</pdfrwt>
<totfact> 0.22527079E-13</totfact>
</mgrwt>
</event>
<event>
 4    1  0.5119137E-019  0.1492087E+02  0.7818608E-02  0.1870493E+00
         -2   -1    0    0    0  501 -0.00000000000E+00  0.00000000000E+00  0.11859450812E+03  0.11859450815E+03  0.25500000000E-02 0. -1.
          2   -1    0    0  501    0  0.00000000000E+00 -0.00000000000E+00 -0.46931063896E+00  0.46931756663E+00  0.25500000000E-02 0.  1.
         31    1    1    2    0    0 -0.36708902353E+00  0.60085087108E-01  0.57095192792E+02  0.57580016764E+02  0.74470750000E+01 0. -1.
        -31    1    1    2    0    0  0.36708902353E+00 -0.60085087108E-01  0.61030004693E+02  0.61483808953E+02  0.74470750000E+01 0. -1.
<mgrwt>
<rscale>  0 0.14920868E+02</rscale>
<asrwt>0</asrwt>
<pdfrwt beam="2">  1        2 0.99672542E+00 0.14920868E+02</pdfrwt>
<pdfrwt beam="1">  1       -2 0.98450302E+00 0.14920868E+02</pdfrwt>
<totfact> 0.43429961E-13</totfact>
</mgrwt>
</event>
<event>
 4    1 -0.5119137E-019  0.1494836E+02  0.7818608E-02  0.1869648E+00
          2   -1    0    0  501    0  0.00000000000E+00  0.00000000000E+00  0.11874887104E+03  0.11874887107E+03  0.25500000000E-02 0. -1.
         -2   -1    0    0    0  501 -0.00000000000E+00 -0.00000000000E+00 -0.47042923101E+00  0.47043614220E+00  0.25500000000E-02 0.  1.
         31    1    1    2    0    0  0.17923525673E+00  0.45903720610E+00  0.62345169679E+02  0.62790301391E+02  0.74470750000E+01 0. -1.
        -31    1    1    2    0    0 -0.17923525673E+00 -0.45903720610E+00  0.55933272132E+02  0.56429005820E+02  0.74470750000E+01 0.  1.
<mgrwt>
<rscale>  0 0.14948358E+02</rscale>
<asrwt>0</asrwt>
<pdfrwt beam="1">  1        2 0.98578865E+00 0.14948358E+02</pdfrwt>
<pdfrwt beam="2">  1       -2 0.99909680E+00 0.14948358E+02</pdfrwt>
<totfact>-0.90621054E-14</totfact>
</mgrwt>
</event>
<event>
 4    1 -0.5119137E-019  0.1492084E+02  0.7818608E-02  0.1870494E+00
          2   -1    0    0  501    0  0.00000000000E+00  0.00000000000E+00  0.11856896328E+03  0.11856896330E+03  0.25500000000E-02 0.  1.
         -2   -1    0    0    0  501 -0.00000000000E+00 -0.00000000000E+00 -0.46941019510E+00  0.46941712129E+00  0.25500000000E-02 0. -1.
         31    1    1    2    0    0 -0.34870625698E-01  0.15998596349E+00  0.62359985286E+02  0.62803292130E+02  0.74470750000E+01 0.  1.
        -31    1    1    2    0    0  0.34870625698E-01 -0.15998596349E+00  0.55739567794E+02  0.56235088294E+02  0.74470750000E+01 0. -1.
<mgrwt>
<rscale>  0 0.14920844E+02</rscale>
<asrwt>0</asrwt>
<pdfrwt beam="1">  1        2 0.98429262E+00 0.14920844E+02</pdfrwt>
<pdfrwt beam="2">  1       -2 0.99693517E+00 0.14920844E+02</pdfrwt>
<totfact>-0.31656050E-13</totfact>
</mgrwt>
</event>
<event>
 4    1 -0.5119137E-019  0.1497640E+02  0.7818608E-02  0.1868790E+00
          2   -1    0    0  501    0  0.00000000000E+00  0.00000000000E+00  0.11963693941E+03  0.11963693943E+03  0.25500000000E-02 0. -1.
         -2   -1    0    0    0  501 -0.00000000000E+00 -0.00000000000E+00 -0.46869053844E+00  0.46869747527E+00  0.25500000000E-02 0.  1.
         31    1    1    2    0    0  0.66130719397E+00  0.39802623978E+00  0.60673193515E+02  0.61133387682E+02  0.74470750000E+01 0.  1.
        -31    1    1    2    0    0 -0.66130719397E+00 -0.39802623978E+00  0.58495055354E+02  0.58972249228E+02  0.74470750000E+01 0.  1.
<mgrwt>
<rscale>  0 0.14976397E+02</rscale>
<asrwt>0</asrwt>
<pdfrwt beam="1">  1        2 0.99311744E+00 0.14976397E+02</pdfrwt>
<pdfrwt beam="2">  1       -2 0.99544779E+00 0.14976397E+02</pdfrwt>
<totfact>-0.13718148E-13</totfact>
</mgrwt>
</event>
<event>
 4    1  0.5119137E-019  0.1494035E+02  0.7818608E-02  0.1869894E+00
          2   -1    0    0  501    0  0.00000000000E+00  0.00000000000E+00  0.12030093076E+03  0.12030093079E+03  0.25500000000E-02 0. -1.
         -2   -1    0    0    0  501 -0.00000000000E+00 -0.00000000000E+00 -0.46386279843E+00  0.46386980746E+00  0.25500000000E-02 0.  1.
         31    1    1    2    0    0  0.54987514228E+00  0.16281572865E+00  0.58903994793E+02  0.59375654946E+02  0.74470750000E+01 0.  1.
        -31    1    1    2    0    0 -0.54987514228E+00 -0.16281572865E+00  0.60933073170E+02  0.61389145650E+02  0.74470750000E+01 0. -1.
<mgrwt>
<rscale>  0 0.14940355E+02</rscale>
<asrwt>0</asrwt>
<pdfrwt beam="1">  1        2 0.99856787E+00 0.14940355E+02</pdfrwt>
<pdfrwt beam="2">  1       -2 0.98525495E+00 0.14940355E+02</pdfrwt>
<totfact> 0.18866270E-13</totfact>
</mgrwt>
</event>
<event>
 4    1  0.5119137E-019  0.1492712E+02  0.7818608E-02  0.1870301E+00
          2   -1    0    0  501    0  0.00000000000E+00  0.00000000000E+00  0.12043275418E+03  0.12043275420E+03  0.25500000000E-02 0. -1.
         -2   -1    0    0    0  501 -0.00000000000E+00 -0.00000000000E+00 -0.46253461395E+00  0.46254164310E+00  0.25500000000E-02 0.  1.
         31    1    1    2    0    0  0.15705850199E-01 -0.42678671257E+00  0.62024786602E+02  0.62471717382E+02  0.74470750000E+01 0.  1.
        -31    1    1    2    0    0 -0.15705850199E-01  0.42678671257E+00  0.57945432960E+02  0.58423578464E+02  0.74470750000E+01 0. -1.
<mgrwt>
<rscale>  0 0.14927122E+02</rscale>
<asrwt>0</asrwt>
<pdfrwt beam="1">  1        2 0.99964689E+00 0.14927122E+02</pdfrwt>
<pdfrwt beam="2">  1       -2 0.98244882E+00 0.14927122E+02</pdfrwt>
<totfact> 0.10425065E-13</totfact>
</mgrwt>
</event>
<event>
 4    1  0.5119137E-019  0.1495154E+02  0.7818608E-02  0.1869551E+00
          2   -1    0    0  501    0  0.00000000000E+00  0.00000000000E+00  0.12035770258E+03  0.12035770260E+03  0.25500000000E-02 0. -1.
         -2   -1    0    0    0  501 -0.00000000000E+00 -0.00000000000E+00 -0.46433866457E+00  0.46434566642E+00  0.25500000000E-02 0.  1.
         31    1    1    2    0    0 -0.25083859108E+00  0.59329403538E+00  0.60879165546E+02  0.61336340300E+02  0.74470750000E+01 0.  1.
        -31    1    1    2    0    0  0.25083859108E+00 -0.59329403538E+00  0.59014198367E+02  0.59485707971E+02  0.74470750000E+01 0. -1.
<mgrwt>
<rscale>  0 0.14951543E+02</rscale>
<asrwt>0</asrwt>
<pdfrwt beam="1">  1        2 0.99904123E+00 0.14951543E+02</pdfrwt>
<pdfrwt beam="2">  1       -2 0.98626359E+00 0.14951543E+02</pdfrwt>
<totfact> 0.96269123E-14</totfact>
</mgrwt>
</event>
<event>
 4    1 -0.5119137E-019  0.1492848E+02  0.7818608E-02  0.1870259E+00
          2   -1    0    0  501    0  0.00000000000E+00  0.00000000000E+00  0.11858178981E+03  0.11858178984E+03  0.25500000000E-02 0. -1.
         -2   -1    0    0    0  501 -0.00000000000E+00 -0.00000000000E+00 -0.46984000242E+00  0.46984692227E+00  0.25500000000E-02 0.  1.
         31    1    1    2    0    0  0.34538117059E+00 -0.35164403827E+00  0.58146210861E+02  0.58623235199E+02  0.74470750000E+01 0.  1.
        -31    1    1    2    0    0 -0.34538117059E+00  0.35164403827E+00  0.59965738948E+02  0.60428401562E+02  0.74470750000E+01 0. -1.
<mgrwt>
<rscale>  0 0.14928480E+02</rscale>
<asrwt>0</asrwt>
<pdfrwt beam="1">  1        2 0.98440223E+00 0.14928480E+02</pdfrwt>
<pdfrwt beam="2">  1       -2 0.99784481E+00 0.14928480E+02</pdfrwt>
<totfact>-0.24141255E-13</totfact>
</mgrwt>
</event>
<event>
 4    1 -0.5119137E-019  0.1492111E+02  0.7818608E-02  0.1870485E+00
          2   -1    0    0  501    0  0.00000000000E+00  0.00000000000E+00  0.11856585932E+03  0.11856585935E+03  0.25500000000E-02 0. -1.
         -2   -1    0    0    0  501 -0.00000000000E+00 -0.00000000000E+00 -0.46943953929E+00  0.46944646505E+00  0.25500000000E-02 0.  1.
         31    1    1    2    0    0  0.10853089814E+00 -0.29624691598E+00  0.61589172870E+02  0.62038574146E+02  0.74470750000E+01 0. -1.
        -31    1    1    2    0    0 -0.10853089814E+00  0.29624691598E+00  0.56507246915E+02  0.56996731671E+02  0.74470750000E+01 0.  1.
<mgrwt>
<rscale>  0 0.14921115E+02</rscale>
<asrwt>0</asrwt>
<pdfrwt beam="1">  1        2 0.98426719E+00 0.14921115E+02</pdfrwt>
<pdfrwt beam="2">  1       -2 0.99699714E+00 0.14921115E+02</pdfrwt>
<totfact>-0.31375263E-13</totfact>
</mgrwt>
</event>
<event>
 4    1 -0.5119137E-019  0.1489921E+02  0.7818608E-02  0.1871160E+00
          2   -1    0    0  501    0  0.00000000000E+00  0.00000000000E+00  0.11857570292E+03  0.11857570295E+03  0.25500000000E-02 0. -1.
         -2   -1    0    0    0  501 -0.00000000000E+00 -0.00000000000E+00 -0.46802354655E+00  0.46803049327E+00  0.25500000000E-02 0.  1.
         31    1    1    2    0    0  0.85854154015E-01  0.15363340725E+00  0.59709594526E+02  0.60172465286E+02  0.74470750000E+01 0. -1.
        -31    1    1    2    0    0 -0.85854154015E-01 -0.15363340725E+00  0.58398084850E+02  0.58871268157E+02  0.74470750000E+01 0.  1.
<mgrwt>
<rscale>  0 0.14899213E+02</rscale>
<asrwt>0</asrwt>
<pdfrwt beam="1">  1        2 0.98433688E+00 0.14899213E+02</pdfrwt>
<pdfrwt beam="2">  1       -2 0.99400205E+00 0.14899213E+02</pdfrwt>
<totfact>-0.37885782E-13</totfact>
</mgrwt>
</event>
<event>
 4    1 -0.5119137E-019  0.1496558E+02  0.7818608E-02  0.1869121E+00
         -2   -1    0    0    0  501 -0.00000000000E+00  0.00000000000E+00  0.11965615941E+03  0.11965615944E+03  0.25500000000E-02 0. -1.
          2   -1    0    0  501    0  0.00000000000E+00 -0.00000000000E+00 -0.46793876582E+00  0.46794571379E+00  0.25500000000E-02 0.  1.
         31    1    1    2    0    0  0.45911527001E+00 -0.54247383103E+00  0.58246588120E+02  0.58725028892E+02  0.74470750000E+01 0. -1.
        -31    1    1    2    0    0 -0.45911527001E+00  0.54247383103E+00  0.60941632527E+02  0.61399076261E+02  0.74470750000E+01 0.  1.
<mgrwt>
<rscale>  0 0.14965584E+02</rscale>
<asrwt>0</asrwt>
<pdfrwt beam="2">  1        2 0.99385797E+00 0.14965584E+02</pdfrwt>
<pdfrwt beam="1">  1       -2 0.99327015E+00 0.14965584E+02</pdfrwt>
<totfact>-0.11978415E-13</totfact>
</mgrwt>
</event>
<event>
 4    1  0.5119137E-019  0.1490973E+02  0.7818608E-02  0.1870836E+00
         -2   -1    0    0    0  501 -0.00000000000E+00  0.00000000000E+00  0.11835367974E+03  0.11835367976E+03  0.25500000000E-02 0. -1.
          2   -1    0    0  501    0  0.00000000000E+00 -0.00000000000E+00 -0.46956351073E+00  0.46957043466E+00  0.25500000000E-02 0.  1.
         31    1    1    2    0    0 -0.25103453901E+00 -0.14920344552E+00  0.60340163587E+02  0.60798680477E+02  0.74470750000E+01 0. -1.
        -31    1    1    2    0    0  0.25103453901E+00  0.14920344552E+00  0.57543952638E+02  0.58024569721E+02  0.74470750000E+01 0.  1.
<mgrwt>
<rscale>  0 0.14909726E+02</rscale>
<asrwt>0</asrwt>
<pdfrwt beam="2">  1        2 0.99725234E+00 0.14909726E+02</pdfrwt>
<pdfrwt beam="1">  1       -2 0.98251377E+00 0.14909726E+02</pdfrwt>
<totfact> 0.61423706E-13</totfact>
</mgrwt>
</event>
<event>
 4    1 -0.5119137E-019  0.1496077E+02  0.7818608E-02  0.1869268E+00
         -2   -1    0    0    0  501 -0.00000000000E+00  0.00000000000E+00  0.11971587324E+03  0.11971587327E+03  0.25500000000E-02 0.  1.
          2   -1    0    0  501    0  0.00000000000E+00 -0.00000000000E+00 -0.46740436965E+00  0.46741132556E+00  0.25500000000E-02 0. -1.
         31    1    1    2    0    0  0.56662381101E+00  0.65042139789E-04  0.62995830768E+02  0.63437013507E+02  0.74470750000E+01 0.  1.
        -31    1    1    2    0    0 -0.56662381101E+00 -0.65042139789E-04  0.56252638105E+02  0.56746271088E+02  0.74470750000E+01 0.  1.
<mgrwt>
<rscale>  0 0.14960768E+02</rscale>
<asrwt>0</asrwt>
<pdfrwt beam="2">  1        2 0.99272932E+00 0.14960768E+02</pdfrwt>
<pdfrwt beam="1">  1       -2 0.99375948E+00 0.14960768E+02</pdfrwt>
<totfact>-0.13790853E-13</totfact>
</mgrwt>
</event>
<event>
 4    1 -0.5119137E-019  0.1497749E+02  0.7818608E-02  0.1868756E+00
         -2   -1    0    0    0  501 -0.00000000000E+00  0.00000000000E+00  0.11958930963E+03  0.11958930966E+03  0.25500000000E-02 0. -1.
          2   -1    0    0  501    0  0.00000000000E+00 -0.00000000000E+00 -0.46894561670E+00  0.46895254976E+00  0.25500000000E-02 0.  1.
         31    1    1    2    0    0 -0.12211377548E+00  0.62050299747E+00  0.55779605151E+02  0.56278088211E+02  0.74470750000E+01 0. -1.
        -31    1    1    2    0    0  0.12211377548E+00 -0.62050299747E+00  0.63340758865E+02  0.63780174000E+02  0.74470750000E+01 0. -1.
<mgrwt>
<rscale>  0 0.14977490E+02</rscale>
<asrwt>0</asrwt>
<pdfrwt beam="2">  1        2 0.99598588E+00 0.14977490E+02</pdfrwt>
<pdfrwt beam="1">  1       -2 0.99272571E+00 0.14977490E+02</pdfrwt>
<totfact>-0.86784078E-14</totfact>
</mgrwt>
</event>
<event>
 4    1 -0.5119137E-019  0.1489474E+02  0.7818608E-02  0.1871298E+00
          2   -1    0    0  501    0  0.00000000000E+00  0.00000000000E+00  0.11832034116E+03  0.11832034119E+03  0.25500000000E-02 0. -1.
         -2   -1    0    0    0  501 -0.00000000000E+00 -0.00000000000E+00 -0.46875189200E+00  0.46875882792E+00  0.25500000000E-02 0.  1.
         31    1    1    2    0    0  0.57784229490E-01  0.31874077276E-01  0.58958032219E+02  0.59426533167E+02  0.74470750000E+01 0. -1.
        -31    1    1    2    0    0 -0.57784229490E-01 -0.31874077276E-01  0.58893557050E+02  0.59362566850E+02  0.74470750000E+01 0. -1.
<mgrwt>
<rscale>  0 0.14894737E+02</rscale>
<asrwt>0</asrwt>
<pdfrwt beam="1">  1        2 0.98223139E+00 0.14894737E+02</pdfrwt>
<pdfrwt beam="2">  1       -2 0.99553435E+00 0.14894737E+02</pdfrwt>
<totfact>-0.53874831E-13</totfact>
</mgrwt>
</event>
<event>
 4    1 -0.5119137E-019  0.1499881E+02  0.7818608E-02  0.1868105E+00
          2   -1    0    0  501    0  0.00000000000E+00  0.00000000000E+00  0.11960752033E+03  0.11960752036E+03  0.25500000000E-02 0. -1.
         -2   -1    0    0    0  501 -0.00000000000E+00 -0.00000000000E+00 -0.47020974564E+00  0.47021666006E+00  0.25500000000E-02 0.  1.
         31    1    1    2    0    0 -0.67118017342E+00  0.57401873127E+00  0.59938320820E+02  0.60405638885E+02  0.74470750000E+01 0. -1.
        -31    1    1    2    0    0  0.67118017342E+00 -0.57401873127E+00  0.59198989767E+02  0.59672098135E+02  0.74470750000E+01 0.  1.
<mgrwt>
<rscale>  0 0.14998805E+02</rscale>
<asrwt>0</asrwt>
<pdfrwt beam="1">  1        2 0.99288674E+00 0.14998805E+02</pdfrwt>
<pdfrwt beam="2">  1       -2 0.99866078E+00 0.14998805E+02</pdfrwt>
<totfact>-0.60100064E-14</totfact>
</mgrwt>
</event>
<event>
 4    1  0.5119137E-019  0.1491665E+02  0.7818608E-02  0.1870623E+00
          2   -1    0    0  501    0  0.00000000000E+00  0.00000000000E+00  0.12006187604E+03  0.12006187607E+03  0.25500000000E-02 0. -1.
         -2   -1    0    0    0  501 -0.00000000000E+00 -0.00000000000E+00 -0.46331268827E+00  0.46331970562E+00  0.25500000000E-02 0.  1.
         31    1    1    2    0    0  0.13038531087E+00  0.42037538200E-01  0.56681215941E+02  0.57168504739E+02  0.74470750000E+01 0.  1.
        -31    1    1    2    0    0 -0.13038531087E+00 -0.42037538200E-01  0.62917347409E+02  0.63356691032E+02  0.74470750000E+01 0. -1.
<mgrwt>
<rscale>  0 0.14916650E+02</rscale>
<asrwt>0</asrwt>
<pdfrwt beam="1">  1        2 0.99658665E+00 0.14916650E+02</pdfrwt>
<pdfrwt beam="2">  1       -2 0.98408349E+00 0.14916650E+02</pdfrwt>
<totfact> 0.49659929E-13</totfact>
</mgrwt>
</event>
<event>
 4    1  0.5119137E-019  0.1490082E+02  0.7818608E-02  0.1871110E+00
         -2   -1    0    0    0  501 -0.00000000000E+00  0.00000000000E+00  0.11798726107E+03  0.11798726110E+03  0.25500000000E-02 0.  1.
          2   -1    0    0  501    0  0.00000000000E+00 -0.00000000000E+00 -0.47045924881E+00  0.47046615956E+00  0.25500000000E-02 0. -1.
         31    1    1    2    0    0 -0.13806371639E+00 -0.11396077695E+00  0.59814085758E+02  0.60276163031E+02  0.74470750000E+01 0.  1.
        -31    1    1    2    0    0  0.13806371639E+00  0.11396077695E+00  0.57702716068E+02  0.58181564231E+02  0.74470750000E+01 0. -1.
<mgrwt>
<rscale>  0 0.14900820E+02</rscale>
<asrwt>0</asrwt>
<pdfrwt beam="2">  1        2 0.99913485E+00 0.14900820E+02</pdfrwt>
<pdfrwt beam="1">  1       -2 0.97949137E+00 0.14900820E+02</pdfrwt>
<totfact> 0.41455939E-13</totfact>
</mgrwt>
</event>
<event>
 4    1 -0.5119137E-019  0.1490053E+02  0.7818608E-02  0.1871119E+00
          2   -1    0    0  501    0  0.00000000000E+00  0.00000000000E+00  0.11799356422E+03  0.11799356425E+03  0.25500000000E-02 0. -1.
         -2   -1    0    0    0  501 -0.00000000000E+00 -0.00000000000E+00 -0.47041582401E+00  0.47042273540E+00  0.25500000000E-02 0.  1.
         31    1    1    2    0    0  0.14444929989E+00  0.14707060246E+00  0.59325393213E+02  0.59791334667E+02  0.74470750000E+01 0. -1.
        -31    1    1    2    0    0 -0.14444929989E+00 -0.14707060246E+00  0.58197755184E+02  0.58672652317E+02  0.74470750000E+01 0.  1.
<mgrwt>
<rscale>  0 0.14900530E+02</rscale>
<asrwt>0</asrwt>
<pdfrwt beam="1">  1        2 0.97954313E+00 0.14900530E+02</pdfrwt>
<pdfrwt beam="2">  1       -2 0.99904321E+00 0.14900530E+02</pdfrwt>
<totfact>-0.26913404E-13</totfact>
</mgrwt>
</event>
<event>
 4    1 -0.5119137E-019  0.1502360E+02  0.7818608E-02  0.1867349E+00
          2   -1    0    0  501    0  0.00000000000E+00  0.00000000000E+00  0.11993569872E+03  0.11993569875E+03  0.25500000000E-02 0.  1.
         -2   -1    0    0    0  501 -0.00000000000E+00 -0.00000000000E+00 -0.47047487260E+00  0.47048178312E+00  0.25500000000E-02 0. -1.
         31    1    1    2    0    0 -0.62749030327E-01  0.97984537300E+00  0.59213846619E+02  0.59688379035E+02  0.74470750000E+01 0.  1.
        -31    1    1    2    0    0  0.62749030327E-01 -0.97984537300E+00  0.60251377231E+02  0.60717801497E+02  0.74470750000E+01 0. -1.
<mgrwt>
<rscale>  0 0.15023601E+02</rscale>
<asrwt>0</asrwt>
<pdfrwt beam="1">  1        2 0.99560254E+00 0.15023601E+02</pdfrwt>
<pdfrwt beam="2">  1       -2 0.99923237E+00 0.15023601E+02</pdfrwt>
<totfact>-0.28342006E-14</totfact>
</mgrwt>
</event>
<event>
 4    1 -0.5119137E-019  0.1496115E+02  0.7818608E-02  0.1869256E+00
         -2   -1    0    0    0  501 -0.00000000000E+00  0.00000000000E+00  0.12019367169E+03  0.12019367172E+03  0.25500000000E-02 0. -1.
          2   -1    0    0  501    0  0.00000000000E+00 -0.00000000000E+00 -0.46556979591E+00  0.46557677923E+00  0.25500000000E-02 0.  1.
         31    1    1    2    0    0  0.43318678521E+00  0.25119084621E+00  0.55837341102E+02  0.56333989163E+02  0.74470750000E+01 0.  1.
        -31    1    1    2    0    0 -0.43318678521E+00 -0.25119084621E+00  0.63890760792E+02  0.64325259333E+02  0.74470750000E+01 0. -1.
<mgrwt>
<rscale>  0 0.14961145E+02</rscale>
<asrwt>0</asrwt>
<pdfrwt beam="2">  1        2 0.98886322E+00 0.14961145E+02</pdfrwt>
<pdfrwt beam="1">  1       -2 0.99769509E+00 0.14961145E+02</pdfrwt>
<totfact>-0.13359253E-13</totfact>
</mgrwt>
</event>
<event>
 4    1 -0.5119137E-019  0.1491073E+02  0.7818608E-02  0.1870805E+00
         -2   -1    0    0    0  501 -0.00000000000E+00  0.00000000000E+00  0.11994348690E+03  0.11994348693E+03  0.25500000000E-02 0. -1.
          2   -1    0    0  501    0  0.00000000000E+00 -0.00000000000E+00 -0.46340172221E+00  0.46340873820E+00  0.25500000000E-02 0.  1.
         31    1    1    2    0    0  0.23707735936E+00  0.25653270681E+00  0.59427119374E+02  0.59892933288E+02  0.74470750000E+01 0.  1.
        -31    1    1    2    0    0 -0.23707735936E+00 -0.25653270681E+00  0.60052965803E+02  0.60513962377E+02  0.74470750000E+01 0. -1.
<mgrwt>
<rscale>  0 0.14910727E+02</rscale>
<asrwt>0</asrwt>
<pdfrwt beam="2">  1        2 0.98426813E+00 0.14910727E+02</pdfrwt>
<pdfrwt beam="1">  1       -2 0.99560846E+00 0.14910727E+02</pdfrwt>
<totfact>-0.38044776E-13</totfact>
</mgrwt>
</event>
<event>
 4    1 -0.5119137E-019  0.1496729E+02  0.7818608E-02  0.1869068E+00
         -2   -1    0    0    0  501 -0.00000000000E+00  0.00000000000E+00  0.12021406512E+03  0.12021406515E+03  0.25500000000E-02 0.  1.
          2   -1    0    0  501    0  0.00000000000E+00 -0.00000000000E+00 -0.46587321237E+00  0.46588019114E+00  0.25500000000E-02 0. -1.
         31    1    1    2    0    0  0.36553542334E+00 -0.33003971315E+00  0.55432411523E+02  0.55932581879E+02  0.74470750000E+01 0. -1.
        -31    1    1    2    0    0 -0.36553542334E+00  0.33003971315E+00  0.64315780387E+02  0.64747363462E+02  0.74470750000E+01 0.  1.
<mgrwt>
<rscale>  0 0.14967289E+02</rscale>
<asrwt>0</asrwt>
<pdfrwt beam="2">  1        2 0.98950582E+00 0.14967289E+02</pdfrwt>
<pdfrwt beam="1">  1       -2 0.99786622E+00 0.14967289E+02</pdfrwt>
<totfact>-0.11737480E-13</totfact>
</mgrwt>
</event>
<event>
 4    1 -0.5119137E-019  0.1492959E+02  0.7818608E-02  0.1870225E+00
          2   -1    0    0  501    0  0.00000000000E+00  0.00000000000E+00  0.11850562376E+03  0.11850562378E+03  0.25500000000E-02 0.  1.
         -2   -1    0    0    0  501 -0.00000000000E+00 -0.00000000000E+00 -0.47021203880E+00  0.47021895319E+00  0.25500000000E-02 0. -1.
         31    1    1    2    0    0 -0.41432814989E+00  0.20932495682E+00  0.60777658660E+02  0.61233962823E+02  0.74470750000E+01 0.  1.
        -31    1    1    2    0    0  0.41432814989E+00 -0.20932495682E+00  0.57257753058E+02  0.57741879914E+02  0.74470750000E+01 0.  1.
<mgrwt>
<rscale>  0 0.14929593E+02</rscale>
<asrwt>0</asrwt>
<pdfrwt beam="1">  1        2 0.98377551E+00 0.14929593E+02</pdfrwt>
<pdfrwt beam="2">  1       -2 0.99862927E+00 0.14929593E+02</pdfrwt>
<totfact>-0.18346011E-13</totfact>
</mgrwt>
</event>
<event>
 4    1  0.5119137E-019  0.1491276E+02  0.7818608E-02  0.1870742E+00
         -2   -1    0    0    0  501 -0.00000000000E+00  0.00000000000E+00  0.11836497055E+03  0.11836497058E+03  0.25500000000E-02 0.  1.
          2   -1    0    0  501    0  0.00000000000E+00 -0.00000000000E+00 -0.46970987027E+00  0.46971679204E+00  0.25500000000E-02 0. -1.
         31    1    1    2    0    0  0.25344254044E+00 -0.26688471426E-01  0.56783785145E+02  0.57270604387E+02  0.74470750000E+01 0. -1.
        -31    1    1    2    0    0 -0.25344254044E+00  0.26688471426E-01  0.61111475532E+02  0.61564082980E+02  0.74470750000E+01 0. -1.
<mgrwt>
<rscale>  0 0.14912761E+02</rscale>
<asrwt>0</asrwt>
<pdfrwt beam="2">  1        2 0.99756232E+00 0.14912761E+02</pdfrwt>
<pdfrwt beam="1">  1       -2 0.98260834E+00 0.14912761E+02</pdfrwt>
<totfact> 0.55268908E-13</totfact>
</mgrwt>
</event>
<event>
 4    1  0.5119137E-019  0.1491045E+02  0.7818608E-02  0.1870813E+00
         -2   -1    0    0    0  501 -0.00000000000E+00  0.00000000000E+00  0.11875990290E+03  0.11875990293E+03  0.25500000000E-02 0. -1.
          2   -1    0    0  501    0  0.00000000000E+00 -0.00000000000E+00 -0.46800282974E+00  0.46800977676E+00  0.25500000000E-02 0.  1.
         31    1    1    2    0    0 -0.25900509732E+00 -0.64926959154E-01  0.60936848868E+02  0.61390795525E+02  0.74470750000E+01 0. -1.
        -31    1    1    2    0    0  0.25900509732E+00  0.64926959154E-01  0.57355051205E+02  0.57837117182E+02  0.74470750000E+01 0.  1.
<mgrwt>
<rscale>  0 0.14910451E+02</rscale>
<asrwt>0</asrwt>
<pdfrwt beam="2">  1        2 0.99396428E+00 0.14910451E+02</pdfrwt>
<pdfrwt beam="1">  1       -2 0.98585980E+00 0.14910451E+02</pdfrwt>
<totfact> 0.41019107E-13</totfact>
</mgrwt>
</event>
<event>
 4    1  0.5119137E-019  0.1493782E+02  0.7818608E-02  0.1869972E+00
         -2   -1    0    0    0  501 -0.00000000000E+00  0.00000000000E+00  0.11903701365E+03  0.11903701368E+03  0.25500000000E-02 0.  1.
          2   -1    0    0  501    0  0.00000000000E+00 -0.00000000000E+00 -0.46862918716E+00  0.46863612490E+00  0.25500000000E-02 0. -1.
         31    1    1    2    0    0 -0.56591416167E-01 -0.44077260113E+00  0.62148958497E+02  0.62595123224E+02  0.74470750000E+01 0. -1.
        -31    1    1    2    0    0  0.56591416167E-01  0.44077260113E+00  0.56419425968E+02  0.56910526581E+02  0.74470750000E+01 0.  1.
<mgrwt>
<rscale>  0 0.14937822E+02</rscale>
<asrwt>0</asrwt>
<pdfrwt beam="2">  1        2 0.99529842E+00 0.14937822E+02</pdfrwt>
<pdfrwt beam="1">  1       -2 0.98815633E+00 0.14937822E+02</pdfrwt>
<totfact> 0.13359108E-13</totfact>
</mgrwt>
</event>
<event>
 4    1  0.5119137E-019  0.1495230E+02  0.7818608E-02  0.1869527E+00
         -2   -1    0    0    0  501 -0.00000000000E+00  0.00000000000E+00  0.11915261919E+03  0.11915261922E+03  0.25500000000E-02 0.  1.
          2   -1    0    0  501    0  0.00000000000E+00 -0.00000000000E+00 -0.46908272791E+00  0.46908965894E+00  0.25500000000E-02 0. -1.
         31    1    1    2    0    0 -0.48844417159E+00 -0.27269497158E+00  0.62124482190E+02  0.62571744052E+02  0.74470750000E+01 0.  1.
        -31    1    1    2    0    0  0.48844417159E+00  0.27269497158E+00  0.56559054272E+02  0.57049964824E+02  0.74470750000E+01 0. -1.
<mgrwt>
<rscale>  0 0.14952304E+02</rscale>
<asrwt>0</asrwt>
<pdfrwt beam="2">  1        2 0.99626168E+00 0.14952304E+02</pdfrwt>
<pdfrwt beam="1">  1       -2 0.98911598E+00 0.14952304E+02</pdfrwt>
<totfact> 0.54643552E-14</totfact>
</mgrwt>
</event>
<event>
 4    1 -0.5119137E-019  0.1494378E+02  0.7818608E-02  0.1869789E+00
         -2   -1    0    0    0  501 -0.00000000000E+00  0.00000000000E+00  0.12020142645E+03  0.12020142648E+03  0.25500000000E-02 0.  1.
          2   -1    0    0  501    0  0.00000000000E+00 -0.00000000000E+00 -0.46445941648E+00  0.46446641650E+00  0.25500000000E-02 0. -1.
         31    1    1    2    0    0  0.45728996025E+00  0.35714773595E+00  0.61346690624E+02  0.61799773828E+02  0.74470750000E+01 0.  1.
        -31    1    1    2    0    0 -0.45728996025E+00 -0.35714773595E+00  0.58390276414E+02  0.58866119070E+02  0.74470750000E+01 0.  1.
<mgrwt>
<rscale>  0 0.14943776E+02</rscale>
<asrwt>0</asrwt>
<pdfrwt beam="2">  1        2 0.98651415E+00 0.14943776E+02</pdfrwt>
<pdfrwt beam="1">  1       -2 0.99775003E+00 0.14943776E+02</pdfrwt>
<totfact>-0.17880121E-13</totfact>
</mgrwt>
</event>
<event>
 4    1 -0.5119137E-019  0.1492893E+02  0.7818608E-02  0.1870245E+00
         -2   -1    0    0    0  501 -0.00000000000E+00  0.00000000000E+00  0.11990419463E+03  0.11990419466E+03  0.25500000000E-02 0.  1.
          2   -1    0    0  501    0  0.00000000000E+00 -0.00000000000E+00 -0.46468634956E+00  0.46469334616E+00  0.25500000000E-02 0. -1.
         31    1    1    2    0    0  0.16822413412E+00  0.30963595308E+00  0.62684027127E+02  0.63125829553E+02  0.74470750000E+01 0.  1.
        -31    1    1    2    0    0 -0.16822413412E+00 -0.30963595308E+00  0.56755481157E+02  0.57243058454E+02  0.74470750000E+01 0. -1.
<mgrwt>
<rscale>  0 0.14928934E+02</rscale>
<asrwt>0</asrwt>
<pdfrwt beam="2">  1        2 0.98698487E+00 0.14928934E+02</pdfrwt>
<pdfrwt beam="1">  1       -2 0.99529418E+00 0.14928934E+02</pdfrwt>
<totfact>-0.25353551E-13</totfact>
</mgrwt>
</event>
<event>
 4    1 -0.5119137E-019  0.1498203E+02  0.7818608E-02  0.1868617E+00
         -2   -1    0    0    0  501 -0.00000000000E+00  0.00000000000E+00  0.11969293593E+03  0.11969293596E+03  0.25500000000E-02 0.  1.
          2   -1    0    0  501    0  0.00000000000E+00 -0.00000000000E+00 -0.46882378264E+00  0.46883071750E+00  0.25500000000E-02 0. -1.
         31    1    1    2    0    0 -0.46499806996E+00  0.31361094441E+00  0.54922957323E+02  0.55428374883E+02  0.74470750000E+01 0. -1.
        -31    1    1    2    0    0  0.46499806996E+00 -0.31361094441E+00  0.64301154824E+02  0.64733391791E+02  0.74470750000E+01 0. -1.
<mgrwt>
<rscale>  0 0.14982031E+02</rscale>
<asrwt>0</asrwt>
<pdfrwt beam="2">  1        2 0.99573149E+00 0.14982031E+02</pdfrwt>
<pdfrwt beam="1">  1       -2 0.99358156E+00 0.14982031E+02</pdfrwt>
<totfact>-0.10333679E-13</totfact>
</mgrwt>
</event>
<event>
 4    1 -0.5119137E-019  0.1499368E+02  0.7818608E-02  0.1868261E+00
         -2   -1    0    0    0  501 -0.00000000000E+00  0.00000000000E+00  0.12002252069E+03  0.12002252072E+03  0.25500000000E-02 0.  1.
          2   -1    0    0  501    0  0.00000000000E+00 -0.00000000000E+00 -0.46826356779E+00  0.46827051094E+00  0.25500000000E-02 0. -1.
         31    1    1    2    0    0  0.10032398583E+00  0.70689449034E+00  0.55890585487E+02  0.56389061323E+02  0.74470750000E+01 0. -1.
        -31    1    1    2    0    0 -0.10032398583E+00 -0.70689449034E+00  0.63663671637E+02  0.64101729907E+02  0.74470750000E+01 0. -1.
<mgrwt>
<rscale>  0 0.14993678E+02</rscale>
<asrwt>0</asrwt>
<pdfrwt beam="2">  1        2 0.99455696E+00 0.14993678E+02</pdfrwt>
<pdfrwt beam="1">  1       -2 0.99630216E+00 0.14993678E+02</pdfrwt>
<totfact>-0.11266251E-13</totfact>
</mgrwt>
</event>
<event>
 4    1 -0.5119137E-019  0.1495618E+02  0.7818608E-02  0.1869409E+00
         -2   -1    0    0    0  501 -0.00000000000E+00  0.00000000000E+00  0.11987502279E+03  0.11987502282E+03  0.25500000000E-02 0. -1.
          2   -1    0    0  501    0  0.00000000000E+00 -0.00000000000E+00 -0.46649779263E+00  0.46650476207E+00  0.25500000000E-02 0.  1.
         31    1    1    2    0    0 -0.45068027453E+00 -0.50069850982E+00  0.60472534054E+02  0.60933078969E+02  0.74470750000E+01 0.  1.
        -31    1    1    2    0    0  0.45068027453E+00  0.50069850982E+00  0.58935990946E+02  0.59408448613E+02  0.74470750000E+01 0.  1.
<mgrwt>
<rscale>  0 0.14956183E+02</rscale>
<asrwt>0</asrwt>
<pdfrwt beam="2">  1        2 0.99081644E+00 0.14956183E+02</pdfrwt>
<pdfrwt beam="1">  1       -2 0.99506795E+00 0.14956183E+02</pdfrwt>
<totfact>-0.16569259E-13</totfact>
</mgrwt>
</event>
<event>
 4    1 -0.5119137E-019  0.1496346E+02  0.7818608E-02  0.1869186E+00
         -2   -1    0    0    0  501 -0.00000000000E+00  0.00000000000E+00  0.12036235278E+03  0.12036235280E+03  0.25500000000E-02 0. -1.
          2   -1    0    0  501    0  0.00000000000E+00 -0.00000000000E+00 -0.46506133999E+00  0.46506833095E+00  0.25500000000E-02 0.  1.
         31    1    1    2    0    0 -0.38657603403E+00 -0.50224050044E+00  0.57202153332E+02  0.57688360684E+02  0.74470750000E+01 0.  1.
        -31    1    1    2    0    0  0.38657603403E+00  0.50224050044E+00  0.62695138106E+02  0.63139060451E+02  0.74470750000E+01 0.  1.
<mgrwt>
<rscale>  0 0.14963462E+02</rscale>
<asrwt>0</asrwt>
<pdfrwt beam="2">  1        2 0.98779278E+00 0.14963462E+02</pdfrwt>
<pdfrwt beam="1">  1       -2 0.99908566E+00 0.14963462E+02</pdfrwt>
<totfact>-0.68634455E-14</totfact>
</mgrwt>
</event>
<event>
 4    1 -0.5119137E-019  0.1498624E+02  0.7818608E-02  0.1868489E+00
          2   -1    0    0  501    0  0.00000000000E+00  0.00000000000E+00  0.11971985588E+03  0.11971985591E+03  0.25500000000E-02 0.  1.
         -2   -1    0    0    0  501 -0.00000000000E+00 -0.00000000000E+00 -0.46898198859E+00  0.46898892111E+00  0.25500000000E-02 0. -1.
         31    1    1    2    0    0 -0.72303295112E+00 -0.20876565244E+00  0.56828918675E+02  0.57319728572E+02  0.74470750000E+01 0. -1.
        -31    1    1    2    0    0  0.72303295112E+00  0.20876565244E+00  0.62421955218E+02  0.62869116258E+02  0.74470750000E+01 0.  1.
<mgrwt>
<rscale>  0 0.14986244E+02</rscale>
<asrwt>0</asrwt>
<pdfrwt beam="1">  1        2 0.99380546E+00 0.14986244E+02</pdfrwt>
<pdfrwt beam="2">  1       -2 0.99606707E+00 0.14986244E+02</pdfrwt>
<totfact>-0.12357794E-13</totfact>
</mgrwt>
</event>
<event>
 4    1  0.5119137E-019  0.1492917E+02  0.7818608E-02  0.1870238E+00
          2   -1    0    0  501    0  0.00000000000E+00  0.00000000000E+00  0.12013572615E+03  0.12013572618E+03  0.25500000000E-02 0.  1.
         -2   -1    0    0    0  501 -0.00000000000E+00 -0.00000000000E+00 -0.46380569502E+00  0.46381270490E+00  0.25500000000E-02 0. -1.
         31    1    1    2    0    0  0.76254274363E-01 -0.49440858022E+00  0.58993444697E+02  0.59463734308E+02  0.74470750000E+01 0.  1.
        -31    1    1    2    0    0 -0.76254274363E-01  0.49440858022E+00  0.60678475757E+02  0.61135804573E+02  0.74470750000E+01 0.  1.
<mgrwt>
<rscale>  0 0.14929174E+02</rscale>
<asrwt>0</asrwt>
<pdfrwt beam="1">  1        2 0.99720137E+00 0.14929174E+02</pdfrwt>
<pdfrwt beam="2">  1       -2 0.98512893E+00 0.14929174E+02</pdfrwt>
<totfact> 0.32895079E-13</totfact>
</mgrwt>
</event>
<event>
 4    1  0.5119137E-019  0.1491464E+02  0.7818608E-02  0.1870685E+00
          2   -1    0    0  501    0  0.00000000000E+00  0.00000000000E+00  0.11984301348E+03  0.11984301351E+03  0.25500000000E-02 0.  1.
         -2   -1    0    0    0  501 -0.00000000000E+00 -0.00000000000E+00 -0.46403357364E+00  0.46404058008E+00  0.25500000000E-02 0. -1.
         31    1    1    2    0    0 -0.34501461298E+00  0.76189163837E-02  0.58211213095E+02  0.58686653927E+02  0.74470750000E+01 0. -1.
        -31    1    1    2    0    0  0.34501461298E+00 -0.76189163837E-02  0.61167766816E+02  0.61620400165E+02  0.74470750000E+01 0. -1.
<mgrwt>
<rscale>  0 0.14914638E+02</rscale>
<asrwt>0</asrwt>
<pdfrwt beam="1">  1        2 0.99478290E+00 0.14914638E+02</pdfrwt>
<pdfrwt beam="2">  1       -2 0.98560181E+00 0.14914638E+02</pdfrwt>
<totfact> 0.41445630E-13</totfact>
</mgrwt>
</event>
<event>
 4    1 -0.5119137E-019  0.1496434E+02  0.7818608E-02  0.1869159E+00
         -2   -1    0    0    0  501 -0.00000000000E+00  0.00000000000E+00  0.11976258537E+03  0.11976258540E+03  0.25500000000E-02 0.  1.
          2   -1    0    0  501    0  0.00000000000E+00 -0.00000000000E+00 -0.46744510625E+00  0.46745206156E+00  0.25500000000E-02 0. -1.
         31    1    1    2    0    0  0.10132299546E+00  0.65067109770E+00  0.57233373295E+02  0.57719594455E+02  0.74470750000E+01 0.  1.
        -31    1    1    2    0    0 -0.10132299546E+00 -0.65067109770E+00  0.62061766968E+02  0.62510443003E+02  0.74470750000E+01 0.  1.
<mgrwt>
<rscale>  0 0.14964338E+02</rscale>
<asrwt>0</asrwt>
<pdfrwt beam="2">  1        2 0.99281701E+00 0.14964338E+02</pdfrwt>
<pdfrwt beam="1">  1       -2 0.99414607E+00 0.14964338E+02</pdfrwt>
<totfact>-0.14086714E-13</totfact>
</mgrwt>
</event>
<event>
 4    1  0.5119137E-019  0.1491819E+02  0.7818608E-02  0.1870575E+00
         -2   -1    0    0    0  501 -0.00000000000E+00  0.00000000000E+00  0.11855601424E+03  0.11855601426E+03  0.25500000000E-02 0.  1.
          2   -1    0    0  501    0  0.00000000000E+00 -0.00000000000E+00 -0.46929429162E+00  0.46930121953E+00  0.25500000000E-02 0. -1.
         31    1    1    2    0    0 -0.23424249535E+00 -0.16915476427E+00  0.61511111638E+02  0.61960949507E+02  0.74470750000E+01 0.  1.
        -31    1    1    2    0    0  0.23424249535E+00  0.16915476427E+00  0.56575608307E+02  0.57064365976E+02  0.74470750000E+01 0. -1.
<mgrwt>
<rscale>  0 0.14918187E+02</rscale>
<asrwt>0</asrwt>
<pdfrwt beam="2">  1        2 0.99668956E+00 0.14918187E+02</pdfrwt>
<pdfrwt beam="1">  1       -2 0.98418459E+00 0.14918187E+02</pdfrwt>
<totfact> 0.47478126E-13</totfact>
</mgrwt>
</event>
<event>
 4    1  0.5119137E-019  0.1491144E+02  0.7818608E-02  0.1870783E+00
          2   -1    0    0  501    0  0.00000000000E+00  0.00000000000E+00  0.11965734611E+03  0.11965734614E+03  0.25500000000E-02 0. -1.
         -2   -1    0    0    0  501 -0.00000000000E+00 -0.00000000000E+00 -0.46455411123E+00  0.46456110982E+00  0.25500000000E-02 0.  1.
         31    1    1    2    0    0  0.99222144313E-01  0.34419069784E+00  0.59775754260E+02  0.60238924590E+02  0.74470750000E+01 0.  1.
        -31    1    1    2    0    0 -0.99222144313E-01 -0.34419069784E+00  0.59417037736E+02  0.59882982655E+02  0.74470750000E+01 0. -1.
<mgrwt>
<rscale>  0 0.14911436E+02</rscale>
<asrwt>0</asrwt>
<pdfrwt beam="1">  1        2 0.99325197E+00 0.14911436E+02</pdfrwt>
<pdfrwt beam="2">  1       -2 0.98669723E+00 0.14911436E+02</pdfrwt>
<totfact> 0.32179669E-13</totfact>
</mgrwt>
</event>
<event>
 4    1  0.5119137E-019  0.1490719E+02  0.7818608E-02  0.1870914E+00
          2   -1    0    0  501    0  0.00000000000E+00  0.00000000000E+00  0.12023663954E+03  0.12023663957E+03  0.25500000000E-02 0. -1.
         -2   -1    0    0    0  501 -0.00000000000E+00 -0.00000000000E+00 -0.46205285847E+00  0.46205989494E+00  0.25500000000E-02 0.  1.
         31    1    1    2    0    0 -0.17990271960E+00  0.20970930337E+00  0.61056141250E+02  0.61509248519E+02  0.74470750000E+01 0. -1.
        -31    1    1    2    0    0  0.17990271960E+00 -0.20970930337E+00  0.58718445436E+02  0.59189450947E+02  0.74470750000E+01 0.  1.
<mgrwt>
<rscale>  0 0.14907194E+02</rscale>
<asrwt>0</asrwt>
<pdfrwt beam="1">  1        2 0.99802130E+00 0.14907194E+02</pdfrwt>
<pdfrwt beam="2">  1       -2 0.98142336E+00 0.14907194E+02</pdfrwt>
<totfact> 0.59777928E-13</totfact>
</mgrwt>
</event>
<event>
 4    1  0.5119137E-019  0.1494148E+02  0.7818608E-02  0.1869860E+00
          2   -1    0    0  501    0  0.00000000000E+00  0.00000000000E+00  0.12010682837E+03  0.12010682840E+03  0.25500000000E-02 0.  1.
         -2   -1    0    0    0  501 -0.00000000000E+00 -0.00000000000E+00 -0.46468246553E+00  0.46468946219E+00  0.25500000000E-02 0. -1.
         31    1    1    2    0    0 -0.39319549636E+00 -0.67110355723E-01  0.56267449840E+02  0.56759527342E+02  0.74470750000E+01 0. -1.
        -31    1    1    2    0    0  0.39319549636E+00  0.67110355723E-01  0.63374696065E+02  0.63811990519E+02  0.74470750000E+01 0.  1.
<mgrwt>
<rscale>  0 0.14941481E+02</rscale>
<asrwt>0</asrwt>
<pdfrwt beam="1">  1        2 0.99696967E+00 0.14941481E+02</pdfrwt>
<pdfrwt beam="2">  1       -2 0.98698308E+00 0.14941481E+02</pdfrwt>
<totfact> 0.18395842E-13</totfact>
</mgrwt>
</event>
<event>
 4    1  0.5119137E-019  0.1492043E+02  0.7818608E-02  0.1870506E+00
          2   -1    0    0  501    0  0.00000000000E+00  0.00000000000E+00  0.11964376738E+03  0.11964376740E+03  0.25500000000E-02 0.  1.
         -2   -1    0    0    0  501 -0.00000000000E+00 -0.00000000000E+00 -0.46516760036E+00  0.46517458973E+00  0.25500000000E-02 0. -1.
         31    1    1    2    0    0  0.34676703475E+00  0.18905397267E+00  0.57981105138E+02  0.58458733034E+02  0.74470750000E+01 0.  1.
        -31    1    1    2    0    0 -0.34676703475E+00 -0.18905397267E+00  0.61197494637E+02  0.61650208959E+02  0.74470750000E+01 0. -1.
<mgrwt>
<rscale>  0 0.14920432E+02</rscale>
<asrwt>0</asrwt>
<pdfrwt beam="1">  1        2 0.99314477E+00 0.14920432E+02</pdfrwt>
<pdfrwt beam="2">  1       -2 0.98799476E+00 0.14920432E+02</pdfrwt>
<totfact> 0.17731753E-13</totfact>
</mgrwt>
</event>
<event>
 4    1  0.5119137E-019  0.1493831E+02  0.7818608E-02  0.1869957E+00
          2   -1    0    0  501    0  0.00000000000E+00  0.00000000000E+00  0.11980599754E+03  0.11980599757E+03  0.25500000000E-02 0.  1.
         -2   -1    0    0    0  501 -0.00000000000E+00 -0.00000000000E+00 -0.46565180765E+00  0.46565878975E+00  0.25500000000E-02 0. -1.
         31    1    1    2    0    0 -0.23559496704E+00 -0.32149706871E+00  0.62994746194E+02  0.63434658030E+02  0.74470750000E+01 0.  1.
        -31    1    1    2    0    0  0.23559496704E+00  0.32149706871E+00  0.56345599539E+02  0.56836998327E+02  0.74470750000E+01 0.  1.
<mgrwt>
<rscale>  0 0.14938313E+02</rscale>
<asrwt>0</asrwt>
<pdfrwt beam="1">  1        2 0.99449020E+00 0.14938313E+02</pdfrwt>
<pdfrwt beam="2">  1       -2 0.98902438E+00 0.14938313E+02</pdfrwt>
<totfact> 0.74267967E-14</totfact>
</mgrwt>
</event>
<event>
 4    1 -0.5119137E-019  0.1496253E+02  0.7818608E-02  0.1869214E+00
          2   -1    0    0  501    0  0.00000000000E+00  0.00000000000E+00  0.11973798448E+03  0.11973798450E+03  0.25500000000E-02 0.  1.
         -2   -1    0    0    0  501 -0.00000000000E+00 -0.00000000000E+00 -0.46742847056E+00  0.46743542612E+00  0.25500000000E-02 0. -1.
         31    1    1    2    0    0 -0.65104176318E+00 -0.75237926395E-01  0.61920603290E+02  0.62370261776E+02  0.74470750000E+01 0.  1.
        -31    1    1    2    0    0  0.65104176318E+00  0.75237926395E-01  0.57349952715E+02  0.57835158153E+02  0.74470750000E+01 0. -1.
<mgrwt>
<rscale>  0 0.14962535E+02</rscale>
<asrwt>0</asrwt>
<pdfrwt beam="1">  1        2 0.99394252E+00 0.14962535E+02</pdfrwt>
<pdfrwt beam="2">  1       -2 0.99278103E+00 0.14962535E+02</pdfrwt>
<totfact>-0.10900191E-13</totfact>
</mgrwt>
</event>
<event>
 4    1  0.5119137E-019  0.1491660E+02  0.7818608E-02  0.1870624E+00
          2   -1    0    0  501    0  0.00000000000E+00  0.00000000000E+00  0.11963478863E+03  0.11963478866E+03  0.25500000000E-02 0.  1.
         -2   -1    0    0    0  501 -0.00000000000E+00 -0.00000000000E+00 -0.46496367765E+00  0.46497067008E+00  0.25500000000E-02 0. -1.
         31    1    1    2    0    0 -0.67505273594E-01 -0.25632979042E+00  0.62093349591E+02  0.62538893909E+02  0.74470750000E+01 0.  1.
        -31    1    1    2    0    0  0.67505273594E-01  0.25632979042E+00  0.57076475362E+02  0.57560865418E+02  0.74470750000E+01 0. -1.
<mgrwt>
<rscale>  0 0.14916602E+02</rscale>
<asrwt>0</asrwt>
<pdfrwt beam="1">  1        2 0.99306884E+00 0.14916602E+02</pdfrwt>
<pdfrwt beam="2">  1       -2 0.98756303E+00 0.14916602E+02</pdfrwt>
<totfact> 0.22394568E-13</totfact>
</mgrwt>
</event>
<event>
 4    1  0.5119137E-019  0.1494732E+02  0.7818608E-02  0.1869680E+00
          2   -1    0    0  501    0  0.00000000000E+00  0.00000000000E+00  0.12029562121E+03  0.12029562123E+03  0.25500000000E-02 0. -1.
         -2   -1    0    0    0  501 -0.00000000000E+00 -0.00000000000E+00 -0.46431587882E+00  0.46432288100E+00  0.25500000000E-02 0.  1.
         31    1    1    2    0    0  0.60514547239E+00 -0.13469056504E+00  0.59018812055E+02  0.59490028114E+02  0.74470750000E+01 0.  1.
        -31    1    1    2    0    0 -0.60514547239E+00  0.13469056504E+00  0.60812493274E+02  0.61269916002E+02  0.74470750000E+01 0. -1.
<mgrwt>
<rscale>  0 0.14947320E+02</rscale>
<asrwt>0</asrwt>
<pdfrwt beam="1">  1        2 0.99852771E+00 0.14947320E+02</pdfrwt>
<pdfrwt beam="2">  1       -2 0.98621342E+00 0.14947320E+02</pdfrwt>
<totfact> 0.14212920E-13</totfact>
</mgrwt>
</event>
<event>
 4    1  0.5119137E-019  0.1491228E+02  0.7818608E-02  0.1870757E+00
         -2   -1    0    0    0  501 -0.00000000000E+00  0.00000000000E+00  0.11824812969E+03  0.11824812972E+03  0.25500000000E-02 0. -1.
          2   -1    0    0  501    0  0.00000000000E+00 -0.00000000000E+00 -0.47014380791E+00  0.47015072330E+00  0.25500000000E-02 0.  1.
         31    1    1    2    0    0 -0.28667369407E+00  0.22776400820E+00  0.59147427372E+02  0.59615527751E+02  0.74470750000E+01 0.  1.
        -31    1    1    2    0    0  0.28667369407E+00 -0.22776400820E+00  0.58630558511E+02  0.59102752691E+02  0.74470750000E+01 0.  1.
<mgrwt>
<rscale>  0 0.14912282E+02</rscale>
<asrwt>0</asrwt>
<pdfrwt beam="2">  1        2 0.99847634E+00 0.14912282E+02</pdfrwt>
<pdfrwt beam="1">  1       -2 0.98164581E+00 0.14912282E+02</pdfrwt>
<totfact> 0.46398926E-13</totfact>
</mgrwt>
</event>
<event>
 4    1  0.5119137E-019  0.1494428E+02  0.7818608E-02  0.1869773E+00
         -2   -1    0    0    0  501 -0.00000000000E+00  0.00000000000E+00  0.11883454322E+03  0.11883454325E+03  0.25500000000E-02 0.  1.
          2   -1    0    0  501    0  0.00000000000E+00 -0.00000000000E+00 -0.46983386278E+00  0.46984078272E+00  0.25500000000E-02 0. -1.
         31    1    1    2    0    0  0.25915138435E+00  0.55321700601E+00  0.59404218365E+02  0.59872308241E+02  0.74470750000E+01 0.  1.
        -31    1    1    2    0    0 -0.25915138435E+00 -0.55321700601E+00  0.58960490991E+02  0.59432075788E+02  0.74470750000E+01 0. -1.
<mgrwt>
<rscale>  0 0.14944284E+02</rscale>
<asrwt>0</asrwt>
<pdfrwt beam="2">  1        2 0.99784019E+00 0.14944284E+02</pdfrwt>
<pdfrwt beam="1">  1       -2 0.98649212E+00 0.14944284E+02</pdfrwt>
<totfact> 0.17481168E-13</totfact>
</mgrwt>
</event>
<event>
 4    1 -0.5119137E-019  0.1490840E+02  0.7818608E-02  0.1870877E+00
          2   -1    0    0  501    0  0.00000000000E+00  0.00000000000E+00  0.11885737091E+03  0.11885737093E+03  0.25500000000E-02 0.  1.
         -2   -1    0    0    0  501 -0.00000000000E+00 -0.00000000000E+00 -0.46749032422E+00  0.46749727886E+00  0.25500000000E-02 0. -1.
         31    1    1    2    0    0 -0.18177097307E+00  0.23774716416E+00  0.60226072464E+02  0.60685486691E+02  0.74470750000E+01 0. -1.
        -31    1    1    2    0    0  0.18177097307E+00 -0.23774716416E+00  0.58163808119E+02  0.58639381522E+02  0.74470750000E+01 0. -1.
<mgrwt>
<rscale>  0 0.14908399E+02</rscale>
<asrwt>0</asrwt>
<pdfrwt beam="1">  1        2 0.98666150E+00 0.14908399E+02</pdfrwt>
<pdfrwt beam="2">  1       -2 0.99288328E+00 0.14908399E+02</pdfrwt>
<totfact>-0.22779511E-13</totfact>
</mgrwt>
</event>
<event>
 4    1 -0.5119137E-019  0.1499578E+02  0.7818608E-02  0.1868197E+00
         -2   -1    0    0    0  501 -0.00000000000E+00  0.00000000000E+00  0.11997617149E+03  0.11997617152E+03  0.25500000000E-02 0. -1.
          2   -1    0    0  501    0  0.00000000000E+00 -0.00000000000E+00 -0.46857570001E+00  0.46858263854E+00  0.25500000000E-02 0.  1.
         31    1    1    2    0    0 -0.21448916184E+00  0.75780206210E+00  0.62749845066E+02  0.63195112559E+02  0.74470750000E+01 0. -1.
        -31    1    1    2    0    0  0.21448916184E+00 -0.75780206210E+00  0.56757750725E+02  0.57249641597E+02  0.74470750000E+01 0.  1.
<mgrwt>
<rscale>  0 0.14995778E+02</rscale>
<asrwt>0</asrwt>
<pdfrwt beam="2">  1        2 0.99521582E+00 0.14995778E+02</pdfrwt>
<pdfrwt beam="1">  1       -2 0.99592150E+00 0.14995778E+02</pdfrwt>
<totfact>-0.11029787E-13</totfact>
</mgrwt>
</event>
<event>
 4    1 -0.5119137E-019  0.1490766E+02  0.7818608E-02  0.1870899E+00
          2   -1    0    0  501    0  0.00000000000E+00  0.00000000000E+00  0.11817895115E+03  0.11817895118E+03  0.25500000000E-02 0.  1.
         -2   -1    0    0    0  501 -0.00000000000E+00 -0.00000000000E+00 -0.47012750560E+00  0.47013442123E+00  0.25500000000E-02 0. -1.
         31    1    1    2    0    0  0.14279860136E-01 -0.31518380458E+00  0.58588457611E+02  0.59060696203E+02  0.74470750000E+01 0. -1.
        -31    1    1    2    0    0 -0.14279860136E-01  0.31518380458E+00  0.59120366033E+02  0.59588389395E+02  0.74470750000E+01 0. -1.
<mgrwt>
<rscale>  0 0.14907661E+02</rscale>
<asrwt>0</asrwt>
<pdfrwt beam="1">  1        2 0.98107365E+00 0.14907661E+02</pdfrwt>
<pdfrwt beam="2">  1       -2 0.99843955E+00 0.14907661E+02</pdfrwt>
<totfact>-0.32378240E-13</totfact>
</mgrwt>
</event>
<event>
 4    1  0.5119137E-019  0.1492734E+02  0.7818608E-02  0.1870294E+00
          2   -1    0    0  501    0  0.00000000000E+00  0.00000000000E+00  0.11980131547E+03  0.11980131550E+03  0.25500000000E-02 0. -1.
         -2   -1    0    0    0  501 -0.00000000000E+00 -0.00000000000E+00 -0.46498634950E+00  0.46499334159E+00  0.25500000000E-02 0.  1.
         31    1    1    2    0    0 -0.44827849412E+00  0.33063948843E-01  0.57951001530E+02  0.58429269644E+02  0.74470750000E+01 0.  1.
        -31    1    1    2    0    0  0.44827849412E+00 -0.33063948843E-01  0.61385327596E+02  0.61837039199E+02  0.74470750000E+01 0. -1.
<mgrwt>
<rscale>  0 0.14927344E+02</rscale>
<asrwt>0</asrwt>
<pdfrwt beam="1">  1        2 0.99444599E+00 0.14927344E+02</pdfrwt>
<pdfrwt beam="2">  1       -2 0.98761632E+00 0.14927344E+02</pdfrwt>
<totfact> 0.19574433E-13</totfact>
</mgrwt>
</event>
<event>
 4    1  0.5119137E-019  0.1494069E+02  0.7818608E-02  0.1869884E+00
          2   -1    0    0  501    0  0.00000000000E+00  0.00000000000E+00  0.12017202489E+03  0.12017202492E+03  0.25500000000E-02 0.  1.
         -2   -1    0    0    0  501 -0.00000000000E+00 -0.00000000000E+00 -0.46438117425E+00  0.46438817545E+00  0.25500000000E-02 0. -1.
         31    1    1    2    0    0 -0.57018696915E+00  0.12254520518E+00  0.60529052256E+02  0.60988238403E+02  0.74470750000E+01 0.  1.
        -31    1    1    2    0    0  0.57018696915E+00 -0.12254520518E+00  0.59178591462E+02  0.59648174691E+02  0.74470750000E+01 0.  1.
<mgrwt>
<rscale>  0 0.14940689E+02</rscale>
<asrwt>0</asrwt>
<pdfrwt beam="1">  1        2 0.99750627E+00 0.14940689E+02</pdfrwt>
<pdfrwt beam="2">  1       -2 0.98634767E+00 0.14940689E+02</pdfrwt>
<totfact> 0.20506284E-13</totfact>
</mgrwt>
</event>
<event>
 4    1  0.5119137E-019  0.1492591E+02  0.7818608E-02  0.1870338E+00
          2   -1    0    0  501    0  0.00000000000E+00  0.00000000000E+00  0.12043733554E+03  0.12043733557E+03  0.25500000000E-02 0.  1.
         -2   -1    0    0    0  501 -0.00000000000E+00 -0.00000000000E+00 -0.46244195970E+00  0.46244899026E+00  0.25500000000E-02 0. -1.
         31    1    1    2    0    0  0.63810231457E-01  0.18089691320E+00  0.56365177027E+02  0.56855333108E+02  0.74470750000E+01 0. -1.
        -31    1    1    2    0    0 -0.63810231457E-01 -0.18089691320E+00  0.63609716555E+02  0.64044451451E+02  0.74470750000E+01 0.  1.
<mgrwt>
<rscale>  0 0.14925911E+02</rscale>
<asrwt>0</asrwt>
<pdfrwt beam="1">  1        2 0.99968401E+00 0.14925911E+02</pdfrwt>
<pdfrwt beam="2">  1       -2 0.98225292E+00 0.14925911E+02</pdfrwt>
<totfact> 0.97527968E-14</totfact>
</mgrwt>
</event>
<event>
 4    1 -0.5119137E-019  0.1492220E+02  0.7818608E-02  0.1870452E+00
          2   -1    0    0  501    0  0.00000000000E+00  0.00000000000E+00  0.11833761328E+03  0.11833761331E+03  0.25500000000E-02 0.  1.
         -2   -1    0    0    0  501 -0.00000000000E+00 -0.00000000000E+00 -0.47041348504E+00  0.47042039646E+00  0.25500000000E-02 0. -1.
         31    1    1    2    0    0 -0.16205491890E+00  0.42721366885E+00  0.59076448356E+02  0.59545734102E+02  0.74470750000E+01 0. -1.
        -31    1    1    2    0    0  0.16205491890E+00 -0.42721366885E+00  0.58790751442E+02  0.59262299605E+02  0.74470750000E+01 0.  1.
<mgrwt>
<rscale>  0 0.14922201E+02</rscale>
<asrwt>0</asrwt>
<pdfrwt beam="1">  1        2 0.98238795E+00 0.14922201E+02</pdfrwt>
<pdfrwt beam="2">  1       -2 0.99904979E+00 0.14922201E+02</pdfrwt>
<totfact>-0.16655679E-13</totfact>
</mgrwt>
</event>
<event>
 4    1  0.5119137E-019  0.1493680E+02  0.7818608E-02  0.1870003E+00
          2   -1    0    0  501    0  0.00000000000E+00  0.00000000000E+00  0.12013484110E+03  0.12013484113E+03  0.25500000000E-02 0.  1.
         -2   -1    0    0    0  501 -0.00000000000E+00 -0.00000000000E+00 -0.46428335248E+00  0.46429035516E+00  0.25500000000E-02 0. -1.
         31    1    1    2    0    0 -0.33230408261E+00  0.43902503352E+00  0.58848549100E+02  0.59320433462E+02  0.74470750000E+01 0. -1.
        -31    1    1    2    0    0  0.33230408261E+00 -0.43902503352E+00  0.60822008651E+02  0.61278698022E+02  0.74470750000E+01 0.  1.
<mgrwt>
<rscale>  0 0.14936804E+02</rscale>
<asrwt>0</asrwt>
<pdfrwt beam="1">  1        2 0.99719800E+00 0.14936804E+02</pdfrwt>
<pdfrwt beam="2">  1       -2 0.98613953E+00 0.14936804E+02</pdfrwt>
<totfact> 0.23965848E-13</totfact>
</mgrwt>
</event>
<event>
 4    1 -0.5119137E-019  0.1491699E+02  0.7818608E-02  0.1870612E+00
          2   -1    0    0  501    0  0.00000000000E+00  0.00000000000E+00  0.11887435978E+03  0.11887435981E+03  0.25500000000E-02 0.  1.
         -2   -1    0    0    0  501 -0.00000000000E+00 -0.00000000000E+00 -0.46796232541E+00  0.46796927303E+00  0.25500000000E-02 0. -1.
         31    1    1    2    0    0 -0.43534733752E-01 -0.30061085869E+00  0.61436878505E+02  0.61887326883E+02  0.74470750000E+01 0. -1.
        -31    1    1    2    0    0  0.43534733752E-01  0.30061085869E+00  0.56969518950E+02  0.57455002198E+02  0.74470750000E+01 0.  1.
<mgrwt>
<rscale>  0 0.14916989E+02</rscale>
<asrwt>0</asrwt>
<pdfrwt beam="1">  1        2 0.98680588E+00 0.14916989E+02</pdfrwt>
<pdfrwt beam="2">  1       -2 0.99388235E+00 0.14916989E+02</pdfrwt>
<totfact>-0.25498094E-13</totfact>
</mgrwt>
</event>
<event>
 4    1 -0.5119137E-019  0.1498692E+02  0.7818608E-02  0.1868468E+00
         -2   -1    0    0    0  501 -0.00000000000E+00  0.00000000000E+00  0.11980101579E+03  0.11980101582E+03  0.25500000000E-02 0. -1.
          2   -1    0    0  501    0  0.00000000000E+00 -0.00000000000E+00 -0.46870652181E+00  0.46871345840E+00  0.25500000000E-02 0.  1.
         31    1    1    2    0    0  0.44327981384E+00 -0.53831877219E+00  0.63314883204E+02  0.63755153873E+02  0.74470750000E+01 0. -1.
        -31    1    1    2    0    0 -0.44327981384E+00  0.53831877219E+00  0.56017426067E+02  0.56514575406E+02  0.74470750000E+01 0.  1.
<mgrwt>
<rscale>  0 0.14986919E+02</rscale>
<asrwt>0</asrwt>
<pdfrwt beam="2">  1        2 0.99548692E+00 0.14986919E+02</pdfrwt>
<pdfrwt beam="1">  1       -2 0.99447427E+00 0.14986919E+02</pdfrwt>
<totfact>-0.11290499E-13</totfact>
</mgrwt>
</event>
<event>
 4    1 -0.5119137E-019  0.1499811E+02  0.7818608E-02  0.1868126E+00
          2   -1    0    0  501    0  0.00000000000E+00  0.00000000000E+00  0.12019193491E+03  0.12019193493E+03  0.25500000000E-02 0. -1.
         -2   -1    0    0    0  501 -0.00000000000E+00 -0.00000000000E+00 -0.46787971334E+00  0.46788666219E+00  0.25500000000E-02 0.  1.
         31    1    1    2    0    0 -0.48454771585E+00  0.53114575342E+00  0.55760175375E+02  0.56259870123E+02  0.74470750000E+01 0.  1.
        -31    1    1    2    0    0  0.48454771585E+00 -0.53114575342E+00  0.63963879818E+02  0.64399951473E+02  0.74470750000E+01 0. -1.
<mgrwt>
<rscale>  0 0.14998105E+02</rscale>
<asrwt>0</asrwt>
<pdfrwt beam="1">  1        2 0.99769983E+00 0.14998105E+02</pdfrwt>
<pdfrwt beam="2">  1       -2 0.99375029E+00 0.14998105E+02</pdfrwt>
<totfact>-0.69921888E-14</totfact>
</mgrwt>
</event>
<event>
 4    1  0.5119137E-019  0.1490556E+02  0.7818608E-02  0.1870964E+00
         -2   -1    0    0    0  501 -0.00000000000E+00  0.00000000000E+00  0.11825866427E+03  0.11825866430E+03  0.25500000000E-02 0. -1.
          2   -1    0    0  501    0  0.00000000000E+00 -0.00000000000E+00 -0.46967837173E+00  0.46968529397E+00  0.25500000000E-02 0.  1.
         31    1    1    2    0    0 -0.10696366346E+00  0.15624511201E+00  0.57128233437E+02  0.57611889706E+02  0.74470750000E+01 0.  1.
        -31    1    1    2    0    0  0.10696366346E+00 -0.15624511201E+00  0.60660752462E+02  0.61116459886E+02  0.74470750000E+01 0.  1.
<mgrwt>
<rscale>  0 0.14905563E+02</rscale>
<asrwt>0</asrwt>
<pdfrwt beam="2">  1        2 0.99749214E+00 0.14905563E+02</pdfrwt>
<pdfrwt beam="1">  1       -2 0.98172906E+00 0.14905563E+02</pdfrwt>
<totfact> 0.67406882E-13</totfact>
</mgrwt>
</event>
<event>
 4    1 -0.5119137E-019  0.1495687E+02  0.7818608E-02  0.1869388E+00
          2   -1    0    0  501    0  0.00000000000E+00  0.00000000000E+00  0.11923748502E+03  0.11923748505E+03  0.25500000000E-02 0.  1.
         -2   -1    0    0    0  501 -0.00000000000E+00 -0.00000000000E+00 -0.46903505749E+00  0.46904198922E+00  0.25500000000E-02 0. -1.
         31    1    1    2    0    0  0.48016089919E+00 -0.22384249552E+00  0.55919636117E+02  0.56415824814E+02  0.74470750000E+01 0. -1.
        -31    1    1    2    0    0 -0.48016089919E+00  0.22384249552E+00  0.62848813850E+02  0.63290702227E+02  0.74470750000E+01 0.  1.
<mgrwt>
<rscale>  0 0.14956868E+02</rscale>
<asrwt>0</asrwt>
<pdfrwt beam="1">  1        2 0.98981732E+00 0.14956868E+02</pdfrwt>
<pdfrwt beam="2">  1       -2 0.99616361E+00 0.14956868E+02</pdfrwt>
<totfact>-0.16740090E-13</totfact>
</mgrwt>
</event>
<event>
 4    1 -0.5119137E-019  0.1495655E+02  0.7818608E-02  0.1869397E+00
          2   -1    0    0  501    0  0.00000000000E+00  0.00000000000E+00  0.11894882380E+03  0.11894882382E+03  0.25500000000E-02 0. -1.
         -2   -1    0    0    0  501 -0.00000000000E+00 -0.00000000000E+00 -0.47015336820E+00  0.47016028345E+00  0.25500000000E-02 0.  1.
         31    1    1    2    0    0  0.54542289932E+00  0.20137640058E+00  0.62091899102E+02  0.62539594648E+02  0.74470750000E+01 0.  1.
        -31    1    1    2    0    0 -0.54542289932E+00 -0.20137640058E+00  0.56386771325E+02  0.56879389458E+02  0.74470750000E+01 0.  1.
<mgrwt>
<rscale>  0 0.14956551E+02</rscale>
<asrwt>0</asrwt>
<pdfrwt beam="1">  1        2 0.98743971E+00 0.14956551E+02</pdfrwt>
<pdfrwt beam="2">  1       -2 0.99851986E+00 0.14956551E+02</pdfrwt>
<totfact>-0.11097654E-13</totfact>
</mgrwt>
</event>
<event>
 4    1 -0.5119137E-019  0.1490263E+02  0.7818608E-02  0.1871054E+00
          2   -1    0    0  501    0  0.00000000000E+00  0.00000000000E+00  0.11832318589E+03  0.11832318592E+03  0.25500000000E-02 0.  1.
         -2   -1    0    0    0  501 -0.00000000000E+00 -0.00000000000E+00 -0.46923768027E+00  0.46924460901E+00  0.25500000000E-02 0. -1.
         31    1    1    2    0    0 -0.13210787915E+00  0.16996019177E+00  0.59961560620E+02  0.60422628352E+02  0.74470750000E+01 0.  1.
        -31    1    1    2    0    0  0.13210787915E+00 -0.16996019177E+00  0.57892387589E+02  0.58369802173E+02  0.74470750000E+01 0. -1.
<mgrwt>
<rscale>  0 0.14902632E+02</rscale>
<asrwt>0</asrwt>
<pdfrwt beam="1">  1        2 0.98225893E+00 0.14902632E+02</pdfrwt>
<pdfrwt beam="2">  1       -2 0.99656207E+00 0.14902632E+02</pdfrwt>
<totfact>-0.47757034E-13</totfact>
</mgrwt>
</event>
<event>
 4    1 -0.5119137E-019  0.1499724E+02  0.7818608E-02  0.1868153E+00
         -2   -1    0    0    0  501 -0.00000000000E+00  0.00000000000E+00  0.12011619087E+03  0.12011619090E+03  0.25500000000E-02 0. -1.
          2   -1    0    0  501    0  0.00000000000E+00 -0.00000000000E+00 -0.46812063194E+00  0.46812757722E+00  0.25500000000E-02 0.  1.
         31    1    1    2    0    0 -0.45737502632E+00 -0.56730043191E-01  0.65829929469E+02  0.66251422250E+02  0.74470750000E+01 0. -1.
        -31    1    1    2    0    0  0.45737502632E+00  0.56730043191E-01  0.53818140767E+02  0.54332896222E+02  0.74470750000E+01 0.  1.
<mgrwt>
<rscale>  0 0.14997238E+02</rscale>
<asrwt>0</asrwt>
<pdfrwt beam="2">  1        2 0.99425757E+00 0.14997238E+02</pdfrwt>
<pdfrwt beam="1">  1       -2 0.99707551E+00 0.14997238E+02</pdfrwt>
<totfact>-0.10073970E-13</totfact>
</mgrwt>
</event>
<event>
 4    1 -0.5119137E-019  0.1499234E+02  0.7818608E-02  0.1868302E+00
         -2   -1    0    0    0  501 -0.00000000000E+00  0.00000000000E+00  0.12024824198E+03  0.12024824200E+03  0.25500000000E-02 0.  1.
          2   -1    0    0  501    0  0.00000000000E+00 -0.00000000000E+00 -0.46730091849E+00  0.46730787595E+00  0.25500000000E-02 0. -1.
         31    1    1    2    0    0 -0.83600250779E+00  0.15206364977E+00  0.60757150157E+02  0.61217744526E+02  0.74470750000E+01 0. -1.
        -31    1    1    2    0    0  0.83600250779E+00 -0.15206364977E+00  0.59023790901E+02  0.59497805354E+02  0.74470750000E+01 0.  1.
<mgrwt>
<rscale>  0 0.14992336E+02</rscale>
<asrwt>0</asrwt>
<pdfrwt beam="2">  1        2 0.99252755E+00 0.14992336E+02</pdfrwt>
<pdfrwt beam="1">  1       -2 0.99816063E+00 0.14992336E+02</pdfrwt>
<totfact>-0.80912314E-14</totfact>
</mgrwt>
</event>
<event>
 4    1 -0.5119137E-019  0.1490566E+02  0.7818608E-02  0.1870961E+00
          2   -1    0    0  501    0  0.00000000000E+00  0.00000000000E+00  0.11869664004E+03  0.11869664007E+03  0.25500000000E-02 0.  1.
         -2   -1    0    0    0  501 -0.00000000000E+00 -0.00000000000E+00 -0.46795169070E+00  0.46795863849E+00  0.25500000000E-02 0. -1.
         31    1    1    2    0    0 -0.28747159198E+00 -0.55256583105E-01  0.59190070213E+02  0.59657430644E+02  0.74470750000E+01 0.  1.
        -31    1    1    2    0    0  0.28747159198E+00  0.55256583105E-01  0.59038618135E+02  0.59507168060E+02  0.74470750000E+01 0.  1.
<mgrwt>
<rscale>  0 0.14905665E+02</rscale>
<asrwt>0</asrwt>
<pdfrwt beam="1">  1        2 0.98533628E+00 0.14905665E+02</pdfrwt>
<pdfrwt beam="2">  1       -2 0.99385402E+00 0.14905665E+02</pdfrwt>
<totfact>-0.31847070E-13</totfact>
</mgrwt>
</event>
<event>
 4    1  0.5119137E-019  0.1490888E+02  0.7818608E-02  0.1870862E+00
          2   -1    0    0  501    0  0.00000000000E+00  0.00000000000E+00  0.12039098661E+03  0.12039098664E+03  0.25500000000E-02 0.  1.
         -2   -1    0    0    0  501 -0.00000000000E+00 -0.00000000000E+00 -0.46156484490E+00  0.46157188882E+00  0.25500000000E-02 0. -1.
         31    1    1    2    0    0  0.26800018009E+00 -0.14037547152E+00  0.58870573159E+02  0.59340499151E+02  0.74470750000E+01 0. -1.
        -31    1    1    2    0    0 -0.26800018009E+00  0.14037547152E+00  0.61058848608E+02  0.61512059377E+02  0.74470750000E+01 0.  1.
<mgrwt>
<rscale>  0 0.14908880E+02</rscale>
<asrwt>0</asrwt>
<pdfrwt beam="1">  1        2 0.99929351E+00 0.14908880E+02</pdfrwt>
<pdfrwt beam="2">  1       -2 0.98039558E+00 0.14908880E+02</pdfrwt>
<totfact> 0.29600726E-13</totfact>
</mgrwt>
</event>
<event>
 4    1 -0.5119137E-019  0.1491028E+02  0.7818608E-02  0.1870819E+00
         -2   -1    0    0    0  501 -0.00000000000E+00  0.00000000000E+00  0.12036005755E+03  0.12036005758E+03  0.25500000000E-02 0. -1.
          2   -1    0    0  501    0  0.00000000000E+00 -0.00000000000E+00 -0.46177023840E+00  0.46177727918E+00  0.25500000000E-02 0.  1.
         31    1    1    2    0    0 -0.68995595232E-01  0.70279416392E-01  0.62642715431E+02  0.63083899865E+02  0.74470750000E+01 0. -1.
        -31    1    1    2    0    0  0.68995595232E-01 -0.70279416392E-01  0.57255571885E+02  0.57737934996E+02  0.74470750000E+01 0.  1.
<mgrwt>
<rscale>  0 0.14910281E+02</rscale>
<asrwt>0</asrwt>
<pdfrwt beam="2">  1        2 0.98082921E+00 0.14910281E+02</pdfrwt>
<pdfrwt beam="1">  1       -2 0.99903947E+00 0.14910281E+02</pdfrwt>
<totfact>-0.21861803E-13</totfact>
</mgrwt>
</event>
<event>
 4    1 -0.5119137E-019  0.1498258E+02  0.7818608E-02  0.1868601E+00
         -2   -1    0    0    0  501 -0.00000000000E+00  0.00000000000E+00  0.12036359112E+03  0.12036359115E+03  0.25500000000E-02 0.  1.
          2   -1    0    0  501    0  0.00000000000E+00 -0.00000000000E+00 -0.46624563174E+00  0.46625260494E+00  0.25500000000E-02 0. -1.
         31    1    1    2    0    0  0.50909741350E+00  0.50320921452E+00  0.56845121471E+02  0.57335322104E+02  0.74470750000E+01 0. -1.
        -31    1    1    2    0    0 -0.50909741350E+00 -0.50320921452E+00  0.63052224016E+02  0.63494521647E+02  0.74470750000E+01 0.  1.
<mgrwt>
<rscale>  0 0.14982579E+02</rscale>
<asrwt>0</asrwt>
<pdfrwt beam="2">  1        2 0.99029852E+00 0.14982579E+02</pdfrwt>
<pdfrwt beam="1">  1       -2 0.99910569E+00 0.14982579E+02</pdfrwt>
<totfact>-0.50948484E-14</totfact>
</mgrwt>
</event>
<event>
 4    1  0.5119137E-019  0.1491828E+02  0.7818608E-02  0.1870573E+00
         -2   -1    0    0    0  501 -0.00000000000E+00  0.00000000000E+00  0.11843936874E+03  0.11843936877E+03  0.25500000000E-02 0.  1.
          2   -1    0    0  501    0  0.00000000000E+00 -0.00000000000E+00 -0.46976221483E+00  0.46976913583E+00  0.25500000000E-02 0. -1.
         31    1    1    2    0    0 -0.10694109622E+00  0.27673700497E+00  0.56569700780E+02  0.57058548809E+02  0.74470750000E+01 0. -1.
        -31    1    1    2    0    0  0.10694109622E+00 -0.27673700497E+00  0.61399905745E+02  0.61850589095E+02  0.74470750000E+01 0.  1.
<mgrwt>
<rscale>  0 0.14918278E+02</rscale>
<asrwt>0</asrwt>
<pdfrwt beam="2">  1        2 0.99767552E+00 0.14918278E+02</pdfrwt>
<pdfrwt beam="1">  1       -2 0.98322395E+00 0.14918278E+02</pdfrwt>
<totfact> 0.46663324E-13</totfact>
</mgrwt>
</event>
<event>
 4    1  0.5119137E-019  0.1490373E+02  0.7818608E-02  0.1871021E+00
          2   -1    0    0  501    0  0.00000000000E+00  0.00000000000E+00  0.12010385824E+03  0.12010385827E+03  0.25500000000E-02 0. -1.
         -2   -1    0    0    0  501 -0.00000000000E+00 -0.00000000000E+00 -0.46234868613E+00  0.46235571811E+00  0.25500000000E-02 0.  1.
         31    1    1    2    0    0 -0.24253977843E+00  0.79256113090E-01  0.59181033043E+02  0.59648291721E+02  0.74470750000E+01 0. -1.
        -31    1    1    2    0    0  0.24253977843E+00 -0.79256113090E-01  0.60460476511E+02  0.60917922265E+02  0.74470750000E+01 0.  1.
<mgrwt>
<rscale>  0 0.14903729E+02</rscale>
<asrwt>0</asrwt>
<pdfrwt beam="1">  1        2 0.99692581E+00 0.14903729E+02</pdfrwt>
<pdfrwt beam="2">  1       -2 0.98204514E+00 0.14903729E+02</pdfrwt>
<totfact> 0.72989646E-13</totfact>
</mgrwt>
</event>
<event>
 4    1  0.5119137E-019  0.1491308E+02  0.7818608E-02  0.1870732E+00
          2   -1    0    0  501    0  0.00000000000E+00  0.00000000000E+00  0.11974388622E+03  0.11974388625E+03  0.25500000000E-02 0. -1.
         -2   -1    0    0    0  501 -0.00000000000E+00 -0.00000000000E+00 -0.46432094767E+00  0.46432794978E+00  0.25500000000E-02 0.  1.
         31    1    1    2    0    0 -0.25471202187E+00  0.38039833925E-01  0.61843817790E+02  0.62291115339E+02  0.74470750000E+01 0. -1.
        -31    1    1    2    0    0  0.25471202187E+00 -0.38039833925E-01  0.57435747483E+02  0.57917098859E+02  0.74470750000E+01 0.  1.
<mgrwt>
<rscale>  0 0.14913084E+02</rscale>
<asrwt>0</asrwt>
<pdfrwt beam="1">  1        2 0.99396562E+00 0.14913084E+02</pdfrwt>
<pdfrwt beam="2">  1       -2 0.98620668E+00 0.14913084E+02</pdfrwt>
<totfact> 0.36489287E-13</totfact>
</mgrwt>
</event>
<event>
 4    1 -0.5119137E-019  0.1494082E+02  0.7818608E-02  0.1869880E+00
          2   -1    0    0  501    0  0.00000000000E+00  0.00000000000E+00  0.11948882732E+03  0.11948882735E+03  0.25500000000E-02 0. -1.
         -2   -1    0    0    0  501 -0.00000000000E+00 -0.00000000000E+00 -0.46704431329E+00  0.46705127457E+00  0.25500000000E-02 0.  1.
         31    1    1    2    0    0 -0.32539342589E+00 -0.46111779245E+00  0.60891271696E+02  0.61347570492E+02  0.74470750000E+01 0. -1.
        -31    1    1    2    0    0  0.32539342589E+00  0.46111779245E+00  0.58130511315E+02  0.58608308134E+02  0.74470750000E+01 0. -1.
<mgrwt>
<rscale>  0 0.14940816E+02</rscale>
<asrwt>0</asrwt>
<pdfrwt beam="1">  1        2 0.99187913E+00 0.14940816E+02</pdfrwt>
<pdfrwt beam="2">  1       -2 0.99196025E+00 0.14940816E+02</pdfrwt>
<totfact>-0.99295192E-14</totfact>
</mgrwt>
</event>
<event>
 4    1  0.5119137E-019  0.1492766E+02  0.7818608E-02  0.1870284E+00
          2   -1    0    0  501    0  0.00000000000E+00  0.00000000000E+00  0.11990527526E+03  0.11990527528E+03  0.25500000000E-02 0. -1.
         -2   -1    0    0    0  501 -0.00000000000E+00 -0.00000000000E+00 -0.46460274715E+00  0.46460974501E+00  0.25500000000E-02 0.  1.
         31    1    1    2    0    0  0.90564762655E-01  0.46404995689E+00  0.58413327786E+02  0.58888023684E+02  0.74470750000E+01 0. -1.
        -31    1    1    2    0    0 -0.90564762655E-01 -0.46404995689E+00  0.61027344724E+02  0.61481861345E+02  0.74470750000E+01 0. -1.
<mgrwt>
<rscale>  0 0.14927658E+02</rscale>
<asrwt>0</asrwt>
<pdfrwt beam="1">  1        2 0.99530243E+00 0.14927658E+02</pdfrwt>
<pdfrwt beam="2">  1       -2 0.98680802E+00 0.14927658E+02</pdfrwt>
<totfact> 0.25718765E-13</totfact>
</mgrwt>
</event>
<event>
 4    1  0.5119137E-019  0.1490252E+02  0.7818608E-02  0.1871058E+00
          2   -1    0    0  501    0  0.00000000000E+00  0.00000000000E+00  0.11991139008E+03  0.11991139011E+03  0.25500000000E-02 0.  1.
         -2   -1    0    0    0  501 -0.00000000000E+00 -0.00000000000E+00 -0.46301580035E+00  0.46302282220E+00  0.25500000000E-02 0. -1.
         31    1    1    2    0    0 -0.17243284040E+00  0.16325801568E+00  0.59099544299E+02  0.59567368993E+02  0.74470750000E+01 0. -1.
        -31    1    1    2    0    0  0.17243284040E+00 -0.16325801568E+00  0.60348829979E+02  0.60807043936E+02  0.74470750000E+01 0.  1.
<mgrwt>
<rscale>  0 0.14902522E+02</rscale>
<asrwt>0</asrwt>
<pdfrwt beam="1">  1        2 0.99533987E+00 0.14902522E+02</pdfrwt>
<pdfrwt beam="2">  1       -2 0.98345058E+00 0.14902522E+02</pdfrwt>
<totfact> 0.69334697E-13</totfact>
</mgrwt>
</event>
<event>
 4    1  0.5119137E-019  0.1492148E+02  0.7818608E-02  0.1870474E+00
         -2   -1    0    0    0  501 -0.00000000000E+00  0.00000000000E+00  0.11893637930E+03  0.11893637932E+03  0.25500000000E-02 0.  1.
          2   -1    0    0  501    0  0.00000000000E+00 -0.00000000000E+00 -0.46799972964E+00  0.46800667670E+00  0.25500000000E-02 0. -1.
         31    1    1    2    0    0  0.26728043455E+00  0.33045580211E+00  0.60448936467E+02  0.60907417330E+02  0.74470750000E+01 0.  1.
        -31    1    1    2    0    0 -0.26728043455E+00 -0.33045580211E+00  0.58019443100E+02  0.58496968670E+02  0.74470750000E+01 0. -1.
<mgrwt>
<rscale>  0 0.14921476E+02</rscale>
<asrwt>0</asrwt>
<pdfrwt beam="2">  1        2 0.99396351E+00 0.14921476E+02</pdfrwt>
<pdfrwt beam="1">  1       -2 0.98731901E+00 0.14921476E+02</pdfrwt>
<totfact> 0.23486596E-13</totfact>
</mgrwt>
</event>
<event>
 4    1  0.5119137E-019  0.1489966E+02  0.7818608E-02  0.1871146E+00
          2   -1    0    0  501    0  0.00000000000E+00  0.00000000000E+00  0.11959417836E+03  0.11959417839E+03  0.25500000000E-02 0. -1.
         -2   -1    0    0    0  501 -0.00000000000E+00 -0.00000000000E+00 -0.46406579121E+00  0.46407279716E+00  0.25500000000E-02 0.  1.
         31    1    1    2    0    0 -0.10962029131E-01  0.72992499168E-01  0.58044395017E+02  0.58520220155E+02  0.74470750000E+01 0.  1.
        -31    1    1    2    0    0  0.10962029131E-01 -0.72992499168E-01  0.61085717555E+02  0.61538031032E+02  0.74470750000E+01 0. -1.
<mgrwt>
<rscale>  0 0.14899663E+02</rscale>
<asrwt>0</asrwt>
<pdfrwt beam="1">  1        2 0.99272562E+00 0.14899663E+02</pdfrwt>
<pdfrwt beam="2">  1       -2 0.98566207E+00 0.14899663E+02</pdfrwt>
<totfact> 0.47930510E-13</totfact>
</mgrwt>
</event>
<event>
 4    1  0.5119137E-019  0.1491873E+02  0.7818608E-02  0.1870559E+00
         -2   -1    0    0    0  501 -0.00000000000E+00  0.00000000000E+00  0.11867406563E+03  0.11867406566E+03  0.25500000000E-02 0. -1.
          2   -1    0    0  501    0  0.00000000000E+00 -0.00000000000E+00 -0.46886153483E+00  0.46886846912E+00  0.25500000000E-02 0.  1.
         31    1    1    2    0    0  0.24507209312E+00 -0.13640058318E+00  0.56520625418E+02  0.57009812218E+02  0.74470750000E+01 0.  1.
        -31    1    1    2    0    0 -0.24507209312E+00  0.13640058318E+00  0.61684578682E+02  0.62133121913E+02  0.74470750000E+01 0.  1.
<mgrwt>
<rscale>  0 0.14918729E+02</rscale>
<asrwt>0</asrwt>
<pdfrwt beam="2">  1        2 0.99577800E+00 0.14918729E+02</pdfrwt>
<pdfrwt beam="1">  1       -2 0.98515714E+00 0.14918729E+02</pdfrwt>
<totfact> 0.42302628E-13</totfact>
</mgrwt>
</event>
<event>
 4    1 -0.5119137E-019  0.1495065E+02  0.7818608E-02  0.1869578E+00
         -2   -1    0    0    0  501 -0.00000000000E+00  0.00000000000E+00  0.12009426794E+03  0.12009426796E+03  0.25500000000E-02 0.  1.
          2   -1    0    0  501    0  0.00000000000E+00 -0.00000000000E+00 -0.46530172350E+00  0.46530871085E+00  0.25500000000E-02 0. -1.
         31    1    1    2    0    0  0.28184258421E+00  0.50757764575E+00  0.57470467511E+02  0.57953866414E+02  0.74470750000E+01 0. -1.
        -31    1    1    2    0    0 -0.28184258421E+00 -0.50757764575E+00  0.62158498703E+02  0.62605710262E+02  0.74470750000E+01 0.  1.
<mgrwt>
<rscale>  0 0.14950651E+02</rscale>
<asrwt>0</asrwt>
<pdfrwt beam="2">  1        2 0.98829289E+00 0.14950651E+02</pdfrwt>
<pdfrwt beam="1">  1       -2 0.99687093E+00 0.14950651E+02</pdfrwt>
<totfact>-0.17702309E-13</totfact>
</mgrwt>
</event>
<event>
 4    1  0.5119137E-019  0.1492482E+02  0.7818608E-02  0.1870371E+00
         -2   -1    0    0    0  501 -0.00000000000E+00  0.00000000000E+00  0.11880541564E+03  0.11880541567E+03  0.25500000000E-02 0. -1.
          2   -1    0    0  501    0  0.00000000000E+00 -0.00000000000E+00 -0.46872576617E+00  0.46873270248E+00  0.25500000000E-02 0.  1.
         31    1    1    2    0    0  0.91249560882E-01 -0.44455959200E+00  0.57964571301E+02  0.58442761843E+02  0.74470750000E+01 0. -1.
        -31    1    1    2    0    0 -0.91249560882E-01  0.44455959200E+00  0.60372118577E+02  0.60831386531E+02  0.74470750000E+01 0.  1.
<mgrwt>
<rscale>  0 0.14924822E+02</rscale>
<asrwt>0</asrwt>
<pdfrwt beam="2">  1        2 0.99549512E+00 0.14924822E+02</pdfrwt>
<pdfrwt beam="1">  1       -2 0.98624211E+00 0.14924822E+02</pdfrwt>
<totfact> 0.31058045E-13</totfact>
</mgrwt>
</event>
<event>
 4    1  0.5119137E-019  0.1494155E+02  0.7818608E-02  0.1869857E+00
         -2   -1    0    0    0  501 -0.00000000000E+00  0.00000000000E+00  0.11864648282E+03  0.11864648285E+03  0.25500000000E-02 0. -1.
          2   -1    0    0  501    0  0.00000000000E+00 -0.00000000000E+00 -0.47040658855E+00  0.47041350008E+00  0.25500000000E-02 0.  1.
         31    1    1    2    0    0  0.53749466330E+00 -0.17160028370E-01  0.61110830522E+02  0.61565263973E+02  0.74470750000E+01 0. -1.
        -31    1    1    2    0    0 -0.53749466330E+00  0.17160028370E-01  0.57065245712E+02  0.57551632377E+02  0.74470750000E+01 0.  1.
<mgrwt>
<rscale>  0 0.14941553E+02</rscale>
<asrwt>0</asrwt>
<pdfrwt beam="2">  1        2 0.99904550E+00 0.14941553E+02</pdfrwt>
<pdfrwt beam="1">  1       -2 0.98494184E+00 0.14941553E+02</pdfrwt>
<totfact> 0.14504846E-13</totfact>
</mgrwt>
</event>
<event>
 4    1 -0.5119137E-019  0.1497932E+02  0.7818608E-02  0.1868700E+00
          2   -1    0    0  501    0  0.00000000000E+00  0.00000000000E+00  0.11976311576E+03  0.11976311579E+03  0.25500000000E-02 0. -1.
         -2   -1    0    0    0  501 -0.00000000000E+00 -0.00000000000E+00 -0.46837970952E+00  0.46838665095E+00  0.25500000000E-02 0.  1.
         31    1    1    2    0    0 -0.28792628082E+00  0.31356108193E+00  0.65060847262E+02  0.65487052115E+02  0.74470750000E+01 0. -1.
        -31    1    1    2    0    0  0.28792628082E+00 -0.31356108193E+00  0.54233888789E+02  0.54744450324E+02  0.74470750000E+01 0.  1.
<mgrwt>
<rscale>  0 0.14979323E+02</rscale>
<asrwt>0</asrwt>
<pdfrwt beam="1">  1        2 0.99415818E+00 0.14979323E+02</pdfrwt>
<pdfrwt beam="2">  1       -2 0.99479429E+00 0.14979323E+02</pdfrwt>
<totfact>-0.12924256E-13</totfact>
</mgrwt>
</event>
<event>
 4    1 -0.5119137E-019  0.1493829E+02  0.7818608E-02  0.1869958E+00
         -2   -1    0    0    0  501 -0.00000000000E+00  0.00000000000E+00  0.12016450444E+03  0.12016450446E+03  0.25500000000E-02 0.  1.
          2   -1    0    0  501    0  0.00000000000E+00 -0.00000000000E+00 -0.46426095278E+00  0.46426795580E+00  0.25500000000E-02 0. -1.
         31    1    1    2    0    0  0.17769933243E+00  0.39024823731E+00  0.62928376918E+02  0.63368946798E+02  0.74470750000E+01 0.  1.
        -31    1    1    2    0    0 -0.17769933243E+00 -0.39024823731E+00  0.56771866566E+02  0.57259825622E+02  0.74470750000E+01 0. -1.
<mgrwt>
<rscale>  0 0.14938288E+02</rscale>
<asrwt>0</asrwt>
<pdfrwt beam="2">  1        2 0.98609307E+00 0.14938288E+02</pdfrwt>
<pdfrwt beam="1">  1       -2 0.99744309E+00 0.14938288E+02</pdfrwt>
<totfact>-0.20962779E-13</totfact>
</mgrwt>
</event>
<event>
 4    1 -0.5119137E-019  0.1496002E+02  0.7818608E-02  0.1869291E+00
         -2   -1    0    0    0  501 -0.00000000000E+00  0.00000000000E+00  0.12038357729E+03  0.12038357732E+03  0.25500000000E-02 0.  1.
          2   -1    0    0  501    0  0.00000000000E+00 -0.00000000000E+00 -0.46476568664E+00  0.46477268205E+00  0.25500000000E-02 0. -1.
         31    1    1    2    0    0 -0.34312430216E+00  0.60511039087E+00  0.60671073444E+02  0.61130368654E+02  0.74470750000E+01 0. -1.
        -31    1    1    2    0    0  0.34312430216E+00 -0.60511039087E+00  0.59247738158E+02  0.59717981344E+02  0.74470750000E+01 0.  1.
<mgrwt>
<rscale>  0 0.14960024E+02</rscale>
<asrwt>0</asrwt>
<pdfrwt beam="2">  1        2 0.98716791E+00 0.14960024E+02</pdfrwt>
<pdfrwt beam="1">  1       -2 0.99925871E+00 0.14960024E+02</pdfrwt>
<totfact>-0.61406350E-14</totfact>
</mgrwt>
</event>
<event>
 4    1  0.5119137E-019  0.1493520E+02  0.7818608E-02  0.1870052E+00
          2   -1    0    0  501    0  0.00000000000E+00  0.00000000000E+00  0.12040233531E+03  0.12040233534E+03  0.25500000000E-02 0.  1.
         -2   -1    0    0    0  501 -0.00000000000E+00 -0.00000000000E+00 -0.46315208746E+00  0.46315910724E+00  0.25500000000E-02 0. -1.
         31    1    1    2    0    0  0.55311740093E+00 -0.10363881237E-01  0.60024756146E+02  0.60487488977E+02  0.74470750000E+01 0. -1.
        -31    1    1    2    0    0 -0.55311740093E+00  0.10363881237E-01  0.59914427079E+02  0.60378005470E+02  0.74470750000E+01 0. -1.
<mgrwt>
<rscale>  0 0.14935196E+02</rscale>
<asrwt>0</asrwt>
<pdfrwt beam="1">  1        2 0.99940047E+00 0.14935196E+02</pdfrwt>
<pdfrwt beam="2">  1       -2 0.98375438E+00 0.14935196E+02</pdfrwt>
<totfact> 0.12880472E-13</totfact>
</mgrwt>
</event>
<event>
 4    1  0.5119137E-019  0.1490033E+02  0.7818608E-02  0.1871125E+00
         -2   -1    0    0    0  501 -0.00000000000E+00  0.00000000000E+00  0.11894910820E+03  0.11894910823E+03  0.25500000000E-02 0. -1.
          2   -1    0    0  501    0  0.00000000000E+00 -0.00000000000E+00 -0.46662444787E+00  0.46663141542E+00  0.25500000000E-02 0.  1.
         31    1    1    2    0    0 -0.10036500765E+00 -0.15983695351E+00  0.58422662512E+02  0.58895687805E+02  0.74470750000E+01 0. -1.
        -31    1    1    2    0    0  0.10036500765E+00  0.15983695351E+00  0.60059821244E+02  0.60520051841E+02  0.74470750000E+01 0. -1.
<mgrwt>
<rscale>  0 0.14900333E+02</rscale>
<asrwt>0</asrwt>
<pdfrwt beam="2">  1        2 0.99105449E+00 0.14900333E+02</pdfrwt>
<pdfrwt beam="1">  1       -2 0.98741289E+00 0.14900333E+02</pdfrwt>
<totfact> 0.27947416E-13</totfact>
</mgrwt>
</event>
<event>
 4    1  0.5119137E-019  0.1491819E+02  0.7818608E-02  0.1870575E+00
         -2   -1    0    0    0  501 -0.00000000000E+00  0.00000000000E+00  0.11864117888E+03  0.11864117890E+03  0.25500000000E-02 0. -1.
          2   -1    0    0  501    0  0.00000000000E+00 -0.00000000000E+00 -0.46895730242E+00  0.46896423530E+00  0.25500000000E-02 0.  1.
         31    1    1    2    0    0 -0.13234464342E-01 -0.10547364842E+00  0.55815151875E+02  0.56309869515E+02  0.74470750000E+01 0.  1.
        -31    1    1    2    0    0  0.13234464342E-01  0.10547364842E+00  0.62357069699E+02  0.62800273625E+02  0.74470750000E+01 0. -1.
<mgrwt>
<rscale>  0 0.14918185E+02</rscale>
<asrwt>0</asrwt>
<pdfrwt beam="2">  1        2 0.99597951E+00 0.14918185E+02</pdfrwt>
<pdfrwt beam="1">  1       -2 0.98488600E+00 0.14918185E+02</pdfrwt>
<totfact> 0.44421399E-13</totfact>
</mgrwt>
</event>
<event>
 4    1 -0.5119137E-019  0.1492570E+02  0.7818608E-02  0.1870344E+00
          2   -1    0    0  501    0  0.00000000000E+00  0.00000000000E+00  0.11847491089E+03  0.11847491092E+03  0.25500000000E-02 0.  1.
         -2   -1    0    0    0  501 -0.00000000000E+00 -0.00000000000E+00 -0.47008881436E+00  0.47009573055E+00  0.25500000000E-02 0. -1.
         31    1    1    2    0    0  0.36762149297E+00 -0.15069322578E-01  0.56484305992E+02  0.56974302296E+02  0.74470750000E+01 0. -1.
        -31    1    1    2    0    0 -0.36762149297E+00  0.15069322578E-01  0.61520516085E+02  0.61970704353E+02  0.74470750000E+01 0.  1.
<mgrwt>
<rscale>  0 0.14925702E+02</rscale>
<asrwt>0</asrwt>
<pdfrwt beam="1">  1        2 0.98352054E+00 0.14925702E+02</pdfrwt>
<pdfrwt beam="2">  1       -2 0.99836758E+00 0.14925702E+02</pdfrwt>
<totfact>-0.22274951E-13</totfact>
</mgrwt>
</event>
<event>
 4    1 -0.5119137E-019  0.1498845E+02  0.7818608E-02  0.1868421E+00
         -2   -1    0    0    0  501 -0.00000000000E+00  0.00000000000E+00  0.12018274423E+03  0.12018274426E+03  0.25500000000E-02 0. -1.
          2   -1    0    0  501    0  0.00000000000E+00 -0.00000000000E+00 -0.46731302453E+00  0.46731998181E+00  0.25500000000E-02 0.  1.
         31    1    1    2    0    0 -0.18667956080E+00  0.31273929756E+00  0.65944581180E+02  0.66364744919E+02  0.74470750000E+01 0. -1.
        -31    1    1    2    0    0  0.18667956080E+00 -0.31273929756E+00  0.53770850029E+02  0.54285319324E+02  0.74470750000E+01 0.  1.
<mgrwt>
<rscale>  0 0.14988447E+02</rscale>
<asrwt>0</asrwt>
<pdfrwt beam="2">  1        2 0.99255106E+00 0.14988447E+02</pdfrwt>
<pdfrwt beam="1">  1       -2 0.99761915E+00 0.14988447E+02</pdfrwt>
<totfact>-0.99052530E-14</totfact>
</mgrwt>
</event>
<event>
 4    1 -0.5119137E-019  0.1498164E+02  0.7818608E-02  0.1868629E+00
          2   -1    0    0  501    0  0.00000000000E+00  0.00000000000E+00  0.11925652526E+03  0.11925652529E+03  0.25500000000E-02 0. -1.
         -2   -1    0    0    0  501 -0.00000000000E+00 -0.00000000000E+00 -0.47051461526E+00  0.47052152520E+00  0.25500000000E-02 0.  1.
         31    1    1    2    0    0 -0.31497861494E+00  0.74025960583E+00  0.60023860962E+02  0.60489420618E+02  0.74470750000E+01 0. -1.
        -31    1    1    2    0    0  0.31497861494E+00 -0.74025960583E+00  0.58762149685E+02  0.59237626197E+02  0.74470750000E+01 0.  1.
<mgrwt>
<rscale>  0 0.14981636E+02</rscale>
<asrwt>0</asrwt>
<pdfrwt beam="1">  1        2 0.98998699E+00 0.14981636E+02</pdfrwt>
<pdfrwt beam="2">  1       -2 0.99929421E+00 0.14981636E+02</pdfrwt>
<totfact>-0.42021821E-14</totfact>
</mgrwt>
</event>
<event>
 4    1 -0.5119137E-019  0.1495565E+02  0.7818608E-02  0.1869425E+00
          2   -1    0    0  501    0  0.00000000000E+00  0.00000000000E+00  0.11935411824E+03  0.11935411827E+03  0.25500000000E-02 0.  1.
         -2   -1    0    0    0  501 -0.00000000000E+00 -0.00000000000E+00 -0.46850022164E+00  0.46850716129E+00  0.25500000000E-02 0. -1.
         31    1    1    2    0    0  0.19201388244E+00 -0.38485163307E+00  0.55249440937E+02  0.55750736587E+02  0.74470750000E+01 0. -1.
        -31    1    1    2    0    0 -0.19201388244E+00  0.38485163307E+00  0.63636177085E+02  0.64071888845E+02  0.74470750000E+01 0.  1.
<mgrwt>
<rscale>  0 0.14955648E+02</rscale>
<asrwt>0</asrwt>
<pdfrwt beam="1">  1        2 0.99077730E+00 0.14955648E+02</pdfrwt>
<pdfrwt beam="2">  1       -2 0.99503596E+00 0.14955648E+02</pdfrwt>
<totfact>-0.16637562E-13</totfact>
</mgrwt>
</event>
<event>
 4    1 -0.5119137E-019  0.1499997E+02  0.7818608E-02  0.1868069E+00
         -2   -1    0    0    0  501 -0.00000000000E+00  0.00000000000E+00  0.12016438261E+03  0.12016438263E+03  0.25500000000E-02 0. -1.
          2   -1    0    0  501    0  0.00000000000E+00 -0.00000000000E+00 -0.46810352555E+00  0.46811047107E+00  0.25500000000E-02 0.  1.
         31    1    1    2    0    0  0.71274177805E+00  0.16597749298E+00  0.63911759642E+02  0.64348329395E+02  0.74470750000E+01 0. -1.
        -31    1    1    2    0    0 -0.71274177805E+00 -0.16597749298E+00  0.55784519438E+02  0.56284163709E+02  0.74470750000E+01 0.  1.
<mgrwt>
<rscale>  0 0.14999972E+02</rscale>
<asrwt>0</asrwt>
<pdfrwt beam="2">  1        2 0.99422292E+00 0.14999972E+02</pdfrwt>
<pdfrwt beam="1">  1       -2 0.99747386E+00 0.14999972E+02</pdfrwt>
<totfact>-0.91237357E-14</totfact>
</mgrwt>
</event>
<event>
 4    1  0.5119137E-019  0.1492256E+02  0.7818608E-02  0.1870441E+00
         -2   -1    0    0    0  501 -0.00000000000E+00  0.00000000000E+00  0.11857677834E+03  0.11857677837E+03  0.25500000000E-02 0. -1.
          2   -1    0    0  501    0  0.00000000000E+00 -0.00000000000E+00 -0.46948747117E+00  0.46949439623E+00  0.25500000000E-02 0.  1.
         31    1    1    2    0    0 -0.33607908227E+00  0.98153952321E-01  0.56670808605E+02  0.57159094267E+02  0.74470750000E+01 0.  1.
        -31    1    1    2    0    0  0.33607908227E+00 -0.98153952321E-01  0.61436482262E+02  0.61887178496E+02  0.74470750000E+01 0.  1.
<mgrwt>
<rscale>  0 0.14922564E+02</rscale>
<asrwt>0</asrwt>
<pdfrwt beam="2">  1        2 0.99709890E+00 0.14922564E+02</pdfrwt>
<pdfrwt beam="1">  1       -2 0.98435788E+00 0.14922564E+02</pdfrwt>
<totfact> 0.41609508E-13</totfact>
</mgrwt>
</event>
<event>
 4    1 -0.5119137E-019  0.1496264E+02  0.7818608E-02  0.1869211E+00
         -2   -1    0    0    0  501 -0.00000000000E+00  0.00000000000E+00  0.11978681524E+03  0.11978681527E+03  0.25500000000E-02 0.  1.
          2   -1    0    0  501    0  0.00000000000E+00 -0.00000000000E+00 -0.46724430259E+00  0.46725126089E+00  0.25500000000E-02 0. -1.
         31    1    1    2    0    0 -0.50002491084E-01  0.41800353491E+00  0.55015191392E+02  0.55518532376E+02  0.74470750000E+01 0. -1.
        -31    1    1    2    0    0  0.50002491084E-01 -0.41800353491E+00  0.64304379545E+02  0.64735534152E+02  0.74470750000E+01 0.  1.
<mgrwt>
<rscale>  0 0.14962637E+02</rscale>
<asrwt>0</asrwt>
<pdfrwt beam="2">  1        2 0.99239297E+00 0.14962637E+02</pdfrwt>
<pdfrwt beam="1">  1       -2 0.99434476E+00 0.14962637E+02</pdfrwt>
<totfact>-0.14647085E-13</totfact>
</mgrwt>
</event>
<event>
 4    1 -0.5119137E-019  0.1499765E+02  0.7818608E-02  0.1868140E+00
          2   -1    0    0  501    0  0.00000000000E+00  0.00000000000E+00  0.11990576290E+03  0.11990576292E+03  0.25500000000E-02 0. -1.
         -2   -1    0    0    0  501 -0.00000000000E+00 -0.00000000000E+00 -0.46896805495E+00  0.46897498767E+00  0.25500000000E-02 0.  1.
         31    1    1    2    0    0  0.79872247688E+00 -0.63683366351E-01  0.56808378544E+02  0.57300024538E+02  0.74470750000E+01 0.  1.
        -31    1    1    2    0    0 -0.79872247688E+00  0.63683366351E-01  0.62628416297E+02  0.63074713374E+02  0.74470750000E+01 0. -1.
<mgrwt>
<rscale>  0 0.14997652E+02</rscale>
<asrwt>0</asrwt>
<pdfrwt beam="1">  1        2 0.99534255E+00 0.14997652E+02</pdfrwt>
<pdfrwt beam="2">  1       -2 0.99604361E+00 0.14997652E+02</pdfrwt>
<totfact>-0.10734312E-13</totfact>
</mgrwt>
</event>
<event>
 4    1 -0.5119137E-019  0.1492875E+02  0.7818608E-02  0.1870250E+00
          2   -1    0    0  501    0  0.00000000000E+00  0.00000000000E+00  0.11888322272E+03  0.11888322275E+03  0.25500000000E-02 0.  1.
         -2   -1    0    0    0  501 -0.00000000000E+00 -0.00000000000E+00 -0.46866576111E+00  0.46867269831E+00  0.25500000000E-02 0. -1.
         31    1    1    2    0    0 -0.28961095797E+00 -0.72099279898E-01  0.55921508965E+02  0.56415983230E+02  0.74470750000E+01 0.  1.
        -31    1    1    2    0    0  0.28961095797E+00  0.72099279898E-01  0.62493047994E+02  0.62935912216E+02  0.74470750000E+01 0.  1.
<mgrwt>
<rscale>  0 0.14928752E+02</rscale>
<asrwt>0</asrwt>
<pdfrwt beam="1">  1        2 0.98688498E+00 0.14928752E+02</pdfrwt>
<pdfrwt beam="2">  1       -2 0.99537075E+00 0.14928752E+02</pdfrwt>
<totfact>-0.25622268E-13</totfact>
</mgrwt>
</event>
<event>
 4    1  0.5119137E-019  0.1489964E+02  0.7818608E-02  0.1871147E+00
          2   -1    0    0  501    0  0.00000000000E+00  0.00000000000E+00  0.11963566360E+03  0.11963566363E+03  0.25500000000E-02 0. -1.
         -2   -1    0    0    0  501 -0.00000000000E+00 -0.00000000000E+00 -0.46390315990E+00  0.46391016831E+00  0.25500000000E-02 0.  1.
         31    1    1    2    0    0  0.19352432939E+00  0.30920140676E-01  0.59186813571E+02  0.59653803185E+02  0.74470750000E+01 0. -1.
        -31    1    1    2    0    0 -0.19352432939E+00 -0.30920140676E-01  0.59984946869E+02  0.60445770611E+02  0.74470750000E+01 0.  1.
<mgrwt>
<rscale>  0 0.14899636E+02</rscale>
<asrwt>0</asrwt>
<pdfrwt beam="1">  1        2 0.99306731E+00 0.14899636E+02</pdfrwt>
<pdfrwt beam="2">  1       -2 0.98531930E+00 0.14899636E+02</pdfrwt>
<totfact> 0.51935910E-13</totfact>
</mgrwt>
</event>
<event>
 4    1 -0.5119137E-019  0.1501675E+02  0.7818608E-02  0.1867558E+00
         -2   -1    0    0    0  501 -0.00000000000E+00  0.00000000000E+00  0.11991196442E+03  0.11991196445E+03  0.25500000000E-02 0. -1.
          2   -1    0    0  501    0  0.00000000000E+00 -0.00000000000E+00 -0.47013885537E+00  0.47014577083E+00  0.25500000000E-02 0.  1.
         31    1    1    2    0    0  0.38632220344E+00  0.42319574261E+00  0.53571523915E+02  0.54089698096E+02  0.74470750000E+01 0.  1.
        -31    1    1    2    0    0 -0.38632220344E+00 -0.42319574261E+00  0.65870301649E+02  0.66292412122E+02  0.74470750000E+01 0. -1.
<mgrwt>
<rscale>  0 0.15016750E+02</rscale>
<asrwt>0</asrwt>
<pdfrwt beam="2">  1        2 0.99852074E+00 0.15016750E+02</pdfrwt>
<pdfrwt beam="1">  1       -2 0.99540351E+00 0.15016750E+02</pdfrwt>
<totfact>-0.50534847E-14</totfact>
</mgrwt>
</event>
<event>
 4    1 -0.5119137E-019  0.1499173E+02  0.7818608E-02  0.1868321E+00
          2   -1    0    0  501    0  0.00000000000E+00  0.00000000000E+00  0.12013847489E+03  0.12013847491E+03  0.25500000000E-02 0.  1.
         -2   -1    0    0    0  501 -0.00000000000E+00 -0.00000000000E+00 -0.46769009411E+00  0.46769704578E+00  0.25500000000E-02 0. -1.
         31    1    1    2    0    0  0.44740827327E+00 -0.65979831090E+00  0.57374649691E+02  0.57861428095E+02  0.74470750000E+01 0. -1.
        -31    1    1    2    0    0 -0.44740827327E+00  0.65979831090E+00  0.62296135102E+02  0.62744743865E+02  0.74470750000E+01 0.  1.
<mgrwt>
<rscale>  0 0.14991730E+02</rscale>
<asrwt>0</asrwt>
<pdfrwt beam="1">  1        2 0.99725621E+00 0.14991730E+02</pdfrwt>
<pdfrwt beam="2">  1       -2 0.99334741E+00 0.14991730E+02</pdfrwt>
<totfact>-0.75905994E-14</totfact>
</mgrwt>
</event>
<event>
 4    1  0.5119137E-019  0.1490368E+02  0.7818608E-02  0.1871022E+00
         -2   -1    0    0    0  501 -0.00000000000E+00  0.00000000000E+00  0.11816771032E+03  0.11816771035E+03  0.25500000000E-02 0. -1.
          2   -1    0    0  501    0  0.00000000000E+00 -0.00000000000E+00 -0.46992142595E+00  0.46992834461E+00  0.25500000000E-02 0.  1.
         31    1    1    2    0    0 -0.10765941736E+00 -0.19124818007E+00  0.57645375994E+02  0.58124835191E+02  0.74470750000E+01 0.  1.
        -31    1    1    2    0    0  0.10765941736E+00  0.19124818007E+00  0.60052412905E+02  0.60512803506E+02  0.74470750000E+01 0. -1.
<mgrwt>
<rscale>  0 0.14903684E+02</rscale>
<asrwt>0</asrwt>
<pdfrwt beam="2">  1        2 0.99800324E+00 0.14903684E+02</pdfrwt>
<pdfrwt beam="1">  1       -2 0.98097900E+00 0.14903684E+02</pdfrwt>
<totfact> 0.65372237E-13</totfact>
</mgrwt>
</event>
<event>
 4    1 -0.5119137E-019  0.1492034E+02  0.7818608E-02  0.1870509E+00
          2   -1    0    0  501    0  0.00000000000E+00  0.00000000000E+00  0.11850480305E+03  0.11850480308E+03  0.25500000000E-02 0.  1.
         -2   -1    0    0    0  501 -0.00000000000E+00 -0.00000000000E+00 -0.46963255626E+00  0.46963947917E+00  0.25500000000E-02 0. -1.
         31    1    1    2    0    0 -0.42494905961E+00 -0.72078136932E-01  0.59791678435E+02  0.60255203203E+02  0.74470750000E+01 0.  1.
        -31    1    1    2    0    0  0.42494905961E+00  0.72078136932E-01  0.58243492061E+02  0.58719239356E+02  0.74470750000E+01 0.  1.
<mgrwt>
<rscale>  0 0.14920339E+02</rscale>
<asrwt>0</asrwt>
<pdfrwt beam="1">  1        2 0.98376393E+00 0.14920339E+02</pdfrwt>
<pdfrwt beam="2">  1       -2 0.99740342E+00 0.14920339E+02</pdfrwt>
<totfact>-0.30890147E-13</totfact>
</mgrwt>
</event>
<event>
 4    1  0.5119137E-019  0.1491171E+02  0.7818608E-02  0.1870775E+00
         -2   -1    0    0    0  501 -0.00000000000E+00  0.00000000000E+00  0.11898785353E+03  0.11898785356E+03  0.25500000000E-02 0.  1.
          2   -1    0    0  501    0  0.00000000000E+00 -0.00000000000E+00 -0.46718517941E+00  0.46719213859E+00  0.25500000000E-02 0. -1.
         31    1    1    2    0    0  0.77296182674E-01 -0.20412358481E+00  0.56949496329E+02  0.57434760375E+02  0.74470750000E+01 0. -1.
        -31    1    1    2    0    0 -0.77296182674E-01  0.20412358481E+00  0.61571172026E+02  0.62020285326E+02  0.74470750000E+01 0.  1.
<mgrwt>
<rscale>  0 0.14911711E+02</rscale>
<asrwt>0</asrwt>
<pdfrwt beam="2">  1        2 0.99224200E+00 0.14911711E+02</pdfrwt>
<pdfrwt beam="1">  1       -2 0.98773790E+00 0.14911711E+02</pdfrwt>
<totfact> 0.21757281E-13</totfact>
</mgrwt>
</event>
<event>
 4    1 -0.5119137E-019  0.1501790E+02  0.7818608E-02  0.1867523E+00
          2   -1    0    0  501    0  0.00000000000E+00  0.00000000000E+00  0.11991179368E+03  0.11991179371E+03  0.25500000000E-02 0.  1.
         -2   -1    0    0    0  501 -0.00000000000E+00 -0.00000000000E+00 -0.47021160118E+00  0.47021851557E+00  0.25500000000E-02 0. -1.
         31    1    1    2    0    0  0.28255254530E+00 -0.35505316971E+00  0.52921389918E+02  0.53444722243E+02  0.74470750000E+01 0.  1.
        -31    1    1    2    0    0 -0.28255254530E+00  0.35505316971E+00  0.66520192163E+02  0.66937289982E+02  0.74470750000E+01 0.  1.
<mgrwt>
<rscale>  0 0.15017901E+02</rscale>
<asrwt>0</asrwt>
<pdfrwt beam="1">  1        2 0.99540270E+00 0.15017901E+02</pdfrwt>
<pdfrwt beam="2">  1       -2 0.99867463E+00 0.15017901E+02</pdfrwt>
<totfact>-0.47859012E-14</totfact>
</mgrwt>
</event>
<event>
 4    1 -0.5119137E-019  0.1491687E+02  0.7818608E-02  0.1870616E+00
          2   -1    0    0  501    0  0.00000000000E+00  0.00000000000E+00  0.11911911603E+03  0.11911911605E+03  0.25500000000E-02 0. -1.
         -2   -1    0    0    0  501 -0.00000000000E+00 -0.00000000000E+00 -0.46699348846E+00  0.46700045050E+00  0.25500000000E-02 0.  1.
         31    1    1    2    0    0  0.13725096451E-01 -0.31832899868E+00  0.61413853187E+02  0.61864544055E+02  0.74470750000E+01 0. -1.
        -31    1    1    2    0    0 -0.13725096451E-01  0.31832899868E+00  0.57238269352E+02  0.57721572450E+02  0.74470750000E+01 0.  1.
<mgrwt>
<rscale>  0 0.14916872E+02</rscale>
<asrwt>0</asrwt>
<pdfrwt beam="1">  1        2 0.98882168E+00 0.14916872E+02</pdfrwt>
<pdfrwt beam="2">  1       -2 0.99184074E+00 0.14916872E+02</pdfrwt>
<totfact>-0.12496518E-13</totfact>
</mgrwt>
</event>
<event>
 4    1 -0.5119137E-019  0.1494412E+02  0.7818608E-02  0.1869778E+00
          2   -1    0    0  501    0  0.00000000000E+00  0.00000000000E+00  0.11873715087E+03  0.11873715090E+03  0.25500000000E-02 0.  1.
         -2   -1    0    0    0  501 -0.00000000000E+00 -0.00000000000E+00 -0.47020913945E+00  0.47021605387E+00  0.25500000000E-02 0. -1.
         31    1    1    2    0    0  0.50985992834E+00  0.33473386431E+00  0.58911071064E+02  0.59383038183E+02  0.74470750000E+01 0. -1.
        -31    1    1    2    0    0 -0.50985992834E+00 -0.33473386431E+00  0.59355870667E+02  0.59824328769E+02  0.74470750000E+01 0. -1.
<mgrwt>
<rscale>  0 0.14944124E+02</rscale>
<asrwt>0</asrwt>
<pdfrwt beam="1">  1        2 0.98568992E+00 0.14944124E+02</pdfrwt>
<pdfrwt beam="2">  1       -2 0.99863083E+00 0.14944124E+02</pdfrwt>
<totfact>-0.13412527E-13</totfact>
</mgrwt>
</event>
<event>
 4    1 -0.5119137E-019  0.1495981E+02  0.7818608E-02  0.1869297E+00
          2   -1    0    0  501    0  0.00000000000E+00  0.00000000000E+00  0.11944258199E+03  0.11944258202E+03  0.25500000000E-02 0. -1.
         -2   -1    0    0    0  501 -0.00000000000E+00 -0.00000000000E+00 -0.46841364306E+00  0.46842058399E+00  0.25500000000E-02 0.  1.
         31    1    1    2    0    0 -0.10657355745E+00  0.81474264248E-01  0.64994123592E+02  0.65419515617E+02  0.74470750000E+01 0. -1.
        -31    1    1    2    0    0  0.10657355745E+00 -0.81474264248E-01  0.53980044754E+02  0.54491486983E+02  0.74470750000E+01 0.  1.
<mgrwt>
<rscale>  0 0.14959807E+02</rscale>
<asrwt>0</asrwt>
<pdfrwt beam="1">  1        2 0.99150807E+00 0.14959807E+02</pdfrwt>
<pdfrwt beam="2">  1       -2 0.99485568E+00 0.14959807E+02</pdfrwt>
<totfact>-0.15735610E-13</totfact>
</mgrwt>
</event>
<event>
 4    1 -0.5119137E-019  0.1491169E+02  0.7818608E-02  0.1870775E+00
          2   -1    0    0  501    0  0.00000000000E+00  0.00000000000E+00  0.11873113261E+03  0.11873113264E+03  0.25500000000E-02 0.  1.
         -2   -1    0    0    0  501 -0.00000000000E+00 -0.00000000000E+00 -0.46819401603E+00  0.46820096022E+00  0.25500000000E-02 0. -1.
         31    1    1    2    0    0 -0.31946515171E+00 -0.12850748395E+00  0.60011613351E+02  0.60472896700E+02  0.74470750000E+01 0. -1.
        -31    1    1    2    0    0  0.31946515171E+00  0.12850748395E+00  0.58251325245E+02  0.58726436900E+02  0.74470750000E+01 0. -1.
<mgrwt>
<rscale>  0 0.14911690E+02</rscale>
<asrwt>0</asrwt>
<pdfrwt beam="1">  1        2 0.98562349E+00 0.14911690E+02</pdfrwt>
<pdfrwt beam="2">  1       -2 0.99436778E+00 0.14911690E+02</pdfrwt>
<totfact>-0.31317214E-13</totfact>
</mgrwt>
</event>
<event>
 4    1  0.5119137E-019  0.1494538E+02  0.7818608E-02  0.1869740E+00
          2   -1    0    0  501    0  0.00000000000E+00  0.00000000000E+00  0.12016106454E+03  0.12016106456E+03  0.25500000000E-02 0.  1.
         -2   -1    0    0    0  501 -0.00000000000E+00 -0.00000000000E+00 -0.46471544633E+00  0.46472244249E+00  0.25500000000E-02 0. -1.
         31    1    1    2    0    0  0.56052667679E+00  0.25939649327E+00  0.60065282124E+02  0.60528328238E+02  0.74470750000E+01 0.  1.
        -31    1    1    2    0    0 -0.56052667679E+00 -0.25939649327E+00  0.59631066965E+02  0.60097458766E+02  0.74470750000E+01 0.  1.
<mgrwt>
<rscale>  0 0.14945384E+02</rscale>
<asrwt>0</asrwt>
<pdfrwt beam="1">  1        2 0.99741840E+00 0.14945384E+02</pdfrwt>
<pdfrwt beam="2">  1       -2 0.98705458E+00 0.14945384E+02</pdfrwt>
<totfact> 0.15972147E-13</totfact>
</mgrwt>
</event>
<event>
 4    1  0.5119137E-019  0.1490809E+02  0.7818608E-02  0.1870886E+00
         -2   -1    0    0    0  501 -0.00000000000E+00  0.00000000000E+00  0.11869409100E+03  0.11869409103E+03  0.25500000000E-02 0. -1.
          2   -1    0    0  501    0  0.00000000000E+00 -0.00000000000E+00 -0.46811415194E+00  0.46812109731E+00  0.25500000000E-02 0.  1.
         31    1    1    2    0    0  0.15877223355E+00  0.15462903335E+00  0.60983351528E+02  0.61436774072E+02  0.74470750000E+01 0. -1.
        -31    1    1    2    0    0 -0.15877223355E+00 -0.15462903335E+00  0.57242625320E+02  0.57725438053E+02  0.74470750000E+01 0.  1.
<mgrwt>
<rscale>  0 0.14908092E+02</rscale>
<asrwt>0</asrwt>
<pdfrwt beam="2">  1        2 0.99419762E+00 0.14908092E+02</pdfrwt>
<pdfrwt beam="1">  1       -2 0.98531654E+00 0.14908092E+02</pdfrwt>
<totfact> 0.47648508E-13</totfact>
</mgrwt>
</event>
<event>
 4    1 -0.5119137E-019  0.1492030E+02  0.7818608E-02  0.1870510E+00
          2   -1    0    0  501    0  0.00000000000E+00  0.00000000000E+00  0.11867949330E+03  0.11867949332E+03  0.25500000000E-02 0. -1.
         -2   -1    0    0    0  501 -0.00000000000E+00 -0.00000000000E+00 -0.46893879624E+00  0.46894572940E+00  0.25500000000E-02 0.  1.
         31    1    1    2    0    0  0.22638642063E+00 -0.11095512440E+00  0.56211144834E+02  0.56702868459E+02  0.74470750000E+01 0.  1.
        -31    1    1    2    0    0 -0.22638642063E+00  0.11095512440E+00  0.61999409665E+02  0.62445570593E+02  0.74470750000E+01 0.  1.
<mgrwt>
<rscale>  0 0.14920299E+02</rscale>
<asrwt>0</asrwt>
<pdfrwt beam="1">  1        2 0.98520266E+00 0.14920299E+02</pdfrwt>
<pdfrwt beam="2">  1       -2 0.99594162E+00 0.14920299E+02</pdfrwt>
<totfact>-0.31721694E-13</totfact>
</mgrwt>
</event>
<event>
 4    1  0.5119137E-019  0.1490208E+02  0.7818608E-02  0.1871071E+00
         -2   -1    0    0    0  501 -0.00000000000E+00  0.00000000000E+00  0.11821874899E+03  0.11821874902E+03  0.25500000000E-02 0.  1.
          2   -1    0    0  501    0  0.00000000000E+00 -0.00000000000E+00 -0.46961724732E+00  0.46962417046E+00  0.25500000000E-02 0. -1.
         31    1    1    2    0    0  0.15444675900E+00 -0.16455354937E+00  0.59592182053E+02  0.60056123914E+02  0.74470750000E+01 0.  1.
        -31    1    1    2    0    0 -0.15444675900E+00  0.16455354937E+00  0.58156949693E+02  0.58632249278E+02  0.74470750000E+01 0. -1.
<mgrwt>
<rscale>  0 0.14902077E+02</rscale>
<asrwt>0</asrwt>
<pdfrwt beam="2">  1        2 0.99736151E+00 0.14902077E+02</pdfrwt>
<pdfrwt beam="1">  1       -2 0.98139851E+00 0.14902077E+02</pdfrwt>
<totfact> 0.74471975E-13</totfact>
</mgrwt>
</event>
<event>
 4    1 -0.5119137E-019  0.1493535E+02  0.7818608E-02  0.1870048E+00
         -2   -1    0    0    0  501 -0.00000000000E+00  0.00000000000E+00  0.12018334062E+03  0.12018334065E+03  0.25500000000E-02 0.  1.
          2   -1    0    0  501    0  0.00000000000E+00 -0.00000000000E+00 -0.46400540183E+00  0.46401240870E+00  0.25500000000E-02 0. -1.
         31    1    1    2    0    0  0.66685976186E-01 -0.34973316934E+00  0.63291211906E+02  0.63728825432E+02  0.74470750000E+01 0.  1.
        -31    1    1    2    0    0 -0.66685976186E-01  0.34973316934E+00  0.56428123313E+02  0.56918527625E+02  0.74470750000E+01 0. -1.
<mgrwt>
<rscale>  0 0.14935346E+02</rscale>
<asrwt>0</asrwt>
<pdfrwt beam="2">  1        2 0.98555297E+00 0.14935346E+02</pdfrwt>
<pdfrwt beam="1">  1       -2 0.99759673E+00 0.14935346E+02</pdfrwt>
<totfact>-0.21781743E-13</totfact>
</mgrwt>
</event>
<event>
 4    1 -0.5119137E-019  0.1491124E+02  0.7818608E-02  0.1870789E+00
         -2   -1    0    0    0  501 -0.00000000000E+00  0.00000000000E+00  0.12011211168E+03  0.12011211171E+03  0.25500000000E-02 0.  1.
          2   -1    0    0  501    0  0.00000000000E+00 -0.00000000000E+00 -0.46278286283E+00  0.46278988821E+00  0.25500000000E-02 0. -1.
         31    1    1    2    0    0  0.17795819605E+00  0.30444457275E+00  0.60265372475E+02  0.60724775843E+02  0.74470750000E+01 0.  1.
        -31    1    1    2    0    0 -0.17795819605E+00 -0.30444457275E+00  0.59383956341E+02  0.59850125751E+02  0.74470750000E+01 0. -1.
<mgrwt>
<rscale>  0 0.14911238E+02</rscale>
<asrwt>0</asrwt>
<pdfrwt beam="2">  1        2 0.98296405E+00 0.14911238E+02</pdfrwt>
<pdfrwt beam="1">  1       -2 0.99699765E+00 0.14911238E+02</pdfrwt>
<totfact>-0.39040748E-13</totfact>
</mgrwt>
</event>
<event>
 4    1 -0.5119137E-019  0.1492287E+02  0.7818608E-02  0.1870431E+00
         -2   -1    0    0    0  501 -0.00000000000E+00  0.00000000000E+00  0.11962226283E+03  0.11962226286E+03  0.25500000000E-02 0. -1.
          2   -1    0    0  501    0  0.00000000000E+00 -0.00000000000E+00 -0.46540319779E+00  0.46541018361E+00  0.25500000000E-02 0.  1.
         31    1    1    2    0    0 -0.23543920699E+00  0.21381386278E-01  0.56377799807E+02  0.56868014964E+02  0.74470750000E+01 0. -1.
        -31    1    1    2    0    0  0.23543920699E+00 -0.21381386278E-01  0.62779059824E+02  0.63219658076E+02  0.74470750000E+01 0. -1.
<mgrwt>
<rscale>  0 0.14922869E+02</rscale>
<asrwt>0</asrwt>
<pdfrwt beam="2">  1        2 0.98849252E+00 0.14922869E+02</pdfrwt>
<pdfrwt beam="1">  1       -2 0.99296890E+00 0.14922869E+02</pdfrwt>
<totfact>-0.18122007E-13</totfact>
</mgrwt>
</event>
<event>
 4    1 -0.5119137E-019  0.1495211E+02  0.7818608E-02  0.1869533E+00
         -2   -1    0    0    0  501 -0.00000000000E+00  0.00000000000E+00  0.12018358128E+03  0.12018358131E+03  0.25500000000E-02 0. -1.
          2   -1    0    0  501    0  0.00000000000E+00 -0.00000000000E+00 -0.46504681358E+00  0.46505380476E+00  0.25500000000E-02 0.  1.
         31    1    1    2    0    0 -0.47639218372E-01  0.57087548591E-01  0.65131731421E+02  0.65556135430E+02  0.74470750000E+01 0. -1.
        -31    1    1    2    0    0  0.47639218372E-01 -0.57087548591E-01  0.54586803046E+02  0.55092499683E+02  0.74470750000E+01 0.  1.
<mgrwt>
<rscale>  0 0.14952112E+02</rscale>
<asrwt>0</asrwt>
<pdfrwt beam="2">  1        2 0.98775639E+00 0.14952112E+02</pdfrwt>
<pdfrwt beam="1">  1       -2 0.99760733E+00 0.14952112E+02</pdfrwt>
<totfact>-0.15740978E-13</totfact>
</mgrwt>
</event>
<event>
 4    1  0.5119137E-019  0.1490148E+02  0.7818608E-02  0.1871090E+00
         -2   -1    0    0    0  501 -0.00000000000E+00  0.00000000000E+00  0.11821857244E+03  0.11821857247E+03  0.25500000000E-02 0.  1.
          2   -1    0    0  501    0  0.00000000000E+00 -0.00000000000E+00 -0.46958054349E+00  0.46958746717E+00  0.25500000000E-02 0. -1.
         31    1    1    2    0    0  0.14791848969E+00 -0.87956385527E-03  0.57433158635E+02  0.57914147818E+02  0.74470750000E+01 0. -1.
        -31    1    1    2    0    0 -0.14791848969E+00  0.87956385527E-03  0.60315833260E+02  0.60774012115E+02  0.74470750000E+01 0.  1.
<mgrwt>
<rscale>  0 0.14901484E+02</rscale>
<asrwt>0</asrwt>
<pdfrwt beam="2">  1        2 0.99728386E+00 0.14901484E+02</pdfrwt>
<pdfrwt beam="1">  1       -2 0.98139675E+00 0.14901484E+02</pdfrwt>
<totfact> 0.76040148E-13</totfact>
</mgrwt>
</event>
<event>
 4    1 -0.5119137E-019  0.1491926E+02  0.7818608E-02  0.1870542E+00
          2   -1    0    0  501    0  0.00000000000E+00  0.00000000000E+00  0.11869629931E+03  0.11869629934E+03  0.25500000000E-02 0.  1.
         -2   -1    0    0    0  501 -0.00000000000E+00 -0.00000000000E+00 -0.46880689973E+00  0.46881383484E+00  0.25500000000E-02 0. -1.
         31    1    1    2    0    0  0.18571895784E+00  0.13098589455E+00  0.56173755202E+02  0.56665698164E+02  0.74470750000E+01 0. -1.
        -31    1    1    2    0    0 -0.18571895784E+00 -0.13098589455E+00  0.62053737212E+02  0.62499415012E+02  0.74470750000E+01 0.  1.
<mgrwt>
<rscale>  0 0.14919257E+02</rscale>
<asrwt>0</asrwt>
<pdfrwt beam="1">  1        2 0.98534053E+00 0.14919257E+02</pdfrwt>
<pdfrwt beam="2">  1       -2 0.99566316E+00 0.14919257E+02</pdfrwt>
<totfact>-0.31811440E-13</totfact>
</mgrwt>
</event>
<event>
 4    1  0.5119137E-019  0.1492069E+02  0.7818608E-02  0.1870498E+00
          2   -1    0    0  501    0  0.00000000000E+00  0.00000000000E+00  0.11963923218E+03  0.11963923221E+03  0.25500000000E-02 0.  1.
         -2   -1    0    0    0  501 -0.00000000000E+00 -0.00000000000E+00 -0.46520104629E+00  0.46520803515E+00  0.25500000000E-02 0. -1.
         31    1    1    2    0    0  0.27813124354E+00 -0.32900746446E+00  0.58698340613E+02  0.59170429437E+02  0.74470750000E+01 0. -1.
        -31    1    1    2    0    0 -0.27813124354E+00  0.32900746446E+00  0.60475690524E+02  0.60934010809E+02  0.74470750000E+01 0. -1.
<mgrwt>
<rscale>  0 0.14920686E+02</rscale>
<asrwt>0</asrwt>
<pdfrwt beam="1">  1        2 0.99310754E+00 0.14920686E+02</pdfrwt>
<pdfrwt beam="2">  1       -2 0.98806538E+00 0.14920686E+02</pdfrwt>
<totfact> 0.17067762E-13</totfact>
</mgrwt>
</event>
<event>
 4    1 -0.5119137E-019  0.1495059E+02  0.7818608E-02  0.1869580E+00
         -2   -1    0    0    0  501 -0.00000000000E+00  0.00000000000E+00  0.11978811486E+03  0.11978811489E+03  0.25500000000E-02 0. -1.
          2   -1    0    0  501    0  0.00000000000E+00 -0.00000000000E+00 -0.46648698504E+00  0.46649395464E+00  0.25500000000E-02 0.  1.
         31    1    1    2    0    0  0.22751860948E+00 -0.15554264534E+00  0.54935434551E+02  0.55438586324E+02  0.74470750000E+01 0.  1.
        -31    1    1    2    0    0 -0.22751860948E+00  0.15554264534E+00  0.64386193327E+02  0.64816022520E+02  0.74470750000E+01 0. -1.
<mgrwt>
<rscale>  0 0.14950588E+02</rscale>
<asrwt>0</asrwt>
<pdfrwt beam="2">  1        2 0.99079079E+00 0.14950588E+02</pdfrwt>
<pdfrwt beam="1">  1       -2 0.99434924E+00 0.14950588E+02</pdfrwt>
<totfact>-0.16564799E-13</totfact>
</mgrwt>
</event>
<event>
 4    1  0.5119137E-019  0.1489720E+02  0.7818608E-02  0.1871222E+00
         -2   -1    0    0    0  501 -0.00000000000E+00  0.00000000000E+00  0.11834406430E+03  0.11834406433E+03  0.25500000000E-02 0. -1.
          2   -1    0    0  501    0  0.00000000000E+00 -0.00000000000E+00 -0.46881315502E+00  0.46882009003E+00  0.25500000000E-02 0.  1.
         31    1    1    2    0    0 -0.42812647308E-01 -0.12215913840E+00  0.59554682356E+02  0.60018629377E+02  0.74470750000E+01 0. -1.
        -31    1    1    2    0    0  0.42812647308E-01  0.12215913840E+00  0.58320568787E+02  0.58794255038E+02  0.74470750000E+01 0.  1.
<mgrwt>
<rscale>  0 0.14897203E+02</rscale>
<asrwt>0</asrwt>
<pdfrwt beam="2">  1        2 0.99566474E+00 0.14897203E+02</pdfrwt>
<pdfrwt beam="1">  1       -2 0.98242806E+00 0.14897203E+02</pdfrwt>
<totfact> 0.83346786E-13</totfact>
</mgrwt>
</event>
<event>
 4    1 -0.5119137E-019  0.1500799E+02  0.7818608E-02  0.1867825E+00
         -2   -1    0    0    0  501 -0.00000000000E+00  0.00000000000E+00  0.11995247905E+03  0.11995247908E+03  0.25500000000E-02 0.  1.
          2   -1    0    0  501    0  0.00000000000E+00 -0.00000000000E+00 -0.46943206013E+00  0.46943898600E+00  0.25500000000E-02 0. -1.
         31    1    1    2    0    0 -0.91991154986E+00  0.13581494152E-02  0.60297017699E+02  0.60762122318E+02  0.74470750000E+01 0.  1.
        -31    1    1    2    0    0  0.91991154986E+00 -0.13581494152E-02  0.59186029289E+02  0.59659795744E+02  0.74470750000E+01 0. -1.
<mgrwt>
<rscale>  0 0.15007992E+02</rscale>
<asrwt>0</asrwt>
<pdfrwt beam="2">  1        2 0.99702677E+00 0.15007992E+02</pdfrwt>
<pdfrwt beam="1">  1       -2 0.99573267E+00 0.15007992E+02</pdfrwt>
<totfact>-0.84252073E-14</totfact>
</mgrwt>
</event>
<event>
 4    1 -0.5119137E-019  0.1495938E+02  0.7818608E-02  0.1869310E+00
          2   -1    0    0  501    0  0.00000000000E+00  0.00000000000E+00  0.11936962108E+03  0.11936962111E+03  0.25500000000E-02 0. -1.
         -2   -1    0    0    0  501 -0.00000000000E+00 -0.00000000000E+00 -0.46867336741E+00  0.46868030449E+00  0.25500000000E-02 0.  1.
         31    1    1    2    0    0 -0.95374107072E-01 -0.90093222249E-01  0.64940377970E+02  0.65366113775E+02  0.74470750000E+01 0. -1.
        -31    1    1    2    0    0  0.95374107072E-01  0.90093222249E-01  0.53960569742E+02  0.54472187637E+02  0.74470750000E+01 0.  1.
<mgrwt>
<rscale>  0 0.14959382E+02</rscale>
<asrwt>0</asrwt>
<pdfrwt beam="1">  1        2 0.99090692E+00 0.14959382E+02</pdfrwt>
<pdfrwt beam="2">  1       -2 0.99540276E+00 0.14959382E+02</pdfrwt>
<totfact>-0.16221669E-13</totfact>
</mgrwt>
</event>
<event>
 4    1 -0.5119137E-019  0.1491581E+02  0.7818608E-02  0.1870649E+00
          2   -1    0    0  501    0  0.00000000000E+00  0.00000000000E+00  0.11838804489E+03  0.11838804492E+03  0.25500000000E-02 0.  1.
         -2   -1    0    0    0  501 -0.00000000000E+00 -0.00000000000E+00 -0.46981030718E+00  0.46981722747E+00  0.25500000000E-02 0. -1.
         31    1    1    2    0    0  0.99979168949E-01 -0.27250069767E+00  0.56745656101E+02  0.57232968339E+02  0.74470750000E+01 0. -1.
        -31    1    1    2    0    0 -0.99979168949E-01  0.27250069767E+00  0.61172578481E+02  0.61624893805E+02  0.74470750000E+01 0.  1.
<mgrwt>
<rscale>  0 0.14915809E+02</rscale>
<asrwt>0</asrwt>
<pdfrwt beam="1">  1        2 0.98279996E+00 0.14915809E+02</pdfrwt>
<pdfrwt beam="2">  1       -2 0.99777555E+00 0.14915809E+02</pdfrwt>
<totfact>-0.32373724E-13</totfact>
</mgrwt>
</event>
<event>
 4    1  0.5119137E-019  0.1490592E+02  0.7818608E-02  0.1870953E+00
          2   -1    0    0  501    0  0.00000000000E+00  0.00000000000E+00  0.12000436794E+03  0.12000436797E+03  0.25500000000E-02 0. -1.
         -2   -1    0    0    0  501 -0.00000000000E+00 -0.00000000000E+00 -0.46286787461E+00  0.46287489870E+00  0.25500000000E-02 0.  1.
         31    1    1    2    0    0  0.10730804891E+00  0.23065537068E+00  0.58546451833E+02  0.59018731478E+02  0.74470750000E+01 0. -1.
        -31    1    1    2    0    0 -0.10730804891E+00 -0.23065537068E+00  0.60995048232E+02  0.61448511388E+02  0.74470750000E+01 0. -1.
<mgrwt>
<rscale>  0 0.14905917E+02</rscale>
<asrwt>0</asrwt>
<pdfrwt beam="1">  1        2 0.99610745E+00 0.14905917E+02</pdfrwt>
<pdfrwt beam="2">  1       -2 0.98314053E+00 0.14905917E+02</pdfrwt>
<totfact> 0.67217652E-13</totfact>
</mgrwt>
</event>
<event>
 4    1 -0.5119137E-019  0.1496293E+02  0.7818608E-02  0.1869202E+00
          2   -1    0    0  501    0  0.00000000000E+00  0.00000000000E+00  0.11993878332E+03  0.11993878335E+03  0.25500000000E-02 0.  1.
         -2   -1    0    0    0  501 -0.00000000000E+00 -0.00000000000E+00 -0.46667060965E+00  0.46667757650E+00  0.25500000000E-02 0. -1.
         31    1    1    2    0    0 -0.15194409875E+00  0.19257417158E-01  0.54103546393E+02  0.54613882083E+02  0.74470750000E+01 0. -1.
        -31    1    1    2    0    0  0.15194409875E+00 -0.19257417158E-01  0.65368566321E+02  0.65791578844E+02  0.74470750000E+01 0.  1.
<mgrwt>
<rscale>  0 0.14962931E+02</rscale>
<asrwt>0</asrwt>
<pdfrwt beam="1">  1        2 0.99559659E+00 0.14962931E+02</pdfrwt>
<pdfrwt beam="2">  1       -2 0.99118411E+00 0.14962931E+02</pdfrwt>
<totfact>-0.46282263E-14</totfact>
</mgrwt>
</event>
<event>
 4    1 -0.5119137E-019  0.1489708E+02  0.7818608E-02  0.1871225E+00
          2   -1    0    0  501    0  0.00000000000E+00  0.00000000000E+00  0.11819540888E+03  0.11819540891E+03  0.25500000000E-02 0.  1.
         -2   -1    0    0    0  501 -0.00000000000E+00 -0.00000000000E+00 -0.46939520999E+00  0.46940213640E+00  0.25500000000E-02 0. -1.
         31    1    1    2    0    0 -0.11844019319E+00  0.45466139950E-01  0.59467034541E+02  0.59931654561E+02  0.74470750000E+01 0.  1.
        -31    1    1    2    0    0  0.11844019319E+00 -0.45466139950E-01  0.58258979128E+02  0.58733156482E+02  0.74470750000E+01 0. -1.
<mgrwt>
<rscale>  0 0.14897083E+02</rscale>
<asrwt>0</asrwt>
<pdfrwt beam="1">  1        2 0.98120368E+00 0.14897083E+02</pdfrwt>
<pdfrwt beam="2">  1       -2 0.99689105E+00 0.14897083E+02</pdfrwt>
<totfact>-0.53721319E-13</totfact>
</mgrwt>
</event>
<event>
 4    1 -0.5119137E-019  0.1492071E+02  0.7818608E-02  0.1870498E+00
         -2   -1    0    0    0  501 -0.00000000000E+00  0.00000000000E+00  0.12036567798E+03  0.12036567801E+03  0.25500000000E-02 0.  1.
          2   -1    0    0  501    0  0.00000000000E+00 -0.00000000000E+00 -0.46239477501E+00  0.46240180628E+00  0.25500000000E-02 0. -1.
         31    1    1    2    0    0  0.28965295886E+00 -0.25016003740E-01  0.62679077043E+02  0.63120600042E+02  0.74470750000E+01 0.  1.
        -31    1    1    2    0    0 -0.28965295886E+00  0.25016003740E-01  0.57224206164E+02  0.57707479773E+02  0.74470750000E+01 0. -1.
<mgrwt>
<rscale>  0 0.14920709E+02</rscale>
<asrwt>0</asrwt>
<pdfrwt beam="2">  1        2 0.98215085E+00 0.14920709E+02</pdfrwt>
<pdfrwt beam="1">  1       -2 0.99909110E+00 0.14920709E+02</pdfrwt>
<totfact>-0.16639060E-13</totfact>
</mgrwt>
</event>
<event>
 4    1 -0.5119137E-019  0.1495878E+02  0.7818608E-02  0.1869329E+00
         -2   -1    0    0    0  501 -0.00000000000E+00  0.00000000000E+00  0.11986178715E+03  0.11986178717E+03  0.25500000000E-02 0.  1.
          2   -1    0    0  501    0  0.00000000000E+00 -0.00000000000E+00 -0.46671128879E+00  0.46671825504E+00  0.25500000000E-02 0. -1.
         31    1    1    2    0    0 -0.34354412226E+00  0.31831941339E+00  0.63822740865E+02  0.64257455033E+02  0.74470750000E+01 0.  1.
        -31    1    1    2    0    0  0.34354412226E+00 -0.31831941339E+00  0.55572334993E+02  0.56071050395E+02  0.74470750000E+01 0. -1.
<mgrwt>
<rscale>  0 0.14958779E+02</rscale>
<asrwt>0</asrwt>
<pdfrwt beam="2">  1        2 0.99126770E+00 0.14958779E+02</pdfrwt>
<pdfrwt beam="1">  1       -2 0.99496027E+00 0.14958779E+02</pdfrwt>
<totfact>-0.16010033E-13</totfact>
</mgrwt>
</event>
<event>
 4    1 -0.5119137E-019  0.1497841E+02  0.7818608E-02  0.1868728E+00
         -2   -1    0    0    0  501 -0.00000000000E+00  0.00000000000E+00  0.11990603951E+03  0.11990603954E+03  0.25500000000E-02 0. -1.
          2   -1    0    0  501    0  0.00000000000E+00 -0.00000000000E+00 -0.46776435856E+00  0.46777130912E+00  0.25500000000E-02 0.  1.
         31    1    1    2    0    0 -0.65287080134E+00 -0.39293201940E+00  0.57946919518E+02  0.58428460904E+02  0.74470750000E+01 0.  1.
        -31    1    1    2    0    0  0.65287080134E+00  0.39293201940E+00  0.61491355637E+02  0.61945349947E+02  0.74470750000E+01 0.  1.
<mgrwt>
<rscale>  0 0.14978410E+02</rscale>
<asrwt>0</asrwt>
<pdfrwt beam="2">  1        2 0.99349706E+00 0.14978410E+02</pdfrwt>
<pdfrwt beam="1">  1       -2 0.99533489E+00 0.14978410E+02</pdfrwt>
<totfact>-0.13421298E-13</totfact>
</mgrwt>
</event>
<event>
 4    1 -0.5119137E-019  0.1496951E+02  0.7818608E-02  0.1869000E+00
         -2   -1    0    0    0  501 -0.00000000000E+00  0.00000000000E+00  0.11989010358E+03  0.11989010361E+03  0.25500000000E-02 0.  1.
          2   -1    0    0  501    0  0.00000000000E+00 -0.00000000000E+00 -0.46727086238E+00  0.46727782028E+00  0.25500000000E-02 0. -1.
         31    1    1    2    0    0 -0.50960825133E+00  0.52074852102E+00  0.58278397920E+02  0.58756799349E+02  0.74470750000E+01 0. -1.
        -31    1    1    2    0    0  0.50960825133E+00 -0.52074852102E+00  0.61144434802E+02  0.61600582082E+02  0.74470750000E+01 0.  1.
<mgrwt>
<rscale>  0 0.14969512E+02</rscale>
<asrwt>0</asrwt>
<pdfrwt beam="2">  1        2 0.99245248E+00 0.14969512E+02</pdfrwt>
<pdfrwt beam="1">  1       -2 0.99519904E+00 0.14969512E+02</pdfrwt>
<totfact>-0.14561292E-13</totfact>
</mgrwt>
</event>
<event>
 4    1 -0.5119137E-019  0.1489787E+02  0.7818608E-02  0.1871201E+00
         -2   -1    0    0    0  501 -0.00000000000E+00  0.00000000000E+00  0.12035704602E+03  0.12035704604E+03  0.25500000000E-02 0. -1.
          2   -1    0    0  501    0  0.00000000000E+00 -0.00000000000E+00 -0.46101324196E+00  0.46102029430E+00  0.25500000000E-02 0.  1.
         31    1    1    2    0    0  0.76496656635E-01 -0.38503691237E-01  0.58790867535E+02  0.59260715198E+02  0.74470750000E+01 0.  1.
        -31    1    1    2    0    0 -0.76496656635E-01  0.38503691237E-01  0.61105165240E+02  0.61557351140E+02  0.74470750000E+01 0. -1.
<mgrwt>
<rscale>  0 0.14897868E+02</rscale>
<asrwt>0</asrwt>
<pdfrwt beam="2">  1        2 0.97922737E+00 0.14897868E+02</pdfrwt>
<pdfrwt beam="1">  1       -2 0.99900830E+00 0.14897868E+02</pdfrwt>
<totfact>-0.29270657E-13</totfact>
</mgrwt>
</event>
<event>
 4    1  0.5119137E-019  0.1489724E+02  0.7818608E-02  0.1871221E+00
         -2   -1    0    0    0  501 -0.00000000000E+00  0.00000000000E+00  0.11802466181E+03  0.11802466184E+03  0.25500000000E-02 0. -1.
          2   -1    0    0  501    0  0.00000000000E+00 -0.00000000000E+00 -0.47008395784E+00  0.47009087411E+00  0.25500000000E-02 0.  1.
         31    1    1    2    0    0  0.10934459893E+00 -0.10369471528E+00  0.58909590608E+02  0.59378628314E+02  0.74470750000E+01 0.  1.
        -31    1    1    2    0    0 -0.10934459893E+00  0.10369471528E+00  0.58644987244E+02  0.59116124397E+02  0.74470750000E+01 0.  1.
<mgrwt>
<rscale>  0 0.14897236E+02</rscale>
<asrwt>0</asrwt>
<pdfrwt beam="2">  1        2 0.99834226E+00 0.14897236E+02</pdfrwt>
<pdfrwt beam="1">  1       -2 0.97979752E+00 0.14897236E+02</pdfrwt>
<totfact> 0.69185454E-13</totfact>
</mgrwt>
</event>
<event>
 4    1 -0.5119137E-019  0.1494657E+02  0.7818608E-02  0.1869703E+00
          2   -1    0    0  501    0  0.00000000000E+00  0.00000000000E+00  0.11926894758E+03  0.11926894761E+03  0.25500000000E-02 0.  1.
         -2   -1    0    0    0  501 -0.00000000000E+00 -0.00000000000E+00 -0.46826587950E+00  0.46827282262E+00  0.25500000000E-02 0. -1.
         31    1    1    2    0    0 -0.83763419646E-01 -0.57318506979E+00  0.57512858866E+02  0.57995891393E+02  0.74470750000E+01 0.  1.
        -31    1    1    2    0    0  0.83763419646E-01  0.57318506979E+00  0.61287822836E+02  0.61741329039E+02  0.74470750000E+01 0.  1.
<mgrwt>
<rscale>  0 0.14946571E+02</rscale>
<asrwt>0</asrwt>
<pdfrwt beam="1">  1        2 0.99007111E+00 0.14946571E+02</pdfrwt>
<pdfrwt beam="2">  1       -2 0.99453743E+00 0.14946571E+02</pdfrwt>
<totfact>-0.17749986E-13</totfact>
</mgrwt>
</event>
<event>
 4    1 -0.5119137E-019  0.1493827E+02  0.7818608E-02  0.1869958E+00
          2   -1    0    0  501    0  0.00000000000E+00  0.00000000000E+00  0.11856140323E+03  0.11856140325E+03  0.25500000000E-02 0.  1.
         -2   -1    0    0    0  501 -0.00000000000E+00 -0.00000000000E+00 -0.47053750983E+00  0.47054441943E+00  0.25500000000E-02 0. -1.
         31    1    1    2    0    0 -0.32040719562E-01  0.77399314593E-01  0.63567421911E+02  0.64002211459E+02  0.74470750000E+01 0.  1.
        -31    1    1    2    0    0  0.32040719562E-01 -0.77399314593E-01  0.54523443806E+02  0.55029736214E+02  0.74470750000E+01 0. -1.
<mgrwt>
<rscale>  0 0.14938273E+02</rscale>
<asrwt>0</asrwt>
<pdfrwt beam="1">  1        2 0.98423943E+00 0.14938273E+02</pdfrwt>
<pdfrwt beam="2">  1       -2 0.99931962E+00 0.14938273E+02</pdfrwt>
<totfact>-0.89247235E-14</totfact>
</mgrwt>
</event>
<event>
 4    1 -0.5119137E-019  0.1490943E+02  0.7818608E-02  0.1870845E+00
          2   -1    0    0  501    0  0.00000000000E+00  0.00000000000E+00  0.11841272801E+03  0.11841272804E+03  0.25500000000E-02 0.  1.
         -2   -1    0    0    0  501 -0.00000000000E+00 -0.00000000000E+00 -0.46931061588E+00  0.46931754355E+00  0.25500000000E-02 0. -1.
         31    1    1    2    0    0  0.76794783453E-01  0.68147017308E-01  0.56409010323E+02  0.56898558094E+02  0.74470750000E+01 0. -1.
        -31    1    1    2    0    0 -0.76794783453E-01 -0.68147017308E-01  0.61534407074E+02  0.61983487491E+02  0.74470750000E+01 0.  1.
<mgrwt>
<rscale>  0 0.14909428E+02</rscale>
<asrwt>0</asrwt>
<pdfrwt beam="1">  1        2 0.98299993E+00 0.14909428E+02</pdfrwt>
<pdfrwt beam="2">  1       -2 0.99671934E+00 0.14909428E+02</pdfrwt>
<totfact>-0.41005940E-13</totfact>
</mgrwt>
</event>
<event>
 4    1 -0.5119137E-019  0.1498110E+02  0.7818608E-02  0.1868646E+00
          2   -1    0    0  501    0  0.00000000000E+00  0.00000000000E+00  0.11964805028E+03  0.11964805031E+03  0.25500000000E-02 0. -1.
         -2   -1    0    0    0  501 -0.00000000000E+00 -0.00000000000E+00 -0.46894149222E+00  0.46894842534E+00  0.25500000000E-02 0.  1.
         31    1    1    2    0    0  0.82164755546E-01  0.63975606370E+00  0.55716083530E+02  0.56215273093E+02  0.74470750000E+01 0.  1.
        -31    1    1    2    0    0 -0.82164755546E-01 -0.63975606370E+00  0.63463025257E+02  0.63901725640E+02  0.74470750000E+01 0. -1.
<mgrwt>
<rscale>  0 0.14981102E+02</rscale>
<asrwt>0</asrwt>
<pdfrwt beam="1">  1        2 0.99321139E+00 0.14981102E+02</pdfrwt>
<pdfrwt beam="2">  1       -2 0.99597906E+00 0.14981102E+02</pdfrwt>
<totfact>-0.13047507E-13</totfact>
</mgrwt>
</event>
<event>
 4    1 -0.5119137E-019  0.1494158E+02  0.7818608E-02  0.1869856E+00
          2   -1    0    0  501    0  0.00000000000E+00  0.00000000000E+00  0.11909436198E+03  0.11909436201E+03  0.25500000000E-02 0. -1.
         -2   -1    0    0    0  501 -0.00000000000E+00 -0.00000000000E+00 -0.46863916995E+00  0.46864610754E+00  0.25500000000E-02 0.  1.
         31    1    1    2    0    0  0.94959861873E-01 -0.34157292658E+00  0.63134481956E+02  0.63573165938E+02  0.74470750000E+01 0.  1.
        -31    1    1    2    0    0 -0.94959861873E-01  0.34157292658E+00  0.55491240854E+02  0.55989842177E+02  0.74470750000E+01 0.  1.
<mgrwt>
<rscale>  0 0.14941579E+02</rscale>
<asrwt>0</asrwt>
<pdfrwt beam="1">  1        2 0.98863061E+00 0.14941579E+02</pdfrwt>
<pdfrwt beam="2">  1       -2 0.99532142E+00 0.14941579E+02</pdfrwt>
<totfact>-0.20427647E-13</totfact>
</mgrwt>
</event>
<event>
 4    1 -0.5119137E-019  0.1493658E+02  0.7818608E-02  0.1870010E+00
          2   -1    0    0  501    0  0.00000000000E+00  0.00000000000E+00  0.11857516364E+03  0.11857516367E+03  0.25500000000E-02 0.  1.
         -2   -1    0    0    0  501 -0.00000000000E+00 -0.00000000000E+00 -0.47037621189E+00  0.47038312386E+00  0.25500000000E-02 0. -1.
         31    1    1    2    0    0 -0.79991607342E-01  0.31076862260E+00  0.55370192264E+02  0.55869670602E+02  0.74470750000E+01 0. -1.
        -31    1    1    2    0    0  0.79991607342E-01 -0.31076862260E+00  0.62734595164E+02  0.63175876189E+02  0.74470750000E+01 0. -1.
<mgrwt>
<rscale>  0 0.14936579E+02</rscale>
<asrwt>0</asrwt>
<pdfrwt beam="1">  1        2 0.98435187E+00 0.14936579E+02</pdfrwt>
<pdfrwt beam="2">  1       -2 0.99897887E+00 0.14936579E+02</pdfrwt>
<totfact>-0.12791110E-13</totfact>
</mgrwt>
</event>
<event>
 4    1  0.5119137E-019  0.1494792E+02  0.7818608E-02  0.1869662E+00
          2   -1    0    0  501    0  0.00000000000E+00  0.00000000000E+00  0.11993813690E+03  0.11993813693E+03  0.25500000000E-02 0.  1.
         -2   -1    0    0    0  501 -0.00000000000E+00 -0.00000000000E+00 -0.46573697265E+00  0.46574395347E+00  0.25500000000E-02 0. -1.
         31    1    1    2    0    0 -0.63317118908E+00 -0.14067857995E-02  0.59618673540E+02  0.60085323236E+02  0.74470750000E+01 0.  1.
        -31    1    1    2    0    0  0.63317118908E+00  0.14067857995E-02  0.59853726391E+02  0.60318557648E+02  0.74470750000E+01 0.  1.
<mgrwt>
<rscale>  0 0.14947916E+02</rscale>
<asrwt>0</asrwt>
<pdfrwt beam="1">  1        2 0.99558353E+00 0.14947916E+02</pdfrwt>
<pdfrwt beam="2">  1       -2 0.98920879E+00 0.14947916E+02</pdfrwt>
<totfact> 0.54181133E-14</totfact>
</mgrwt>
</event>
<event>
 4    1 -0.5119137E-019  0.1500243E+02  0.7818608E-02  0.1867994E+00
         -2   -1    0    0    0  501 -0.00000000000E+00  0.00000000000E+00  0.11995224012E+03  0.11995224015E+03  0.25500000000E-02 0.  1.
          2   -1    0    0  501    0  0.00000000000E+00 -0.00000000000E+00 -0.46908532116E+00  0.46909225215E+00  0.25500000000E-02 0. -1.
         31    1    1    2    0    0  0.55878348697E+00 -0.50028919681E+00  0.63729199895E+02  0.64167221956E+02  0.74470750000E+01 0.  1.
        -31    1    1    2    0    0 -0.55878348697E+00  0.50028919681E+00  0.55753954908E+02  0.56254110447E+02  0.74470750000E+01 0.  1.
<mgrwt>
<rscale>  0 0.15002434E+02</rscale>
<asrwt>0</asrwt>
<pdfrwt beam="2">  1        2 0.99629321E+00 0.15002434E+02</pdfrwt>
<pdfrwt beam="1">  1       -2 0.99572783E+00 0.15002434E+02</pdfrwt>
<totfact>-0.97133173E-14</totfact>
</mgrwt>
</event>
<event>
 4    1 -0.5119137E-019  0.1490209E+02  0.7818608E-02  0.1871071E+00
         -2   -1    0    0    0  501 -0.00000000000E+00  0.00000000000E+00  0.11949619592E+03  0.11949619595E+03  0.25500000000E-02 0.  1.
          2   -1    0    0  501    0  0.00000000000E+00 -0.00000000000E+00 -0.46459745559E+00  0.46460445353E+00  0.25500000000E-02 0. -1.
         31    1    1    2    0    0 -0.14352282339E+00  0.19627478475E+00  0.59524977312E+02  0.59989507187E+02  0.74470750000E+01 0.  1.
        -31    1    1    2    0    0  0.14352282339E+00 -0.19627478475E+00  0.59506621152E+02  0.59971293213E+02  0.74470750000E+01 0. -1.
<mgrwt>
<rscale>  0 0.14902087E+02</rscale>
<asrwt>0</asrwt>
<pdfrwt beam="2">  1        2 0.98678379E+00 0.14902087E+02</pdfrwt>
<pdfrwt beam="1">  1       -2 0.99191983E+00 0.14902087E+02</pdfrwt>
<totfact>-0.16869208E-13</totfact>
</mgrwt>
</event>
<event>
 4    1 -0.5119137E-019  0.1492098E+02  0.7818608E-02  0.1870489E+00
         -2   -1    0    0    0  501 -0.00000000000E+00  0.00000000000E+00  0.12002522744E+03  0.12002522747E+03  0.25500000000E-02 0. -1.
          2   -1    0    0  501    0  0.00000000000E+00 -0.00000000000E+00 -0.46372324284E+00  0.46373025398E+00  0.25500000000E-02 0.  1.
         31    1    1    2    0    0 -0.35184042191E+00 -0.25341549864E+00  0.60664400615E+02  0.61121325568E+02  0.74470750000E+01 0. -1.
        -31    1    1    2    0    0  0.35184042191E+00  0.25341549864E+00  0.58897103583E+02  0.59367632155E+02  0.74470750000E+01 0.  1.
<mgrwt>
<rscale>  0 0.14920980E+02</rscale>
<asrwt>0</asrwt>
<pdfrwt beam="2">  1        2 0.98495099E+00 0.14920980E+02</pdfrwt>
<pdfrwt beam="1">  1       -2 0.99628700E+00 0.14920980E+02</pdfrwt>
<totfact>-0.31717064E-13</totfact>
</mgrwt>
</event>
<event>
 4    1  0.5119137E-019  0.1495510E+02  0.7818608E-02  0.1869442E+00
          2   -1    0    0  501    0  0.00000000000E+00  0.00000000000E+00  0.12042942653E+03  0.12042942656E+03  0.25500000000E-02 0.  1.
         -2   -1    0    0    0  501 -0.00000000000E+00 -0.00000000000E+00 -0.46428283278E+00  0.46428983546E+00  0.25500000000E-02 0. -1.
         31    1    1    2    0    0 -0.14162455448E+00  0.63077583226E+00  0.61534962794E+02  0.61987325380E+02  0.74470750000E+01 0. -1.
        -31    1    1    2    0    0  0.14162455448E+00 -0.63077583226E+00  0.58430180907E+02  0.58906391016E+02  0.74470750000E+01 0. -1.
<mgrwt>
<rscale>  0 0.14955098E+02</rscale>
<asrwt>0</asrwt>
<pdfrwt beam="1">  1        2 0.99963383E+00 0.14955098E+02</pdfrwt>
<pdfrwt beam="2">  1       -2 0.98614772E+00 0.14955098E+02</pdfrwt>
<totfact> 0.40873705E-14</totfact>
</mgrwt>
</event>
<event>
 4    1 -0.5119137E-019  0.1492048E+02  0.7818608E-02  0.1870505E+00
          2   -1    0    0  501    0  0.00000000000E+00  0.00000000000E+00  0.11858461287E+03  0.11858461289E+03  0.25500000000E-02 0.  1.
         -2   -1    0    0    0  501 -0.00000000000E+00 -0.00000000000E+00 -0.46932515474E+00  0.46933208219E+00  0.25500000000E-02 0. -1.
         31    1    1    2    0    0 -0.35068496135E+00 -0.26034304031E+00  0.58467434733E+02  0.58941416753E+02  0.74470750000E+01 0. -1.
        -31    1    1    2    0    0  0.35068496135E+00  0.26034304031E+00  0.59647852978E+02  0.60112528223E+02  0.74470750000E+01 0. -1.
<mgrwt>
<rscale>  0 0.14920477E+02</rscale>
<asrwt>0</asrwt>
<pdfrwt beam="1">  1        2 0.98442131E+00 0.14920477E+02</pdfrwt>
<pdfrwt beam="2">  1       -2 0.99675579E+00 0.14920477E+02</pdfrwt>
<totfact>-0.32100824E-13</totfact>
</mgrwt>
</event>
<event>
 4    1 -0.5119137E-019  0.1497512E+02  0.7818608E-02  0.1868829E+00
         -2   -1    0    0    0  501 -0.00000000000E+00  0.00000000000E+00  0.11962210599E+03  0.11962210601E+03  0.25500000000E-02 0. -1.
          2   -1    0    0  501    0  0.00000000000E+00 -0.00000000000E+00 -0.46866851297E+00  0.46867545012E+00  0.25500000000E-02 0.  1.
         31    1    1    2    0    0 -0.74293433575E+00  0.15705895124E+00  0.60918318957E+02  0.61376519366E+02  0.74470750000E+01 0.  1.
        -31    1    1    2    0    0  0.74293433575E+00 -0.15705895124E+00  0.58235118516E+02  0.58714262097E+02  0.74470750000E+01 0. -1.
<mgrwt>
<rscale>  0 0.14975117E+02</rscale>
<asrwt>0</asrwt>
<pdfrwt beam="2">  1        2 0.99540071E+00 0.14975117E+02</pdfrwt>
<pdfrwt beam="1">  1       -2 0.99299460E+00 0.14975117E+02</pdfrwt>
<totfact>-0.98928486E-14</totfact>
</mgrwt>
</event>
<event>
 4    1 -0.5119137E-019  0.1490670E+02  0.7818608E-02  0.1870929E+00
         -2   -1    0    0    0  501 -0.00000000000E+00  0.00000000000E+00  0.12021894758E+03  0.12021894761E+03  0.25500000000E-02 0.  1.
          2   -1    0    0  501    0  0.00000000000E+00 -0.00000000000E+00 -0.46209039992E+00  0.46209743583E+00  0.25500000000E-02 0. -1.
         31    1    1    2    0    0  0.15067771302E+00 -0.26375472203E+00  0.60164813122E+02  0.60624713891E+02  0.74470750000E+01 0.  1.
        -31    1    1    2    0    0 -0.15067771302E+00  0.26375472203E+00  0.59592044059E+02  0.60056331152E+02  0.74470750000E+01 0. -1.
<mgrwt>
<rscale>  0 0.14906703E+02</rscale>
<asrwt>0</asrwt>
<pdfrwt beam="2">  1        2 0.98150224E+00 0.14906703E+02</pdfrwt>
<pdfrwt beam="1">  1       -2 0.99787532E+00 0.14906703E+02</pdfrwt>
<totfact>-0.38885198E-13</totfact>
</mgrwt>
</event>
<event>
 4    1  0.5119137E-019  0.1491435E+02  0.7818608E-02  0.1870694E+00
          2   -1    0    0  501    0  0.00000000000E+00  0.00000000000E+00  0.12006283584E+03  0.12006283587E+03  0.25500000000E-02 0. -1.
         -2   -1    0    0    0  501 -0.00000000000E+00 -0.00000000000E+00 -0.46316578991E+00  0.46317280948E+00  0.25500000000E-02 0.  1.
         31    1    1    2    0    0  0.15161841399E+00 -0.32912719444E+00  0.60919132595E+02  0.61373699213E+02  0.74470750000E+01 0. -1.
        -31    1    1    2    0    0 -0.15161841399E+00  0.32912719444E+00  0.58680537460E+02  0.59152309469E+02  0.74470750000E+01 0.  1.
<mgrwt>
<rscale>  0 0.14914345E+02</rscale>
<asrwt>0</asrwt>
<pdfrwt beam="1">  1        2 0.99659337E+00 0.14914345E+02</pdfrwt>
<pdfrwt beam="2">  1       -2 0.98377271E+00 0.14914345E+02</pdfrwt>
<totfact> 0.53512486E-13</totfact>
</mgrwt>
</event>
<event>
 4    1  0.5119137E-019  0.1492107E+02  0.7818608E-02  0.1870487E+00
          2   -1    0    0  501    0  0.00000000000E+00  0.00000000000E+00  0.12026621862E+03  0.12026621865E+03  0.25500000000E-02 0.  1.
         -2   -1    0    0    0  501 -0.00000000000E+00 -0.00000000000E+00 -0.46279950111E+00  0.46280652624E+00  0.25500000000E-02 0. -1.
         31    1    1    2    0    0  0.38071287919E+00 -0.71458779067E-01  0.58081698500E+02  0.58558455200E+02  0.74470750000E+01 0. -1.
        -31    1    1    2    0    0 -0.38071287919E+00  0.71458779067E-01  0.61721720622E+02  0.62170569977E+02  0.74470750000E+01 0.  1.
<mgrwt>
<rscale>  0 0.14921069E+02</rscale>
<asrwt>0</asrwt>
<pdfrwt beam="1">  1        2 0.99827205E+00 0.14921069E+02</pdfrwt>
<pdfrwt beam="2">  1       -2 0.98300409E+00 0.14921069E+02</pdfrwt>
<totfact> 0.38909814E-13</totfact>
</mgrwt>
</event>
<event>
 4    1 -0.5119137E-019  0.1489728E+02  0.7818608E-02  0.1871219E+00
         -2   -1    0    0    0  501 -0.00000000000E+00  0.00000000000E+00  0.11965794790E+03  0.11965794793E+03  0.25500000000E-02 0.  1.
          2   -1    0    0  501    0  0.00000000000E+00 -0.00000000000E+00 -0.46367041543E+00  0.46367742736E+00  0.25500000000E-02 0. -1.
         31    1    1    2    0    0  0.55635005729E-01  0.10112275386E+00  0.58789756116E+02  0.59259663105E+02  0.74470750000E+01 0. -1.
        -31    1    1    2    0    0 -0.55635005729E-01 -0.10112275386E+00  0.60404521373E+02  0.60861962254E+02  0.74470750000E+01 0.  1.
<mgrwt>
<rscale>  0 0.14897285E+02</rscale>
<asrwt>0</asrwt>
<pdfrwt beam="2">  1        2 0.98482758E+00 0.14897285E+02</pdfrwt>
<pdfrwt beam="1">  1       -2 0.99324964E+00 0.14897285E+02</pdfrwt>
<totfact>-0.32292812E-13</totfact>
</mgrwt>
</event>
<event>
 4    1 -0.5119137E-019  0.1496832E+02  0.7818608E-02  0.1869037E+00
         -2   -1    0    0    0  501 -0.00000000000E+00  0.00000000000E+00  0.11979593551E+03  0.11979593554E+03  0.25500000000E-02 0.  1.
          2   -1    0    0  501    0  0.00000000000E+00 -0.00000000000E+00 -0.46756369524E+00  0.46757064878E+00  0.25500000000E-02 0. -1.
         31    1    1    2    0    0 -0.70681733820E+00  0.22241862943E+00  0.59115527112E+02  0.59587360511E+02  0.74470750000E+01 0. -1.
        -31    1    1    2    0    0  0.70681733820E+00 -0.22241862943E+00  0.60212844701E+02  0.60676145674E+02  0.74470750000E+01 0.  1.
<mgrwt>
<rscale>  0 0.14968320E+02</rscale>
<asrwt>0</asrwt>
<pdfrwt beam="2">  1        2 0.99306898E+00 0.14968320E+02</pdfrwt>
<pdfrwt beam="1">  1       -2 0.99442281E+00 0.14968320E+02</pdfrwt>
<totfact>-0.13988264E-13</totfact>
</mgrwt>
</event>
<event>
 4    1  0.5119137E-019  0.1491670E+02  0.7818608E-02  0.1870621E+00
          2   -1    0    0  501    0  0.00000000000E+00  0.00000000000E+00  0.12030120668E+03  0.12030120671E+03  0.25500000000E-02 0. -1.
         -2   -1    0    0    0  501 -0.00000000000E+00 -0.00000000000E+00 -0.46239413755E+00  0.46240116884E+00  0.25500000000E-02 0.  1.
         31    1    1    2    0    0 -0.20964241381E-01  0.40689952498E+00  0.60287401042E+02  0.60746980643E+02  0.74470750000E+01 0. -1.
        -31    1    1    2    0    0  0.20964241381E-01 -0.40689952498E+00  0.59551411503E+02  0.60016627236E+02  0.74470750000E+01 0. -1.
<mgrwt>
<rscale>  0 0.14916702E+02</rscale>
<asrwt>0</asrwt>
<pdfrwt beam="1">  1        2 0.99855800E+00 0.14916702E+02</pdfrwt>
<pdfrwt beam="2">  1       -2 0.98214748E+00 0.14916702E+02</pdfrwt>
<totfact> 0.40139376E-13</totfact>
</mgrwt>
</event>
<event>
 4    1 -0.5119137E-019  0.1490364E+02  0.7818608E-02  0.1871023E+00
          2   -1    0    0  501    0  0.00000000000E+00  0.00000000000E+00  0.11851515971E+03  0.11851515974E+03  0.25500000000E-02 0.  1.
         -2   -1    0    0    0  501 -0.00000000000E+00 -0.00000000000E+00 -0.46854070275E+00  0.46854764180E+00  0.25500000000E-02 0. -1.
         31    1    1    2    0    0  0.70424351414E-01 -0.13300579383E+00  0.57273940661E+02  0.57756262475E+02  0.74470750000E+01 0. -1.
        -31    1    1    2    0    0 -0.70424351414E-01  0.13300579383E+00  0.60772678349E+02  0.61227444908E+02  0.74470750000E+01 0.  1.
<mgrwt>
<rscale>  0 0.14903636E+02</rscale>
<asrwt>0</asrwt>
<pdfrwt beam="1">  1        2 0.98384054E+00 0.14903636E+02</pdfrwt>
<pdfrwt beam="2">  1       -2 0.99509406E+00 0.14903636E+02</pdfrwt>
<totfact>-0.41934505E-13</totfact>
</mgrwt>
</event>
<event>
 4    1 -0.5119137E-019  0.1494877E+02  0.7818608E-02  0.1869636E+00
          2   -1    0    0  501    0  0.00000000000E+00  0.00000000000E+00  0.11947757808E+03  0.11947757811E+03  0.25500000000E-02 0. -1.
         -2   -1    0    0    0  501 -0.00000000000E+00 -0.00000000000E+00 -0.46758588100E+00  0.46759283422E+00  0.25500000000E-02 0.  1.
         31    1    1    2    0    0 -0.25637170496E+00  0.57594042339E+00  0.60310868055E+02  0.60772174270E+02  0.74470750000E+01 0. -1.
        -31    1    1    2    0    0  0.25637170496E+00 -0.57594042339E+00  0.58699124142E+02  0.59172996670E+02  0.74470750000E+01 0. -1.
<mgrwt>
<rscale>  0 0.14948772E+02</rscale>
<asrwt>0</asrwt>
<pdfrwt beam="1">  1        2 0.99179059E+00 0.14948772E+02</pdfrwt>
<pdfrwt beam="2">  1       -2 0.99310563E+00 0.14948772E+02</pdfrwt>
<totfact>-0.13585783E-13</totfact>
</mgrwt>
</event>
<event>
 4    1 -0.5119137E-019  0.1494234E+02  0.7818608E-02  0.1869833E+00
          2   -1    0    0  501    0  0.00000000000E+00  0.00000000000E+00  0.11932476111E+03  0.11932476114E+03  0.25500000000E-02 0.  1.
         -2   -1    0    0    0  501 -0.00000000000E+00 -0.00000000000E+00 -0.46778209054E+00  0.46778904084E+00  0.25500000000E-02 0. -1.
         31    1    1    2    0    0 -0.47941621538E+00 -0.25532990400E+00  0.57393298942E+02  0.57876979213E+02  0.74470750000E+01 0.  1.
        -31    1    1    2    0    0  0.47941621538E+00  0.25532990400E+00  0.61463680076E+02  0.61915570964E+02  0.74470750000E+01 0.  1.
<mgrwt>
<rscale>  0 0.14942343E+02</rscale>
<asrwt>0</asrwt>
<pdfrwt beam="1">  1        2 0.99052862E+00 0.14942343E+02</pdfrwt>
<pdfrwt beam="2">  1       -2 0.99351576E+00 0.14942343E+02</pdfrwt>
<totfact>-0.15933518E-13</totfact>
</mgrwt>
</event>
<event>
 4    1 -0.5119137E-019  0.1490039E+02  0.7818608E-02  0.1871124E+00
         -2   -1    0    0    0  501 -0.00000000000E+00  0.00000000000E+00  0.11972555756E+03  0.11972555759E+03  0.25500000000E-02 0. -1.
          2   -1    0    0  501    0  0.00000000000E+00 -0.00000000000E+00 -0.46360149663E+00  0.46360850960E+00  0.25500000000E-02 0.  1.
         31    1    1    2    0    0 -0.83441133288E-01  0.19391888953E+00  0.59281448147E+02  0.59747749643E+02  0.74470750000E+01 0.  1.
        -31    1    1    2    0    0  0.83441133288E-01 -0.19391888953E+00  0.59980507916E+02  0.60441416453E+02  0.74470750000E+01 0. -1.
<mgrwt>
<rscale>  0 0.14900385E+02</rscale>
<asrwt>0</asrwt>
<pdfrwt beam="2">  1        2 0.98468391E+00 0.14900385E+02</pdfrwt>
<pdfrwt beam="1">  1       -2 0.99380812E+00 0.14900385E+02</pdfrwt>
<totfact>-0.35260400E-13</totfact>
</mgrwt>
</event>
<event>
 4    1 -0.5119137E-019  0.1493848E+02  0.7818608E-02  0.1869952E+00
          2   -1    0    0  501    0  0.00000000000E+00  0.00000000000E+00  0.11887336091E+03  0.11887336094E+03  0.25500000000E-02 0. -1.
         -2   -1    0    0    0  501 -0.00000000000E+00 -0.00000000000E+00 -0.46931560834E+00  0.46932253593E+00  0.25500000000E-02 0.  1.
         31    1    1    2    0    0  0.13701929425E+00 -0.43011415198E+00  0.62047255648E+02  0.62494196786E+02  0.74470750000E+01 0.  1.
        -31    1    1    2    0    0 -0.13701929425E+00  0.43011415198E+00  0.56356789656E+02  0.56848486690E+02  0.74470750000E+01 0.  1.
<mgrwt>
<rscale>  0 0.14938479E+02</rscale>
<asrwt>0</asrwt>
<pdfrwt beam="1">  1        2 0.98680881E+00 0.14938479E+02</pdfrwt>
<pdfrwt beam="2">  1       -2 0.99674514E+00 0.14938479E+02</pdfrwt>
<totfact>-0.22134613E-13</totfact>
</mgrwt>
</event>
<event>
 4    1  0.5119137E-019  0.1490868E+02  0.7818608E-02  0.1870868E+00
          2   -1    0    0  501    0  0.00000000000E+00  0.00000000000E+00  0.11996243502E+03  0.11996243505E+03  0.25500000000E-02 0. -1.
         -2   -1    0    0    0  501 -0.00000000000E+00 -0.00000000000E+00 -0.46320160647E+00  0.46320862550E+00  0.25500000000E-02 0.  1.
         31    1    1    2    0    0 -0.28222167556E+00  0.37455263872E-01  0.61082751668E+02  0.61535701259E+02  0.74470750000E+01 0. -1.
        -31    1    1    2    0    0  0.28222167556E+00 -0.37455263872E-01  0.58416481747E+02  0.58889942416E+02  0.74470750000E+01 0.  1.
<mgrwt>
<rscale>  0 0.14908684E+02</rscale>
<asrwt>0</asrwt>
<pdfrwt beam="1">  1        2 0.99576348E+00 0.14908684E+02</pdfrwt>
<pdfrwt beam="2">  1       -2 0.98384533E+00 0.14908684E+02</pdfrwt>
<totfact> 0.59933500E-13</totfact>
</mgrwt>
</event>
<event>
 4    1 -0.5119137E-019  0.1492880E+02  0.7818608E-02  0.1870249E+00
         -2   -1    0    0    0  501 -0.00000000000E+00  0.00000000000E+00  0.11981125807E+03  0.11981125810E+03  0.25500000000E-02 0. -1.
          2   -1    0    0  501    0  0.00000000000E+00 -0.00000000000E+00 -0.46503877131E+00  0.46504576261E+00  0.25500000000E-02 0.  1.
         31    1    1    2    0    0  0.64338383192E-01  0.24498241103E+00  0.56122503353E+02  0.56615002115E+02  0.74470750000E+01 0.  1.
        -31    1    1    2    0    0 -0.64338383192E-01 -0.24498241103E+00  0.63223715946E+02  0.63661301745E+02  0.74470750000E+01 0. -1.
<mgrwt>
<rscale>  0 0.14928805E+02</rscale>
<asrwt>0</asrwt>
<pdfrwt beam="2">  1        2 0.98772754E+00 0.14928805E+02</pdfrwt>
<pdfrwt beam="1">  1       -2 0.99452863E+00 0.14928805E+02</pdfrwt>
<totfact>-0.23138903E-13</totfact>
</mgrwt>
</event>
<event>
 4    1 -0.5119137E-019  0.1490657E+02  0.7818608E-02  0.1870933E+00
          2   -1    0    0  501    0  0.00000000000E+00  0.00000000000E+00  0.11835045757E+03  0.11835045760E+03  0.25500000000E-02 0. -1.
         -2   -1    0    0    0  501 -0.00000000000E+00 -0.00000000000E+00 -0.46937774383E+00  0.46938467051E+00  0.25500000000E-02 0.  1.
         31    1    1    2    0    0  0.86609829748E-01  0.46838790113E-01  0.56646025892E+02  0.57133535428E+02  0.74470750000E+01 0.  1.
        -31    1    1    2    0    0 -0.86609829748E-01 -0.46838790113E-01  0.61235053939E+02  0.61686306844E+02  0.74470750000E+01 0. -1.
<mgrwt>
<rscale>  0 0.14906574E+02</rscale>
<asrwt>0</asrwt>
<pdfrwt beam="1">  1        2 0.98248559E+00 0.14906574E+02</pdfrwt>
<pdfrwt beam="2">  1       -2 0.99685927E+00 0.14906574E+02</pdfrwt>
<totfact>-0.43560997E-13</totfact>
</mgrwt>
</event>
<event>
 4    1 -0.5119137E-019  0.1491060E+02  0.7818608E-02  0.1870809E+00
         -2   -1    0    0    0  501 -0.00000000000E+00  0.00000000000E+00  0.11978591969E+03  0.11978591972E+03  0.25500000000E-02 0.  1.
          2   -1    0    0  501    0  0.00000000000E+00 -0.00000000000E+00 -0.46400348555E+00  0.46401049245E+00  0.25500000000E-02 0. -1.
         31    1    1    2    0    0 -0.61885143329E-01  0.76981035322E-01  0.56952058751E+02  0.57436971350E+02  0.74470750000E+01 0. -1.
        -31    1    1    2    0    0  0.61885143329E-01 -0.76981035322E-01  0.62369857452E+02  0.62812958858E+02  0.74470750000E+01 0.  1.
<mgrwt>
<rscale>  0 0.14910601E+02</rscale>
<asrwt>0</asrwt>
<pdfrwt beam="2">  1        2 0.98553634E+00 0.14910601E+02</pdfrwt>
<pdfrwt beam="1">  1       -2 0.99431056E+00 0.14910601E+02</pdfrwt>
<totfact>-0.31687049E-13</totfact>
</mgrwt>
</event>
<event>
 4    1 -0.5119137E-019  0.1490712E+02  0.7818608E-02  0.1870916E+00
         -2   -1    0    0    0  501 -0.00000000000E+00  0.00000000000E+00  0.11979531804E+03  0.11979531807E+03  0.25500000000E-02 0.  1.
          2   -1    0    0  501    0  0.00000000000E+00 -0.00000000000E+00 -0.46375047729E+00  0.46375748801E+00  0.25500000000E-02 0. -1.
         31    1    1    2    0    0  0.14503005956E+00 -0.27028205394E+00  0.60072914137E+02  0.60533528107E+02  0.74470750000E+01 0. -1.
        -31    1    1    2    0    0 -0.14503005956E+00  0.27028205394E+00  0.59258653428E+02  0.59725547451E+02  0.74470750000E+01 0.  1.
<mgrwt>
<rscale>  0 0.14907120E+02</rscale>
<asrwt>0</asrwt>
<pdfrwt beam="2">  1        2 0.98500133E+00 0.14907120E+02</pdfrwt>
<pdfrwt beam="1">  1       -2 0.99438618E+00 0.14907120E+02</pdfrwt>
<totfact>-0.34610096E-13</totfact>
</mgrwt>
</event>
<event>
 4    1 -0.5119137E-019  0.1497767E+02  0.7818608E-02  0.1868751E+00
         -2   -1    0    0    0  501 -0.00000000000E+00  0.00000000000E+00  0.11989697682E+03  0.11989697685E+03  0.25500000000E-02 0. -1.
          2   -1    0    0  501    0  0.00000000000E+00 -0.00000000000E+00 -0.46775354252E+00  0.46776049324E+00  0.25500000000E-02 0.  1.
         31    1    1    2    0    0 -0.74188527719E+00  0.27024578710E+00  0.59574729067E+02  0.60043573311E+02  0.74470750000E+01 0.  1.
        -31    1    1    2    0    0  0.74188527719E+00 -0.27024578710E+00  0.59854494210E+02  0.60321164029E+02  0.74470750000E+01 0.  1.
<mgrwt>
<rscale>  0 0.14977671E+02</rscale>
<asrwt>0</asrwt>
<pdfrwt beam="2">  1        2 0.99347388E+00 0.14977671E+02</pdfrwt>
<pdfrwt beam="1">  1       -2 0.99525986E+00 0.14977671E+02</pdfrwt>
<totfact>-0.13490954E-13</totfact>
</mgrwt>
</event>
<event>
 4    1 -0.5119137E-019  0.1489489E+02  0.7818608E-02  0.1871293E+00
          2   -1    0    0  501    0  0.00000000000E+00  0.00000000000E+00  0.11798653336E+03  0.11798653339E+03  0.25500000000E-02 0. -1.
         -2   -1    0    0    0  501 -0.00000000000E+00 -0.00000000000E+00 -0.47008750455E+00  0.47009442077E+00  0.25500000000E-02 0.  1.
         31    1    1    2    0    0  0.28762315615E-01  0.44650083979E-01  0.58348103898E+02  0.58821449960E+02  0.74470750000E+01 0.  1.
        -31    1    1    2    0    0 -0.28762315615E-01 -0.44650083979E-01  0.59168341959E+02  0.59635177849E+02  0.74470750000E+01 0. -1.
<mgrwt>
<rscale>  0 0.14894886E+02</rscale>
<asrwt>0</asrwt>
<pdfrwt beam="1">  1        2 0.97948228E+00 0.14894886E+02</pdfrwt>
<pdfrwt beam="2">  1       -2 0.99834848E+00 0.14894886E+02</pdfrwt>
<totfact>-0.44167706E-13</totfact>
</mgrwt>
</event>
<event>
 4    1  0.5119137E-019  0.1492383E+02  0.7818608E-02  0.1870402E+00
          2   -1    0    0  501    0  0.00000000000E+00  0.00000000000E+00  0.12005946591E+03  0.12005946594E+03  0.25500000000E-02 0. -1.
         -2   -1    0    0    0  501 -0.00000000000E+00 -0.00000000000E+00 -0.46376827777E+00  0.46377528823E+00  0.25500000000E-02 0.  1.
         31    1    1    2    0    0  0.43205760860E+00  0.13523577858E-01  0.58299708877E+02  0.58775010317E+02  0.74470750000E+01 0.  1.
        -31    1    1    2    0    0 -0.43205760860E+00 -0.13523577858E-01  0.61295988755E+02  0.61748230907E+02  0.74470750000E+01 0. -1.
<mgrwt>
<rscale>  0 0.14923833E+02</rscale>
<asrwt>0</asrwt>
<pdfrwt beam="1">  1        2 0.99657048E+00 0.14923833E+02</pdfrwt>
<pdfrwt beam="2">  1       -2 0.98504735E+00 0.14923833E+02</pdfrwt>
<totfact> 0.38542304E-13</totfact>
</mgrwt>
</event>
<event>
 4    1 -0.5119137E-019  0.1496345E+02  0.7818608E-02  0.1869186E+00
         -2   -1    0    0    0  501 -0.00000000000E+00  0.00000000000E+00  0.11984777089E+03  0.11984777092E+03  0.25500000000E-02 0. -1.
          2   -1    0    0  501    0  0.00000000000E+00 -0.00000000000E+00 -0.46705715063E+00  0.46706411171E+00  0.25500000000E-02 0.  1.
         31    1    1    2    0    0  0.15320437444E+00 -0.63640239892E-02  0.54040505830E+02  0.54551431773E+02  0.74470750000E+01 0.  1.
        -31    1    1    2    0    0 -0.15320437444E+00  0.63640239892E-02  0.65340207914E+02  0.65763403261E+02  0.74470750000E+01 0. -1.
<mgrwt>
<rscale>  0 0.14963446E+02</rscale>
<asrwt>0</asrwt>
<pdfrwt beam="2">  1        2 0.99199898E+00 0.14963446E+02</pdfrwt>
<pdfrwt beam="1">  1       -2 0.99484724E+00 0.14963446E+02</pdfrwt>
<totfact>-0.15169139E-13</totfact>
</mgrwt>
</event>
<event>
 4    1 -0.5119137E-019  0.1494609E+02  0.7818608E-02  0.1869718E+00
          2   -1    0    0  501    0  0.00000000000E+00  0.00000000000E+00  0.11952806127E+03  0.11952806130E+03  0.25500000000E-02 0. -1.
         -2   -1    0    0    0  501 -0.00000000000E+00 -0.00000000000E+00 -0.46722071861E+00  0.46722767726E+00  0.25500000000E-02 0.  1.
         31    1    1    2    0    0 -0.78207924360E-01  0.59559090314E+00  0.60840690771E+02  0.61297711414E+02  0.74470750000E+01 0. -1.
        -31    1    1    2    0    0  0.78207924360E-01 -0.59559090314E+00  0.58220149783E+02  0.58697577563E+02  0.74470750000E+01 0. -1.
<mgrwt>
<rscale>  0 0.14946091E+02</rscale>
<asrwt>0</asrwt>
<pdfrwt beam="1">  1        2 0.99220501E+00 0.14946091E+02</pdfrwt>
<pdfrwt beam="2">  1       -2 0.99233473E+00 0.14946091E+02</pdfrwt>
<totfact>-0.11049569E-13</totfact>
</mgrwt>
</event>
<event>
 4    1 -0.5119137E-019  0.1498974E+02  0.7818608E-02  0.1868382E+00
         -2   -1    0    0    0  501 -0.00000000000E+00  0.00000000000E+00  0.12025102815E+03  0.12025102818E+03  0.25500000000E-02 0.  1.
          2   -1    0    0  501    0  0.00000000000E+00 -0.00000000000E+00 -0.46712796158E+00  0.46713492161E+00  0.25500000000E-02 0. -1.
         31    1    1    2    0    0  0.61978139284E+00  0.13835278907E+00  0.64381978764E+02  0.64814360956E+02  0.74470750000E+01 0.  1.
        -31    1    1    2    0    0 -0.61978139284E+00 -0.13835278907E+00  0.55401921426E+02  0.55903802145E+02  0.74470750000E+01 0. -1.
<mgrwt>
<rscale>  0 0.14989735E+02</rscale>
<asrwt>0</asrwt>
<pdfrwt beam="2">  1        2 0.99216171E+00 0.14989735E+02</pdfrwt>
<pdfrwt beam="1">  1       -2 0.99818223E+00 0.14989735E+02</pdfrwt>
<totfact>-0.82260187E-14</totfact>
</mgrwt>
</event>
<event>
 4    1 -0.5119137E-019  0.1500154E+02  0.7818608E-02  0.1868021E+00
         -2   -1    0    0    0  501 -0.00000000000E+00  0.00000000000E+00  0.11990275474E+03  0.11990275476E+03  0.25500000000E-02 0.  1.
          2   -1    0    0  501    0  0.00000000000E+00 -0.00000000000E+00 -0.46922321388E+00  0.46923014283E+00  0.25500000000E-02 0. -1.
         31    1    1    2    0    0 -0.72243714370E+00  0.31554880197E+00  0.56301510974E+02  0.56797363940E+02  0.74470750000E+01 0. -1.
        -31    1    1    2    0    0  0.72243714370E+00 -0.31554880197E+00  0.63132020547E+02  0.63574620965E+02  0.74470750000E+01 0.  1.
<mgrwt>
<rscale>  0 0.15001543E+02</rscale>
<asrwt>0</asrwt>
<pdfrwt beam="2">  1        2 0.99658333E+00 0.15001543E+02</pdfrwt>
<pdfrwt beam="1">  1       -2 0.99531979E+00 0.15001543E+02</pdfrwt>
<totfact>-0.94817994E-14</totfact>
</mgrwt>
</event>
<event>
 4    1  0.5119137E-019  0.1490457E+02  0.7818608E-02  0.1870995E+00
         -2   -1    0    0    0  501 -0.00000000000E+00  0.00000000000E+00  0.11900953514E+03  0.11900953517E+03  0.25500000000E-02 0.  1.
          2   -1    0    0  501    0  0.00000000000E+00 -0.00000000000E+00 -0.46665278151E+00  0.46665974863E+00  0.25500000000E-02 0. -1.
         31    1    1    2    0    0  0.20919429939E+00  0.17737499301E+00  0.59664002896E+02  0.60127592599E+02  0.74470750000E+01 0.  1.
        -31    1    1    2    0    0 -0.20919429939E+00 -0.17737499301E+00  0.58878879466E+02  0.59348602320E+02  0.74470750000E+01 0. -1.
<mgrwt>
<rscale>  0 0.14904570E+02</rscale>
<asrwt>0</asrwt>
<pdfrwt beam="2">  1        2 0.99111639E+00 0.14904570E+02</pdfrwt>
<pdfrwt beam="1">  1       -2 0.98791277E+00 0.14904570E+02</pdfrwt>
<totfact> 0.21573752E-13</totfact>
</mgrwt>
</event>
<event>
 4    1 -0.5119137E-019  0.1493202E+02  0.7818608E-02  0.1870150E+00
         -2   -1    0    0    0  501 -0.00000000000E+00  0.00000000000E+00  0.12027188285E+03  0.12027188287E+03  0.25500000000E-02 0.  1.
          2   -1    0    0  501    0  0.00000000000E+00 -0.00000000000E+00 -0.46345746710E+00  0.46346448225E+00  0.25500000000E-02 0. -1.
         31    1    1    2    0    0 -0.32257251794E+00  0.32661466429E+00  0.62068863126E+02  0.62515705435E+02  0.74470750000E+01 0.  1.
        -31    1    1    2    0    0  0.32257251794E+00 -0.32661466429E+00  0.57739562254E+02  0.58219641922E+02  0.74470750000E+01 0. -1.
<mgrwt>
<rscale>  0 0.14932023E+02</rscale>
<asrwt>0</asrwt>
<pdfrwt beam="2">  1        2 0.98439642E+00 0.14932023E+02</pdfrwt>
<pdfrwt beam="1">  1       -2 0.99832433E+00 0.14932023E+02</pdfrwt>
<totfact>-0.19676281E-13</totfact>
</mgrwt>
</event>
<event>
 4    1  0.5119137E-019  0.1489825E+02  0.7818608E-02  0.1871189E+00
         -2   -1    0    0    0  501 -0.00000000000E+00  0.00000000000E+00  0.11796588151E+03  0.11796588154E+03  0.25500000000E-02 0. -1.
          2   -1    0    0  501    0  0.00000000000E+00 -0.00000000000E+00 -0.47038250722E+00  0.47038941910E+00  0.25500000000E-02 0.  1.
         31    1    1    2    0    0 -0.12033208128E+00  0.12563035312E+00  0.58607961259E+02  0.59079457612E+02  0.74470750000E+01 0.  1.
        -31    1    1    2    0    0  0.12033208128E+00 -0.12563035312E+00  0.58887537747E+02  0.59356813347E+02  0.74470750000E+01 0.  1.
<mgrwt>
<rscale>  0 0.14898255E+02</rscale>
<asrwt>0</asrwt>
<pdfrwt beam="2">  1        2 0.99897180E+00 0.14898255E+02</pdfrwt>
<pdfrwt beam="1">  1       -2 0.97931395E+00 0.14898255E+02</pdfrwt>
<totfact> 0.49792109E-13</totfact>
</mgrwt>
</event>
<event>
 4    1 -0.5119137E-019  0.1491622E+02  0.7818608E-02  0.1870636E+00
          2   -1    0    0  501    0  0.00000000000E+00  0.00000000000E+00  0.11878192374E+03  0.11878192377E+03  0.25500000000E-02 0. -1.
         -2   -1    0    0    0  501 -0.00000000000E+00 -0.00000000000E+00 -0.46827810232E+00  0.46828504526E+00  0.25500000000E-02 0.  1.
         31    1    1    2    0    0  0.20892752914E+00 -0.28541845479E-01  0.56387411221E+02  0.56877443118E+02  0.74470750000E+01 0.  1.
        -31    1    1    2    0    0 -0.20892752914E+00  0.28541845479E-01  0.61926234421E+02  0.62372765699E+02  0.74470750000E+01 0. -1.
<mgrwt>
<rscale>  0 0.14916218E+02</rscale>
<asrwt>0</asrwt>
<pdfrwt beam="1">  1        2 0.98604416E+00 0.14916218E+02</pdfrwt>
<pdfrwt beam="2">  1       -2 0.99454734E+00 0.14916218E+02</pdfrwt>
<totfact>-0.29465274E-13</totfact>
</mgrwt>
</event>
<event>
 4    1  0.5119137E-019  0.1490796E+02  0.7818608E-02  0.1870890E+00
          2   -1    0    0  501    0  0.00000000000E+00  0.00000000000E+00  0.11986609265E+03  0.11986609268E+03  0.25500000000E-02 0.  1.
         -2   -1    0    0    0  501 -0.00000000000E+00 -0.00000000000E+00 -0.46352902034E+00  0.46353603441E+00  0.25500000000E-02 0. -1.
         31    1    1    2    0    0 -0.19608429923E+00  0.25386965291E+00  0.59674243885E+02  0.60137984736E+02  0.74470750000E+01 0.  1.
        -31    1    1    2    0    0  0.19608429923E+00 -0.25386965291E+00  0.59728319743E+02  0.60191643974E+02  0.74470750000E+01 0. -1.
<mgrwt>
<rscale>  0 0.14907962E+02</rscale>
<asrwt>0</asrwt>
<pdfrwt beam="1">  1        2 0.99496956E+00 0.14907962E+02</pdfrwt>
<pdfrwt beam="2">  1       -2 0.98453502E+00 0.14907962E+02</pdfrwt>
<totfact> 0.55224166E-13</totfact>
</mgrwt>
</event>
<event>
 4    1  0.5119137E-019  0.1492292E+02  0.7818608E-02  0.1870430E+00
          2   -1    0    0  501    0  0.00000000000E+00  0.00000000000E+00  0.12003583718E+03  0.12003583721E+03  0.25500000000E-02 0. -1.
         -2   -1    0    0    0  501 -0.00000000000E+00 -0.00000000000E+00 -0.46380302442E+00  0.46381003434E+00  0.25500000000E-02 0.  1.
         31    1    1    2    0    0  0.23166815332E+00 -0.28716133798E+00  0.62046247414E+02  0.62492654576E+02  0.74470750000E+01 0.  1.
        -31    1    1    2    0    0 -0.23166815332E+00  0.28716133798E+00  0.57525786741E+02  0.58006992665E+02  0.74470750000E+01 0.  1.
<mgrwt>
<rscale>  0 0.14922923E+02</rscale>
<asrwt>0</asrwt>
<pdfrwt beam="1">  1        2 0.99637539E+00 0.14922923E+02</pdfrwt>
<pdfrwt beam="2">  1       -2 0.98512012E+00 0.14922923E+02</pdfrwt>
<totfact> 0.39073705E-13</totfact>
</mgrwt>
</event>
<event>
 4    1  0.5119137E-019  0.1490011E+02  0.7818608E-02  0.1871132E+00
         -2   -1    0    0    0  501 -0.00000000000E+00  0.00000000000E+00  0.11839259683E+03  0.11839259686E+03  0.25500000000E-02 0.  1.
          2   -1    0    0  501    0  0.00000000000E+00 -0.00000000000E+00 -0.46880407057E+00  0.46881100572E+00  0.25500000000E-02 0. -1.
         31    1    1    2    0    0  0.20041026157E+00 -0.62727022311E-01  0.59104620358E+02  0.59572302060E+02  0.74470750000E+01 0. -1.
        -31    1    1    2    0    0 -0.20041026157E+00  0.62727022311E-01  0.58819172400E+02  0.59289105802E+02  0.74470750000E+01 0.  1.
<mgrwt>
<rscale>  0 0.14900113E+02</rscale>
<asrwt>0</asrwt>
<pdfrwt beam="2">  1        2 0.99564713E+00 0.14900113E+02</pdfrwt>
<pdfrwt beam="1">  1       -2 0.98282928E+00 0.14900113E+02</pdfrwt>
<totfact> 0.76738612E-13</totfact>
</mgrwt>
</event>
<event>
 4    1 -0.5119137E-019  0.1490307E+02  0.7818608E-02  0.1871041E+00
         -2   -1    0    0    0  501 -0.00000000000E+00  0.00000000000E+00  0.12041322481E+03  0.12041322483E+03  0.25500000000E-02 0.  1.
          2   -1    0    0  501    0  0.00000000000E+00 -0.00000000000E+00 -0.46111993908E+00  0.46112698980E+00  0.25500000000E-02 0. -1.
         31    1    1    2    0    0  0.79802775767E-01  0.22893711000E+00  0.59266196563E+02  0.59732736098E+02  0.74470750000E+01 0.  1.
        -31    1    1    2    0    0 -0.79802775767E-01 -0.22893711000E+00  0.60685908306E+02  0.61141615727E+02  0.74470750000E+01 0. -1.
<mgrwt>
<rscale>  0 0.14903069E+02</rscale>
<asrwt>0</asrwt>
<pdfrwt beam="2">  1        2 0.97945488E+00 0.14903069E+02</pdfrwt>
<pdfrwt beam="1">  1       -2 0.99947371E+00 0.14903069E+02</pdfrwt>
<totfact>-0.15537360E-13</totfact>
</mgrwt>
</event>
<event>
 4    1 -0.5119137E-019  0.1501630E+02  0.7818608E-02  0.1867572E+00
          2   -1    0    0  501    0  0.00000000000E+00  0.00000000000E+00  0.12010906841E+03  0.12010906844E+03  0.25500000000E-02 0.  1.
         -2   -1    0    0    0  501 -0.00000000000E+00 -0.00000000000E+00 -0.46933912843E+00  0.46934605567E+00  0.25500000000E-02 0. -1.
         31    1    1    2    0    0 -0.17289277392E+00  0.36710213474E+00  0.52871746250E+02  0.53395178935E+02  0.74470750000E+01 0. -1.
        -31    1    1    2    0    0  0.17289277392E+00 -0.36710213474E+00  0.66767983033E+02  0.67183235560E+02  0.74470750000E+01 0.  1.
<mgrwt>
<rscale>  0 0.15016298E+02</rscale>
<asrwt>0</asrwt>
<pdfrwt beam="1">  1        2 0.99702670E+00 0.15016298E+02</pdfrwt>
<pdfrwt beam="2">  1       -2 0.99683523E+00 0.15016298E+02</pdfrwt>
<totfact>-0.72537224E-14</totfact>
</mgrwt>
</event>
<event>
 4    1 -0.5119137E-019  0.1494403E+02  0.7818608E-02  0.1869781E+00
         -2   -1    0    0    0  501 -0.00000000000E+00  0.00000000000E+00  0.11995338451E+03  0.11995338453E+03  0.25500000000E-02 0.  1.
          2   -1    0    0  501    0  0.00000000000E+00 -0.00000000000E+00 -0.46543581945E+00  0.46544280479E+00  0.25500000000E-02 0. -1.
         31    1    1    2    0    0  0.11632985394E+00 -0.58123489243E+00  0.58583754584E+02  0.59058162804E+02  0.74470750000E+01 0.  1.
        -31    1    1    2    0    0 -0.11632985394E+00  0.58123489243E+00  0.60904194102E+02  0.61360664533E+02  0.74470750000E+01 0. -1.
<mgrwt>
<rscale>  0 0.14944032E+02</rscale>
<asrwt>0</asrwt>
<pdfrwt beam="2">  1        2 0.98857212E+00 0.14944032E+02</pdfrwt>
<pdfrwt beam="1">  1       -2 0.99570712E+00 0.14944032E+02</pdfrwt>
<totfact>-0.20065111E-13</totfact>
</mgrwt>
</event>
<event>
 4    1  0.5119137E-019  0.1490058E+02  0.7818608E-02  0.1871118E+00
         -2   -1    0    0    0  501 -0.00000000000E+00  0.00000000000E+00  0.11833455140E+03  0.11833455143E+03  0.25500000000E-02 0.  1.
          2   -1    0    0  501    0  0.00000000000E+00 -0.00000000000E+00 -0.46906353837E+00  0.46907046968E+00  0.25500000000E-02 0. -1.
         31    1    1    2    0    0 -0.10869170251E+00  0.10800324354E+00  0.57686488808E+02  0.58165396892E+02  0.74470750000E+01 0. -1.
        -31    1    1    2    0    0  0.10869170251E+00 -0.10800324354E+00  0.60178999053E+02  0.60638225004E+02  0.74470750000E+01 0.  1.
<mgrwt>
<rscale>  0 0.14900582E+02</rscale>
<asrwt>0</asrwt>
<pdfrwt beam="2">  1        2 0.99619408E+00 0.14900582E+02</pdfrwt>
<pdfrwt beam="1">  1       -2 0.98235147E+00 0.14900582E+02</pdfrwt>
<totfact> 0.78532143E-13</totfact>
</mgrwt>
</event>
<event>
 4    1 -0.5119137E-019  0.1493495E+02  0.7818608E-02  0.1870060E+00
         -2   -1    0    0    0  501 -0.00000000000E+00  0.00000000000E+00  0.11968609077E+03  0.11968609080E+03  0.25500000000E-02 0. -1.
          2   -1    0    0  501    0  0.00000000000E+00 -0.00000000000E+00 -0.46590840757E+00  0.46591538582E+00  0.25500000000E-02 0.  1.
         31    1    1    2    0    0  0.39120129780E+00  0.34857061938E+00  0.60996798026E+02  0.61451955505E+02  0.74470750000E+01 0. -1.
        -31    1    1    2    0    0 -0.39120129780E+00 -0.34857061938E+00  0.58223384336E+02  0.58700050677E+02  0.74470750000E+01 0.  1.
<mgrwt>
<rscale>  0 0.14934949E+02</rscale>
<asrwt>0</asrwt>
<pdfrwt beam="2">  1        2 0.98956343E+00 0.14934949E+02</pdfrwt>
<pdfrwt beam="1">  1       -2 0.99350085E+00 0.14934949E+02</pdfrwt>
<totfact>-0.17431456E-13</totfact>
</mgrwt>
</event>
<event>
 4    1  0.5119137E-019  0.1495126E+02  0.7818608E-02  0.1869560E+00
          2   -1    0    0  501    0  0.00000000000E+00  0.00000000000E+00  0.12030322766E+03  0.12030322768E+03  0.25500000000E-02 0.  1.
         -2   -1    0    0    0  501 -0.00000000000E+00 -0.00000000000E+00 -0.46453123503E+00  0.46453823397E+00  0.25500000000E-02 0. -1.
         31    1    1    2    0    0  0.51062291943E+00 -0.34002628631E+00  0.58117673888E+02  0.58596068962E+02  0.74470750000E+01 0. -1.
        -31    1    1    2    0    0 -0.51062291943E+00  0.34002628631E+00  0.61721022535E+02  0.62171696956E+02  0.74470750000E+01 0.  1.
<mgrwt>
<rscale>  0 0.14951258E+02</rscale>
<asrwt>0</asrwt>
<pdfrwt beam="1">  1        2 0.99859239E+00 0.14951258E+02</pdfrwt>
<pdfrwt beam="2">  1       -2 0.98666932E+00 0.14951258E+02</pdfrwt>
<totfact> 0.11581603E-13</totfact>
</mgrwt>
</event>
<event>
 4    1  0.5119137E-019  0.1492461E+02  0.7818608E-02  0.1870378E+00
         -2   -1    0    0    0  501 -0.00000000000E+00  0.00000000000E+00  0.11840680546E+03  0.11840680549E+03  0.25500000000E-02 0.  1.
          2   -1    0    0  501    0  0.00000000000E+00 -0.00000000000E+00 -0.47029028099E+00  0.47029719422E+00  0.25500000000E-02 0. -1.
         31    1    1    2    0    0 -0.84208848148E-01 -0.19831131993E+00  0.55582938728E+02  0.56080018029E+02  0.74470750000E+01 0. -1.
        -31    1    1    2    0    0  0.84208848148E-01  0.19831131993E+00  0.62353576454E+02  0.62797084655E+02  0.74470750000E+01 0.  1.
<mgrwt>
<rscale>  0 0.14924608E+02</rscale>
<asrwt>0</asrwt>
<pdfrwt beam="2">  1        2 0.99879148E+00 0.14924608E+02</pdfrwt>
<pdfrwt beam="1">  1       -2 0.98295906E+00 0.14924608E+02</pdfrwt>
<totfact> 0.29112639E-13</totfact>
</mgrwt>
</event>
<event>
 4    1 -0.5119137E-019  0.1491706E+02  0.7818608E-02  0.1870610E+00
         -2   -1    0    0    0  501 -0.00000000000E+00  0.00000000000E+00  0.12013891369E+03  0.12013891371E+03  0.25500000000E-02 0. -1.
          2   -1    0    0  501    0  0.00000000000E+00 -0.00000000000E+00 -0.46304105312E+00  0.46304807459E+00  0.25500000000E-02 0.  1.
         31    1    1    2    0    0 -0.62206913343E-01 -0.10719241880E+00  0.56650950688E+02  0.57138467776E+02  0.74470750000E+01 0.  1.
        -31    1    1    2    0    0  0.62206913343E-01  0.10719241880E+00  0.63024921946E+02  0.63463494013E+02  0.74470750000E+01 0. -1.
<mgrwt>
<rscale>  0 0.14917061E+02</rscale>
<asrwt>0</asrwt>
<pdfrwt beam="2">  1        2 0.98351118E+00 0.14917061E+02</pdfrwt>
<pdfrwt beam="1">  1       -2 0.99722140E+00 0.14917061E+02</pdfrwt>
<totfact>-0.33802273E-13</totfact>
</mgrwt>
</event>
<event>
 4    1 -0.5119137E-019  0.1492081E+02  0.7818608E-02  0.1870495E+00
          2   -1    0    0  501    0  0.00000000000E+00  0.00000000000E+00  0.11850158638E+03  0.11850158640E+03  0.25500000000E-02 0.  1.
         -2   -1    0    0    0  501 -0.00000000000E+00 -0.00000000000E+00 -0.46967474122E+00  0.46968166351E+00  0.25500000000E-02 0. -1.
         31    1    1    2    0    0 -0.15447288041E-01 -0.24173368179E+00  0.56032374905E+02  0.56525610455E+02  0.74470750000E+01 0. -1.
        -31    1    1    2    0    0  0.15447288041E-01  0.24173368179E+00  0.61999536731E+02  0.62445657613E+02  0.74470750000E+01 0.  1.
<mgrwt>
<rscale>  0 0.14920806E+02</rscale>
<asrwt>0</asrwt>
<pdfrwt beam="1">  1        2 0.98373768E+00 0.14920806E+02</pdfrwt>
<pdfrwt beam="2">  1       -2 0.99749255E+00 0.14920806E+02</pdfrwt>
<totfact>-0.30250596E-13</totfact>
</mgrwt>
</event>
<event>
 4    1 -0.5119137E-019  0.1500289E+02  0.7818608E-02  0.1867980E+00
         -2   -1    0    0    0  501 -0.00000000000E+00  0.00000000000E+00  0.12023851509E+03  0.12023851511E+03  0.25500000000E-02 0. -1.
          2   -1    0    0  501    0  0.00000000000E+00 -0.00000000000E+00 -0.46799674038E+00  0.46800368749E+00  0.25500000000E-02 0.  1.
         31    1    1    2    0    0  0.17183461954E+00 -0.56454449006E-01  0.52779556739E+02  0.53302657062E+02  0.74470750000E+01 0.  1.
        -31    1    1    2    0    0 -0.17183461954E+00  0.56454449006E-01  0.66990961607E+02  0.67403861739E+02  0.74470750000E+01 0. -1.
<mgrwt>
<rscale>  0 0.15002887E+02</rscale>
<asrwt>0</asrwt>
<pdfrwt beam="2">  1        2 0.99399938E+00 0.15002887E+02</pdfrwt>
<pdfrwt beam="1">  1       -2 0.99808595E+00 0.15002887E+02</pdfrwt>
<totfact>-0.74947624E-14</totfact>
</mgrwt>
</event>
<event>
 4    1 -0.5119137E-019  0.1500290E+02  0.7818608E-02  0.1867980E+00
          2   -1    0    0  501    0  0.00000000000E+00  0.00000000000E+00  0.11972696732E+03  0.11972696734E+03  0.25500000000E-02 0. -1.
         -2   -1    0    0    0  501 -0.00000000000E+00 -0.00000000000E+00 -0.46999740524E+00  0.47000432278E+00  0.25500000000E-02 0.  1.
         31    1    1    2    0    0  0.53137866301E+00 -0.65065282859E+00  0.62250890753E+02  0.62700383077E+02  0.74470750000E+01 0.  1.
        -31    1    1    2    0    0 -0.53137866301E+00  0.65065282859E+00  0.57006079159E+02  0.57496588591E+02  0.74470750000E+01 0.  1.
<mgrwt>
<rscale>  0 0.15002904E+02</rscale>
<asrwt>0</asrwt>
<pdfrwt beam="1">  1        2 0.99387266E+00 0.15002904E+02</pdfrwt>
<pdfrwt beam="2">  1       -2 0.99821547E+00 0.15002904E+02</pdfrwt>
<totfact>-0.71465036E-14</totfact>
</mgrwt>
</event>
<event>
 4    1 -0.5119137E-019  0.1494935E+02  0.7818608E-02  0.1869618E+00
          2   -1    0    0  501    0  0.00000000000E+00  0.00000000000E+00  0.11892600737E+03  0.11892600740E+03  0.25500000000E-02 0. -1.
         -2   -1    0    0    0  501 -0.00000000000E+00 -0.00000000000E+00 -0.46979096874E+00  0.46979788932E+00  0.25500000000E-02 0.  1.
         31    1    1    2    0    0  0.47782399521E+00  0.46665179623E-01  0.55826871234E+02  0.56323431813E+02  0.74470750000E+01 0.  1.
        -31    1    1    2    0    0 -0.47782399521E+00 -0.46665179623E-01  0.62629345166E+02  0.63072373472E+02  0.74470750000E+01 0. -1.
<mgrwt>
<rscale>  0 0.14949352E+02</rscale>
<asrwt>0</asrwt>
<pdfrwt beam="1">  1        2 0.98724806E+00 0.14949352E+02</pdfrwt>
<pdfrwt beam="2">  1       -2 0.99775248E+00 0.14949352E+02</pdfrwt>
<totfact>-0.16077490E-13</totfact>
</mgrwt>
</event>
<event>
 4    1 -0.5119137E-019  0.1491159E+02  0.7818608E-02  0.1870778E+00
         -2   -1    0    0    0  501 -0.00000000000E+00  0.00000000000E+00  0.12014897028E+03  0.12014897031E+03  0.25500000000E-02 0.  1.
          2   -1    0    0  501    0  0.00000000000E+00 -0.00000000000E+00 -0.46266272735E+00  0.46266975456E+00  0.25500000000E-02 0. -1.
         31    1    1    2    0    0  0.51800925116E-01 -0.34152429618E+00  0.59009319149E+02  0.59478382583E+02  0.74470750000E+01 0.  1.
        -31    1    1    2    0    0 -0.51800925116E-01  0.34152429618E+00  0.60676988404E+02  0.61133257479E+02  0.74470750000E+01 0. -1.
<mgrwt>
<rscale>  0 0.14911590E+02</rscale>
<asrwt>0</asrwt>
<pdfrwt beam="2">  1        2 0.98271102E+00 0.14911590E+02</pdfrwt>
<pdfrwt beam="1">  1       -2 0.99730143E+00 0.14911590E+02</pdfrwt>
<totfact>-0.37913566E-13</totfact>
</mgrwt>
</event>
<event>
 4    1  0.5119137E-019  0.1493170E+02  0.7818608E-02  0.1870160E+00
          2   -1    0    0  501    0  0.00000000000E+00  0.00000000000E+00  0.11980617214E+03  0.11980617216E+03  0.25500000000E-02 0. -1.
         -2   -1    0    0    0  501 -0.00000000000E+00 -0.00000000000E+00 -0.46523889798E+00  0.46524588627E+00  0.25500000000E-02 0.  1.
         31    1    1    2    0    0  0.41441792797E+00 -0.32407335526E+00  0.60127645610E+02  0.60589351032E+02  0.74470750000E+01 0. -1.
        -31    1    1    2    0    0 -0.41441792797E+00  0.32407335526E+00  0.59213287628E+02  0.59682067018E+02  0.74470750000E+01 0. -1.
<mgrwt>
<rscale>  0 0.14931700E+02</rscale>
<asrwt>0</asrwt>
<pdfrwt beam="1">  1        2 0.99448823E+00 0.14931700E+02</pdfrwt>
<pdfrwt beam="2">  1       -2 0.98815079E+00 0.14931700E+02</pdfrwt>
<totfact> 0.14540980E-13</totfact>
</mgrwt>
</event>
<event>
 4    1 -0.5119137E-019  0.1492983E+02  0.7818608E-02  0.1870217E+00
         -2   -1    0    0    0  501 -0.00000000000E+00  0.00000000000E+00  0.12023146607E+03  0.12023146610E+03  0.25500000000E-02 0. -1.
          2   -1    0    0  501    0  0.00000000000E+00 -0.00000000000E+00 -0.46347731812E+00  0.46348433297E+00  0.25500000000E-02 0.  1.
         31    1    1    2    0    0  0.61783052714E-01 -0.33077926362E+00  0.63044309013E+02  0.63483517995E+02  0.74470750000E+01 0. -1.
        -31    1    1    2    0    0 -0.61783052714E-01  0.33077926362E+00  0.56723679739E+02  0.57211432435E+02  0.74470750000E+01 0.  1.
<mgrwt>
<rscale>  0 0.14929834E+02</rscale>
<asrwt>0</asrwt>
<pdfrwt beam="2">  1        2 0.98443715E+00 0.14929834E+02</pdfrwt>
<pdfrwt beam="1">  1       -2 0.99799030E+00 0.14929834E+02</pdfrwt>
<totfact>-0.22707252E-13</totfact>
</mgrwt>
</event>
<event>
 4    1  0.5119137E-019  0.1494317E+02  0.7818608E-02  0.1869808E+00
         -2   -1    0    0    0  501 -0.00000000000E+00  0.00000000000E+00  0.11915010301E+03  0.11915010304E+03  0.25500000000E-02 0.  1.
          2   -1    0    0  501    0  0.00000000000E+00 -0.00000000000E+00 -0.46851979162E+00  0.46852673098E+00  0.25500000000E-02 0. -1.
         31    1    1    2    0    0 -0.52882087172E+00  0.18715404659E+00  0.61148444885E+02  0.61602807696E+02  0.74470750000E+01 0.  1.
        -31    1    1    2    0    0  0.52882087172E+00 -0.18715404659E+00  0.57533138336E+02  0.58015822074E+02  0.74470750000E+01 0. -1.
<mgrwt>
<rscale>  0 0.14943172E+02</rscale>
<asrwt>0</asrwt>
<pdfrwt beam="2">  1        2 0.99507070E+00 0.14943172E+02</pdfrwt>
<pdfrwt beam="1">  1       -2 0.98909052E+00 0.14943172E+02</pdfrwt>
<totfact> 0.65573904E-14</totfact>
</mgrwt>
</event>
<event>
 4    1  0.5119137E-019  0.1492806E+02  0.7818608E-02  0.1870272E+00
          2   -1    0    0  501    0  0.00000000000E+00  0.00000000000E+00  0.12010011791E+03  0.12010011794E+03  0.25500000000E-02 0. -1.
         -2   -1    0    0    0  501 -0.00000000000E+00 -0.00000000000E+00 -0.46387405630E+00  0.46388106515E+00  0.25500000000E-02 0.  1.
         31    1    1    2    0    0  0.44012626830E+00 -0.84137131426E-01  0.61660460004E+02  0.62110160555E+02  0.74470750000E+01 0. -1.
        -31    1    1    2    0    0 -0.44012626830E+00  0.84137131426E-01  0.57975783850E+02  0.58453838447E+02  0.74470750000E+01 0. -1.
<mgrwt>
<rscale>  0 0.14928061E+02</rscale>
<asrwt>0</asrwt>
<pdfrwt beam="1">  1        2 0.99690750E+00 0.14928061E+02</pdfrwt>
<pdfrwt beam="2">  1       -2 0.98527244E+00 0.14928061E+02</pdfrwt>
<totfact> 0.33763181E-13</totfact>
</mgrwt>
</event>
<event>
 4    1 -0.5119137E-019  0.1498896E+02  0.7818608E-02  0.1868406E+00
          2   -1    0    0  501    0  0.00000000000E+00  0.00000000000E+00  0.11968128577E+03  0.11968128579E+03  0.25500000000E-02 0. -1.
         -2   -1    0    0    0  501 -0.00000000000E+00 -0.00000000000E+00 -0.46930292413E+00  0.46930985190E+00  0.25500000000E-02 0.  1.
         31    1    1    2    0    0 -0.60360276180E+00 -0.48864392202E+00  0.57006551561E+02  0.57496164708E+02  0.74470750000E+01 0.  1.
        -31    1    1    2    0    0  0.60360276180E+00  0.48864392202E+00  0.62205431282E+02  0.62654430939E+02  0.74470750000E+01 0. -1.
<mgrwt>
<rscale>  0 0.14988955E+02</rscale>
<asrwt>0</asrwt>
<pdfrwt beam="1">  1        2 0.99348919E+00 0.14988955E+02</pdfrwt>
<pdfrwt beam="2">  1       -2 0.99674477E+00 0.14988955E+02</pdfrwt>
<totfact>-0.11457271E-13</totfact>
</mgrwt>
</event>
<event>
 4    1 -0.5119137E-019  0.1490964E+02  0.7818608E-02  0.1870838E+00
          2   -1    0    0  501    0  0.00000000000E+00  0.00000000000E+00  0.11900598368E+03  0.11900598371E+03  0.25500000000E-02 0. -1.
         -2   -1    0    0    0  501 -0.00000000000E+00 -0.00000000000E+00 -0.46698455765E+00  0.46699151982E+00  0.25500000000E-02 0.  1.
         31    1    1    2    0    0 -0.23363201329E+00  0.12852380200E+00  0.57582057751E+02  0.58062237325E+02  0.74470750000E+01 0.  1.
        -31    1    1    2    0    0  0.23363201329E+00 -0.12852380200E+00  0.60956941372E+02  0.61410737903E+02  0.74470750000E+01 0. -1.
<mgrwt>
<rscale>  0 0.14909644E+02</rscale>
<asrwt>0</asrwt>
<pdfrwt beam="1">  1        2 0.98788615E+00 0.14909644E+02</pdfrwt>
<pdfrwt beam="2">  1       -2 0.99181817E+00 0.14909644E+02</pdfrwt>
<totfact>-0.13869713E-13</totfact>
</mgrwt>
</event>
<event>
 4    1 -0.5119137E-019  0.1497042E+02  0.7818608E-02  0.1868972E+00
          2   -1    0    0  501    0  0.00000000000E+00  0.00000000000E+00  0.11928680033E+03  0.11928680036E+03  0.25500000000E-02 0. -1.
         -2   -1    0    0    0  501 -0.00000000000E+00 -0.00000000000E+00 -0.46969136278E+00  0.46969828483E+00  0.25500000000E-02 0.  1.
         31    1    1    2    0    0  0.43466536170E+00 -0.51987004124E+00  0.56752140756E+02  0.57242672939E+02  0.74470750000E+01 0. -1.
        -31    1    1    2    0    0 -0.43466536170E+00  0.51987004124E+00  0.62064968216E+02  0.62513825707E+02  0.74470750000E+01 0.  1.
<mgrwt>
<rscale>  0 0.14970424E+02</rscale>
<asrwt>0</asrwt>
<pdfrwt beam="1">  1        2 0.99023052E+00 0.14970424E+02</pdfrwt>
<pdfrwt beam="2">  1       -2 0.99755364E+00 0.14970424E+02</pdfrwt>
<totfact>-0.12142211E-13</totfact>
</mgrwt>
</event>
<event>
 4    1  0.5119137E-019  0.1490819E+02  0.7818608E-02  0.1870883E+00
         -2   -1    0    0    0  501 -0.00000000000E+00  0.00000000000E+00  0.11902964211E+03  0.11902964214E+03  0.25500000000E-02 0. -1.
          2   -1    0    0  501    0  0.00000000000E+00 -0.00000000000E+00 -0.46680059549E+00  0.46680756040E+00  0.25500000000E-02 0.  1.
         31    1    1    2    0    0 -0.26328602923E+00 -0.82129808057E-01  0.57927426750E+02  0.58404809398E+02  0.74470750000E+01 0. -1.
        -31    1    1    2    0    0  0.26328602923E+00  0.82129808057E-01  0.60635414765E+02  0.61091640300E+02  0.74470750000E+01 0. -1.
<mgrwt>
<rscale>  0 0.14908189E+02</rscale>
<asrwt>0</asrwt>
<pdfrwt beam="2">  1        2 0.99142976E+00 0.14908189E+02</pdfrwt>
<pdfrwt beam="1">  1       -2 0.98808025E+00 0.14908189E+02</pdfrwt>
<totfact> 0.19125564E-13</totfact>
</mgrwt>
</event>
<event>
 4    1  0.5119137E-019  0.1492621E+02  0.7818608E-02  0.1870329E+00
          2   -1    0    0  501    0  0.00000000000E+00  0.00000000000E+00  0.12027492805E+03  0.12027492807E+03  0.25500000000E-02 0.  1.
         -2   -1    0    0    0  501 -0.00000000000E+00 -0.00000000000E+00 -0.46308468356E+00  0.46309170436E+00  0.25500000000E-02 0. -1.
         31    1    1    2    0    0 -0.28271293692E+00  0.10054189252E+00  0.63027699275E+02  0.63466840455E+02  0.74470750000E+01 0.  1.
        -31    1    1    2    0    0  0.28271293692E+00 -0.10054189252E+00  0.56784144087E+02  0.57271179322E+02  0.74470750000E+01 0. -1.
<mgrwt>
<rscale>  0 0.14926205E+02</rscale>
<asrwt>0</asrwt>
<pdfrwt beam="1">  1        2 0.99834642E+00 0.14926205E+02</pdfrwt>
<pdfrwt beam="2">  1       -2 0.98360777E+00 0.14926205E+02</pdfrwt>
<totfact> 0.32728851E-13</totfact>
</mgrwt>
</event>
<event>
 4    1 -0.5119137E-019  0.1493499E+02  0.7818608E-02  0.1870059E+00
          2   -1    0    0  501    0  0.00000000000E+00  0.00000000000E+00  0.11926162872E+03  0.11926162875E+03  0.25500000000E-02 0. -1.
         -2   -1    0    0    0  501 -0.00000000000E+00 -0.00000000000E+00 -0.46756890811E+00  0.46757586158E+00  0.25500000000E-02 0.  1.
         31    1    1    2    0    0 -0.19128938352E+00  0.50266116379E+00  0.60387391460E+02  0.60847228641E+02  0.74470750000E+01 0.  1.
        -31    1    1    2    0    0  0.19128938352E+00 -0.50266116379E+00  0.58406668355E+02  0.58881975971E+02  0.74470750000E+01 0.  1.
<mgrwt>
<rscale>  0 0.14934985E+02</rscale>
<asrwt>0</asrwt>
<pdfrwt beam="1">  1        2 0.99000483E+00 0.14934985E+02</pdfrwt>
<pdfrwt beam="2">  1       -2 0.99306271E+00 0.14934985E+02</pdfrwt>
<totfact>-0.15662679E-13</totfact>
</mgrwt>
</event>
<event>
 4    1 -0.5119137E-019  0.1495385E+02  0.7818608E-02  0.1869480E+00
          2   -1    0    0  501    0  0.00000000000E+00  0.00000000000E+00  0.11919372703E+03  0.11919372706E+03  0.25500000000E-02 0.  1.
         -2   -1    0    0    0  501 -0.00000000000E+00 -0.00000000000E+00 -0.46901763437E+00  0.46902456636E+00  0.25500000000E-02 0. -1.
         31    1    1    2    0    0  0.85158403207E-01  0.48680889734E+00  0.62951876931E+02  0.63392759603E+02  0.74470750000E+01 0.  1.
        -31    1    1    2    0    0 -0.85158403207E-01 -0.48680889734E+00  0.55772832469E+02  0.56269992025E+02  0.74470750000E+01 0. -1.
<mgrwt>
<rscale>  0 0.14953846E+02</rscale>
<asrwt>0</asrwt>
<pdfrwt beam="1">  1        2 0.98945535E+00 0.14953846E+02</pdfrwt>
<pdfrwt beam="2">  1       -2 0.99612532E+00 0.14953846E+02</pdfrwt>
<totfact>-0.17444586E-13</totfact>
</mgrwt>
</event>
<event>
 4    1  0.5119137E-019  0.1494411E+02  0.7818608E-02  0.1869779E+00
         -2   -1    0    0    0  501 -0.00000000000E+00  0.00000000000E+00  0.11908641410E+03  0.11908641413E+03  0.25500000000E-02 0. -1.
          2   -1    0    0  501    0  0.00000000000E+00 -0.00000000000E+00 -0.46882926651E+00  0.46883620128E+00  0.25500000000E-02 0.  1.
         31    1    1    2    0    0  0.50361478376E+00  0.34277196423E+00  0.58992222026E+02  0.59463537618E+02  0.74470750000E+01 0. -1.
        -31    1    1    2    0    0 -0.50361478376E+00 -0.34277196423E+00  0.59625362811E+02  0.60091712714E+02  0.74470750000E+01 0.  1.
<mgrwt>
<rscale>  0 0.14944111E+02</rscale>
<asrwt>0</asrwt>
<pdfrwt beam="2">  1        2 0.99572331E+00 0.14944111E+02</pdfrwt>
<pdfrwt beam="1">  1       -2 0.98856646E+00 0.14944111E+02</pdfrwt>
<totfact> 0.96331438E-14</totfact>
</mgrwt>
</event>
<event>
 4    1 -0.5119137E-019  0.1501314E+02  0.7818608E-02  0.1867668E+00
         -2   -1    0    0    0  501 -0.00000000000E+00  0.00000000000E+00  0.12000720914E+03  0.12000720917E+03  0.25500000000E-02 0. -1.
          2   -1    0    0  501    0  0.00000000000E+00 -0.00000000000E+00 -0.46954003857E+00  0.46954696284E+00  0.25500000000E-02 0.  1.
         31    1    1    2    0    0  0.87022496730E+00  0.32304941930E+00  0.58425320468E+02  0.58905336348E+02  0.74470750000E+01 0. -1.
        -31    1    1    2    0    0 -0.87022496730E+00 -0.32304941930E+00  0.61112348635E+02  0.61571419784E+02  0.74470750000E+01 0. -1.
<mgrwt>
<rscale>  0 0.15013142E+02</rscale>
<asrwt>0</asrwt>
<pdfrwt beam="2">  1        2 0.99725698E+00 0.15013142E+02</pdfrwt>
<pdfrwt beam="1">  1       -2 0.99618611E+00 0.15013142E+02</pdfrwt>
<totfact>-0.76048474E-14</totfact>
</mgrwt>
</event>
<event>
 4    1 -0.5119137E-019  0.1497475E+02  0.7818608E-02  0.1868840E+00
          2   -1    0    0  501    0  0.00000000000E+00  0.00000000000E+00  0.11960524265E+03  0.11960524268E+03  0.25500000000E-02 0. -1.
         -2   -1    0    0    0  501 -0.00000000000E+00 -0.00000000000E+00 -0.46871192087E+00  0.46871885738E+00  0.25500000000E-02 0.  1.
         31    1    1    2    0    0  0.46055920335E+00 -0.71194280349E-01  0.54594826499E+02  0.55102370093E+02  0.74470750000E+01 0. -1.
        -31    1    1    2    0    0 -0.46055920335E+00  0.71194280349E-01  0.64541704233E+02  0.64971591444E+02  0.74470750000E+01 0. -1.
<mgrwt>
<rscale>  0 0.14974755E+02</rscale>
<asrwt>0</asrwt>
<pdfrwt beam="1">  1        2 0.99285553E+00 0.14974755E+02</pdfrwt>
<pdfrwt beam="2">  1       -2 0.99549200E+00 0.14974755E+02</pdfrwt>
<totfact>-0.13942109E-13</totfact>
</mgrwt>
</event>
<event>
 4    1  0.5119137E-019  0.1490293E+02  0.7818608E-02  0.1871045E+00
          2   -1    0    0  501    0  0.00000000000E+00  0.00000000000E+00  0.12046087102E+03  0.12046087105E+03  0.25500000000E-02 0. -1.
         -2   -1    0    0    0  501 -0.00000000000E+00 -0.00000000000E+00 -0.46092893895E+00  0.46093599259E+00  0.25500000000E-02 0.  1.
         31    1    1    2    0    0 -0.60281108174E-01  0.24238726916E+00  0.59554211496E+02  0.60018542287E+02  0.74470750000E+01 0. -1.
        -31    1    1    2    0    0  0.60281108174E-01 -0.24238726916E+00  0.60445730590E+02  0.60903264757E+02  0.74470750000E+01 0. -1.
<mgrwt>
<rscale>  0 0.14902930E+02</rscale>
<asrwt>0</asrwt>
<pdfrwt beam="1">  1        2 0.99986611E+00 0.14902930E+02</pdfrwt>
<pdfrwt beam="2">  1       -2 0.97905221E+00 0.14902930E+02</pdfrwt>
<totfact> 0.74616276E-14</totfact>
</mgrwt>
</event>
<event>
 4    1 -0.5119137E-019  0.1495464E+02  0.7818608E-02  0.1869456E+00
         -2   -1    0    0    0  501 -0.00000000000E+00  0.00000000000E+00  0.12000210749E+03  0.12000210752E+03  0.25500000000E-02 0.  1.
          2   -1    0    0  501    0  0.00000000000E+00 -0.00000000000E+00 -0.46590773192E+00  0.46591471018E+00  0.25500000000E-02 0. -1.
         31    1    1    2    0    0  0.39860189940E+00 -0.20249486740E-01  0.64121920546E+02  0.64554154894E+02  0.74470750000E+01 0.  1.
        -31    1    1    2    0    0 -0.39860189940E+00  0.20249486740E-01  0.55414279214E+02  0.55913867336E+02  0.74470750000E+01 0. -1.
<mgrwt>
<rscale>  0 0.14954642E+02</rscale>
<asrwt>0</asrwt>
<pdfrwt beam="2">  1        2 0.98957211E+00 0.14954642E+02</pdfrwt>
<pdfrwt beam="1">  1       -2 0.99611389E+00 0.14954642E+02</pdfrwt>
<totfact>-0.17259215E-13</totfact>
</mgrwt>
</event>
<event>
 4    1 -0.5119137E-019  0.1495874E+02  0.7818608E-02  0.1869330E+00
         -2   -1    0    0    0  501 -0.00000000000E+00  0.00000000000E+00  0.11991444416E+03  0.11991444419E+03  0.25500000000E-02 0.  1.
          2   -1    0    0  501    0  0.00000000000E+00 -0.00000000000E+00 -0.46650384491E+00  0.46651081425E+00  0.25500000000E-02 0. -1.
         31    1    1    2    0    0 -0.51616652270E+00 -0.16951911215E+00  0.63202885614E+02  0.63642429563E+02  0.74470750000E+01 0.  1.
        -31    1    1    2    0    0  0.51616652270E+00  0.16951911215E+00  0.56245054702E+02  0.56738525440E+02  0.74470750000E+01 0.  1.
<mgrwt>
<rscale>  0 0.14958739E+02</rscale>
<asrwt>0</asrwt>
<pdfrwt beam="2">  1        2 0.99083050E+00 0.14958739E+02</pdfrwt>
<pdfrwt beam="1">  1       -2 0.99539396E+00 0.14958739E+02</pdfrwt>
<totfact>-0.16333194E-13</totfact>
</mgrwt>
</event>
<event>
 4    1  0.5119137E-019  0.1490188E+02  0.7818608E-02  0.1871078E+00
         -2   -1    0    0    0  501 -0.00000000000E+00  0.00000000000E+00  0.11855711650E+03  0.11855711653E+03  0.25500000000E-02 0.  1.
          2   -1    0    0  501    0  0.00000000000E+00 -0.00000000000E+00 -0.46826431318E+00  0.46827125632E+00  0.25500000000E-02 0. -1.
         31    1    1    2    0    0  0.98418210675E-01 -0.11513316856E+00  0.60530439705E+02  0.60987015001E+02  0.74470750000E+01 0.  1.
        -31    1    1    2    0    0 -0.98418210675E-01  0.11513316856E+00  0.57558412482E+02  0.58038372783E+02  0.74470750000E+01 0.  1.
<mgrwt>
<rscale>  0 0.14901877E+02</rscale>
<asrwt>0</asrwt>
<pdfrwt beam="2">  1        2 0.99451076E+00 0.14901877E+02</pdfrwt>
<pdfrwt beam="1">  1       -2 0.98418518E+00 0.14901877E+02</pdfrwt>
<totfact> 0.63169364E-13</totfact>
</mgrwt>
</event>
<event>
 4    1  0.5119137E-019  0.1490592E+02  0.7818608E-02  0.1870953E+00
          2   -1    0    0  501    0  0.00000000000E+00  0.00000000000E+00  0.11990573548E+03  0.11990573551E+03  0.25500000000E-02 0. -1.
         -2   -1    0    0    0  501 -0.00000000000E+00 -0.00000000000E+00 -0.46324879837E+00  0.46325581669E+00  0.25500000000E-02 0.  1.
         31    1    1    2    0    0  0.14505375514E+00 -0.12735013705E+00  0.61534621002E+02  0.61983915386E+02  0.74470750000E+01 0. -1.
        -31    1    1    2    0    0 -0.14505375514E+00  0.12735013705E+00  0.57907865678E+02  0.58385075936E+02  0.74470750000E+01 0.  1.
<mgrwt>
<rscale>  0 0.14905920E+02</rscale>
<asrwt>0</asrwt>
<pdfrwt beam="1">  1        2 0.99529504E+00 0.14905920E+02</pdfrwt>
<pdfrwt beam="2">  1       -2 0.98394338E+00 0.14905920E+02</pdfrwt>
<totfact> 0.61984887E-13</totfact>
</mgrwt>
</event>
<event>
 4    1 -0.5119137E-019  0.1499430E+02  0.7818608E-02  0.1868243E+00
         -2   -1    0    0    0  501 -0.00000000000E+00  0.00000000000E+00  0.11977318807E+03  0.11977318810E+03  0.25500000000E-02 0. -1.
          2   -1    0    0  501    0  0.00000000000E+00 -0.00000000000E+00 -0.46927724768E+00  0.46928417583E+00  0.25500000000E-02 0.  1.
         31    1    1    2    0    0  0.59669441665E+00 -0.32123627588E+00  0.55340279134E+02  0.55843214965E+02  0.74470750000E+01 0.  1.
        -31    1    1    2    0    0 -0.59669441665E+00  0.32123627588E+00  0.63963631690E+02  0.64399257310E+02  0.74470750000E+01 0. -1.
<mgrwt>
<rscale>  0 0.14994299E+02</rscale>
<asrwt>0</asrwt>
<pdfrwt beam="2">  1        2 0.99669344E+00 0.14994299E+02</pdfrwt>
<pdfrwt beam="1">  1       -2 0.99424889E+00 0.14994299E+02</pdfrwt>
<totfact>-0.93128904E-14</totfact>
</mgrwt>
</event>
<event>
 4    1 -0.5119137E-019  0.1497804E+02  0.7818608E-02  0.1868739E+00
          2   -1    0    0  501    0  0.00000000000E+00  0.00000000000E+00  0.11984692432E+03  0.11984692435E+03  0.25500000000E-02 0. -1.
         -2   -1    0    0    0  501 -0.00000000000E+00 -0.00000000000E+00 -0.46797191337E+00  0.46797886085E+00  0.25500000000E-02 0.  1.
         31    1    1    2    0    0 -0.69451106143E+00 -0.58116364620E-01  0.62703256731E+02  0.63147787403E+02  0.74470750000E+01 0. -1.
        -31    1    1    2    0    0  0.69451106143E+00  0.58116364620E-01  0.56675695680E+02  0.57167115809E+02  0.74470750000E+01 0. -1.
<mgrwt>
<rscale>  0 0.14978039E+02</rscale>
<asrwt>0</asrwt>
<pdfrwt beam="1">  1        2 0.99484780E+00 0.14978039E+02</pdfrwt>
<pdfrwt beam="2">  1       -2 0.99393426E+00 0.14978039E+02</pdfrwt>
<totfact>-0.11798309E-13</totfact>
</mgrwt>
</event>
<event>
 4    1 -0.5119137E-019  0.1491350E+02  0.7818608E-02  0.1870719E+00
         -2   -1    0    0    0  501 -0.00000000000E+00  0.00000000000E+00  0.11972039202E+03  0.11972039205E+03  0.25500000000E-02 0.  1.
          2   -1    0    0  501    0  0.00000000000E+00 -0.00000000000E+00 -0.46443828351E+00  0.46444528385E+00  0.25500000000E-02 0. -1.
         31    1    1    2    0    0  0.19981733533E+00  0.26333115325E+00  0.61134763082E+02  0.61587559243E+02  0.74470750000E+01 0.  1.
        -31    1    1    2    0    0 -0.19981733533E+00 -0.26333115325E+00  0.58121190653E+02  0.58597278087E+02  0.74470750000E+01 0.  1.
<mgrwt>
<rscale>  0 0.14913505E+02</rscale>
<asrwt>0</asrwt>
<pdfrwt beam="2">  1        2 0.98645418E+00 0.14913505E+02</pdfrwt>
<pdfrwt beam="1">  1       -2 0.99377232E+00 0.14913505E+02</pdfrwt>
<totfact>-0.26605608E-13</totfact>
</mgrwt>
</event>
<event>
 4    1 -0.5119137E-019  0.1491781E+02  0.7818608E-02  0.1870587E+00
          2   -1    0    0  501    0  0.00000000000E+00  0.00000000000E+00  0.11839801892E+03  0.11839801895E+03  0.25500000000E-02 0. -1.
         -2   -1    0    0    0  501 -0.00000000000E+00 -0.00000000000E+00 -0.46989686679E+00  0.46990378581E+00  0.25500000000E-02 0.  1.
         31    1    1    2    0    0  0.28518253498E+00  0.16266481713E+00  0.61050387772E+02  0.61503793070E+02  0.74470750000E+01 0. -1.
        -31    1    1    2    0    0 -0.28518253498E+00 -0.16266481713E+00  0.56877734283E+02  0.57364129664E+02  0.74470750000E+01 0.  1.
<mgrwt>
<rscale>  0 0.14917811E+02</rscale>
<asrwt>0</asrwt>
<pdfrwt beam="1">  1        2 0.98288315E+00 0.14917811E+02</pdfrwt>
<pdfrwt beam="2">  1       -2 0.99795898E+00 0.14917811E+02</pdfrwt>
<totfact>-0.29831492E-13</totfact>
</mgrwt>
</event>
<event>
 4    1 -0.5119137E-019  0.1497339E+02  0.7818608E-02  0.1868881E+00
         -2   -1    0    0    0  501 -0.00000000000E+00  0.00000000000E+00  0.11965050195E+03  0.11965050198E+03  0.25500000000E-02 0.  1.
          2   -1    0    0  501    0  0.00000000000E+00 -0.00000000000E+00 -0.46844950479E+00  0.46845644518E+00  0.25500000000E-02 0. -1.
         31    1    1    2    0    0 -0.19716368648E+00 -0.74214191031E+00  0.59955365367E+02  0.60420976576E+02  0.74470750000E+01 0. -1.
        -31    1    1    2    0    0  0.19716368648E+00  0.74214191031E+00  0.59226687084E+02  0.59697981851E+02  0.74470750000E+01 0.  1.
<mgrwt>
<rscale>  0 0.14973395E+02</rscale>
<asrwt>0</asrwt>
<pdfrwt beam="2">  1        2 0.99493830E+00 0.14973395E+02</pdfrwt>
<pdfrwt beam="1">  1       -2 0.99322759E+00 0.14973395E+02</pdfrwt>
<totfact>-0.10816001E-13</totfact>
</mgrwt>
</event>
